Protein in INSANE! Membrane UpperLeaflet>POPC=1.0 LowerLeaflet>POPC=1.0
241402
   81AUC    AUC    1   6.573  16.811   7.502
   82AUC    AUC    2   6.819  16.811   7.350
   83AUC    AUC    3   6.819  16.811   7.653
   84AUC    AUC    4   6.328  16.811   7.350
   85AUC    AUC    5   6.328  16.811   7.653
   86AUC    AUC    6   6.421  17.056   7.502
   87AUC    AUC    7   6.725  17.056   7.502
   88AUC    AUC    8   6.421  16.565   7.502
   89AUC    AUC    9   6.725  16.565   7.502
   90AUC    AUC   10   6.573  16.659   7.747
   91AUC    AUC   11   6.573  16.962   7.747
   92AUC    AUC   12   6.573  16.659   7.256
   93AUC    AUC   13   6.573  16.962   7.256
   94AUC    AUC   14   7.064  16.811   7.198
   95AUC    AUC   15   7.064  16.811   7.502
   96AUC    AUC   16   7.064  16.811   7.805
   97AUC    AUC   17   6.082  16.811   7.198
   98AUC    AUC   18   6.082  16.811   7.502
   99AUC    AUC   19   6.082  16.811   7.805
  100AUC    AUC   20   6.270  17.301   7.502
  101AUC    AUC   21   6.573  17.301   7.502
  102AUC    AUC   22   6.876  17.301   7.502
  103AUC    AUC   23   6.270  16.320   7.502
  104AUC    AUC   24   6.573  16.320   7.502
  105AUC    AUC   25   6.876  16.320   7.502
  106AUC    AUC   26   6.573  16.507   7.992
  107AUC    AUC   27   6.573  16.811   7.992
  108AUC    AUC   28   6.573  17.114   7.992
  109AUC    AUC   29   6.573  16.507   7.011
  110AUC    AUC   30   6.573  16.811   7.011
  111AUC    AUC   31   6.573  17.114   7.011
  112AUC    AUC   32   6.819  16.659   7.899
  113AUC    AUC   33   6.819  16.962   7.899
  114AUC    AUC   34   6.819  16.659   7.105
  115AUC    AUC   35   6.819  16.962   7.105
  116AUC    AUC   36   6.328  16.659   7.899
  117AUC    AUC   37   6.328  16.962   7.899
  118AUC    AUC   38   6.328  16.659   7.105
  119AUC    AUC   39   6.328  16.962   7.105
  120AUC    AUC   40   6.970  17.056   7.350
  121AUC    AUC   41   6.970  17.056   7.653
  122AUC    AUC   42   6.176  17.056   7.350
  123AUC    AUC   43   6.176  17.056   7.653
  124AUC    AUC   44   6.970  16.565   7.350
  125AUC    AUC   45   6.970  16.565   7.653
  126AUC    AUC   46   6.176  16.565   7.350
  127AUC    AUC   47   6.176  16.565   7.653
  128AUC    AUC   48   6.421  17.208   7.747
  129AUC    AUC   49   6.725  17.208   7.747
  130AUC    AUC   50   6.421  16.413   7.747
  131AUC    AUC   51   6.725  16.413   7.747
  132AUC    AUC   52   6.421  17.208   7.256
  133AUC    AUC   53   6.725  17.208   7.256
  134AUC    AUC   54   6.421  16.413   7.256
  135AUC    AUC   55   6.725  16.413   7.256
  136AUSL   AUS   56   6.982  16.811   8.082
  137AUSL   AUS   57   6.838  16.394   8.012
  138AUL    AUL   58   7.064  16.507   8.296
  139THSLK    S   59   6.952  16.206   8.156
  140ETHY    C1   60   7.018  15.821   8.391
  141ETHY    C1   61   7.161  15.413   8.710
  142ETHY    C1   62   7.370  15.077   9.066
  143ETHY    C1   63   7.636  14.819   9.450
  144ETHY    C1   64   7.952  14.643   9.855
  145THSLK    S   65   7.078  16.761   8.326
  146ETHY    C1   66   7.294  16.575   8.681
  147ETHY    C1   67   7.569  16.440   9.124
  148ETHY    C1   68   7.850  16.410   9.575
  149ETHY    C1   69   8.128  16.479  10.025
  150ETHY    C1   70   8.397  16.647  10.466
  151AUSL   AUS   71   6.737  16.659   8.175
  152AUSL   AUS   72   6.410  16.962   8.175
  153AUL    AUL   73   6.573  16.811   8.483
  154THSLK    S   74   6.815  16.606   8.417
  155ETHY    C1   75   6.892  16.356   8.790
  156ETHY    C1   76   7.008  16.139   9.269
  157ETHY    C1   77   7.145  16.023   9.769
  158ETHY    C1   78   7.295  16.005  10.281
  159ETHY    C1   79   7.454  16.086  10.794
  160THSLK    S   80   6.323  16.919   8.431
  161ETHY    C1   81   6.241  16.807   8.864
  162ETHY    C1   82   6.127  16.761   9.388
  163ETHY    C1   83   5.995  16.819   9.901
  164ETHY    C1   84   5.844  16.972  10.389
  165ETHY    C1   85   5.678  17.216  10.844
  166AUSL   AUS   86   6.737  16.962   8.175
  167AUSL   AUS   87   7.083  17.075   7.918
  168AUL    AUL   88   7.064  17.114   8.296
  169THSLK    S   89   6.824  17.016   8.414
  170ETHY    C1   90   6.905  17.267   8.786
  171ETHY    C1   91   7.019  17.483   9.265
  172ETHY    C1   92   7.152  17.599   9.767
  173ETHY    C1   93   7.302  17.617  10.279
  174ETHY    C1   94   7.468  17.537  10.789
  175THSLK    S   95   7.257  17.177   8.080
  176ETHY    C1   96   7.621  17.187   8.354
  177ETHY    C1   97   8.037  17.289   8.680
  178ETHY    C1   98   8.417  17.488   8.995
  179ETHY    C1   99   8.752  17.775   9.296
  180ETHY    C1  100   9.033  18.143   9.577
  181AUSL   AUS  101   6.982  16.811   6.922
  182AUSL   AUS  102   6.838  17.227   6.992
  183AUL    AUL  103   7.064  17.114   6.707
  184THSLK    S  104   7.085  16.761   6.681
  185ETHY    C1  105   7.306  16.575   6.329
  186ETHY    C1  106   7.579  16.440   5.885
  187ETHY    C1  107   7.857  16.410   5.432
  188ETHY    C1  108   8.135  16.479   4.982
  189ETHY    C1  109   8.409  16.647   4.545
  190THSLK    S  110   7.016  17.342   6.825
  191ETHY    C1  111   7.304  17.447   6.488
  192ETHY    C1  112   7.604  17.651   6.090
  193ETHY    C1  113   7.847  17.939   5.714
  194ETHY    C1  114   8.031  18.303   5.371
  195ETHY    C1  115   8.155  18.734   5.065
  196AUSL   AUS  116   6.737  16.659   6.828
  197AUSL   AUS  117   7.083  16.546   7.085
  198AUL    AUL  118   7.064  16.507   6.707
  199THSLK    S  119   7.220  16.354   6.944
  200ETHY    C1  120   7.428  16.011   6.729
  201ETHY    C1  121   7.729  15.669   6.442
  202ETHY    C1  122   8.080  15.416   6.133
  203ETHY    C1  123   8.474  15.254   5.812
  204ETHY    C1  124   8.903  15.183   5.486
  205THSLK    S  125   6.824  16.605   6.590
  206ETHY    C1  126   6.905  16.354   6.217
  207ETHY    C1  127   7.019  16.138   5.738
  208ETHY    C1  128   7.152  16.022   5.236
  209ETHY    C1  129   7.302  16.004   4.725
  210ETHY    C1  130   7.468  16.084   4.214
  211AUSL   AUS  131   6.737  16.962   6.828
  212AUSL   AUS  132   6.410  16.659   6.828
  213AUL    AUL  133   6.573  16.811   6.520
  214THSLK    S  134   6.315  16.605   6.592
  215ETHY    C1  135   6.178  16.357   6.235
  216ETHY    C1  136   6.018  16.143   5.767
  217ETHY    C1  137   5.871  16.028   5.269
  218ETHY    C1  138   5.744  16.009   4.751
  219ETHY    C1  139   5.639  16.085   4.224
  220THSLK    S  140   6.840  16.920   6.578
  221ETHY    C1  141   6.981  16.805   6.160
  222ETHY    C1  142   7.139  16.758   5.647
  223ETHY    C1  143   7.282  16.814   5.138
  224ETHY    C1  144   7.410  16.968   4.643
  225ETHY    C1  145   7.521  17.216   4.174
  226AUSL   AUS  146   6.164  16.811   8.082
  227AUSL   AUS  147   6.308  17.227   8.012
  228AUL    AUL  148   6.082  17.114   8.296
  229THSLK    S  149   6.061  16.761   8.322
  230ETHY    C1  150   5.840  16.575   8.674
  231ETHY    C1  151   5.567  16.440   9.118
  232ETHY    C1  152   5.290  16.410   9.571
  233ETHY    C1  153   5.012  16.479  10.021
  234ETHY    C1  154   4.737  16.647  10.458
  235THSLK    S  155   6.188  17.356   8.202
  236ETHY    C1  156   6.119  17.525   8.620
  237ETHY    C1  157   5.977  17.778   9.073
  238ETHY    C1  158   5.771  18.079   9.460
  239ETHY    C1  159   5.504  18.418   9.775
  240ETHY    C1  160   5.184  18.785  10.013
  241AUSL   AUS  161   6.410  16.659   8.175
  242AUSL   AUS  162   6.063  16.546   7.918
  243AUL    AUL  163   6.082  16.507   8.296
  244THSLK    S  164   5.885  16.382   8.029
  245ETHY    C1  165   5.517  16.129   8.125
  246ETHY    C1  166   5.102  15.850   8.323
  247ETHY    C1  167   4.724  15.610   8.611
  248ETHY    C1  168   4.390  15.414   8.978
  249ETHY    C1  169   4.104  15.268   9.415
  250THSLK    S  170   6.307  16.607   8.410
  251ETHY    C1  171   6.165  16.360   8.766
  252ETHY    C1  172   6.007  16.145   9.233
  253ETHY    C1  173   5.864  16.029   9.733
  254ETHY    C1  174   5.737  16.011  10.250
  255ETHY    C1  175   5.625  16.089  10.775
  256AUSL   AUS  176   6.164  16.811   6.922
  257AUSL   AUS  177   6.308  16.394   6.992
  258AUL    AUL  178   6.082  16.507   6.707
  259THSLK    S  179   6.069  16.761   6.677
  260ETHY    C1  180   5.852  16.575   6.322
  261ETHY    C1  181   5.577  16.440   5.879
  262ETHY    C1  182   5.296  16.410   5.429
  263ETHY    C1  183   5.018  16.479   4.978
  264ETHY    C1  184   4.750  16.647   4.537
  265THSLK    S  185   6.136  16.220   6.872
  266ETHY    C1  186   5.851  15.899   6.717
  267ETHY    C1  187   5.550  15.540   6.453
  268ETHY    C1  188   5.305  15.217   6.109
  269ETHY    C1  189   5.121  14.934   5.696
  270ETHY    C1  190   5.002  14.694   5.223
  271AUSL   AUS  191   6.410  16.962   6.828
  272AUSL   AUS  192   6.063  17.075   7.085
  273AUL    AUL  193   6.082  17.114   6.707
  274THSLK    S  194   5.932  17.205   6.893
  275ETHY    C1  195   5.726  17.305   6.499
  276ETHY    C1  196   5.424  17.469   6.085
  277ETHY    C1  197   5.070  17.681   5.748
  278ETHY    C1  198   4.677  17.935   5.494
  279ETHY    C1  199   4.252  18.228   5.324
  280THSLK    S  200   6.331  16.921   6.571
  281ETHY    C1  201   6.254  16.809   6.136
  282ETHY    C1  202   6.138  16.764   5.612
  283ETHY    C1  203   6.002  16.820   5.101
  284ETHY    C1  204   5.852  16.974   4.613
  285ETHY    C1  205   5.692  17.219   4.156
  286AUSL   AUS  206   7.153  17.220   7.502
  287AUSL   AUS  207   7.083  17.075   7.085
  288AUL    AUL  208   7.367  17.301   7.198
  289THSLK    S  209   7.262  17.178   6.930
  290ETHY    C1  210   7.629  17.189   6.659
  291ETHY    C1  211   8.044  17.291   6.332
  292ETHY    C1  212   8.422  17.489   6.014
  293ETHY    C1  213   8.756  17.776   5.713
  294ETHY    C1  214   9.042  18.146   5.438
  295THSLK    S  215   7.421  17.276   7.506
  296ETHY    C1  216   7.873  17.337   7.508
  297ETHY    C1  217   8.387  17.496   7.507
  298ETHY    C1  218   8.855  17.750   7.505
  299ETHY    C1  219   9.268  18.087   7.506
  300ETHY    C1  220   9.620  18.501   7.509
  301AUSL   AUS  221   7.247  16.974   7.350
  302AUSL   AUS  222   7.247  16.647   7.653
  303AUL    AUL  223   7.555  16.811   7.502
  304THSLK    S  224   7.506  17.017   7.348
  305ETHY    C1  225   7.951  16.947   7.278
  306ETHY    C1  226   8.482  16.954   7.190
  307ETHY    C1  227   8.995  17.064   7.101
  308ETHY    C1  228   9.480  17.270   7.017
  309ETHY    C1  229   9.927  17.567   6.940
  310THSLK    S  230   7.479  16.509   7.662
  311ETHY    C1  231   7.825  16.220   7.728
  312ETHY    C1  232   8.286  15.953   7.809
  313ETHY    C1  233   8.783  15.784   7.892
  314ETHY    C1  234   9.304  15.712   7.980
  315ETHY    C1  235   9.839  15.738   8.071
  316AUSL   AUS  236   7.247  16.974   7.653
  317AUSL   AUS  237   6.990  17.321   7.766
  318AUL    AUL  238   7.367  17.301   7.805
  319THSLK    S  239   7.173  17.440   7.926
  320ETHY    C1  240   7.545  17.595   8.139
  321ETHY    C1  241   7.945  17.860   8.385
  322ETHY    C1  242   8.279  18.204   8.615
  323ETHY    C1  243   8.541  18.617   8.827
  324ETHY    C1  244   8.728  19.089   9.019
  325THSLK    S  245   7.505  17.017   7.664
  326ETHY    C1  246   7.949  16.947   7.738
  327ETHY    C1  247   8.480  16.954   7.825
  328ETHY    C1  248   8.994  17.064   7.910
  329ETHY    C1  249   9.478  17.270   7.994
  330ETHY    C1  250   9.925  17.567   8.078
  331AUSL   AUS  251   5.993  17.220   7.502
  332AUSL   AUS  252   6.063  17.075   7.918
  333AUL    AUL  253   5.779  17.301   7.805
  334THSLK    S  254   5.927  17.198   8.109
  335ETHY    C1  255   5.718  17.294   8.503
  336ETHY    C1  256   5.417  17.460   8.917
  337ETHY    C1  257   5.066  17.675   9.254
  338ETHY    C1  258   4.672  17.929   9.509
  339ETHY    C1  259   4.243  18.216   9.678
  340THSLK    S  260   5.777  17.360   7.506
  341ETHY    C1  261   5.521  17.738   7.508
  342ETHY    C1  262   5.148  18.126   7.507
  343ETHY    C1  263   4.712  18.432   7.505
  344ETHY    C1  264   4.226  18.650   7.506
  345ETHY    C1  265   3.699  18.780   7.509
  346AUSL   AUS  266   5.899  16.974   7.350
  347AUSL   AUS  267   6.157  17.321   7.237
  348AUL    AUL  268   5.779  17.301   7.198
  349THSLK    S  269   5.668  17.089   7.303
  350ETHY    C1  270   5.321  17.277   7.075
  351ETHY    C1  271   4.861  17.469   6.872
  352ETHY    C1  272   4.363  17.619   6.758
  353ETHY    C1  273   3.842  17.729   6.733
  354ETHY    C1  274   3.308  17.799   6.796
  355THSLK    S  275   6.041  17.486   7.058
  356ETHY    C1  276   5.925  17.802   6.750
  357ETHY    C1  277   5.711  18.180   6.432
  358ETHY    C1  278   5.419  18.549   6.183
  359ETHY    C1  279   5.061  18.902   6.008
  360ETHY    C1  280   4.643  19.235   5.909
  361AUSL   AUS  281   5.899  16.974   7.653
  362AUSL   AUS  282   5.899  16.647   7.350
  363AUL    AUL  283   5.591  16.811   7.502
  364THSLK    S  284   5.641  16.573   7.390
  365ETHY    C1  285   5.197  16.538   7.486
  366ETHY    C1  286   4.666  16.457   7.518
  367ETHY    C1  287   4.152  16.332   7.458
  368ETHY    C1  288   3.668  16.164   7.311
  369ETHY    C1  289   3.221  15.957   7.083
  370THSLK    S  290   5.666  17.081   7.704
  371ETHY    C1  291   5.319  17.265   7.935
  372ETHY    C1  292   4.859  17.458   8.137
  373ETHY    C1  293   4.362  17.613   8.249
  374ETHY    C1  294   3.841  17.723   8.274
  375ETHY    C1  295   3.305  17.786   8.213
  376AUSL   AUS  296   7.153  16.401   7.502
  377AUSL   AUS  297   7.083  16.546   7.918
  378AUL    AUL  298   7.367  16.320   7.805
  379THSLK    S  299   7.369  16.261   7.506
  380ETHY    C1  300   7.625  15.883   7.508
  381ETHY    C1  301   7.998  15.495   7.507
  382ETHY    C1  302   8.434  15.189   7.505
  383ETHY    C1  303   8.920  14.971   7.506
  384ETHY    C1  304   9.447  14.841   7.509
  385THSLK    S  305   7.215  16.356   8.066
  386ETHY    C1  306   7.420  16.013   8.285
  387ETHY    C1  307   7.722  15.671   8.570
  388ETHY    C1  308   8.076  15.418   8.877
  389ETHY    C1  309   8.470  15.255   9.198
  390ETHY    C1  310   8.894  15.185   9.529
  391AUSL   AUS  311   7.247  16.647   7.350
  392AUSL   AUS  312   6.990  16.300   7.237
  393AUL    AUL  313   7.367  16.320   7.198
  394THSLK    S  314   7.480  16.509   7.350
  395ETHY    C1  315   7.828  16.220   7.289
  396ETHY    C1  316   8.287  15.953   7.206
  397ETHY    C1  317   8.784  15.784   7.118
  398ETHY    C1  318   9.306  15.712   7.031
  399ETHY    C1  319   9.841  15.738   6.947
  400THSLK    S  320   7.109  16.110   7.104
  401ETHY    C1  321   7.226  15.693   6.963
  402ETHY    C1  322   7.440  15.239   6.765
  403ETHY    C1  323   7.730  14.853   6.543
  404ETHY    C1  324   8.089  14.538   6.306
  405ETHY    C1  325   8.509  14.299   6.058
  406AUSL   AUS  326   5.993  16.401   7.502
  407AUSL   AUS  327   6.063  16.546   7.085
  408AUL    AUL  328   5.779  16.320   7.198
  409THSLK    S  329   5.890  16.375   6.973
  410ETHY    C1  330   5.525  16.118   6.877
  411ETHY    C1  331   5.109  15.841   6.679
  412ETHY    C1  332   4.729  15.604   6.392
  413ETHY    C1  333   4.395  15.408   6.025
  414ETHY    C1  334   4.113  15.256   5.587
  415THSLK    S  335   5.725  16.345   7.506
  416ETHY    C1  336   5.273  16.284   7.508
  417ETHY    C1  337   4.759  16.125   7.507
  418ETHY    C1  338   4.291  15.871   7.505
  419ETHY    C1  339   3.878  15.534   7.506
  420ETHY    C1  340   3.526  15.120   7.509
  421AUSL   AUS  341   5.899  16.647   7.653
  422AUSL   AUS  342   6.157  16.300   7.766
  423AUL    AUL  343   5.779  16.320   7.805
  424THSLK    S  344   5.969  16.156   7.880
  425ETHY    C1  345   5.595  15.899   7.926
  426ETHY    C1  346   5.197  15.559   8.052
  427ETHY    C1  347   4.864  15.197   8.255
  428ETHY    C1  348   4.602  14.823   8.529
  429ETHY    C1  349   4.411  14.445   8.870
  430THSLK    S  350   5.640  16.580   7.617
  431ETHY    C1  351   5.195  16.550   7.524
  432ETHY    C1  352   4.664  16.468   7.490
  433ETHY    C1  353   4.151  16.339   7.549
  434ETHY    C1  354   3.667  16.171   7.696
  435ETHY    C1  355   3.219  15.969   7.928
  436AUSL   AUS  356   6.573  17.391   7.911
  437AUSL   AUS  357   6.157  17.321   7.766
  438AUL    AUL  358   6.270  17.605   7.992
  439THSLK    S  359   6.037  17.480   7.950
  440ETHY    C1  360   5.920  17.792   8.261
  441ETHY    C1  361   5.706  18.172   8.578
  442ETHY    C1  362   5.416  18.543   8.824
  443ETHY    C1  363   5.058  18.897   9.000
  444ETHY    C1  364   4.637  19.225   9.102
  445THSLK    S  365   6.613  17.617   8.035
  446ETHY    C1  366   6.770  17.919   8.339
  447ETHY    C1  367   6.885  18.325   8.672
  448ETHY    C1  368   6.912  18.769   8.964
  449ETHY    C1  369   6.852  19.238   9.211
  450ETHY    C1  370   6.708  19.722   9.410
  451AUSL   AUS  371   6.421  17.484   7.665
  452AUSL   AUS  372   6.725  17.484   7.338
  453AUL    AUL  373   6.573  17.792   7.502
  454THSLK    S  374   6.462  17.732   7.774
  455ETHY    C1  375   6.571  18.142   7.942
  456ETHY    C1  376   6.615  18.649   8.118
  457ETHY    C1  377   6.558  19.157   8.265
  458ETHY    C1  378   6.405  19.654   8.383
  459ETHY    C1  379   6.162  20.131   8.472
  460THSLK    S  380   6.778  17.719   7.241
  461ETHY    C1  381   7.023  18.075   7.094
  462ETHY    C1  382   7.236  18.540   6.927
  463ETHY    C1  383   7.351  19.038   6.779
  464ETHY    C1  384   7.371  19.557   6.655
  465ETHY    C1  385   7.296  20.086   6.558
  466AUSL   AUS  386   6.725  17.484   7.665
  467AUSL   AUS  387   6.838  17.227   8.012
  468AUL    AUL  388   6.876  17.605   7.992
  469THSLK    S  389   7.010  17.340   8.184
  470ETHY    C1  390   7.295  17.443   8.524
  471ETHY    C1  391   7.597  17.647   8.921
  472ETHY    C1  392   7.842  17.937   9.294
  473ETHY    C1  393   8.026  18.300   9.638
  474ETHY    C1  394   8.145  18.730   9.948
  475THSLK    S  395   6.776  17.718   7.771
  476ETHY    C1  396   7.020  18.072   7.922
  477ETHY    C1  397   7.233  18.538   8.087
  478ETHY    C1  398   7.349  19.037   8.231
  479ETHY    C1  399   7.368  19.555   8.356
  480ETHY    C1  400   7.293  20.083   8.458
  481AUSL   AUS  401   6.573  16.231   7.911
  482AUSL   AUS  402   6.990  16.300   7.766
  483AUL    AUL  403   6.876  16.016   7.992
  484THSLK    S  404   6.529  15.976   7.990
  485ETHY    C1  405   6.369  15.572   8.128
  486ETHY    C1  406   6.255  15.091   8.341
  487ETHY    C1  407   6.230  14.630   8.605
  488ETHY    C1  408   6.289  14.200   8.915
  489ETHY    C1  409   6.430  13.808   9.263
  490THSLK    S  410   7.105  16.111   7.908
  491ETHY    C1  411   7.221  15.695   8.052
  492ETHY    C1  412   7.435  15.242   8.248
  493ETHY    C1  413   7.727  14.854   8.467
  494ETHY    C1  414   8.086  14.539   8.705
  495ETHY    C1  415   8.503  14.302   8.958
  496AUSL   AUS  416   6.421  16.137   7.665
  497AUSL   AUS  417   6.308  16.394   8.012
  498AUL    AUL  418   6.270  16.016   7.992
  499THSLK    S  419   6.368  15.897   7.745
  500ETHY    C1  420   6.123  15.516   7.801
  501ETHY    C1  421   5.910  15.031   7.897
  502ETHY    C1  422   5.795  14.528   8.025
  503ETHY    C1  423   5.776  14.019   8.186
  504ETHY    C1  424   5.850  13.516   8.374
  505THSLK    S  425   6.130  16.226   8.133
  506ETHY    C1  426   5.842  15.908   8.289
  507ETHY    C1  427   5.542  15.548   8.552
  508ETHY    C1  428   5.299  15.222   8.896
  509ETHY    C1  429   5.115  14.939   9.309
  510ETHY    C1  430   4.991  14.705   9.783
  511AUSL   AUS  431   6.725  16.137   7.665
  512AUSL   AUS  432   6.421  16.137   7.338
  513AUL    AUL  433   6.573  15.829   7.502
  514THSLK    S  434   6.370  15.894   7.266
  515ETHY    C1  435   6.126  15.512   7.215
  516ETHY    C1  436   5.913  15.028   7.117
  517ETHY    C1  437   5.797  14.526   6.984
  518ETHY    C1  438   5.778  14.017   6.825
  519ETHY    C1  439   5.854  13.512   6.642
  520THSLK    S  440   6.682  15.881   7.749
  521ETHY    C1  441   6.572  15.445   7.821
  522ETHY    C1  442   6.529  14.919   7.928
  523ETHY    C1  443   6.586  14.407   8.059
  524ETHY    C1  444   6.739  13.919   8.213
  525ETHY    C1  445   6.981  13.466   8.388
  526AUSL   AUS  446   6.573  17.391   7.093
  527AUSL   AUS  447   6.990  17.321   7.237
  528AUL    AUL  448   6.876  17.605   7.011
  529THSLK    S  449   6.617  17.621   6.975
  530ETHY    C1  450   6.777  17.925   6.674
  531ETHY    C1  451   6.891  18.330   6.339
  532ETHY    C1  452   6.916  18.773   6.045
  533ETHY    C1  453   6.857  19.242   5.798
  534ETHY    C1  454   6.716  19.729   5.604
  535THSLK    S  455   7.177  17.442   7.085
  536ETHY    C1  456   7.551  17.598   6.876
  537ETHY    C1  457   7.949  17.862   6.629
  538ETHY    C1  458   8.282  18.206   6.395
  539ETHY    C1  459   8.544  18.618   6.184
  540ETHY    C1  460   8.735  19.092   5.998
  541AUSL   AUS  461   6.421  17.484   7.338
  542AUSL   AUS  462   6.308  17.227   6.992
  543AUL    AUL  463   6.270  17.605   7.011
  544THSLK    S  464   6.464  17.735   7.237
  545ETHY    C1  465   6.574  18.146   7.074
  546ETHY    C1  466   6.617  18.652   6.896
  547ETHY    C1  467   6.560  19.160   6.745
  548ETHY    C1  468   6.407  19.657   6.627
  549ETHY    C1  469   6.165  20.136   6.545
  550THSLK    S  470   6.194  17.362   6.802
  551ETHY    C1  471   6.128  17.534   6.385
  552ETHY    C1  472   5.985  17.786   5.932
  553ETHY    C1  473   5.776  18.085   5.544
  554ETHY    C1  474   5.510  18.423   5.230
  555ETHY    C1  475   5.194  18.796   4.993
  556AUSL   AUS  476   6.573  16.231   7.093
  557AUSL   AUS  477   6.157  16.300   7.237
  558AUL    AUL  478   6.270  16.016   7.011
  559THSLK    S  479   5.973  16.150   7.128
  560ETHY    C1  480   5.601  15.889   7.085
  561ETHY    C1  481   5.202  15.551   6.958
  562ETHY    C1  482   4.867  15.192   6.753
  563ETHY    C1  483   4.605  14.818   6.478
  564ETHY    C1  484   4.418  14.435   6.142
  565THSLK    S  485   6.533  15.972   7.019
  566ETHY    C1  486   6.376  15.566   6.885
  567ETHY    C1  487   6.261  15.086   6.671
  568ETHY    C1  488   6.234  14.627   6.404
  569ETHY    C1  489   6.294  14.196   6.094
  570ETHY    C1  490   6.438  13.801   5.751
  571AUSL   AUS  491   6.725  16.137   7.338
  572AUSL   AUS  492   6.838  16.394   6.992
  573AUL    AUL  493   6.876  16.016   7.011
  574THSLK    S  494   6.684  15.880   7.262
  575ETHY    C1  495   6.575  15.442   7.195
  576ETHY    C1  496   6.532  14.916   7.086
  577ETHY    C1  497   6.588  14.405   6.951
  578ETHY    C1  498   6.741  13.917   6.798
  579ETHY    C1  499   6.985  13.463   6.629
  580THSLK    S  500   6.958  16.204   6.853
  581ETHY    C1  501   7.027  15.818   6.621
  582ETHY    C1  502   7.169  15.410   6.300
  583ETHY    C1  503   7.376  15.074   5.942
  584ETHY    C1  504   7.642  14.817   5.559
  585ETHY    C1  505   7.962  14.639   5.158
  586AUC    AUC  506  23.734  30.264   7.502
  587AUC    AUC  507  23.980  30.264   7.350
  588AUC    AUC  508  23.980  30.264   7.653
  589AUC    AUC  509  23.489  30.264   7.350
  590AUC    AUC  510  23.489  30.264   7.653
  591AUC    AUC  511  23.582  30.509   7.502
  592AUC    AUC  512  23.886  30.509   7.502
  593AUC    AUC  513  23.582  30.018   7.502
  594AUC    AUC  514  23.886  30.018   7.502
  595AUC    AUC  515  23.734  30.112   7.747
  596AUC    AUC  516  23.734  30.415   7.747
  597AUC    AUC  517  23.734  30.112   7.256
  598AUC    AUC  518  23.734  30.415   7.256
  599AUC    AUC  519  24.225  30.264   7.198
  600AUC    AUC  520  24.225  30.264   7.502
  601AUC    AUC  521  24.225  30.264   7.805
  602AUC    AUC  522  23.243  30.264   7.198
  603AUC    AUC  523  23.243  30.264   7.502
  604AUC    AUC  524  23.243  30.264   7.805
  605AUC    AUC  525  23.431  30.754   7.502
  606AUC    AUC  526  23.734  30.754   7.502
  607AUC    AUC  527  24.037  30.754   7.502
  608AUC    AUC  528  23.431  29.773   7.502
  609AUC    AUC  529  23.734  29.773   7.502
  610AUC    AUC  530  24.037  29.773   7.502
  611AUC    AUC  531  23.734  29.960   7.992
  612AUC    AUC  532  23.734  30.264   7.992
  613AUC    AUC  533  23.734  30.567   7.992
  614AUC    AUC  534  23.734  29.960   7.011
  615AUC    AUC  535  23.734  30.264   7.011
  616AUC    AUC  536  23.734  30.567   7.011
  617AUC    AUC  537  23.980  30.112   7.899
  618AUC    AUC  538  23.980  30.415   7.899
  619AUC    AUC  539  23.980  30.112   7.105
  620AUC    AUC  540  23.980  30.415   7.105
  621AUC    AUC  541  23.489  30.112   7.899
  622AUC    AUC  542  23.489  30.415   7.899
  623AUC    AUC  543  23.489  30.112   7.105
  624AUC    AUC  544  23.489  30.415   7.105
  625AUC    AUC  545  24.131  30.509   7.350
  626AUC    AUC  546  24.131  30.509   7.653
  627AUC    AUC  547  23.337  30.509   7.350
  628AUC    AUC  548  23.337  30.509   7.653
  629AUC    AUC  549  24.131  30.018   7.350
  630AUC    AUC  550  24.131  30.018   7.653
  631AUC    AUC  551  23.337  30.018   7.350
  632AUC    AUC  552  23.337  30.018   7.653
  633AUC    AUC  553  23.582  30.661   7.747
  634AUC    AUC  554  23.886  30.661   7.747
  635AUC    AUC  555  23.582  29.866   7.747
  636AUC    AUC  556  23.886  29.866   7.747
  637AUC    AUC  557  23.582  30.661   7.256
  638AUC    AUC  558  23.886  30.661   7.256
  639AUC    AUC  559  23.582  29.866   7.256
  640AUC    AUC  560  23.886  29.866   7.256
  641AUSL   AUS  561  24.143  30.264   8.082
  642AUSL   AUS  562  23.999  29.847   8.012
  643AUL    AUL  563  24.225  29.960   8.296
  644THSLK    S  564  24.113  29.659   8.156
  645ETHY    C1  565  24.179  29.274   8.391
  646ETHY    C1  566  24.322  28.866   8.710
  647ETHY    C1  567  24.531  28.530   9.066
  648ETHY    C1  568  24.797  28.272   9.450
  649ETHY    C1  569  25.113  28.096   9.855
  650THSLK    S  570  24.239  30.214   8.326
  651ETHY    C1  571  24.455  30.028   8.681
  652ETHY    C1  572  24.730  29.893   9.124
  653ETHY    C1  573  25.011  29.863   9.575
  654ETHY    C1  574  25.289  29.932  10.025
  655ETHY    C1  575  25.558  30.100  10.466
  656AUSL   AUS  576  23.898  30.112   8.175
  657AUSL   AUS  577  23.571  30.415   8.175
  658AUL    AUL  578  23.734  30.264   8.483
  659THSLK    S  579  23.976  30.059   8.417
  660ETHY    C1  580  24.053  29.809   8.790
  661ETHY    C1  581  24.169  29.592   9.269
  662ETHY    C1  582  24.306  29.476   9.769
  663ETHY    C1  583  24.456  29.458  10.281
  664ETHY    C1  584  24.615  29.539  10.794
  665THSLK    S  585  23.484  30.372   8.431
  666ETHY    C1  586  23.402  30.260   8.864
  667ETHY    C1  587  23.288  30.214   9.388
  668ETHY    C1  588  23.156  30.272   9.901
  669ETHY    C1  589  23.005  30.425  10.389
  670ETHY    C1  590  22.839  30.669  10.844
  671AUSL   AUS  591  23.898  30.415   8.175
  672AUSL   AUS  592  24.244  30.528   7.918
  673AUL    AUL  593  24.225  30.567   8.296
  674THSLK    S  594  23.985  30.469   8.414
  675ETHY    C1  595  24.066  30.720   8.786
  676ETHY    C1  596  24.180  30.936   9.265
  677ETHY    C1  597  24.313  31.052   9.767
  678ETHY    C1  598  24.463  31.070  10.279
  679ETHY    C1  599  24.629  30.990  10.789
  680THSLK    S  600  24.418  30.630   8.080
  681ETHY    C1  601  24.782  30.640   8.354
  682ETHY    C1  602  25.198  30.742   8.680
  683ETHY    C1  603  25.578  30.941   8.995
  684ETHY    C1  604  25.913  31.228   9.296
  685ETHY    C1  605  26.194  31.596   9.577
  686AUSL   AUS  606  24.143  30.264   6.922
  687AUSL   AUS  607  23.999  30.680   6.992
  688AUL    AUL  608  24.225  30.567   6.707
  689THSLK    S  609  24.246  30.214   6.681
  690ETHY    C1  610  24.467  30.028   6.329
  691ETHY    C1  611  24.740  29.893   5.885
  692ETHY    C1  612  25.018  29.863   5.432
  693ETHY    C1  613  25.296  29.932   4.982
  694ETHY    C1  614  25.570  30.100   4.545
  695THSLK    S  615  24.177  30.795   6.825
  696ETHY    C1  616  24.465  30.900   6.488
  697ETHY    C1  617  24.765  31.104   6.090
  698ETHY    C1  618  25.008  31.392   5.714
  699ETHY    C1  619  25.192  31.756   5.371
  700ETHY    C1  620  25.316  32.187   5.065
  701AUSL   AUS  621  23.898  30.112   6.828
  702AUSL   AUS  622  24.244  29.999   7.085
  703AUL    AUL  623  24.225  29.960   6.707
  704THSLK    S  624  24.381  29.807   6.944
  705ETHY    C1  625  24.589  29.464   6.729
  706ETHY    C1  626  24.890  29.122   6.442
  707ETHY    C1  627  25.241  28.869   6.133
  708ETHY    C1  628  25.635  28.707   5.812
  709ETHY    C1  629  26.064  28.636   5.486
  710THSLK    S  630  23.985  30.058   6.590
  711ETHY    C1  631  24.066  29.807   6.217
  712ETHY    C1  632  24.180  29.591   5.738
  713ETHY    C1  633  24.313  29.475   5.236
  714ETHY    C1  634  24.463  29.457   4.725
  715ETHY    C1  635  24.629  29.537   4.214
  716AUSL   AUS  636  23.898  30.415   6.828
  717AUSL   AUS  637  23.571  30.112   6.828
  718AUL    AUL  638  23.734  30.264   6.520
  719THSLK    S  639  23.476  30.058   6.592
  720ETHY    C1  640  23.339  29.810   6.235
  721ETHY    C1  641  23.179  29.596   5.767
  722ETHY    C1  642  23.032  29.481   5.269
  723ETHY    C1  643  22.905  29.462   4.751
  724ETHY    C1  644  22.800  29.538   4.224
  725THSLK    S  645  24.001  30.373   6.578
  726ETHY    C1  646  24.142  30.258   6.160
  727ETHY    C1  647  24.300  30.211   5.647
  728ETHY    C1  648  24.443  30.267   5.138
  729ETHY    C1  649  24.571  30.421   4.643
  730ETHY    C1  650  24.682  30.669   4.174
  731AUSL   AUS  651  23.325  30.264   8.082
  732AUSL   AUS  652  23.469  30.680   8.012
  733AUL    AUL  653  23.243  30.567   8.296
  734THSLK    S  654  23.222  30.214   8.322
  735ETHY    C1  655  23.001  30.028   8.674
  736ETHY    C1  656  22.728  29.893   9.118
  737ETHY    C1  657  22.451  29.863   9.571
  738ETHY    C1  658  22.173  29.932  10.021
  739ETHY    C1  659  21.898  30.100  10.458
  740THSLK    S  660  23.349  30.809   8.202
  741ETHY    C1  661  23.280  30.978   8.620
  742ETHY    C1  662  23.138  31.231   9.073
  743ETHY    C1  663  22.932  31.532   9.460
  744ETHY    C1  664  22.665  31.871   9.775
  745ETHY    C1  665  22.345  32.238  10.013
  746AUSL   AUS  666  23.571  30.112   8.175
  747AUSL   AUS  667  23.224  29.999   7.918
  748AUL    AUL  668  23.243  29.960   8.296
  749THSLK    S  669  23.046  29.835   8.029
  750ETHY    C1  670  22.678  29.582   8.125
  751ETHY    C1  671  22.263  29.303   8.323
  752ETHY    C1  672  21.885  29.063   8.611
  753ETHY    C1  673  21.551  28.867   8.978
  754ETHY    C1  674  21.265  28.721   9.415
  755THSLK    S  675  23.468  30.060   8.410
  756ETHY    C1  676  23.326  29.813   8.766
  757ETHY    C1  677  23.168  29.598   9.233
  758ETHY    C1  678  23.025  29.482   9.733
  759ETHY    C1  679  22.898  29.464  10.250
  760ETHY    C1  680  22.786  29.542  10.775
  761AUSL   AUS  681  23.325  30.264   6.922
  762AUSL   AUS  682  23.469  29.847   6.992
  763AUL    AUL  683  23.243  29.960   6.707
  764THSLK    S  684  23.230  30.214   6.677
  765ETHY    C1  685  23.013  30.028   6.322
  766ETHY    C1  686  22.738  29.893   5.879
  767ETHY    C1  687  22.457  29.863   5.429
  768ETHY    C1  688  22.179  29.932   4.978
  769ETHY    C1  689  21.911  30.100   4.537
  770THSLK    S  690  23.297  29.673   6.872
  771ETHY    C1  691  23.012  29.352   6.717
  772ETHY    C1  692  22.711  28.993   6.453
  773ETHY    C1  693  22.466  28.670   6.109
  774ETHY    C1  694  22.282  28.387   5.696
  775ETHY    C1  695  22.163  28.147   5.223
  776AUSL   AUS  696  23.571  30.415   6.828
  777AUSL   AUS  697  23.224  30.528   7.085
  778AUL    AUL  698  23.243  30.567   6.707
  779THSLK    S  699  23.093  30.658   6.893
  780ETHY    C1  700  22.887  30.758   6.499
  781ETHY    C1  701  22.585  30.922   6.085
  782ETHY    C1  702  22.231  31.134   5.748
  783ETHY    C1  703  21.838  31.388   5.494
  784ETHY    C1  704  21.413  31.681   5.324
  785THSLK    S  705  23.492  30.374   6.571
  786ETHY    C1  706  23.415  30.262   6.136
  787ETHY    C1  707  23.299  30.217   5.612
  788ETHY    C1  708  23.163  30.273   5.101
  789ETHY    C1  709  23.013  30.427   4.613
  790ETHY    C1  710  22.853  30.672   4.156
  791AUSL   AUS  711  24.314  30.673   7.502
  792AUSL   AUS  712  24.244  30.528   7.085
  793AUL    AUL  713  24.528  30.754   7.198
  794THSLK    S  714  24.423  30.631   6.930
  795ETHY    C1  715  24.790  30.642   6.659
  796ETHY    C1  716  25.205  30.744   6.332
  797ETHY    C1  717  25.583  30.942   6.014
  798ETHY    C1  718  25.917  31.229   5.713
  799ETHY    C1  719  26.203  31.599   5.438
  800THSLK    S  720  24.582  30.729   7.506
  801ETHY    C1  721  25.034  30.790   7.508
  802ETHY    C1  722  25.548  30.949   7.507
  803ETHY    C1  723  26.016  31.203   7.505
  804ETHY    C1  724  26.429  31.540   7.506
  805ETHY    C1  725  26.781  31.954   7.509
  806AUSL   AUS  726  24.408  30.427   7.350
  807AUSL   AUS  727  24.408  30.100   7.653
  808AUL    AUL  728  24.716  30.264   7.502
  809THSLK    S  729  24.667  30.470   7.348
  810ETHY    C1  730  25.112  30.400   7.278
  811ETHY    C1  731  25.643  30.407   7.190
  812ETHY    C1  732  26.156  30.517   7.101
  813ETHY    C1  733  26.641  30.723   7.017
  814ETHY    C1  734  27.088  31.020   6.940
  815THSLK    S  735  24.640  29.962   7.662
  816ETHY    C1  736  24.986  29.673   7.728
  817ETHY    C1  737  25.447  29.406   7.809
  818ETHY    C1  738  25.944  29.237   7.892
  819ETHY    C1  739  26.465  29.165   7.980
  820ETHY    C1  740  27.000  29.191   8.071
  821AUSL   AUS  741  24.408  30.427   7.653
  822AUSL   AUS  742  24.151  30.774   7.766
  823AUL    AUL  743  24.528  30.754   7.805
  824THSLK    S  744  24.334  30.893   7.926
  825ETHY    C1  745  24.706  31.048   8.139
  826ETHY    C1  746  25.106  31.313   8.385
  827ETHY    C1  747  25.440  31.657   8.615
  828ETHY    C1  748  25.702  32.070   8.827
  829ETHY    C1  749  25.889  32.542   9.019
  830THSLK    S  750  24.666  30.470   7.664
  831ETHY    C1  751  25.110  30.400   7.738
  832ETHY    C1  752  25.641  30.407   7.825
  833ETHY    C1  753  26.155  30.517   7.910
  834ETHY    C1  754  26.639  30.723   7.994
  835ETHY    C1  755  27.086  31.020   8.078
  836AUSL   AUS  756  23.154  30.673   7.502
  837AUSL   AUS  757  23.224  30.528   7.918
  838AUL    AUL  758  22.940  30.754   7.805
  839THSLK    S  759  23.088  30.651   8.109
  840ETHY    C1  760  22.879  30.747   8.503
  841ETHY    C1  761  22.578  30.913   8.917
  842ETHY    C1  762  22.227  31.128   9.254
  843ETHY    C1  763  21.833  31.382   9.509
  844ETHY    C1  764  21.404  31.669   9.678
  845THSLK    S  765  22.938  30.813   7.506
  846ETHY    C1  766  22.682  31.191   7.508
  847ETHY    C1  767  22.309  31.579   7.507
  848ETHY    C1  768  21.873  31.885   7.505
  849ETHY    C1  769  21.387  32.103   7.506
  850ETHY    C1  770  20.860  32.233   7.509
  851AUSL   AUS  771  23.060  30.427   7.350
  852AUSL   AUS  772  23.318  30.774   7.237
  853AUL    AUL  773  22.940  30.754   7.198
  854THSLK    S  774  22.829  30.542   7.303
  855ETHY    C1  775  22.482  30.730   7.075
  856ETHY    C1  776  22.022  30.922   6.872
  857ETHY    C1  777  21.524  31.072   6.758
  858ETHY    C1  778  21.003  31.182   6.733
  859ETHY    C1  779  20.469  31.252   6.796
  860THSLK    S  780  23.202  30.939   7.058
  861ETHY    C1  781  23.086  31.255   6.750
  862ETHY    C1  782  22.872  31.633   6.432
  863ETHY    C1  783  22.580  32.002   6.183
  864ETHY    C1  784  22.222  32.355   6.008
  865ETHY    C1  785  21.804  32.688   5.909
  866AUSL   AUS  786  23.060  30.427   7.653
  867AUSL   AUS  787  23.060  30.100   7.350
  868AUL    AUL  788  22.752  30.264   7.502
  869THSLK    S  789  22.802  30.026   7.390
  870ETHY    C1  790  22.358  29.991   7.486
  871ETHY    C1  791  21.827  29.910   7.518
  872ETHY    C1  792  21.313  29.785   7.458
  873ETHY    C1  793  20.829  29.617   7.311
  874ETHY    C1  794  20.382  29.410   7.083
  875THSLK    S  795  22.827  30.534   7.704
  876ETHY    C1  796  22.480  30.718   7.935
  877ETHY    C1  797  22.020  30.911   8.137
  878ETHY    C1  798  21.523  31.066   8.249
  879ETHY    C1  799  21.002  31.176   8.274
  880ETHY    C1  800  20.466  31.239   8.213
  881AUSL   AUS  801  24.314  29.854   7.502
  882AUSL   AUS  802  24.244  29.999   7.918
  883AUL    AUL  803  24.528  29.773   7.805
  884THSLK    S  804  24.530  29.714   7.506
  885ETHY    C1  805  24.786  29.336   7.508
  886ETHY    C1  806  25.159  28.948   7.507
  887ETHY    C1  807  25.595  28.642   7.505
  888ETHY    C1  808  26.081  28.424   7.506
  889ETHY    C1  809  26.608  28.294   7.509
  890THSLK    S  810  24.376  29.809   8.066
  891ETHY    C1  811  24.581  29.466   8.285
  892ETHY    C1  812  24.883  29.124   8.570
  893ETHY    C1  813  25.237  28.871   8.877
  894ETHY    C1  814  25.631  28.708   9.198
  895ETHY    C1  815  26.055  28.638   9.529
  896AUSL   AUS  816  24.408  30.100   7.350
  897AUSL   AUS  817  24.151  29.753   7.237
  898AUL    AUL  818  24.528  29.773   7.198
  899THSLK    S  819  24.641  29.962   7.350
  900ETHY    C1  820  24.989  29.673   7.289
  901ETHY    C1  821  25.448  29.406   7.206
  902ETHY    C1  822  25.945  29.237   7.118
  903ETHY    C1  823  26.467  29.165   7.031
  904ETHY    C1  824  27.002  29.191   6.947
  905THSLK    S  825  24.270  29.563   7.104
  906ETHY    C1  826  24.387  29.146   6.963
  907ETHY    C1  827  24.601  28.692   6.765
  908ETHY    C1  828  24.891  28.306   6.543
  909ETHY    C1  829  25.250  27.991   6.306
  910ETHY    C1  830  25.670  27.752   6.058
  911AUSL   AUS  831  23.154  29.854   7.502
  912AUSL   AUS  832  23.224  29.999   7.085
  913AUL    AUL  833  22.940  29.773   7.198
  914THSLK    S  834  23.051  29.828   6.973
  915ETHY    C1  835  22.686  29.571   6.877
  916ETHY    C1  836  22.270  29.294   6.679
  917ETHY    C1  837  21.890  29.057   6.392
  918ETHY    C1  838  21.556  28.861   6.025
  919ETHY    C1  839  21.274  28.709   5.587
  920THSLK    S  840  22.886  29.798   7.506
  921ETHY    C1  841  22.434  29.737   7.508
  922ETHY    C1  842  21.920  29.578   7.507
  923ETHY    C1  843  21.452  29.324   7.505
  924ETHY    C1  844  21.039  28.987   7.506
  925ETHY    C1  845  20.687  28.573   7.509
  926AUSL   AUS  846  23.060  30.100   7.653
  927AUSL   AUS  847  23.318  29.753   7.766
  928AUL    AUL  848  22.940  29.773   7.805
  929THSLK    S  849  23.130  29.609   7.880
  930ETHY    C1  850  22.756  29.352   7.926
  931ETHY    C1  851  22.358  29.012   8.052
  932ETHY    C1  852  22.025  28.650   8.255
  933ETHY    C1  853  21.763  28.276   8.529
  934ETHY    C1  854  21.572  27.898   8.870
  935THSLK    S  855  22.801  30.033   7.617
  936ETHY    C1  856  22.356  30.003   7.524
  937ETHY    C1  857  21.825  29.921   7.490
  938ETHY    C1  858  21.312  29.792   7.549
  939ETHY    C1  859  20.828  29.624   7.696
  940ETHY    C1  860  20.380  29.422   7.928
  941AUSL   AUS  861  23.734  30.844   7.911
  942AUSL   AUS  862  23.318  30.774   7.766
  943AUL    AUL  863  23.431  31.058   7.992
  944THSLK    S  864  23.198  30.933   7.950
  945ETHY    C1  865  23.081  31.245   8.261
  946ETHY    C1  866  22.867  31.625   8.578
  947ETHY    C1  867  22.577  31.996   8.824
  948ETHY    C1  868  22.219  32.350   9.000
  949ETHY    C1  869  21.798  32.678   9.102
  950THSLK    S  870  23.774  31.070   8.035
  951ETHY    C1  871  23.931  31.372   8.339
  952ETHY    C1  872  24.046  31.778   8.672
  953ETHY    C1  873  24.073  32.222   8.964
  954ETHY    C1  874  24.013  32.691   9.211
  955ETHY    C1  875  23.869  33.175   9.410
  956AUSL   AUS  876  23.582  30.937   7.665
  957AUSL   AUS  877  23.886  30.937   7.338
  958AUL    AUL  878  23.734  31.245   7.502
  959THSLK    S  879  23.623  31.185   7.774
  960ETHY    C1  880  23.732  31.595   7.942
  961ETHY    C1  881  23.776  32.102   8.118
  962ETHY    C1  882  23.719  32.610   8.265
  963ETHY    C1  883  23.566  33.107   8.383
  964ETHY    C1  884  23.323  33.584   8.472
  965THSLK    S  885  23.939  31.172   7.241
  966ETHY    C1  886  24.184  31.528   7.094
  967ETHY    C1  887  24.397  31.993   6.927
  968ETHY    C1  888  24.512  32.491   6.779
  969ETHY    C1  889  24.532  33.010   6.655
  970ETHY    C1  890  24.457  33.539   6.558
  971AUSL   AUS  891  23.886  30.937   7.665
  972AUSL   AUS  892  23.999  30.680   8.012
  973AUL    AUL  893  24.037  31.058   7.992
  974THSLK    S  894  24.171  30.793   8.184
  975ETHY    C1  895  24.456  30.896   8.524
  976ETHY    C1  896  24.758  31.100   8.921
  977ETHY    C1  897  25.003  31.390   9.294
  978ETHY    C1  898  25.187  31.753   9.638
  979ETHY    C1  899  25.306  32.183   9.948
  980THSLK    S  900  23.937  31.171   7.771
  981ETHY    C1  901  24.181  31.525   7.922
  982ETHY    C1  902  24.394  31.991   8.087
  983ETHY    C1  903  24.510  32.490   8.231
  984ETHY    C1  904  24.529  33.008   8.356
  985ETHY    C1  905  24.454  33.536   8.458
  986AUSL   AUS  906  23.734  29.684   7.911
  987AUSL   AUS  907  24.151  29.753   7.766
  988AUL    AUL  908  24.037  29.469   7.992
  989THSLK    S  909  23.690  29.429   7.990
  990ETHY    C1  910  23.530  29.025   8.128
  991ETHY    C1  911  23.416  28.544   8.341
  992ETHY    C1  912  23.391  28.083   8.605
  993ETHY    C1  913  23.450  27.653   8.915
  994ETHY    C1  914  23.591  27.261   9.263
  995THSLK    S  915  24.266  29.564   7.908
  996ETHY    C1  916  24.382  29.148   8.052
  997ETHY    C1  917  24.596  28.695   8.248
  998ETHY    C1  918  24.888  28.307   8.467
  999ETHY    C1  919  25.247  27.992   8.705
 1000ETHY    C1  920  25.664  27.755   8.958
 1001AUSL   AUS  921  23.582  29.590   7.665
 1002AUSL   AUS  922  23.469  29.847   8.012
 1003AUL    AUL  923  23.431  29.469   7.992
 1004THSLK    S  924  23.529  29.350   7.745
 1005ETHY    C1  925  23.284  28.969   7.801
 1006ETHY    C1  926  23.071  28.484   7.897
 1007ETHY    C1  927  22.956  27.981   8.025
 1008ETHY    C1  928  22.937  27.472   8.186
 1009ETHY    C1  929  23.011  26.969   8.374
 1010THSLK    S  930  23.291  29.679   8.133
 1011ETHY    C1  931  23.003  29.361   8.289
 1012ETHY    C1  932  22.703  29.001   8.552
 1013ETHY    C1  933  22.460  28.675   8.896
 1014ETHY    C1  934  22.276  28.392   9.309
 1015ETHY    C1  935  22.152  28.158   9.783
 1016AUSL   AUS  936  23.886  29.590   7.665
 1017AUSL   AUS  937  23.582  29.590   7.338
 1018AUL    AUL  938  23.734  29.282   7.502
 1019THSLK    S  939  23.531  29.347   7.266
 1020ETHY    C1  940  23.287  28.965   7.215
 1021ETHY    C1  941  23.074  28.481   7.117
 1022ETHY    C1  942  22.958  27.979   6.984
 1023ETHY    C1  943  22.939  27.470   6.825
 1024ETHY    C1  944  23.015  26.965   6.642
 1025THSLK    S  945  23.843  29.334   7.749
 1026ETHY    C1  946  23.733  28.898   7.821
 1027ETHY    C1  947  23.690  28.372   7.928
 1028ETHY    C1  948  23.747  27.860   8.059
 1029ETHY    C1  949  23.900  27.372   8.213
 1030ETHY    C1  950  24.142  26.919   8.388
 1031AUSL   AUS  951  23.734  30.844   7.093
 1032AUSL   AUS  952  24.151  30.774   7.237
 1033AUL    AUL  953  24.037  31.058   7.011
 1034THSLK    S  954  23.778  31.074   6.975
 1035ETHY    C1  955  23.938  31.378   6.674
 1036ETHY    C1  956  24.052  31.783   6.339
 1037ETHY    C1  957  24.077  32.226   6.045
 1038ETHY    C1  958  24.018  32.695   5.798
 1039ETHY    C1  959  23.877  33.182   5.604
 1040THSLK    S  960  24.338  30.895   7.085
 1041ETHY    C1  961  24.712  31.051   6.876
 1042ETHY    C1  962  25.110  31.315   6.629
 1043ETHY    C1  963  25.443  31.659   6.395
 1044ETHY    C1  964  25.705  32.071   6.184
 1045ETHY    C1  965  25.896  32.545   5.998
 1046AUSL   AUS  966  23.582  30.937   7.338
 1047AUSL   AUS  967  23.469  30.680   6.992
 1048AUL    AUL  968  23.431  31.058   7.011
 1049THSLK    S  969  23.625  31.188   7.237
 1050ETHY    C1  970  23.735  31.599   7.074
 1051ETHY    C1  971  23.778  32.105   6.896
 1052ETHY    C1  972  23.721  32.613   6.745
 1053ETHY    C1  973  23.568  33.110   6.627
 1054ETHY    C1  974  23.326  33.589   6.545
 1055THSLK    S  975  23.355  30.815   6.802
 1056ETHY    C1  976  23.289  30.987   6.385
 1057ETHY    C1  977  23.146  31.239   5.932
 1058ETHY    C1  978  22.937  31.538   5.544
 1059ETHY    C1  979  22.671  31.876   5.230
 1060ETHY    C1  980  22.355  32.249   4.993
 1061AUSL   AUS  981  23.734  29.684   7.093
 1062AUSL   AUS  982  23.318  29.753   7.237
 1063AUL    AUL  983  23.431  29.469   7.011
 1064THSLK    S  984  23.134  29.603   7.128
 1065ETHY    C1  985  22.762  29.342   7.085
 1066ETHY    C1  986  22.363  29.004   6.958
 1067ETHY    C1  987  22.028  28.645   6.753
 1068ETHY    C1  988  21.766  28.271   6.478
 1069ETHY    C1  989  21.579  27.888   6.142
 1070THSLK    S  990  23.694  29.425   7.019
 1071ETHY    C1  991  23.537  29.019   6.885
 1072ETHY    C1  992  23.422  28.539   6.671
 1073ETHY    C1  993  23.395  28.080   6.404
 1074ETHY    C1  994  23.455  27.649   6.094
 1075ETHY    C1  995  23.599  27.254   5.751
 1076AUSL   AUS  996  23.886  29.590   7.338
 1077AUSL   AUS  997  23.999  29.847   6.992
 1078AUL    AUL  998  24.037  29.469   7.011
 1079THSLK    S  999  23.845  29.333   7.262
 1080ETHY    C1 1000  23.736  28.895   7.195
 1081ETHY    C1 1001  23.693  28.369   7.086
 1082ETHY    C1 1002  23.749  27.858   6.951
 1083ETHY    C1 1003  23.902  27.370   6.798
 1084ETHY    C1 1004  24.146  26.916   6.629
 1085THSLK    S 1005  24.119  29.657   6.853
 1086ETHY    C1 1006  24.188  29.271   6.621
 1087ETHY    C1 1007  24.330  28.863   6.300
 1088ETHY    C1 1008  24.537  28.527   5.942
 1089ETHY    C1 1009  24.803  28.270   5.559
 1090ETHY    C1 1010  25.123  28.092   5.158
 1091AUC    AUC 1011  36.602  31.015   7.502
 1092AUC    AUC 1012  36.848  31.015   7.350
 1093AUC    AUC 1013  36.848  31.015   7.653
 1094AUC    AUC 1014  36.357  31.015   7.350
 1095AUC    AUC 1015  36.357  31.015   7.653
 1096AUC    AUC 1016  36.450  31.260   7.502
 1097AUC    AUC 1017  36.754  31.260   7.502
 1098AUC    AUC 1018  36.450  30.769   7.502
 1099AUC    AUC 1019  36.754  30.769   7.502
 1100AUC    AUC 1020  36.602  30.863   7.747
 1101AUC    AUC 1021  36.602  31.166   7.747
 1102AUC    AUC 1022  36.602  30.863   7.256
 1103AUC    AUC 1023  36.602  31.166   7.256
 1104AUC    AUC 1024  37.093  31.015   7.198
 1105AUC    AUC 1025  37.093  31.015   7.502
 1106AUC    AUC 1026  37.093  31.015   7.805
 1107AUC    AUC 1027  36.111  31.015   7.198
 1108AUC    AUC 1028  36.111  31.015   7.502
 1109AUC    AUC 1029  36.111  31.015   7.805
 1110AUC    AUC 1030  36.299  31.505   7.502
 1111AUC    AUC 1031  36.602  31.505   7.502
 1112AUC    AUC 1032  36.905  31.505   7.502
 1113AUC    AUC 1033  36.299  30.524   7.502
 1114AUC    AUC 1034  36.602  30.524   7.502
 1115AUC    AUC 1035  36.905  30.524   7.502
 1116AUC    AUC 1036  36.602  30.711   7.992
 1117AUC    AUC 1037  36.602  31.015   7.992
 1118AUC    AUC 1038  36.602  31.318   7.992
 1119AUC    AUC 1039  36.602  30.711   7.011
 1120AUC    AUC 1040  36.602  31.015   7.011
 1121AUC    AUC 1041  36.602  31.318   7.011
 1122AUC    AUC 1042  36.848  30.863   7.899
 1123AUC    AUC 1043  36.848  31.166   7.899
 1124AUC    AUC 1044  36.848  30.863   7.105
 1125AUC    AUC 1045  36.848  31.166   7.105
 1126AUC    AUC 1046  36.357  30.863   7.899
 1127AUC    AUC 1047  36.357  31.166   7.899
 1128AUC    AUC 1048  36.357  30.863   7.105
 1129AUC    AUC 1049  36.357  31.166   7.105
 1130AUC    AUC 1050  36.999  31.260   7.350
 1131AUC    AUC 1051  36.999  31.260   7.653
 1132AUC    AUC 1052  36.205  31.260   7.350
 1133AUC    AUC 1053  36.205  31.260   7.653
 1134AUC    AUC 1054  36.999  30.769   7.350
 1135AUC    AUC 1055  36.999  30.769   7.653
 1136AUC    AUC 1056  36.205  30.769   7.350
 1137AUC    AUC 1057  36.205  30.769   7.653
 1138AUC    AUC 1058  36.450  31.412   7.747
 1139AUC    AUC 1059  36.754  31.412   7.747
 1140AUC    AUC 1060  36.450  30.617   7.747
 1141AUC    AUC 1061  36.754  30.617   7.747
 1142AUC    AUC 1062  36.450  31.412   7.256
 1143AUC    AUC 1063  36.754  31.412   7.256
 1144AUC    AUC 1064  36.450  30.617   7.256
 1145AUC    AUC 1065  36.754  30.617   7.256
 1146AUSL   AUS 1066  37.011  31.015   8.082
 1147AUSL   AUS 1067  36.867  30.598   8.012
 1148AUL    AUL 1068  37.093  30.711   8.296
 1149THSLK    S 1069  36.981  30.410   8.156
 1150ETHY    C1 1070  37.047  30.025   8.391
 1151ETHY    C1 1071  37.190  29.617   8.710
 1152ETHY    C1 1072  37.399  29.281   9.066
 1153ETHY    C1 1073  37.665  29.023   9.450
 1154ETHY    C1 1074  37.981  28.847   9.855
 1155THSLK    S 1075  37.107  30.965   8.326
 1156ETHY    C1 1076  37.323  30.779   8.681
 1157ETHY    C1 1077  37.598  30.644   9.124
 1158ETHY    C1 1078  37.879  30.614   9.575
 1159ETHY    C1 1079  38.157  30.683  10.025
 1160ETHY    C1 1080  38.426  30.851  10.466
 1161AUSL   AUS 1081  36.766  30.863   8.175
 1162AUSL   AUS 1082  36.439  31.166   8.175
 1163AUL    AUL 1083  36.602  31.015   8.483
 1164THSLK    S 1084  36.844  30.810   8.417
 1165ETHY    C1 1085  36.921  30.560   8.790
 1166ETHY    C1 1086  37.037  30.343   9.269
 1167ETHY    C1 1087  37.174  30.227   9.769
 1168ETHY    C1 1088  37.324  30.209  10.281
 1169ETHY    C1 1089  37.483  30.290  10.794
 1170THSLK    S 1090  36.352  31.123   8.431
 1171ETHY    C1 1091  36.270  31.011   8.864
 1172ETHY    C1 1092  36.156  30.965   9.388
 1173ETHY    C1 1093  36.024  31.023   9.901
 1174ETHY    C1 1094  35.873  31.176  10.389
 1175ETHY    C1 1095  35.707  31.420  10.844
 1176AUSL   AUS 1096  36.766  31.166   8.175
 1177AUSL   AUS 1097  37.112  31.279   7.918
 1178AUL    AUL 1098  37.093  31.318   8.296
 1179THSLK    S 1099  36.853  31.220   8.414
 1180ETHY    C1 1100  36.934  31.471   8.786
 1181ETHY    C1 1101  37.048  31.687   9.265
 1182ETHY    C1 1102  37.181  31.803   9.767
 1183ETHY    C1 1103  37.331  31.821  10.279
 1184ETHY    C1 1104  37.497  31.741  10.789
 1185THSLK    S 1105  37.286  31.381   8.080
 1186ETHY    C1 1106  37.650  31.391   8.354
 1187ETHY    C1 1107  38.066  31.493   8.680
 1188ETHY    C1 1108  38.446  31.692   8.995
 1189ETHY    C1 1109  38.781  31.979   9.296
 1190ETHY    C1 1110  39.062  32.347   9.577
 1191AUSL   AUS 1111  37.011  31.015   6.922
 1192AUSL   AUS 1112  36.867  31.431   6.992
 1193AUL    AUL 1113  37.093  31.318   6.707
 1194THSLK    S 1114  37.114  30.965   6.681
 1195ETHY    C1 1115  37.335  30.779   6.329
 1196ETHY    C1 1116  37.608  30.644   5.885
 1197ETHY    C1 1117  37.886  30.614   5.432
 1198ETHY    C1 1118  38.164  30.683   4.982
 1199ETHY    C1 1119  38.438  30.851   4.545
 1200THSLK    S 1120  37.045  31.546   6.825
 1201ETHY    C1 1121  37.333  31.651   6.488
 1202ETHY    C1 1122  37.633  31.855   6.090
 1203ETHY    C1 1123  37.876  32.143   5.714
 1204ETHY    C1 1124  38.060  32.507   5.371
 1205ETHY    C1 1125  38.184  32.938   5.065
 1206AUSL   AUS 1126  36.766  30.863   6.828
 1207AUSL   AUS 1127  37.112  30.750   7.085
 1208AUL    AUL 1128  37.093  30.711   6.707
 1209THSLK    S 1129  37.249  30.558   6.944
 1210ETHY    C1 1130  37.457  30.215   6.729
 1211ETHY    C1 1131  37.758  29.873   6.442
 1212ETHY    C1 1132  38.109  29.620   6.133
 1213ETHY    C1 1133  38.503  29.458   5.812
 1214ETHY    C1 1134  38.932  29.387   5.486
 1215THSLK    S 1135  36.853  30.809   6.590
 1216ETHY    C1 1136  36.934  30.558   6.217
 1217ETHY    C1 1137  37.048  30.342   5.738
 1218ETHY    C1 1138  37.181  30.226   5.236
 1219ETHY    C1 1139  37.331  30.208   4.725
 1220ETHY    C1 1140  37.497  30.288   4.214
 1221AUSL   AUS 1141  36.766  31.166   6.828
 1222AUSL   AUS 1142  36.439  30.863   6.828
 1223AUL    AUL 1143  36.602  31.015   6.520
 1224THSLK    S 1144  36.344  30.809   6.592
 1225ETHY    C1 1145  36.207  30.561   6.235
 1226ETHY    C1 1146  36.047  30.347   5.767
 1227ETHY    C1 1147  35.900  30.232   5.269
 1228ETHY    C1 1148  35.773  30.213   4.751
 1229ETHY    C1 1149  35.668  30.289   4.224
 1230THSLK    S 1150  36.869  31.124   6.578
 1231ETHY    C1 1151  37.010  31.009   6.160
 1232ETHY    C1 1152  37.168  30.962   5.647
 1233ETHY    C1 1153  37.311  31.018   5.138
 1234ETHY    C1 1154  37.439  31.172   4.643
 1235ETHY    C1 1155  37.550  31.420   4.174
 1236AUSL   AUS 1156  36.193  31.015   8.082
 1237AUSL   AUS 1157  36.337  31.431   8.012
 1238AUL    AUL 1158  36.111  31.318   8.296
 1239THSLK    S 1159  36.090  30.965   8.322
 1240ETHY    C1 1160  35.869  30.779   8.674
 1241ETHY    C1 1161  35.596  30.644   9.118
 1242ETHY    C1 1162  35.319  30.614   9.571
 1243ETHY    C1 1163  35.041  30.683  10.021
 1244ETHY    C1 1164  34.766  30.851  10.458
 1245THSLK    S 1165  36.217  31.560   8.202
 1246ETHY    C1 1166  36.148  31.729   8.620
 1247ETHY    C1 1167  36.006  31.982   9.073
 1248ETHY    C1 1168  35.800  32.283   9.460
 1249ETHY    C1 1169  35.533  32.622   9.775
 1250ETHY    C1 1170  35.213  32.989  10.013
 1251AUSL   AUS 1171  36.439  30.863   8.175
 1252AUSL   AUS 1172  36.092  30.750   7.918
 1253AUL    AUL 1173  36.111  30.711   8.296
 1254THSLK    S 1174  35.914  30.586   8.029
 1255ETHY    C1 1175  35.546  30.333   8.125
 1256ETHY    C1 1176  35.131  30.054   8.323
 1257ETHY    C1 1177  34.753  29.814   8.611
 1258ETHY    C1 1178  34.419  29.618   8.978
 1259ETHY    C1 1179  34.133  29.472   9.415
 1260THSLK    S 1180  36.336  30.811   8.410
 1261ETHY    C1 1181  36.194  30.564   8.766
 1262ETHY    C1 1182  36.036  30.349   9.233
 1263ETHY    C1 1183  35.893  30.233   9.733
 1264ETHY    C1 1184  35.766  30.215  10.250
 1265ETHY    C1 1185  35.654  30.293  10.775
 1266AUSL   AUS 1186  36.193  31.015   6.922
 1267AUSL   AUS 1187  36.337  30.598   6.992
 1268AUL    AUL 1188  36.111  30.711   6.707
 1269THSLK    S 1189  36.098  30.965   6.677
 1270ETHY    C1 1190  35.881  30.779   6.322
 1271ETHY    C1 1191  35.606  30.644   5.879
 1272ETHY    C1 1192  35.325  30.614   5.429
 1273ETHY    C1 1193  35.047  30.683   4.978
 1274ETHY    C1 1194  34.779  30.851   4.537
 1275THSLK    S 1195  36.165  30.424   6.872
 1276ETHY    C1 1196  35.880  30.103   6.717
 1277ETHY    C1 1197  35.579  29.744   6.453
 1278ETHY    C1 1198  35.334  29.421   6.109
 1279ETHY    C1 1199  35.150  29.138   5.696
 1280ETHY    C1 1200  35.031  28.898   5.223
 1281AUSL   AUS 1201  36.439  31.166   6.828
 1282AUSL   AUS 1202  36.092  31.279   7.085
 1283AUL    AUL 1203  36.111  31.318   6.707
 1284THSLK    S 1204  35.961  31.409   6.893
 1285ETHY    C1 1205  35.755  31.509   6.499
 1286ETHY    C1 1206  35.453  31.673   6.085
 1287ETHY    C1 1207  35.099  31.885   5.748
 1288ETHY    C1 1208  34.706  32.139   5.494
 1289ETHY    C1 1209  34.281  32.432   5.324
 1290THSLK    S 1210  36.360  31.125   6.571
 1291ETHY    C1 1211  36.283  31.013   6.136
 1292ETHY    C1 1212  36.167  30.968   5.612
 1293ETHY    C1 1213  36.031  31.024   5.101
 1294ETHY    C1 1214  35.881  31.178   4.613
 1295ETHY    C1 1215  35.721  31.423   4.156
 1296AUSL   AUS 1216  37.182  31.424   7.502
 1297AUSL   AUS 1217  37.112  31.279   7.085
 1298AUL    AUL 1218  37.396  31.505   7.198
 1299THSLK    S 1219  37.291  31.382   6.930
 1300ETHY    C1 1220  37.658  31.393   6.659
 1301ETHY    C1 1221  38.073  31.495   6.332
 1302ETHY    C1 1222  38.451  31.693   6.014
 1303ETHY    C1 1223  38.785  31.980   5.713
 1304ETHY    C1 1224  39.071  32.350   5.438
 1305THSLK    S 1225  37.450  31.480   7.506
 1306ETHY    C1 1226  37.902  31.541   7.508
 1307ETHY    C1 1227  38.416  31.700   7.507
 1308ETHY    C1 1228  38.884  31.954   7.505
 1309ETHY    C1 1229  39.297  32.291   7.506
 1310ETHY    C1 1230  39.649  32.705   7.509
 1311AUSL   AUS 1231  37.276  31.178   7.350
 1312AUSL   AUS 1232  37.276  30.851   7.653
 1313AUL    AUL 1233  37.584  31.015   7.502
 1314THSLK    S 1234  37.535  31.221   7.348
 1315ETHY    C1 1235  37.980  31.151   7.278
 1316ETHY    C1 1236  38.511  31.158   7.190
 1317ETHY    C1 1237  39.024  31.268   7.101
 1318ETHY    C1 1238  39.509  31.474   7.017
 1319ETHY    C1 1239  39.956  31.771   6.940
 1320THSLK    S 1240  37.508  30.713   7.662
 1321ETHY    C1 1241  37.854  30.424   7.728
 1322ETHY    C1 1242  38.315  30.157   7.809
 1323ETHY    C1 1243  38.812  29.988   7.892
 1324ETHY    C1 1244  39.333  29.916   7.980
 1325ETHY    C1 1245  39.868  29.942   8.071
 1326AUSL   AUS 1246  37.276  31.178   7.653
 1327AUSL   AUS 1247  37.019  31.525   7.766
 1328AUL    AUL 1248  37.396  31.505   7.805
 1329THSLK    S 1249  37.202  31.644   7.926
 1330ETHY    C1 1250  37.574  31.799   8.139
 1331ETHY    C1 1251  37.974  32.064   8.385
 1332ETHY    C1 1252  38.308  32.408   8.615
 1333ETHY    C1 1253  38.570  32.821   8.827
 1334ETHY    C1 1254  38.757  33.293   9.019
 1335THSLK    S 1255  37.534  31.221   7.664
 1336ETHY    C1 1256  37.978  31.151   7.738
 1337ETHY    C1 1257  38.509  31.158   7.825
 1338ETHY    C1 1258  39.023  31.268   7.910
 1339ETHY    C1 1259  39.507  31.474   7.994
 1340ETHY    C1 1260  39.954  31.771   8.078
 1341AUSL   AUS 1261  36.022  31.424   7.502
 1342AUSL   AUS 1262  36.092  31.279   7.918
 1343AUL    AUL 1263  35.808  31.505   7.805
 1344THSLK    S 1264  35.956  31.402   8.109
 1345ETHY    C1 1265  35.747  31.498   8.503
 1346ETHY    C1 1266  35.446  31.664   8.917
 1347ETHY    C1 1267  35.095  31.879   9.254
 1348ETHY    C1 1268  34.701  32.133   9.509
 1349ETHY    C1 1269  34.272  32.420   9.678
 1350THSLK    S 1270  35.806  31.564   7.506
 1351ETHY    C1 1271  35.550  31.942   7.508
 1352ETHY    C1 1272  35.177  32.330   7.507
 1353ETHY    C1 1273  34.741  32.636   7.505
 1354ETHY    C1 1274  34.255  32.854   7.506
 1355ETHY    C1 1275  33.728  32.984   7.509
 1356AUSL   AUS 1276  35.928  31.178   7.350
 1357AUSL   AUS 1277  36.186  31.525   7.237
 1358AUL    AUL 1278  35.808  31.505   7.198
 1359THSLK    S 1279  35.697  31.293   7.303
 1360ETHY    C1 1280  35.350  31.481   7.075
 1361ETHY    C1 1281  34.890  31.673   6.872
 1362ETHY    C1 1282  34.392  31.823   6.758
 1363ETHY    C1 1283  33.871  31.933   6.733
 1364ETHY    C1 1284  33.337  32.003   6.796
 1365THSLK    S 1285  36.070  31.690   7.058
 1366ETHY    C1 1286  35.954  32.006   6.750
 1367ETHY    C1 1287  35.740  32.384   6.432
 1368ETHY    C1 1288  35.448  32.753   6.183
 1369ETHY    C1 1289  35.090  33.106   6.008
 1370ETHY    C1 1290  34.672  33.439   5.909
 1371AUSL   AUS 1291  35.928  31.178   7.653
 1372AUSL   AUS 1292  35.928  30.851   7.350
 1373AUL    AUL 1293  35.620  31.015   7.502
 1374THSLK    S 1294  35.670  30.777   7.390
 1375ETHY    C1 1295  35.226  30.742   7.486
 1376ETHY    C1 1296  34.695  30.661   7.518
 1377ETHY    C1 1297  34.181  30.536   7.458
 1378ETHY    C1 1298  33.697  30.368   7.311
 1379ETHY    C1 1299  33.250  30.161   7.083
 1380THSLK    S 1300  35.695  31.285   7.704
 1381ETHY    C1 1301  35.348  31.469   7.935
 1382ETHY    C1 1302  34.888  31.662   8.137
 1383ETHY    C1 1303  34.391  31.817   8.249
 1384ETHY    C1 1304  33.870  31.927   8.274
 1385ETHY    C1 1305  33.334  31.990   8.213
 1386AUSL   AUS 1306  37.182  30.605   7.502
 1387AUSL   AUS 1307  37.112  30.750   7.918
 1388AUL    AUL 1308  37.396  30.524   7.805
 1389THSLK    S 1309  37.398  30.465   7.506
 1390ETHY    C1 1310  37.654  30.087   7.508
 1391ETHY    C1 1311  38.027  29.699   7.507
 1392ETHY    C1 1312  38.463  29.393   7.505
 1393ETHY    C1 1313  38.949  29.175   7.506
 1394ETHY    C1 1314  39.476  29.045   7.509
 1395THSLK    S 1315  37.244  30.560   8.066
 1396ETHY    C1 1316  37.449  30.217   8.285
 1397ETHY    C1 1317  37.751  29.875   8.570
 1398ETHY    C1 1318  38.105  29.622   8.877
 1399ETHY    C1 1319  38.499  29.459   9.198
 1400ETHY    C1 1320  38.923  29.389   9.529
 1401AUSL   AUS 1321  37.276  30.851   7.350
 1402AUSL   AUS 1322  37.019  30.504   7.237
 1403AUL    AUL 1323  37.396  30.524   7.198
 1404THSLK    S 1324  37.509  30.713   7.350
 1405ETHY    C1 1325  37.857  30.424   7.289
 1406ETHY    C1 1326  38.316  30.157   7.206
 1407ETHY    C1 1327  38.813  29.988   7.118
 1408ETHY    C1 1328  39.335  29.916   7.031
 1409ETHY    C1 1329  39.870  29.942   6.947
 1410THSLK    S 1330  37.138  30.314   7.104
 1411ETHY    C1 1331  37.255  29.897   6.963
 1412ETHY    C1 1332  37.469  29.443   6.765
 1413ETHY    C1 1333  37.759  29.057   6.543
 1414ETHY    C1 1334  38.118  28.742   6.306
 1415ETHY    C1 1335  38.538  28.503   6.058
 1416AUSL   AUS 1336  36.022  30.605   7.502
 1417AUSL   AUS 1337  36.092  30.750   7.085
 1418AUL    AUL 1338  35.808  30.524   7.198
 1419THSLK    S 1339  35.919  30.579   6.973
 1420ETHY    C1 1340  35.554  30.322   6.877
 1421ETHY    C1 1341  35.138  30.045   6.679
 1422ETHY    C1 1342  34.758  29.808   6.392
 1423ETHY    C1 1343  34.424  29.612   6.025
 1424ETHY    C1 1344  34.142  29.460   5.587
 1425THSLK    S 1345  35.754  30.549   7.506
 1426ETHY    C1 1346  35.302  30.488   7.508
 1427ETHY    C1 1347  34.788  30.329   7.507
 1428ETHY    C1 1348  34.320  30.075   7.505
 1429ETHY    C1 1349  33.907  29.738   7.506
 1430ETHY    C1 1350  33.555  29.324   7.509
 1431AUSL   AUS 1351  35.928  30.851   7.653
 1432AUSL   AUS 1352  36.186  30.504   7.766
 1433AUL    AUL 1353  35.808  30.524   7.805
 1434THSLK    S 1354  35.998  30.360   7.880
 1435ETHY    C1 1355  35.624  30.103   7.926
 1436ETHY    C1 1356  35.226  29.763   8.052
 1437ETHY    C1 1357  34.893  29.401   8.255
 1438ETHY    C1 1358  34.631  29.027   8.529
 1439ETHY    C1 1359  34.440  28.649   8.870
 1440THSLK    S 1360  35.669  30.784   7.617
 1441ETHY    C1 1361  35.224  30.754   7.524
 1442ETHY    C1 1362  34.693  30.672   7.490
 1443ETHY    C1 1363  34.180  30.543   7.549
 1444ETHY    C1 1364  33.696  30.375   7.696
 1445ETHY    C1 1365  33.248  30.173   7.928
 1446AUSL   AUS 1366  36.602  31.595   7.911
 1447AUSL   AUS 1367  36.186  31.525   7.766
 1448AUL    AUL 1368  36.299  31.809   7.992
 1449THSLK    S 1369  36.066  31.684   7.950
 1450ETHY    C1 1370  35.949  31.996   8.261
 1451ETHY    C1 1371  35.735  32.376   8.578
 1452ETHY    C1 1372  35.445  32.747   8.824
 1453ETHY    C1 1373  35.087  33.101   9.000
 1454ETHY    C1 1374  34.666  33.429   9.102
 1455THSLK    S 1375  36.642  31.821   8.035
 1456ETHY    C1 1376  36.799  32.123   8.339
 1457ETHY    C1 1377  36.914  32.529   8.672
 1458ETHY    C1 1378  36.941  32.973   8.964
 1459ETHY    C1 1379  36.881  33.442   9.211
 1460ETHY    C1 1380  36.737  33.926   9.410
 1461AUSL   AUS 1381  36.450  31.688   7.665
 1462AUSL   AUS 1382  36.754  31.688   7.338
 1463AUL    AUL 1383  36.602  31.996   7.502
 1464THSLK    S 1384  36.491  31.936   7.774
 1465ETHY    C1 1385  36.600  32.346   7.942
 1466ETHY    C1 1386  36.644  32.853   8.118
 1467ETHY    C1 1387  36.587  33.361   8.265
 1468ETHY    C1 1388  36.434  33.858   8.383
 1469ETHY    C1 1389  36.191  34.335   8.472
 1470THSLK    S 1390  36.807  31.923   7.241
 1471ETHY    C1 1391  37.052  32.279   7.094
 1472ETHY    C1 1392  37.265  32.744   6.927
 1473ETHY    C1 1393  37.380  33.242   6.779
 1474ETHY    C1 1394  37.400  33.761   6.655
 1475ETHY    C1 1395  37.325  34.290   6.558
 1476AUSL   AUS 1396  36.754  31.688   7.665
 1477AUSL   AUS 1397  36.867  31.431   8.012
 1478AUL    AUL 1398  36.905  31.809   7.992
 1479THSLK    S 1399  37.039  31.544   8.184
 1480ETHY    C1 1400  37.324  31.647   8.524
 1481ETHY    C1 1401  37.626  31.851   8.921
 1482ETHY    C1 1402  37.871  32.141   9.294
 1483ETHY    C1 1403  38.055  32.504   9.638
 1484ETHY    C1 1404  38.174  32.934   9.948
 1485THSLK    S 1405  36.805  31.922   7.771
 1486ETHY    C1 1406  37.049  32.276   7.922
 1487ETHY    C1 1407  37.262  32.742   8.087
 1488ETHY    C1 1408  37.378  33.241   8.231
 1489ETHY    C1 1409  37.397  33.759   8.356
 1490ETHY    C1 1410  37.322  34.287   8.458
 1491AUSL   AUS 1411  36.602  30.435   7.911
 1492AUSL   AUS 1412  37.019  30.504   7.766
 1493AUL    AUL 1413  36.905  30.220   7.992
 1494THSLK    S 1414  36.558  30.180   7.990
 1495ETHY    C1 1415  36.398  29.776   8.128
 1496ETHY    C1 1416  36.284  29.295   8.341
 1497ETHY    C1 1417  36.259  28.834   8.605
 1498ETHY    C1 1418  36.318  28.404   8.915
 1499ETHY    C1 1419  36.459  28.012   9.263
 1500THSLK    S 1420  37.134  30.315   7.908
 1501ETHY    C1 1421  37.250  29.899   8.052
 1502ETHY    C1 1422  37.464  29.446   8.248
 1503ETHY    C1 1423  37.756  29.058   8.467
 1504ETHY    C1 1424  38.115  28.743   8.705
 1505ETHY    C1 1425  38.532  28.506   8.958
 1506AUSL   AUS 1426  36.450  30.341   7.665
 1507AUSL   AUS 1427  36.337  30.598   8.012
 1508AUL    AUL 1428  36.299  30.220   7.992
 1509THSLK    S 1429  36.397  30.101   7.745
 1510ETHY    C1 1430  36.152  29.720   7.801
 1511ETHY    C1 1431  35.939  29.235   7.897
 1512ETHY    C1 1432  35.824  28.732   8.025
 1513ETHY    C1 1433  35.805  28.223   8.186
 1514ETHY    C1 1434  35.879  27.720   8.374
 1515THSLK    S 1435  36.159  30.430   8.133
 1516ETHY    C1 1436  35.871  30.112   8.289
 1517ETHY    C1 1437  35.571  29.752   8.552
 1518ETHY    C1 1438  35.328  29.426   8.896
 1519ETHY    C1 1439  35.144  29.143   9.309
 1520ETHY    C1 1440  35.020  28.909   9.783
 1521AUSL   AUS 1441  36.754  30.341   7.665
 1522AUSL   AUS 1442  36.450  30.341   7.338
 1523AUL    AUL 1443  36.602  30.033   7.502
 1524THSLK    S 1444  36.399  30.098   7.266
 1525ETHY    C1 1445  36.155  29.716   7.215
 1526ETHY    C1 1446  35.942  29.232   7.117
 1527ETHY    C1 1447  35.826  28.730   6.984
 1528ETHY    C1 1448  35.807  28.221   6.825
 1529ETHY    C1 1449  35.883  27.716   6.642
 1530THSLK    S 1450  36.711  30.085   7.749
 1531ETHY    C1 1451  36.601  29.649   7.821
 1532ETHY    C1 1452  36.558  29.123   7.928
 1533ETHY    C1 1453  36.615  28.611   8.059
 1534ETHY    C1 1454  36.768  28.123   8.213
 1535ETHY    C1 1455  37.010  27.670   8.388
 1536AUSL   AUS 1456  36.602  31.595   7.093
 1537AUSL   AUS 1457  37.019  31.525   7.237
 1538AUL    AUL 1458  36.905  31.809   7.011
 1539THSLK    S 1459  36.646  31.825   6.975
 1540ETHY    C1 1460  36.806  32.129   6.674
 1541ETHY    C1 1461  36.920  32.534   6.339
 1542ETHY    C1 1462  36.945  32.977   6.045
 1543ETHY    C1 1463  36.886  33.446   5.798
 1544ETHY    C1 1464  36.745  33.933   5.604
 1545THSLK    S 1465  37.206  31.646   7.085
 1546ETHY    C1 1466  37.580  31.802   6.876
 1547ETHY    C1 1467  37.978  32.066   6.629
 1548ETHY    C1 1468  38.311  32.410   6.395
 1549ETHY    C1 1469  38.573  32.822   6.184
 1550ETHY    C1 1470  38.764  33.296   5.998
 1551AUSL   AUS 1471  36.450  31.688   7.338
 1552AUSL   AUS 1472  36.337  31.431   6.992
 1553AUL    AUL 1473  36.299  31.809   7.011
 1554THSLK    S 1474  36.493  31.939   7.237
 1555ETHY    C1 1475  36.603  32.350   7.074
 1556ETHY    C1 1476  36.646  32.856   6.896
 1557ETHY    C1 1477  36.589  33.364   6.745
 1558ETHY    C1 1478  36.436  33.861   6.627
 1559ETHY    C1 1479  36.194  34.340   6.545
 1560THSLK    S 1480  36.223  31.566   6.802
 1561ETHY    C1 1481  36.157  31.738   6.385
 1562ETHY    C1 1482  36.014  31.990   5.932
 1563ETHY    C1 1483  35.805  32.289   5.544
 1564ETHY    C1 1484  35.539  32.627   5.230
 1565ETHY    C1 1485  35.223  33.000   4.993
 1566AUSL   AUS 1486  36.602  30.435   7.093
 1567AUSL   AUS 1487  36.186  30.504   7.237
 1568AUL    AUL 1488  36.299  30.220   7.011
 1569THSLK    S 1489  36.002  30.354   7.128
 1570ETHY    C1 1490  35.630  30.093   7.085
 1571ETHY    C1 1491  35.231  29.755   6.958
 1572ETHY    C1 1492  34.896  29.396   6.753
 1573ETHY    C1 1493  34.634  29.022   6.478
 1574ETHY    C1 1494  34.447  28.639   6.142
 1575THSLK    S 1495  36.562  30.176   7.019
 1576ETHY    C1 1496  36.405  29.770   6.885
 1577ETHY    C1 1497  36.290  29.290   6.671
 1578ETHY    C1 1498  36.263  28.831   6.404
 1579ETHY    C1 1499  36.323  28.400   6.094
 1580ETHY    C1 1500  36.467  28.005   5.751
 1581AUSL   AUS 1501  36.754  30.341   7.338
 1582AUSL   AUS 1502  36.867  30.598   6.992
 1583AUL    AUL 1503  36.905  30.220   7.011
 1584THSLK    S 1504  36.713  30.084   7.262
 1585ETHY    C1 1505  36.604  29.646   7.195
 1586ETHY    C1 1506  36.561  29.120   7.086
 1587ETHY    C1 1507  36.617  28.609   6.951
 1588ETHY    C1 1508  36.770  28.121   6.798
 1589ETHY    C1 1509  37.014  27.667   6.629
 1590THSLK    S 1510  36.987  30.408   6.853
 1591ETHY    C1 1511  37.056  30.022   6.621
 1592ETHY    C1 1512  37.198  29.614   6.300
 1593ETHY    C1 1513  37.405  29.278   5.942
 1594ETHY    C1 1514  37.671  29.021   5.559
 1595ETHY    C1 1515  37.991  28.843   5.158
 1596AUC    AUC 1516  37.212  39.436   7.502
 1597AUC    AUC 1517  37.458  39.436   7.350
 1598AUC    AUC 1518  37.458  39.436   7.653
 1599AUC    AUC 1519  36.967  39.436   7.350
 1600AUC    AUC 1520  36.967  39.436   7.653
 1601AUC    AUC 1521  37.060  39.681   7.502
 1602AUC    AUC 1522  37.364  39.681   7.502
 1603AUC    AUC 1523  37.060  39.190   7.502
 1604AUC    AUC 1524  37.364  39.190   7.502
 1605AUC    AUC 1525  37.212  39.284   7.747
 1606AUC    AUC 1526  37.212  39.587   7.747
 1607AUC    AUC 1527  37.212  39.284   7.256
 1608AUC    AUC 1528  37.212  39.587   7.256
 1609AUC    AUC 1529  37.703  39.436   7.198
 1610AUC    AUC 1530  37.703  39.436   7.502
 1611AUC    AUC 1531  37.703  39.436   7.805
 1612AUC    AUC 1532  36.721  39.436   7.198
 1613AUC    AUC 1533  36.721  39.436   7.502
 1614AUC    AUC 1534  36.721  39.436   7.805
 1615AUC    AUC 1535  36.909  39.926   7.502
 1616AUC    AUC 1536  37.212  39.926   7.502
 1617AUC    AUC 1537  37.515  39.926   7.502
 1618AUC    AUC 1538  36.909  38.945   7.502
 1619AUC    AUC 1539  37.212  38.945   7.502
 1620AUC    AUC 1540  37.515  38.945   7.502
 1621AUC    AUC 1541  37.212  39.132   7.992
 1622AUC    AUC 1542  37.212  39.436   7.992
 1623AUC    AUC 1543  37.212  39.739   7.992
 1624AUC    AUC 1544  37.212  39.132   7.011
 1625AUC    AUC 1545  37.212  39.436   7.011
 1626AUC    AUC 1546  37.212  39.739   7.011
 1627AUC    AUC 1547  37.458  39.284   7.899
 1628AUC    AUC 1548  37.458  39.587   7.899
 1629AUC    AUC 1549  37.458  39.284   7.105
 1630AUC    AUC 1550  37.458  39.587   7.105
 1631AUC    AUC 1551  36.967  39.284   7.899
 1632AUC    AUC 1552  36.967  39.587   7.899
 1633AUC    AUC 1553  36.967  39.284   7.105
 1634AUC    AUC 1554  36.967  39.587   7.105
 1635AUC    AUC 1555  37.609  39.681   7.350
 1636AUC    AUC 1556  37.609  39.681   7.653
 1637AUC    AUC 1557  36.815  39.681   7.350
 1638AUC    AUC 1558  36.815  39.681   7.653
 1639AUC    AUC 1559  37.609  39.190   7.350
 1640AUC    AUC 1560  37.609  39.190   7.653
 1641AUC    AUC 1561  36.815  39.190   7.350
 1642AUC    AUC 1562  36.815  39.190   7.653
 1643AUC    AUC 1563  37.060  39.833   7.747
 1644AUC    AUC 1564  37.364  39.833   7.747
 1645AUC    AUC 1565  37.060  39.038   7.747
 1646AUC    AUC 1566  37.364  39.038   7.747
 1647AUC    AUC 1567  37.060  39.833   7.256
 1648AUC    AUC 1568  37.364  39.833   7.256
 1649AUC    AUC 1569  37.060  39.038   7.256
 1650AUC    AUC 1570  37.364  39.038   7.256
 1651AUSL   AUS 1571  37.621  39.436   8.082
 1652AUSL   AUS 1572  37.477  39.019   8.012
 1653AUL    AUL 1573  37.703  39.132   8.296
 1654THSLK    S 1574  37.591  38.831   8.156
 1655ETHY    C1 1575  37.657  38.446   8.391
 1656ETHY    C1 1576  37.800  38.038   8.710
 1657ETHY    C1 1577  38.009  37.702   9.066
 1658ETHY    C1 1578  38.275  37.444   9.450
 1659ETHY    C1 1579  38.591  37.268   9.855
 1660THSLK    S 1580  37.717  39.386   8.326
 1661ETHY    C1 1581  37.933  39.200   8.681
 1662ETHY    C1 1582  38.208  39.065   9.124
 1663ETHY    C1 1583  38.489  39.035   9.575
 1664ETHY    C1 1584  38.767  39.104  10.025
 1665ETHY    C1 1585  39.036  39.272  10.466
 1666AUSL   AUS 1586  37.376  39.284   8.175
 1667AUSL   AUS 1587  37.049  39.587   8.175
 1668AUL    AUL 1588  37.212  39.436   8.483
 1669THSLK    S 1589  37.454  39.231   8.417
 1670ETHY    C1 1590  37.531  38.981   8.790
 1671ETHY    C1 1591  37.647  38.764   9.269
 1672ETHY    C1 1592  37.784  38.648   9.769
 1673ETHY    C1 1593  37.934  38.630  10.281
 1674ETHY    C1 1594  38.093  38.711  10.794
 1675THSLK    S 1595  36.962  39.544   8.431
 1676ETHY    C1 1596  36.880  39.432   8.864
 1677ETHY    C1 1597  36.766  39.386   9.388
 1678ETHY    C1 1598  36.634  39.444   9.901
 1679ETHY    C1 1599  36.483  39.597  10.389
 1680ETHY    C1 1600  36.317  39.841  10.844
 1681AUSL   AUS 1601  37.376  39.587   8.175
 1682AUSL   AUS 1602  37.722  39.700   7.918
 1683AUL    AUL 1603  37.703  39.739   8.296
 1684THSLK    S 1604  37.463  39.641   8.414
 1685ETHY    C1 1605  37.544  39.892   8.786
 1686ETHY    C1 1606  37.658  40.108   9.265
 1687ETHY    C1 1607  37.791  40.224   9.767
 1688ETHY    C1 1608  37.941  40.242  10.279
 1689ETHY    C1 1609  38.107  40.162  10.789
 1690THSLK    S 1610  37.896  39.802   8.080
 1691ETHY    C1 1611  38.260  39.812   8.354
 1692ETHY    C1 1612  38.676  39.914   8.680
 1693ETHY    C1 1613  39.056  40.113   8.995
 1694ETHY    C1 1614  39.391  40.400   9.296
 1695ETHY    C1 1615  39.672  40.768   9.577
 1696AUSL   AUS 1616  37.621  39.436   6.922
 1697AUSL   AUS 1617  37.477  39.852   6.992
 1698AUL    AUL 1618  37.703  39.739   6.707
 1699THSLK    S 1619  37.724  39.386   6.681
 1700ETHY    C1 1620  37.945  39.200   6.329
 1701ETHY    C1 1621  38.218  39.065   5.885
 1702ETHY    C1 1622  38.496  39.035   5.432
 1703ETHY    C1 1623  38.774  39.104   4.982
 1704ETHY    C1 1624  39.048  39.272   4.545
 1705THSLK    S 1625  37.655  39.967   6.825
 1706ETHY    C1 1626  37.943  40.072   6.488
 1707ETHY    C1 1627  38.243  40.276   6.090
 1708ETHY    C1 1628  38.486  40.564   5.714
 1709ETHY    C1 1629  38.670  40.928   5.371
 1710ETHY    C1 1630  38.794  41.359   5.065
 1711AUSL   AUS 1631  37.376  39.284   6.828
 1712AUSL   AUS 1632  37.722  39.171   7.085
 1713AUL    AUL 1633  37.703  39.132   6.707
 1714THSLK    S 1634  37.859  38.979   6.944
 1715ETHY    C1 1635  38.067  38.636   6.729
 1716ETHY    C1 1636  38.368  38.294   6.442
 1717ETHY    C1 1637  38.719  38.041   6.133
 1718ETHY    C1 1638  39.113  37.879   5.812
 1719ETHY    C1 1639  39.542  37.808   5.486
 1720THSLK    S 1640  37.463  39.230   6.590
 1721ETHY    C1 1641  37.544  38.979   6.217
 1722ETHY    C1 1642  37.658  38.763   5.738
 1723ETHY    C1 1643  37.791  38.647   5.236
 1724ETHY    C1 1644  37.941  38.629   4.725
 1725ETHY    C1 1645  38.107  38.709   4.214
 1726AUSL   AUS 1646  37.376  39.587   6.828
 1727AUSL   AUS 1647  37.049  39.284   6.828
 1728AUL    AUL 1648  37.212  39.436   6.520
 1729THSLK    S 1649  36.954  39.230   6.592
 1730ETHY    C1 1650  36.817  38.982   6.235
 1731ETHY    C1 1651  36.657  38.768   5.767
 1732ETHY    C1 1652  36.510  38.653   5.269
 1733ETHY    C1 1653  36.383  38.634   4.751
 1734ETHY    C1 1654  36.278  38.710   4.224
 1735THSLK    S 1655  37.479  39.545   6.578
 1736ETHY    C1 1656  37.620  39.430   6.160
 1737ETHY    C1 1657  37.778  39.383   5.647
 1738ETHY    C1 1658  37.921  39.439   5.138
 1739ETHY    C1 1659  38.049  39.593   4.643
 1740ETHY    C1 1660  38.160  39.841   4.174
 1741AUSL   AUS 1661  36.803  39.436   8.082
 1742AUSL   AUS 1662  36.947  39.852   8.012
 1743AUL    AUL 1663  36.721  39.739   8.296
 1744THSLK    S 1664  36.700  39.386   8.322
 1745ETHY    C1 1665  36.479  39.200   8.674
 1746ETHY    C1 1666  36.206  39.065   9.118
 1747ETHY    C1 1667  35.929  39.035   9.571
 1748ETHY    C1 1668  35.651  39.104  10.021
 1749ETHY    C1 1669  35.376  39.272  10.458
 1750THSLK    S 1670  36.827  39.981   8.202
 1751ETHY    C1 1671  36.758  40.150   8.620
 1752ETHY    C1 1672  36.616  40.403   9.073
 1753ETHY    C1 1673  36.410  40.704   9.460
 1754ETHY    C1 1674  36.143  41.043   9.775
 1755ETHY    C1 1675  35.823  41.410  10.013
 1756AUSL   AUS 1676  37.049  39.284   8.175
 1757AUSL   AUS 1677  36.702  39.171   7.918
 1758AUL    AUL 1678  36.721  39.132   8.296
 1759THSLK    S 1679  36.524  39.007   8.029
 1760ETHY    C1 1680  36.156  38.754   8.125
 1761ETHY    C1 1681  35.741  38.475   8.323
 1762ETHY    C1 1682  35.363  38.235   8.611
 1763ETHY    C1 1683  35.029  38.039   8.978
 1764ETHY    C1 1684  34.743  37.893   9.415
 1765THSLK    S 1685  36.946  39.232   8.410
 1766ETHY    C1 1686  36.804  38.985   8.766
 1767ETHY    C1 1687  36.646  38.770   9.233
 1768ETHY    C1 1688  36.503  38.654   9.733
 1769ETHY    C1 1689  36.376  38.636  10.250
 1770ETHY    C1 1690  36.264  38.714  10.775
 1771AUSL   AUS 1691  36.803  39.436   6.922
 1772AUSL   AUS 1692  36.947  39.019   6.992
 1773AUL    AUL 1693  36.721  39.132   6.707
 1774THSLK    S 1694  36.708  39.386   6.677
 1775ETHY    C1 1695  36.491  39.200   6.322
 1776ETHY    C1 1696  36.216  39.065   5.879
 1777ETHY    C1 1697  35.935  39.035   5.429
 1778ETHY    C1 1698  35.657  39.104   4.978
 1779ETHY    C1 1699  35.389  39.272   4.537
 1780THSLK    S 1700  36.775  38.845   6.872
 1781ETHY    C1 1701  36.490  38.524   6.717
 1782ETHY    C1 1702  36.189  38.165   6.453
 1783ETHY    C1 1703  35.944  37.842   6.109
 1784ETHY    C1 1704  35.760  37.559   5.696
 1785ETHY    C1 1705  35.641  37.319   5.223
 1786AUSL   AUS 1706  37.049  39.587   6.828
 1787AUSL   AUS 1707  36.702  39.700   7.085
 1788AUL    AUL 1708  36.721  39.739   6.707
 1789THSLK    S 1709  36.571  39.830   6.893
 1790ETHY    C1 1710  36.365  39.930   6.499
 1791ETHY    C1 1711  36.063  40.094   6.085
 1792ETHY    C1 1712  35.709  40.306   5.748
 1793ETHY    C1 1713  35.316  40.560   5.494
 1794ETHY    C1 1714  34.891  40.853   5.324
 1795THSLK    S 1715  36.970  39.546   6.571
 1796ETHY    C1 1716  36.893  39.434   6.136
 1797ETHY    C1 1717  36.777  39.389   5.612
 1798ETHY    C1 1718  36.641  39.445   5.101
 1799ETHY    C1 1719  36.491  39.599   4.613
 1800ETHY    C1 1720  36.331  39.844   4.156
 1801AUSL   AUS 1721  37.792  39.845   7.502
 1802AUSL   AUS 1722  37.722  39.700   7.085
 1803AUL    AUL 1723  38.006  39.926   7.198
 1804THSLK    S 1724  37.901  39.803   6.930
 1805ETHY    C1 1725  38.268  39.814   6.659
 1806ETHY    C1 1726  38.683  39.916   6.332
 1807ETHY    C1 1727  39.061  40.114   6.014
 1808ETHY    C1 1728  39.395  40.401   5.713
 1809ETHY    C1 1729  39.681  40.771   5.438
 1810THSLK    S 1730  38.060  39.901   7.506
 1811ETHY    C1 1731  38.512  39.962   7.508
 1812ETHY    C1 1732  39.026  40.121   7.507
 1813ETHY    C1 1733  39.494  40.375   7.505
 1814ETHY    C1 1734  39.907  40.712   7.506
 1815ETHY    C1 1735  40.259  41.126   7.509
 1816AUSL   AUS 1736  37.886  39.599   7.350
 1817AUSL   AUS 1737  37.886  39.272   7.653
 1818AUL    AUL 1738  38.194  39.436   7.502
 1819THSLK    S 1739  38.145  39.642   7.348
 1820ETHY    C1 1740  38.590  39.572   7.278
 1821ETHY    C1 1741  39.121  39.579   7.190
 1822ETHY    C1 1742  39.634  39.689   7.101
 1823ETHY    C1 1743  40.119  39.895   7.017
 1824ETHY    C1 1744  40.566  40.192   6.940
 1825THSLK    S 1745  38.118  39.134   7.662
 1826ETHY    C1 1746  38.464  38.845   7.728
 1827ETHY    C1 1747  38.925  38.578   7.809
 1828ETHY    C1 1748  39.422  38.409   7.892
 1829ETHY    C1 1749  39.943  38.337   7.980
 1830ETHY    C1 1750  40.478  38.363   8.071
 1831AUSL   AUS 1751  37.886  39.599   7.653
 1832AUSL   AUS 1752  37.629  39.946   7.766
 1833AUL    AUL 1753  38.006  39.926   7.805
 1834THSLK    S 1754  37.812  40.065   7.926
 1835ETHY    C1 1755  38.184  40.220   8.139
 1836ETHY    C1 1756  38.584  40.485   8.385
 1837ETHY    C1 1757  38.918  40.829   8.615
 1838ETHY    C1 1758  39.180  41.242   8.827
 1839ETHY    C1 1759  39.367  41.714   9.019
 1840THSLK    S 1760  38.144  39.642   7.664
 1841ETHY    C1 1761  38.588  39.572   7.738
 1842ETHY    C1 1762  39.119  39.579   7.825
 1843ETHY    C1 1763  39.633  39.689   7.910
 1844ETHY    C1 1764  40.117  39.895   7.994
 1845ETHY    C1 1765  40.564  40.192   8.078
 1846AUSL   AUS 1766  36.632  39.845   7.502
 1847AUSL   AUS 1767  36.702  39.700   7.918
 1848AUL    AUL 1768  36.418  39.926   7.805
 1849THSLK    S 1769  36.566  39.823   8.109
 1850ETHY    C1 1770  36.357  39.919   8.503
 1851ETHY    C1 1771  36.056  40.085   8.917
 1852ETHY    C1 1772  35.705  40.300   9.254
 1853ETHY    C1 1773  35.311  40.554   9.509
 1854ETHY    C1 1774  34.882  40.841   9.678
 1855THSLK    S 1775  36.416  39.985   7.506
 1856ETHY    C1 1776  36.160  40.363   7.508
 1857ETHY    C1 1777  35.787  40.751   7.507
 1858ETHY    C1 1778  35.351  41.057   7.505
 1859ETHY    C1 1779  34.865  41.275   7.506
 1860ETHY    C1 1780  34.338  41.405   7.509
 1861AUSL   AUS 1781  36.538  39.599   7.350
 1862AUSL   AUS 1782  36.796  39.946   7.237
 1863AUL    AUL 1783  36.418  39.926   7.198
 1864THSLK    S 1784  36.307  39.714   7.303
 1865ETHY    C1 1785  35.960  39.902   7.075
 1866ETHY    C1 1786  35.500  40.094   6.872
 1867ETHY    C1 1787  35.002  40.244   6.758
 1868ETHY    C1 1788  34.481  40.354   6.733
 1869ETHY    C1 1789  33.947  40.424   6.796
 1870THSLK    S 1790  36.680  40.111   7.058
 1871ETHY    C1 1791  36.564  40.427   6.750
 1872ETHY    C1 1792  36.350  40.805   6.432
 1873ETHY    C1 1793  36.058  41.174   6.183
 1874ETHY    C1 1794  35.700  41.527   6.008
 1875ETHY    C1 1795  35.282  41.860   5.909
 1876AUSL   AUS 1796  36.538  39.599   7.653
 1877AUSL   AUS 1797  36.538  39.272   7.350
 1878AUL    AUL 1798  36.230  39.436   7.502
 1879THSLK    S 1799  36.280  39.198   7.390
 1880ETHY    C1 1800  35.836  39.163   7.486
 1881ETHY    C1 1801  35.305  39.082   7.518
 1882ETHY    C1 1802  34.791  38.957   7.458
 1883ETHY    C1 1803  34.307  38.789   7.311
 1884ETHY    C1 1804  33.860  38.582   7.083
 1885THSLK    S 1805  36.305  39.706   7.704
 1886ETHY    C1 1806  35.958  39.890   7.935
 1887ETHY    C1 1807  35.498  40.083   8.137
 1888ETHY    C1 1808  35.001  40.238   8.249
 1889ETHY    C1 1809  34.480  40.348   8.274
 1890ETHY    C1 1810  33.944  40.411   8.213
 1891AUSL   AUS 1811  37.792  39.026   7.502
 1892AUSL   AUS 1812  37.722  39.171   7.918
 1893AUL    AUL 1813  38.006  38.945   7.805
 1894THSLK    S 1814  38.008  38.886   7.506
 1895ETHY    C1 1815  38.264  38.508   7.508
 1896ETHY    C1 1816  38.637  38.120   7.507
 1897ETHY    C1 1817  39.073  37.814   7.505
 1898ETHY    C1 1818  39.559  37.596   7.506
 1899ETHY    C1 1819  40.086  37.466   7.509
 1900THSLK    S 1820  37.854  38.981   8.066
 1901ETHY    C1 1821  38.059  38.638   8.285
 1902ETHY    C1 1822  38.361  38.296   8.570
 1903ETHY    C1 1823  38.715  38.043   8.877
 1904ETHY    C1 1824  39.109  37.880   9.198
 1905ETHY    C1 1825  39.533  37.810   9.529
 1906AUSL   AUS 1826  37.886  39.272   7.350
 1907AUSL   AUS 1827  37.629  38.925   7.237
 1908AUL    AUL 1828  38.006  38.945   7.198
 1909THSLK    S 1829  38.119  39.134   7.350
 1910ETHY    C1 1830  38.467  38.845   7.289
 1911ETHY    C1 1831  38.926  38.578   7.206
 1912ETHY    C1 1832  39.423  38.409   7.118
 1913ETHY    C1 1833  39.945  38.337   7.031
 1914ETHY    C1 1834  40.480  38.363   6.947
 1915THSLK    S 1835  37.748  38.735   7.104
 1916ETHY    C1 1836  37.865  38.318   6.963
 1917ETHY    C1 1837  38.079  37.864   6.765
 1918ETHY    C1 1838  38.369  37.478   6.543
 1919ETHY    C1 1839  38.728  37.163   6.306
 1920ETHY    C1 1840  39.148  36.924   6.058
 1921AUSL   AUS 1841  36.632  39.026   7.502
 1922AUSL   AUS 1842  36.702  39.171   7.085
 1923AUL    AUL 1843  36.418  38.945   7.198
 1924THSLK    S 1844  36.529  39.000   6.973
 1925ETHY    C1 1845  36.164  38.743   6.877
 1926ETHY    C1 1846  35.748  38.466   6.679
 1927ETHY    C1 1847  35.368  38.229   6.392
 1928ETHY    C1 1848  35.034  38.033   6.025
 1929ETHY    C1 1849  34.752  37.881   5.587
 1930THSLK    S 1850  36.364  38.970   7.506
 1931ETHY    C1 1851  35.912  38.909   7.508
 1932ETHY    C1 1852  35.398  38.750   7.507
 1933ETHY    C1 1853  34.930  38.496   7.505
 1934ETHY    C1 1854  34.517  38.159   7.506
 1935ETHY    C1 1855  34.165  37.745   7.509
 1936AUSL   AUS 1856  36.538  39.272   7.653
 1937AUSL   AUS 1857  36.796  38.925   7.766
 1938AUL    AUL 1858  36.418  38.945   7.805
 1939THSLK    S 1859  36.608  38.781   7.880
 1940ETHY    C1 1860  36.234  38.524   7.926
 1941ETHY    C1 1861  35.836  38.184   8.052
 1942ETHY    C1 1862  35.503  37.822   8.255
 1943ETHY    C1 1863  35.241  37.448   8.529
 1944ETHY    C1 1864  35.050  37.070   8.870
 1945THSLK    S 1865  36.279  39.205   7.617
 1946ETHY    C1 1866  35.834  39.175   7.524
 1947ETHY    C1 1867  35.303  39.093   7.490
 1948ETHY    C1 1868  34.790  38.964   7.549
 1949ETHY    C1 1869  34.306  38.796   7.696
 1950ETHY    C1 1870  33.858  38.594   7.928
 1951AUSL   AUS 1871  37.212  40.016   7.911
 1952AUSL   AUS 1872  36.796  39.946   7.766
 1953AUL    AUL 1873  36.909  40.230   7.992
 1954THSLK    S 1874  36.676  40.105   7.950
 1955ETHY    C1 1875  36.559  40.417   8.261
 1956ETHY    C1 1876  36.345  40.797   8.578
 1957ETHY    C1 1877  36.055  41.168   8.824
 1958ETHY    C1 1878  35.697  41.522   9.000
 1959ETHY    C1 1879  35.276  41.850   9.102
 1960THSLK    S 1880  37.252  40.242   8.035
 1961ETHY    C1 1881  37.409  40.544   8.339
 1962ETHY    C1 1882  37.524  40.950   8.672
 1963ETHY    C1 1883  37.551  41.394   8.964
 1964ETHY    C1 1884  37.491  41.863   9.211
 1965ETHY    C1 1885  37.347  42.347   9.410
 1966AUSL   AUS 1886  37.060  40.109   7.665
 1967AUSL   AUS 1887  37.364  40.109   7.338
 1968AUL    AUL 1888  37.212  40.417   7.502
 1969THSLK    S 1889  37.101  40.357   7.774
 1970ETHY    C1 1890  37.210  40.767   7.942
 1971ETHY    C1 1891  37.254  41.274   8.118
 1972ETHY    C1 1892  37.197  41.782   8.265
 1973ETHY    C1 1893  37.044  42.279   8.383
 1974ETHY    C1 1894  36.801  42.756   8.472
 1975THSLK    S 1895  37.417  40.344   7.241
 1976ETHY    C1 1896  37.662  40.700   7.094
 1977ETHY    C1 1897  37.875  41.165   6.927
 1978ETHY    C1 1898  37.990  41.663   6.779
 1979ETHY    C1 1899  38.010  42.182   6.655
 1980ETHY    C1 1900  37.935  42.711   6.558
 1981AUSL   AUS 1901  37.364  40.109   7.665
 1982AUSL   AUS 1902  37.477  39.852   8.012
 1983AUL    AUL 1903  37.515  40.230   7.992
 1984THSLK    S 1904  37.649  39.965   8.184
 1985ETHY    C1 1905  37.934  40.068   8.524
 1986ETHY    C1 1906  38.236  40.272   8.921
 1987ETHY    C1 1907  38.481  40.562   9.294
 1988ETHY    C1 1908  38.665  40.925   9.638
 1989ETHY    C1 1909  38.784  41.355   9.948
 1990THSLK    S 1910  37.415  40.343   7.771
 1991ETHY    C1 1911  37.659  40.697   7.922
 1992ETHY    C1 1912  37.872  41.163   8.087
 1993ETHY    C1 1913  37.988  41.662   8.231
 1994ETHY    C1 1914  38.007  42.180   8.356
 1995ETHY    C1 1915  37.932  42.708   8.458
 1996AUSL   AUS 1916  37.212  38.856   7.911
 1997AUSL   AUS 1917  37.629  38.925   7.766
 1998AUL    AUL 1918  37.515  38.641   7.992
 1999THSLK    S 1919  37.168  38.601   7.990
 2000ETHY    C1 1920  37.008  38.197   8.128
 2001ETHY    C1 1921  36.894  37.716   8.341
 2002ETHY    C1 1922  36.869  37.255   8.605
 2003ETHY    C1 1923  36.928  36.825   8.915
 2004ETHY    C1 1924  37.069  36.433   9.263
 2005THSLK    S 1925  37.744  38.736   7.908
 2006ETHY    C1 1926  37.860  38.320   8.052
 2007ETHY    C1 1927  38.074  37.867   8.248
 2008ETHY    C1 1928  38.366  37.479   8.467
 2009ETHY    C1 1929  38.725  37.164   8.705
 2010ETHY    C1 1930  39.142  36.927   8.958
 2011AUSL   AUS 1931  37.060  38.762   7.665
 2012AUSL   AUS 1932  36.947  39.019   8.012
 2013AUL    AUL 1933  36.909  38.641   7.992
 2014THSLK    S 1934  37.007  38.522   7.745
 2015ETHY    C1 1935  36.762  38.141   7.801
 2016ETHY    C1 1936  36.549  37.656   7.897
 2017ETHY    C1 1937  36.434  37.153   8.025
 2018ETHY    C1 1938  36.415  36.644   8.186
 2019ETHY    C1 1939  36.489  36.141   8.374
 2020THSLK    S 1940  36.769  38.851   8.133
 2021ETHY    C1 1941  36.481  38.533   8.289
 2022ETHY    C1 1942  36.181  38.173   8.552
 2023ETHY    C1 1943  35.938  37.847   8.896
 2024ETHY    C1 1944  35.754  37.564   9.309
 2025ETHY    C1 1945  35.630  37.330   9.783
 2026AUSL   AUS 1946  37.364  38.762   7.665
 2027AUSL   AUS 1947  37.060  38.762   7.338
 2028AUL    AUL 1948  37.212  38.454   7.502
 2029THSLK    S 1949  37.009  38.519   7.266
 2030ETHY    C1 1950  36.765  38.137   7.215
 2031ETHY    C1 1951  36.552  37.653   7.117
 2032ETHY    C1 1952  36.436  37.151   6.984
 2033ETHY    C1 1953  36.417  36.642   6.825
 2034ETHY    C1 1954  36.493  36.137   6.642
 2035THSLK    S 1955  37.321  38.506   7.749
 2036ETHY    C1 1956  37.211  38.070   7.821
 2037ETHY    C1 1957  37.168  37.544   7.928
 2038ETHY    C1 1958  37.225  37.032   8.059
 2039ETHY    C1 1959  37.378  36.544   8.213
 2040ETHY    C1 1960  37.620  36.091   8.388
 2041AUSL   AUS 1961  37.212  40.016   7.093
 2042AUSL   AUS 1962  37.629  39.946   7.237
 2043AUL    AUL 1963  37.515  40.230   7.011
 2044THSLK    S 1964  37.256  40.246   6.975
 2045ETHY    C1 1965  37.416  40.550   6.674
 2046ETHY    C1 1966  37.530  40.955   6.339
 2047ETHY    C1 1967  37.555  41.398   6.045
 2048ETHY    C1 1968  37.496  41.867   5.798
 2049ETHY    C1 1969  37.355  42.354   5.604
 2050THSLK    S 1970  37.816  40.067   7.085
 2051ETHY    C1 1971  38.190  40.223   6.876
 2052ETHY    C1 1972  38.588  40.487   6.629
 2053ETHY    C1 1973  38.921  40.831   6.395
 2054ETHY    C1 1974  39.183  41.243   6.184
 2055ETHY    C1 1975  39.374  41.717   5.998
 2056AUSL   AUS 1976  37.060  40.109   7.338
 2057AUSL   AUS 1977  36.947  39.852   6.992
 2058AUL    AUL 1978  36.909  40.230   7.011
 2059THSLK    S 1979  37.103  40.360   7.237
 2060ETHY    C1 1980  37.213  40.771   7.074
 2061ETHY    C1 1981  37.256  41.277   6.896
 2062ETHY    C1 1982  37.199  41.785   6.745
 2063ETHY    C1 1983  37.046  42.282   6.627
 2064ETHY    C1 1984  36.804  42.761   6.545
 2065THSLK    S 1985  36.833  39.987   6.802
 2066ETHY    C1 1986  36.767  40.159   6.385
 2067ETHY    C1 1987  36.624  40.411   5.932
 2068ETHY    C1 1988  36.415  40.710   5.544
 2069ETHY    C1 1989  36.149  41.048   5.230
 2070ETHY    C1 1990  35.833  41.421   4.993
 2071AUSL   AUS 1991  37.212  38.856   7.093
 2072AUSL   AUS 1992  36.796  38.925   7.237
 2073AUL    AUL 1993  36.909  38.641   7.011
 2074THSLK    S 1994  36.612  38.775   7.128
 2075ETHY    C1 1995  36.240  38.514   7.085
 2076ETHY    C1 1996  35.841  38.176   6.958
 2077ETHY    C1 1997  35.506  37.817   6.753
 2078ETHY    C1 1998  35.244  37.443   6.478
 2079ETHY    C1 1999  35.057  37.060   6.142
 2080THSLK    S 2000  37.172  38.597   7.019
 2081ETHY    C1 2001  37.015  38.191   6.885
 2082ETHY    C1 2002  36.900  37.711   6.671
 2083ETHY    C1 2003  36.873  37.252   6.404
 2084ETHY    C1 2004  36.933  36.821   6.094
 2085ETHY    C1 2005  37.077  36.426   5.751
 2086AUSL   AUS 2006  37.364  38.762   7.338
 2087AUSL   AUS 2007  37.477  39.019   6.992
 2088AUL    AUL 2008  37.515  38.641   7.011
 2089THSLK    S 2009  37.323  38.505   7.262
 2090ETHY    C1 2010  37.214  38.067   7.195
 2091ETHY    C1 2011  37.171  37.541   7.086
 2092ETHY    C1 2012  37.227  37.030   6.951
 2093ETHY    C1 2013  37.380  36.542   6.798
 2094ETHY    C1 2014  37.624  36.088   6.629
 2095THSLK    S 2015  37.597  38.829   6.853
 2096ETHY    C1 2016  37.666  38.443   6.621
 2097ETHY    C1 2017  37.808  38.035   6.300
 2098ETHY    C1 2018  38.015  37.699   5.942
 2099ETHY    C1 2019  38.281  37.442   5.559
 2100ETHY    C1 2020  38.601  37.264   5.158
 2101AUC    AUC 2021  14.685  24.541   7.502
 2102AUC    AUC 2022  14.931  24.541   7.350
 2103AUC    AUC 2023  14.931  24.541   7.653
 2104AUC    AUC 2024  14.440  24.541   7.350
 2105AUC    AUC 2025  14.440  24.541   7.653
 2106AUC    AUC 2026  14.533  24.786   7.502
 2107AUC    AUC 2027  14.837  24.786   7.502
 2108AUC    AUC 2028  14.533  24.295   7.502
 2109AUC    AUC 2029  14.837  24.295   7.502
 2110AUC    AUC 2030  14.685  24.389   7.747
 2111AUC    AUC 2031  14.685  24.692   7.747
 2112AUC    AUC 2032  14.685  24.389   7.256
 2113AUC    AUC 2033  14.685  24.692   7.256
 2114AUC    AUC 2034  15.176  24.541   7.198
 2115AUC    AUC 2035  15.176  24.541   7.502
 2116AUC    AUC 2036  15.176  24.541   7.805
 2117AUC    AUC 2037  14.194  24.541   7.198
 2118AUC    AUC 2038  14.194  24.541   7.502
 2119AUC    AUC 2039  14.194  24.541   7.805
 2120AUC    AUC 2040  14.382  25.031   7.502
 2121AUC    AUC 2041  14.685  25.031   7.502
 2122AUC    AUC 2042  14.988  25.031   7.502
 2123AUC    AUC 2043  14.382  24.050   7.502
 2124AUC    AUC 2044  14.685  24.050   7.502
 2125AUC    AUC 2045  14.988  24.050   7.502
 2126AUC    AUC 2046  14.685  24.237   7.992
 2127AUC    AUC 2047  14.685  24.541   7.992
 2128AUC    AUC 2048  14.685  24.844   7.992
 2129AUC    AUC 2049  14.685  24.237   7.011
 2130AUC    AUC 2050  14.685  24.541   7.011
 2131AUC    AUC 2051  14.685  24.844   7.011
 2132AUC    AUC 2052  14.931  24.389   7.899
 2133AUC    AUC 2053  14.931  24.692   7.899
 2134AUC    AUC 2054  14.931  24.389   7.105
 2135AUC    AUC 2055  14.931  24.692   7.105
 2136AUC    AUC 2056  14.440  24.389   7.899
 2137AUC    AUC 2057  14.440  24.692   7.899
 2138AUC    AUC 2058  14.440  24.389   7.105
 2139AUC    AUC 2059  14.440  24.692   7.105
 2140AUC    AUC 2060  15.082  24.786   7.350
 2141AUC    AUC 2061  15.082  24.786   7.653
 2142AUC    AUC 2062  14.288  24.786   7.350
 2143AUC    AUC 2063  14.288  24.786   7.653
 2144AUC    AUC 2064  15.082  24.295   7.350
 2145AUC    AUC 2065  15.082  24.295   7.653
 2146AUC    AUC 2066  14.288  24.295   7.350
 2147AUC    AUC 2067  14.288  24.295   7.653
 2148AUC    AUC 2068  14.533  24.938   7.747
 2149AUC    AUC 2069  14.837  24.938   7.747
 2150AUC    AUC 2070  14.533  24.143   7.747
 2151AUC    AUC 2071  14.837  24.143   7.747
 2152AUC    AUC 2072  14.533  24.938   7.256
 2153AUC    AUC 2073  14.837  24.938   7.256
 2154AUC    AUC 2074  14.533  24.143   7.256
 2155AUC    AUC 2075  14.837  24.143   7.256
 2156AUSL   AUS 2076  15.094  24.541   8.082
 2157AUSL   AUS 2077  14.950  24.124   8.012
 2158AUL    AUL 2078  15.176  24.237   8.296
 2159THSLK    S 2079  15.064  23.936   8.156
 2160ETHY    C1 2080  15.130  23.551   8.391
 2161ETHY    C1 2081  15.273  23.143   8.710
 2162ETHY    C1 2082  15.482  22.807   9.066
 2163ETHY    C1 2083  15.748  22.549   9.450
 2164ETHY    C1 2084  16.064  22.373   9.855
 2165THSLK    S 2085  15.190  24.491   8.326
 2166ETHY    C1 2086  15.406  24.305   8.681
 2167ETHY    C1 2087  15.681  24.170   9.124
 2168ETHY    C1 2088  15.962  24.140   9.575
 2169ETHY    C1 2089  16.240  24.209  10.025
 2170ETHY    C1 2090  16.509  24.377  10.466
 2171AUSL   AUS 2091  14.849  24.389   8.175
 2172AUSL   AUS 2092  14.522  24.692   8.175
 2173AUL    AUL 2093  14.685  24.541   8.483
 2174THSLK    S 2094  14.927  24.336   8.417
 2175ETHY    C1 2095  15.004  24.086   8.790
 2176ETHY    C1 2096  15.120  23.869   9.269
 2177ETHY    C1 2097  15.257  23.753   9.769
 2178ETHY    C1 2098  15.407  23.735  10.281
 2179ETHY    C1 2099  15.566  23.816  10.794
 2180THSLK    S 2100  14.435  24.649   8.431
 2181ETHY    C1 2101  14.353  24.537   8.864
 2182ETHY    C1 2102  14.239  24.491   9.388
 2183ETHY    C1 2103  14.107  24.549   9.901
 2184ETHY    C1 2104  13.956  24.702  10.389
 2185ETHY    C1 2105  13.790  24.946  10.844
 2186AUSL   AUS 2106  14.849  24.692   8.175
 2187AUSL   AUS 2107  15.195  24.805   7.918
 2188AUL    AUL 2108  15.176  24.844   8.296
 2189THSLK    S 2109  14.936  24.746   8.414
 2190ETHY    C1 2110  15.017  24.997   8.786
 2191ETHY    C1 2111  15.131  25.213   9.265
 2192ETHY    C1 2112  15.264  25.329   9.767
 2193ETHY    C1 2113  15.414  25.347  10.279
 2194ETHY    C1 2114  15.580  25.267  10.789
 2195THSLK    S 2115  15.369  24.907   8.080
 2196ETHY    C1 2116  15.733  24.917   8.354
 2197ETHY    C1 2117  16.149  25.019   8.680
 2198ETHY    C1 2118  16.529  25.218   8.995
 2199ETHY    C1 2119  16.864  25.505   9.296
 2200ETHY    C1 2120  17.145  25.873   9.577
 2201AUSL   AUS 2121  15.094  24.541   6.922
 2202AUSL   AUS 2122  14.950  24.957   6.992
 2203AUL    AUL 2123  15.176  24.844   6.707
 2204THSLK    S 2124  15.197  24.491   6.681
 2205ETHY    C1 2125  15.418  24.305   6.329
 2206ETHY    C1 2126  15.691  24.170   5.885
 2207ETHY    C1 2127  15.969  24.140   5.432
 2208ETHY    C1 2128  16.247  24.209   4.982
 2209ETHY    C1 2129  16.521  24.377   4.545
 2210THSLK    S 2130  15.128  25.072   6.825
 2211ETHY    C1 2131  15.416  25.177   6.488
 2212ETHY    C1 2132  15.716  25.381   6.090
 2213ETHY    C1 2133  15.959  25.669   5.714
 2214ETHY    C1 2134  16.143  26.033   5.371
 2215ETHY    C1 2135  16.267  26.464   5.065
 2216AUSL   AUS 2136  14.849  24.389   6.828
 2217AUSL   AUS 2137  15.195  24.276   7.085
 2218AUL    AUL 2138  15.176  24.237   6.707
 2219THSLK    S 2139  15.332  24.084   6.944
 2220ETHY    C1 2140  15.540  23.741   6.729
 2221ETHY    C1 2141  15.841  23.399   6.442
 2222ETHY    C1 2142  16.192  23.146   6.133
 2223ETHY    C1 2143  16.586  22.984   5.812
 2224ETHY    C1 2144  17.015  22.913   5.486
 2225THSLK    S 2145  14.936  24.335   6.590
 2226ETHY    C1 2146  15.017  24.084   6.217
 2227ETHY    C1 2147  15.131  23.868   5.738
 2228ETHY    C1 2148  15.264  23.752   5.236
 2229ETHY    C1 2149  15.414  23.734   4.725
 2230ETHY    C1 2150  15.580  23.814   4.214
 2231AUSL   AUS 2151  14.849  24.692   6.828
 2232AUSL   AUS 2152  14.522  24.389   6.828
 2233AUL    AUL 2153  14.685  24.541   6.520
 2234THSLK    S 2154  14.427  24.335   6.592
 2235ETHY    C1 2155  14.290  24.087   6.235
 2236ETHY    C1 2156  14.130  23.873   5.767
 2237ETHY    C1 2157  13.983  23.758   5.269
 2238ETHY    C1 2158  13.856  23.739   4.751
 2239ETHY    C1 2159  13.751  23.815   4.224
 2240THSLK    S 2160  14.952  24.650   6.578
 2241ETHY    C1 2161  15.093  24.535   6.160
 2242ETHY    C1 2162  15.251  24.488   5.647
 2243ETHY    C1 2163  15.394  24.544   5.138
 2244ETHY    C1 2164  15.522  24.698   4.643
 2245ETHY    C1 2165  15.633  24.946   4.174
 2246AUSL   AUS 2166  14.276  24.541   8.082
 2247AUSL   AUS 2167  14.420  24.957   8.012
 2248AUL    AUL 2168  14.194  24.844   8.296
 2249THSLK    S 2169  14.173  24.491   8.322
 2250ETHY    C1 2170  13.952  24.305   8.674
 2251ETHY    C1 2171  13.679  24.170   9.118
 2252ETHY    C1 2172  13.402  24.140   9.571
 2253ETHY    C1 2173  13.124  24.209  10.021
 2254ETHY    C1 2174  12.849  24.377  10.458
 2255THSLK    S 2175  14.300  25.086   8.202
 2256ETHY    C1 2176  14.231  25.255   8.620
 2257ETHY    C1 2177  14.089  25.508   9.073
 2258ETHY    C1 2178  13.883  25.809   9.460
 2259ETHY    C1 2179  13.616  26.148   9.775
 2260ETHY    C1 2180  13.296  26.515  10.013
 2261AUSL   AUS 2181  14.522  24.389   8.175
 2262AUSL   AUS 2182  14.175  24.276   7.918
 2263AUL    AUL 2183  14.194  24.237   8.296
 2264THSLK    S 2184  13.997  24.112   8.029
 2265ETHY    C1 2185  13.629  23.859   8.125
 2266ETHY    C1 2186  13.214  23.580   8.323
 2267ETHY    C1 2187  12.836  23.340   8.611
 2268ETHY    C1 2188  12.502  23.144   8.978
 2269ETHY    C1 2189  12.216  22.998   9.415
 2270THSLK    S 2190  14.419  24.337   8.410
 2271ETHY    C1 2191  14.277  24.090   8.766
 2272ETHY    C1 2192  14.119  23.875   9.233
 2273ETHY    C1 2193  13.976  23.759   9.733
 2274ETHY    C1 2194  13.849  23.741  10.250
 2275ETHY    C1 2195  13.737  23.819  10.775
 2276AUSL   AUS 2196  14.276  24.541   6.922
 2277AUSL   AUS 2197  14.420  24.124   6.992
 2278AUL    AUL 2198  14.194  24.237   6.707
 2279THSLK    S 2199  14.181  24.491   6.677
 2280ETHY    C1 2200  13.964  24.305   6.322
 2281ETHY    C1 2201  13.689  24.170   5.879
 2282ETHY    C1 2202  13.408  24.140   5.429
 2283ETHY    C1 2203  13.130  24.209   4.978
 2284ETHY    C1 2204  12.862  24.377   4.537
 2285THSLK    S 2205  14.248  23.950   6.872
 2286ETHY    C1 2206  13.963  23.629   6.717
 2287ETHY    C1 2207  13.662  23.270   6.453
 2288ETHY    C1 2208  13.417  22.947   6.109
 2289ETHY    C1 2209  13.233  22.664   5.696
 2290ETHY    C1 2210  13.114  22.424   5.223
 2291AUSL   AUS 2211  14.522  24.692   6.828
 2292AUSL   AUS 2212  14.175  24.805   7.085
 2293AUL    AUL 2213  14.194  24.844   6.707
 2294THSLK    S 2214  14.044  24.935   6.893
 2295ETHY    C1 2215  13.838  25.035   6.499
 2296ETHY    C1 2216  13.536  25.199   6.085
 2297ETHY    C1 2217  13.182  25.411   5.748
 2298ETHY    C1 2218  12.789  25.665   5.494
 2299ETHY    C1 2219  12.364  25.958   5.324
 2300THSLK    S 2220  14.443  24.651   6.571
 2301ETHY    C1 2221  14.366  24.539   6.136
 2302ETHY    C1 2222  14.250  24.494   5.612
 2303ETHY    C1 2223  14.114  24.550   5.101
 2304ETHY    C1 2224  13.964  24.704   4.613
 2305ETHY    C1 2225  13.804  24.949   4.156
 2306AUSL   AUS 2226  15.265  24.950   7.502
 2307AUSL   AUS 2227  15.195  24.805   7.085
 2308AUL    AUL 2228  15.479  25.031   7.198
 2309THSLK    S 2229  15.374  24.908   6.930
 2310ETHY    C1 2230  15.741  24.919   6.659
 2311ETHY    C1 2231  16.156  25.021   6.332
 2312ETHY    C1 2232  16.534  25.219   6.014
 2313ETHY    C1 2233  16.868  25.506   5.713
 2314ETHY    C1 2234  17.154  25.876   5.438
 2315THSLK    S 2235  15.533  25.006   7.506
 2316ETHY    C1 2236  15.985  25.067   7.508
 2317ETHY    C1 2237  16.499  25.226   7.507
 2318ETHY    C1 2238  16.967  25.480   7.505
 2319ETHY    C1 2239  17.380  25.817   7.506
 2320ETHY    C1 2240  17.732  26.231   7.509
 2321AUSL   AUS 2241  15.359  24.704   7.350
 2322AUSL   AUS 2242  15.359  24.377   7.653
 2323AUL    AUL 2243  15.667  24.541   7.502
 2324THSLK    S 2244  15.618  24.747   7.348
 2325ETHY    C1 2245  16.063  24.677   7.278
 2326ETHY    C1 2246  16.594  24.684   7.190
 2327ETHY    C1 2247  17.107  24.794   7.101
 2328ETHY    C1 2248  17.592  25.000   7.017
 2329ETHY    C1 2249  18.039  25.297   6.940
 2330THSLK    S 2250  15.591  24.239   7.662
 2331ETHY    C1 2251  15.937  23.950   7.728
 2332ETHY    C1 2252  16.398  23.683   7.809
 2333ETHY    C1 2253  16.895  23.514   7.892
 2334ETHY    C1 2254  17.416  23.442   7.980
 2335ETHY    C1 2255  17.951  23.468   8.071
 2336AUSL   AUS 2256  15.359  24.704   7.653
 2337AUSL   AUS 2257  15.102  25.051   7.766
 2338AUL    AUL 2258  15.479  25.031   7.805
 2339THSLK    S 2259  15.285  25.170   7.926
 2340ETHY    C1 2260  15.657  25.325   8.139
 2341ETHY    C1 2261  16.057  25.590   8.385
 2342ETHY    C1 2262  16.391  25.934   8.615
 2343ETHY    C1 2263  16.653  26.347   8.827
 2344ETHY    C1 2264  16.840  26.819   9.019
 2345THSLK    S 2265  15.617  24.747   7.664
 2346ETHY    C1 2266  16.061  24.677   7.738
 2347ETHY    C1 2267  16.592  24.684   7.825
 2348ETHY    C1 2268  17.106  24.794   7.910
 2349ETHY    C1 2269  17.590  25.000   7.994
 2350ETHY    C1 2270  18.037  25.297   8.078
 2351AUSL   AUS 2271  14.105  24.950   7.502
 2352AUSL   AUS 2272  14.175  24.805   7.918
 2353AUL    AUL 2273  13.891  25.031   7.805
 2354THSLK    S 2274  14.039  24.928   8.109
 2355ETHY    C1 2275  13.830  25.024   8.503
 2356ETHY    C1 2276  13.529  25.190   8.917
 2357ETHY    C1 2277  13.178  25.405   9.254
 2358ETHY    C1 2278  12.784  25.659   9.509
 2359ETHY    C1 2279  12.355  25.946   9.678
 2360THSLK    S 2280  13.889  25.090   7.506
 2361ETHY    C1 2281  13.633  25.468   7.508
 2362ETHY    C1 2282  13.260  25.856   7.507
 2363ETHY    C1 2283  12.824  26.162   7.505
 2364ETHY    C1 2284  12.338  26.380   7.506
 2365ETHY    C1 2285  11.811  26.510   7.509
 2366AUSL   AUS 2286  14.011  24.704   7.350
 2367AUSL   AUS 2287  14.269  25.051   7.237
 2368AUL    AUL 2288  13.891  25.031   7.198
 2369THSLK    S 2289  13.780  24.819   7.303
 2370ETHY    C1 2290  13.433  25.007   7.075
 2371ETHY    C1 2291  12.973  25.199   6.872
 2372ETHY    C1 2292  12.475  25.349   6.758
 2373ETHY    C1 2293  11.954  25.459   6.733
 2374ETHY    C1 2294  11.420  25.529   6.796
 2375THSLK    S 2295  14.153  25.216   7.058
 2376ETHY    C1 2296  14.037  25.532   6.750
 2377ETHY    C1 2297  13.823  25.910   6.432
 2378ETHY    C1 2298  13.531  26.279   6.183
 2379ETHY    C1 2299  13.173  26.632   6.008
 2380ETHY    C1 2300  12.755  26.965   5.909
 2381AUSL   AUS 2301  14.011  24.704   7.653
 2382AUSL   AUS 2302  14.011  24.377   7.350
 2383AUL    AUL 2303  13.703  24.541   7.502
 2384THSLK    S 2304  13.753  24.303   7.390
 2385ETHY    C1 2305  13.309  24.268   7.486
 2386ETHY    C1 2306  12.778  24.187   7.518
 2387ETHY    C1 2307  12.264  24.062   7.458
 2388ETHY    C1 2308  11.780  23.894   7.311
 2389ETHY    C1 2309  11.333  23.687   7.083
 2390THSLK    S 2310  13.778  24.811   7.704
 2391ETHY    C1 2311  13.431  24.995   7.935
 2392ETHY    C1 2312  12.971  25.188   8.137
 2393ETHY    C1 2313  12.474  25.343   8.249
 2394ETHY    C1 2314  11.953  25.453   8.274
 2395ETHY    C1 2315  11.417  25.516   8.213
 2396AUSL   AUS 2316  15.265  24.131   7.502
 2397AUSL   AUS 2317  15.195  24.276   7.918
 2398AUL    AUL 2318  15.479  24.050   7.805
 2399THSLK    S 2319  15.481  23.991   7.506
 2400ETHY    C1 2320  15.737  23.613   7.508
 2401ETHY    C1 2321  16.110  23.225   7.507
 2402ETHY    C1 2322  16.546  22.919   7.505
 2403ETHY    C1 2323  17.032  22.701   7.506
 2404ETHY    C1 2324  17.559  22.571   7.509
 2405THSLK    S 2325  15.327  24.086   8.066
 2406ETHY    C1 2326  15.532  23.743   8.285
 2407ETHY    C1 2327  15.834  23.401   8.570
 2408ETHY    C1 2328  16.188  23.148   8.877
 2409ETHY    C1 2329  16.582  22.985   9.198
 2410ETHY    C1 2330  17.006  22.915   9.529
 2411AUSL   AUS 2331  15.359  24.377   7.350
 2412AUSL   AUS 2332  15.102  24.030   7.237
 2413AUL    AUL 2333  15.479  24.050   7.198
 2414THSLK    S 2334  15.592  24.239   7.350
 2415ETHY    C1 2335  15.940  23.950   7.289
 2416ETHY    C1 2336  16.399  23.683   7.206
 2417ETHY    C1 2337  16.896  23.514   7.118
 2418ETHY    C1 2338  17.418  23.442   7.031
 2419ETHY    C1 2339  17.953  23.468   6.947
 2420THSLK    S 2340  15.221  23.840   7.104
 2421ETHY    C1 2341  15.338  23.423   6.963
 2422ETHY    C1 2342  15.552  22.969   6.765
 2423ETHY    C1 2343  15.842  22.583   6.543
 2424ETHY    C1 2344  16.201  22.268   6.306
 2425ETHY    C1 2345  16.621  22.029   6.058
 2426AUSL   AUS 2346  14.105  24.131   7.502
 2427AUSL   AUS 2347  14.175  24.276   7.085
 2428AUL    AUL 2348  13.891  24.050   7.198
 2429THSLK    S 2349  14.002  24.105   6.973
 2430ETHY    C1 2350  13.637  23.848   6.877
 2431ETHY    C1 2351  13.221  23.571   6.679
 2432ETHY    C1 2352  12.841  23.334   6.392
 2433ETHY    C1 2353  12.507  23.138   6.025
 2434ETHY    C1 2354  12.225  22.986   5.587
 2435THSLK    S 2355  13.837  24.075   7.506
 2436ETHY    C1 2356  13.385  24.014   7.508
 2437ETHY    C1 2357  12.871  23.855   7.507
 2438ETHY    C1 2358  12.403  23.601   7.505
 2439ETHY    C1 2359  11.990  23.264   7.506
 2440ETHY    C1 2360  11.638  22.850   7.509
 2441AUSL   AUS 2361  14.011  24.377   7.653
 2442AUSL   AUS 2362  14.269  24.030   7.766
 2443AUL    AUL 2363  13.891  24.050   7.805
 2444THSLK    S 2364  14.081  23.886   7.880
 2445ETHY    C1 2365  13.707  23.629   7.926
 2446ETHY    C1 2366  13.309  23.289   8.052
 2447ETHY    C1 2367  12.976  22.927   8.255
 2448ETHY    C1 2368  12.714  22.553   8.529
 2449ETHY    C1 2369  12.523  22.175   8.870
 2450THSLK    S 2370  13.752  24.310   7.617
 2451ETHY    C1 2371  13.307  24.280   7.524
 2452ETHY    C1 2372  12.776  24.198   7.490
 2453ETHY    C1 2373  12.263  24.069   7.549
 2454ETHY    C1 2374  11.779  23.901   7.696
 2455ETHY    C1 2375  11.331  23.699   7.928
 2456AUSL   AUS 2376  14.685  25.121   7.911
 2457AUSL   AUS 2377  14.269  25.051   7.766
 2458AUL    AUL 2378  14.382  25.335   7.992
 2459THSLK    S 2379  14.149  25.210   7.950
 2460ETHY    C1 2380  14.032  25.522   8.261
 2461ETHY    C1 2381  13.818  25.902   8.578
 2462ETHY    C1 2382  13.528  26.273   8.824
 2463ETHY    C1 2383  13.170  26.627   9.000
 2464ETHY    C1 2384  12.749  26.955   9.102
 2465THSLK    S 2385  14.725  25.347   8.035
 2466ETHY    C1 2386  14.882  25.649   8.339
 2467ETHY    C1 2387  14.997  26.055   8.672
 2468ETHY    C1 2388  15.024  26.499   8.964
 2469ETHY    C1 2389  14.964  26.968   9.211
 2470ETHY    C1 2390  14.820  27.452   9.410
 2471AUSL   AUS 2391  14.533  25.214   7.665
 2472AUSL   AUS 2392  14.837  25.214   7.338
 2473AUL    AUL 2393  14.685  25.522   7.502
 2474THSLK    S 2394  14.574  25.462   7.774
 2475ETHY    C1 2395  14.683  25.872   7.942
 2476ETHY    C1 2396  14.727  26.379   8.118
 2477ETHY    C1 2397  14.670  26.887   8.265
 2478ETHY    C1 2398  14.517  27.384   8.383
 2479ETHY    C1 2399  14.274  27.861   8.472
 2480THSLK    S 2400  14.890  25.449   7.241
 2481ETHY    C1 2401  15.135  25.805   7.094
 2482ETHY    C1 2402  15.348  26.270   6.927
 2483ETHY    C1 2403  15.463  26.768   6.779
 2484ETHY    C1 2404  15.483  27.287   6.655
 2485ETHY    C1 2405  15.408  27.816   6.558
 2486AUSL   AUS 2406  14.837  25.214   7.665
 2487AUSL   AUS 2407  14.950  24.957   8.012
 2488AUL    AUL 2408  14.988  25.335   7.992
 2489THSLK    S 2409  15.122  25.070   8.184
 2490ETHY    C1 2410  15.407  25.173   8.524
 2491ETHY    C1 2411  15.709  25.377   8.921
 2492ETHY    C1 2412  15.954  25.667   9.294
 2493ETHY    C1 2413  16.138  26.030   9.638
 2494ETHY    C1 2414  16.257  26.460   9.948
 2495THSLK    S 2415  14.888  25.448   7.771
 2496ETHY    C1 2416  15.132  25.802   7.922
 2497ETHY    C1 2417  15.345  26.268   8.087
 2498ETHY    C1 2418  15.461  26.767   8.231
 2499ETHY    C1 2419  15.480  27.285   8.356
 2500ETHY    C1 2420  15.405  27.813   8.458
 2501AUSL   AUS 2421  14.685  23.961   7.911
 2502AUSL   AUS 2422  15.102  24.030   7.766
 2503AUL    AUL 2423  14.988  23.746   7.992
 2504THSLK    S 2424  14.641  23.706   7.990
 2505ETHY    C1 2425  14.481  23.302   8.128
 2506ETHY    C1 2426  14.367  22.821   8.341
 2507ETHY    C1 2427  14.342  22.360   8.605
 2508ETHY    C1 2428  14.401  21.930   8.915
 2509ETHY    C1 2429  14.542  21.538   9.263
 2510THSLK    S 2430  15.217  23.841   7.908
 2511ETHY    C1 2431  15.333  23.425   8.052
 2512ETHY    C1 2432  15.547  22.972   8.248
 2513ETHY    C1 2433  15.839  22.584   8.467
 2514ETHY    C1 2434  16.198  22.269   8.705
 2515ETHY    C1 2435  16.615  22.032   8.958
 2516AUSL   AUS 2436  14.533  23.867   7.665
 2517AUSL   AUS 2437  14.420  24.124   8.012
 2518AUL    AUL 2438  14.382  23.746   7.992
 2519THSLK    S 2439  14.480  23.627   7.745
 2520ETHY    C1 2440  14.235  23.246   7.801
 2521ETHY    C1 2441  14.022  22.761   7.897
 2522ETHY    C1 2442  13.907  22.258   8.025
 2523ETHY    C1 2443  13.888  21.749   8.186
 2524ETHY    C1 2444  13.962  21.246   8.374
 2525THSLK    S 2445  14.242  23.956   8.133
 2526ETHY    C1 2446  13.954  23.638   8.289
 2527ETHY    C1 2447  13.654  23.278   8.552
 2528ETHY    C1 2448  13.411  22.952   8.896
 2529ETHY    C1 2449  13.227  22.669   9.309
 2530ETHY    C1 2450  13.103  22.435   9.783
 2531AUSL   AUS 2451  14.837  23.867   7.665
 2532AUSL   AUS 2452  14.533  23.867   7.338
 2533AUL    AUL 2453  14.685  23.559   7.502
 2534THSLK    S 2454  14.482  23.624   7.266
 2535ETHY    C1 2455  14.238  23.242   7.215
 2536ETHY    C1 2456  14.025  22.758   7.117
 2537ETHY    C1 2457  13.909  22.256   6.984
 2538ETHY    C1 2458  13.890  21.747   6.825
 2539ETHY    C1 2459  13.966  21.242   6.642
 2540THSLK    S 2460  14.794  23.611   7.749
 2541ETHY    C1 2461  14.684  23.175   7.821
 2542ETHY    C1 2462  14.641  22.649   7.928
 2543ETHY    C1 2463  14.698  22.137   8.059
 2544ETHY    C1 2464  14.851  21.649   8.213
 2545ETHY    C1 2465  15.093  21.196   8.388
 2546AUSL   AUS 2466  14.685  25.121   7.093
 2547AUSL   AUS 2467  15.102  25.051   7.237
 2548AUL    AUL 2468  14.988  25.335   7.011
 2549THSLK    S 2469  14.729  25.351   6.975
 2550ETHY    C1 2470  14.889  25.655   6.674
 2551ETHY    C1 2471  15.003  26.060   6.339
 2552ETHY    C1 2472  15.028  26.503   6.045
 2553ETHY    C1 2473  14.969  26.972   5.798
 2554ETHY    C1 2474  14.828  27.459   5.604
 2555THSLK    S 2475  15.289  25.172   7.085
 2556ETHY    C1 2476  15.663  25.328   6.876
 2557ETHY    C1 2477  16.061  25.592   6.629
 2558ETHY    C1 2478  16.394  25.936   6.395
 2559ETHY    C1 2479  16.656  26.348   6.184
 2560ETHY    C1 2480  16.847  26.822   5.998
 2561AUSL   AUS 2481  14.533  25.214   7.338
 2562AUSL   AUS 2482  14.420  24.957   6.992
 2563AUL    AUL 2483  14.382  25.335   7.011
 2564THSLK    S 2484  14.576  25.465   7.237
 2565ETHY    C1 2485  14.686  25.876   7.074
 2566ETHY    C1 2486  14.729  26.382   6.896
 2567ETHY    C1 2487  14.672  26.890   6.745
 2568ETHY    C1 2488  14.519  27.387   6.627
 2569ETHY    C1 2489  14.277  27.866   6.545
 2570THSLK    S 2490  14.306  25.092   6.802
 2571ETHY    C1 2491  14.240  25.264   6.385
 2572ETHY    C1 2492  14.097  25.516   5.932
 2573ETHY    C1 2493  13.888  25.815   5.544
 2574ETHY    C1 2494  13.622  26.153   5.230
 2575ETHY    C1 2495  13.306  26.526   4.993
 2576AUSL   AUS 2496  14.685  23.961   7.093
 2577AUSL   AUS 2497  14.269  24.030   7.237
 2578AUL    AUL 2498  14.382  23.746   7.011
 2579THSLK    S 2499  14.085  23.880   7.128
 2580ETHY    C1 2500  13.713  23.619   7.085
 2581ETHY    C1 2501  13.314  23.281   6.958
 2582ETHY    C1 2502  12.979  22.922   6.753
 2583ETHY    C1 2503  12.717  22.548   6.478
 2584ETHY    C1 2504  12.530  22.165   6.142
 2585THSLK    S 2505  14.645  23.702   7.019
 2586ETHY    C1 2506  14.488  23.296   6.885
 2587ETHY    C1 2507  14.373  22.816   6.671
 2588ETHY    C1 2508  14.346  22.357   6.404
 2589ETHY    C1 2509  14.406  21.926   6.094
 2590ETHY    C1 2510  14.550  21.531   5.751
 2591AUSL   AUS 2511  14.837  23.867   7.338
 2592AUSL   AUS 2512  14.950  24.124   6.992
 2593AUL    AUL 2513  14.988  23.746   7.011
 2594THSLK    S 2514  14.796  23.610   7.262
 2595ETHY    C1 2515  14.687  23.172   7.195
 2596ETHY    C1 2516  14.644  22.646   7.086
 2597ETHY    C1 2517  14.700  22.135   6.951
 2598ETHY    C1 2518  14.853  21.647   6.798
 2599ETHY    C1 2519  15.097  21.193   6.629
 2600THSLK    S 2520  15.070  23.934   6.853
 2601ETHY    C1 2521  15.139  23.548   6.621
 2602ETHY    C1 2522  15.281  23.140   6.300
 2603ETHY    C1 2523  15.488  22.804   5.942
 2604ETHY    C1 2524  15.754  22.547   5.559
 2605ETHY    C1 2525  16.074  22.369   5.158
 2606AUC    AUC 2526  17.441  14.688   7.502
 2607AUC    AUC 2527  17.687  14.688   7.350
 2608AUC    AUC 2528  17.687  14.688   7.653
 2609AUC    AUC 2529  17.196  14.688   7.350
 2610AUC    AUC 2530  17.196  14.688   7.653
 2611AUC    AUC 2531  17.289  14.933   7.502
 2612AUC    AUC 2532  17.593  14.933   7.502
 2613AUC    AUC 2533  17.289  14.442   7.502
 2614AUC    AUC 2534  17.593  14.442   7.502
 2615AUC    AUC 2535  17.441  14.536   7.747
 2616AUC    AUC 2536  17.441  14.839   7.747
 2617AUC    AUC 2537  17.441  14.536   7.256
 2618AUC    AUC 2538  17.441  14.839   7.256
 2619AUC    AUC 2539  17.932  14.688   7.198
 2620AUC    AUC 2540  17.932  14.688   7.502
 2621AUC    AUC 2541  17.932  14.688   7.805
 2622AUC    AUC 2542  16.950  14.688   7.198
 2623AUC    AUC 2543  16.950  14.688   7.502
 2624AUC    AUC 2544  16.950  14.688   7.805
 2625AUC    AUC 2545  17.138  15.178   7.502
 2626AUC    AUC 2546  17.441  15.178   7.502
 2627AUC    AUC 2547  17.744  15.178   7.502
 2628AUC    AUC 2548  17.138  14.197   7.502
 2629AUC    AUC 2549  17.441  14.197   7.502
 2630AUC    AUC 2550  17.744  14.197   7.502
 2631AUC    AUC 2551  17.441  14.384   7.992
 2632AUC    AUC 2552  17.441  14.688   7.992
 2633AUC    AUC 2553  17.441  14.991   7.992
 2634AUC    AUC 2554  17.441  14.384   7.011
 2635AUC    AUC 2555  17.441  14.688   7.011
 2636AUC    AUC 2556  17.441  14.991   7.011
 2637AUC    AUC 2557  17.687  14.536   7.899
 2638AUC    AUC 2558  17.687  14.839   7.899
 2639AUC    AUC 2559  17.687  14.536   7.105
 2640AUC    AUC 2560  17.687  14.839   7.105
 2641AUC    AUC 2561  17.196  14.536   7.899
 2642AUC    AUC 2562  17.196  14.839   7.899
 2643AUC    AUC 2563  17.196  14.536   7.105
 2644AUC    AUC 2564  17.196  14.839   7.105
 2645AUC    AUC 2565  17.838  14.933   7.350
 2646AUC    AUC 2566  17.838  14.933   7.653
 2647AUC    AUC 2567  17.044  14.933   7.350
 2648AUC    AUC 2568  17.044  14.933   7.653
 2649AUC    AUC 2569  17.838  14.442   7.350
 2650AUC    AUC 2570  17.838  14.442   7.653
 2651AUC    AUC 2571  17.044  14.442   7.350
 2652AUC    AUC 2572  17.044  14.442   7.653
 2653AUC    AUC 2573  17.289  15.085   7.747
 2654AUC    AUC 2574  17.593  15.085   7.747
 2655AUC    AUC 2575  17.289  14.290   7.747
 2656AUC    AUC 2576  17.593  14.290   7.747
 2657AUC    AUC 2577  17.289  15.085   7.256
 2658AUC    AUC 2578  17.593  15.085   7.256
 2659AUC    AUC 2579  17.289  14.290   7.256
 2660AUC    AUC 2580  17.593  14.290   7.256
 2661AUSL   AUS 2581  17.850  14.688   8.082
 2662AUSL   AUS 2582  17.706  14.271   8.012
 2663AUL    AUL 2583  17.932  14.384   8.296
 2664THSLK    S 2584  17.820  14.083   8.156
 2665ETHY    C1 2585  17.886  13.698   8.391
 2666ETHY    C1 2586  18.029  13.290   8.710
 2667ETHY    C1 2587  18.238  12.954   9.066
 2668ETHY    C1 2588  18.504  12.696   9.450
 2669ETHY    C1 2589  18.820  12.520   9.855
 2670THSLK    S 2590  17.946  14.638   8.326
 2671ETHY    C1 2591  18.162  14.452   8.681
 2672ETHY    C1 2592  18.437  14.317   9.124
 2673ETHY    C1 2593  18.718  14.287   9.575
 2674ETHY    C1 2594  18.996  14.356  10.025
 2675ETHY    C1 2595  19.265  14.524  10.466
 2676AUSL   AUS 2596  17.605  14.536   8.175
 2677AUSL   AUS 2597  17.278  14.839   8.175
 2678AUL    AUL 2598  17.441  14.688   8.483
 2679THSLK    S 2599  17.683  14.483   8.417
 2680ETHY    C1 2600  17.760  14.233   8.790
 2681ETHY    C1 2601  17.876  14.016   9.269
 2682ETHY    C1 2602  18.013  13.900   9.769
 2683ETHY    C1 2603  18.163  13.882  10.281
 2684ETHY    C1 2604  18.322  13.963  10.794
 2685THSLK    S 2605  17.191  14.796   8.431
 2686ETHY    C1 2606  17.109  14.684   8.864
 2687ETHY    C1 2607  16.995  14.638   9.388
 2688ETHY    C1 2608  16.863  14.696   9.901
 2689ETHY    C1 2609  16.712  14.849  10.389
 2690ETHY    C1 2610  16.546  15.093  10.844
 2691AUSL   AUS 2611  17.605  14.839   8.175
 2692AUSL   AUS 2612  17.951  14.952   7.918
 2693AUL    AUL 2613  17.932  14.991   8.296
 2694THSLK    S 2614  17.692  14.893   8.414
 2695ETHY    C1 2615  17.773  15.144   8.786
 2696ETHY    C1 2616  17.887  15.360   9.265
 2697ETHY    C1 2617  18.020  15.476   9.767
 2698ETHY    C1 2618  18.170  15.494  10.279
 2699ETHY    C1 2619  18.336  15.414  10.789
 2700THSLK    S 2620  18.125  15.054   8.080
 2701ETHY    C1 2621  18.489  15.064   8.354
 2702ETHY    C1 2622  18.905  15.166   8.680
 2703ETHY    C1 2623  19.285  15.365   8.995
 2704ETHY    C1 2624  19.620  15.652   9.296
 2705ETHY    C1 2625  19.901  16.020   9.577
 2706AUSL   AUS 2626  17.850  14.688   6.922
 2707AUSL   AUS 2627  17.706  15.104   6.992
 2708AUL    AUL 2628  17.932  14.991   6.707
 2709THSLK    S 2629  17.953  14.638   6.681
 2710ETHY    C1 2630  18.174  14.452   6.329
 2711ETHY    C1 2631  18.447  14.317   5.885
 2712ETHY    C1 2632  18.725  14.287   5.432
 2713ETHY    C1 2633  19.003  14.356   4.982
 2714ETHY    C1 2634  19.277  14.524   4.545
 2715THSLK    S 2635  17.884  15.219   6.825
 2716ETHY    C1 2636  18.172  15.324   6.488
 2717ETHY    C1 2637  18.472  15.528   6.090
 2718ETHY    C1 2638  18.715  15.816   5.714
 2719ETHY    C1 2639  18.899  16.180   5.371
 2720ETHY    C1 2640  19.023  16.611   5.065
 2721AUSL   AUS 2641  17.605  14.536   6.828
 2722AUSL   AUS 2642  17.951  14.423   7.085
 2723AUL    AUL 2643  17.932  14.384   6.707
 2724THSLK    S 2644  18.088  14.231   6.944
 2725ETHY    C1 2645  18.296  13.888   6.729
 2726ETHY    C1 2646  18.597  13.546   6.442
 2727ETHY    C1 2647  18.948  13.293   6.133
 2728ETHY    C1 2648  19.342  13.131   5.812
 2729ETHY    C1 2649  19.771  13.060   5.486
 2730THSLK    S 2650  17.692  14.482   6.590
 2731ETHY    C1 2651  17.773  14.231   6.217
 2732ETHY    C1 2652  17.887  14.015   5.738
 2733ETHY    C1 2653  18.020  13.899   5.236
 2734ETHY    C1 2654  18.170  13.881   4.725
 2735ETHY    C1 2655  18.336  13.961   4.214
 2736AUSL   AUS 2656  17.605  14.839   6.828
 2737AUSL   AUS 2657  17.278  14.536   6.828
 2738AUL    AUL 2658  17.441  14.688   6.520
 2739THSLK    S 2659  17.183  14.482   6.592
 2740ETHY    C1 2660  17.046  14.234   6.235
 2741ETHY    C1 2661  16.886  14.020   5.767
 2742ETHY    C1 2662  16.739  13.905   5.269
 2743ETHY    C1 2663  16.612  13.886   4.751
 2744ETHY    C1 2664  16.507  13.962   4.224
 2745THSLK    S 2665  17.708  14.797   6.578
 2746ETHY    C1 2666  17.849  14.682   6.160
 2747ETHY    C1 2667  18.007  14.635   5.647
 2748ETHY    C1 2668  18.150  14.691   5.138
 2749ETHY    C1 2669  18.278  14.845   4.643
 2750ETHY    C1 2670  18.389  15.093   4.174
 2751AUSL   AUS 2671  17.032  14.688   8.082
 2752AUSL   AUS 2672  17.176  15.104   8.012
 2753AUL    AUL 2673  16.950  14.991   8.296
 2754THSLK    S 2674  16.929  14.638   8.322
 2755ETHY    C1 2675  16.708  14.452   8.674
 2756ETHY    C1 2676  16.435  14.317   9.118
 2757ETHY    C1 2677  16.158  14.287   9.571
 2758ETHY    C1 2678  15.880  14.356  10.021
 2759ETHY    C1 2679  15.605  14.524  10.458
 2760THSLK    S 2680  17.056  15.233   8.202
 2761ETHY    C1 2681  16.987  15.402   8.620
 2762ETHY    C1 2682  16.845  15.655   9.073
 2763ETHY    C1 2683  16.639  15.956   9.460
 2764ETHY    C1 2684  16.372  16.295   9.775
 2765ETHY    C1 2685  16.052  16.662  10.013
 2766AUSL   AUS 2686  17.278  14.536   8.175
 2767AUSL   AUS 2687  16.931  14.423   7.918
 2768AUL    AUL 2688  16.950  14.384   8.296
 2769THSLK    S 2689  16.753  14.259   8.029
 2770ETHY    C1 2690  16.385  14.006   8.125
 2771ETHY    C1 2691  15.970  13.727   8.323
 2772ETHY    C1 2692  15.592  13.487   8.611
 2773ETHY    C1 2693  15.258  13.291   8.978
 2774ETHY    C1 2694  14.972  13.145   9.415
 2775THSLK    S 2695  17.175  14.484   8.410
 2776ETHY    C1 2696  17.033  14.237   8.766
 2777ETHY    C1 2697  16.875  14.022   9.233
 2778ETHY    C1 2698  16.732  13.906   9.733
 2779ETHY    C1 2699  16.605  13.888  10.250
 2780ETHY    C1 2700  16.493  13.966  10.775
 2781AUSL   AUS 2701  17.032  14.688   6.922
 2782AUSL   AUS 2702  17.176  14.271   6.992
 2783AUL    AUL 2703  16.950  14.384   6.707
 2784THSLK    S 2704  16.937  14.638   6.677
 2785ETHY    C1 2705  16.720  14.452   6.322
 2786ETHY    C1 2706  16.445  14.317   5.879
 2787ETHY    C1 2707  16.164  14.287   5.429
 2788ETHY    C1 2708  15.886  14.356   4.978
 2789ETHY    C1 2709  15.618  14.524   4.537
 2790THSLK    S 2710  17.004  14.097   6.872
 2791ETHY    C1 2711  16.719  13.776   6.717
 2792ETHY    C1 2712  16.418  13.417   6.453
 2793ETHY    C1 2713  16.173  13.094   6.109
 2794ETHY    C1 2714  15.989  12.811   5.696
 2795ETHY    C1 2715  15.870  12.571   5.223
 2796AUSL   AUS 2716  17.278  14.839   6.828
 2797AUSL   AUS 2717  16.931  14.952   7.085
 2798AUL    AUL 2718  16.950  14.991   6.707
 2799THSLK    S 2719  16.800  15.082   6.893
 2800ETHY    C1 2720  16.594  15.182   6.499
 2801ETHY    C1 2721  16.292  15.346   6.085
 2802ETHY    C1 2722  15.938  15.558   5.748
 2803ETHY    C1 2723  15.545  15.812   5.494
 2804ETHY    C1 2724  15.120  16.105   5.324
 2805THSLK    S 2725  17.199  14.798   6.571
 2806ETHY    C1 2726  17.122  14.686   6.136
 2807ETHY    C1 2727  17.006  14.641   5.612
 2808ETHY    C1 2728  16.870  14.697   5.101
 2809ETHY    C1 2729  16.720  14.851   4.613
 2810ETHY    C1 2730  16.560  15.096   4.156
 2811AUSL   AUS 2731  18.021  15.097   7.502
 2812AUSL   AUS 2732  17.951  14.952   7.085
 2813AUL    AUL 2733  18.235  15.178   7.198
 2814THSLK    S 2734  18.130  15.055   6.930
 2815ETHY    C1 2735  18.497  15.066   6.659
 2816ETHY    C1 2736  18.912  15.168   6.332
 2817ETHY    C1 2737  19.290  15.366   6.014
 2818ETHY    C1 2738  19.624  15.653   5.713
 2819ETHY    C1 2739  19.910  16.023   5.438
 2820THSLK    S 2740  18.289  15.153   7.506
 2821ETHY    C1 2741  18.741  15.214   7.508
 2822ETHY    C1 2742  19.255  15.373   7.507
 2823ETHY    C1 2743  19.723  15.627   7.505
 2824ETHY    C1 2744  20.136  15.964   7.506
 2825ETHY    C1 2745  20.488  16.378   7.509
 2826AUSL   AUS 2746  18.115  14.851   7.350
 2827AUSL   AUS 2747  18.115  14.524   7.653
 2828AUL    AUL 2748  18.423  14.688   7.502
 2829THSLK    S 2749  18.374  14.894   7.348
 2830ETHY    C1 2750  18.819  14.824   7.278
 2831ETHY    C1 2751  19.350  14.831   7.190
 2832ETHY    C1 2752  19.863  14.941   7.101
 2833ETHY    C1 2753  20.348  15.147   7.017
 2834ETHY    C1 2754  20.795  15.444   6.940
 2835THSLK    S 2755  18.347  14.386   7.662
 2836ETHY    C1 2756  18.693  14.097   7.728
 2837ETHY    C1 2757  19.154  13.830   7.809
 2838ETHY    C1 2758  19.651  13.661   7.892
 2839ETHY    C1 2759  20.172  13.589   7.980
 2840ETHY    C1 2760  20.707  13.615   8.071
 2841AUSL   AUS 2761  18.115  14.851   7.653
 2842AUSL   AUS 2762  17.858  15.198   7.766
 2843AUL    AUL 2763  18.235  15.178   7.805
 2844THSLK    S 2764  18.041  15.317   7.926
 2845ETHY    C1 2765  18.413  15.472   8.139
 2846ETHY    C1 2766  18.813  15.737   8.385
 2847ETHY    C1 2767  19.147  16.081   8.615
 2848ETHY    C1 2768  19.409  16.494   8.827
 2849ETHY    C1 2769  19.596  16.966   9.019
 2850THSLK    S 2770  18.373  14.894   7.664
 2851ETHY    C1 2771  18.817  14.824   7.738
 2852ETHY    C1 2772  19.348  14.831   7.825
 2853ETHY    C1 2773  19.862  14.941   7.910
 2854ETHY    C1 2774  20.346  15.147   7.994
 2855ETHY    C1 2775  20.793  15.444   8.078
 2856AUSL   AUS 2776  16.861  15.097   7.502
 2857AUSL   AUS 2777  16.931  14.952   7.918
 2858AUL    AUL 2778  16.647  15.178   7.805
 2859THSLK    S 2779  16.795  15.075   8.109
 2860ETHY    C1 2780  16.586  15.171   8.503
 2861ETHY    C1 2781  16.285  15.337   8.917
 2862ETHY    C1 2782  15.934  15.552   9.254
 2863ETHY    C1 2783  15.540  15.806   9.509
 2864ETHY    C1 2784  15.111  16.093   9.678
 2865THSLK    S 2785  16.645  15.237   7.506
 2866ETHY    C1 2786  16.389  15.615   7.508
 2867ETHY    C1 2787  16.016  16.003   7.507
 2868ETHY    C1 2788  15.580  16.309   7.505
 2869ETHY    C1 2789  15.094  16.527   7.506
 2870ETHY    C1 2790  14.567  16.657   7.509
 2871AUSL   AUS 2791  16.767  14.851   7.350
 2872AUSL   AUS 2792  17.025  15.198   7.237
 2873AUL    AUL 2793  16.647  15.178   7.198
 2874THSLK    S 2794  16.536  14.966   7.303
 2875ETHY    C1 2795  16.189  15.154   7.075
 2876ETHY    C1 2796  15.729  15.346   6.872
 2877ETHY    C1 2797  15.231  15.496   6.758
 2878ETHY    C1 2798  14.710  15.606   6.733
 2879ETHY    C1 2799  14.176  15.676   6.796
 2880THSLK    S 2800  16.909  15.363   7.058
 2881ETHY    C1 2801  16.793  15.679   6.750
 2882ETHY    C1 2802  16.579  16.057   6.432
 2883ETHY    C1 2803  16.287  16.426   6.183
 2884ETHY    C1 2804  15.929  16.779   6.008
 2885ETHY    C1 2805  15.511  17.112   5.909
 2886AUSL   AUS 2806  16.767  14.851   7.653
 2887AUSL   AUS 2807  16.767  14.524   7.350
 2888AUL    AUL 2808  16.459  14.688   7.502
 2889THSLK    S 2809  16.509  14.450   7.390
 2890ETHY    C1 2810  16.065  14.415   7.486
 2891ETHY    C1 2811  15.534  14.334   7.518
 2892ETHY    C1 2812  15.020  14.209   7.458
 2893ETHY    C1 2813  14.536  14.041   7.311
 2894ETHY    C1 2814  14.089  13.834   7.083
 2895THSLK    S 2815  16.534  14.958   7.704
 2896ETHY    C1 2816  16.187  15.142   7.935
 2897ETHY    C1 2817  15.727  15.335   8.137
 2898ETHY    C1 2818  15.230  15.490   8.249
 2899ETHY    C1 2819  14.709  15.600   8.274
 2900ETHY    C1 2820  14.173  15.663   8.213
 2901AUSL   AUS 2821  18.021  14.278   7.502
 2902AUSL   AUS 2822  17.951  14.423   7.918
 2903AUL    AUL 2823  18.235  14.197   7.805
 2904THSLK    S 2824  18.237  14.138   7.506
 2905ETHY    C1 2825  18.493  13.760   7.508
 2906ETHY    C1 2826  18.866  13.372   7.507
 2907ETHY    C1 2827  19.302  13.066   7.505
 2908ETHY    C1 2828  19.788  12.848   7.506
 2909ETHY    C1 2829  20.315  12.718   7.509
 2910THSLK    S 2830  18.083  14.233   8.066
 2911ETHY    C1 2831  18.288  13.890   8.285
 2912ETHY    C1 2832  18.590  13.548   8.570
 2913ETHY    C1 2833  18.944  13.295   8.877
 2914ETHY    C1 2834  19.338  13.132   9.198
 2915ETHY    C1 2835  19.762  13.062   9.529
 2916AUSL   AUS 2836  18.115  14.524   7.350
 2917AUSL   AUS 2837  17.858  14.177   7.237
 2918AUL    AUL 2838  18.235  14.197   7.198
 2919THSLK    S 2839  18.348  14.386   7.350
 2920ETHY    C1 2840  18.696  14.097   7.289
 2921ETHY    C1 2841  19.155  13.830   7.206
 2922ETHY    C1 2842  19.652  13.661   7.118
 2923ETHY    C1 2843  20.174  13.589   7.031
 2924ETHY    C1 2844  20.709  13.615   6.947
 2925THSLK    S 2845  17.977  13.987   7.104
 2926ETHY    C1 2846  18.094  13.570   6.963
 2927ETHY    C1 2847  18.308  13.116   6.765
 2928ETHY    C1 2848  18.598  12.730   6.543
 2929ETHY    C1 2849  18.957  12.415   6.306
 2930ETHY    C1 2850  19.377  12.176   6.058
 2931AUSL   AUS 2851  16.861  14.278   7.502
 2932AUSL   AUS 2852  16.931  14.423   7.085
 2933AUL    AUL 2853  16.647  14.197   7.198
 2934THSLK    S 2854  16.758  14.252   6.973
 2935ETHY    C1 2855  16.393  13.995   6.877
 2936ETHY    C1 2856  15.977  13.718   6.679
 2937ETHY    C1 2857  15.597  13.481   6.392
 2938ETHY    C1 2858  15.263  13.285   6.025
 2939ETHY    C1 2859  14.981  13.133   5.587
 2940THSLK    S 2860  16.593  14.222   7.506
 2941ETHY    C1 2861  16.141  14.161   7.508
 2942ETHY    C1 2862  15.627  14.002   7.507
 2943ETHY    C1 2863  15.159  13.748   7.505
 2944ETHY    C1 2864  14.746  13.411   7.506
 2945ETHY    C1 2865  14.394  12.997   7.509
 2946AUSL   AUS 2866  16.767  14.524   7.653
 2947AUSL   AUS 2867  17.025  14.177   7.766
 2948AUL    AUL 2868  16.647  14.197   7.805
 2949THSLK    S 2869  16.837  14.033   7.880
 2950ETHY    C1 2870  16.463  13.776   7.926
 2951ETHY    C1 2871  16.065  13.436   8.052
 2952ETHY    C1 2872  15.732  13.074   8.255
 2953ETHY    C1 2873  15.470  12.700   8.529
 2954ETHY    C1 2874  15.279  12.322   8.870
 2955THSLK    S 2875  16.508  14.457   7.617
 2956ETHY    C1 2876  16.063  14.427   7.524
 2957ETHY    C1 2877  15.532  14.345   7.490
 2958ETHY    C1 2878  15.019  14.216   7.549
 2959ETHY    C1 2879  14.535  14.048   7.696
 2960ETHY    C1 2880  14.087  13.846   7.928
 2961AUSL   AUS 2881  17.441  15.268   7.911
 2962AUSL   AUS 2882  17.025  15.198   7.766
 2963AUL    AUL 2883  17.138  15.482   7.992
 2964THSLK    S 2884  16.905  15.357   7.950
 2965ETHY    C1 2885  16.788  15.669   8.261
 2966ETHY    C1 2886  16.574  16.049   8.578
 2967ETHY    C1 2887  16.284  16.420   8.824
 2968ETHY    C1 2888  15.926  16.774   9.000
 2969ETHY    C1 2889  15.505  17.102   9.102
 2970THSLK    S 2890  17.481  15.494   8.035
 2971ETHY    C1 2891  17.638  15.796   8.339
 2972ETHY    C1 2892  17.753  16.202   8.672
 2973ETHY    C1 2893  17.780  16.646   8.964
 2974ETHY    C1 2894  17.720  17.115   9.211
 2975ETHY    C1 2895  17.576  17.599   9.410
 2976AUSL   AUS 2896  17.289  15.361   7.665
 2977AUSL   AUS 2897  17.593  15.361   7.338
 2978AUL    AUL 2898  17.441  15.669   7.502
 2979THSLK    S 2899  17.330  15.609   7.774
 2980ETHY    C1 2900  17.439  16.019   7.942
 2981ETHY    C1 2901  17.483  16.526   8.118
 2982ETHY    C1 2902  17.426  17.034   8.265
 2983ETHY    C1 2903  17.273  17.531   8.383
 2984ETHY    C1 2904  17.030  18.008   8.472
 2985THSLK    S 2905  17.646  15.596   7.241
 2986ETHY    C1 2906  17.891  15.952   7.094
 2987ETHY    C1 2907  18.104  16.417   6.927
 2988ETHY    C1 2908  18.219  16.915   6.779
 2989ETHY    C1 2909  18.239  17.434   6.655
 2990ETHY    C1 2910  18.164  17.963   6.558
 2991AUSL   AUS 2911  17.593  15.361   7.665
 2992AUSL   AUS 2912  17.706  15.104   8.012
 2993AUL    AUL 2913  17.744  15.482   7.992
 2994THSLK    S 2914  17.878  15.217   8.184
 2995ETHY    C1 2915  18.163  15.320   8.524
 2996ETHY    C1 2916  18.465  15.524   8.921
 2997ETHY    C1 2917  18.710  15.814   9.294
 2998ETHY    C1 2918  18.894  16.177   9.638
 2999ETHY    C1 2919  19.013  16.607   9.948
 3000THSLK    S 2920  17.644  15.595   7.771
 3001ETHY    C1 2921  17.888  15.949   7.922
 3002ETHY    C1 2922  18.101  16.415   8.087
 3003ETHY    C1 2923  18.217  16.914   8.231
 3004ETHY    C1 2924  18.236  17.432   8.356
 3005ETHY    C1 2925  18.161  17.960   8.458
 3006AUSL   AUS 2926  17.441  14.108   7.911
 3007AUSL   AUS 2927  17.858  14.177   7.766
 3008AUL    AUL 2928  17.744  13.893   7.992
 3009THSLK    S 2929  17.397  13.853   7.990
 3010ETHY    C1 2930  17.237  13.449   8.128
 3011ETHY    C1 2931  17.123  12.968   8.341
 3012ETHY    C1 2932  17.098  12.507   8.605
 3013ETHY    C1 2933  17.157  12.077   8.915
 3014ETHY    C1 2934  17.298  11.685   9.263
 3015THSLK    S 2935  17.973  13.988   7.908
 3016ETHY    C1 2936  18.089  13.572   8.052
 3017ETHY    C1 2937  18.303  13.119   8.248
 3018ETHY    C1 2938  18.595  12.731   8.467
 3019ETHY    C1 2939  18.954  12.416   8.705
 3020ETHY    C1 2940  19.371  12.179   8.958
 3021AUSL   AUS 2941  17.289  14.014   7.665
 3022AUSL   AUS 2942  17.176  14.271   8.012
 3023AUL    AUL 2943  17.138  13.893   7.992
 3024THSLK    S 2944  17.236  13.774   7.745
 3025ETHY    C1 2945  16.991  13.393   7.801
 3026ETHY    C1 2946  16.778  12.908   7.897
 3027ETHY    C1 2947  16.663  12.405   8.025
 3028ETHY    C1 2948  16.644  11.896   8.186
 3029ETHY    C1 2949  16.718  11.393   8.374
 3030THSLK    S 2950  16.998  14.103   8.133
 3031ETHY    C1 2951  16.710  13.785   8.289
 3032ETHY    C1 2952  16.410  13.425   8.552
 3033ETHY    C1 2953  16.167  13.099   8.896
 3034ETHY    C1 2954  15.983  12.816   9.309
 3035ETHY    C1 2955  15.859  12.582   9.783
 3036AUSL   AUS 2956  17.593  14.014   7.665
 3037AUSL   AUS 2957  17.289  14.014   7.338
 3038AUL    AUL 2958  17.441  13.706   7.502
 3039THSLK    S 2959  17.238  13.771   7.266
 3040ETHY    C1 2960  16.994  13.389   7.215
 3041ETHY    C1 2961  16.781  12.905   7.117
 3042ETHY    C1 2962  16.665  12.403   6.984
 3043ETHY    C1 2963  16.646  11.894   6.825
 3044ETHY    C1 2964  16.722  11.389   6.642
 3045THSLK    S 2965  17.550  13.758   7.749
 3046ETHY    C1 2966  17.440  13.322   7.821
 3047ETHY    C1 2967  17.397  12.796   7.928
 3048ETHY    C1 2968  17.454  12.284   8.059
 3049ETHY    C1 2969  17.607  11.796   8.213
 3050ETHY    C1 2970  17.849  11.343   8.388
 3051AUSL   AUS 2971  17.441  15.268   7.093
 3052AUSL   AUS 2972  17.858  15.198   7.237
 3053AUL    AUL 2973  17.744  15.482   7.011
 3054THSLK    S 2974  17.485  15.498   6.975
 3055ETHY    C1 2975  17.645  15.802   6.674
 3056ETHY    C1 2976  17.759  16.207   6.339
 3057ETHY    C1 2977  17.784  16.650   6.045
 3058ETHY    C1 2978  17.725  17.119   5.798
 3059ETHY    C1 2979  17.584  17.606   5.604
 3060THSLK    S 2980  18.045  15.319   7.085
 3061ETHY    C1 2981  18.419  15.475   6.876
 3062ETHY    C1 2982  18.817  15.739   6.629
 3063ETHY    C1 2983  19.150  16.083   6.395
 3064ETHY    C1 2984  19.412  16.495   6.184
 3065ETHY    C1 2985  19.603  16.969   5.998
 3066AUSL   AUS 2986  17.289  15.361   7.338
 3067AUSL   AUS 2987  17.176  15.104   6.992
 3068AUL    AUL 2988  17.138  15.482   7.011
 3069THSLK    S 2989  17.332  15.612   7.237
 3070ETHY    C1 2990  17.442  16.023   7.074
 3071ETHY    C1 2991  17.485  16.529   6.896
 3072ETHY    C1 2992  17.428  17.037   6.745
 3073ETHY    C1 2993  17.275  17.534   6.627
 3074ETHY    C1 2994  17.033  18.013   6.545
 3075THSLK    S 2995  17.062  15.239   6.802
 3076ETHY    C1 2996  16.996  15.411   6.385
 3077ETHY    C1 2997  16.853  15.663   5.932
 3078ETHY    C1 2998  16.644  15.962   5.544
 3079ETHY    C1 2999  16.378  16.300   5.230
 3080ETHY    C1 3000  16.062  16.673   4.993
 3081AUSL   AUS 3001  17.441  14.108   7.093
 3082AUSL   AUS 3002  17.025  14.177   7.237
 3083AUL    AUL 3003  17.138  13.893   7.011
 3084THSLK    S 3004  16.841  14.027   7.128
 3085ETHY    C1 3005  16.469  13.766   7.085
 3086ETHY    C1 3006  16.070  13.428   6.958
 3087ETHY    C1 3007  15.735  13.069   6.753
 3088ETHY    C1 3008  15.473  12.695   6.478
 3089ETHY    C1 3009  15.286  12.312   6.142
 3090THSLK    S 3010  17.401  13.849   7.019
 3091ETHY    C1 3011  17.244  13.443   6.885
 3092ETHY    C1 3012  17.129  12.963   6.671
 3093ETHY    C1 3013  17.102  12.504   6.404
 3094ETHY    C1 3014  17.162  12.073   6.094
 3095ETHY    C1 3015  17.306  11.678   5.751
 3096AUSL   AUS 3016  17.593  14.014   7.338
 3097AUSL   AUS 3017  17.706  14.271   6.992
 3098AUL    AUL 3018  17.744  13.893   7.011
 3099THSLK    S 3019  17.552  13.757   7.262
 3100ETHY    C1 3020  17.443  13.319   7.195
 3101ETHY    C1 3021  17.400  12.793   7.086
 3102ETHY    C1 3022  17.456  12.282   6.951
 3103ETHY    C1 3023  17.609  11.794   6.798
 3104ETHY    C1 3024  17.853  11.340   6.629
 3105THSLK    S 3025  17.826  14.081   6.853
 3106ETHY    C1 3026  17.895  13.695   6.621
 3107ETHY    C1 3027  18.037  13.287   6.300
 3108ETHY    C1 3028  18.244  12.951   5.942
 3109ETHY    C1 3029  18.510  12.694   5.559
 3110ETHY    C1 3030  18.830  12.516   5.158
 3111AUC    AUC 3031  21.504  39.449   7.502
 3112AUC    AUC 3032  21.750  39.449   7.350
 3113AUC    AUC 3033  21.750  39.449   7.653
 3114AUC    AUC 3034  21.259  39.449   7.350
 3115AUC    AUC 3035  21.259  39.449   7.653
 3116AUC    AUC 3036  21.352  39.694   7.502
 3117AUC    AUC 3037  21.656  39.694   7.502
 3118AUC    AUC 3038  21.352  39.203   7.502
 3119AUC    AUC 3039  21.656  39.203   7.502
 3120AUC    AUC 3040  21.504  39.297   7.747
 3121AUC    AUC 3041  21.504  39.600   7.747
 3122AUC    AUC 3042  21.504  39.297   7.256
 3123AUC    AUC 3043  21.504  39.600   7.256
 3124AUC    AUC 3044  21.995  39.449   7.198
 3125AUC    AUC 3045  21.995  39.449   7.502
 3126AUC    AUC 3046  21.995  39.449   7.805
 3127AUC    AUC 3047  21.013  39.449   7.198
 3128AUC    AUC 3048  21.013  39.449   7.502
 3129AUC    AUC 3049  21.013  39.449   7.805
 3130AUC    AUC 3050  21.201  39.939   7.502
 3131AUC    AUC 3051  21.504  39.939   7.502
 3132AUC    AUC 3052  21.807  39.939   7.502
 3133AUC    AUC 3053  21.201  38.958   7.502
 3134AUC    AUC 3054  21.504  38.958   7.502
 3135AUC    AUC 3055  21.807  38.958   7.502
 3136AUC    AUC 3056  21.504  39.145   7.992
 3137AUC    AUC 3057  21.504  39.449   7.992
 3138AUC    AUC 3058  21.504  39.752   7.992
 3139AUC    AUC 3059  21.504  39.145   7.011
 3140AUC    AUC 3060  21.504  39.449   7.011
 3141AUC    AUC 3061  21.504  39.752   7.011
 3142AUC    AUC 3062  21.750  39.297   7.899
 3143AUC    AUC 3063  21.750  39.600   7.899
 3144AUC    AUC 3064  21.750  39.297   7.105
 3145AUC    AUC 3065  21.750  39.600   7.105
 3146AUC    AUC 3066  21.259  39.297   7.899
 3147AUC    AUC 3067  21.259  39.600   7.899
 3148AUC    AUC 3068  21.259  39.297   7.105
 3149AUC    AUC 3069  21.259  39.600   7.105
 3150AUC    AUC 3070  21.901  39.694   7.350
 3151AUC    AUC 3071  21.901  39.694   7.653
 3152AUC    AUC 3072  21.107  39.694   7.350
 3153AUC    AUC 3073  21.107  39.694   7.653
 3154AUC    AUC 3074  21.901  39.203   7.350
 3155AUC    AUC 3075  21.901  39.203   7.653
 3156AUC    AUC 3076  21.107  39.203   7.350
 3157AUC    AUC 3077  21.107  39.203   7.653
 3158AUC    AUC 3078  21.352  39.846   7.747
 3159AUC    AUC 3079  21.656  39.846   7.747
 3160AUC    AUC 3080  21.352  39.051   7.747
 3161AUC    AUC 3081  21.656  39.051   7.747
 3162AUC    AUC 3082  21.352  39.846   7.256
 3163AUC    AUC 3083  21.656  39.846   7.256
 3164AUC    AUC 3084  21.352  39.051   7.256
 3165AUC    AUC 3085  21.656  39.051   7.256
 3166AUSL   AUS 3086  21.913  39.449   8.082
 3167AUSL   AUS 3087  21.769  39.032   8.012
 3168AUL    AUL 3088  21.995  39.145   8.296
 3169THSLK    S 3089  21.883  38.844   8.156
 3170ETHY    C1 3090  21.949  38.459   8.391
 3171ETHY    C1 3091  22.092  38.051   8.710
 3172ETHY    C1 3092  22.301  37.715   9.066
 3173ETHY    C1 3093  22.567  37.457   9.450
 3174ETHY    C1 3094  22.883  37.281   9.855
 3175THSLK    S 3095  22.009  39.399   8.326
 3176ETHY    C1 3096  22.225  39.213   8.681
 3177ETHY    C1 3097  22.500  39.078   9.124
 3178ETHY    C1 3098  22.781  39.048   9.575
 3179ETHY    C1 3099  23.059  39.117  10.025
 3180ETHY    C1 3100  23.328  39.285  10.466
 3181AUSL   AUS 3101  21.668  39.297   8.175
 3182AUSL   AUS 3102  21.341  39.600   8.175
 3183AUL    AUL 3103  21.504  39.449   8.483
 3184THSLK    S 3104  21.746  39.244   8.417
 3185ETHY    C1 3105  21.823  38.994   8.790
 3186ETHY    C1 3106  21.939  38.777   9.269
 3187ETHY    C1 3107  22.076  38.661   9.769
 3188ETHY    C1 3108  22.226  38.643  10.281
 3189ETHY    C1 3109  22.385  38.724  10.794
 3190THSLK    S 3110  21.254  39.557   8.431
 3191ETHY    C1 3111  21.172  39.445   8.864
 3192ETHY    C1 3112  21.058  39.399   9.388
 3193ETHY    C1 3113  20.926  39.457   9.901
 3194ETHY    C1 3114  20.775  39.610  10.389
 3195ETHY    C1 3115  20.609  39.854  10.844
 3196AUSL   AUS 3116  21.668  39.600   8.175
 3197AUSL   AUS 3117  22.014  39.713   7.918
 3198AUL    AUL 3118  21.995  39.752   8.296
 3199THSLK    S 3119  21.755  39.654   8.414
 3200ETHY    C1 3120  21.836  39.905   8.786
 3201ETHY    C1 3121  21.950  40.121   9.265
 3202ETHY    C1 3122  22.083  40.237   9.767
 3203ETHY    C1 3123  22.233  40.255  10.279
 3204ETHY    C1 3124  22.399  40.175  10.789
 3205THSLK    S 3125  22.188  39.815   8.080
 3206ETHY    C1 3126  22.552  39.825   8.354
 3207ETHY    C1 3127  22.968  39.927   8.680
 3208ETHY    C1 3128  23.348  40.126   8.995
 3209ETHY    C1 3129  23.683  40.413   9.296
 3210ETHY    C1 3130  23.964  40.781   9.577
 3211AUSL   AUS 3131  21.913  39.449   6.922
 3212AUSL   AUS 3132  21.769  39.865   6.992
 3213AUL    AUL 3133  21.995  39.752   6.707
 3214THSLK    S 3134  22.016  39.399   6.681
 3215ETHY    C1 3135  22.237  39.213   6.329
 3216ETHY    C1 3136  22.510  39.078   5.885
 3217ETHY    C1 3137  22.788  39.048   5.432
 3218ETHY    C1 3138  23.066  39.117   4.982
 3219ETHY    C1 3139  23.340  39.285   4.545
 3220THSLK    S 3140  21.947  39.980   6.825
 3221ETHY    C1 3141  22.235  40.085   6.488
 3222ETHY    C1 3142  22.535  40.289   6.090
 3223ETHY    C1 3143  22.778  40.577   5.714
 3224ETHY    C1 3144  22.962  40.941   5.371
 3225ETHY    C1 3145  23.086  41.372   5.065
 3226AUSL   AUS 3146  21.668  39.297   6.828
 3227AUSL   AUS 3147  22.014  39.184   7.085
 3228AUL    AUL 3148  21.995  39.145   6.707
 3229THSLK    S 3149  22.151  38.992   6.944
 3230ETHY    C1 3150  22.359  38.649   6.729
 3231ETHY    C1 3151  22.660  38.307   6.442
 3232ETHY    C1 3152  23.011  38.054   6.133
 3233ETHY    C1 3153  23.405  37.892   5.812
 3234ETHY    C1 3154  23.834  37.821   5.486
 3235THSLK    S 3155  21.755  39.243   6.590
 3236ETHY    C1 3156  21.836  38.992   6.217
 3237ETHY    C1 3157  21.950  38.776   5.738
 3238ETHY    C1 3158  22.083  38.660   5.236
 3239ETHY    C1 3159  22.233  38.642   4.725
 3240ETHY    C1 3160  22.399  38.722   4.214
 3241AUSL   AUS 3161  21.668  39.600   6.828
 3242AUSL   AUS 3162  21.341  39.297   6.828
 3243AUL    AUL 3163  21.504  39.449   6.520
 3244THSLK    S 3164  21.246  39.243   6.592
 3245ETHY    C1 3165  21.109  38.995   6.235
 3246ETHY    C1 3166  20.949  38.781   5.767
 3247ETHY    C1 3167  20.802  38.666   5.269
 3248ETHY    C1 3168  20.675  38.647   4.751
 3249ETHY    C1 3169  20.570  38.723   4.224
 3250THSLK    S 3170  21.771  39.558   6.578
 3251ETHY    C1 3171  21.912  39.443   6.160
 3252ETHY    C1 3172  22.070  39.396   5.647
 3253ETHY    C1 3173  22.213  39.452   5.138
 3254ETHY    C1 3174  22.341  39.606   4.643
 3255ETHY    C1 3175  22.452  39.854   4.174
 3256AUSL   AUS 3176  21.095  39.449   8.082
 3257AUSL   AUS 3177  21.239  39.865   8.012
 3258AUL    AUL 3178  21.013  39.752   8.296
 3259THSLK    S 3179  20.992  39.399   8.322
 3260ETHY    C1 3180  20.771  39.213   8.674
 3261ETHY    C1 3181  20.498  39.078   9.118
 3262ETHY    C1 3182  20.221  39.048   9.571
 3263ETHY    C1 3183  19.943  39.117  10.021
 3264ETHY    C1 3184  19.668  39.285  10.458
 3265THSLK    S 3185  21.119  39.994   8.202
 3266ETHY    C1 3186  21.050  40.163   8.620
 3267ETHY    C1 3187  20.908  40.416   9.073
 3268ETHY    C1 3188  20.702  40.717   9.460
 3269ETHY    C1 3189  20.435  41.056   9.775
 3270ETHY    C1 3190  20.115  41.423  10.013
 3271AUSL   AUS 3191  21.341  39.297   8.175
 3272AUSL   AUS 3192  20.994  39.184   7.918
 3273AUL    AUL 3193  21.013  39.145   8.296
 3274THSLK    S 3194  20.816  39.020   8.029
 3275ETHY    C1 3195  20.448  38.767   8.125
 3276ETHY    C1 3196  20.033  38.488   8.323
 3277ETHY    C1 3197  19.655  38.248   8.611
 3278ETHY    C1 3198  19.321  38.052   8.978
 3279ETHY    C1 3199  19.035  37.906   9.415
 3280THSLK    S 3200  21.238  39.245   8.410
 3281ETHY    C1 3201  21.096  38.998   8.766
 3282ETHY    C1 3202  20.938  38.783   9.233
 3283ETHY    C1 3203  20.795  38.667   9.733
 3284ETHY    C1 3204  20.668  38.649  10.250
 3285ETHY    C1 3205  20.556  38.727  10.775
 3286AUSL   AUS 3206  21.095  39.449   6.922
 3287AUSL   AUS 3207  21.239  39.032   6.992
 3288AUL    AUL 3208  21.013  39.145   6.707
 3289THSLK    S 3209  21.000  39.399   6.677
 3290ETHY    C1 3210  20.783  39.213   6.322
 3291ETHY    C1 3211  20.508  39.078   5.879
 3292ETHY    C1 3212  20.227  39.048   5.429
 3293ETHY    C1 3213  19.949  39.117   4.978
 3294ETHY    C1 3214  19.681  39.285   4.537
 3295THSLK    S 3215  21.067  38.858   6.872
 3296ETHY    C1 3216  20.782  38.537   6.717
 3297ETHY    C1 3217  20.481  38.178   6.453
 3298ETHY    C1 3218  20.236  37.855   6.109
 3299ETHY    C1 3219  20.052  37.572   5.696
 3300ETHY    C1 3220  19.933  37.332   5.223
 3301AUSL   AUS 3221  21.341  39.600   6.828
 3302AUSL   AUS 3222  20.994  39.713   7.085
 3303AUL    AUL 3223  21.013  39.752   6.707
 3304THSLK    S 3224  20.863  39.843   6.893
 3305ETHY    C1 3225  20.657  39.943   6.499
 3306ETHY    C1 3226  20.355  40.107   6.085
 3307ETHY    C1 3227  20.001  40.319   5.748
 3308ETHY    C1 3228  19.608  40.573   5.494
 3309ETHY    C1 3229  19.183  40.866   5.324
 3310THSLK    S 3230  21.262  39.559   6.571
 3311ETHY    C1 3231  21.185  39.447   6.136
 3312ETHY    C1 3232  21.069  39.402   5.612
 3313ETHY    C1 3233  20.933  39.458   5.101
 3314ETHY    C1 3234  20.783  39.612   4.613
 3315ETHY    C1 3235  20.623  39.857   4.156
 3316AUSL   AUS 3236  22.084  39.858   7.502
 3317AUSL   AUS 3237  22.014  39.713   7.085
 3318AUL    AUL 3238  22.298  39.939   7.198
 3319THSLK    S 3239  22.193  39.816   6.930
 3320ETHY    C1 3240  22.560  39.827   6.659
 3321ETHY    C1 3241  22.975  39.929   6.332
 3322ETHY    C1 3242  23.353  40.127   6.014
 3323ETHY    C1 3243  23.687  40.414   5.713
 3324ETHY    C1 3244  23.973  40.784   5.438
 3325THSLK    S 3245  22.352  39.914   7.506
 3326ETHY    C1 3246  22.804  39.975   7.508
 3327ETHY    C1 3247  23.318  40.134   7.507
 3328ETHY    C1 3248  23.786  40.388   7.505
 3329ETHY    C1 3249  24.199  40.725   7.506
 3330ETHY    C1 3250  24.551  41.139   7.509
 3331AUSL   AUS 3251  22.178  39.612   7.350
 3332AUSL   AUS 3252  22.178  39.285   7.653
 3333AUL    AUL 3253  22.486  39.449   7.502
 3334THSLK    S 3254  22.437  39.655   7.348
 3335ETHY    C1 3255  22.882  39.585   7.278
 3336ETHY    C1 3256  23.413  39.592   7.190
 3337ETHY    C1 3257  23.926  39.702   7.101
 3338ETHY    C1 3258  24.411  39.908   7.017
 3339ETHY    C1 3259  24.858  40.205   6.940
 3340THSLK    S 3260  22.410  39.147   7.662
 3341ETHY    C1 3261  22.756  38.858   7.728
 3342ETHY    C1 3262  23.217  38.591   7.809
 3343ETHY    C1 3263  23.714  38.422   7.892
 3344ETHY    C1 3264  24.235  38.350   7.980
 3345ETHY    C1 3265  24.770  38.376   8.071
 3346AUSL   AUS 3266  22.178  39.612   7.653
 3347AUSL   AUS 3267  21.921  39.959   7.766
 3348AUL    AUL 3268  22.298  39.939   7.805
 3349THSLK    S 3269  22.104  40.078   7.926
 3350ETHY    C1 3270  22.476  40.233   8.139
 3351ETHY    C1 3271  22.876  40.498   8.385
 3352ETHY    C1 3272  23.210  40.842   8.615
 3353ETHY    C1 3273  23.472  41.255   8.827
 3354ETHY    C1 3274  23.659  41.727   9.019
 3355THSLK    S 3275  22.436  39.655   7.664
 3356ETHY    C1 3276  22.880  39.585   7.738
 3357ETHY    C1 3277  23.411  39.592   7.825
 3358ETHY    C1 3278  23.925  39.702   7.910
 3359ETHY    C1 3279  24.409  39.908   7.994
 3360ETHY    C1 3280  24.856  40.205   8.078
 3361AUSL   AUS 3281  20.924  39.858   7.502
 3362AUSL   AUS 3282  20.994  39.713   7.918
 3363AUL    AUL 3283  20.710  39.939   7.805
 3364THSLK    S 3284  20.858  39.836   8.109
 3365ETHY    C1 3285  20.649  39.932   8.503
 3366ETHY    C1 3286  20.348  40.098   8.917
 3367ETHY    C1 3287  19.997  40.313   9.254
 3368ETHY    C1 3288  19.603  40.567   9.509
 3369ETHY    C1 3289  19.174  40.854   9.678
 3370THSLK    S 3290  20.708  39.998   7.506
 3371ETHY    C1 3291  20.452  40.376   7.508
 3372ETHY    C1 3292  20.079  40.764   7.507
 3373ETHY    C1 3293  19.643  41.070   7.505
 3374ETHY    C1 3294  19.157  41.288   7.506
 3375ETHY    C1 3295  18.630  41.418   7.509
 3376AUSL   AUS 3296  20.830  39.612   7.350
 3377AUSL   AUS 3297  21.088  39.959   7.237
 3378AUL    AUL 3298  20.710  39.939   7.198
 3379THSLK    S 3299  20.599  39.727   7.303
 3380ETHY    C1 3300  20.252  39.915   7.075
 3381ETHY    C1 3301  19.792  40.107   6.872
 3382ETHY    C1 3302  19.294  40.257   6.758
 3383ETHY    C1 3303  18.773  40.367   6.733
 3384ETHY    C1 3304  18.239  40.437   6.796
 3385THSLK    S 3305  20.972  40.124   7.058
 3386ETHY    C1 3306  20.856  40.440   6.750
 3387ETHY    C1 3307  20.642  40.818   6.432
 3388ETHY    C1 3308  20.350  41.187   6.183
 3389ETHY    C1 3309  19.992  41.540   6.008
 3390ETHY    C1 3310  19.574  41.873   5.909
 3391AUSL   AUS 3311  20.830  39.612   7.653
 3392AUSL   AUS 3312  20.830  39.285   7.350
 3393AUL    AUL 3313  20.522  39.449   7.502
 3394THSLK    S 3314  20.572  39.211   7.390
 3395ETHY    C1 3315  20.128  39.176   7.486
 3396ETHY    C1 3316  19.597  39.095   7.518
 3397ETHY    C1 3317  19.083  38.970   7.458
 3398ETHY    C1 3318  18.599  38.802   7.311
 3399ETHY    C1 3319  18.152  38.595   7.083
 3400THSLK    S 3320  20.597  39.719   7.704
 3401ETHY    C1 3321  20.250  39.903   7.935
 3402ETHY    C1 3322  19.790  40.096   8.137
 3403ETHY    C1 3323  19.293  40.251   8.249
 3404ETHY    C1 3324  18.772  40.361   8.274
 3405ETHY    C1 3325  18.236  40.424   8.213
 3406AUSL   AUS 3326  22.084  39.039   7.502
 3407AUSL   AUS 3327  22.014  39.184   7.918
 3408AUL    AUL 3328  22.298  38.958   7.805
 3409THSLK    S 3329  22.300  38.899   7.506
 3410ETHY    C1 3330  22.556  38.521   7.508
 3411ETHY    C1 3331  22.929  38.133   7.507
 3412ETHY    C1 3332  23.365  37.827   7.505
 3413ETHY    C1 3333  23.851  37.609   7.506
 3414ETHY    C1 3334  24.378  37.479   7.509
 3415THSLK    S 3335  22.146  38.994   8.066
 3416ETHY    C1 3336  22.351  38.651   8.285
 3417ETHY    C1 3337  22.653  38.309   8.570
 3418ETHY    C1 3338  23.007  38.056   8.877
 3419ETHY    C1 3339  23.401  37.893   9.198
 3420ETHY    C1 3340  23.825  37.823   9.529
 3421AUSL   AUS 3341  22.178  39.285   7.350
 3422AUSL   AUS 3342  21.921  38.938   7.237
 3423AUL    AUL 3343  22.298  38.958   7.198
 3424THSLK    S 3344  22.411  39.147   7.350
 3425ETHY    C1 3345  22.759  38.858   7.289
 3426ETHY    C1 3346  23.218  38.591   7.206
 3427ETHY    C1 3347  23.715  38.422   7.118
 3428ETHY    C1 3348  24.237  38.350   7.031
 3429ETHY    C1 3349  24.772  38.376   6.947
 3430THSLK    S 3350  22.040  38.748   7.104
 3431ETHY    C1 3351  22.157  38.331   6.963
 3432ETHY    C1 3352  22.371  37.877   6.765
 3433ETHY    C1 3353  22.661  37.491   6.543
 3434ETHY    C1 3354  23.020  37.176   6.306
 3435ETHY    C1 3355  23.440  36.937   6.058
 3436AUSL   AUS 3356  20.924  39.039   7.502
 3437AUSL   AUS 3357  20.994  39.184   7.085
 3438AUL    AUL 3358  20.710  38.958   7.198
 3439THSLK    S 3359  20.821  39.013   6.973
 3440ETHY    C1 3360  20.456  38.756   6.877
 3441ETHY    C1 3361  20.040  38.479   6.679
 3442ETHY    C1 3362  19.660  38.242   6.392
 3443ETHY    C1 3363  19.326  38.046   6.025
 3444ETHY    C1 3364  19.044  37.894   5.587
 3445THSLK    S 3365  20.656  38.983   7.506
 3446ETHY    C1 3366  20.204  38.922   7.508
 3447ETHY    C1 3367  19.690  38.763   7.507
 3448ETHY    C1 3368  19.222  38.509   7.505
 3449ETHY    C1 3369  18.809  38.172   7.506
 3450ETHY    C1 3370  18.457  37.758   7.509
 3451AUSL   AUS 3371  20.830  39.285   7.653
 3452AUSL   AUS 3372  21.088  38.938   7.766
 3453AUL    AUL 3373  20.710  38.958   7.805
 3454THSLK    S 3374  20.900  38.794   7.880
 3455ETHY    C1 3375  20.526  38.537   7.926
 3456ETHY    C1 3376  20.128  38.197   8.052
 3457ETHY    C1 3377  19.795  37.835   8.255
 3458ETHY    C1 3378  19.533  37.461   8.529
 3459ETHY    C1 3379  19.342  37.083   8.870
 3460THSLK    S 3380  20.571  39.218   7.617
 3461ETHY    C1 3381  20.126  39.188   7.524
 3462ETHY    C1 3382  19.595  39.106   7.490
 3463ETHY    C1 3383  19.082  38.977   7.549
 3464ETHY    C1 3384  18.598  38.809   7.696
 3465ETHY    C1 3385  18.150  38.607   7.928
 3466AUSL   AUS 3386  21.504  40.029   7.911
 3467AUSL   AUS 3387  21.088  39.959   7.766
 3468AUL    AUL 3388  21.201  40.243   7.992
 3469THSLK    S 3389  20.968  40.118   7.950
 3470ETHY    C1 3390  20.851  40.430   8.261
 3471ETHY    C1 3391  20.637  40.810   8.578
 3472ETHY    C1 3392  20.347  41.181   8.824
 3473ETHY    C1 3393  19.989  41.535   9.000
 3474ETHY    C1 3394  19.568  41.863   9.102
 3475THSLK    S 3395  21.544  40.255   8.035
 3476ETHY    C1 3396  21.701  40.557   8.339
 3477ETHY    C1 3397  21.816  40.963   8.672
 3478ETHY    C1 3398  21.843  41.407   8.964
 3479ETHY    C1 3399  21.783  41.876   9.211
 3480ETHY    C1 3400  21.639  42.360   9.410
 3481AUSL   AUS 3401  21.352  40.122   7.665
 3482AUSL   AUS 3402  21.656  40.122   7.338
 3483AUL    AUL 3403  21.504  40.430   7.502
 3484THSLK    S 3404  21.393  40.370   7.774
 3485ETHY    C1 3405  21.502  40.780   7.942
 3486ETHY    C1 3406  21.546  41.287   8.118
 3487ETHY    C1 3407  21.489  41.795   8.265
 3488ETHY    C1 3408  21.336  42.292   8.383
 3489ETHY    C1 3409  21.093  42.769   8.472
 3490THSLK    S 3410  21.709  40.357   7.241
 3491ETHY    C1 3411  21.954  40.713   7.094
 3492ETHY    C1 3412  22.167  41.178   6.927
 3493ETHY    C1 3413  22.282  41.676   6.779
 3494ETHY    C1 3414  22.302  42.195   6.655
 3495ETHY    C1 3415  22.227  42.724   6.558
 3496AUSL   AUS 3416  21.656  40.122   7.665
 3497AUSL   AUS 3417  21.769  39.865   8.012
 3498AUL    AUL 3418  21.807  40.243   7.992
 3499THSLK    S 3419  21.941  39.978   8.184
 3500ETHY    C1 3420  22.226  40.081   8.524
 3501ETHY    C1 3421  22.528  40.285   8.921
 3502ETHY    C1 3422  22.773  40.575   9.294
 3503ETHY    C1 3423  22.957  40.938   9.638
 3504ETHY    C1 3424  23.076  41.368   9.948
 3505THSLK    S 3425  21.707  40.356   7.771
 3506ETHY    C1 3426  21.951  40.710   7.922
 3507ETHY    C1 3427  22.164  41.176   8.087
 3508ETHY    C1 3428  22.280  41.675   8.231
 3509ETHY    C1 3429  22.299  42.193   8.356
 3510ETHY    C1 3430  22.224  42.721   8.458
 3511AUSL   AUS 3431  21.504  38.869   7.911
 3512AUSL   AUS 3432  21.921  38.938   7.766
 3513AUL    AUL 3433  21.807  38.654   7.992
 3514THSLK    S 3434  21.460  38.614   7.990
 3515ETHY    C1 3435  21.300  38.210   8.128
 3516ETHY    C1 3436  21.186  37.729   8.341
 3517ETHY    C1 3437  21.161  37.268   8.605
 3518ETHY    C1 3438  21.220  36.838   8.915
 3519ETHY    C1 3439  21.361  36.446   9.263
 3520THSLK    S 3440  22.036  38.749   7.908
 3521ETHY    C1 3441  22.152  38.333   8.052
 3522ETHY    C1 3442  22.366  37.880   8.248
 3523ETHY    C1 3443  22.658  37.492   8.467
 3524ETHY    C1 3444  23.017  37.177   8.705
 3525ETHY    C1 3445  23.434  36.940   8.958
 3526AUSL   AUS 3446  21.352  38.775   7.665
 3527AUSL   AUS 3447  21.239  39.032   8.012
 3528AUL    AUL 3448  21.201  38.654   7.992
 3529THSLK    S 3449  21.299  38.535   7.745
 3530ETHY    C1 3450  21.054  38.154   7.801
 3531ETHY    C1 3451  20.841  37.669   7.897
 3532ETHY    C1 3452  20.726  37.166   8.025
 3533ETHY    C1 3453  20.707  36.657   8.186
 3534ETHY    C1 3454  20.781  36.154   8.374
 3535THSLK    S 3455  21.061  38.864   8.133
 3536ETHY    C1 3456  20.773  38.546   8.289
 3537ETHY    C1 3457  20.473  38.186   8.552
 3538ETHY    C1 3458  20.230  37.860   8.896
 3539ETHY    C1 3459  20.046  37.577   9.309
 3540ETHY    C1 3460  19.922  37.343   9.783
 3541AUSL   AUS 3461  21.656  38.775   7.665
 3542AUSL   AUS 3462  21.352  38.775   7.338
 3543AUL    AUL 3463  21.504  38.467   7.502
 3544THSLK    S 3464  21.301  38.532   7.266
 3545ETHY    C1 3465  21.057  38.150   7.215
 3546ETHY    C1 3466  20.844  37.666   7.117
 3547ETHY    C1 3467  20.728  37.164   6.984
 3548ETHY    C1 3468  20.709  36.655   6.825
 3549ETHY    C1 3469  20.785  36.150   6.642
 3550THSLK    S 3470  21.613  38.519   7.749
 3551ETHY    C1 3471  21.503  38.083   7.821
 3552ETHY    C1 3472  21.460  37.557   7.928
 3553ETHY    C1 3473  21.517  37.045   8.059
 3554ETHY    C1 3474  21.670  36.557   8.213
 3555ETHY    C1 3475  21.912  36.104   8.388
 3556AUSL   AUS 3476  21.504  40.029   7.093
 3557AUSL   AUS 3477  21.921  39.959   7.237
 3558AUL    AUL 3478  21.807  40.243   7.011
 3559THSLK    S 3479  21.548  40.259   6.975
 3560ETHY    C1 3480  21.708  40.563   6.674
 3561ETHY    C1 3481  21.822  40.968   6.339
 3562ETHY    C1 3482  21.847  41.411   6.045
 3563ETHY    C1 3483  21.788  41.880   5.798
 3564ETHY    C1 3484  21.647  42.367   5.604
 3565THSLK    S 3485  22.108  40.080   7.085
 3566ETHY    C1 3486  22.482  40.236   6.876
 3567ETHY    C1 3487  22.880  40.500   6.629
 3568ETHY    C1 3488  23.213  40.844   6.395
 3569ETHY    C1 3489  23.475  41.256   6.184
 3570ETHY    C1 3490  23.666  41.730   5.998
 3571AUSL   AUS 3491  21.352  40.122   7.338
 3572AUSL   AUS 3492  21.239  39.865   6.992
 3573AUL    AUL 3493  21.201  40.243   7.011
 3574THSLK    S 3494  21.395  40.373   7.237
 3575ETHY    C1 3495  21.505  40.784   7.074
 3576ETHY    C1 3496  21.548  41.290   6.896
 3577ETHY    C1 3497  21.491  41.798   6.745
 3578ETHY    C1 3498  21.338  42.295   6.627
 3579ETHY    C1 3499  21.096  42.774   6.545
 3580THSLK    S 3500  21.125  40.000   6.802
 3581ETHY    C1 3501  21.059  40.172   6.385
 3582ETHY    C1 3502  20.916  40.424   5.932
 3583ETHY    C1 3503  20.707  40.723   5.544
 3584ETHY    C1 3504  20.441  41.061   5.230
 3585ETHY    C1 3505  20.125  41.434   4.993
 3586AUSL   AUS 3506  21.504  38.869   7.093
 3587AUSL   AUS 3507  21.088  38.938   7.237
 3588AUL    AUL 3508  21.201  38.654   7.011
 3589THSLK    S 3509  20.904  38.788   7.128
 3590ETHY    C1 3510  20.532  38.527   7.085
 3591ETHY    C1 3511  20.133  38.189   6.958
 3592ETHY    C1 3512  19.798  37.830   6.753
 3593ETHY    C1 3513  19.536  37.456   6.478
 3594ETHY    C1 3514  19.349  37.073   6.142
 3595THSLK    S 3515  21.464  38.610   7.019
 3596ETHY    C1 3516  21.307  38.204   6.885
 3597ETHY    C1 3517  21.192  37.724   6.671
 3598ETHY    C1 3518  21.165  37.265   6.404
 3599ETHY    C1 3519  21.225  36.834   6.094
 3600ETHY    C1 3520  21.369  36.439   5.751
 3601AUSL   AUS 3521  21.656  38.775   7.338
 3602AUSL   AUS 3522  21.769  39.032   6.992
 3603AUL    AUL 3523  21.807  38.654   7.011
 3604THSLK    S 3524  21.615  38.518   7.262
 3605ETHY    C1 3525  21.506  38.080   7.195
 3606ETHY    C1 3526  21.463  37.554   7.086
 3607ETHY    C1 3527  21.519  37.043   6.951
 3608ETHY    C1 3528  21.672  36.555   6.798
 3609ETHY    C1 3529  21.916  36.101   6.629
 3610THSLK    S 3530  21.889  38.842   6.853
 3611ETHY    C1 3531  21.958  38.456   6.621
 3612ETHY    C1 3532  22.100  38.048   6.300
 3613ETHY    C1 3533  22.307  37.712   5.942
 3614ETHY    C1 3534  22.573  37.455   5.559
 3615ETHY    C1 3535  22.893  37.277   5.158
 3616AUC    AUC 3536  28.723   6.170   7.502
 3617AUC    AUC 3537  28.969   6.170   7.350
 3618AUC    AUC 3538  28.969   6.170   7.653
 3619AUC    AUC 3539  28.478   6.170   7.350
 3620AUC    AUC 3540  28.478   6.170   7.653
 3621AUC    AUC 3541  28.571   6.415   7.502
 3622AUC    AUC 3542  28.875   6.415   7.502
 3623AUC    AUC 3543  28.571   5.924   7.502
 3624AUC    AUC 3544  28.875   5.924   7.502
 3625AUC    AUC 3545  28.723   6.018   7.747
 3626AUC    AUC 3546  28.723   6.321   7.747
 3627AUC    AUC 3547  28.723   6.018   7.256
 3628AUC    AUC 3548  28.723   6.321   7.256
 3629AUC    AUC 3549  29.214   6.170   7.198
 3630AUC    AUC 3550  29.214   6.170   7.502
 3631AUC    AUC 3551  29.214   6.170   7.805
 3632AUC    AUC 3552  28.232   6.170   7.198
 3633AUC    AUC 3553  28.232   6.170   7.502
 3634AUC    AUC 3554  28.232   6.170   7.805
 3635AUC    AUC 3555  28.420   6.660   7.502
 3636AUC    AUC 3556  28.723   6.660   7.502
 3637AUC    AUC 3557  29.026   6.660   7.502
 3638AUC    AUC 3558  28.420   5.679   7.502
 3639AUC    AUC 3559  28.723   5.679   7.502
 3640AUC    AUC 3560  29.026   5.679   7.502
 3641AUC    AUC 3561  28.723   5.866   7.992
 3642AUC    AUC 3562  28.723   6.170   7.992
 3643AUC    AUC 3563  28.723   6.473   7.992
 3644AUC    AUC 3564  28.723   5.866   7.011
 3645AUC    AUC 3565  28.723   6.170   7.011
 3646AUC    AUC 3566  28.723   6.473   7.011
 3647AUC    AUC 3567  28.969   6.018   7.899
 3648AUC    AUC 3568  28.969   6.321   7.899
 3649AUC    AUC 3569  28.969   6.018   7.105
 3650AUC    AUC 3570  28.969   6.321   7.105
 3651AUC    AUC 3571  28.478   6.018   7.899
 3652AUC    AUC 3572  28.478   6.321   7.899
 3653AUC    AUC 3573  28.478   6.018   7.105
 3654AUC    AUC 3574  28.478   6.321   7.105
 3655AUC    AUC 3575  29.120   6.415   7.350
 3656AUC    AUC 3576  29.120   6.415   7.653
 3657AUC    AUC 3577  28.326   6.415   7.350
 3658AUC    AUC 3578  28.326   6.415   7.653
 3659AUC    AUC 3579  29.120   5.924   7.350
 3660AUC    AUC 3580  29.120   5.924   7.653
 3661AUC    AUC 3581  28.326   5.924   7.350
 3662AUC    AUC 3582  28.326   5.924   7.653
 3663AUC    AUC 3583  28.571   6.567   7.747
 3664AUC    AUC 3584  28.875   6.567   7.747
 3665AUC    AUC 3585  28.571   5.772   7.747
 3666AUC    AUC 3586  28.875   5.772   7.747
 3667AUC    AUC 3587  28.571   6.567   7.256
 3668AUC    AUC 3588  28.875   6.567   7.256
 3669AUC    AUC 3589  28.571   5.772   7.256
 3670AUC    AUC 3590  28.875   5.772   7.256
 3671AUSL   AUS 3591  29.132   6.170   8.082
 3672AUSL   AUS 3592  28.988   5.753   8.012
 3673AUL    AUL 3593  29.214   5.866   8.296
 3674THSLK    S 3594  29.102   5.565   8.156
 3675ETHY    C1 3595  29.168   5.180   8.391
 3676ETHY    C1 3596  29.311   4.772   8.710
 3677ETHY    C1 3597  29.520   4.436   9.066
 3678ETHY    C1 3598  29.786   4.178   9.450
 3679ETHY    C1 3599  30.102   4.002   9.855
 3680THSLK    S 3600  29.228   6.120   8.326
 3681ETHY    C1 3601  29.444   5.934   8.681
 3682ETHY    C1 3602  29.719   5.799   9.124
 3683ETHY    C1 3603  30.000   5.769   9.575
 3684ETHY    C1 3604  30.278   5.838  10.025
 3685ETHY    C1 3605  30.547   6.006  10.466
 3686AUSL   AUS 3606  28.887   6.018   8.175
 3687AUSL   AUS 3607  28.560   6.321   8.175
 3688AUL    AUL 3608  28.723   6.170   8.483
 3689THSLK    S 3609  28.965   5.965   8.417
 3690ETHY    C1 3610  29.042   5.715   8.790
 3691ETHY    C1 3611  29.158   5.498   9.269
 3692ETHY    C1 3612  29.295   5.382   9.769
 3693ETHY    C1 3613  29.445   5.364  10.281
 3694ETHY    C1 3614  29.604   5.445  10.794
 3695THSLK    S 3615  28.473   6.278   8.431
 3696ETHY    C1 3616  28.391   6.166   8.864
 3697ETHY    C1 3617  28.277   6.120   9.388
 3698ETHY    C1 3618  28.145   6.178   9.901
 3699ETHY    C1 3619  27.994   6.331  10.389
 3700ETHY    C1 3620  27.828   6.575  10.844
 3701AUSL   AUS 3621  28.887   6.321   8.175
 3702AUSL   AUS 3622  29.233   6.434   7.918
 3703AUL    AUL 3623  29.214   6.473   8.296
 3704THSLK    S 3624  28.974   6.375   8.414
 3705ETHY    C1 3625  29.055   6.626   8.786
 3706ETHY    C1 3626  29.169   6.842   9.265
 3707ETHY    C1 3627  29.302   6.958   9.767
 3708ETHY    C1 3628  29.452   6.976  10.279
 3709ETHY    C1 3629  29.618   6.896  10.789
 3710THSLK    S 3630  29.407   6.536   8.080
 3711ETHY    C1 3631  29.771   6.546   8.354
 3712ETHY    C1 3632  30.187   6.648   8.680
 3713ETHY    C1 3633  30.567   6.847   8.995
 3714ETHY    C1 3634  30.902   7.134   9.296
 3715ETHY    C1 3635  31.183   7.502   9.577
 3716AUSL   AUS 3636  29.132   6.170   6.922
 3717AUSL   AUS 3637  28.988   6.586   6.992
 3718AUL    AUL 3638  29.214   6.473   6.707
 3719THSLK    S 3639  29.235   6.120   6.681
 3720ETHY    C1 3640  29.456   5.934   6.329
 3721ETHY    C1 3641  29.729   5.799   5.885
 3722ETHY    C1 3642  30.007   5.769   5.432
 3723ETHY    C1 3643  30.285   5.838   4.982
 3724ETHY    C1 3644  30.559   6.006   4.545
 3725THSLK    S 3645  29.166   6.701   6.825
 3726ETHY    C1 3646  29.454   6.806   6.488
 3727ETHY    C1 3647  29.754   7.010   6.090
 3728ETHY    C1 3648  29.997   7.298   5.714
 3729ETHY    C1 3649  30.181   7.662   5.371
 3730ETHY    C1 3650  30.305   8.093   5.065
 3731AUSL   AUS 3651  28.887   6.018   6.828
 3732AUSL   AUS 3652  29.233   5.905   7.085
 3733AUL    AUL 3653  29.214   5.866   6.707
 3734THSLK    S 3654  29.370   5.713   6.944
 3735ETHY    C1 3655  29.578   5.370   6.729
 3736ETHY    C1 3656  29.879   5.028   6.442
 3737ETHY    C1 3657  30.230   4.775   6.133
 3738ETHY    C1 3658  30.624   4.613   5.812
 3739ETHY    C1 3659  31.053   4.542   5.486
 3740THSLK    S 3660  28.974   5.964   6.590
 3741ETHY    C1 3661  29.055   5.713   6.217
 3742ETHY    C1 3662  29.169   5.497   5.738
 3743ETHY    C1 3663  29.302   5.381   5.236
 3744ETHY    C1 3664  29.452   5.363   4.725
 3745ETHY    C1 3665  29.618   5.443   4.214
 3746AUSL   AUS 3666  28.887   6.321   6.828
 3747AUSL   AUS 3667  28.560   6.018   6.828
 3748AUL    AUL 3668  28.723   6.170   6.520
 3749THSLK    S 3669  28.465   5.964   6.592
 3750ETHY    C1 3670  28.328   5.716   6.235
 3751ETHY    C1 3671  28.168   5.502   5.767
 3752ETHY    C1 3672  28.021   5.387   5.269
 3753ETHY    C1 3673  27.894   5.368   4.751
 3754ETHY    C1 3674  27.789   5.444   4.224
 3755THSLK    S 3675  28.990   6.279   6.578
 3756ETHY    C1 3676  29.131   6.164   6.160
 3757ETHY    C1 3677  29.289   6.117   5.647
 3758ETHY    C1 3678  29.432   6.173   5.138
 3759ETHY    C1 3679  29.560   6.327   4.643
 3760ETHY    C1 3680  29.671   6.575   4.174
 3761AUSL   AUS 3681  28.314   6.170   8.082
 3762AUSL   AUS 3682  28.458   6.586   8.012
 3763AUL    AUL 3683  28.232   6.473   8.296
 3764THSLK    S 3684  28.211   6.120   8.322
 3765ETHY    C1 3685  27.990   5.934   8.674
 3766ETHY    C1 3686  27.717   5.799   9.118
 3767ETHY    C1 3687  27.440   5.769   9.571
 3768ETHY    C1 3688  27.162   5.838  10.021
 3769ETHY    C1 3689  26.887   6.006  10.458
 3770THSLK    S 3690  28.338   6.715   8.202
 3771ETHY    C1 3691  28.269   6.884   8.620
 3772ETHY    C1 3692  28.127   7.137   9.073
 3773ETHY    C1 3693  27.921   7.438   9.460
 3774ETHY    C1 3694  27.654   7.777   9.775
 3775ETHY    C1 3695  27.334   8.144  10.013
 3776AUSL   AUS 3696  28.560   6.018   8.175
 3777AUSL   AUS 3697  28.213   5.905   7.918
 3778AUL    AUL 3698  28.232   5.866   8.296
 3779THSLK    S 3699  28.035   5.741   8.029
 3780ETHY    C1 3700  27.667   5.488   8.125
 3781ETHY    C1 3701  27.252   5.209   8.323
 3782ETHY    C1 3702  26.874   4.969   8.611
 3783ETHY    C1 3703  26.540   4.773   8.978
 3784ETHY    C1 3704  26.254   4.627   9.415
 3785THSLK    S 3705  28.457   5.966   8.410
 3786ETHY    C1 3706  28.315   5.719   8.766
 3787ETHY    C1 3707  28.157   5.504   9.233
 3788ETHY    C1 3708  28.014   5.388   9.733
 3789ETHY    C1 3709  27.887   5.370  10.250
 3790ETHY    C1 3710  27.775   5.448  10.775
 3791AUSL   AUS 3711  28.314   6.170   6.922
 3792AUSL   AUS 3712  28.458   5.753   6.992
 3793AUL    AUL 3713  28.232   5.866   6.707
 3794THSLK    S 3714  28.219   6.120   6.677
 3795ETHY    C1 3715  28.002   5.934   6.322
 3796ETHY    C1 3716  27.727   5.799   5.879
 3797ETHY    C1 3717  27.446   5.769   5.429
 3798ETHY    C1 3718  27.168   5.838   4.978
 3799ETHY    C1 3719  26.900   6.006   4.537
 3800THSLK    S 3720  28.286   5.579   6.872
 3801ETHY    C1 3721  28.001   5.258   6.717
 3802ETHY    C1 3722  27.700   4.899   6.453
 3803ETHY    C1 3723  27.455   4.576   6.109
 3804ETHY    C1 3724  27.271   4.293   5.696
 3805ETHY    C1 3725  27.152   4.053   5.223
 3806AUSL   AUS 3726  28.560   6.321   6.828
 3807AUSL   AUS 3727  28.213   6.434   7.085
 3808AUL    AUL 3728  28.232   6.473   6.707
 3809THSLK    S 3729  28.082   6.564   6.893
 3810ETHY    C1 3730  27.876   6.664   6.499
 3811ETHY    C1 3731  27.574   6.828   6.085
 3812ETHY    C1 3732  27.220   7.040   5.748
 3813ETHY    C1 3733  26.827   7.294   5.494
 3814ETHY    C1 3734  26.402   7.587   5.324
 3815THSLK    S 3735  28.481   6.280   6.571
 3816ETHY    C1 3736  28.404   6.168   6.136
 3817ETHY    C1 3737  28.288   6.123   5.612
 3818ETHY    C1 3738  28.152   6.179   5.101
 3819ETHY    C1 3739  28.002   6.333   4.613
 3820ETHY    C1 3740  27.842   6.578   4.156
 3821AUSL   AUS 3741  29.303   6.579   7.502
 3822AUSL   AUS 3742  29.233   6.434   7.085
 3823AUL    AUL 3743  29.517   6.660   7.198
 3824THSLK    S 3744  29.412   6.537   6.930
 3825ETHY    C1 3745  29.779   6.548   6.659
 3826ETHY    C1 3746  30.194   6.650   6.332
 3827ETHY    C1 3747  30.572   6.848   6.014
 3828ETHY    C1 3748  30.906   7.135   5.713
 3829ETHY    C1 3749  31.192   7.505   5.438
 3830THSLK    S 3750  29.571   6.635   7.506
 3831ETHY    C1 3751  30.023   6.696   7.508
 3832ETHY    C1 3752  30.537   6.855   7.507
 3833ETHY    C1 3753  31.005   7.109   7.505
 3834ETHY    C1 3754  31.418   7.446   7.506
 3835ETHY    C1 3755  31.770   7.860   7.509
 3836AUSL   AUS 3756  29.397   6.333   7.350
 3837AUSL   AUS 3757  29.397   6.006   7.653
 3838AUL    AUL 3758  29.705   6.170   7.502
 3839THSLK    S 3759  29.656   6.376   7.348
 3840ETHY    C1 3760  30.101   6.306   7.278
 3841ETHY    C1 3761  30.632   6.313   7.190
 3842ETHY    C1 3762  31.145   6.423   7.101
 3843ETHY    C1 3763  31.630   6.629   7.017
 3844ETHY    C1 3764  32.077   6.926   6.940
 3845THSLK    S 3765  29.629   5.868   7.662
 3846ETHY    C1 3766  29.975   5.579   7.728
 3847ETHY    C1 3767  30.436   5.312   7.809
 3848ETHY    C1 3768  30.933   5.143   7.892
 3849ETHY    C1 3769  31.454   5.071   7.980
 3850ETHY    C1 3770  31.989   5.097   8.071
 3851AUSL   AUS 3771  29.397   6.333   7.653
 3852AUSL   AUS 3772  29.140   6.680   7.766
 3853AUL    AUL 3773  29.517   6.660   7.805
 3854THSLK    S 3774  29.323   6.799   7.926
 3855ETHY    C1 3775  29.695   6.954   8.139
 3856ETHY    C1 3776  30.095   7.219   8.385
 3857ETHY    C1 3777  30.429   7.563   8.615
 3858ETHY    C1 3778  30.691   7.976   8.827
 3859ETHY    C1 3779  30.878   8.448   9.019
 3860THSLK    S 3780  29.655   6.376   7.664
 3861ETHY    C1 3781  30.099   6.306   7.738
 3862ETHY    C1 3782  30.630   6.313   7.825
 3863ETHY    C1 3783  31.144   6.423   7.910
 3864ETHY    C1 3784  31.628   6.629   7.994
 3865ETHY    C1 3785  32.075   6.926   8.078
 3866AUSL   AUS 3786  28.143   6.579   7.502
 3867AUSL   AUS 3787  28.213   6.434   7.918
 3868AUL    AUL 3788  27.929   6.660   7.805
 3869THSLK    S 3789  28.077   6.557   8.109
 3870ETHY    C1 3790  27.868   6.653   8.503
 3871ETHY    C1 3791  27.567   6.819   8.917
 3872ETHY    C1 3792  27.216   7.034   9.254
 3873ETHY    C1 3793  26.822   7.288   9.509
 3874ETHY    C1 3794  26.393   7.575   9.678
 3875THSLK    S 3795  27.927   6.719   7.506
 3876ETHY    C1 3796  27.671   7.097   7.508
 3877ETHY    C1 3797  27.298   7.485   7.507
 3878ETHY    C1 3798  26.862   7.791   7.505
 3879ETHY    C1 3799  26.376   8.009   7.506
 3880ETHY    C1 3800  25.849   8.139   7.509
 3881AUSL   AUS 3801  28.049   6.333   7.350
 3882AUSL   AUS 3802  28.307   6.680   7.237
 3883AUL    AUL 3803  27.929   6.660   7.198
 3884THSLK    S 3804  27.818   6.448   7.303
 3885ETHY    C1 3805  27.471   6.636   7.075
 3886ETHY    C1 3806  27.011   6.828   6.872
 3887ETHY    C1 3807  26.513   6.978   6.758
 3888ETHY    C1 3808  25.992   7.088   6.733
 3889ETHY    C1 3809  25.458   7.158   6.796
 3890THSLK    S 3810  28.191   6.845   7.058
 3891ETHY    C1 3811  28.075   7.161   6.750
 3892ETHY    C1 3812  27.861   7.539   6.432
 3893ETHY    C1 3813  27.569   7.908   6.183
 3894ETHY    C1 3814  27.211   8.261   6.008
 3895ETHY    C1 3815  26.793   8.594   5.909
 3896AUSL   AUS 3816  28.049   6.333   7.653
 3897AUSL   AUS 3817  28.049   6.006   7.350
 3898AUL    AUL 3818  27.741   6.170   7.502
 3899THSLK    S 3819  27.791   5.932   7.390
 3900ETHY    C1 3820  27.347   5.897   7.486
 3901ETHY    C1 3821  26.816   5.816   7.518
 3902ETHY    C1 3822  26.302   5.691   7.458
 3903ETHY    C1 3823  25.818   5.523   7.311
 3904ETHY    C1 3824  25.371   5.316   7.083
 3905THSLK    S 3825  27.816   6.440   7.704
 3906ETHY    C1 3826  27.469   6.624   7.935
 3907ETHY    C1 3827  27.009   6.817   8.137
 3908ETHY    C1 3828  26.512   6.972   8.249
 3909ETHY    C1 3829  25.991   7.082   8.274
 3910ETHY    C1 3830  25.455   7.145   8.213
 3911AUSL   AUS 3831  29.303   5.760   7.502
 3912AUSL   AUS 3832  29.233   5.905   7.918
 3913AUL    AUL 3833  29.517   5.679   7.805
 3914THSLK    S 3834  29.519   5.620   7.506
 3915ETHY    C1 3835  29.775   5.242   7.508
 3916ETHY    C1 3836  30.148   4.854   7.507
 3917ETHY    C1 3837  30.584   4.548   7.505
 3918ETHY    C1 3838  31.070   4.330   7.506
 3919ETHY    C1 3839  31.597   4.200   7.509
 3920THSLK    S 3840  29.365   5.715   8.066
 3921ETHY    C1 3841  29.570   5.372   8.285
 3922ETHY    C1 3842  29.872   5.030   8.570
 3923ETHY    C1 3843  30.226   4.777   8.877
 3924ETHY    C1 3844  30.620   4.614   9.198
 3925ETHY    C1 3845  31.044   4.544   9.529
 3926AUSL   AUS 3846  29.397   6.006   7.350
 3927AUSL   AUS 3847  29.140   5.659   7.237
 3928AUL    AUL 3848  29.517   5.679   7.198
 3929THSLK    S 3849  29.630   5.868   7.350
 3930ETHY    C1 3850  29.978   5.579   7.289
 3931ETHY    C1 3851  30.437   5.312   7.206
 3932ETHY    C1 3852  30.934   5.143   7.118
 3933ETHY    C1 3853  31.456   5.071   7.031
 3934ETHY    C1 3854  31.991   5.097   6.947
 3935THSLK    S 3855  29.259   5.469   7.104
 3936ETHY    C1 3856  29.376   5.052   6.963
 3937ETHY    C1 3857  29.590   4.598   6.765
 3938ETHY    C1 3858  29.880   4.212   6.543
 3939ETHY    C1 3859  30.239   3.897   6.306
 3940ETHY    C1 3860  30.659   3.658   6.058
 3941AUSL   AUS 3861  28.143   5.760   7.502
 3942AUSL   AUS 3862  28.213   5.905   7.085
 3943AUL    AUL 3863  27.929   5.679   7.198
 3944THSLK    S 3864  28.040   5.734   6.973
 3945ETHY    C1 3865  27.675   5.477   6.877
 3946ETHY    C1 3866  27.259   5.200   6.679
 3947ETHY    C1 3867  26.879   4.963   6.392
 3948ETHY    C1 3868  26.545   4.767   6.025
 3949ETHY    C1 3869  26.263   4.615   5.587
 3950THSLK    S 3870  27.875   5.704   7.506
 3951ETHY    C1 3871  27.423   5.643   7.508
 3952ETHY    C1 3872  26.909   5.484   7.507
 3953ETHY    C1 3873  26.441   5.230   7.505
 3954ETHY    C1 3874  26.028   4.893   7.506
 3955ETHY    C1 3875  25.676   4.479   7.509
 3956AUSL   AUS 3876  28.049   6.006   7.653
 3957AUSL   AUS 3877  28.307   5.659   7.766
 3958AUL    AUL 3878  27.929   5.679   7.805
 3959THSLK    S 3879  28.119   5.515   7.880
 3960ETHY    C1 3880  27.745   5.258   7.926
 3961ETHY    C1 3881  27.347   4.918   8.052
 3962ETHY    C1 3882  27.014   4.556   8.255
 3963ETHY    C1 3883  26.752   4.182   8.529
 3964ETHY    C1 3884  26.561   3.804   8.870
 3965THSLK    S 3885  27.790   5.939   7.617
 3966ETHY    C1 3886  27.345   5.909   7.524
 3967ETHY    C1 3887  26.814   5.827   7.490
 3968ETHY    C1 3888  26.301   5.698   7.549
 3969ETHY    C1 3889  25.817   5.530   7.696
 3970ETHY    C1 3890  25.369   5.328   7.928
 3971AUSL   AUS 3891  28.723   6.750   7.911
 3972AUSL   AUS 3892  28.307   6.680   7.766
 3973AUL    AUL 3893  28.420   6.964   7.992
 3974THSLK    S 3894  28.187   6.839   7.950
 3975ETHY    C1 3895  28.070   7.151   8.261
 3976ETHY    C1 3896  27.856   7.531   8.578
 3977ETHY    C1 3897  27.566   7.902   8.824
 3978ETHY    C1 3898  27.208   8.256   9.000
 3979ETHY    C1 3899  26.787   8.584   9.102
 3980THSLK    S 3900  28.763   6.976   8.035
 3981ETHY    C1 3901  28.920   7.278   8.339
 3982ETHY    C1 3902  29.035   7.684   8.672
 3983ETHY    C1 3903  29.062   8.128   8.964
 3984ETHY    C1 3904  29.002   8.597   9.211
 3985ETHY    C1 3905  28.858   9.081   9.410
 3986AUSL   AUS 3906  28.571   6.843   7.665
 3987AUSL   AUS 3907  28.875   6.843   7.338
 3988AUL    AUL 3908  28.723   7.151   7.502
 3989THSLK    S 3909  28.612   7.091   7.774
 3990ETHY    C1 3910  28.721   7.501   7.942
 3991ETHY    C1 3911  28.765   8.008   8.118
 3992ETHY    C1 3912  28.708   8.516   8.265
 3993ETHY    C1 3913  28.555   9.013   8.383
 3994ETHY    C1 3914  28.312   9.490   8.472
 3995THSLK    S 3915  28.928   7.078   7.241
 3996ETHY    C1 3916  29.173   7.434   7.094
 3997ETHY    C1 3917  29.386   7.899   6.927
 3998ETHY    C1 3918  29.501   8.397   6.779
 3999ETHY    C1 3919  29.521   8.916   6.655
 4000ETHY    C1 3920  29.446   9.445   6.558
 4001AUSL   AUS 3921  28.875   6.843   7.665
 4002AUSL   AUS 3922  28.988   6.586   8.012
 4003AUL    AUL 3923  29.026   6.964   7.992
 4004THSLK    S 3924  29.160   6.699   8.184
 4005ETHY    C1 3925  29.445   6.802   8.524
 4006ETHY    C1 3926  29.747   7.006   8.921
 4007ETHY    C1 3927  29.992   7.296   9.294
 4008ETHY    C1 3928  30.176   7.659   9.638
 4009ETHY    C1 3929  30.295   8.089   9.948
 4010THSLK    S 3930  28.926   7.077   7.771
 4011ETHY    C1 3931  29.170   7.431   7.922
 4012ETHY    C1 3932  29.383   7.897   8.087
 4013ETHY    C1 3933  29.499   8.396   8.231
 4014ETHY    C1 3934  29.518   8.914   8.356
 4015ETHY    C1 3935  29.443   9.442   8.458
 4016AUSL   AUS 3936  28.723   5.590   7.911
 4017AUSL   AUS 3937  29.140   5.659   7.766
 4018AUL    AUL 3938  29.026   5.375   7.992
 4019THSLK    S 3939  28.679   5.335   7.990
 4020ETHY    C1 3940  28.519   4.931   8.128
 4021ETHY    C1 3941  28.405   4.450   8.341
 4022ETHY    C1 3942  28.380   3.989   8.605
 4023ETHY    C1 3943  28.439   3.559   8.915
 4024ETHY    C1 3944  28.580   3.167   9.263
 4025THSLK    S 3945  29.255   5.470   7.908
 4026ETHY    C1 3946  29.371   5.054   8.052
 4027ETHY    C1 3947  29.585   4.601   8.248
 4028ETHY    C1 3948  29.877   4.213   8.467
 4029ETHY    C1 3949  30.236   3.898   8.705
 4030ETHY    C1 3950  30.653   3.661   8.958
 4031AUSL   AUS 3951  28.571   5.496   7.665
 4032AUSL   AUS 3952  28.458   5.753   8.012
 4033AUL    AUL 3953  28.420   5.375   7.992
 4034THSLK    S 3954  28.518   5.256   7.745
 4035ETHY    C1 3955  28.273   4.875   7.801
 4036ETHY    C1 3956  28.060   4.390   7.897
 4037ETHY    C1 3957  27.945   3.887   8.025
 4038ETHY    C1 3958  27.926   3.378   8.186
 4039ETHY    C1 3959  28.000   2.875   8.374
 4040THSLK    S 3960  28.280   5.585   8.133
 4041ETHY    C1 3961  27.992   5.267   8.289
 4042ETHY    C1 3962  27.692   4.907   8.552
 4043ETHY    C1 3963  27.449   4.581   8.896
 4044ETHY    C1 3964  27.265   4.298   9.309
 4045ETHY    C1 3965  27.141   4.064   9.783
 4046AUSL   AUS 3966  28.875   5.496   7.665
 4047AUSL   AUS 3967  28.571   5.496   7.338
 4048AUL    AUL 3968  28.723   5.188   7.502
 4049THSLK    S 3969  28.520   5.253   7.266
 4050ETHY    C1 3970  28.276   4.871   7.215
 4051ETHY    C1 3971  28.063   4.387   7.117
 4052ETHY    C1 3972  27.947   3.885   6.984
 4053ETHY    C1 3973  27.928   3.376   6.825
 4054ETHY    C1 3974  28.004   2.871   6.642
 4055THSLK    S 3975  28.832   5.240   7.749
 4056ETHY    C1 3976  28.722   4.804   7.821
 4057ETHY    C1 3977  28.679   4.278   7.928
 4058ETHY    C1 3978  28.736   3.766   8.059
 4059ETHY    C1 3979  28.889   3.278   8.213
 4060ETHY    C1 3980  29.131   2.825   8.388
 4061AUSL   AUS 3981  28.723   6.750   7.093
 4062AUSL   AUS 3982  29.140   6.680   7.237
 4063AUL    AUL 3983  29.026   6.964   7.011
 4064THSLK    S 3984  28.767   6.980   6.975
 4065ETHY    C1 3985  28.927   7.284   6.674
 4066ETHY    C1 3986  29.041   7.689   6.339
 4067ETHY    C1 3987  29.066   8.132   6.045
 4068ETHY    C1 3988  29.007   8.601   5.798
 4069ETHY    C1 3989  28.866   9.088   5.604
 4070THSLK    S 3990  29.327   6.801   7.085
 4071ETHY    C1 3991  29.701   6.957   6.876
 4072ETHY    C1 3992  30.099   7.221   6.629
 4073ETHY    C1 3993  30.432   7.565   6.395
 4074ETHY    C1 3994  30.694   7.977   6.184
 4075ETHY    C1 3995  30.885   8.451   5.998
 4076AUSL   AUS 3996  28.571   6.843   7.338
 4077AUSL   AUS 3997  28.458   6.586   6.992
 4078AUL    AUL 3998  28.420   6.964   7.011
 4079THSLK    S 3999  28.614   7.094   7.237
 4080ETHY    C1 4000  28.724   7.505   7.074
 4081ETHY    C1 4001  28.767   8.011   6.896
 4082ETHY    C1 4002  28.710   8.519   6.745
 4083ETHY    C1 4003  28.557   9.016   6.627
 4084ETHY    C1 4004  28.315   9.495   6.545
 4085THSLK    S 4005  28.344   6.721   6.802
 4086ETHY    C1 4006  28.278   6.893   6.385
 4087ETHY    C1 4007  28.135   7.145   5.932
 4088ETHY    C1 4008  27.926   7.444   5.544
 4089ETHY    C1 4009  27.660   7.782   5.230
 4090ETHY    C1 4010  27.344   8.155   4.993
 4091AUSL   AUS 4011  28.723   5.590   7.093
 4092AUSL   AUS 4012  28.307   5.659   7.237
 4093AUL    AUL 4013  28.420   5.375   7.011
 4094THSLK    S 4014  28.123   5.509   7.128
 4095ETHY    C1 4015  27.751   5.248   7.085
 4096ETHY    C1 4016  27.352   4.910   6.958
 4097ETHY    C1 4017  27.017   4.551   6.753
 4098ETHY    C1 4018  26.755   4.177   6.478
 4099ETHY    C1 4019  26.568   3.794   6.142
 4100THSLK    S 4020  28.683   5.331   7.019
 4101ETHY    C1 4021  28.526   4.925   6.885
 4102ETHY    C1 4022  28.411   4.445   6.671
 4103ETHY    C1 4023  28.384   3.986   6.404
 4104ETHY    C1 4024  28.444   3.555   6.094
 4105ETHY    C1 4025  28.588   3.160   5.751
 4106AUSL   AUS 4026  28.875   5.496   7.338
 4107AUSL   AUS 4027  28.988   5.753   6.992
 4108AUL    AUL 4028  29.026   5.375   7.011
 4109THSLK    S 4029  28.834   5.239   7.262
 4110ETHY    C1 4030  28.725   4.801   7.195
 4111ETHY    C1 4031  28.682   4.275   7.086
 4112ETHY    C1 4032  28.738   3.764   6.951
 4113ETHY    C1 4033  28.891   3.276   6.798
 4114ETHY    C1 4034  29.135   2.822   6.629
 4115THSLK    S 4035  29.108   5.563   6.853
 4116ETHY    C1 4036  29.177   5.177   6.621
 4117ETHY    C1 4037  29.319   4.769   6.300
 4118ETHY    C1 4038  29.526   4.433   5.942
 4119ETHY    C1 4039  29.792   4.176   5.559
 4120ETHY    C1 4040  30.112   3.998   5.158
 4121AUC    AUC 4041  15.086   4.212   7.502
 4122AUC    AUC 4042  15.332   4.212   7.350
 4123AUC    AUC 4043  15.332   4.212   7.653
 4124AUC    AUC 4044  14.841   4.212   7.350
 4125AUC    AUC 4045  14.841   4.212   7.653
 4126AUC    AUC 4046  14.934   4.457   7.502
 4127AUC    AUC 4047  15.238   4.457   7.502
 4128AUC    AUC 4048  14.934   3.966   7.502
 4129AUC    AUC 4049  15.238   3.966   7.502
 4130AUC    AUC 4050  15.086   4.060   7.747
 4131AUC    AUC 4051  15.086   4.363   7.747
 4132AUC    AUC 4052  15.086   4.060   7.256
 4133AUC    AUC 4053  15.086   4.363   7.256
 4134AUC    AUC 4054  15.577   4.212   7.198
 4135AUC    AUC 4055  15.577   4.212   7.502
 4136AUC    AUC 4056  15.577   4.212   7.805
 4137AUC    AUC 4057  14.595   4.212   7.198
 4138AUC    AUC 4058  14.595   4.212   7.502
 4139AUC    AUC 4059  14.595   4.212   7.805
 4140AUC    AUC 4060  14.783   4.702   7.502
 4141AUC    AUC 4061  15.086   4.702   7.502
 4142AUC    AUC 4062  15.389   4.702   7.502
 4143AUC    AUC 4063  14.783   3.721   7.502
 4144AUC    AUC 4064  15.086   3.721   7.502
 4145AUC    AUC 4065  15.389   3.721   7.502
 4146AUC    AUC 4066  15.086   3.908   7.992
 4147AUC    AUC 4067  15.086   4.212   7.992
 4148AUC    AUC 4068  15.086   4.515   7.992
 4149AUC    AUC 4069  15.086   3.908   7.011
 4150AUC    AUC 4070  15.086   4.212   7.011
 4151AUC    AUC 4071  15.086   4.515   7.011
 4152AUC    AUC 4072  15.332   4.060   7.899
 4153AUC    AUC 4073  15.332   4.363   7.899
 4154AUC    AUC 4074  15.332   4.060   7.105
 4155AUC    AUC 4075  15.332   4.363   7.105
 4156AUC    AUC 4076  14.841   4.060   7.899
 4157AUC    AUC 4077  14.841   4.363   7.899
 4158AUC    AUC 4078  14.841   4.060   7.105
 4159AUC    AUC 4079  14.841   4.363   7.105
 4160AUC    AUC 4080  15.483   4.457   7.350
 4161AUC    AUC 4081  15.483   4.457   7.653
 4162AUC    AUC 4082  14.689   4.457   7.350
 4163AUC    AUC 4083  14.689   4.457   7.653
 4164AUC    AUC 4084  15.483   3.966   7.350
 4165AUC    AUC 4085  15.483   3.966   7.653
 4166AUC    AUC 4086  14.689   3.966   7.350
 4167AUC    AUC 4087  14.689   3.966   7.653
 4168AUC    AUC 4088  14.934   4.609   7.747
 4169AUC    AUC 4089  15.238   4.609   7.747
 4170AUC    AUC 4090  14.934   3.814   7.747
 4171AUC    AUC 4091  15.238   3.814   7.747
 4172AUC    AUC 4092  14.934   4.609   7.256
 4173AUC    AUC 4093  15.238   4.609   7.256
 4174AUC    AUC 4094  14.934   3.814   7.256
 4175AUC    AUC 4095  15.238   3.814   7.256
 4176AUSL   AUS 4096  15.495   4.212   8.082
 4177AUSL   AUS 4097  15.351   3.795   8.012
 4178AUL    AUL 4098  15.577   3.908   8.296
 4179THSLK    S 4099  15.465   3.607   8.156
 4180ETHY    C1 4100  15.531   3.222   8.391
 4181ETHY    C1 4101  15.674   2.814   8.710
 4182ETHY    C1 4102  15.883   2.478   9.066
 4183ETHY    C1 4103  16.149   2.220   9.450
 4184ETHY    C1 4104  16.465   2.044   9.855
 4185THSLK    S 4105  15.591   4.162   8.326
 4186ETHY    C1 4106  15.807   3.976   8.681
 4187ETHY    C1 4107  16.082   3.841   9.124
 4188ETHY    C1 4108  16.363   3.811   9.575
 4189ETHY    C1 4109  16.641   3.880  10.025
 4190ETHY    C1 4110  16.910   4.048  10.466
 4191AUSL   AUS 4111  15.250   4.060   8.175
 4192AUSL   AUS 4112  14.923   4.363   8.175
 4193AUL    AUL 4113  15.086   4.212   8.483
 4194THSLK    S 4114  15.328   4.007   8.417
 4195ETHY    C1 4115  15.405   3.757   8.790
 4196ETHY    C1 4116  15.521   3.540   9.269
 4197ETHY    C1 4117  15.658   3.424   9.769
 4198ETHY    C1 4118  15.808   3.406  10.281
 4199ETHY    C1 4119  15.967   3.487  10.794
 4200THSLK    S 4120  14.836   4.320   8.431
 4201ETHY    C1 4121  14.754   4.208   8.864
 4202ETHY    C1 4122  14.640   4.162   9.388
 4203ETHY    C1 4123  14.508   4.220   9.901
 4204ETHY    C1 4124  14.357   4.373  10.389
 4205ETHY    C1 4125  14.191   4.617  10.844
 4206AUSL   AUS 4126  15.250   4.363   8.175
 4207AUSL   AUS 4127  15.596   4.476   7.918
 4208AUL    AUL 4128  15.577   4.515   8.296
 4209THSLK    S 4129  15.337   4.417   8.414
 4210ETHY    C1 4130  15.418   4.668   8.786
 4211ETHY    C1 4131  15.532   4.884   9.265
 4212ETHY    C1 4132  15.665   5.000   9.767
 4213ETHY    C1 4133  15.815   5.018  10.279
 4214ETHY    C1 4134  15.981   4.938  10.789
 4215THSLK    S 4135  15.770   4.578   8.080
 4216ETHY    C1 4136  16.134   4.588   8.354
 4217ETHY    C1 4137  16.550   4.690   8.680
 4218ETHY    C1 4138  16.930   4.889   8.995
 4219ETHY    C1 4139  17.265   5.176   9.296
 4220ETHY    C1 4140  17.546   5.544   9.577
 4221AUSL   AUS 4141  15.495   4.212   6.922
 4222AUSL   AUS 4142  15.351   4.628   6.992
 4223AUL    AUL 4143  15.577   4.515   6.707
 4224THSLK    S 4144  15.598   4.162   6.681
 4225ETHY    C1 4145  15.819   3.976   6.329
 4226ETHY    C1 4146  16.092   3.841   5.885
 4227ETHY    C1 4147  16.370   3.811   5.432
 4228ETHY    C1 4148  16.648   3.880   4.982
 4229ETHY    C1 4149  16.922   4.048   4.545
 4230THSLK    S 4150  15.529   4.743   6.825
 4231ETHY    C1 4151  15.817   4.848   6.488
 4232ETHY    C1 4152  16.117   5.052   6.090
 4233ETHY    C1 4153  16.360   5.340   5.714
 4234ETHY    C1 4154  16.544   5.704   5.371
 4235ETHY    C1 4155  16.668   6.135   5.065
 4236AUSL   AUS 4156  15.250   4.060   6.828
 4237AUSL   AUS 4157  15.596   3.947   7.085
 4238AUL    AUL 4158  15.577   3.908   6.707
 4239THSLK    S 4159  15.733   3.755   6.944
 4240ETHY    C1 4160  15.941   3.412   6.729
 4241ETHY    C1 4161  16.242   3.070   6.442
 4242ETHY    C1 4162  16.593   2.817   6.133
 4243ETHY    C1 4163  16.987   2.655   5.812
 4244ETHY    C1 4164  17.416   2.584   5.486
 4245THSLK    S 4165  15.337   4.006   6.590
 4246ETHY    C1 4166  15.418   3.755   6.217
 4247ETHY    C1 4167  15.532   3.539   5.738
 4248ETHY    C1 4168  15.665   3.423   5.236
 4249ETHY    C1 4169  15.815   3.405   4.725
 4250ETHY    C1 4170  15.981   3.485   4.214
 4251AUSL   AUS 4171  15.250   4.363   6.828
 4252AUSL   AUS 4172  14.923   4.060   6.828
 4253AUL    AUL 4173  15.086   4.212   6.520
 4254THSLK    S 4174  14.828   4.006   6.592
 4255ETHY    C1 4175  14.691   3.758   6.235
 4256ETHY    C1 4176  14.531   3.544   5.767
 4257ETHY    C1 4177  14.384   3.429   5.269
 4258ETHY    C1 4178  14.257   3.410   4.751
 4259ETHY    C1 4179  14.152   3.486   4.224
 4260THSLK    S 4180  15.353   4.321   6.578
 4261ETHY    C1 4181  15.494   4.206   6.160
 4262ETHY    C1 4182  15.652   4.159   5.647
 4263ETHY    C1 4183  15.795   4.215   5.138
 4264ETHY    C1 4184  15.923   4.369   4.643
 4265ETHY    C1 4185  16.034   4.617   4.174
 4266AUSL   AUS 4186  14.677   4.212   8.082
 4267AUSL   AUS 4187  14.821   4.628   8.012
 4268AUL    AUL 4188  14.595   4.515   8.296
 4269THSLK    S 4189  14.574   4.162   8.322
 4270ETHY    C1 4190  14.353   3.976   8.674
 4271ETHY    C1 4191  14.080   3.841   9.118
 4272ETHY    C1 4192  13.803   3.811   9.571
 4273ETHY    C1 4193  13.525   3.880  10.021
 4274ETHY    C1 4194  13.250   4.048  10.458
 4275THSLK    S 4195  14.701   4.757   8.202
 4276ETHY    C1 4196  14.632   4.926   8.620
 4277ETHY    C1 4197  14.490   5.179   9.073
 4278ETHY    C1 4198  14.284   5.480   9.460
 4279ETHY    C1 4199  14.017   5.819   9.775
 4280ETHY    C1 4200  13.697   6.186  10.013
 4281AUSL   AUS 4201  14.923   4.060   8.175
 4282AUSL   AUS 4202  14.576   3.947   7.918
 4283AUL    AUL 4203  14.595   3.908   8.296
 4284THSLK    S 4204  14.398   3.783   8.029
 4285ETHY    C1 4205  14.030   3.530   8.125
 4286ETHY    C1 4206  13.615   3.251   8.323
 4287ETHY    C1 4207  13.237   3.011   8.611
 4288ETHY    C1 4208  12.903   2.815   8.978
 4289ETHY    C1 4209  12.617   2.669   9.415
 4290THSLK    S 4210  14.820   4.008   8.410
 4291ETHY    C1 4211  14.678   3.761   8.766
 4292ETHY    C1 4212  14.520   3.546   9.233
 4293ETHY    C1 4213  14.377   3.430   9.733
 4294ETHY    C1 4214  14.250   3.412  10.250
 4295ETHY    C1 4215  14.138   3.490  10.775
 4296AUSL   AUS 4216  14.677   4.212   6.922
 4297AUSL   AUS 4217  14.821   3.795   6.992
 4298AUL    AUL 4218  14.595   3.908   6.707
 4299THSLK    S 4219  14.582   4.162   6.677
 4300ETHY    C1 4220  14.365   3.976   6.322
 4301ETHY    C1 4221  14.090   3.841   5.879
 4302ETHY    C1 4222  13.809   3.811   5.429
 4303ETHY    C1 4223  13.531   3.880   4.978
 4304ETHY    C1 4224  13.263   4.048   4.537
 4305THSLK    S 4225  14.649   3.621   6.872
 4306ETHY    C1 4226  14.364   3.300   6.717
 4307ETHY    C1 4227  14.063   2.941   6.453
 4308ETHY    C1 4228  13.818   2.618   6.109
 4309ETHY    C1 4229  13.634   2.335   5.696
 4310ETHY    C1 4230  13.515   2.095   5.223
 4311AUSL   AUS 4231  14.923   4.363   6.828
 4312AUSL   AUS 4232  14.576   4.476   7.085
 4313AUL    AUL 4233  14.595   4.515   6.707
 4314THSLK    S 4234  14.445   4.606   6.893
 4315ETHY    C1 4235  14.239   4.706   6.499
 4316ETHY    C1 4236  13.937   4.870   6.085
 4317ETHY    C1 4237  13.583   5.082   5.748
 4318ETHY    C1 4238  13.190   5.336   5.494
 4319ETHY    C1 4239  12.765   5.629   5.324
 4320THSLK    S 4240  14.844   4.322   6.571
 4321ETHY    C1 4241  14.767   4.210   6.136
 4322ETHY    C1 4242  14.651   4.165   5.612
 4323ETHY    C1 4243  14.515   4.221   5.101
 4324ETHY    C1 4244  14.365   4.375   4.613
 4325ETHY    C1 4245  14.205   4.620   4.156
 4326AUSL   AUS 4246  15.666   4.621   7.502
 4327AUSL   AUS 4247  15.596   4.476   7.085
 4328AUL    AUL 4248  15.880   4.702   7.198
 4329THSLK    S 4249  15.775   4.579   6.930
 4330ETHY    C1 4250  16.142   4.590   6.659
 4331ETHY    C1 4251  16.557   4.692   6.332
 4332ETHY    C1 4252  16.935   4.890   6.014
 4333ETHY    C1 4253  17.269   5.177   5.713
 4334ETHY    C1 4254  17.555   5.547   5.438
 4335THSLK    S 4255  15.934   4.677   7.506
 4336ETHY    C1 4256  16.386   4.738   7.508
 4337ETHY    C1 4257  16.900   4.897   7.507
 4338ETHY    C1 4258  17.368   5.151   7.505
 4339ETHY    C1 4259  17.781   5.488   7.506
 4340ETHY    C1 4260  18.133   5.902   7.509
 4341AUSL   AUS 4261  15.760   4.375   7.350
 4342AUSL   AUS 4262  15.760   4.048   7.653
 4343AUL    AUL 4263  16.068   4.212   7.502
 4344THSLK    S 4264  16.019   4.418   7.348
 4345ETHY    C1 4265  16.464   4.348   7.278
 4346ETHY    C1 4266  16.995   4.355   7.190
 4347ETHY    C1 4267  17.508   4.465   7.101
 4348ETHY    C1 4268  17.993   4.671   7.017
 4349ETHY    C1 4269  18.440   4.968   6.940
 4350THSLK    S 4270  15.992   3.910   7.662
 4351ETHY    C1 4271  16.338   3.621   7.728
 4352ETHY    C1 4272  16.799   3.354   7.809
 4353ETHY    C1 4273  17.296   3.185   7.892
 4354ETHY    C1 4274  17.817   3.113   7.980
 4355ETHY    C1 4275  18.352   3.139   8.071
 4356AUSL   AUS 4276  15.760   4.375   7.653
 4357AUSL   AUS 4277  15.503   4.722   7.766
 4358AUL    AUL 4278  15.880   4.702   7.805
 4359THSLK    S 4279  15.686   4.841   7.926
 4360ETHY    C1 4280  16.058   4.996   8.139
 4361ETHY    C1 4281  16.458   5.261   8.385
 4362ETHY    C1 4282  16.792   5.605   8.615
 4363ETHY    C1 4283  17.054   6.018   8.827
 4364ETHY    C1 4284  17.241   6.490   9.019
 4365THSLK    S 4285  16.018   4.418   7.664
 4366ETHY    C1 4286  16.462   4.348   7.738
 4367ETHY    C1 4287  16.993   4.355   7.825
 4368ETHY    C1 4288  17.507   4.465   7.910
 4369ETHY    C1 4289  17.991   4.671   7.994
 4370ETHY    C1 4290  18.438   4.968   8.078
 4371AUSL   AUS 4291  14.506   4.621   7.502
 4372AUSL   AUS 4292  14.576   4.476   7.918
 4373AUL    AUL 4293  14.292   4.702   7.805
 4374THSLK    S 4294  14.440   4.599   8.109
 4375ETHY    C1 4295  14.231   4.695   8.503
 4376ETHY    C1 4296  13.930   4.861   8.917
 4377ETHY    C1 4297  13.579   5.076   9.254
 4378ETHY    C1 4298  13.185   5.330   9.509
 4379ETHY    C1 4299  12.756   5.617   9.678
 4380THSLK    S 4300  14.290   4.761   7.506
 4381ETHY    C1 4301  14.034   5.139   7.508
 4382ETHY    C1 4302  13.661   5.527   7.507
 4383ETHY    C1 4303  13.225   5.833   7.505
 4384ETHY    C1 4304  12.739   6.051   7.506
 4385ETHY    C1 4305  12.212   6.181   7.509
 4386AUSL   AUS 4306  14.412   4.375   7.350
 4387AUSL   AUS 4307  14.670   4.722   7.237
 4388AUL    AUL 4308  14.292   4.702   7.198
 4389THSLK    S 4309  14.181   4.490   7.303
 4390ETHY    C1 4310  13.834   4.678   7.075
 4391ETHY    C1 4311  13.374   4.870   6.872
 4392ETHY    C1 4312  12.876   5.020   6.758
 4393ETHY    C1 4313  12.355   5.130   6.733
 4394ETHY    C1 4314  11.821   5.200   6.796
 4395THSLK    S 4315  14.554   4.887   7.058
 4396ETHY    C1 4316  14.438   5.203   6.750
 4397ETHY    C1 4317  14.224   5.581   6.432
 4398ETHY    C1 4318  13.932   5.950   6.183
 4399ETHY    C1 4319  13.574   6.303   6.008
 4400ETHY    C1 4320  13.156   6.636   5.909
 4401AUSL   AUS 4321  14.412   4.375   7.653
 4402AUSL   AUS 4322  14.412   4.048   7.350
 4403AUL    AUL 4323  14.104   4.212   7.502
 4404THSLK    S 4324  14.154   3.974   7.390
 4405ETHY    C1 4325  13.710   3.939   7.486
 4406ETHY    C1 4326  13.179   3.858   7.518
 4407ETHY    C1 4327  12.665   3.733   7.458
 4408ETHY    C1 4328  12.181   3.565   7.311
 4409ETHY    C1 4329  11.734   3.358   7.083
 4410THSLK    S 4330  14.179   4.482   7.704
 4411ETHY    C1 4331  13.832   4.666   7.935
 4412ETHY    C1 4332  13.372   4.859   8.137
 4413ETHY    C1 4333  12.875   5.014   8.249
 4414ETHY    C1 4334  12.354   5.124   8.274
 4415ETHY    C1 4335  11.818   5.187   8.213
 4416AUSL   AUS 4336  15.666   3.802   7.502
 4417AUSL   AUS 4337  15.596   3.947   7.918
 4418AUL    AUL 4338  15.880   3.721   7.805
 4419THSLK    S 4339  15.882   3.662   7.506
 4420ETHY    C1 4340  16.138   3.284   7.508
 4421ETHY    C1 4341  16.511   2.896   7.507
 4422ETHY    C1 4342  16.947   2.590   7.505
 4423ETHY    C1 4343  17.433   2.372   7.506
 4424ETHY    C1 4344  17.960   2.242   7.509
 4425THSLK    S 4345  15.728   3.757   8.066
 4426ETHY    C1 4346  15.933   3.414   8.285
 4427ETHY    C1 4347  16.235   3.072   8.570
 4428ETHY    C1 4348  16.589   2.819   8.877
 4429ETHY    C1 4349  16.983   2.656   9.198
 4430ETHY    C1 4350  17.407   2.586   9.529
 4431AUSL   AUS 4351  15.760   4.048   7.350
 4432AUSL   AUS 4352  15.503   3.701   7.237
 4433AUL    AUL 4353  15.880   3.721   7.198
 4434THSLK    S 4354  15.993   3.910   7.350
 4435ETHY    C1 4355  16.341   3.621   7.289
 4436ETHY    C1 4356  16.800   3.354   7.206
 4437ETHY    C1 4357  17.297   3.185   7.118
 4438ETHY    C1 4358  17.819   3.113   7.031
 4439ETHY    C1 4359  18.354   3.139   6.947
 4440THSLK    S 4360  15.622   3.511   7.104
 4441ETHY    C1 4361  15.739   3.094   6.963
 4442ETHY    C1 4362  15.953   2.640   6.765
 4443ETHY    C1 4363  16.243   2.254   6.543
 4444ETHY    C1 4364  16.602   1.939   6.306
 4445ETHY    C1 4365  17.022   1.700   6.058
 4446AUSL   AUS 4366  14.506   3.802   7.502
 4447AUSL   AUS 4367  14.576   3.947   7.085
 4448AUL    AUL 4368  14.292   3.721   7.198
 4449THSLK    S 4369  14.403   3.776   6.973
 4450ETHY    C1 4370  14.038   3.519   6.877
 4451ETHY    C1 4371  13.622   3.242   6.679
 4452ETHY    C1 4372  13.242   3.005   6.392
 4453ETHY    C1 4373  12.908   2.809   6.025
 4454ETHY    C1 4374  12.626   2.657   5.587
 4455THSLK    S 4375  14.238   3.746   7.506
 4456ETHY    C1 4376  13.786   3.685   7.508
 4457ETHY    C1 4377  13.272   3.526   7.507
 4458ETHY    C1 4378  12.804   3.272   7.505
 4459ETHY    C1 4379  12.391   2.935   7.506
 4460ETHY    C1 4380  12.039   2.521   7.509
 4461AUSL   AUS 4381  14.412   4.048   7.653
 4462AUSL   AUS 4382  14.670   3.701   7.766
 4463AUL    AUL 4383  14.292   3.721   7.805
 4464THSLK    S 4384  14.482   3.557   7.880
 4465ETHY    C1 4385  14.108   3.300   7.926
 4466ETHY    C1 4386  13.710   2.960   8.052
 4467ETHY    C1 4387  13.377   2.598   8.255
 4468ETHY    C1 4388  13.115   2.224   8.529
 4469ETHY    C1 4389  12.924   1.846   8.870
 4470THSLK    S 4390  14.153   3.981   7.617
 4471ETHY    C1 4391  13.708   3.951   7.524
 4472ETHY    C1 4392  13.177   3.869   7.490
 4473ETHY    C1 4393  12.664   3.740   7.549
 4474ETHY    C1 4394  12.180   3.572   7.696
 4475ETHY    C1 4395  11.732   3.370   7.928
 4476AUSL   AUS 4396  15.086   4.792   7.911
 4477AUSL   AUS 4397  14.670   4.722   7.766
 4478AUL    AUL 4398  14.783   5.006   7.992
 4479THSLK    S 4399  14.550   4.881   7.950
 4480ETHY    C1 4400  14.433   5.193   8.261
 4481ETHY    C1 4401  14.219   5.573   8.578
 4482ETHY    C1 4402  13.929   5.944   8.824
 4483ETHY    C1 4403  13.571   6.298   9.000
 4484ETHY    C1 4404  13.150   6.626   9.102
 4485THSLK    S 4405  15.126   5.018   8.035
 4486ETHY    C1 4406  15.283   5.320   8.339
 4487ETHY    C1 4407  15.398   5.726   8.672
 4488ETHY    C1 4408  15.425   6.170   8.964
 4489ETHY    C1 4409  15.365   6.639   9.211
 4490ETHY    C1 4410  15.221   7.123   9.410
 4491AUSL   AUS 4411  14.934   4.885   7.665
 4492AUSL   AUS 4412  15.238   4.885   7.338
 4493AUL    AUL 4413  15.086   5.193   7.502
 4494THSLK    S 4414  14.975   5.133   7.774
 4495ETHY    C1 4415  15.084   5.543   7.942
 4496ETHY    C1 4416  15.128   6.050   8.118
 4497ETHY    C1 4417  15.071   6.558   8.265
 4498ETHY    C1 4418  14.918   7.055   8.383
 4499ETHY    C1 4419  14.675   7.532   8.472
 4500THSLK    S 4420  15.291   5.120   7.241
 4501ETHY    C1 4421  15.536   5.476   7.094
 4502ETHY    C1 4422  15.749   5.941   6.927
 4503ETHY    C1 4423  15.864   6.439   6.779
 4504ETHY    C1 4424  15.884   6.958   6.655
 4505ETHY    C1 4425  15.809   7.487   6.558
 4506AUSL   AUS 4426  15.238   4.885   7.665
 4507AUSL   AUS 4427  15.351   4.628   8.012
 4508AUL    AUL 4428  15.389   5.006   7.992
 4509THSLK    S 4429  15.523   4.741   8.184
 4510ETHY    C1 4430  15.808   4.844   8.524
 4511ETHY    C1 4431  16.110   5.048   8.921
 4512ETHY    C1 4432  16.355   5.338   9.294
 4513ETHY    C1 4433  16.539   5.701   9.638
 4514ETHY    C1 4434  16.658   6.131   9.948
 4515THSLK    S 4435  15.289   5.119   7.771
 4516ETHY    C1 4436  15.533   5.473   7.922
 4517ETHY    C1 4437  15.746   5.939   8.087
 4518ETHY    C1 4438  15.862   6.438   8.231
 4519ETHY    C1 4439  15.881   6.956   8.356
 4520ETHY    C1 4440  15.806   7.484   8.458
 4521AUSL   AUS 4441  15.086   3.632   7.911
 4522AUSL   AUS 4442  15.503   3.701   7.766
 4523AUL    AUL 4443  15.389   3.417   7.992
 4524THSLK    S 4444  15.042   3.377   7.990
 4525ETHY    C1 4445  14.882   2.973   8.128
 4526ETHY    C1 4446  14.768   2.492   8.341
 4527ETHY    C1 4447  14.743   2.031   8.605
 4528ETHY    C1 4448  14.802   1.601   8.915
 4529ETHY    C1 4449  14.943   1.209   9.263
 4530THSLK    S 4450  15.618   3.512   7.908
 4531ETHY    C1 4451  15.734   3.096   8.052
 4532ETHY    C1 4452  15.948   2.643   8.248
 4533ETHY    C1 4453  16.240   2.255   8.467
 4534ETHY    C1 4454  16.599   1.940   8.705
 4535ETHY    C1 4455  17.016   1.703   8.958
 4536AUSL   AUS 4456  14.934   3.538   7.665
 4537AUSL   AUS 4457  14.821   3.795   8.012
 4538AUL    AUL 4458  14.783   3.417   7.992
 4539THSLK    S 4459  14.881   3.298   7.745
 4540ETHY    C1 4460  14.636   2.917   7.801
 4541ETHY    C1 4461  14.423   2.432   7.897
 4542ETHY    C1 4462  14.308   1.929   8.025
 4543ETHY    C1 4463  14.289   1.420   8.186
 4544ETHY    C1 4464  14.363   0.917   8.374
 4545THSLK    S 4465  14.643   3.627   8.133
 4546ETHY    C1 4466  14.355   3.309   8.289
 4547ETHY    C1 4467  14.055   2.949   8.552
 4548ETHY    C1 4468  13.812   2.623   8.896
 4549ETHY    C1 4469  13.628   2.340   9.309
 4550ETHY    C1 4470  13.504   2.106   9.783
 4551AUSL   AUS 4471  15.238   3.538   7.665
 4552AUSL   AUS 4472  14.934   3.538   7.338
 4553AUL    AUL 4473  15.086   3.230   7.502
 4554THSLK    S 4474  14.883   3.295   7.266
 4555ETHY    C1 4475  14.639   2.913   7.215
 4556ETHY    C1 4476  14.426   2.429   7.117
 4557ETHY    C1 4477  14.310   1.927   6.984
 4558ETHY    C1 4478  14.291   1.418   6.825
 4559ETHY    C1 4479  14.367   0.913   6.642
 4560THSLK    S 4480  15.195   3.282   7.749
 4561ETHY    C1 4481  15.085   2.846   7.821
 4562ETHY    C1 4482  15.042   2.320   7.928
 4563ETHY    C1 4483  15.099   1.808   8.059
 4564ETHY    C1 4484  15.252   1.320   8.213
 4565ETHY    C1 4485  15.494   0.867   8.388
 4566AUSL   AUS 4486  15.086   4.792   7.093
 4567AUSL   AUS 4487  15.503   4.722   7.237
 4568AUL    AUL 4488  15.389   5.006   7.011
 4569THSLK    S 4489  15.130   5.022   6.975
 4570ETHY    C1 4490  15.290   5.326   6.674
 4571ETHY    C1 4491  15.404   5.731   6.339
 4572ETHY    C1 4492  15.429   6.174   6.045
 4573ETHY    C1 4493  15.370   6.643   5.798
 4574ETHY    C1 4494  15.229   7.130   5.604
 4575THSLK    S 4495  15.690   4.843   7.085
 4576ETHY    C1 4496  16.064   4.999   6.876
 4577ETHY    C1 4497  16.462   5.263   6.629
 4578ETHY    C1 4498  16.795   5.607   6.395
 4579ETHY    C1 4499  17.057   6.019   6.184
 4580ETHY    C1 4500  17.248   6.493   5.998
 4581AUSL   AUS 4501  14.934   4.885   7.338
 4582AUSL   AUS 4502  14.821   4.628   6.992
 4583AUL    AUL 4503  14.783   5.006   7.011
 4584THSLK    S 4504  14.977   5.136   7.237
 4585ETHY    C1 4505  15.087   5.547   7.074
 4586ETHY    C1 4506  15.130   6.053   6.896
 4587ETHY    C1 4507  15.073   6.561   6.745
 4588ETHY    C1 4508  14.920   7.058   6.627
 4589ETHY    C1 4509  14.678   7.537   6.545
 4590THSLK    S 4510  14.707   4.763   6.802
 4591ETHY    C1 4511  14.641   4.935   6.385
 4592ETHY    C1 4512  14.498   5.187   5.932
 4593ETHY    C1 4513  14.289   5.486   5.544
 4594ETHY    C1 4514  14.023   5.824   5.230
 4595ETHY    C1 4515  13.707   6.197   4.993
 4596AUSL   AUS 4516  15.086   3.632   7.093
 4597AUSL   AUS 4517  14.670   3.701   7.237
 4598AUL    AUL 4518  14.783   3.417   7.011
 4599THSLK    S 4519  14.486   3.551   7.128
 4600ETHY    C1 4520  14.114   3.290   7.085
 4601ETHY    C1 4521  13.715   2.952   6.958
 4602ETHY    C1 4522  13.380   2.593   6.753
 4603ETHY    C1 4523  13.118   2.219   6.478
 4604ETHY    C1 4524  12.931   1.836   6.142
 4605THSLK    S 4525  15.046   3.373   7.019
 4606ETHY    C1 4526  14.889   2.967   6.885
 4607ETHY    C1 4527  14.774   2.487   6.671
 4608ETHY    C1 4528  14.747   2.028   6.404
 4609ETHY    C1 4529  14.807   1.597   6.094
 4610ETHY    C1 4530  14.951   1.202   5.751
 4611AUSL   AUS 4531  15.238   3.538   7.338
 4612AUSL   AUS 4532  15.351   3.795   6.992
 4613AUL    AUL 4533  15.389   3.417   7.011
 4614THSLK    S 4534  15.197   3.281   7.262
 4615ETHY    C1 4535  15.088   2.843   7.195
 4616ETHY    C1 4536  15.045   2.317   7.086
 4617ETHY    C1 4537  15.101   1.806   6.951
 4618ETHY    C1 4538  15.254   1.318   6.798
 4619ETHY    C1 4539  15.498   0.864   6.629
 4620THSLK    S 4540  15.471   3.605   6.853
 4621ETHY    C1 4541  15.540   3.219   6.621
 4622ETHY    C1 4542  15.682   2.811   6.300
 4623ETHY    C1 4543  15.889   2.475   5.942
 4624ETHY    C1 4544  16.155   2.218   5.559
 4625ETHY    C1 4545  16.475   2.040   5.158
 4626AUC    AUC 4546  23.451  19.212   7.502
 4627AUC    AUC 4547  23.697  19.212   7.350
 4628AUC    AUC 4548  23.697  19.212   7.653
 4629AUC    AUC 4549  23.206  19.212   7.350
 4630AUC    AUC 4550  23.206  19.212   7.653
 4631AUC    AUC 4551  23.299  19.457   7.502
 4632AUC    AUC 4552  23.603  19.457   7.502
 4633AUC    AUC 4553  23.299  18.966   7.502
 4634AUC    AUC 4554  23.603  18.966   7.502
 4635AUC    AUC 4555  23.451  19.060   7.747
 4636AUC    AUC 4556  23.451  19.363   7.747
 4637AUC    AUC 4557  23.451  19.060   7.256
 4638AUC    AUC 4558  23.451  19.363   7.256
 4639AUC    AUC 4559  23.942  19.212   7.198
 4640AUC    AUC 4560  23.942  19.212   7.502
 4641AUC    AUC 4561  23.942  19.212   7.805
 4642AUC    AUC 4562  22.960  19.212   7.198
 4643AUC    AUC 4563  22.960  19.212   7.502
 4644AUC    AUC 4564  22.960  19.212   7.805
 4645AUC    AUC 4565  23.148  19.702   7.502
 4646AUC    AUC 4566  23.451  19.702   7.502
 4647AUC    AUC 4567  23.754  19.702   7.502
 4648AUC    AUC 4568  23.148  18.721   7.502
 4649AUC    AUC 4569  23.451  18.721   7.502
 4650AUC    AUC 4570  23.754  18.721   7.502
 4651AUC    AUC 4571  23.451  18.908   7.992
 4652AUC    AUC 4572  23.451  19.212   7.992
 4653AUC    AUC 4573  23.451  19.515   7.992
 4654AUC    AUC 4574  23.451  18.908   7.011
 4655AUC    AUC 4575  23.451  19.212   7.011
 4656AUC    AUC 4576  23.451  19.515   7.011
 4657AUC    AUC 4577  23.697  19.060   7.899
 4658AUC    AUC 4578  23.697  19.363   7.899
 4659AUC    AUC 4579  23.697  19.060   7.105
 4660AUC    AUC 4580  23.697  19.363   7.105
 4661AUC    AUC 4581  23.206  19.060   7.899
 4662AUC    AUC 4582  23.206  19.363   7.899
 4663AUC    AUC 4583  23.206  19.060   7.105
 4664AUC    AUC 4584  23.206  19.363   7.105
 4665AUC    AUC 4585  23.848  19.457   7.350
 4666AUC    AUC 4586  23.848  19.457   7.653
 4667AUC    AUC 4587  23.054  19.457   7.350
 4668AUC    AUC 4588  23.054  19.457   7.653
 4669AUC    AUC 4589  23.848  18.966   7.350
 4670AUC    AUC 4590  23.848  18.966   7.653
 4671AUC    AUC 4591  23.054  18.966   7.350
 4672AUC    AUC 4592  23.054  18.966   7.653
 4673AUC    AUC 4593  23.299  19.609   7.747
 4674AUC    AUC 4594  23.603  19.609   7.747
 4675AUC    AUC 4595  23.299  18.814   7.747
 4676AUC    AUC 4596  23.603  18.814   7.747
 4677AUC    AUC 4597  23.299  19.609   7.256
 4678AUC    AUC 4598  23.603  19.609   7.256
 4679AUC    AUC 4599  23.299  18.814   7.256
 4680AUC    AUC 4600  23.603  18.814   7.256
 4681AUSL   AUS 4601  23.860  19.212   8.082
 4682AUSL   AUS 4602  23.716  18.795   8.012
 4683AUL    AUL 4603  23.942  18.908   8.296
 4684THSLK    S 4604  23.830  18.607   8.156
 4685ETHY    C1 4605  23.896  18.222   8.391
 4686ETHY    C1 4606  24.039  17.814   8.710
 4687ETHY    C1 4607  24.248  17.478   9.066
 4688ETHY    C1 4608  24.514  17.220   9.450
 4689ETHY    C1 4609  24.830  17.044   9.855
 4690THSLK    S 4610  23.956  19.162   8.326
 4691ETHY    C1 4611  24.172  18.976   8.681
 4692ETHY    C1 4612  24.447  18.841   9.124
 4693ETHY    C1 4613  24.728  18.811   9.575
 4694ETHY    C1 4614  25.006  18.880  10.025
 4695ETHY    C1 4615  25.275  19.048  10.466
 4696AUSL   AUS 4616  23.615  19.060   8.175
 4697AUSL   AUS 4617  23.288  19.363   8.175
 4698AUL    AUL 4618  23.451  19.212   8.483
 4699THSLK    S 4619  23.693  19.007   8.417
 4700ETHY    C1 4620  23.770  18.757   8.790
 4701ETHY    C1 4621  23.886  18.540   9.269
 4702ETHY    C1 4622  24.023  18.424   9.769
 4703ETHY    C1 4623  24.173  18.406  10.281
 4704ETHY    C1 4624  24.332  18.487  10.794
 4705THSLK    S 4625  23.201  19.320   8.431
 4706ETHY    C1 4626  23.119  19.208   8.864
 4707ETHY    C1 4627  23.005  19.162   9.388
 4708ETHY    C1 4628  22.873  19.220   9.901
 4709ETHY    C1 4629  22.722  19.373  10.389
 4710ETHY    C1 4630  22.556  19.617  10.844
 4711AUSL   AUS 4631  23.615  19.363   8.175
 4712AUSL   AUS 4632  23.961  19.476   7.918
 4713AUL    AUL 4633  23.942  19.515   8.296
 4714THSLK    S 4634  23.702  19.417   8.414
 4715ETHY    C1 4635  23.783  19.668   8.786
 4716ETHY    C1 4636  23.897  19.884   9.265
 4717ETHY    C1 4637  24.030  20.000   9.767
 4718ETHY    C1 4638  24.180  20.018  10.279
 4719ETHY    C1 4639  24.346  19.938  10.789
 4720THSLK    S 4640  24.135  19.578   8.080
 4721ETHY    C1 4641  24.499  19.588   8.354
 4722ETHY    C1 4642  24.915  19.690   8.680
 4723ETHY    C1 4643  25.295  19.889   8.995
 4724ETHY    C1 4644  25.630  20.176   9.296
 4725ETHY    C1 4645  25.911  20.544   9.577
 4726AUSL   AUS 4646  23.860  19.212   6.922
 4727AUSL   AUS 4647  23.716  19.628   6.992
 4728AUL    AUL 4648  23.942  19.515   6.707
 4729THSLK    S 4649  23.963  19.162   6.681
 4730ETHY    C1 4650  24.184  18.976   6.329
 4731ETHY    C1 4651  24.457  18.841   5.885
 4732ETHY    C1 4652  24.735  18.811   5.432
 4733ETHY    C1 4653  25.013  18.880   4.982
 4734ETHY    C1 4654  25.287  19.048   4.545
 4735THSLK    S 4655  23.894  19.743   6.825
 4736ETHY    C1 4656  24.182  19.848   6.488
 4737ETHY    C1 4657  24.482  20.052   6.090
 4738ETHY    C1 4658  24.725  20.340   5.714
 4739ETHY    C1 4659  24.909  20.704   5.371
 4740ETHY    C1 4660  25.033  21.135   5.065
 4741AUSL   AUS 4661  23.615  19.060   6.828
 4742AUSL   AUS 4662  23.961  18.947   7.085
 4743AUL    AUL 4663  23.942  18.908   6.707
 4744THSLK    S 4664  24.098  18.755   6.944
 4745ETHY    C1 4665  24.306  18.412   6.729
 4746ETHY    C1 4666  24.607  18.070   6.442
 4747ETHY    C1 4667  24.958  17.817   6.133
 4748ETHY    C1 4668  25.352  17.655   5.812
 4749ETHY    C1 4669  25.781  17.584   5.486
 4750THSLK    S 4670  23.702  19.006   6.590
 4751ETHY    C1 4671  23.783  18.755   6.217
 4752ETHY    C1 4672  23.897  18.539   5.738
 4753ETHY    C1 4673  24.030  18.423   5.236
 4754ETHY    C1 4674  24.180  18.405   4.725
 4755ETHY    C1 4675  24.346  18.485   4.214
 4756AUSL   AUS 4676  23.615  19.363   6.828
 4757AUSL   AUS 4677  23.288  19.060   6.828
 4758AUL    AUL 4678  23.451  19.212   6.520
 4759THSLK    S 4679  23.193  19.006   6.592
 4760ETHY    C1 4680  23.056  18.758   6.235
 4761ETHY    C1 4681  22.896  18.544   5.767
 4762ETHY    C1 4682  22.749  18.429   5.269
 4763ETHY    C1 4683  22.622  18.410   4.751
 4764ETHY    C1 4684  22.517  18.486   4.224
 4765THSLK    S 4685  23.718  19.321   6.578
 4766ETHY    C1 4686  23.859  19.206   6.160
 4767ETHY    C1 4687  24.017  19.159   5.647
 4768ETHY    C1 4688  24.160  19.215   5.138
 4769ETHY    C1 4689  24.288  19.369   4.643
 4770ETHY    C1 4690  24.399  19.617   4.174
 4771AUSL   AUS 4691  23.042  19.212   8.082
 4772AUSL   AUS 4692  23.186  19.628   8.012
 4773AUL    AUL 4693  22.960  19.515   8.296
 4774THSLK    S 4694  22.939  19.162   8.322
 4775ETHY    C1 4695  22.718  18.976   8.674
 4776ETHY    C1 4696  22.445  18.841   9.118
 4777ETHY    C1 4697  22.168  18.811   9.571
 4778ETHY    C1 4698  21.890  18.880  10.021
 4779ETHY    C1 4699  21.615  19.048  10.458
 4780THSLK    S 4700  23.066  19.757   8.202
 4781ETHY    C1 4701  22.997  19.926   8.620
 4782ETHY    C1 4702  22.855  20.179   9.073
 4783ETHY    C1 4703  22.649  20.480   9.460
 4784ETHY    C1 4704  22.382  20.819   9.775
 4785ETHY    C1 4705  22.062  21.186  10.013
 4786AUSL   AUS 4706  23.288  19.060   8.175
 4787AUSL   AUS 4707  22.941  18.947   7.918
 4788AUL    AUL 4708  22.960  18.908   8.296
 4789THSLK    S 4709  22.763  18.783   8.029
 4790ETHY    C1 4710  22.395  18.530   8.125
 4791ETHY    C1 4711  21.980  18.251   8.323
 4792ETHY    C1 4712  21.602  18.011   8.611
 4793ETHY    C1 4713  21.268  17.815   8.978
 4794ETHY    C1 4714  20.982  17.669   9.415
 4795THSLK    S 4715  23.185  19.008   8.410
 4796ETHY    C1 4716  23.043  18.761   8.766
 4797ETHY    C1 4717  22.885  18.546   9.233
 4798ETHY    C1 4718  22.742  18.430   9.733
 4799ETHY    C1 4719  22.615  18.412  10.250
 4800ETHY    C1 4720  22.503  18.490  10.775
 4801AUSL   AUS 4721  23.042  19.212   6.922
 4802AUSL   AUS 4722  23.186  18.795   6.992
 4803AUL    AUL 4723  22.960  18.908   6.707
 4804THSLK    S 4724  22.947  19.162   6.677
 4805ETHY    C1 4725  22.730  18.976   6.322
 4806ETHY    C1 4726  22.455  18.841   5.879
 4807ETHY    C1 4727  22.174  18.811   5.429
 4808ETHY    C1 4728  21.896  18.880   4.978
 4809ETHY    C1 4729  21.628  19.048   4.537
 4810THSLK    S 4730  23.014  18.621   6.872
 4811ETHY    C1 4731  22.729  18.300   6.717
 4812ETHY    C1 4732  22.428  17.941   6.453
 4813ETHY    C1 4733  22.183  17.618   6.109
 4814ETHY    C1 4734  21.999  17.335   5.696
 4815ETHY    C1 4735  21.880  17.095   5.223
 4816AUSL   AUS 4736  23.288  19.363   6.828
 4817AUSL   AUS 4737  22.941  19.476   7.085
 4818AUL    AUL 4738  22.960  19.515   6.707
 4819THSLK    S 4739  22.810  19.606   6.893
 4820ETHY    C1 4740  22.604  19.706   6.499
 4821ETHY    C1 4741  22.302  19.870   6.085
 4822ETHY    C1 4742  21.948  20.082   5.748
 4823ETHY    C1 4743  21.555  20.336   5.494
 4824ETHY    C1 4744  21.130  20.629   5.324
 4825THSLK    S 4745  23.209  19.322   6.571
 4826ETHY    C1 4746  23.132  19.210   6.136
 4827ETHY    C1 4747  23.016  19.165   5.612
 4828ETHY    C1 4748  22.880  19.221   5.101
 4829ETHY    C1 4749  22.730  19.375   4.613
 4830ETHY    C1 4750  22.570  19.620   4.156
 4831AUSL   AUS 4751  24.031  19.621   7.502
 4832AUSL   AUS 4752  23.961  19.476   7.085
 4833AUL    AUL 4753  24.245  19.702   7.198
 4834THSLK    S 4754  24.140  19.579   6.930
 4835ETHY    C1 4755  24.507  19.590   6.659
 4836ETHY    C1 4756  24.922  19.692   6.332
 4837ETHY    C1 4757  25.300  19.890   6.014
 4838ETHY    C1 4758  25.634  20.177   5.713
 4839ETHY    C1 4759  25.920  20.547   5.438
 4840THSLK    S 4760  24.299  19.677   7.506
 4841ETHY    C1 4761  24.751  19.738   7.508
 4842ETHY    C1 4762  25.265  19.897   7.507
 4843ETHY    C1 4763  25.733  20.151   7.505
 4844ETHY    C1 4764  26.146  20.488   7.506
 4845ETHY    C1 4765  26.498  20.902   7.509
 4846AUSL   AUS 4766  24.125  19.375   7.350
 4847AUSL   AUS 4767  24.125  19.048   7.653
 4848AUL    AUL 4768  24.433  19.212   7.502
 4849THSLK    S 4769  24.384  19.418   7.348
 4850ETHY    C1 4770  24.829  19.348   7.278
 4851ETHY    C1 4771  25.360  19.355   7.190
 4852ETHY    C1 4772  25.873  19.465   7.101
 4853ETHY    C1 4773  26.358  19.671   7.017
 4854ETHY    C1 4774  26.805  19.968   6.940
 4855THSLK    S 4775  24.357  18.910   7.662
 4856ETHY    C1 4776  24.703  18.621   7.728
 4857ETHY    C1 4777  25.164  18.354   7.809
 4858ETHY    C1 4778  25.661  18.185   7.892
 4859ETHY    C1 4779  26.182  18.113   7.980
 4860ETHY    C1 4780  26.717  18.139   8.071
 4861AUSL   AUS 4781  24.125  19.375   7.653
 4862AUSL   AUS 4782  23.868  19.722   7.766
 4863AUL    AUL 4783  24.245  19.702   7.805
 4864THSLK    S 4784  24.051  19.841   7.926
 4865ETHY    C1 4785  24.423  19.996   8.139
 4866ETHY    C1 4786  24.823  20.261   8.385
 4867ETHY    C1 4787  25.157  20.605   8.615
 4868ETHY    C1 4788  25.419  21.018   8.827
 4869ETHY    C1 4789  25.606  21.490   9.019
 4870THSLK    S 4790  24.383  19.418   7.664
 4871ETHY    C1 4791  24.827  19.348   7.738
 4872ETHY    C1 4792  25.358  19.355   7.825
 4873ETHY    C1 4793  25.872  19.465   7.910
 4874ETHY    C1 4794  26.356  19.671   7.994
 4875ETHY    C1 4795  26.803  19.968   8.078
 4876AUSL   AUS 4796  22.871  19.621   7.502
 4877AUSL   AUS 4797  22.941  19.476   7.918
 4878AUL    AUL 4798  22.657  19.702   7.805
 4879THSLK    S 4799  22.805  19.599   8.109
 4880ETHY    C1 4800  22.596  19.695   8.503
 4881ETHY    C1 4801  22.295  19.861   8.917
 4882ETHY    C1 4802  21.944  20.076   9.254
 4883ETHY    C1 4803  21.550  20.330   9.509
 4884ETHY    C1 4804  21.121  20.617   9.678
 4885THSLK    S 4805  22.655  19.761   7.506
 4886ETHY    C1 4806  22.399  20.139   7.508
 4887ETHY    C1 4807  22.026  20.527   7.507
 4888ETHY    C1 4808  21.590  20.833   7.505
 4889ETHY    C1 4809  21.104  21.051   7.506
 4890ETHY    C1 4810  20.577  21.181   7.509
 4891AUSL   AUS 4811  22.777  19.375   7.350
 4892AUSL   AUS 4812  23.035  19.722   7.237
 4893AUL    AUL 4813  22.657  19.702   7.198
 4894THSLK    S 4814  22.546  19.490   7.303
 4895ETHY    C1 4815  22.199  19.678   7.075
 4896ETHY    C1 4816  21.739  19.870   6.872
 4897ETHY    C1 4817  21.241  20.020   6.758
 4898ETHY    C1 4818  20.720  20.130   6.733
 4899ETHY    C1 4819  20.186  20.200   6.796
 4900THSLK    S 4820  22.919  19.887   7.058
 4901ETHY    C1 4821  22.803  20.203   6.750
 4902ETHY    C1 4822  22.589  20.581   6.432
 4903ETHY    C1 4823  22.297  20.950   6.183
 4904ETHY    C1 4824  21.939  21.303   6.008
 4905ETHY    C1 4825  21.521  21.636   5.909
 4906AUSL   AUS 4826  22.777  19.375   7.653
 4907AUSL   AUS 4827  22.777  19.048   7.350
 4908AUL    AUL 4828  22.469  19.212   7.502
 4909THSLK    S 4829  22.519  18.974   7.390
 4910ETHY    C1 4830  22.075  18.939   7.486
 4911ETHY    C1 4831  21.544  18.858   7.518
 4912ETHY    C1 4832  21.030  18.733   7.458
 4913ETHY    C1 4833  20.546  18.565   7.311
 4914ETHY    C1 4834  20.099  18.358   7.083
 4915THSLK    S 4835  22.544  19.482   7.704
 4916ETHY    C1 4836  22.197  19.666   7.935
 4917ETHY    C1 4837  21.737  19.859   8.137
 4918ETHY    C1 4838  21.240  20.014   8.249
 4919ETHY    C1 4839  20.719  20.124   8.274
 4920ETHY    C1 4840  20.183  20.187   8.213
 4921AUSL   AUS 4841  24.031  18.802   7.502
 4922AUSL   AUS 4842  23.961  18.947   7.918
 4923AUL    AUL 4843  24.245  18.721   7.805
 4924THSLK    S 4844  24.247  18.662   7.506
 4925ETHY    C1 4845  24.503  18.284   7.508
 4926ETHY    C1 4846  24.876  17.896   7.507
 4927ETHY    C1 4847  25.312  17.590   7.505
 4928ETHY    C1 4848  25.798  17.372   7.506
 4929ETHY    C1 4849  26.325  17.242   7.509
 4930THSLK    S 4850  24.093  18.757   8.066
 4931ETHY    C1 4851  24.298  18.414   8.285
 4932ETHY    C1 4852  24.600  18.072   8.570
 4933ETHY    C1 4853  24.954  17.819   8.877
 4934ETHY    C1 4854  25.348  17.656   9.198
 4935ETHY    C1 4855  25.772  17.586   9.529
 4936AUSL   AUS 4856  24.125  19.048   7.350
 4937AUSL   AUS 4857  23.868  18.701   7.237
 4938AUL    AUL 4858  24.245  18.721   7.198
 4939THSLK    S 4859  24.358  18.910   7.350
 4940ETHY    C1 4860  24.706  18.621   7.289
 4941ETHY    C1 4861  25.165  18.354   7.206
 4942ETHY    C1 4862  25.662  18.185   7.118
 4943ETHY    C1 4863  26.184  18.113   7.031
 4944ETHY    C1 4864  26.719  18.139   6.947
 4945THSLK    S 4865  23.987  18.511   7.104
 4946ETHY    C1 4866  24.104  18.094   6.963
 4947ETHY    C1 4867  24.318  17.640   6.765
 4948ETHY    C1 4868  24.608  17.254   6.543
 4949ETHY    C1 4869  24.967  16.939   6.306
 4950ETHY    C1 4870  25.387  16.700   6.058
 4951AUSL   AUS 4871  22.871  18.802   7.502
 4952AUSL   AUS 4872  22.941  18.947   7.085
 4953AUL    AUL 4873  22.657  18.721   7.198
 4954THSLK    S 4874  22.768  18.776   6.973
 4955ETHY    C1 4875  22.403  18.519   6.877
 4956ETHY    C1 4876  21.987  18.242   6.679
 4957ETHY    C1 4877  21.607  18.005   6.392
 4958ETHY    C1 4878  21.273  17.809   6.025
 4959ETHY    C1 4879  20.991  17.657   5.587
 4960THSLK    S 4880  22.603  18.746   7.506
 4961ETHY    C1 4881  22.151  18.685   7.508
 4962ETHY    C1 4882  21.637  18.526   7.507
 4963ETHY    C1 4883  21.169  18.272   7.505
 4964ETHY    C1 4884  20.756  17.935   7.506
 4965ETHY    C1 4885  20.404  17.521   7.509
 4966AUSL   AUS 4886  22.777  19.048   7.653
 4967AUSL   AUS 4887  23.035  18.701   7.766
 4968AUL    AUL 4888  22.657  18.721   7.805
 4969THSLK    S 4889  22.847  18.557   7.880
 4970ETHY    C1 4890  22.473  18.300   7.926
 4971ETHY    C1 4891  22.075  17.960   8.052
 4972ETHY    C1 4892  21.742  17.598   8.255
 4973ETHY    C1 4893  21.480  17.224   8.529
 4974ETHY    C1 4894  21.289  16.846   8.870
 4975THSLK    S 4895  22.518  18.981   7.617
 4976ETHY    C1 4896  22.073  18.951   7.524
 4977ETHY    C1 4897  21.542  18.869   7.490
 4978ETHY    C1 4898  21.029  18.740   7.549
 4979ETHY    C1 4899  20.545  18.572   7.696
 4980ETHY    C1 4900  20.097  18.370   7.928
 4981AUSL   AUS 4901  23.451  19.792   7.911
 4982AUSL   AUS 4902  23.035  19.722   7.766
 4983AUL    AUL 4903  23.148  20.006   7.992
 4984THSLK    S 4904  22.915  19.881   7.950
 4985ETHY    C1 4905  22.798  20.193   8.261
 4986ETHY    C1 4906  22.584  20.573   8.578
 4987ETHY    C1 4907  22.294  20.944   8.824
 4988ETHY    C1 4908  21.936  21.298   9.000
 4989ETHY    C1 4909  21.515  21.626   9.102
 4990THSLK    S 4910  23.491  20.018   8.035
 4991ETHY    C1 4911  23.648  20.320   8.339
 4992ETHY    C1 4912  23.763  20.726   8.672
 4993ETHY    C1 4913  23.790  21.170   8.964
 4994ETHY    C1 4914  23.730  21.639   9.211
 4995ETHY    C1 4915  23.586  22.123   9.410
 4996AUSL   AUS 4916  23.299  19.885   7.665
 4997AUSL   AUS 4917  23.603  19.885   7.338
 4998AUL    AUL 4918  23.451  20.193   7.502
 4999THSLK    S 4919  23.340  20.133   7.774
 5000ETHY    C1 4920  23.449  20.543   7.942
 5001ETHY    C1 4921  23.493  21.050   8.118
 5002ETHY    C1 4922  23.436  21.558   8.265
 5003ETHY    C1 4923  23.283  22.055   8.383
 5004ETHY    C1 4924  23.040  22.532   8.472
 5005THSLK    S 4925  23.656  20.120   7.241
 5006ETHY    C1 4926  23.901  20.476   7.094
 5007ETHY    C1 4927  24.114  20.941   6.927
 5008ETHY    C1 4928  24.229  21.439   6.779
 5009ETHY    C1 4929  24.249  21.958   6.655
 5010ETHY    C1 4930  24.174  22.487   6.558
 5011AUSL   AUS 4931  23.603  19.885   7.665
 5012AUSL   AUS 4932  23.716  19.628   8.012
 5013AUL    AUL 4933  23.754  20.006   7.992
 5014THSLK    S 4934  23.888  19.741   8.184
 5015ETHY    C1 4935  24.173  19.844   8.524
 5016ETHY    C1 4936  24.475  20.048   8.921
 5017ETHY    C1 4937  24.720  20.338   9.294
 5018ETHY    C1 4938  24.904  20.701   9.638
 5019ETHY    C1 4939  25.023  21.131   9.948
 5020THSLK    S 4940  23.654  20.119   7.771
 5021ETHY    C1 4941  23.898  20.473   7.922
 5022ETHY    C1 4942  24.111  20.939   8.087
 5023ETHY    C1 4943  24.227  21.438   8.231
 5024ETHY    C1 4944  24.246  21.956   8.356
 5025ETHY    C1 4945  24.171  22.484   8.458
 5026AUSL   AUS 4946  23.451  18.632   7.911
 5027AUSL   AUS 4947  23.868  18.701   7.766
 5028AUL    AUL 4948  23.754  18.417   7.992
 5029THSLK    S 4949  23.407  18.377   7.990
 5030ETHY    C1 4950  23.247  17.973   8.128
 5031ETHY    C1 4951  23.133  17.492   8.341
 5032ETHY    C1 4952  23.108  17.031   8.605
 5033ETHY    C1 4953  23.167  16.601   8.915
 5034ETHY    C1 4954  23.308  16.209   9.263
 5035THSLK    S 4955  23.983  18.512   7.908
 5036ETHY    C1 4956  24.099  18.096   8.052
 5037ETHY    C1 4957  24.313  17.643   8.248
 5038ETHY    C1 4958  24.605  17.255   8.467
 5039ETHY    C1 4959  24.964  16.940   8.705
 5040ETHY    C1 4960  25.381  16.703   8.958
 5041AUSL   AUS 4961  23.299  18.538   7.665
 5042AUSL   AUS 4962  23.186  18.795   8.012
 5043AUL    AUL 4963  23.148  18.417   7.992
 5044THSLK    S 4964  23.246  18.298   7.745
 5045ETHY    C1 4965  23.001  17.917   7.801
 5046ETHY    C1 4966  22.788  17.432   7.897
 5047ETHY    C1 4967  22.673  16.929   8.025
 5048ETHY    C1 4968  22.654  16.420   8.186
 5049ETHY    C1 4969  22.728  15.917   8.374
 5050THSLK    S 4970  23.008  18.627   8.133
 5051ETHY    C1 4971  22.720  18.309   8.289
 5052ETHY    C1 4972  22.420  17.949   8.552
 5053ETHY    C1 4973  22.177  17.623   8.896
 5054ETHY    C1 4974  21.993  17.340   9.309
 5055ETHY    C1 4975  21.869  17.106   9.783
 5056AUSL   AUS 4976  23.603  18.538   7.665
 5057AUSL   AUS 4977  23.299  18.538   7.338
 5058AUL    AUL 4978  23.451  18.230   7.502
 5059THSLK    S 4979  23.248  18.295   7.266
 5060ETHY    C1 4980  23.004  17.913   7.215
 5061ETHY    C1 4981  22.791  17.429   7.117
 5062ETHY    C1 4982  22.675  16.927   6.984
 5063ETHY    C1 4983  22.656  16.418   6.825
 5064ETHY    C1 4984  22.732  15.913   6.642
 5065THSLK    S 4985  23.560  18.282   7.749
 5066ETHY    C1 4986  23.450  17.846   7.821
 5067ETHY    C1 4987  23.407  17.320   7.928
 5068ETHY    C1 4988  23.464  16.808   8.059
 5069ETHY    C1 4989  23.617  16.320   8.213
 5070ETHY    C1 4990  23.859  15.867   8.388
 5071AUSL   AUS 4991  23.451  19.792   7.093
 5072AUSL   AUS 4992  23.868  19.722   7.237
 5073AUL    AUL 4993  23.754  20.006   7.011
 5074THSLK    S 4994  23.495  20.022   6.975
 5075ETHY    C1 4995  23.655  20.326   6.674
 5076ETHY    C1 4996  23.769  20.731   6.339
 5077ETHY    C1 4997  23.794  21.174   6.045
 5078ETHY    C1 4998  23.735  21.643   5.798
 5079ETHY    C1 4999  23.594  22.130   5.604
 5080THSLK    S 5000  24.055  19.843   7.085
 5081ETHY    C1 5001  24.429  19.999   6.876
 5082ETHY    C1 5002  24.827  20.263   6.629
 5083ETHY    C1 5003  25.160  20.607   6.395
 5084ETHY    C1 5004  25.422  21.019   6.184
 5085ETHY    C1 5005  25.613  21.493   5.998
 5086AUSL   AUS 5006  23.299  19.885   7.338
 5087AUSL   AUS 5007  23.186  19.628   6.992
 5088AUL    AUL 5008  23.148  20.006   7.011
 5089THSLK    S 5009  23.342  20.136   7.237
 5090ETHY    C1 5010  23.452  20.547   7.074
 5091ETHY    C1 5011  23.495  21.053   6.896
 5092ETHY    C1 5012  23.438  21.561   6.745
 5093ETHY    C1 5013  23.285  22.058   6.627
 5094ETHY    C1 5014  23.043  22.537   6.545
 5095THSLK    S 5015  23.072  19.763   6.802
 5096ETHY    C1 5016  23.006  19.935   6.385
 5097ETHY    C1 5017  22.863  20.187   5.932
 5098ETHY    C1 5018  22.654  20.486   5.544
 5099ETHY    C1 5019  22.388  20.824   5.230
 5100ETHY    C1 5020  22.072  21.197   4.993
 5101AUSL   AUS 5021  23.451  18.632   7.093
 5102AUSL   AUS 5022  23.035  18.701   7.237
 5103AUL    AUL 5023  23.148  18.417   7.011
 5104THSLK    S 5024  22.851  18.551   7.128
 5105ETHY    C1 5025  22.479  18.290   7.085
 5106ETHY    C1 5026  22.080  17.952   6.958
 5107ETHY    C1 5027  21.745  17.593   6.753
 5108ETHY    C1 5028  21.483  17.219   6.478
 5109ETHY    C1 5029  21.296  16.836   6.142
 5110THSLK    S 5030  23.411  18.373   7.019
 5111ETHY    C1 5031  23.254  17.967   6.885
 5112ETHY    C1 5032  23.139  17.487   6.671
 5113ETHY    C1 5033  23.112  17.028   6.404
 5114ETHY    C1 5034  23.172  16.597   6.094
 5115ETHY    C1 5035  23.316  16.202   5.751
 5116AUSL   AUS 5036  23.603  18.538   7.338
 5117AUSL   AUS 5037  23.716  18.795   6.992
 5118AUL    AUL 5038  23.754  18.417   7.011
 5119THSLK    S 5039  23.562  18.281   7.262
 5120ETHY    C1 5040  23.453  17.843   7.195
 5121ETHY    C1 5041  23.410  17.317   7.086
 5122ETHY    C1 5042  23.466  16.806   6.951
 5123ETHY    C1 5043  23.619  16.318   6.798
 5124ETHY    C1 5044  23.863  15.864   6.629
 5125THSLK    S 5045  23.836  18.605   6.853
 5126ETHY    C1 5046  23.905  18.219   6.621
 5127ETHY    C1 5047  24.047  17.811   6.300
 5128ETHY    C1 5048  24.254  17.475   5.942
 5129ETHY    C1 5049  24.520  17.218   5.559
 5130ETHY    C1 5050  24.840  17.040   5.158
 5131POPC   NC3 5051  21.385  34.611   9.453
 5131POPC   PO4 5052  21.345  34.605   9.153
 5131POPC   GL1 5053  21.418  34.579   8.853
 5131POPC   GL2 5054  21.480  34.712   8.853
 5131POPC   C1A 5055  21.369  34.609   8.553
 5131POPC   D2A 5056  21.418  34.568   8.253
 5131POPC   C3A 5057  21.352  34.553   7.953
 5131POPC   C4A 5058  21.396  34.545   7.653
 5131POPC   C1B 5059  21.531  34.779   8.553
 5131POPC   C2B 5060  21.577  34.736   8.253
 5131POPC   C3B 5061  21.569  34.775   7.953
 5131POPC   C4B 5062  21.548  34.781   7.653
 5132POPC   NC3 5063  30.720  15.134   9.453
 5132POPC   PO4 5064  30.660  15.228   9.153
 5132POPC   GL1 5065  30.710  15.168   8.853
 5132POPC   GL2 5066  30.543  15.201   8.853
 5132POPC   C1A 5067  30.710  15.224   8.553
 5132POPC   D2A 5068  30.725  15.215   8.253
 5132POPC   C3A 5069  30.685  15.216   7.953
 5132POPC   C4A 5070  30.709  15.150   7.653
 5132POPC   C1B 5071  30.498  15.261   8.553
 5132POPC   C2B 5072  30.415  15.244   8.253
 5132POPC   C3B 5073  30.451  15.261   7.953
 5132POPC   C4B 5074  30.455  15.250   7.653
 5133POPC   NC3 5075  24.443  23.756   9.453
 5133POPC   PO4 5076  24.458  23.734   9.153
 5133POPC   GL1 5077  24.492  23.691   8.853
 5133POPC   GL2 5078  24.448  23.827   8.853
 5133POPC   C1A 5079  24.539  23.695   8.553
 5133POPC   D2A 5080  24.464  23.704   8.253
 5133POPC   C3A 5081  24.518  23.664   7.953
 5133POPC   C4A 5082  24.478  23.729   7.653
 5133POPC   C1B 5083  24.410  23.915   8.553
 5133POPC   C2B 5084  24.376  23.937   8.253
 5133POPC   C3B 5085  24.344  23.896   7.953
 5133POPC   C4B 5086  24.388  23.907   7.653
 5134POPC   NC3 5087   3.495  23.681   9.453
 5134POPC   PO4 5088   3.561  23.677   9.153
 5134POPC   GL1 5089   3.497  23.733   8.853
 5134POPC   GL2 5090   3.663  23.721   8.853
 5134POPC   C1A 5091   3.578  23.739   8.553
 5134POPC   D2A 5092   3.557  23.712   8.253
 5134POPC   C3A 5093   3.517  23.728   7.953
 5134POPC   C4A 5094   3.589  23.674   7.653
 5134POPC   C1B 5095   3.768  23.856   8.553
 5134POPC   C2B 5096   3.801  23.820   8.253
 5134POPC   C3B 5097   3.740  23.808   7.953
 5134POPC   C4B 5098   3.810  23.817   7.653
 5135POPC   NC3 5099  25.315  36.900   9.453
 5135POPC   PO4 5100  25.312  36.913   9.153
 5135POPC   GL1 5101  25.311  36.880   8.853
 5135POPC   GL2 5102  25.329  36.987   8.853
 5135POPC   C1A 5103  25.299  36.903   8.553
 5135POPC   D2A 5104  25.263  36.879   8.253
 5135POPC   C3A 5105  25.311  36.916   7.953
 5135POPC   C4A 5106  25.283  36.923   7.653
 5135POPC   C1B 5107  25.347  37.153   8.553
 5135POPC   C2B 5108  25.390  37.138   8.253
 5135POPC   C3B 5109  25.422  37.170   7.953
 5135POPC   C4B 5110  25.429  37.075   7.653
 5136POPC   NC3 5111  12.120  15.949   9.453
 5136POPC   PO4 5112  12.027  15.908   9.153
 5136POPC   GL1 5113  12.094  15.941   8.853
 5136POPC   GL2 5114  12.068  15.838   8.853
 5136POPC   C1A 5115  12.031  15.964   8.553
 5136POPC   D2A 5116  12.036  15.972   8.253
 5136POPC   C3A 5117  12.107  15.965   7.953
 5136POPC   C4A 5118  12.049  15.997   7.653
 5136POPC   C1B 5119  12.084  15.675   8.553
 5136POPC   C2B 5120  12.070  15.703   8.253
 5136POPC   C3B 5121  12.107  15.707   7.953
 5136POPC   C4B 5122  12.129  15.656   7.653
 5137POPC   NC3 5123   6.648   7.374   9.453
 5137POPC   PO4 5124   6.687   7.424   9.153
 5137POPC   GL1 5125   6.649   7.375   8.853
 5137POPC   GL2 5126   6.736   7.518   8.853
 5137POPC   C1A 5127   6.683   7.399   8.553
 5137POPC   D2A 5128   6.630   7.454   8.253
 5137POPC   C3A 5129   6.630   7.457   7.953
 5137POPC   C4A 5130   6.627   7.386   7.653
 5137POPC   C1B 5131   6.876   7.584   8.553
 5137POPC   C2B 5132   6.841   7.555   8.253
 5137POPC   C3B 5133   6.871   7.588   7.953
 5137POPC   C4B 5134   6.841   7.571   7.653
 5138POPC   NC3 5135  31.484  35.358   9.453
 5138POPC   PO4 5136  31.447  35.353   9.153
 5138POPC   GL1 5137  31.478  35.346   8.853
 5138POPC   GL2 5138  31.365  35.357   8.853
 5138POPC   C1A 5139  31.424  35.332   8.553
 5138POPC   D2A 5140  31.501  35.390   8.253
 5138POPC   C3A 5141  31.474  35.345   7.953
 5138POPC   C4A 5142  31.491  35.345   7.653
 5138POPC   C1B 5143  31.241  35.379   8.553
 5138POPC   C2B 5144  31.265  35.312   8.253
 5138POPC   C3B 5145  31.215  35.336   7.953
 5138POPC   C4B 5146  31.189  35.311   7.653
 5139POPC   NC3 5147  12.895  35.367   9.453
 5139POPC   PO4 5148  12.861  35.381   9.153
 5139POPC   GL1 5149  12.855  35.334   8.853
 5139POPC   GL2 5150  13.023  35.325   8.853
 5139POPC   C1A 5151  12.868  35.349   8.553
 5139POPC   D2A 5152  12.809  35.355   8.253
 5139POPC   C3A 5153  12.894  35.342   7.953
 5139POPC   C4A 5154  12.843  35.357   7.653
 5139POPC   C1B 5155  13.143  35.354   8.553
 5139POPC   C2B 5156  13.062  35.359   8.253
 5139POPC   C3B 5157  13.145  35.307   7.953
 5139POPC   C4B 5158  13.071  35.335   7.653
 5140POPC   NC3 5159  33.016  40.756   9.453
 5140POPC   PO4 5160  33.000  40.823   9.153
 5140POPC   GL1 5161  33.025  40.827   8.853
 5140POPC   GL2 5162  33.152  40.691   8.853
 5140POPC   C1A 5163  33.060  40.787   8.553
 5140POPC   D2A 5164  33.043  40.789   8.253
 5140POPC   C3A 5165  33.060  40.813   7.953
 5140POPC   C4A 5166  32.980  40.750   7.653
 5140POPC   C1B 5167  33.290  40.652   8.553
 5140POPC   C2B 5168  33.255  40.667   8.253
 5140POPC   C3B 5169  33.268  40.673   7.953
 5140POPC   C4B 5170  33.293  40.722   7.653
 5141POPC   NC3 5171   1.943   2.003   9.453
 5141POPC   PO4 5172   1.955   1.971   9.153
 5141POPC   GL1 5173   2.000   2.000   8.853
 5141POPC   GL2 5174   1.930   2.104   8.853
 5141POPC   C1A 5175   1.958   2.029   8.553
 5141POPC   D2A 5176   2.027   1.941   8.253
 5141POPC   C3A 5177   1.947   1.976   7.953
 5141POPC   C4A 5178   1.978   2.015   7.653
 5141POPC   C1B 5179   1.777   2.192   8.553
 5141POPC   C2B 5180   1.789   2.125   8.253
 5141POPC   C3B 5181   1.864   2.169   7.953
 5141POPC   C4B 5182   1.767   2.215   7.653
 5142POPC   NC3 5183  43.067  19.014   9.453
 5142POPC   PO4 5184  43.090  19.081   9.153
 5142POPC   GL1 5185  43.126  19.064   8.853
 5142POPC   GL2 5186  43.150  19.205   8.853
 5142POPC   C1A 5187  43.110  19.064   8.553
 5142POPC   D2A 5188  43.120  19.032   8.253
 5142POPC   C3A 5189  43.100  19.023   7.953
 5142POPC   C4A 5190  43.139  19.064   7.653
 5142POPC   C1B 5191  43.248  19.248   8.553
 5142POPC   C2B 5192  43.241  19.236   8.253
 5142POPC   C3B 5193  43.261  19.255   7.953
 5142POPC   C4B 5194  43.292  19.260   7.653
 5143POPC   NC3 5195  10.507  29.160   9.453
 5143POPC   PO4 5196  10.475  29.100   9.153
 5143POPC   GL1 5197  10.531  29.188   8.853
 5143POPC   GL2 5198  10.686  29.072   8.853
 5143POPC   C1A 5199  10.491  29.159   8.553
 5143POPC   D2A 5200  10.558  29.133   8.253
 5143POPC   C3A 5201  10.478  29.158   7.953
 5143POPC   C4A 5202  10.537  29.136   7.653
 5143POPC   C1B 5203  10.774  29.080   8.553
 5143POPC   C2B 5204  10.723  29.058   8.253
 5143POPC   C3B 5205  10.796  29.125   7.953
 5143POPC   C4B 5206  10.801  29.054   7.653
 5144POPC   NC3 5207  43.154   2.788   9.453
 5144POPC   PO4 5208  43.117   2.738   9.153
 5144POPC   GL1 5209  43.158   2.770   8.853
 5144POPC   GL2 5210  43.161   2.609   8.853
 5144POPC   C1A 5211  43.118   2.802   8.553
 5144POPC   D2A 5212  43.095   2.811   8.253
 5144POPC   C3A 5213  43.130   2.729   7.953
 5144POPC   C4A 5214  43.156   2.731   7.653
 5144POPC   C1B 5215  43.244   2.511   8.553
 5144POPC   C2B 5216  43.160   2.566   8.253
 5144POPC   C3B 5217  43.185   2.504   7.953
 5144POPC   C4B 5218  43.255   2.534   7.653
 5145POPC   NC3 5219  29.940  15.942   9.453
 5145POPC   PO4 5220  29.929  15.966   9.153
 5145POPC   GL1 5221  29.874  15.930   8.853
 5145POPC   GL2 5222  29.861  15.843   8.853
 5145POPC   C1A 5223  29.904  15.983   8.553
 5145POPC   D2A 5224  29.916  15.921   8.253
 5145POPC   C3A 5225  29.923  15.912   7.953
 5145POPC   C4A 5226  29.938  15.926   7.653
 5145POPC   C1B 5227  29.754  15.859   8.553
 5145POPC   C2B 5228  29.675  15.809   8.253
 5145POPC   C3B 5229  29.754  15.777   7.953
 5145POPC   C4B 5230  29.693  15.800   7.653
 5146POPC   NC3 5231  30.743  37.654   9.453
 5146POPC   PO4 5232  30.662  37.654   9.153
 5146POPC   GL1 5233  30.720  37.658   8.853
 5146POPC   GL2 5234  30.598  37.782   8.853
 5146POPC   C1A 5235  30.728  37.696   8.553
 5146POPC   D2A 5236  30.705  37.651   8.253
 5146POPC   C3A 5237  30.685  37.656   7.953
 5146POPC   C4A 5238  30.672  37.728   7.653
 5146POPC   C1B 5239  30.546  37.842   8.553
 5146POPC   C2B 5240  30.573  37.907   8.253
 5146POPC   C3B 5241  30.543  37.925   7.953
 5146POPC   C4B 5242  30.526  37.873   7.653
 5147POPC   NC3 5243  12.037  43.880   9.453
 5147POPC   PO4 5244  12.042  43.870   9.153
 5147POPC   GL1 5245  12.084  43.900   8.853
 5147POPC   GL2 5246  12.139  43.933   8.853
 5147POPC   C1A 5247  12.085  43.837   8.553
 5147POPC   D2A 5248  12.124  43.853   8.253
 5147POPC   C3A 5249  12.119  43.877   7.953
 5147POPC   C4A 5250  12.070  43.933   7.653
 5147POPC   C1B 5251  12.293  44.025   8.553
 5147POPC   C2B 5252  12.265  44.087   8.253
 5147POPC   C3B 5253  12.259  44.073   7.953
 5147POPC   C4B 5254  12.231  44.020   7.653
 5148POPC   NC3 5255   6.687  33.073   9.453
 5148POPC   PO4 5256   6.676  33.049   9.153
 5148POPC   GL1 5257   6.676  32.988   8.853
 5148POPC   GL2 5258   6.810  33.013   8.853
 5148POPC   C1A 5259   6.688  33.036   8.553
 5148POPC   D2A 5260   6.633  33.040   8.253
 5148POPC   C3A 5261   6.617  33.015   7.953
 5148POPC   C4A 5262   6.672  32.998   7.653
 5148POPC   C1B 5263   6.860  33.010   8.553
 5148POPC   C2B 5264   6.909  33.052   8.253
 5148POPC   C3B 5265   6.927  33.038   7.953
 5148POPC   C4B 5266   6.915  33.058   7.653
 5149POPC   NC3 5267  43.917  12.029   9.453
 5149POPC   PO4 5268  43.860  12.051   9.153
 5149POPC   GL1 5269  43.840  12.124   8.853
 5149POPC   GL2 5270  43.986  11.991   8.853
 5149POPC   C1A 5271  43.848  12.047   8.553
 5149POPC   D2A 5272  43.839  12.054   8.253
 5149POPC   C3A 5273  43.897  12.056   7.953
 5149POPC   C4A 5274  43.902  12.039   7.653
 5149POPC   C1B 5275  44.021  11.935   8.553
 5149POPC   C2B 5276  44.077  11.952   8.253
 5149POPC   C3B 5277  44.080  11.927   7.953
 5149POPC   C4B 5278  44.083  11.934   7.653
 5150POPC   NC3 5279   8.164  29.190   9.453
 5150POPC   PO4 5280   8.156  29.157   9.153
 5150POPC   GL1 5281   8.147  29.135   8.853
 5150POPC   GL2 5282   8.063  29.211   8.853
 5150POPC   C1A 5283   8.167  29.126   8.553
 5150POPC   D2A 5284   8.180  29.178   8.253
 5150POPC   C3A 5285   8.156  29.120   7.953
 5150POPC   C4A 5286   8.206  29.126   7.653
 5150POPC   C1B 5287   7.973  29.257   8.553
 5150POPC   C2B 5288   8.010  29.286   8.253
 5150POPC   C3B 5289   8.025  29.307   7.953
 5150POPC   C4B 5290   8.009  29.304   7.653
 5151POPC   NC3 5291  30.661  30.714   9.453
 5151POPC   PO4 5292  30.743  30.697   9.153
 5151POPC   GL1 5293  30.670  30.734   8.853
 5151POPC   GL2 5294  30.571  30.681   8.853
 5151POPC   C1A 5295  30.676  30.686   8.553
 5151POPC   D2A 5296  30.706  30.682   8.253
 5151POPC   C3A 5297  30.704  30.741   7.953
 5151POPC   C4A 5298  30.653  30.708   7.653
 5151POPC   C1B 5299  30.407  30.711   8.553
 5151POPC   C2B 5300  30.422  30.782   8.253
 5151POPC   C3B 5301  30.444  30.716   7.953
 5151POPC   C4B 5302  30.454  30.727   7.653
 5152POPC   NC3 5303   6.658   6.605   9.453
 5152POPC   PO4 5304   6.678   6.636   9.153
 5152POPC   GL1 5305   6.619   6.662   8.853
 5152POPC   GL2 5306   6.555   6.689   8.853
 5152POPC   C1A 5307   6.648   6.679   8.553
 5152POPC   D2A 5308   6.596   6.602   8.253
 5152POPC   C3A 5309   6.681   6.608   7.953
 5152POPC   C4A 5310   6.690   6.617   7.653
 5152POPC   C1B 5311   6.479   6.837   8.553
 5152POPC   C2B 5312   6.431   6.847   8.253
 5152POPC   C3B 5313   6.431   6.849   7.953
 5152POPC   C4B 5314   6.469   6.792   7.653
 5153POPC   NC3 5315  22.948  43.905   9.453
 5153POPC   PO4 5316  22.951  43.868   9.153
 5153POPC   GL1 5317  22.979  43.848   8.853
 5153POPC   GL2 5318  22.795  43.946   8.853
 5153POPC   C1A 5319  22.939  43.881   8.553
 5153POPC   D2A 5320  22.962  43.899   8.253
 5153POPC   C3A 5321  22.924  43.891   7.953
 5153POPC   C4A 5322  22.938  43.841   7.653
 5153POPC   C1B 5323  22.752  44.098   8.553
 5153POPC   C2B 5324  22.725  44.048   8.253
 5153POPC   C3B 5325  22.778  44.059   7.953
 5153POPC   C4B 5326  22.770  44.078   7.653
 5154POPC   NC3 5327  10.555  22.947   9.453
 5154POPC   PO4 5328  10.530  22.932   9.153
 5154POPC   GL1 5329  10.541  22.944   8.853
 5154POPC   GL2 5330  10.490  23.037   8.853
 5154POPC   C1A 5331  10.486  22.925   8.553
 5154POPC   D2A 5332  10.554  22.976   8.253
 5154POPC   C3A 5333  10.526  22.908   7.953
 5154POPC   C4A 5334  10.547  22.935   7.653
 5154POPC   C1B 5335  10.446  23.109   8.553
 5154POPC   C2B 5336  10.424  23.140   8.253
 5154POPC   C3B 5337  10.418  23.118   7.953
 5154POPC   C4B 5338  10.366  23.207   7.653
 5155POPC   NC3 5339  32.994  24.464   9.453
 5155POPC   PO4 5340  33.043  24.525   9.153
 5155POPC   GL1 5341  32.996  24.538   8.853
 5155POPC   GL2 5342  33.097  24.444   8.853
 5155POPC   C1A 5343  32.998  24.484   8.553
 5155POPC   D2A 5344  33.038  24.474   8.253
 5155POPC   C3A 5345  33.019  24.532   7.953
 5155POPC   C4A 5346  33.074  24.467   7.653
 5155POPC   C1B 5347  33.199  24.397   8.553
 5155POPC   C2B 5348  33.279  24.334   8.253
 5155POPC   C3B 5349  33.283  24.379   7.953
 5155POPC   C4B 5350  33.223  24.344   7.653
 5156POPC   NC3 5351   1.214  25.243   9.453
 5156POPC   PO4 5352   1.229  25.269   9.153
 5156POPC   GL1 5353   1.227  25.253   8.853
 5156POPC   GL2 5354   1.238  25.342   8.853
 5156POPC   C1A 5355   1.174  25.243   8.553
 5156POPC   D2A 5356   1.243  25.291   8.253
 5156POPC   C3A 5357   1.204  25.262   7.953
 5156POPC   C4A 5358   1.222  25.234   7.653
 5156POPC   C1B 5359   1.260  25.520   8.553
 5156POPC   C2B 5360   1.206  25.508   8.253
 5156POPC   C3B 5361   1.194  25.512   7.953
 5156POPC   C4B 5362   1.254  25.510   7.653
 5157POPC   NC3 5363  31.506  29.963   9.453
 5157POPC   PO4 5364  31.514  29.969   9.153
 5157POPC   GL1 5365  31.440  29.961   8.853
 5157POPC   GL2 5366  31.556  29.868   8.853
 5157POPC   C1A 5367  31.475  29.874   8.553
 5157POPC   D2A 5368  31.451  29.896   8.253
 5157POPC   C3A 5369  31.435  29.920   7.953
 5157POPC   C4A 5370  31.423  29.925   7.653
 5157POPC   C1B 5371  31.662  29.799   8.553
 5157POPC   C2B 5372  31.698  29.796   8.253
 5157POPC   C3B 5373  31.651  29.776   7.953
 5157POPC   C4B 5374  31.686  29.819   7.653
 5158POPC   NC3 5375  34.591  26.845   9.453
 5158POPC   PO4 5376  34.590  26.805   9.153
 5158POPC   GL1 5377  34.614  26.840   8.853
 5158POPC   GL2 5378  34.515  26.874   8.853
 5158POPC   C1A 5379  34.563  26.800   8.553
 5158POPC   D2A 5380  34.563  26.847   8.253
 5158POPC   C3A 5381  34.548  26.857   7.953
 5158POPC   C4A 5382  34.589  26.780   7.653
 5158POPC   C1B 5383  34.401  26.992   8.553
 5158POPC   C2B 5384  34.420  27.066   8.253
 5158POPC   C3B 5385  34.388  26.976   7.953
 5158POPC   C4B 5386  34.433  27.053   7.653
 5159POPC   NC3 5387  14.389  34.528   9.453
 5159POPC   PO4 5388  14.380  34.547   9.153
 5159POPC   GL1 5389  14.418  34.579   8.853
 5159POPC   GL2 5390  14.362  34.470   8.853
 5159POPC   C1A 5391  14.448  34.540   8.553
 5159POPC   D2A 5392  14.383  34.591   8.253
 5159POPC   C3A 5393  14.451  34.548   7.953
 5159POPC   C4A 5394  14.387  34.621   7.653
 5159POPC   C1B 5395  14.433  34.289   8.553
 5159POPC   C2B 5396  14.407  34.322   8.253
 5159POPC   C3B 5397  14.438  34.358   7.953
 5159POPC   C4B 5398  14.412  34.338   7.653
 5160POPC   NC3 5399  33.776  12.049   9.453
 5160POPC   PO4 5400  33.835  12.059   9.153
 5160POPC   GL1 5401  33.754  12.054   8.853
 5160POPC   GL2 5402  33.871  12.204   8.853
 5160POPC   C1A 5403  33.757  12.066   8.553
 5160POPC   D2A 5404  33.808  12.125   8.253
 5160POPC   C3A 5405  33.804  12.112   7.953
 5160POPC   C4A 5406  33.793  12.030   7.653
 5160POPC   C1B 5407  34.013  12.237   8.553
 5160POPC   C2B 5408  33.956  12.265   8.253
 5160POPC   C3B 5409  34.015  12.282   7.953
 5160POPC   C4B 5410  33.966  12.223   7.653
 5161POPC   NC3 5411  28.403  41.572   9.453
 5161POPC   PO4 5412  28.343  41.528   9.153
 5161POPC   GL1 5413  28.348  41.587   8.853
 5161POPC   GL2 5414  28.384  41.658   8.853
 5161POPC   C1A 5415  28.416  41.569   8.553
 5161POPC   D2A 5416  28.418  41.595   8.253
 5161POPC   C3A 5417  28.404  41.603   7.953
 5161POPC   C4A 5418  28.345  41.585   7.653
 5161POPC   C1B 5419  28.440  41.843   8.553
 5161POPC   C2B 5420  28.497  41.749   8.253
 5161POPC   C3B 5421  28.444  41.775   7.953
 5161POPC   C4B 5422  28.473  41.796   7.653
 5162POPC   NC3 5423  11.338  31.507   9.453
 5162POPC   PO4 5424  11.325  31.474   9.153
 5162POPC   GL1 5425  11.310  31.510   8.853
 5162POPC   GL2 5426  11.415  31.477   8.853
 5162POPC   C1A 5427  11.254  31.452   8.553
 5162POPC   D2A 5428  11.260  31.490   8.253
 5162POPC   C3A 5429  11.287  31.423   7.953
 5162POPC   C4A 5430  11.310  31.508   7.653
 5162POPC   C1B 5431  11.489  31.517   8.553
 5162POPC   C2B 5432  11.549  31.567   8.253
 5162POPC   C3B 5433  11.553  31.605   7.953
 5162POPC   C4B 5434  11.494  31.541   7.653
 5163POPC   NC3 5435  36.114  10.533   9.453
 5163POPC   PO4 5436  36.112  10.549   9.153
 5163POPC   GL1 5437  36.105  10.557   8.853
 5163POPC   GL2 5438  36.038  10.584   8.853
 5163POPC   C1A 5439  36.111  10.555   8.553
 5163POPC   D2A 5440  36.092  10.564   8.253
 5163POPC   C3A 5441  36.155  10.552   7.953
 5163POPC   C4A 5442  36.142  10.537   7.653
 5163POPC   C1B 5443  35.843  10.553   8.553
 5163POPC   C2B 5444  35.900  10.564   8.253
 5163POPC   C3B 5445  35.879  10.604   7.953
 5163POPC   C4B 5446  35.922  10.622   7.653
 5164POPC   NC3 5447  39.254   5.092   9.453
 5164POPC   PO4 5448  39.223   5.118   9.153
 5164POPC   GL1 5449  39.235   5.120   8.853
 5164POPC   GL2 5450  39.321   5.027   8.853
 5164POPC   C1A 5451  39.208   5.124   8.553
 5164POPC   D2A 5452  39.217   5.045   8.253
 5164POPC   C3A 5453  39.242   5.141   7.953
 5164POPC   C4A 5454  39.189   5.067   7.653
 5164POPC   C1B 5455  39.376   4.837   8.553
 5164POPC   C2B 5456  39.329   4.869   8.253
 5164POPC   C3B 5457  39.320   4.903   7.953
 5164POPC   C4B 5458  39.328   4.893   7.653
 5165POPC   NC3 5459  11.271  10.501   9.453
 5165POPC   PO4 5460  11.340  10.569   9.153
 5165POPC   GL1 5461  11.295  10.548   8.853
 5165POPC   GL2 5462  11.177  10.481   8.853
 5165POPC   C1A 5463  11.267  10.555   8.553
 5165POPC   D2A 5464  11.346  10.512   8.253
 5165POPC   C3A 5465  11.296  10.525   7.953
 5165POPC   C4A 5466  11.322  10.490   7.653
 5165POPC   C1B 5467  11.052  10.460   8.553
 5165POPC   C2B 5468  11.058  10.430   8.253
 5165POPC   C3B 5469  11.117  10.453   7.953
 5165POPC   C4B 5470  11.126  10.389   7.653
 5166POPC   NC3 5471  12.086  36.104   9.453
 5166POPC   PO4 5472  12.055  36.107   9.153
 5166POPC   GL1 5473  12.108  36.108   8.853
 5166POPC   GL2 5474  12.156  36.025   8.853
 5166POPC   C1A 5475  12.028  36.159   8.553
 5166POPC   D2A 5476  12.086  36.163   8.253
 5166POPC   C3A 5477  12.029  36.141   7.953
 5166POPC   C4A 5478  12.060  36.173   7.653
 5166POPC   C1B 5479  12.254  35.980   8.553
 5166POPC   C2B 5480  12.260  35.968   8.253
 5166POPC   C3B 5481  12.302  36.011   7.953
 5166POPC   C4B 5482  12.313  36.007   7.653
 5167POPC   NC3 5483  24.485   5.833   9.453
 5167POPC   PO4 5484  24.496   5.862   9.153
 5167POPC   GL1 5485  24.488   5.902   8.853
 5167POPC   GL2 5486  24.485   5.772   8.853
 5167POPC   C1A 5487  24.488   5.918   8.553
 5167POPC   D2A 5488  24.518   5.915   8.253
 5167POPC   C3A 5489  24.451   5.859   7.953
 5167POPC   C4A 5490  24.487   5.898   7.653
 5167POPC   C1B 5491  24.389   5.659   8.553
 5167POPC   C2B 5492  24.452   5.653   8.253
 5167POPC   C3B 5493  24.446   5.600   7.953
 5167POPC   C4B 5494  24.391   5.604   7.653
 5168POPC   NC3 5495  19.851  11.268   9.453
 5168POPC   PO4 5496  19.827  11.310   9.153
 5168POPC   GL1 5497  19.878  11.258   8.853
 5168POPC   GL2 5498  19.924  11.216   8.853
 5168POPC   C1A 5499  19.845  11.345   8.553
 5168POPC   D2A 5500  19.834  11.335   8.253
 5168POPC   C3A 5501  19.880  11.312   7.953
 5168POPC   C4A 5502  19.850  11.309   7.653
 5168POPC   C1B 5503  20.020  11.177   8.553
 5168POPC   C2B 5504  20.013  11.192   8.253
 5168POPC   C3B 5505  20.019  11.137   7.953
 5168POPC   C4B 5506  19.999  11.147   7.653
 5169POPC   NC3 5507  41.592   0.433   9.453
 5169POPC   PO4 5508  41.607   0.401   9.153
 5169POPC   GL1 5509  41.587   0.453   8.853
 5169POPC   GL2 5510  41.642   0.423   8.853
 5169POPC   C1A 5511  41.523   0.433   8.553
 5169POPC   D2A 5512  41.592   0.432   8.253
 5169POPC   C3A 5513  41.538   0.459   7.953
 5169POPC   C4A 5514  41.603   0.410   7.653
 5169POPC   C1B 5515  41.810   0.500   8.553
 5169POPC   C2B 5516  41.810   0.493   8.253
 5169POPC   C3B 5517  41.805   0.458   7.953
 5169POPC   C4B 5518  41.825   0.461   7.653
 5170POPC   NC3 5519  18.290  34.626   9.453
 5170POPC   PO4 5520  18.301  34.625   9.153
 5170POPC   GL1 5521  18.253  34.591   8.853
 5170POPC   GL2 5522  18.397  34.618   8.853
 5170POPC   C1A 5523  18.319  34.567   8.553
 5170POPC   D2A 5524  18.296  34.538   8.253
 5170POPC   C3A 5525  18.316  34.553   7.953
 5170POPC   C4A 5526  18.273  34.600   7.653
 5170POPC   C1B 5527  18.485  34.606   8.553
 5170POPC   C2B 5528  18.506  34.529   8.253
 5170POPC   C3B 5529  18.486  34.600   7.953
 5170POPC   C4B 5530  18.502  34.624   7.653
 5171POPC   NC3 5531  38.414  10.565   9.453
 5171POPC   PO4 5532  38.491  10.505   9.153
 5171POPC   GL1 5533  38.493  10.561   8.853
 5171POPC   GL2 5534  38.533  10.636   8.853
 5171POPC   C1A 5535  38.500  10.531   8.553
 5171POPC   D2A 5536  38.489  10.538   8.253
 5171POPC   C3A 5537  38.496  10.562   7.953
 5171POPC   C4A 5538  38.410  10.557   7.653
 5171POPC   C1B 5539  38.483  10.801   8.553
 5171POPC   C2B 5540  38.511  10.749   8.253
 5171POPC   C3B 5541  38.569  10.764   7.953
 5171POPC   C4B 5542  38.507  10.782   7.653
 5172POPC   NC3 5543  15.210  40.794   9.453
 5172POPC   PO4 5544  15.172  40.830   9.153
 5172POPC   GL1 5545  15.181  40.819   8.853
 5172POPC   GL2 5546  15.058  40.644   8.853
 5172POPC   C1A 5547  15.191  40.735   8.553
 5172POPC   D2A 5548  15.179  40.734   8.253
 5172POPC   C3A 5549  15.182  40.824   7.953
 5172POPC   C4A 5550  15.156  40.816   7.653
 5172POPC   C1B 5551  15.043  40.617   8.553
 5172POPC   C2B 5552  15.034  40.604   8.253
 5172POPC   C3B 5553  15.044  40.596   7.953
 5172POPC   C4B 5554  15.022  40.619   7.653
 5173POPC   NC3 5555   5.117  42.292   9.453
 5173POPC   PO4 5556   5.123  42.317   9.153
 5173POPC   GL1 5557   5.062  42.328   8.853
 5173POPC   GL2 5558   5.049  42.239   8.853
 5173POPC   C1A 5559   5.070  42.317   8.553
 5173POPC   D2A 5560   5.061  42.373   8.253
 5173POPC   C3A 5561   5.109  42.346   7.953
 5173POPC   C4A 5562   5.114  42.307   7.653
 5173POPC   C1B 5563   5.069  42.049   8.553
 5173POPC   C2B 5564   5.096  42.064   8.253
 5173POPC   C3B 5565   5.090  42.080   7.953
 5173POPC   C4B 5566   5.098  42.055   7.653
 5174POPC   NC3 5567  17.527  40.002   9.453
 5174POPC   PO4 5568  17.555  39.968   9.153
 5174POPC   GL1 5569  17.480  40.035   8.853
 5174POPC   GL2 5570  17.451  39.924   8.853
 5174POPC   C1A 5571  17.458  40.005   8.553
 5174POPC   D2A 5572  17.474  39.961   8.253
 5174POPC   C3A 5573  17.485  40.031   7.953
 5174POPC   C4A 5574  17.535  40.008   7.653
 5174POPC   C1B 5575  17.391  39.796   8.553
 5174POPC   C2B 5576  17.385  39.790   8.253
 5174POPC   C3B 5577  17.414  39.750   7.953
 5174POPC   C4B 5578  17.427  39.739   7.653
 5175POPC   NC3 5579  41.526  25.244   9.453
 5175POPC   PO4 5580  41.509  25.294   9.153
 5175POPC   GL1 5581  41.530  25.251   8.853
 5175POPC   GL2 5582  41.623  25.341   8.853
 5175POPC   C1A 5583  41.522  25.222   8.553
 5175POPC   D2A 5584  41.595  25.296   8.253
 5175POPC   C3A 5585  41.553  25.272   7.953
 5175POPC   C4A 5586  41.525  25.277   7.653
 5175POPC   C1B 5587  41.638  25.528   8.553
 5175POPC   C2B 5588  41.586  25.537   8.253
 5175POPC   C3B 5589  41.629  25.478   7.953
 5175POPC   C4B 5590  41.634  25.469   7.653
 5176POPC   NC3 5591   9.746  23.763   9.453
 5176POPC   PO4 5592   9.756  23.748   9.153
 5176POPC   GL1 5593   9.735  23.695   8.853
 5176POPC   GL2 5594   9.639  23.654   8.853
 5176POPC   C1A 5595   9.715  23.734   8.553
 5176POPC   D2A 5596   9.734  23.700   8.253
 5176POPC   C3A 5597   9.718  23.698   7.953
 5176POPC   C4A 5598   9.759  23.726   7.653
 5176POPC   C1B 5599   9.605  23.534   8.553
 5176POPC   C2B 5600   9.570  23.580   8.253
 5176POPC   C3B 5601   9.561  23.525   7.953
 5176POPC   C4B 5602   9.566  23.501   7.653
 5177POPC   NC3 5603  21.350  25.230   9.453
 5177POPC   PO4 5604  21.416  25.234   9.153
 5177POPC   GL1 5605  21.390  25.302   8.853
 5177POPC   GL2 5606  21.361  25.136   8.853
 5177POPC   C1A 5607  21.411  25.226   8.553
 5177POPC   D2A 5608  21.431  25.254   8.253
 5177POPC   C3A 5609  21.412  25.291   7.953
 5177POPC   C4A 5610  21.384  25.311   7.653
 5177POPC   C1B 5611  21.250  25.036   8.553
 5177POPC   C2B 5612  21.315  25.036   8.253
 5177POPC   C3B 5613  21.220  25.071   7.953
 5177POPC   C4B 5614  21.309  25.096   7.653
 5178POPC   NC3 5615   6.636  39.212   9.453
 5178POPC   PO4 5616   6.616  39.243   9.153
 5178POPC   GL1 5617   6.656  39.266   8.853
 5178POPC   GL2 5618   6.556  39.299   8.853
 5178POPC   C1A 5619   6.683  39.186   8.553
 5178POPC   D2A 5620   6.610  39.203   8.253
 5178POPC   C3A 5621   6.677  39.247   7.953
 5178POPC   C4A 5622   6.596  39.193   7.653
 5178POPC   C1B 5623   6.553  39.412   8.553
 5178POPC   C2B 5624   6.528  39.445   8.253
 5178POPC   C3B 5625   6.497  39.484   7.953
 5178POPC   C4B 5626   6.532  39.414   7.653
 5179POPC   NC3 5627   6.633  20.570   9.453
 5179POPC   PO4 5628   6.620  20.613   9.153
 5179POPC   GL1 5629   6.620  20.631   8.853
 5179POPC   GL2 5630   6.727  20.569   8.853
 5179POPC   C1A 5631   6.627  20.625   8.553
 5179POPC   D2A 5632   6.653  20.651   8.253
 5179POPC   C3A 5633   6.638  20.601   7.953
 5179POPC   C4A 5634   6.601  20.617   7.653
 5179POPC   C1B 5635   6.840  20.508   8.553
 5179POPC   C2B 5636   6.925  20.530   8.253
 5179POPC   C3B 5637   6.878  20.538   7.953
 5179POPC   C4B 5638   6.928  20.496   7.653
 5180POPC   NC3 5639  36.090  26.022   9.453
 5180POPC   PO4 5640  36.107  26.048   9.153
 5180POPC   GL1 5641  36.087  26.067   8.853
 5180POPC   GL2 5642  36.216  26.126   8.853
 5180POPC   C1A 5643  36.108  26.086   8.553
 5180POPC   D2A 5644  36.161  26.060   8.253
 5180POPC   C3A 5645  36.147  26.074   7.953
 5180POPC   C4A 5646  36.133  26.072   7.653
 5180POPC   C1B 5647  36.230  26.284   8.553
 5180POPC   C2B 5648  36.214  26.278   8.253
 5180POPC   C3B 5649  36.211  26.298   7.953
 5180POPC   C4B 5650  36.206  26.315   7.653
 5181POPC   NC3 5651   4.299  43.926   9.453
 5181POPC   PO4 5652   4.272  43.884   9.153
 5181POPC   GL1 5653   4.325  43.915   8.853
 5181POPC   GL2 5654   4.337  44.002   8.853
 5181POPC   C1A 5655   4.303  43.879   8.553
 5181POPC   D2A 5656   4.350  43.919   8.253
 5181POPC   C3A 5657   4.354  43.908   7.953
 5181POPC   C4A 5658   4.360  43.842   7.653
 5181POPC   C1B 5659   4.402  44.111   8.553
 5181POPC   C2B 5660   4.357  44.099   8.253
 5181POPC   C3B 5661   4.328  44.110   7.953
 5181POPC   C4B 5662   4.319  44.151   7.653
 5182POPC   NC3 5663  33.790  17.533   9.453
 5182POPC   PO4 5664  33.780  17.533   9.153
 5182POPC   GL1 5665  33.843  17.553   8.853
 5182POPC   GL2 5666  33.745  17.630   8.853
 5182POPC   C1A 5667  33.772  17.543   8.553
 5182POPC   D2A 5668  33.778  17.472   8.253
 5182POPC   C3A 5669  33.822  17.522   7.953
 5182POPC   C4A 5670  33.822  17.485   7.653
 5182POPC   C1B 5671  33.766  17.792   8.553
 5182POPC   C2B 5672  33.688  17.708   8.253
 5182POPC   C3B 5673  33.693  17.709   7.953
 5182POPC   C4B 5674  33.701  17.722   7.653
 5183POPC   NC3 5675  13.607  27.552   9.453
 5183POPC   PO4 5676  13.674  27.618   9.153
 5183POPC   GL1 5677  13.645  27.564   8.853
 5183POPC   GL2 5678  13.742  27.556   8.853
 5183POPC   C1A 5679  13.604  27.564   8.553
 5183POPC   D2A 5680  13.619  27.637   8.253
 5183POPC   C3A 5681  13.582  27.626   7.953
 5183POPC   C4A 5682  13.631  27.573   7.653
 5183POPC   C1B 5683  13.863  27.542   8.553
 5183POPC   C2B 5684  13.914  27.575   8.253
 5183POPC   C3B 5685  13.917  27.567   7.953
 5183POPC   C4B 5686  13.897  27.598   7.653
 5184POPC   NC3 5687   9.771  12.112   9.453
 5184POPC   PO4 5688   9.748  12.040   9.153
 5184POPC   GL1 5689   9.735  12.046   8.853
 5184POPC   GL2 5690   9.861  12.134   8.853
 5184POPC   C1A 5691   9.740  12.065   8.553
 5184POPC   D2A 5692   9.782  12.064   8.253
 5184POPC   C3A 5693   9.773  12.034   7.953
 5184POPC   C4A 5694   9.704  12.068   7.653
 5184POPC   C1B 5695   9.853  12.332   8.553
 5184POPC   C2B 5696   9.904  12.263   8.253
 5184POPC   C3B 5697   9.929  12.317   7.953
 5184POPC   C4B 5698   9.909  12.297   7.653
 5185POPC   NC3 5699   0.479  42.340   9.453
 5185POPC   PO4 5700   0.390  42.365   9.153
 5185POPC   GL1 5701   0.409  42.289   8.853
 5185POPC   GL2 5702   0.495  42.292   8.853
 5185POPC   C1A 5703   0.402  42.369   8.553
 5185POPC   D2A 5704   0.427  42.289   8.253
 5185POPC   C3A 5705   0.465  42.317   7.953
 5185POPC   C4A 5706   0.467  42.336   7.653
 5185POPC   C1B 5707   0.563  42.114   8.553
 5185POPC   C2B 5708   0.608  42.201   8.253
 5185POPC   C3B 5709   0.574  42.192   7.953
 5185POPC   C4B 5710   0.576  42.153   7.653
 5186POPC   NC3 5711   8.227  27.631   9.453
 5186POPC   PO4 5712   8.150  27.567   9.153
 5186POPC   GL1 5713   8.241  27.585   8.853
 5186POPC   GL2 5714   8.168  27.670   8.853
 5186POPC   C1A 5715   8.194  27.621   8.553
 5186POPC   D2A 5716   8.196  27.569   8.253
 5186POPC   C3A 5717   8.222  27.631   7.953
 5186POPC   C4A 5718   8.196  27.562   7.653
 5186POPC   C1B 5719   8.098  27.800   8.553
 5186POPC   C2B 5720   8.015  27.788   8.253
 5186POPC   C3B 5721   8.087  27.831   7.953
 5186POPC   C4B 5722   8.039  27.847   7.653
 5187POPC   NC3 5723  39.181  15.905   9.453
 5187POPC   PO4 5724  39.201  15.963   9.153
 5187POPC   GL1 5725  39.228  15.969   8.853
 5187POPC   GL2 5726  39.245  16.083   8.853
 5187POPC   C1A 5727  39.262  15.938   8.553
 5187POPC   D2A 5728  39.197  15.913   8.253
 5187POPC   C3A 5729  39.224  15.994   7.953
 5187POPC   C4A 5730  39.274  15.937   7.653
 5187POPC   C1B 5731  39.337  16.184   8.553
 5187POPC   C2B 5732  39.314  16.241   8.253
 5187POPC   C3B 5733  39.303  16.199   7.953
 5187POPC   C4B 5734  39.274  16.153   7.653
 5188POPC   NC3 5735  12.838  20.614   9.453
 5188POPC   PO4 5736  12.891  20.578   9.153
 5188POPC   GL1 5737  12.863  20.637   8.853
 5188POPC   GL2 5738  12.818  20.756   8.853
 5188POPC   C1A 5739  12.840  20.606   8.553
 5188POPC   D2A 5740  12.890  20.583   8.253
 5188POPC   C3A 5741  12.826  20.628   7.953
 5188POPC   C4A 5742  12.872  20.628   7.653
 5188POPC   C1B 5743  12.853  20.877   8.553
 5188POPC   C2B 5744  12.848  20.847   8.253
 5188POPC   C3B 5745  12.790  20.904   7.953
 5188POPC   C4B 5746  12.852  20.826   7.653
 5189POPC   NC3 5747   1.987  16.753   9.453
 5189POPC   PO4 5748   1.972  16.691   9.153
 5189POPC   GL1 5749   1.995  16.764   8.853
 5189POPC   GL2 5750   1.851  16.670   8.853
 5189POPC   C1A 5751   1.948  16.758   8.553
 5189POPC   D2A 5752   2.032  16.691   8.253
 5189POPC   C3A 5753   1.989  16.771   7.953
 5189POPC   C4A 5754   2.039  16.749   7.653
 5189POPC   C1B 5755   1.773  16.538   8.553
 5189POPC   C2B 5756   1.747  16.585   8.253
 5189POPC   C3B 5757   1.815  16.572   7.953
 5189POPC   C4B 5758   1.827  16.596   7.653
 5190POPC   NC3 5759  22.113   9.716   9.453
 5190POPC   PO4 5760  22.157   9.779   9.153
 5190POPC   GL1 5761  22.131   9.791   8.853
 5190POPC   GL2 5762  22.282   9.731   8.853
 5190POPC   C1A 5763  22.152   9.796   8.553
 5190POPC   D2A 5764  22.208   9.745   8.253
 5190POPC   C3A 5765  22.131   9.783   7.953
 5190POPC   C4A 5766  22.122   9.747   7.653
 5190POPC   C1B 5767  22.377   9.788   8.553
 5190POPC   C2B 5768  22.375   9.776   8.253
 5190POPC   C3B 5769  22.416   9.789   7.953
 5190POPC   C4B 5770  22.433   9.800   7.653
 5191POPC   NC3 5771   2.809  43.872   9.453
 5191POPC   PO4 5772   2.734  43.919   9.153
 5191POPC   GL1 5773   2.748  43.885   8.853
 5191POPC   GL2 5774   2.617  43.924   8.853
 5191POPC   C1A 5775   2.758  43.912   8.553
 5191POPC   D2A 5776   2.801  43.932   8.253
 5191POPC   C3A 5777   2.759  43.909   7.953
 5191POPC   C4A 5778   2.718  43.878   7.653
 5191POPC   C1B 5779   2.482  43.860   8.553
 5191POPC   C2B 5780   2.551  43.869   8.253
 5191POPC   C3B 5781   2.539  43.849   7.953
 5191POPC   C4B 5782   2.494  43.925   7.653
 5192POPC   NC3 5783  29.155  34.609   9.453
 5192POPC   PO4 5784  29.157  34.572   9.153
 5192POPC   GL1 5785  29.153  34.576   8.853
 5192POPC   GL2 5786  28.982  34.535   8.853
 5192POPC   C1A 5787  29.172  34.594   8.553
 5192POPC   D2A 5788  29.162  34.568   8.253
 5192POPC   C3A 5789  29.193  34.540   7.953
 5192POPC   C4A 5790  29.153  34.609   7.653
 5192POPC   C1B 5791  28.912  34.527   8.553
 5192POPC   C2B 5792  28.951  34.493   8.253
 5192POPC   C3B 5793  28.932  34.474   7.953
 5192POPC   C4B 5794  28.938  34.458   7.653
 5193POPC   NC3 5795  32.249  26.772   9.453
 5193POPC   PO4 5796  32.274  26.847   9.153
 5193POPC   GL1 5797  32.267  26.784   8.853
 5193POPC   GL2 5798  32.369  26.838   8.853
 5193POPC   C1A 5799  32.249  26.844   8.553
 5193POPC   D2A 5800  32.264  26.796   8.253
 5193POPC   C3A 5801  32.269  26.851   7.953
 5193POPC   C4A 5802  32.249  26.823   7.653
 5193POPC   C1B 5803  32.488  26.866   8.553
 5193POPC   C2B 5804  32.488  26.830   8.253
 5193POPC   C3B 5805  32.487  26.857   7.953
 5193POPC   C4B 5806  32.529  26.833   7.653
 5194POPC   NC3 5807  27.628  15.953   9.453
 5194POPC   PO4 5808  27.600  15.997   9.153
 5194POPC   GL1 5809  27.611  15.979   8.853
 5194POPC   GL2 5810  27.706  15.949   8.853
 5194POPC   C1A 5811  27.561  15.927   8.553
 5194POPC   D2A 5812  27.574  15.906   8.253
 5194POPC   C3A 5813  27.562  15.986   7.953
 5194POPC   C4A 5814  27.611  16.005   7.653
 5194POPC   C1B 5815  27.829  16.015   8.553
 5194POPC   C2B 5816  27.843  15.946   8.253
 5194POPC   C3B 5817  27.874  15.951   7.953
 5194POPC   C4B 5818  27.812  15.959   7.653
 5195POPC   NC3 5819  20.607  22.982   9.453
 5195POPC   PO4 5820  20.625  22.979   9.153
 5195POPC   GL1 5821  20.592  22.903   8.853
 5195POPC   GL2 5822  20.718  22.913   8.853
 5195POPC   C1A 5823  20.572  22.909   8.553
 5195POPC   D2A 5824  20.565  22.960   8.253
 5195POPC   C3A 5825  20.573  22.952   7.953
 5195POPC   C4A 5826  20.642  22.892   7.653
 5195POPC   C1B 5827  20.813  23.026   8.553
 5195POPC   C2B 5828  20.846  22.941   8.253
 5195POPC   C3B 5829  20.836  22.961   7.953
 5195POPC   C4B 5830  20.888  23.011   7.653
 5196POPC   NC3 5831   9.007  39.998   9.453
 5196POPC   PO4 5832   9.001  40.024   9.153
 5196POPC   GL1 5833   8.987  39.959   8.853
 5196POPC   GL2 5834   8.992  40.138   8.853
 5196POPC   C1A 5835   8.936  40.030   8.553
 5196POPC   D2A 5836   8.941  40.053   8.253
 5196POPC   C3A 5837   8.950  39.971   7.953
 5196POPC   C4A 5838   8.923  39.967   7.653
 5196POPC   C1B 5839   8.998  40.213   8.553
 5196POPC   C2B 5840   9.008  40.274   8.253
 5196POPC   C3B 5841   9.020  40.212   7.953
 5196POPC   C4B 5842   9.013  40.277   7.653
 5197POPC   NC3 5843  29.876   0.401   9.453
 5197POPC   PO4 5844  29.958   0.462   9.153
 5197POPC   GL1 5845  29.950   0.403   8.853
 5197POPC   GL2 5846  29.812   0.529   8.853
 5197POPC   C1A 5847  29.964   0.404   8.553
 5197POPC   D2A 5848  29.931   0.408   8.253
 5197POPC   C3A 5849  29.873   0.429   7.953
 5197POPC   C4A 5850  29.923   0.419   7.653
 5197POPC   C1B 5851  29.720   0.662   8.553
 5197POPC   C2B 5852  29.729   0.665   8.253
 5197POPC   C3B 5853  29.780   0.631   7.953
 5197POPC   C4B 5854  29.704   0.643   7.653
 5198POPC   NC3 5855  23.759  13.675   9.453
 5198POPC   PO4 5856  23.732  13.665   9.153
 5198POPC   GL1 5857  23.731  13.603   8.853
 5198POPC   GL2 5858  23.827  13.658   8.853
 5198POPC   C1A 5859  23.702  13.673   8.553
 5198POPC   D2A 5860  23.679  13.665   8.253
 5198POPC   C3A 5861  23.736  13.602   7.953
 5198POPC   C4A 5862  23.728  13.677   7.653
 5198POPC   C1B 5863  23.966  13.778   8.553
 5198POPC   C2B 5864  23.935  13.798   8.253
 5198POPC   C3B 5865  23.907  13.799   7.953
 5198POPC   C4B 5866  23.921  13.760   7.653
 5199POPC   NC3 5867  31.456  29.097   9.453
 5199POPC   PO4 5868  31.518  29.144   9.153
 5199POPC   GL1 5869  31.481  29.099   8.853
 5199POPC   GL2 5870  31.387  29.243   8.853
 5199POPC   C1A 5871  31.444  29.128   8.553
 5199POPC   D2A 5872  31.500  29.131   8.253
 5199POPC   C3A 5873  31.449  29.151   7.953
 5199POPC   C4A 5874  31.448  29.143   7.653
 5199POPC   C1B 5875  31.298  29.320   8.553
 5199POPC   C2B 5876  31.273  29.351   8.253
 5199POPC   C3B 5877  31.318  29.339   7.953
 5199POPC   C4B 5878  31.307  29.306   7.653
 5200POPC   NC3 5879  29.134  33.014   9.453
 5200POPC   PO4 5880  29.136  32.977   9.153
 5200POPC   GL1 5881  29.162  33.072   8.853
 5200POPC   GL2 5882  29.223  32.980   8.853
 5200POPC   C1A 5883  29.150  32.978   8.553
 5200POPC   D2A 5884  29.186  33.022   8.253
 5200POPC   C3A 5885  29.112  33.024   7.953
 5200POPC   C4A 5886  29.186  33.037   7.653
 5200POPC   C1B 5887  29.340  32.841   8.553
 5200POPC   C2B 5888  29.357  32.861   8.253
 5200POPC   C3B 5889  29.399  32.910   7.953
 5200POPC   C4B 5890  29.334  32.870   7.653
 5201POPC   NC3 5891   3.546  32.207   9.453
 5201POPC   PO4 5892   3.509  32.268   9.153
 5201POPC   GL1 5893   3.506  32.219   8.853
 5201POPC   GL2 5894   3.620  32.401   8.853
 5201POPC   C1A 5895   3.531  32.240   8.553
 5201POPC   D2A 5896   3.550  32.223   8.253
 5201POPC   C3A 5897   3.557  32.227   7.953
 5201POPC   C4A 5898   3.511  32.247   7.653
 5201POPC   C1B 5899   3.594  32.536   8.553
 5201POPC   C2B 5900   3.598  32.475   8.253
 5201POPC   C3B 5901   3.614  32.514   7.953
 5201POPC   C4B 5902   3.594  32.488   7.653
 5202POPC   NC3 5903   9.787  33.003   9.453
 5202POPC   PO4 5904   9.755  33.004   9.153
 5202POPC   GL1 5905   9.751  32.977   8.853
 5202POPC   GL2 5906   9.804  33.185   8.853
 5202POPC   C1A 5907   9.725  32.983   8.553
 5202POPC   D2A 5908   9.744  33.025   8.253
 5202POPC   C3A 5909   9.707  33.065   7.953
 5202POPC   C4A 5910   9.747  32.974   7.653
 5202POPC   C1B 5911   9.774  33.252   8.553
 5202POPC   C2B 5912   9.717  33.271   8.253
 5202POPC   C3B 5913   9.752  33.230   7.953
 5202POPC   C4B 5914   9.797  33.302   7.653
 5203POPC   NC3 5915  39.963  19.838   9.453
 5203POPC   PO4 5916  40.005  19.882   9.153
 5203POPC   GL1 5917  39.964  19.841   8.853
 5203POPC   GL2 5918  40.091  19.862   8.853
 5203POPC   C1A 5919  40.020  19.817   8.553
 5203POPC   D2A 5920  40.031  19.816   8.253
 5203POPC   C3A 5921  40.042  19.862   7.953
 5203POPC   C4A 5922  40.008  19.792   7.653
 5203POPC   C1B 5923  40.230  19.970   8.553
 5203POPC   C2B 5924  40.227  19.943   8.253
 5203POPC   C3B 5925  40.174  19.964   7.953
 5203POPC   C4B 5926  40.251  19.954   7.653
 5204POPC   NC3 5927   8.941   5.914   9.453
 5204POPC   PO4 5928   8.945   5.882   9.153
 5204POPC   GL1 5929   8.955   5.871   8.853
 5204POPC   GL2 5930   9.083   5.896   8.853
 5204POPC   C1A 5931   8.947   5.872   8.553
 5204POPC   D2A 5932   8.978   5.915   8.253
 5204POPC   C3A 5933   8.929   5.842   7.953
 5204POPC   C4A 5934   8.956   5.912   7.653
 5204POPC   C1B 5935   9.216   5.906   8.553
 5204POPC   C2B 5936   9.221   5.829   8.253
 5204POPC   C3B 5937   9.202   5.807   7.953
 5204POPC   C4B 5938   9.176   5.894   7.653
 5205POPC   NC3 5939  28.338  19.799   9.453
 5205POPC   PO4 5940  28.384  19.836   9.153
 5205POPC   GL1 5941  28.322  19.884   8.853
 5205POPC   GL2 5942  28.444  19.856   8.853
 5205POPC   C1A 5943  28.360  19.831   8.553
 5205POPC   D2A 5944  28.384  19.848   8.253
 5205POPC   C3A 5945  28.375  19.831   7.953
 5205POPC   C4A 5946  28.382  19.787   7.653
 5205POPC   C1B 5947  28.661  19.889   8.553
 5205POPC   C2B 5948  28.573  19.855   8.253
 5205POPC   C3B 5949  28.574  19.839   7.953
 5205POPC   C4B 5950  28.666  19.803   7.653
 5206POPC   NC3 5951  44.707  14.410   9.453
 5206POPC   PO4 5952  44.706  14.386   9.153
 5206POPC   GL1 5953  44.671  14.433   8.853
 5206POPC   GL2 5954  44.671  14.256   8.853
 5206POPC   C1A 5955  44.641  14.424   8.553
 5206POPC   D2A 5956  44.652  14.375   8.253
 5206POPC   C3A 5957  44.696  14.377   7.953
 5206POPC   C4A 5958  44.688  14.358   7.653
 5206POPC   C1B 5959  44.633  14.153   8.553
 5206POPC   C2B 5960  44.604  14.205   8.253
 5206POPC   C3B 5961  44.650  14.155   7.953
 5206POPC   C4B 5962  44.586  14.137   7.653
 5207POPC   NC3 5963  19.075  43.123   9.453
 5207POPC   PO4 5964  19.067  43.072   9.153
 5207POPC   GL1 5965  19.025  43.125   8.853
 5207POPC   GL2 5966  19.144  43.024   8.853
 5207POPC   C1A 5967  19.032  43.114   8.553
 5207POPC   D2A 5968  19.051  43.148   8.253
 5207POPC   C3A 5969  19.065  43.124   7.953
 5207POPC   C4A 5970  19.079  43.112   7.653
 5207POPC   C1B 5971  19.192  42.860   8.553
 5207POPC   C2B 5972  19.119  42.932   8.253
 5207POPC   C3B 5973  19.208  42.929   7.953
 5207POPC   C4B 5974  19.170  42.909   7.653
 5208POPC   NC3 5975  36.155  21.387   9.453
 5208POPC   PO4 5976  36.150  21.385   9.153
 5208POPC   GL1 5977  36.078  21.378   8.853
 5208POPC   GL2 5978  36.047  21.371   8.853
 5208POPC   C1A 5979  36.170  21.390   8.553
 5208POPC   D2A 5980  36.155  21.385   8.253
 5208POPC   C3A 5981  36.142  21.401   7.953
 5208POPC   C4A 5982  36.130  21.397   7.653
 5208POPC   C1B 5983  35.920  21.386   8.553
 5208POPC   C2B 5984  35.854  21.410   8.253
 5208POPC   C3B 5985  35.833  21.386   7.953
 5208POPC   C4B 5986  35.905  21.397   7.653
 5209POPC   NC3 5987   8.180  34.542   9.453
 5209POPC   PO4 5988   8.182  34.578   9.153
 5209POPC   GL1 5989   8.162  34.551   8.853
 5209POPC   GL2 5990   8.295  34.517   8.853
 5209POPC   C1A 5991   8.167  34.527   8.553
 5209POPC   D2A 5992   8.234  34.604   8.253
 5209POPC   C3A 5993   8.236  34.545   7.953
 5209POPC   C4A 5994   8.169  34.593   7.653
 5209POPC   C1B 5995   8.466  34.427   8.553
 5209POPC   C2B 5996   8.426  34.435   8.253
 5209POPC   C3B 5997   8.454  34.444   7.953
 5209POPC   C4B 5998   8.442  34.437   7.653
 5210POPC   NC3 5999  29.904  25.257   9.453
 5210POPC   PO4 6000  29.967  25.225   9.153
 5210POPC   GL1 6001  29.880  25.239   8.853
 5210POPC   GL2 6002  30.072  25.270   8.853
 5210POPC   C1A 6003  29.925  25.303   8.553
 5210POPC   D2A 6004  29.891  25.267   8.253
 5210POPC   C3A 6005  29.952  25.241   7.953
 5210POPC   C4A 6006  29.954  25.271   7.653
 5210POPC   C1B 6007  30.192  25.368   8.553
 5210POPC   C2B 6008  30.187  25.321   8.253
 5210POPC   C3B 6009  30.137  25.333   7.953
 5210POPC   C4B 6010  30.148  25.392   7.653
 5211POPC   NC3 6011   1.967  27.593   9.453
 5211POPC   PO4 6012   1.989  27.574   9.153
 5211POPC   GL1 6013   1.965  27.620   8.853
 5211POPC   GL2 6014   2.109  27.594   8.853
 5211POPC   C1A 6015   1.981  27.559   8.553
 5211POPC   D2A 6016   1.955  27.576   8.253
 5211POPC   C3A 6017   1.997  27.556   7.953
 5211POPC   C4A 6018   2.006  27.591   7.653
 5211POPC   C1B 6019   2.220  27.552   8.553
 5211POPC   C2B 6020   2.219  27.503   8.253
 5211POPC   C3B 6021   2.261  27.574   7.953
 5211POPC   C4B 6022   2.253  27.560   7.653
 5212POPC   NC3 6023  32.296   9.761   9.453
 5212POPC   PO4 6024  32.216   9.716   9.153
 5212POPC   GL1 6025  32.237   9.779   8.853
 5212POPC   GL2 6026  32.130   9.661   8.853
 5212POPC   C1A 6027  32.293   9.774   8.553
 5212POPC   D2A 6028  32.213   9.743   8.253
 5212POPC   C3A 6029  32.214   9.767   7.953
 5212POPC   C4A 6030  32.288   9.795   7.653
 5212POPC   C1B 6031  32.103   9.595   8.553
 5212POPC   C2B 6032  32.077   9.577   8.253
 5212POPC   C3B 6033  32.037   9.580   7.953
 5212POPC   C4B 6034  32.095   9.640   7.653
 5213POPC   NC3 6035  27.613  16.716   9.453
 5213POPC   PO4 6036  27.602  16.725   9.153
 5213POPC   GL1 6037  27.550  16.756   8.853
 5213POPC   GL2 6038  27.469  16.666   8.853
 5213POPC   C1A 6039  27.614  16.746   8.553
 5213POPC   D2A 6040  27.600  16.693   8.253
 5213POPC   C3A 6041  27.562  16.776   7.953
 5213POPC   C4A 6042  27.627  16.708   7.653
 5213POPC   C1B 6043  27.379  16.630   8.553
 5213POPC   C2B 6044  27.398  16.586   8.253
 5213POPC   C3B 6045  27.421  16.650   7.953
 5213POPC   C4B 6046  27.417  16.618   7.653
 5214POPC   NC3 6047  23.676   1.242   9.453
 5214POPC   PO4 6048  23.733   1.243   9.153
 5214POPC   GL1 6049  23.718   1.164   8.853
 5214POPC   GL2 6050  23.580   1.277   8.853
 5214POPC   C1A 6051  23.717   1.173   8.553
 5214POPC   D2A 6052  23.711   1.172   8.253
 5214POPC   C3A 6053  23.723   1.259   7.953
 5214POPC   C4A 6054  23.668   1.200   7.653
 5214POPC   C1B 6055  23.510   1.272   8.553
 5214POPC   C2B 6056  23.435   1.272   8.253
 5214POPC   C3B 6057  23.476   1.223   7.953
 5214POPC   C4B 6058  23.443   1.237   7.653
 5215POPC   NC3 6059  41.540   3.543   9.453
 5215POPC   PO4 6060  41.582   3.560   9.153
 5215POPC   GL1 6061  41.593   3.524   8.853
 5215POPC   GL2 6062  41.626   3.521   8.853
 5215POPC   C1A 6063  41.528   3.544   8.553
 5215POPC   D2A 6064  41.594   3.537   8.253
 5215POPC   C3A 6065  41.594   3.516   7.953
 5215POPC   C4A 6066  41.605   3.547   7.653
 5215POPC   C1B 6067  41.787   3.391   8.553
 5215POPC   C2B 6068  41.750   3.406   8.253
 5215POPC   C3B 6069  41.755   3.398   7.953
 5215POPC   C4B 6070  41.826   3.464   7.653
 5216POPC   NC3 6071  28.370   1.973   9.453
 5216POPC   PO4 6072  28.333   1.992   9.153
 5216POPC   GL1 6073  28.415   2.021   8.853
 5216POPC   GL2 6074  28.399   1.894   8.853
 5216POPC   C1A 6075  28.395   1.994   8.553
 5216POPC   D2A 6076  28.404   1.946   8.253
 5216POPC   C3A 6077  28.360   1.979   7.953
 5216POPC   C4A 6078  28.328   2.001   7.653
 5216POPC   C1B 6079  28.457   1.745   8.553
 5216POPC   C2B 6080  28.433   1.739   8.253
 5216POPC   C3B 6081  28.470   1.700   7.953
 5216POPC   C4B 6082  28.410   1.741   7.653
 5217POPC   NC3 6083  15.934  12.069   9.453
 5217POPC   PO4 6084  15.988  12.041   9.153
 5217POPC   GL1 6085  15.915  12.035   8.853
 5217POPC   GL2 6086  15.863  12.129   8.853
 5217POPC   C1A 6087  15.998  12.097   8.553
 5217POPC   D2A 6088  15.939  12.090   8.253
 5217POPC   C3A 6089  15.920  12.091   7.953
 5217POPC   C4A 6090  15.933  12.031   7.653
 5217POPC   C1B 6091  15.784  12.200   8.553
 5217POPC   C2B 6092  15.772  12.216   8.253
 5217POPC   C3B 6093  15.787  12.205   7.953
 5217POPC   C4B 6094  15.750  12.212   7.653
 5218POPC   NC3 6095  37.641  12.088   9.453
 5218POPC   PO4 6096  37.702  12.083   9.153
 5218POPC   GL1 6097  37.704  12.031   8.853
 5218POPC   GL2 6098  37.767  12.188   8.853
 5218POPC   C1A 6099  37.699  12.036   8.553
 5218POPC   D2A 6100  37.643  12.087   8.253
 5218POPC   C3A 6101  37.645  12.084   7.953
 5218POPC   C4A 6102  37.658  12.080   7.653
 5218POPC   C1B 6103  37.858  12.243   8.553
 5218POPC   C2B 6104  37.823  12.187   8.253
 5218POPC   C3B 6105  37.859  12.247   7.953
 5218POPC   C4B 6106  37.894  12.220   7.653
 5219POPC   NC3 6107   8.230  25.239   9.453
 5219POPC   PO4 6108   8.194  25.224   9.153
 5219POPC   GL1 6109   8.232  25.229   8.853
 5219POPC   GL2 6110   8.229  25.348   8.853
 5219POPC   C1A 6111   8.219  25.263   8.553
 5219POPC   D2A 6112   8.194  25.302   8.253
 5219POPC   C3A 6113   8.203  25.290   7.953
 5219POPC   C4A 6114   8.200  25.263   7.653
 5219POPC   C1B 6115   8.244  25.543   8.553
 5219POPC   C2B 6116   8.183  25.510   8.253
 5219POPC   C3B 6117   8.150  25.482   7.953
 5219POPC   C4B 6118   8.186  25.474   7.653
 5220POPC   NC3 6119  33.053  12.900   9.453
 5220POPC   PO4 6120  33.044  12.871   9.153
 5220POPC   GL1 6121  33.013  12.858   8.853
 5220POPC   GL2 6122  32.936  12.726   8.853
 5220POPC   C1A 6123  33.021  12.809   8.553
 5220POPC   D2A 6124  33.003  12.817   8.253
 5220POPC   C3A 6125  33.064  12.822   7.953
 5220POPC   C4A 6126  33.054  12.846   7.653
 5220POPC   C1B 6127  32.895  12.598   8.553
 5220POPC   C2B 6128  32.894  12.583   8.253
 5220POPC   C3B 6129  32.906  12.567   7.953
 5220POPC   C4B 6130  32.964  12.632   7.653
 5221POPC   NC3 6131  37.686   3.543   9.453
 5221POPC   PO4 6132  37.702   3.504   9.153
 5221POPC   GL1 6133  37.692   3.569   8.853
 5221POPC   GL2 6134  37.613   3.484   8.853
 5221POPC   C1A 6135  37.643   3.572   8.553
 5221POPC   D2A 6136  37.671   3.559   8.253
 5221POPC   C3A 6137  37.630   3.513   7.953
 5221POPC   C4A 6138  37.662   3.538   7.653
 5221POPC   C1B 6139  37.469   3.403   8.553
 5221POPC   C2B 6140  37.471   3.431   8.253
 5221POPC   C3B 6141  37.476   3.462   7.953
 5221POPC   C4B 6142  37.428   3.433   7.653
 5222POPC   NC3 6143   1.952   8.226   9.453
 5222POPC   PO4 6144   2.026   8.240   9.153
 5222POPC   GL1 6145   2.013   8.215   8.853
 5222POPC   GL2 6146   2.119   8.155   8.853
 5222POPC   C1A 6147   2.030   8.221   8.553
 5222POPC   D2A 6148   2.023   8.235   8.253
 5222POPC   C3A 6149   2.007   8.153   7.953
 5222POPC   C4A 6150   2.012   8.218   7.653
 5222POPC   C1B 6151   2.204   8.085   8.553
 5222POPC   C2B 6152   2.187   8.075   8.253
 5222POPC   C3B 6153   2.168   8.071   7.953
 5222POPC   C4B 6154   2.171   8.071   7.653
 5223POPC   NC3 6155  44.666  36.115   9.453
 5223POPC   PO4 6156  44.655  36.161   9.153
 5223POPC   GL1 6157  44.684  36.091   8.853
 5223POPC   GL2 6158  44.572  36.214   8.853
 5223POPC   C1A 6159  44.697  36.125   8.553
 5223POPC   D2A 6160  44.710  36.133   8.253
 5223POPC   C3A 6161  44.639  36.129   7.953
 5223POPC   C4A 6162  44.641  36.086   7.653
 5223POPC   C1B 6163  44.569  36.392   8.553
 5223POPC   C2B 6164  44.574  36.405   8.253
 5223POPC   C3B 6165  44.547  36.339   7.953
 5223POPC   C4B 6166  44.520  36.322   7.653
 5224POPC   NC3 6167  42.331  44.710   9.453
 5224POPC   PO4 6168  42.365  44.672   9.153
 5224POPC   GL1 6169  42.363  44.700   8.853
 5224POPC   GL2 6170  42.389  44.530   8.853
 5224POPC   C1A 6171  42.359  44.626   8.553
 5224POPC   D2A 6172  42.289  44.702   8.253
 5224POPC   C3A 6173  42.333  44.696   7.953
 5224POPC   C4A 6174  42.362  44.690   7.653
 5224POPC   C1B 6175  42.492  44.436   8.553
 5224POPC   C2B 6176  42.453  44.452   8.253
 5224POPC   C3B 6177  42.475  44.470   7.953
 5224POPC   C4B 6178  42.490  44.504   7.653
 5225POPC   NC3 6179   6.618  38.454   9.453
 5225POPC   PO4 6180   6.632  38.502   9.153
 5225POPC   GL1 6181   6.663  38.435   8.853
 5225POPC   GL2 6182   6.497  38.536   8.853
 5225POPC   C1A 6183   6.683  38.425   8.553
 5225POPC   D2A 6184   6.622  38.411   8.253
 5225POPC   C3A 6185   6.666  38.447   7.953
 5225POPC   C4A 6186   6.678  38.466   7.653
 5225POPC   C1B 6187   6.411  38.529   8.553
 5225POPC   C2B 6188   6.433  38.521   8.253
 5225POPC   C3B 6189   6.381  38.590   7.953
 5225POPC   C4B 6190   6.373  38.521   7.653
 5226POPC   NC3 6191  34.561  13.650   9.453
 5226POPC   PO4 6192  34.537  13.665   9.153
 5226POPC   GL1 6193  34.546  13.609   8.853
 5226POPC   GL2 6194  34.499  13.573   8.853
 5226POPC   C1A 6195  34.610  13.580   8.553
 5226POPC   D2A 6196  34.612  13.627   8.253
 5226POPC   C3A 6197  34.575  13.651   7.953
 5226POPC   C4A 6198  34.539  13.625   7.653
 5226POPC   C1B 6199  34.382  13.533   8.553
 5226POPC   C2B 6200  34.323  13.521   8.253
 5226POPC   C3B 6201  34.314  13.576   7.953
 5226POPC   C4B 6202  34.369  13.606   7.653
 5227POPC   NC3 6203  16.766  31.432   9.453
 5227POPC   PO4 6204  16.759  31.517   9.153
 5227POPC   GL1 6205  16.703  31.480   8.853
 5227POPC   GL2 6206  16.896  31.436   8.853
 5227POPC   C1A 6207  16.728  31.506   8.553
 5227POPC   D2A 6208  16.721  31.500   8.253
 5227POPC   C3A 6209  16.684  31.472   7.953
 5227POPC   C4A 6210  16.728  31.473   7.653
 5227POPC   C1B 6211  17.007  31.497   8.553
 5227POPC   C2B 6212  17.012  31.439   8.253
 5227POPC   C3B 6213  16.979  31.487   7.953
 5227POPC   C4B 6214  17.019  31.417   7.653
 5228POPC   NC3 6215  26.838  40.780   9.453
 5228POPC   PO4 6216  26.834  40.755   9.153
 5228POPC   GL1 6217  26.853  40.749   8.853
 5228POPC   GL2 6218  26.953  40.676   8.853
 5228POPC   C1A 6219  26.809  40.773   8.553
 5228POPC   D2A 6220  26.806  40.785   8.253
 5228POPC   C3A 6221  26.861  40.735   7.953
 5228POPC   C4A 6222  26.853  40.761   7.653
 5228POPC   C1B 6223  27.045  40.608   8.553
 5228POPC   C2B 6224  26.986  40.611   8.253
 5228POPC   C3B 6225  27.022  40.663   7.953
 5228POPC   C4B 6226  26.995  40.597   7.653
 5229POPC   NC3 6227  31.512  13.665   9.453
 5229POPC   PO4 6228  31.488  13.640   9.153
 5229POPC   GL1 6229  31.500  13.619   8.853
 5229POPC   GL2 6230  31.534  13.795   8.853
 5229POPC   C1A 6231  31.461  13.611   8.553
 5229POPC   D2A 6232  31.455  13.618   8.253
 5229POPC   C3A 6233  31.471  13.579   7.953
 5229POPC   C4A 6234  31.513  13.629   7.653
 5229POPC   C1B 6235  31.488  13.833   8.553
 5229POPC   C2B 6236  31.482  13.842   8.253
 5229POPC   C3B 6237  31.534  13.925   7.953
 5229POPC   C4B 6238  31.549  13.827   7.653
 5230POPC   NC3 6239  44.656   1.171   9.453
 5230POPC   PO4 6240  44.646   1.172   9.153
 5230POPC   GL1 6241  44.681   1.177   8.853
 5230POPC   GL2 6242  44.734   1.097   8.853
 5230POPC   C1A 6243  44.679   1.242   8.553
 5230POPC   D2A 6244  44.675   1.254   8.253
 5230POPC   C3A 6245  44.642   1.164   7.953
 5230POPC   C4A 6246  44.625   1.222   7.653
 5230POPC   C1B 6247  44.828   1.072   8.553
 5230POPC   C2B 6248  44.830   1.009   8.253
 5230POPC   C3B 6249  44.893   1.011   7.953
 5230POPC   C4B 6250  44.810   1.063   7.653
 5231POPC   NC3 6251   7.398  41.552   9.453
 5231POPC   PO4 6252   7.441  41.599   9.153
 5231POPC   GL1 6253   7.406  41.548   8.853
 5231POPC   GL2 6254   7.446  41.452   8.853
 5231POPC   C1A 6255   7.377  41.605   8.553
 5231POPC   D2A 6256   7.375  41.527   8.253
 5231POPC   C3A 6257   7.420  41.591   7.953
 5231POPC   C4A 6258   7.405  41.581   7.653
 5231POPC   C1B 6259   7.398  41.279   8.553
 5231POPC   C2B 6260   7.432  41.272   8.253
 5231POPC   C3B 6261   7.486  41.293   7.953
 5231POPC   C4B 6262   7.412  41.338   7.653
 5232POPC   NC3 6263   5.139   4.357   9.453
 5232POPC   PO4 6264   5.086   4.283   9.153
 5232POPC   GL1 6265   5.104   4.289   8.853
 5232POPC   GL2 6266   4.934   4.221   8.853
 5232POPC   C1A 6267   5.060   4.291   8.553
 5232POPC   D2A 6268   5.081   4.353   8.253
 5232POPC   C3A 6269   5.143   4.287   7.953
 5232POPC   C4A 6270   5.098   4.323   7.653
 5232POPC   C1B 6271   4.847   4.221   8.553
 5232POPC   C2B 6272   4.871   4.189   8.253
 5232POPC   C3B 6273   4.875   4.195   7.953
 5232POPC   C4B 6274   4.889   4.209   7.653
 5233POPC   NC3 6275   9.009  36.935   9.453
 5233POPC   PO4 6276   8.963  36.868   9.153
 5233POPC   GL1 6277   8.923  36.933   8.853
 5233POPC   GL2 6278   8.811  36.841   8.853
 5233POPC   C1A 6279   8.980  36.940   8.553
 5233POPC   D2A 6280   8.965  36.901   8.253
 5233POPC   C3A 6281   8.926  36.919   7.953
 5233POPC   C4A 6282   8.977  36.934   7.653
 5233POPC   C1B 6283   8.754  36.864   8.553
 5233POPC   C2B 6284   8.719  36.857   8.253
 5233POPC   C3B 6285   8.774  36.852   7.953
 5233POPC   C4B 6286   8.753  36.819   7.653
 5234POPC   NC3 6287  22.206  12.050   9.453
 5234POPC   PO4 6288  22.198  12.085   9.153
 5234POPC   GL1 6289  22.193  12.065   8.853
 5234POPC   GL2 6290  22.063  11.983   8.853
 5234POPC   C1A 6291  22.172  12.053   8.553
 5234POPC   D2A 6292  22.186  12.045   8.253
 5234POPC   C3A 6293  22.160  12.076   7.953
 5234POPC   C4A 6294  22.149  12.028   7.653
 5234POPC   C1B 6295  22.015  11.861   8.553
 5234POPC   C2B 6296  22.042  11.857   8.253
 5234POPC   C3B 6297  21.977  11.842   7.953
 5234POPC   C4B 6298  22.012  11.831   7.653
 5235POPC   NC3 6299   8.946   4.355   9.453
 5235POPC   PO4 6300   8.971   4.347   9.153
 5235POPC   GL1 6301   8.926   4.333   8.853
 5235POPC   GL2 6302   9.104   4.368   8.853
 5235POPC   C1A 6303   8.936   4.341   8.553
 5235POPC   D2A 6304   8.959   4.312   8.253
 5235POPC   C3A 6305   8.978   4.341   7.953
 5235POPC   C4A 6306   8.962   4.296   7.653
 5235POPC   C1B 6307   9.142   4.485   8.553
 5235POPC   C2B 6308   9.197   4.508   8.253
 5235POPC   C3B 6309   9.123   4.484   7.953
 5235POPC   C4B 6310   9.112   4.535   7.653
 5236POPC   NC3 6311  32.979  39.249   9.453
 5236POPC   PO4 6312  33.038  39.250   9.153
 5236POPC   GL1 6313  33.008  39.206   8.853
 5236POPC   GL2 6314  32.987  39.083   8.853
 5236POPC   C1A 6315  33.071  39.211   8.553
 5236POPC   D2A 6316  33.065  39.269   8.253
 5236POPC   C3A 6317  33.019  39.242   7.953
 5236POPC   C4A 6318  33.035  39.228   7.653
 5236POPC   C1B 6319  32.968  39.000   8.553
 5236POPC   C2B 6320  32.953  38.990   8.253
 5236POPC   C3B 6321  32.985  38.939   7.953
 5236POPC   C4B 6322  33.006  38.990   7.653
 5237POPC   NC3 6323  32.209  31.504   9.453
 5237POPC   PO4 6324  32.248  31.499   9.153
 5237POPC   GL1 6325  32.214  31.433   8.853
 5237POPC   GL2 6326  32.306  31.433   8.853
 5237POPC   C1A 6327  32.279  31.495   8.553
 5237POPC   D2A 6328  32.218  31.429   8.253
 5237POPC   C3A 6329  32.233  31.487   7.953
 5237POPC   C4A 6330  32.226  31.465   7.653
 5237POPC   C1B 6331  32.509  31.296   8.553
 5237POPC   C2B 6332  32.474  31.388   8.253
 5237POPC   C3B 6333  32.460  31.341   7.953
 5237POPC   C4B 6334  32.491  31.321   7.653
 5238POPC   NC3 6335  42.295   5.894   9.453
 5238POPC   PO4 6336  42.308   5.828   9.153
 5238POPC   GL1 6337  42.298   5.873   8.853
 5238POPC   GL2 6338  42.243   5.831   8.853
 5238POPC   C1A 6339  42.290   5.876   8.553
 5238POPC   D2A 6340  42.319   5.910   8.253
 5238POPC   C3A 6341  42.325   5.859   7.953
 5238POPC   C4A 6342  42.329   5.819   7.653
 5238POPC   C1B 6343  42.096   5.771   8.553
 5238POPC   C2B 6344  42.091   5.842   8.253
 5238POPC   C3B 6345  42.124   5.818   7.953
 5238POPC   C4B 6346  42.075   5.849   7.653
 5239POPC   NC3 6347  29.142  19.805   9.453
 5239POPC   PO4 6348  29.107  19.837   9.153
 5239POPC   GL1 6349  29.109  19.861   8.853
 5239POPC   GL2 6350  29.293  19.812   8.853
 5239POPC   C1A 6351  29.195  19.814   8.553
 5239POPC   D2A 6352  29.162  19.852   8.253
 5239POPC   C3A 6353  29.147  19.854   7.953
 5239POPC   C4A 6354  29.098  19.840   7.653
 5239POPC   C1B 6355  29.404  19.798   8.553
 5239POPC   C2B 6356  29.423  19.855   8.253
 5239POPC   C3B 6357  29.349  19.831   7.953
 5239POPC   C4B 6358  29.442  19.839   7.653
 5240POPC   NC3 6359   5.881   0.432   9.453
 5240POPC   PO4 6360   5.828   0.394   9.153
 5240POPC   GL1 6361   5.868   0.441   8.853
 5240POPC   GL2 6362   6.012   0.455   8.853
 5240POPC   C1A 6363   5.906   0.438   8.553
 5240POPC   D2A 6364   5.874   0.420   8.253
 5240POPC   C3A 6365   5.891   0.448   7.953
 5240POPC   C4A 6366   5.907   0.451   7.653
 5240POPC   C1B 6367   6.134   0.400   8.553
 5240POPC   C2B 6368   6.093   0.468   8.253
 5240POPC   C3B 6369   6.076   0.407   7.953
 5240POPC   C4B 6370   6.110   0.450   7.653
 5241POPC   NC3 6371  19.841   2.761   9.453
 5241POPC   PO4 6372  19.793   2.769   9.153
 5241POPC   GL1 6373  19.883   2.786   8.853
 5241POPC   GL2 6374  19.984   2.706   8.853
 5241POPC   C1A 6375  19.841   2.725   8.553
 5241POPC   D2A 6376  19.855   2.769   8.253
 5241POPC   C3A 6377  19.812   2.761   7.953
 5241POPC   C4A 6378  19.826   2.725   7.653
 5241POPC   C1B 6379  20.111   2.658   8.553
 5241POPC   C2B 6380  20.089   2.682   8.253
 5241POPC   C3B 6381  20.108   2.668   7.953
 5241POPC   C4B 6382  20.085   2.700   7.653
 5242POPC   NC3 6383  34.570   1.999   9.453
 5242POPC   PO4 6384  34.582   1.944   9.153
 5242POPC   GL1 6385  34.541   2.025   8.853
 5242POPC   GL2 6386  34.488   1.906   8.853
 5242POPC   C1A 6387  34.562   2.035   8.553
 5242POPC   D2A 6388  34.617   1.989   8.253
 5242POPC   C3A 6389  34.589   1.945   7.953
 5242POPC   C4A 6390  34.576   1.960   7.653
 5242POPC   C1B 6391  34.407   1.769   8.553
 5242POPC   C2B 6392  34.464   1.766   8.253
 5242POPC   C3B 6393  34.405   1.727   7.953
 5242POPC   C4B 6394  34.412   1.731   7.653
 5243POPC   NC3 6395  19.095  22.911   9.453
 5243POPC   PO4 6396  19.021  22.933   9.153
 5243POPC   GL1 6397  19.078  22.931   8.853
 5243POPC   GL2 6398  18.951  22.994   8.853
 5243POPC   C1A 6399  19.033  22.901   8.553
 5243POPC   D2A 6400  19.061  22.904   8.253
 5243POPC   C3A 6401  19.083  22.910   7.953
 5243POPC   C4A 6402  19.042  22.969   7.653
 5243POPC   C1B 6403  18.826  23.061   8.553
 5243POPC   C2B 6404  18.818  23.060   8.253
 5243POPC   C3B 6405  18.824  23.035   7.953
 5243POPC   C4B 6406  18.791  23.091   7.653
 5244POPC   NC3 6407  30.692  15.990   9.453
 5244POPC   PO4 6408  30.720  15.929   9.153
 5244POPC   GL1 6409  30.655  15.916   8.853
 5244POPC   GL2 6410  30.742  16.018   8.853
 5244POPC   C1A 6411  30.741  15.961   8.553
 5244POPC   D2A 6412  30.668  15.946   8.253
 5244POPC   C3A 6413  30.713  15.907   7.953
 5244POPC   C4A 6414  30.670  15.970   7.653
 5244POPC   C1B 6415  30.872  16.168   8.553
 5244POPC   C2B 6416  30.905  16.181   8.253
 5244POPC   C3B 6417  30.878  16.130   7.953
 5244POPC   C4B 6418  30.920  16.114   7.653
 5245POPC   NC3 6419  26.866  39.243   9.453
 5245POPC   PO4 6420  26.777  39.202   9.153
 5245POPC   GL1 6421  26.786  39.216   8.853
 5245POPC   GL2 6422  26.930  39.304   8.853
 5245POPC   C1A 6423  26.783  39.216   8.553
 5245POPC   D2A 6424  26.833  39.275   8.253
 5245POPC   C3A 6425  26.792  39.234   7.953
 5245POPC   C4A 6426  26.794  39.213   7.653
 5245POPC   C1B 6427  26.959  39.435   8.553
 5245POPC   C2B 6428  26.936  39.414   8.253
 5245POPC   C3B 6429  26.908  39.475   7.953
 5245POPC   C4B 6430  26.963  39.494   7.653
 5246POPC   NC3 6431  35.314  36.098   9.453
 5246POPC   PO4 6432  35.326  36.091   9.153
 5246POPC   GL1 6433  35.401  36.143   8.853
 5246POPC   GL2 6434  35.256  36.278   8.853
 5246POPC   C1A 6435  35.311  36.135   8.553
 5246POPC   D2A 6436  35.323  36.166   8.253
 5246POPC   C3A 6437  35.352  36.098   7.953
 5246POPC   C4A 6438  35.401  36.125   7.653
 5246POPC   C1B 6439  35.265  36.321   8.553
 5246POPC   C2B 6440  35.187  36.390   8.253
 5246POPC   C3B 6441  35.247  36.325   7.953
 5246POPC   C4B 6442  35.218  36.316   7.653
 5247POPC   NC3 6443  33.850   5.837   9.453
 5247POPC   PO4 6444  33.818   5.820   9.153
 5247POPC   GL1 6445  33.813   5.855   8.853
 5247POPC   GL2 6446  33.903   5.935   8.853
 5247POPC   C1A 6447  33.836   5.833   8.553
 5247POPC   D2A 6448  33.761   5.824   8.253
 5247POPC   C3A 6449  33.806   5.860   7.953
 5247POPC   C4A 6450  33.794   5.890   7.653
 5247POPC   C1B 6451  33.983   6.050   8.553
 5247POPC   C2B 6452  34.041   6.052   8.253
 5247POPC   C3B 6453  33.972   6.043   7.953
 5247POPC   C4B 6454  34.039   5.977   7.653
 5248POPC   NC3 6455  40.828  23.739   9.453
 5248POPC   PO4 6456  40.807  23.712   9.153
 5248POPC   GL1 6457  40.806  23.719   8.853
 5248POPC   GL2 6458  40.710  23.660   8.853
 5248POPC   C1A 6459  40.741  23.735   8.553
 5248POPC   D2A 6460  40.827  23.720   8.253
 5248POPC   C3A 6461  40.762  23.670   7.953
 5248POPC   C4A 6462  40.820  23.744   7.653
 5248POPC   C1B 6463  40.571  23.640   8.553
 5248POPC   C2B 6464  40.584  23.680   8.253
 5248POPC   C3B 6465  40.519  23.620   7.953
 5248POPC   C4B 6466  40.530  23.641   7.653
 5249POPC   NC3 6467  16.698  37.661   9.453
 5249POPC   PO4 6468  16.771  37.694   9.153
 5249POPC   GL1 6469  16.721  37.706   8.853
 5249POPC   GL2 6470  16.871  37.666   8.853
 5249POPC   C1A 6471  16.703  37.676   8.553
 5249POPC   D2A 6472  16.747  37.644   8.253
 5249POPC   C3A 6473  16.716  37.681   7.953
 5249POPC   C4A 6474  16.720  37.678   7.653
 5249POPC   C1B 6475  16.988  37.695   8.553
 5249POPC   C2B 6476  16.998  37.782   8.253
 5249POPC   C3B 6477  16.967  37.734   7.953
 5249POPC   C4B 6478  16.956  37.769   7.653
 5250POPC   NC3 6479  33.068  15.203   9.453
 5250POPC   PO4 6480  33.026  15.169   9.153
 5250POPC   GL1 6481  32.991  15.136   8.853
 5250POPC   GL2 6482  32.949  15.190   8.853
 5250POPC   C1A 6483  33.001  15.214   8.553
 5250POPC   D2A 6484  33.028  15.190   8.253
 5250POPC   C3A 6485  33.046  15.183   7.953
 5250POPC   C4A 6486  32.995  15.205   7.653
 5250POPC   C1B 6487  32.771  15.316   8.553
 5250POPC   C2B 6488  32.789  15.310   8.253
 5250POPC   C3B 6489  32.787  15.298   7.953
 5250POPC   C4B 6490  32.814  15.323   7.653
 5251POPC   NC3 6491  32.256   5.828   9.453
 5251POPC   PO4 6492  32.255   5.862   9.153
 5251POPC   GL1 6493  32.243   5.894   8.853
 5251POPC   GL2 6494  32.270   5.807   8.853
 5251POPC   C1A 6495  32.201   5.820   8.553
 5251POPC   D2A 6496  32.298   5.918   8.253
 5251POPC   C3A 6497  32.242   5.859   7.953
 5251POPC   C4A 6498  32.260   5.851   7.653
 5251POPC   C1B 6499  32.336   5.638   8.553
 5251POPC   C2B 6500  32.400   5.648   8.253
 5251POPC   C3B 6501  32.337   5.619   7.953
 5251POPC   C4B 6502  32.371   5.633   7.653
 5252POPC   NC3 6503  20.564   7.376   9.453
 5252POPC   PO4 6504  20.605   7.469   9.153
 5252POPC   GL1 6505  20.569   7.389   8.853
 5252POPC   GL2 6506  20.709   7.482   8.853
 5252POPC   C1A 6507  20.660   7.448   8.553
 5252POPC   D2A 6508  20.635   7.464   8.253
 5252POPC   C3A 6509  20.644   7.464   7.953
 5252POPC   C4A 6510  20.610   7.418   7.653
 5252POPC   C1B 6511  20.721   7.568   8.553
 5252POPC   C2B 6512  20.748   7.631   8.253
 5252POPC   C3B 6513  20.777   7.658   7.953
 5252POPC   C4B 6514  20.791   7.611   7.653
 5253POPC   NC3 6515   1.185  15.973   9.453
 5253POPC   PO4 6516   1.196  15.971   9.153
 5253POPC   GL1 6517   1.170  15.981   8.853
 5253POPC   GL2 6518   1.105  16.069   8.853
 5253POPC   C1A 6519   1.178  15.961   8.553
 5253POPC   D2A 6520   1.232  15.989   8.253
 5253POPC   C3A 6521   1.218  15.941   7.953
 5253POPC   C4A 6522   1.260  15.994   7.653
 5253POPC   C1B 6523   1.099  16.182   8.553
 5253POPC   C2B 6524   1.014  16.157   8.253
 5253POPC   C3B 6525   1.023  16.168   7.953
 5253POPC   C4B 6526   1.083  16.131   7.653
 5254POPC   NC3 6527   6.649  29.152   9.453
 5254POPC   PO4 6528   6.681  29.181   9.153
 5254POPC   GL1 6529   6.646  29.145   8.853
 5254POPC   GL2 6530   6.728  29.189   8.853
 5254POPC   C1A 6531   6.616  29.128   8.553
 5254POPC   D2A 6532   6.615  29.179   8.253
 5254POPC   C3A 6533   6.662  29.175   7.953
 5254POPC   C4A 6534   6.601  29.097   7.653
 5254POPC   C1B 6535   6.936  29.168   8.553
 5254POPC   C2B 6536   6.873  29.165   8.253
 5254POPC   C3B 6537   6.912  29.176   7.953
 5254POPC   C4B 6538   6.921  29.124   7.653
 5255POPC   NC3 6539  40.010  16.779   9.453
 5255POPC   PO4 6540  40.046  16.719   9.153
 5255POPC   GL1 6541  39.991  16.738   8.853
 5255POPC   GL2 6542  39.835  16.687   8.853
 5255POPC   C1A 6543  39.970  16.711   8.553
 5255POPC   D2A 6544  39.995  16.740   8.253
 5255POPC   C3A 6545  39.957  16.708   7.953
 5255POPC   C4A 6546  39.979  16.685   7.653
 5255POPC   C1B 6547  39.735  16.708   8.553
 5255POPC   C2B 6548  39.763  16.727   8.253
 5255POPC   C3B 6549  39.763  16.767   7.953
 5255POPC   C4B 6550  39.770  16.781   7.653
 5256POPC   NC3 6551   2.739   4.271   9.453
 5256POPC   PO4 6552   2.740   4.294   9.153
 5256POPC   GL1 6553   2.738   4.284   8.853
 5256POPC   GL2 6554   2.852   4.381   8.853
 5256POPC   C1A 6555   2.739   4.329   8.553
 5256POPC   D2A 6556   2.776   4.333   8.253
 5256POPC   C3A 6557   2.733   4.321   7.953
 5256POPC   C4A 6558   2.805   4.315   7.653
 5256POPC   C1B 6559   2.854   4.589   8.553
 5256POPC   C2B 6560   2.847   4.572   8.253
 5256POPC   C3B 6561   2.881   4.571   7.953
 5256POPC   C4B 6562   2.905   4.501   7.653
 5257POPC   NC3 6563  25.302   5.870   9.453
 5257POPC   PO4 6564  25.251   5.892   9.153
 5257POPC   GL1 6565  25.281   5.847   8.853
 5257POPC   GL2 6566  25.092   5.871   8.853
 5257POPC   C1A 6567  25.264   5.917   8.553
 5257POPC   D2A 6568  25.247   5.914   8.253
 5257POPC   C3A 6569  25.216   5.884   7.953
 5257POPC   C4A 6570  25.262   5.889   7.653
 5257POPC   C1B 6571  25.007   5.887   8.553
 5257POPC   C2B 6572  25.066   5.897   8.253
 5257POPC   C3B 6573  25.048   5.903   7.953
 5257POPC   C4B 6574  25.027   5.930   7.653
 5258POPC   NC3 6575  12.809  11.325   9.453
 5258POPC   PO4 6576  12.890  11.253   9.153
 5258POPC   GL1 6577  12.816  11.298   8.853
 5258POPC   GL2 6578  12.807  11.177   8.853
 5258POPC   C1A 6579  12.851  11.293   8.553
 5258POPC   D2A 6580  12.839  11.320   8.253
 5258POPC   C3A 6581  12.881  11.273   7.953
 5258POPC   C4A 6582  12.836  11.330   7.653
 5258POPC   C1B 6583  12.753  11.061   8.553
 5258POPC   C2B 6584  12.696  11.097   8.253
 5258POPC   C3B 6585  12.722  11.114   7.953
 5258POPC   C4B 6586  12.679  11.080   7.653
 5259POPC   NC3 6587  42.333   5.050   9.453
 5259POPC   PO4 6588  42.319   5.132   9.153
 5259POPC   GL1 6589  42.381   5.140   8.853
 5259POPC   GL2 6590  42.472   5.138   8.853
 5259POPC   C1A 6591  42.345   5.092   8.553
 5259POPC   D2A 6592  42.333   5.061   8.253
 5259POPC   C3A 6593  42.382   5.106   7.953
 5259POPC   C4A 6594  42.359   5.082   7.653
 5259POPC   C1B 6595  42.600   5.210   8.553
 5259POPC   C2B 6596  42.538   5.207   8.253
 5259POPC   C3B 6597  42.603   5.210   7.953
 5259POPC   C4B 6598  42.528   5.141   7.653
 5260POPC   NC3 6599  37.720   7.462   9.453
 5260POPC   PO4 6600  37.657   7.384   9.153
 5260POPC   GL1 6601  37.706   7.431   8.853
 5260POPC   GL2 6602  37.769   7.504   8.853
 5260POPC   C1A 6603  37.713   7.390   8.553
 5260POPC   D2A 6604  37.681   7.461   8.253
 5260POPC   C3A 6605  37.686   7.376   7.953
 5260POPC   C4A 6606  37.699   7.434   7.653
 5260POPC   C1B 6607  37.904   7.578   8.553
 5260POPC   C2B 6608  37.869   7.597   8.253
 5260POPC   C3B 6609  37.823   7.590   7.953
 5260POPC   C4B 6610  37.838   7.594   7.653
 5261POPC   NC3 6611  41.546  29.964   9.453
 5261POPC   PO4 6612  41.593  29.944   9.153
 5261POPC   GL1 6613  41.586  29.949   8.853
 5261POPC   GL2 6614  41.558  29.801   8.853
 5261POPC   C1A 6615  41.545  29.872   8.553
 5261POPC   D2A 6616  41.571  29.941   8.253
 5261POPC   C3A 6617  41.552  29.910   7.953
 5261POPC   C4A 6618  41.574  29.872   7.653
 5261POPC   C1B 6619  41.592  29.641   8.553
 5261POPC   C2B 6620  41.511  29.717   8.253
 5261POPC   C3B 6621  41.554  29.715   7.953
 5261POPC   C4B 6622  41.522  29.677   7.653
 5262POPC   NC3 6623  40.762  16.726   9.453
 5262POPC   PO4 6624  40.797  16.766   9.153
 5262POPC   GL1 6625  40.776  16.695   8.853
 5262POPC   GL2 6626  40.830  16.634   8.853
 5262POPC   C1A 6627  40.765  16.685   8.553
 5262POPC   D2A 6628  40.768  16.745   8.253
 5262POPC   C3A 6629  40.805  16.743   7.953
 5262POPC   C4A 6630  40.777  16.712   7.653
 5262POPC   C1B 6631  40.944  16.526   8.553
 5262POPC   C2B 6632  40.864  16.563   8.253
 5262POPC   C3B 6633  40.876  16.476   7.953
 5262POPC   C4B 6634  40.897  16.547   7.653
 5263POPC   NC3 6635   1.242  22.122   9.453
 5263POPC   PO4 6636   1.235  22.165   9.153
 5263POPC   GL1 6637   1.174  22.115   8.853
 5263POPC   GL2 6638   1.098  22.063   8.853
 5263POPC   C1A 6639   1.219  22.203   8.553
 5263POPC   D2A 6640   1.199  22.178   8.253
 5263POPC   C3A 6641   1.199  22.124   7.953
 5263POPC   C4A 6642   1.193  22.184   7.653
 5263POPC   C1B 6643   1.032  21.950   8.553
 5263POPC   C2B 6644   1.055  21.957   8.253
 5263POPC   C3B 6645   1.085  21.942   7.953
 5263POPC   C4B 6646   1.081  21.997   7.653
 5264POPC   NC3 6647  14.382  29.894   9.453
 5264POPC   PO4 6648  14.396  29.948   9.153
 5264POPC   GL1 6649  14.359  29.965   8.853
 5264POPC   GL2 6650  14.321  29.886   8.853
 5264POPC   C1A 6651  14.415  29.932   8.553
 5264POPC   D2A 6652  14.365  29.911   8.253
 5264POPC   C3A 6653  14.390  29.917   7.953
 5264POPC   C4A 6654  14.435  29.878   7.653
 5264POPC   C1B 6655  14.141  29.935   8.553
 5264POPC   C2B 6656  14.185  29.972   8.253
 5264POPC   C3B 6657  14.110  29.948   7.953
 5264POPC   C4B 6658  14.194  29.889   7.653
 5265POPC   NC3 6659  43.903   6.603   9.453
 5265POPC   PO4 6660  43.899   6.633   9.153
 5265POPC   GL1 6661  43.934   6.658   8.853
 5265POPC   GL2 6662  43.774   6.761   8.853
 5265POPC   C1A 6663  43.916   6.665   8.553
 5265POPC   D2A 6664  43.927   6.602   8.253
 5265POPC   C3A 6665  43.921   6.673   7.953
 5265POPC   C4A 6666  43.867   6.657   7.653
 5265POPC   C1B 6667  43.706   6.811   8.553
 5265POPC   C2B 6668  43.721   6.784   8.253
 5265POPC   C3B 6669  43.693   6.791   7.953
 5265POPC   C4B 6670  43.668   6.751   7.653
 5266POPC   NC3 6671  39.990  33.798   9.453
 5266POPC   PO4 6672  40.031  33.838   9.153
 5266POPC   GL1 6673  40.032  33.848   8.853
 5266POPC   GL2 6674  39.983  33.875   8.853
 5266POPC   C1A 6675  40.026  33.833   8.553
 5266POPC   D2A 6676  40.016  33.800   8.253
 5266POPC   C3A 6677  39.981  33.798   7.953
 5266POPC   C4A 6678  40.050  33.792   7.653
 5266POPC   C1B 6679  40.049  34.081   8.553
 5266POPC   C2B 6680  40.017  34.013   8.253
 5266POPC   C3B 6681  39.998  34.094   7.953
 5266POPC   C4B 6682  40.020  34.097   7.653
 5267POPC   NC3 6683  10.529  42.329   9.453
 5267POPC   PO4 6684  10.523  42.359   9.153
 5267POPC   GL1 6685  10.537  42.356   8.853
 5267POPC   GL2 6686  10.508  42.434   8.853
 5267POPC   C1A 6687  10.530  42.335   8.553
 5267POPC   D2A 6688  10.555  42.369   8.253
 5267POPC   C3A 6689  10.481  42.370   7.953
 5267POPC   C4A 6690  10.489  42.327   7.653
 5267POPC   C1B 6691  10.576  42.609   8.553
 5267POPC   C2B 6692  10.532  42.579   8.253
 5267POPC   C3B 6693  10.548  42.631   7.953
 5267POPC   C4B 6694  10.495  42.573   7.653
 5268POPC   NC3 6695  36.886  19.867   9.453
 5268POPC   PO4 6696  36.877  19.797   9.153
 5268POPC   GL1 6697  36.924  19.800   8.853
 5268POPC   GL2 6698  36.993  19.926   8.853
 5268POPC   C1A 6699  36.939  19.799   8.553
 5268POPC   D2A 6700  36.869  19.850   8.253
 5268POPC   C3A 6701  36.863  19.787   7.953
 5268POPC   C4A 6702  36.952  19.845   7.653
 5268POPC   C1B 6703  36.983  20.084   8.553
 5268POPC   C2B 6704  36.963  20.031   8.253
 5268POPC   C3B 6705  37.003  20.086   7.953
 5268POPC   C4B 6706  36.965  20.071   7.653
 5269POPC   NC3 6707  44.652   5.917   9.453
 5269POPC   PO4 6708  44.617   5.866   9.153
 5269POPC   GL1 6709  44.709   5.895   8.853
 5269POPC   GL2 6710  44.657   5.974   8.853
 5269POPC   C1A 6711  44.617   5.845   8.553
 5269POPC   D2A 6712  44.645   5.888   8.253
 5269POPC   C3A 6713  44.619   5.876   7.953
 5269POPC   C4A 6714  44.640   5.859   7.653
 5269POPC   C1B 6715  44.693   6.137   8.553
 5269POPC   C2B 6716  44.680   6.109   8.253
 5269POPC   C3B 6717  44.669   6.097   7.953
 5269POPC   C4B 6718  44.714   6.157   7.653
 5270POPC   NC3 6719  22.963   8.932   9.453
 5270POPC   PO4 6720  22.950   8.934   9.153
 5270POPC   GL1 6721  22.907   9.019   8.853
 5270POPC   GL2 6722  22.929   8.844   8.853
 5270POPC   C1A 6723  22.901   9.012   8.553
 5270POPC   D2A 6724  22.965   8.966   8.253
 5270POPC   C3A 6725  22.978   8.980   7.953
 5270POPC   C4A 6726  22.983   8.941   7.653
 5270POPC   C1B 6727  22.950   8.681   8.553
 5270POPC   C2B 6728  22.957   8.776   8.253
 5270POPC   C3B 6729  23.017   8.763   7.953
 5270POPC   C4B 6730  22.953   8.742   7.653
 5271POPC   NC3 6731  17.520  32.212   9.453
 5271POPC   PO4 6732  17.464  32.255   9.153
 5271POPC   GL1 6733  17.526  32.272   8.853
 5271POPC   GL2 6734  17.381  32.317   8.853
 5271POPC   C1A 6735  17.508  32.225   8.553
 5271POPC   D2A 6736  17.489  32.228   8.253
 5271POPC   C3A 6737  17.466  32.267   7.953
 5271POPC   C4A 6738  17.498  32.234   7.653
 5271POPC   C1B 6739  17.231  32.367   8.553
 5271POPC   C2B 6740  17.263  32.377   8.253
 5271POPC   C3B 6741  17.224  32.335   7.953
 5271POPC   C4B 6742  17.277  32.347   7.653
 5272POPC   NC3 6743  24.464  43.115   9.453
 5272POPC   PO4 6744  24.504  43.151   9.153
 5272POPC   GL1 6745  24.504  43.130   8.853
 5272POPC   GL2 6746  24.342  43.068   8.853
 5272POPC   C1A 6747  24.448  43.066   8.553
 5272POPC   D2A 6748  24.470  43.133   8.253
 5272POPC   C3A 6749  24.519  43.067   7.953
 5272POPC   C4A 6750  24.450  43.088   7.653
 5272POPC   C1B 6751  24.301  42.987   8.553
 5272POPC   C2B 6752  24.302  43.034   8.253
 5272POPC   C3B 6753  24.235  42.970   7.953
 5272POPC   C4B 6754  24.237  42.955   7.653
 5273POPC   NC3 6755  15.957  19.836   9.453
 5273POPC   PO4 6756  15.911  19.829   9.153
 5273POPC   GL1 6757  15.927  19.812   8.853
 5273POPC   GL2 6758  16.061  19.953   8.853
 5273POPC   C1A 6759  15.974  19.864   8.553
 5273POPC   D2A 6760  15.963  19.867   8.253
 5273POPC   C3A 6761  15.967  19.882   7.953
 5273POPC   C4A 6762  15.988  19.793   7.653
 5273POPC   C1B 6763  16.114  19.990   8.553
 5273POPC   C2B 6764  16.133  19.930   8.253
 5273POPC   C3B 6765  16.160  19.924   7.953
 5273POPC   C4B 6766  16.187  20.016   7.653
 5274POPC   NC3 6767  26.822  43.148   9.453
 5274POPC   PO4 6768  26.866  43.098   9.153
 5274POPC   GL1 6769  26.827  43.124   8.853
 5274POPC   GL2 6770  26.796  43.181   8.853
 5274POPC   C1A 6771  26.843  43.113   8.553
 5274POPC   D2A 6772  26.856  43.112   8.253
 5274POPC   C3A 6773  26.846  43.099   7.953
 5274POPC   C4A 6774  26.822  43.067   7.653
 5274POPC   C1B 6775  26.672  43.375   8.553
 5274POPC   C2B 6776  26.735  43.320   8.253
 5274POPC   C3B 6777  26.664  43.369   7.953
 5274POPC   C4B 6778  26.695  43.299   7.653
 5275POPC   NC3 6779  24.524   3.586   9.453
 5275POPC   PO4 6780  24.440   3.566   9.153
 5275POPC   GL1 6781  24.455   3.577   8.853
 5275POPC   GL2 6782  24.418   3.523   8.853
 5275POPC   C1A 6783  24.511   3.581   8.553
 5275POPC   D2A 6784  24.485   3.587   8.253
 5275POPC   C3A 6785  24.490   3.531   7.953
 5275POPC   C4A 6786  24.519   3.557   7.653
 5275POPC   C1B 6787  24.258   3.492   8.553
 5275POPC   C2B 6788  24.285   3.507   8.253
 5275POPC   C3B 6789  24.244   3.478   7.953
 5275POPC   C4B 6790  24.236   3.488   7.653
 5276POPC   NC3 6791   7.413  25.306   9.453
 5276POPC   PO4 6792   7.467  25.249   9.153
 5276POPC   GL1 6793   7.407  25.263   8.853
 5276POPC   GL2 6794   7.579  25.262   8.853
 5276POPC   C1A 6795   7.434  25.232   8.553
 5276POPC   D2A 6796   7.413  25.284   8.253
 5276POPC   C3A 6797   7.371  25.240   7.953
 5276POPC   C4A 6798   7.452  25.266   7.653
 5276POPC   C1B 6799   7.682  25.255   8.553
 5276POPC   C2B 6800   7.639  25.255   8.253
 5276POPC   C3B 6801   7.699  25.329   7.953
 5276POPC   C4B 6802   7.683  25.327   7.653
 5277POPC   NC3 6803   0.456   8.945   9.453
 5277POPC   PO4 6804   0.408   9.006   9.153
 5277POPC   GL1 6805   0.415   9.019   8.853
 5277POPC   GL2 6806   0.434   9.099   8.853
 5277POPC   C1A 6807   0.482   8.963   8.553
 5277POPC   D2A 6808   0.480   8.974   8.253
 5277POPC   C3A 6809   0.395   9.010   7.953
 5277POPC   C4A 6810   0.424   8.981   7.653
 5277POPC   C1B 6811   0.362   9.189   8.553
 5277POPC   C2B 6812   0.370   9.183   8.253
 5277POPC   C3B 6813   0.346   9.178   7.953
 5277POPC   C4B 6814   0.398   9.206   7.653
 5278POPC   NC3 6815  23.680   5.077   9.453
 5278POPC   PO4 6816  23.680   5.125   9.153
 5278POPC   GL1 6817  23.665   5.047   8.853
 5278POPC   GL2 6818  23.635   5.184   8.853
 5278POPC   C1A 6819  23.760   5.058   8.553
 5278POPC   D2A 6820  23.729   5.106   8.253
 5278POPC   C3A 6821  23.728   5.081   7.953
 5278POPC   C4A 6822  23.729   5.068   7.653
 5278POPC   C1B 6823  23.612   5.286   8.553
 5278POPC   C2B 6824  23.550   5.328   8.253
 5278POPC   C3B 6825  23.609   5.270   7.953
 5278POPC   C4B 6826  23.595   5.338   7.653
 5279POPC   NC3 6827  42.303  40.006   9.453
 5279POPC   PO4 6828  42.333  39.958   9.153
 5279POPC   GL1 6829  42.372  40.002   8.853
 5279POPC   GL2 6830  42.420  39.916   8.853
 5279POPC   C1A 6831  42.368  40.001   8.553
 5279POPC   D2A 6832  42.382  40.038   8.253
 5279POPC   C3A 6833  42.371  40.010   7.953
 5279POPC   C4A 6834  42.315  39.964   7.653
 5279POPC   C1B 6835  42.407  39.751   8.553
 5279POPC   C2B 6836  42.403  39.742   8.253
 5279POPC   C3B 6837  42.441  39.753   7.953
 5279POPC   C4B 6838  42.441  39.795   7.653
 5280POPC   NC3 6839  25.238  38.426   9.453
 5280POPC   PO4 6840  25.281  38.438   9.153
 5280POPC   GL1 6841  25.270  38.446   8.853
 5280POPC   GL2 6842  25.247  38.365   8.853
 5280POPC   C1A 6843  25.304  38.409   8.553
 5280POPC   D2A 6844  25.244  38.448   8.253
 5280POPC   C3A 6845  25.233  38.431   7.953
 5280POPC   C4A 6846  25.258  38.444   7.653
 5280POPC   C1B 6847  25.292  38.160   8.553
 5280POPC   C2B 6848  25.237  38.157   8.253
 5280POPC   C3B 6849  25.299  38.234   7.953
 5280POPC   C4B 6850  25.290  38.180   7.653
 5281POPC   NC3 6851  42.292  33.809   9.453
 5281POPC   PO4 6852  42.320  33.795   9.153
 5281POPC   GL1 6853  42.299  33.837   8.853
 5281POPC   GL2 6854  42.275  33.851   8.853
 5281POPC   C1A 6855  42.383  33.763   8.553
 5281POPC   D2A 6856  42.297  33.815   8.253
 5281POPC   C3A 6857  42.311  33.778   7.953
 5281POPC   C4A 6858  42.335  33.796   7.653
 5281POPC   C1B 6859  42.207  33.946   8.553
 5281POPC   C2B 6860  42.189  33.956   8.253
 5281POPC   C3B 6861  42.133  33.940   7.953
 5281POPC   C4B 6862  42.199  33.971   7.653
 5282POPC   NC3 6863  20.581  33.832   9.453
 5282POPC   PO4 6864  20.629  33.796   9.153
 5282POPC   GL1 6865  20.617  33.827   8.853
 5282POPC   GL2 6866  20.476  33.849   8.853
 5282POPC   C1A 6867  20.614  33.806   8.553
 5282POPC   D2A 6868  20.645  33.751   8.253
 5282POPC   C3A 6869  20.633  33.783   7.953
 5282POPC   C4A 6870  20.570  33.819   7.653
 5282POPC   C1B 6871  20.383  33.888   8.553
 5282POPC   C2B 6872  20.401  33.914   8.253
 5282POPC   C3B 6873  20.406  33.915   7.953
 5282POPC   C4B 6874  20.385  33.983   7.653
 5283POPC   NC3 6875  42.303  22.900   9.453
 5283POPC   PO4 6876  42.363  22.893   9.153
 5283POPC   GL1 6877  42.313  22.920   8.853
 5283POPC   GL2 6878  42.473  22.939   8.853
 5283POPC   C1A 6879  42.296  22.977   8.553
 5283POPC   D2A 6880  42.311  22.931   8.253
 5283POPC   C3A 6881  42.292  22.957   7.953
 5283POPC   C4A 6882  42.310  22.925   7.653
 5283POPC   C1B 6883  42.610  22.857   8.553
 5283POPC   C2B 6884  42.576  22.886   8.253
 5283POPC   C3B 6885  42.538  22.911   7.953
 5283POPC   C4B 6886  42.569  22.892   7.653
 5284POPC   NC3 6887  11.266   9.001   9.453
 5284POPC   PO4 6888  11.317   8.979   9.153
 5284POPC   GL1 6889  11.273   8.977   8.853
 5284POPC   GL2 6890  11.211   8.889   8.853
 5284POPC   C1A 6891  11.265   8.932   8.553
 5284POPC   D2A 6892  11.322   8.997   8.253
 5284POPC   C3A 6893  11.345   9.020   7.953
 5284POPC   C4A 6894  11.257   8.986   7.653
 5284POPC   C1B 6895  11.115   8.895   8.553
 5284POPC   C2B 6896  11.085   8.911   8.253
 5284POPC   C3B 6897  11.109   8.836   7.953
 5284POPC   C4B 6898  11.046   8.907   7.653
 5285POPC   NC3 6899  28.370  35.391   9.453
 5285POPC   PO4 6900  28.411  35.347   9.153
 5285POPC   GL1 6901  28.369  35.375   8.853
 5285POPC   GL2 6902  28.352  35.253   8.853
 5285POPC   C1A 6903  28.377  35.328   8.553
 5285POPC   D2A 6904  28.393  35.325   8.253
 5285POPC   C3A 6905  28.345  35.384   7.953
 5285POPC   C4A 6906  28.390  35.361   7.653
 5285POPC   C1B 6907  28.319  35.113   8.553
 5285POPC   C2B 6908  28.318  35.129   8.253
 5285POPC   C3B 6909  28.282  35.106   7.953
 5285POPC   C4B 6910  28.333  35.088   7.653
 5286POPC   NC3 6911   6.691  32.278   9.453
 5286POPC   PO4 6912   6.652  32.215   9.153
 5286POPC   GL1 6913   6.641  32.222   8.853
 5286POPC   GL2 6914   6.671  32.400   8.853
 5286POPC   C1A 6915   6.624  32.275   8.553
 5286POPC   D2A 6916   6.643  32.224   8.253
 5286POPC   C3A 6917   6.679  32.214   7.953
 5286POPC   C4A 6918   6.614  32.219   7.653
 5286POPC   C1B 6919   6.804  32.464   8.553
 5286POPC   C2B 6920   6.778  32.419   8.253
 5286POPC   C3B 6921   6.782  32.500   7.953
 5286POPC   C4B 6922   6.801  32.486   7.653
 5287POPC   NC3 6923  16.762  43.061   9.453
 5287POPC   PO4 6924  16.769  43.141   9.153
 5287POPC   GL1 6925  16.769  43.106   8.853
 5287POPC   GL2 6926  16.792  43.193   8.853
 5287POPC   C1A 6927  16.705  43.120   8.553
 5287POPC   D2A 6928  16.708  43.123   8.253
 5287POPC   C3A 6929  16.777  43.120   7.953
 5287POPC   C4A 6930  16.723  43.071   7.653
 5287POPC   C1B 6931  16.894  43.306   8.553
 5287POPC   C2B 6932  16.966  43.230   8.253
 5287POPC   C3B 6933  16.903  43.248   7.953
 5287POPC   C4B 6934  16.961  43.250   7.653
 5288POPC   NC3 6935  12.111  44.703   9.453
 5288POPC   PO4 6936  12.085  44.658   9.153
 5288POPC   GL1 6937  12.093  44.618   8.853
 5288POPC   GL2 6938  12.087  44.507   8.853
 5288POPC   C1A 6939  12.085  44.692   8.553
 5288POPC   D2A 6940  12.069  44.640   8.253
 5288POPC   C3A 6941  12.027  44.682   7.953
 5288POPC   C4A 6942  12.093  44.660   7.653
 5288POPC   C1B 6943  12.121  44.397   8.553
 5288POPC   C2B 6944  12.048  44.372   8.253
 5288POPC   C3B 6945  12.098  44.381   7.953
 5288POPC   C4B 6946  12.068  44.364   7.653
 5289POPC   NC3 6947  41.555  12.115   9.453
 5289POPC   PO4 6948  41.591  12.113   9.153
 5289POPC   GL1 6949  41.583  12.114   8.853
 5289POPC   GL2 6950  41.642  12.029   8.853
 5289POPC   C1A 6951  41.563  12.087   8.553
 5289POPC   D2A 6952  41.549  12.063   8.253
 5289POPC   C3A 6953  41.511  12.081   7.953
 5289POPC   C4A 6954  41.587  12.115   7.653
 5289POPC   C1B 6955  41.771  11.994   8.553
 5289POPC   C2B 6956  41.803  12.032   8.253
 5289POPC   C3B 6957  41.799  12.034   7.953
 5289POPC   C4B 6958  41.760  12.047   7.653
 5290POPC   NC3 6959  12.841  32.298   9.453
 5290POPC   PO4 6960  12.894  32.226   9.153
 5290POPC   GL1 6961  12.858  32.282   8.853
 5290POPC   GL2 6962  12.771  32.217   8.853
 5290POPC   C1A 6963  12.846  32.249   8.553
 5290POPC   D2A 6964  12.854  32.237   8.253
 5290POPC   C3A 6965  12.879  32.240   7.953
 5290POPC   C4A 6966  12.805  32.251   7.653
 5290POPC   C1B 6967  12.586  32.136   8.553
 5290POPC   C2B 6968  12.600  32.170   8.253
 5290POPC   C3B 6969  12.633  32.174   7.953
 5290POPC   C4B 6970  12.658  32.191   7.653
 5291POPC   NC3 6971  28.348  19.059   9.453
 5291POPC   PO4 6972  28.343  19.052   9.153
 5291POPC   GL1 6973  28.341  19.024   8.853
 5291POPC   GL2 6974  28.366  19.147   8.853
 5291POPC   C1A 6975  28.418  19.075   8.553
 5291POPC   D2A 6976  28.332  19.078   8.253
 5291POPC   C3A 6977  28.346  19.043   7.953
 5291POPC   C4A 6978  28.360  19.042   7.653
 5291POPC   C1B 6979  28.304  19.269   8.553
 5291POPC   C2B 6980  28.306  19.279   8.253
 5291POPC   C3B 6981  28.271  19.318   7.953
 5291POPC   C4B 6982  28.271  19.270   7.653
 5292POPC   NC3 6983  32.270   9.013   9.453
 5292POPC   PO4 6984  32.293   9.007   9.153
 5292POPC   GL1 6985  32.238   9.017   8.853
 5292POPC   GL2 6986  32.226   8.882   8.853
 5292POPC   C1A 6987  32.266   8.923   8.553
 5292POPC   D2A 6988  32.293   8.985   8.253
 5292POPC   C3A 6989  32.253   8.980   7.953
 5292POPC   C4A 6990  32.239   8.972   7.653
 5292POPC   C1B 6991  32.268   8.747   8.553
 5292POPC   C2B 6992  32.332   8.738   8.253
 5292POPC   C3B 6993  32.265   8.753   7.953
 5292POPC   C4B 6994  32.319   8.682   7.653
 5293POPC   NC3 6995   2.755  26.075   9.453
 5293POPC   PO4 6996   2.780  26.007   9.153
 5293POPC   GL1 6997   2.815  26.038   8.853
 5293POPC   GL2 6998   2.760  26.192   8.853
 5293POPC   C1A 6999   2.763  26.023   8.553
 5293POPC   D2A 7000   2.768  26.017   8.253
 5293POPC   C3A 7001   2.729  26.016   7.953
 5293POPC   C4A 7002   2.717  25.995   7.653
 5293POPC   C1B 7003   2.679  26.246   8.553
 5293POPC   C2B 7004   2.690  26.317   8.253
 5293POPC   C3B 7005   2.716  26.256   7.953
 5293POPC   C4B 7006   2.681  26.325   7.653
 5294POPC   NC3 7007  29.098  29.147   9.453
 5294POPC   PO4 7008  29.176  29.174   9.153
 5294POPC   GL1 7009  29.180  29.187   8.853
 5294POPC   GL2 7010  29.011  29.028   8.853
 5294POPC   C1A 7011  29.187  29.130   8.553
 5294POPC   D2A 7012  29.098  29.175   8.253
 5294POPC   C3A 7013  29.130  29.169   7.953
 5294POPC   C4A 7014  29.171  29.169   7.653
 5294POPC   C1B 7015  28.986  28.933   8.553
 5294POPC   C2B 7016  28.954  28.958   8.253
 5294POPC   C3B 7017  29.003  28.953   7.953
 5294POPC   C4B 7018  29.004  28.950   7.653
 5295POPC   NC3 7019  14.386  20.651   9.453
 5295POPC   PO4 7020  14.384  20.597   9.153
 5295POPC   GL1 7021  14.451  20.651   8.853
 5295POPC   GL2 7022  14.417  20.738   8.853
 5295POPC   C1A 7023  14.432  20.613   8.553
 5295POPC   D2A 7024  14.372  20.578   8.253
 5295POPC   C3A 7025  14.369  20.580   7.953
 5295POPC   C4A 7026  14.436  20.653   7.653
 5295POPC   C1B 7027  14.385  20.886   8.553
 5295POPC   C2B 7028  14.404  20.867   8.253
 5295POPC   C3B 7029  14.426  20.836   7.953
 5295POPC   C4B 7030  14.444  20.862   7.653
 5296POPC   NC3 7031  36.912  14.443   9.453
 5296POPC   PO4 7032  36.879  14.413   9.153
 5296POPC   GL1 7033  36.893  14.402   8.853
 5296POPC   GL2 7034  36.999  14.430   8.853
 5296POPC   C1A 7035  36.941  14.442   8.553
 5296POPC   D2A 7036  36.892  14.357   8.253
 5296POPC   C3A 7037  36.904  14.415   7.953
 5296POPC   C4A 7038  36.889  14.373   7.653
 5296POPC   C1B 7039  37.160  14.402   8.553
 5296POPC   C2B 7040  37.120  14.484   8.253
 5296POPC   C3B 7041  37.138  14.428   7.953
 5296POPC   C4B 7042  37.180  14.442   7.653
 5297POPC   NC3 7043   2.798  21.396   9.453
 5297POPC   PO4 7044   2.749  21.386   9.153
 5297POPC   GL1 7045   2.759  21.398   8.853
 5297POPC   GL2 7046   2.906  21.440   8.853
 5297POPC   C1A 7047   2.729  21.376   8.553
 5297POPC   D2A 7048   2.716  21.409   8.253
 5297POPC   C3A 7049   2.811  21.374   7.953
 5297POPC   C4A 7050   2.772  21.344   7.653
 5297POPC   C1B 7051   3.022  21.454   8.553
 5297POPC   C2B 7052   2.974  21.472   8.253
 5297POPC   C3B 7053   2.982  21.440   7.953
 5297POPC   C4B 7054   3.053  21.434   7.653
 5298POPC   NC3 7055  11.302  27.557   9.453
 5298POPC   PO4 7056  11.314  27.565   9.153
 5298POPC   GL1 7057  11.301  27.568   8.853
 5298POPC   GL2 7058  11.224  27.717   8.853
 5298POPC   C1A 7059  11.272  27.629   8.553
 5298POPC   D2A 7060  11.342  27.568   8.253
 5298POPC   C3A 7061  11.288  27.599   7.953
 5298POPC   C4A 7062  11.287  27.619   7.653
 5298POPC   C1B 7063  11.125  27.783   8.553
 5298POPC   C2B 7064  11.172  27.775   8.253
 5298POPC   C3B 7065  11.175  27.817   7.953
 5298POPC   C4B 7066  11.180  27.850   7.653
 5299POPC   NC3 7067  31.432  37.646   9.453
 5299POPC   PO4 7068  31.460  37.646   9.153
 5299POPC   GL1 7069  31.463  37.718   8.853
 5299POPC   GL2 7070  31.570  37.756   8.853
 5299POPC   C1A 7071  31.455  37.713   8.553
 5299POPC   D2A 7072  31.470  37.710   8.253
 5299POPC   C3A 7073  31.450  37.694   7.953
 5299POPC   C4A 7074  31.454  37.637   7.653
 5299POPC   C1B 7075  31.647  37.826   8.553
 5299POPC   C2B 7076  31.692  37.828   8.253
 5299POPC   C3B 7077  31.666  37.815   7.953
 5299POPC   C4B 7078  31.692  37.845   7.653
 5300POPC   NC3 7079  30.663  31.446   9.453
 5300POPC   PO4 7080  30.704  31.516   9.153
 5300POPC   GL1 7081  30.745  31.483   8.853
 5300POPC   GL2 7082  30.794  31.437   8.853
 5300POPC   C1A 7083  30.718  31.469   8.553
 5300POPC   D2A 7084  30.703  31.470   8.253
 5300POPC   C3A 7085  30.650  31.463   7.953
 5300POPC   C4A 7086  30.676  31.519   7.653
 5300POPC   C1B 7087  30.959  31.399   8.553
 5300POPC   C2B 7088  30.987  31.444   8.253
 5300POPC   C3B 7089  30.984  31.374   7.953
 5300POPC   C4B 7090  30.903  31.385   7.653
 5301POPC   NC3 7091  27.610  27.641   9.453
 5301POPC   PO4 7092  27.641  27.637   9.153
 5301POPC   GL1 7093  27.638  27.633   8.853
 5301POPC   GL2 7094  27.736  27.565   8.853
 5301POPC   C1A 7095  27.621  27.610   8.553
 5301POPC   D2A 7096  27.604  27.564   8.253
 5301POPC   C3A 7097  27.641  27.577   7.953
 5301POPC   C4A 7098  27.628  27.568   7.653
 5301POPC   C1B 7099  27.819  27.490   8.553
 5301POPC   C2B 7100  27.789  27.520   8.253
 5301POPC   C3B 7101  27.866  27.533   7.953
 5301POPC   C4B 7102  27.827  27.549   7.653
 5302POPC   NC3 7103  35.332  14.431   9.453
 5302POPC   PO4 7104  35.382  14.356   9.153
 5302POPC   GL1 7105  35.345  14.426   8.853
 5302POPC   GL2 7106  35.280  14.308   8.853
 5302POPC   C1A 7107  35.336  14.420   8.553
 5302POPC   D2A 7108  35.357  14.362   8.253
 5302POPC   C3A 7109  35.341  14.369   7.953
 5302POPC   C4A 7110  35.374  14.354   7.653
 5302POPC   C1B 7111  35.179  14.227   8.553
 5302POPC   C2B 7112  35.121  14.196   8.253
 5302POPC   C3B 7113  35.185  14.262   7.953
 5302POPC   C4B 7114  35.127  14.269   7.653
 5303POPC   NC3 7115  40.811  17.523   9.453
 5303POPC   PO4 7116  40.821  17.479   9.153
 5303POPC   GL1 7117  40.804  17.517   8.853
 5303POPC   GL2 7118  40.875  17.384   8.853
 5303POPC   C1A 7119  40.819  17.480   8.553
 5303POPC   D2A 7120  40.772  17.522   8.253
 5303POPC   C3A 7121  40.734  17.465   7.953
 5303POPC   C4A 7122  40.793  17.469   7.653
 5303POPC   C1B 7123  40.903  17.264   8.553
 5303POPC   C2B 7124  40.937  17.334   8.253
 5303POPC   C3B 7125  40.910  17.275   7.953
 5303POPC   C4B 7126  40.949  17.293   7.653
 5304POPC   NC3 7127  41.529  20.626   9.453
 5304POPC   PO4 7128  41.525  20.615   9.153
 5304POPC   GL1 7129  41.580  20.614   8.853
 5304POPC   GL2 7130  41.469  20.547   8.853
 5304POPC   C1A 7131  41.567  20.639   8.553
 5304POPC   D2A 7132  41.570  20.603   8.253
 5304POPC   C3A 7133  41.558  20.634   7.953
 5304POPC   C4A 7134  41.521  20.604   7.653
 5304POPC   C1B 7135  41.418  20.423   8.553
 5304POPC   C2B 7136  41.434  20.340   8.253
 5304POPC   C3B 7137  41.401  20.415   7.953
 5304POPC   C4B 7138  41.404  20.355   7.653
 5305POPC   NC3 7139  11.331  22.205   9.453
 5305POPC   PO4 7140  11.266  22.113   9.153
 5305POPC   GL1 7141  11.285  22.196   8.853
 5305POPC   GL2 7142  11.381  22.239   8.853
 5305POPC   C1A 7143  11.255  22.114   8.553
 5305POPC   D2A 7144  11.315  22.124   8.253
 5305POPC   C3A 7145  11.327  22.126   7.953
 5305POPC   C4A 7146  11.255  22.155   7.653
 5305POPC   C1B 7147  11.463  22.342   8.553
 5305POPC   C2B 7148  11.434  22.333   8.253
 5305POPC   C3B 7149  11.471  22.389   7.953
 5305POPC   C4B 7150  11.388  22.341   7.653
 5306POPC   NC3 7151  40.786  28.351   9.453
 5306POPC   PO4 7152  40.786  28.405   9.153
 5306POPC   GL1 7153  40.756  28.390   8.853
 5306POPC   GL2 7154  40.702  28.230   8.853
 5306POPC   C1A 7155  40.788  28.394   8.553
 5306POPC   D2A 7156  40.763  28.374   8.253
 5306POPC   C3A 7157  40.809  28.359   7.953
 5306POPC   C4A 7158  40.795  28.389   7.653
 5306POPC   C1B 7159  40.675  28.161   8.553
 5306POPC   C2B 7160  40.677  28.125   8.253
 5306POPC   C3B 7161  40.750  28.107   7.953
 5306POPC   C4B 7162  40.714  28.087   7.653
 5307POPC   NC3 7163  42.332  26.826   9.453
 5307POPC   PO4 7164  42.292  26.785   9.153
 5307POPC   GL1 7165  42.350  26.773   8.853
 5307POPC   GL2 7166  42.391  26.740   8.853
 5307POPC   C1A 7167  42.338  26.867   8.553
 5307POPC   D2A 7168  42.368  26.803   8.253
 5307POPC   C3A 7169  42.378  26.789   7.953
 5307POPC   C4A 7170  42.360  26.819   7.653
 5307POPC   C1B 7171  42.454  26.597   8.553
 5307POPC   C2B 7172  42.468  26.622   8.253
 5307POPC   C3B 7173  42.440  26.581   7.953
 5307POPC   C4B 7174  42.453  26.596   7.653
 5308POPC   NC3 7175  26.783  38.426   9.453
 5308POPC   PO4 7176  26.859  38.485   9.153
 5308POPC   GL1 7177  26.769  38.446   8.853
 5308POPC   GL2 7178  26.980  38.419   8.853
 5308POPC   C1A 7179  26.840  38.424   8.553
 5308POPC   D2A 7180  26.799  38.473   8.253
 5308POPC   C3A 7181  26.819  38.469   7.953
 5308POPC   C4A 7182  26.769  38.473   7.653
 5308POPC   C1B 7183  27.064  38.325   8.553
 5308POPC   C2B 7184  27.089  38.322   8.253
 5308POPC   C3B 7185  26.999  38.348   7.953
 5308POPC   C4B 7186  27.027  38.318   7.653
 5309POPC   NC3 7187  11.335  12.817   9.453
 5309POPC   PO4 7188  11.264  12.839   9.153
 5309POPC   GL1 7189  11.339  12.886   8.853
 5309POPC   GL2 7190  11.235  12.754   8.853
 5309POPC   C1A 7191  11.272  12.895   8.553
 5309POPC   D2A 7192  11.340  12.804   8.253
 5309POPC   C3A 7193  11.292  12.890   7.953
 5309POPC   C4A 7194  11.254  12.817   7.653
 5309POPC   C1B 7195  11.149  12.622   8.553
 5309POPC   C2B 7196  11.113  12.657   8.253
 5309POPC   C3B 7197  11.154  12.601   7.953
 5309POPC   C4B 7198  11.207  12.648   7.653
 5310POPC   NC3 7199  16.727  36.156   9.453
 5310POPC   PO4 7200  16.703  36.163   9.153
 5310POPC   GL1 7201  16.740  36.172   8.853
 5310POPC   GL2 7202  16.726  35.968   8.853
 5310POPC   C1A 7203  16.696  36.088   8.553
 5310POPC   D2A 7204  16.754  36.123   8.253
 5310POPC   C3A 7205  16.729  36.176   7.953
 5310POPC   C4A 7206  16.770  36.134   7.653
 5310POPC   C1B 7207  16.675  35.846   8.553
 5310POPC   C2B 7208  16.701  35.849   8.253
 5310POPC   C3B 7209  16.636  35.915   7.953
 5310POPC   C4B 7210  16.614  35.905   7.653
 5311POPC   NC3 7211  27.618   8.938   9.453
 5311POPC   PO4 7212  27.544   8.935   9.153
 5311POPC   GL1 7213  27.603   8.942   8.853
 5311POPC   GL2 7214  27.685   9.070   8.853
 5311POPC   C1A 7215  27.550   8.982   8.553
 5311POPC   D2A 7216  27.618   8.980   8.253
 5311POPC   C3A 7217  27.625   8.971   7.953
 5311POPC   C4A 7218  27.556   9.005   7.653
 5311POPC   C1B 7219  27.790   9.132   8.553
 5311POPC   C2B 7220  27.722   9.123   8.253
 5311POPC   C3B 7221  27.761   9.205   7.953
 5311POPC   C4B 7222  27.795   9.142   7.653
 5312POPC   NC3 7223  41.547  41.595   9.453
 5312POPC   PO4 7224  41.571  41.589   9.153
 5312POPC   GL1 7225  41.595  41.581   8.853
 5312POPC   GL2 7226  41.688  41.570   8.853
 5312POPC   C1A 7227  41.573  41.562   8.553
 5312POPC   D2A 7228  41.607  41.572   8.253
 5312POPC   C3A 7229  41.540  41.562   7.953
 5312POPC   C4A 7230  41.572  41.557   7.653
 5312POPC   C1B 7231  41.818  41.624   8.553
 5312POPC   C2B 7232  41.765  41.711   8.253
 5312POPC   C3B 7233  41.753  41.621   7.953
 5312POPC   C4B 7234  41.819  41.716   7.653
 5313POPC   NC3 7235   8.925  40.739   9.453
 5313POPC   PO4 7236   9.019  40.818   9.153
 5313POPC   GL1 7237   9.010  40.757   8.853
 5313POPC   GL2 7238   9.050  40.932   8.853
 5313POPC   C1A 7239   8.955  40.783   8.553
 5313POPC   D2A 7240   8.928  40.752   8.253
 5313POPC   C3A 7241   8.940  40.792   7.953
 5313POPC   C4A 7242   9.008  40.826   7.653
 5313POPC   C1B 7243   9.080  41.028   8.553
 5313POPC   C2B 7244   9.133  40.970   8.253
 5313POPC   C3B 7245   9.117  40.967   7.953
 5313POPC   C4B 7246   9.126  40.968   7.653
 5314POPC   NC3 7247   4.344   5.826   9.453
 5314POPC   PO4 7248   4.326   5.868   9.153
 5314POPC   GL1 7249   4.357   5.883   8.853
 5314POPC   GL2 7250   4.294   5.751   8.853
 5314POPC   C1A 7251   4.338   5.865   8.553
 5314POPC   D2A 7252   4.360   5.881   8.253
 5314POPC   C3A 7253   4.303   5.853   7.953
 5314POPC   C4A 7254   4.280   5.847   7.653
 5314POPC   C1B 7255   4.311   5.616   8.553
 5314POPC   C2B 7256   4.282   5.605   8.253
 5314POPC   C3B 7257   4.291   5.632   7.953
 5314POPC   C4B 7258   4.317   5.664   7.653
 5315POPC   NC3 7259   8.947  27.566   9.453
 5315POPC   PO4 7260   8.984  27.632   9.153
 5315POPC   GL1 7261   8.989  27.545   8.853
 5315POPC   GL2 7262   8.920  27.674   8.853
 5315POPC   C1A 7263   9.007  27.622   8.553
 5315POPC   D2A 7264   8.961  27.628   8.253
 5315POPC   C3A 7265   8.992  27.565   7.953
 5315POPC   C4A 7266   8.991  27.610   7.653
 5315POPC   C1B 7267   8.840  27.798   8.553
 5315POPC   C2B 7268   8.855  27.783   8.253
 5315POPC   C3B 7269   8.853  27.757   7.953
 5315POPC   C4B 7270   8.844  27.806   7.653
 5316POPC   NC3 7271  19.028   7.445   9.453
 5316POPC   PO4 7272  19.018   7.405   9.153
 5316POPC   GL1 7273  19.016   7.383   8.853
 5316POPC   GL2 7274  19.148   7.552   8.853
 5316POPC   C1A 7275  19.093   7.422   8.553
 5316POPC   D2A 7276  19.082   7.457   8.253
 5316POPC   C3A 7277  19.101   7.398   7.953
 5316POPC   C4A 7278  19.012   7.447   7.653
 5316POPC   C1B 7279  19.157   7.611   8.553
 5316POPC   C2B 7280  19.217   7.631   8.253
 5316POPC   C3B 7281  19.220   7.661   7.953
 5316POPC   C4B 7282  19.150   7.650   7.653
 5317POPC   NC3 7283  27.578  34.556   9.453
 5317POPC   PO4 7284  27.562  34.536   9.153
 5317POPC   GL1 7285  27.631  34.620   8.853
 5317POPC   GL2 7286  27.692  34.674   8.853
 5317POPC   C1A 7287  27.566  34.617   8.553
 5317POPC   D2A 7288  27.585  34.530   8.253
 5317POPC   C3A 7289  27.604  34.612   7.953
 5317POPC   C4A 7290  27.581  34.559   7.653
 5317POPC   C1B 7291  27.847  34.636   8.553
 5317POPC   C2B 7292  27.779  34.718   8.253
 5317POPC   C3B 7293  27.842  34.696   7.953
 5317POPC   C4B 7294  27.814  34.713   7.653
 5318POPC   NC3 7295  28.394  22.124   9.453
 5318POPC   PO4 7296  28.367  22.211   9.153
 5318POPC   GL1 7297  28.360  22.172   8.853
 5318POPC   GL2 7298  28.419  22.050   8.853
 5318POPC   C1A 7299  28.385  22.176   8.553
 5318POPC   D2A 7300  28.392  22.127   8.253
 5318POPC   C3A 7301  28.380  22.128   7.953
 5318POPC   C4A 7302  28.409  22.172   7.653
 5318POPC   C1B 7303  28.460  21.876   8.553
 5318POPC   C2B 7304  28.381  21.969   8.253
 5318POPC   C3B 7305  28.473  21.965   7.953
 5318POPC   C4B 7306  28.436  21.905   7.653
 5319POPC   NC3 7307  21.363  23.688   9.453
 5319POPC   PO4 7308  21.346  23.692   9.153
 5319POPC   GL1 7309  21.360  23.733   8.853
 5319POPC   GL2 7310  21.264  23.706   8.853
 5319POPC   C1A 7311  21.350  23.747   8.553
 5319POPC   D2A 7312  21.394  23.728   8.253
 5319POPC   C3A 7313  21.384  23.710   7.953
 5319POPC   C4A 7314  21.393  23.715   7.653
 5319POPC   C1B 7315  21.179  23.685   8.553
 5319POPC   C2B 7316  21.150  23.692   8.253
 5319POPC   C3B 7317  21.128  23.650   7.953
 5319POPC   C4B 7318  21.168  23.715   7.653
 5320POPC   NC3 7319  31.515   9.739   9.453
 5320POPC   PO4 7320  31.424   9.773   9.153
 5320POPC   GL1 7321  31.510   9.779   8.853
 5320POPC   GL2 7322  31.431   9.887   8.853
 5320POPC   C1A 7323  31.449   9.704   8.553
 5320POPC   D2A 7324  31.512   9.730   8.253
 5320POPC   C3A 7325  31.457   9.739   7.953
 5320POPC   C4A 7326  31.489   9.733   7.653
 5320POPC   C1B 7327  31.319   9.966   8.553
 5320POPC   C2B 7328  31.334   9.924   8.253
 5320POPC   C3B 7329  31.281   9.920   7.953
 5320POPC   C4B 7330  31.337   9.901   7.653
 5321POPC   NC3 7331  41.598  19.098   9.453
 5321POPC   PO4 7332  41.598  19.074   9.153
 5321POPC   GL1 7333  41.558  19.042   8.853
 5321POPC   GL2 7334  41.571  19.160   8.853
 5321POPC   C1A 7335  41.535  19.087   8.553
 5321POPC   D2A 7336  41.535  19.013   8.253
 5321POPC   C3A 7337  41.556  19.079   7.953
 5321POPC   C4A 7338  41.582  19.038   7.653
 5321POPC   C1B 7339  41.716  19.249   8.553
 5321POPC   C2B 7340  41.643  19.309   8.253
 5321POPC   C3B 7341  41.636  19.299   7.953
 5321POPC   C4B 7342  41.675  19.269   7.653
 5322POPC   NC3 7343   4.273   7.376   9.453
 5322POPC   PO4 7344   4.356   7.423   9.153
 5322POPC   GL1 7345   4.354   7.415   8.853
 5322POPC   GL2 7346   4.351   7.323   8.853
 5322POPC   C1A 7347   4.317   7.398   8.553
 5322POPC   D2A 7348   4.318   7.418   8.253
 5322POPC   C3A 7349   4.322   7.425   7.953
 5322POPC   C4A 7350   4.333   7.382   7.653
 5322POPC   C1B 7351   4.352   7.177   8.553
 5322POPC   C2B 7352   4.360   7.136   8.253
 5322POPC   C3B 7353   4.326   7.141   7.953
 5322POPC   C4B 7354   4.372   7.223   7.653
 5323POPC   NC3 7355  43.101  27.570   9.453
 5323POPC   PO4 7356  43.065  27.633   9.153
 5323POPC   GL1 7357  43.098  27.579   8.853
 5323POPC   GL2 7358  43.180  27.439   8.853
 5323POPC   C1A 7359  43.133  27.573   8.553
 5323POPC   D2A 7360  43.112  27.599   8.253
 5323POPC   C3A 7361  43.094  27.556   7.953
 5323POPC   C4A 7362  43.072  27.544   7.653
 5323POPC   C1B 7363  43.169  27.375   8.553
 5323POPC   C2B 7364  43.182  27.378   8.253
 5323POPC   C3B 7365  43.235  27.342   7.953
 5323POPC   C4B 7366  43.155  27.402   7.653
 5324POPC   NC3 7367  44.684   2.806   9.453
 5324POPC   PO4 7368  44.658   2.811   9.153
 5324POPC   GL1 7369  44.657   2.749   8.853
 5324POPC   GL2 7370  44.641   2.605   8.853
 5324POPC   C1A 7371  44.675   2.757   8.553
 5324POPC   D2A 7372  44.693   2.747   8.253
 5324POPC   C3A 7373  44.679   2.799   7.953
 5324POPC   C4A 7374  44.637   2.802   7.653
 5324POPC   C1B 7375  44.583   2.575   8.553
 5324POPC   C2B 7376  44.612   2.557   8.253
 5324POPC   C3B 7377  44.575   2.480   7.953
 5324POPC   C4B 7378  44.556   2.527   7.653
 5325POPC   NC3 7379  44.651  38.425   9.453
 5325POPC   PO4 7380  44.642  38.416   9.153
 5325POPC   GL1 7381  44.651  38.440   8.853
 5325POPC   GL2 7382  44.634  38.340   8.853
 5325POPC   C1A 7383  44.709  38.461   8.553
 5325POPC   D2A 7384  44.665  38.476   8.253
 5325POPC   C3A 7385  44.627  38.458   7.953
 5325POPC   C4A 7386  44.615  38.409   7.653
 5325POPC   C1B 7387  44.697  38.204   8.553
 5325POPC   C2B 7388  44.673  38.224   8.253
 5325POPC   C3B 7389  44.665  38.241   7.953
 5325POPC   C4B 7390  44.613  38.206   7.653
 5326POPC   NC3 7391  11.287  34.616   9.453
 5326POPC   PO4 7392  11.318  34.559   9.153
 5326POPC   GL1 7393  11.272  34.619   8.853
 5326POPC   GL2 7394  11.164  34.654   8.853
 5326POPC   C1A 7395  11.339  34.611   8.553
 5326POPC   D2A 7396  11.338  34.607   8.253
 5326POPC   C3A 7397  11.263  34.538   7.953
 5326POPC   C4A 7398  11.301  34.582   7.653
 5326POPC   C1B 7399  11.089  34.693   8.553
 5326POPC   C2B 7400  11.111  34.678   8.253
 5326POPC   C3B 7401  11.101  34.726   7.953
 5326POPC   C4B 7402  11.092  34.722   7.653
 5327POPC   NC3 7403  10.539  21.379   9.453
 5327POPC   PO4 7404  10.476  21.342   9.153
 5327POPC   GL1 7405  10.515  21.381   8.853
 5327POPC   GL2 7406  10.440  21.269   8.853
 5327POPC   C1A 7407  10.525  21.406   8.553
 5327POPC   D2A 7408  10.545  21.400   8.253
 5327POPC   C3A 7409  10.530  21.386   7.953
 5327POPC   C4A 7410  10.563  21.401   7.653
 5327POPC   C1B 7411  10.370  21.115   8.553
 5327POPC   C2B 7412  10.374  21.145   8.253
 5327POPC   C3B 7413  10.414  21.151   7.953
 5327POPC   C4B 7414  10.426  21.192   7.653
 5328POPC   NC3 7415  33.755  12.815   9.453
 5328POPC   PO4 7416  33.839  12.853   9.153
 5328POPC   GL1 7417  33.762  12.860   8.853
 5328POPC   GL2 7418  33.700  12.966   8.853
 5328POPC   C1A 7419  33.779  12.844   8.553
 5328POPC   D2A 7420  33.827  12.830   8.253
 5328POPC   C3A 7421  33.846  12.817   7.953
 5328POPC   C4A 7422  33.778  12.824   7.653
 5328POPC   C1B 7423  33.650  13.044   8.553
 5328POPC   C2B 7424  33.614  13.049   8.253
 5328POPC   C3B 7425  33.601  12.972   7.953
 5328POPC   C4B 7426  33.571  13.033   7.653
 5329POPC   NC3 7427  32.240  24.533   9.453
 5329POPC   PO4 7428  32.223  24.455   9.153
 5329POPC   GL1 7429  32.296  24.485   8.853
 5329POPC   GL2 7430  32.343  24.481   8.853
 5329POPC   C1A 7431  32.231  24.498   8.553
 5329POPC   D2A 7432  32.268  24.466   8.253
 5329POPC   C3A 7433  32.236  24.479   7.953
 5329POPC   C4A 7434  32.266  24.510   7.653
 5329POPC   C1B 7435  32.518  24.538   8.553
 5329POPC   C2B 7436  32.497  24.499   8.253
 5329POPC   C3B 7437  32.449  24.525   7.953
 5329POPC   C4B 7438  32.479  24.508   7.653
 5330POPC   NC3 7439  16.769  30.680   9.453
 5330POPC   PO4 7440  16.714  30.706   9.153
 5330POPC   GL1 7441  16.770  30.649   8.853
 5330POPC   GL2 7442  16.816  30.793   8.853
 5330POPC   C1A 7443  16.740  30.681   8.553
 5330POPC   D2A 7444  16.781  30.689   8.253
 5330POPC   C3A 7445  16.756  30.719   7.953
 5330POPC   C4A 7446  16.718  30.669   7.653
 5330POPC   C1B 7447  16.863  30.922   8.553
 5330POPC   C2B 7448  16.825  30.885   8.253
 5330POPC   C3B 7449  16.807  30.912   7.953
 5330POPC   C4B 7450  16.864  30.906   7.653
 5331POPC   NC3 7451   4.300  42.302   9.453
 5331POPC   PO4 7452   4.363  42.305   9.153
 5331POPC   GL1 7453   4.342  42.337   8.853
 5331POPC   GL2 7454   4.242  42.250   8.853
 5331POPC   C1A 7455   4.276  42.344   8.553
 5331POPC   D2A 7456   4.345  42.312   8.253
 5331POPC   C3A 7457   4.326  42.289   7.953
 5331POPC   C4A 7458   4.335  42.295   7.653
 5331POPC   C1B 7459   4.219  42.106   8.553
 5331POPC   C2B 7460   4.216  42.106   8.253
 5331POPC   C3B 7461   4.243  42.096   7.953
 5331POPC   C4B 7462   4.195  42.132   7.653
 5332POPC   NC3 7463  39.986  26.843   9.453
 5332POPC   PO4 7464  40.049  26.818   9.153
 5332POPC   GL1 7465  39.992  26.831   8.853
 5332POPC   GL2 7466  40.027  26.742   8.853
 5332POPC   C1A 7467  39.978  26.817   8.553
 5332POPC   D2A 7468  40.008  26.827   8.253
 5332POPC   C3A 7469  39.986  26.783   7.953
 5332POPC   C4A 7470  39.995  26.859   7.653
 5332POPC   C1B 7471  40.117  26.535   8.553
 5332POPC   C2B 7472  40.104  26.538   8.253
 5332POPC   C3B 7473  40.068  26.597   7.953
 5332POPC   C4B 7474  40.101  26.575   7.653
 5333POPC   NC3 7475  33.834  25.245   9.453
 5333POPC   PO4 7476  33.839  25.268   9.153
 5333POPC   GL1 7477  33.818  25.223   8.853
 5333POPC   GL2 7478  33.902  25.198   8.853
 5333POPC   C1A 7479  33.812  25.235   8.553
 5333POPC   D2A 7480  33.776  25.283   8.253
 5333POPC   C3A 7481  33.833  25.262   7.953
 5333POPC   C4A 7482  33.803  25.256   7.653
 5333POPC   C1B 7483  33.969  25.138   8.553
 5333POPC   C2B 7484  33.990  25.164   8.253
 5333POPC   C3B 7485  34.068  25.190   7.953
 5333POPC   C4B 7486  34.014  25.103   7.653
 5334POPC   NC3 7487   5.088  35.394   9.453
 5334POPC   PO4 7488   5.090  35.303   9.153
 5334POPC   GL1 7489   5.074  35.330   8.853
 5334POPC   GL2 7490   5.160  35.446   8.853
 5334POPC   C1A 7491   5.058  35.364   8.553
 5334POPC   D2A 7492   5.114  35.346   8.253
 5334POPC   C3A 7493   5.078  35.323   7.953
 5334POPC   C4A 7494   5.099  35.359   7.653
 5334POPC   C1B 7495   5.256  35.575   8.553
 5334POPC   C2B 7496   5.234  35.578   8.253
 5334POPC   C3B 7497   5.216  35.538   7.953
 5334POPC   C4B 7498   5.222  35.553   7.653
 5335POPC   NC3 7499  22.115  13.613   9.453
 5335POPC   PO4 7500  22.197  13.624   9.153
 5335POPC   GL1 7501  22.199  13.674   8.853
 5335POPC   GL2 7502  22.051  13.526   8.853
 5335POPC   C1A 7503  22.124  13.641   8.553
 5335POPC   D2A 7504  22.197  13.611   8.253
 5335POPC   C3A 7505  22.137  13.578   7.953
 5335POPC   C4A 7506  22.162  13.617   7.653
 5335POPC   C1B 7507  21.933  13.439   8.553
 5335POPC   C2B 7508  21.954  13.411   8.253
 5335POPC   C3B 7509  22.002  13.425   7.953
 5335POPC   C4B 7510  21.995  13.482   7.653
 5336POPC   NC3 7511  41.555  14.393   9.453
 5336POPC   PO4 7512  41.516  14.405   9.153
 5336POPC   GL1 7513  41.558  14.389   8.853
 5336POPC   GL2 7514  41.608  14.285   8.853
 5336POPC   C1A 7515  41.592  14.396   8.553
 5336POPC   D2A 7516  41.551  14.420   8.253
 5336POPC   C3A 7517  41.576  14.418   7.953
 5336POPC   C4A 7518  41.549  14.429   7.653
 5336POPC   C1B 7519  41.609  14.144   8.553
 5336POPC   C2B 7520  41.590  14.128   8.253
 5336POPC   C3B 7521  41.660  14.161   7.953
 5336POPC   C4B 7522  41.623  14.192   7.653
 5337POPC   NC3 7523  12.836  29.102   9.453
 5337POPC   PO4 7524  12.857  29.154   9.153
 5337POPC   GL1 7525  12.881  29.108   8.853
 5337POPC   GL2 7526  12.950  29.026   8.853
 5337POPC   C1A 7527  12.812  29.170   8.553
 5337POPC   D2A 7528  12.821  29.107   8.253
 5337POPC   C3A 7529  12.885  29.129   7.953
 5337POPC   C4A 7530  12.840  29.152   7.653
 5337POPC   C1B 7531  12.966  28.925   8.553
 5337POPC   C2B 7532  12.932  28.958   8.253
 5337POPC   C3B 7533  12.987  28.951   7.953
 5337POPC   C4B 7534  12.962  28.946   7.653
 5338POPC   NC3 7535  39.246  42.302   9.453
 5338POPC   PO4 7536  39.197  42.321   9.153
 5338POPC   GL1 7537  39.273  42.326   8.853
 5338POPC   GL2 7538  39.292  42.426   8.853
 5338POPC   C1A 7539  39.193  42.308   8.553
 5338POPC   D2A 7540  39.233  42.378   8.253
 5338POPC   C3A 7541  39.260  42.285   7.953
 5338POPC   C4A 7542  39.191  42.327   7.653
 5338POPC   C1B 7543  39.377  42.482   8.553
 5338POPC   C2B 7544  39.446  42.513   8.253
 5338POPC   C3B 7545  39.413  42.510   7.953
 5338POPC   C4B 7546  39.385  42.471   7.653
 5339POPC   NC3 7547   6.650  30.704   9.453
 5339POPC   PO4 7548   6.663  30.657   9.153
 5339POPC   GL1 7549   6.690  30.717   8.853
 5339POPC   GL2 7550   6.727  30.754   8.853
 5339POPC   C1A 7551   6.658  30.661   8.553
 5339POPC   D2A 7552   6.632  30.689   8.253
 5339POPC   C3A 7553   6.630  30.708   7.953
 5339POPC   C4A 7554   6.681  30.665   7.653
 5339POPC   C1B 7555   6.792  30.838   8.553
 5339POPC   C2B 7556   6.811  30.868   8.253
 5339POPC   C3B 7557   6.841  30.859   7.953
 5339POPC   C4B 7558   6.794  30.877   7.653
 5340POPC   NC3 7559  33.049   7.412   9.453
 5340POPC   PO4 7560  32.982   7.407   9.153
 5340POPC   GL1 7561  33.032   7.414   8.853
 5340POPC   GL2 7562  33.152   7.300   8.853
 5340POPC   C1A 7563  33.067   7.380   8.553
 5340POPC   D2A 7564  33.005   7.385   8.253
 5340POPC   C3A 7565  33.008   7.396   7.953
 5340POPC   C4A 7566  32.975   7.439   7.653
 5340POPC   C1B 7567  33.250   7.264   8.553
 5340POPC   C2B 7568  33.165   7.267   8.253
 5340POPC   C3B 7569  33.241   7.258   7.953
 5340POPC   C4B 7570  33.233   7.275   7.653
 5341POPC   NC3 7571  30.689  10.479   9.453
 5341POPC   PO4 7572  30.682  10.488   9.153
 5341POPC   GL1 7573  30.738  10.554   8.853
 5341POPC   GL2 7574  30.774  10.414   8.853
 5341POPC   C1A 7575  30.713  10.475   8.553
 5341POPC   D2A 7576  30.737  10.501   8.253
 5341POPC   C3A 7577  30.733  10.477   7.953
 5341POPC   C4A 7578  30.698  10.527   7.653
 5341POPC   C1B 7579  30.726  10.283   8.553
 5341POPC   C2B 7580  30.765  10.273   8.253
 5341POPC   C3B 7581  30.796  10.311   7.953
 5341POPC   C4B 7582  30.766  10.328   7.653
 5342POPC   NC3 7583  19.045  35.379   9.453
 5342POPC   PO4 7584  19.058  35.339   9.153
 5342POPC   GL1 7585  19.051  35.374   8.853
 5342POPC   GL2 7586  18.936  35.454   8.853
 5342POPC   C1A 7587  19.068  35.380   8.553
 5342POPC   D2A 7588  19.060  35.367   8.253
 5342POPC   C3A 7589  19.061  35.314   7.953
 5342POPC   C4A 7590  19.082  35.351   7.653
 5342POPC   C1B 7591  18.879  35.495   8.553
 5342POPC   C2B 7592  18.879  35.465   8.253
 5342POPC   C3B 7593  18.901  35.499   7.953
 5342POPC   C4B 7594  18.824  35.471   7.653
 5343POPC   NC3 7595  23.697  34.583   9.453
 5343POPC   PO4 7596  23.712  34.569   9.153
 5343POPC   GL1 7597  23.704  34.552   8.853
 5343POPC   GL2 7598  23.767  34.431   8.853
 5343POPC   C1A 7599  23.726  34.618   8.553
 5343POPC   D2A 7600  23.728  34.538   8.253
 5343POPC   C3A 7601  23.718  34.570   7.953
 5343POPC   C4A 7602  23.763  34.607   7.653
 5343POPC   C1B 7603  23.834  34.398   8.553
 5343POPC   C2B 7604  23.849  34.431   8.253
 5343POPC   C3B 7605  23.891  34.420   7.953
 5343POPC   C4B 7606  23.861  34.359   7.653
 5344POPC   NC3 7607   0.446   5.047   9.453
 5344POPC   PO4 7608   0.464   5.066   9.153
 5344POPC   GL1 7609   0.487   5.138   8.853
 5344POPC   GL2 7610   0.351   4.959   8.853
 5344POPC   C1A 7611   0.484   5.112   8.553
 5344POPC   D2A 7612   0.449   5.138   8.253
 5344POPC   C3A 7613   0.444   5.122   7.953
 5344POPC   C4A 7614   0.448   5.047   7.653
 5344POPC   C1B 7615   0.355   4.832   8.553
 5344POPC   C2B 7616   0.376   4.877   8.253
 5344POPC   C3B 7617   0.378   4.892   7.953
 5344POPC   C4B 7618   0.291   4.842   7.653
 5345POPC   NC3 7619  12.889  36.083   9.453
 5345POPC   PO4 7620  12.818  36.083   9.153
 5345POPC   GL1 7621  12.881  36.132   8.853
 5345POPC   GL2 7622  12.855  35.957   8.853
 5345POPC   C1A 7623  12.827  36.118   8.553
 5345POPC   D2A 7624  12.816  36.108   8.253
 5345POPC   C3A 7625  12.886  36.096   7.953
 5345POPC   C4A 7626  12.857  36.150   7.653
 5345POPC   C1B 7627  12.818  35.833   8.553
 5345POPC   C2B 7628  12.908  35.879   8.253
 5345POPC   C3B 7629  12.864  35.838   7.953
 5345POPC   C4B 7630  12.834  35.882   7.653
 5346POPC   NC3 7631  31.501  19.867   9.453
 5346POPC   PO4 7632  31.474  19.831   9.153
 5346POPC   GL1 7633  31.429  19.793   8.853
 5346POPC   GL2 7634  31.430  19.679   8.853
 5346POPC   C1A 7635  31.487  19.843   8.553
 5346POPC   D2A 7636  31.502  19.847   8.253
 5346POPC   C3A 7637  31.478  19.829   7.953
 5346POPC   C4A 7638  31.492  19.826   7.653
 5346POPC   C1B 7639  31.462  19.585   8.553
 5346POPC   C2B 7640  31.488  19.631   8.253
 5346POPC   C3B 7641  31.455  19.573   7.953
 5346POPC   C4B 7642  31.504  19.602   7.653
 5347POPC   NC3 7643  33.019  13.618   9.453
 5347POPC   PO4 7644  32.996  13.643   9.153
 5347POPC   GL1 7645  33.018  13.671   8.853
 5347POPC   GL2 7646  33.157  13.618   8.853
 5347POPC   C1A 7647  33.071  13.620   8.553
 5347POPC   D2A 7648  32.992  13.671   8.253
 5347POPC   C3A 7649  32.994  13.659   7.953
 5347POPC   C4A 7650  33.069  13.596   7.653
 5347POPC   C1B 7651  33.256  13.474   8.553
 5347POPC   C2B 7652  33.222  13.516   8.253
 5347POPC   C3B 7653  33.296  13.514   7.953
 5347POPC   C4B 7654  33.224  13.552   7.653
 5348POPC   NC3 7655  42.321  20.567   9.453
 5348POPC   PO4 7656  42.383  20.650   9.153
 5348POPC   GL1 7657  42.348  20.599   8.853
 5348POPC   GL2 7658  42.291  20.717   8.853
 5348POPC   C1A 7659  42.366  20.584   8.553
 5348POPC   D2A 7660  42.377  20.622   8.253
 5348POPC   C3A 7661  42.376  20.601   7.953
 5348POPC   C4A 7662  42.369  20.638   7.653
 5348POPC   C1B 7663  42.287  20.882   8.553
 5348POPC   C2B 7664  42.229  20.819   8.253
 5348POPC   C3B 7665  42.240  20.853   7.953
 5348POPC   C4B 7666  42.293  20.796   7.653
 5349POPC   NC3 7667  24.518  10.490   9.453
 5349POPC   PO4 7668  24.519  10.519   9.153
 5349POPC   GL1 7669  24.457  10.513   8.853
 5349POPC   GL2 7670  24.465  10.419   8.853
 5349POPC   C1A 7671  24.523  10.507   8.553
 5349POPC   D2A 7672  24.535  10.545   8.253
 5349POPC   C3A 7673  24.500  10.494   7.953
 5349POPC   C4A 7674  24.475  10.564   7.653
 5349POPC   C1B 7675  24.426  10.287   8.553
 5349POPC   C2B 7676  24.427  10.230   8.253
 5349POPC   C3B 7677  24.468  10.272   7.953
 5349POPC   C4B 7678  24.474  10.315   7.653
 5350POPC   NC3 7679   8.986  29.885   9.453
 5350POPC   PO4 7680   9.019  29.921   9.153
 5350POPC   GL1 7681   9.005  29.922   8.853
 5350POPC   GL2 7682   8.896  29.901   8.853
 5350POPC   C1A 7683   8.947  29.907   8.553
 5350POPC   D2A 7684   9.012  29.892   8.253
 5350POPC   C3A 7685   8.999  29.905   7.953
 5350POPC   C4A 7686   9.004  29.885   7.653
 5350POPC   C1B 7687   8.702  29.986   8.553
 5350POPC   C2B 7688   8.682  29.998   8.253
 5350POPC   C3B 7689   8.746  30.015   7.953
 5350POPC   C4B 7690   8.708  29.967   7.653
 5351POPC   NC3 7691  13.645  44.677   9.453
 5351POPC   PO4 7692  13.673  44.700   9.153
 5351POPC   GL1 7693  13.647  44.636   8.853
 5351POPC   GL2 7694  13.719  44.725   8.853
 5351POPC   C1A 7695  13.614  44.665   8.553
 5351POPC   D2A 7696  13.580  44.707   8.253
 5351POPC   C3A 7697  13.665  44.622   7.953
 5351POPC   C4A 7698  13.608  44.688   7.653
 5351POPC   C1B 7699  13.767  44.814   8.553
 5351POPC   C2B 7700  13.740  44.881   8.253
 5351POPC   C3B 7701  13.817  44.842   7.953
 5351POPC   C4B 7702  13.806  44.833   7.653
 5352POPC   NC3 7703  26.024   8.996   9.453
 5352POPC   PO4 7704  25.997   8.979   9.153
 5352POPC   GL1 7705  26.015   8.947   8.853
 5352POPC   GL2 7706  26.162   9.023   8.853
 5352POPC   C1A 7707  26.067   9.013   8.553
 5352POPC   D2A 7708  26.021   8.990   8.253
 5352POPC   C3A 7709  25.997   8.993   7.953
 5352POPC   C4A 7710  26.052   8.956   7.653
 5352POPC   C1B 7711  26.232   9.052   8.553
 5352POPC   C2B 7712  26.242   9.021   8.253
 5352POPC   C3B 7713  26.294   9.018   7.953
 5352POPC   C4B 7714  26.239   9.044   7.653
 5353POPC   NC3 7715   5.850   5.857   9.453
 5353POPC   PO4 7716   5.908   5.902   9.153
 5353POPC   GL1 7717   5.836   5.905   8.853
 5353POPC   GL2 7718   5.984   5.789   8.853
 5353POPC   C1A 7719   5.840   5.851   8.553
 5353POPC   D2A 7720   5.855   5.884   8.253
 5353POPC   C3A 7721   5.838   5.897   7.953
 5353POPC   C4A 7722   5.873   5.828   7.653
 5353POPC   C1B 7723   6.057   5.726   8.553
 5353POPC   C2B 7724   6.077   5.743   8.253
 5353POPC   C3B 7725   6.055   5.749   7.953
 5353POPC   C4B 7726   6.142   5.797   7.653
 5354POPC   NC3 7727  32.983  19.053   9.453
 5354POPC   PO4 7728  33.008  19.028   9.153
 5354POPC   GL1 7729  33.011  19.018   8.853
 5354POPC   GL2 7730  33.191  19.101   8.853
 5354POPC   C1A 7731  32.992  19.069   8.553
 5354POPC   D2A 7732  32.994  19.035   8.253
 5354POPC   C3A 7733  33.006  19.015   7.953
 5354POPC   C4A 7734  33.031  19.064   7.653
 5354POPC   C1B 7735  33.251  19.063   8.553
 5354POPC   C2B 7736  33.264  19.102   8.253
 5354POPC   C3B 7737  33.224  19.038   7.953
 5354POPC   C4B 7738  33.232  19.079   7.653
 5355POPC   NC3 7739  11.329   9.759   9.453
 5355POPC   PO4 7740  11.325   9.715   9.153
 5355POPC   GL1 7741  11.347   9.735   8.853
 5355POPC   GL2 7742  11.270   9.591   8.853
 5355POPC   C1A 7743  11.287   9.739   8.553
 5355POPC   D2A 7744  11.294   9.721   8.253
 5355POPC   C3A 7745  11.295   9.713   7.953
 5355POPC   C4A 7746  11.289   9.741   7.653
 5355POPC   C1B 7747  11.198   9.497   8.553
 5355POPC   C2B 7748  11.198   9.498   8.253
 5355POPC   C3B 7749  11.248   9.511   7.953
 5355POPC   C4B 7750  11.215   9.529   7.653
 5356POPC   NC3 7751  32.276  33.772   9.453
 5356POPC   PO4 7752  32.209  33.828   9.153
 5356POPC   GL1 7753  32.274  33.780   8.853
 5356POPC   GL2 7754  32.095  33.770   8.853
 5356POPC   C1A 7755  32.218  33.817   8.553
 5356POPC   D2A 7756  32.235  33.844   8.253
 5356POPC   C3A 7757  32.262  33.773   7.953
 5356POPC   C4A 7758  32.204  33.805   7.653
 5356POPC   C1B 7759  31.993  33.677   8.553
 5356POPC   C2B 7760  32.046  33.705   8.253
 5356POPC   C3B 7761  32.019  33.750   7.953
 5356POPC   C4B 7762  32.017  33.711   7.653
 5357POPC   NC3 7763  32.981   5.841   9.453
 5357POPC   PO4 7764  33.027   5.916   9.153
 5357POPC   GL1 7765  32.996   5.890   8.853
 5357POPC   GL2 7766  33.062   5.749   8.853
 5357POPC   C1A 7767  33.057   5.857   8.553
 5357POPC   D2A 7768  33.069   5.853   8.253
 5357POPC   C3A 7769  33.040   5.841   7.953
 5357POPC   C4A 7770  33.074   5.910   7.653
 5357POPC   C1B 7771  33.127   5.634   8.553
 5357POPC   C2B 7772  33.102   5.603   8.253
 5357POPC   C3B 7773  33.144   5.662   7.953
 5357POPC   C4B 7774  33.150   5.660   7.653
 5358POPC   NC3 7775  22.941  15.226   9.453
 5358POPC   PO4 7776  22.937  15.132   9.153
 5358POPC   GL1 7777  22.908  15.203   8.853
 5358POPC   GL2 7778  22.985  15.065   8.853
 5358POPC   C1A 7779  22.911  15.224   8.553
 5358POPC   D2A 7780  22.959  15.153   8.253
 5358POPC   C3A 7781  22.914  15.207   7.953
 5358POPC   C4A 7782  22.914  15.159   7.653
 5358POPC   C1B 7783  23.097  14.993   8.553
 5358POPC   C2B 7784  23.156  15.020   8.253
 5358POPC   C3B 7785  23.136  15.011   7.953
 5358POPC   C4B 7786  23.094  15.012   7.653
 5359POPC   NC3 7787  36.162  12.124   9.453
 5359POPC   PO4 7788  36.091  12.106   9.153
 5359POPC   GL1 7789  36.118  12.063   8.853
 5359POPC   GL2 7790  35.979  12.028   8.853
 5359POPC   C1A 7791  36.162  12.049   8.553
 5359POPC   D2A 7792  36.160  12.104   8.253
 5359POPC   C3A 7793  36.125  12.035   7.953
 5359POPC   C4A 7794  36.150  12.074   7.653
 5359POPC   C1B 7795  35.906  12.055   8.553
 5359POPC   C2B 7796  35.919  12.072   8.253
 5359POPC   C3B 7797  35.869  12.079   7.953
 5359POPC   C4B 7798  35.841  11.997   7.653
 5360POPC   NC3 7799  39.243  13.676   9.453
 5360POPC   PO4 7800  39.244  13.631   9.153
 5360POPC   GL1 7801  39.272  13.612   8.853
 5360POPC   GL2 7802  39.391  13.635   8.853
 5360POPC   C1A 7803  39.187  13.619   8.553
 5360POPC   D2A 7804  39.239  13.645   8.253
 5360POPC   C3A 7805  39.208  13.645   7.953
 5360POPC   C4A 7806  39.210  13.581   7.653
 5360POPC   C1B 7807  39.448  13.701   8.553
 5360POPC   C2B 7808  39.466  13.687   8.253
 5360POPC   C3B 7809  39.462  13.718   7.953
 5360POPC   C4B 7810  39.492  13.675   7.653
 5361POPC   NC3 7811   8.201  38.461   9.453
 5361POPC   PO4 7812   8.224  38.428   9.153
 5361POPC   GL1 7813   8.186  38.461   8.853
 5361POPC   GL2 7814   8.264  38.538   8.853
 5361POPC   C1A 7815   8.195  38.470   8.553
 5361POPC   D2A 7816   8.196  38.484   8.253
 5361POPC   C3A 7817   8.187  38.439   7.953
 5361POPC   C4A 7818   8.171  38.424   7.653
 5361POPC   C1B 7819   8.387  38.587   8.553
 5361POPC   C2B 7820   8.371  38.613   8.253
 5361POPC   C3B 7821   8.400  38.536   7.953
 5361POPC   C4B 7822   8.399  38.611   7.653
 5362POPC   NC3 7823  25.239  26.083   9.453
 5362POPC   PO4 7824  25.294  26.064   9.153
 5362POPC   GL1 7825  25.247  26.015   8.853
 5362POPC   GL2 7826  25.277  26.128   8.853
 5362POPC   C1A 7827  25.238  26.008   8.553
 5362POPC   D2A 7828  25.223  26.024   8.253
 5362POPC   C3A 7829  25.280  26.054   7.953
 5362POPC   C4A 7830  25.241  26.005   7.653
 5362POPC   C1B 7831  25.193  26.298   8.553
 5362POPC   C2B 7832  25.153  26.327   8.253
 5362POPC   C3B 7833  25.162  26.323   7.953
 5362POPC   C4B 7834  25.152  26.271   7.653
 5363POPC   NC3 7835   1.170  19.845   9.453
 5363POPC   PO4 7836   1.182  19.812   9.153
 5363POPC   GL1 7837   1.261  19.865   8.853
 5363POPC   GL2 7838   1.355  19.815   8.853
 5363POPC   C1A 7839   1.205  19.838   8.553
 5363POPC   D2A 7840   1.239  19.801   8.253
 5363POPC   C3A 7841   1.213  19.809   7.953
 5363POPC   C4A 7842   1.256  19.845   7.653
 5363POPC   C1B 7843   1.384  19.751   8.553
 5363POPC   C2B 7844   1.415  19.653   8.253
 5363POPC   C3B 7845   1.409  19.719   7.953
 5363POPC   C4B 7846   1.453  19.685   7.653
 5364POPC   NC3 7847  23.738   5.841   9.453
 5364POPC   PO4 7848  23.749   5.910   9.153
 5364POPC   GL1 7849  23.702   5.837   8.853
 5364POPC   GL2 7850  23.640   5.937   8.853
 5364POPC   C1A 7851  23.751   5.827   8.553
 5364POPC   D2A 7852  23.689   5.919   8.253
 5364POPC   C3A 7853  23.669   5.869   7.953
 5364POPC   C4A 7854  23.690   5.849   7.653
 5364POPC   C1B 7855  23.546   6.021   8.553
 5364POPC   C2B 7856  23.589   6.077   8.253
 5364POPC   C3B 7857  23.543   6.087   7.953
 5364POPC   C4B 7858  23.587   6.097   7.653
 5365POPC   NC3 7859  13.629  42.367   9.453
 5365POPC   PO4 7860  13.639  42.349   9.153
 5365POPC   GL1 7861  13.604  42.299   8.853
 5365POPC   GL2 7862  13.655  42.240   8.853
 5365POPC   C1A 7863  13.584  42.313   8.553
 5365POPC   D2A 7864  13.591  42.328   8.253
 5365POPC   C3A 7865  13.603  42.309   7.953
 5365POPC   C4A 7866  13.591  42.377   7.653
 5365POPC   C1B 7867  13.804  42.097   8.553
 5365POPC   C2B 7868  13.796  42.134   8.253
 5365POPC   C3B 7869  13.814  42.167   7.953
 5365POPC   C4B 7870  13.786  42.176   7.653
 5366POPC   NC3 7871   0.430   1.255   9.453
 5366POPC   PO4 7872   0.415   1.261   9.153
 5366POPC   GL1 7873   0.438   1.238   8.853
 5366POPC   GL2 7874   0.386   1.112   8.853
 5366POPC   C1A 7875   0.484   1.185   8.553
 5366POPC   D2A 7876   0.477   1.251   8.253
 5366POPC   C3A 7877   0.439   1.180   7.953
 5366POPC   C4A 7878   0.406   1.210   7.653
 5366POPC   C1B 7879   0.252   1.004   8.553
 5366POPC   C2B 7880   0.315   1.046   8.253
 5366POPC   C3B 7881   0.324   1.057   7.953
 5366POPC   C4B 7882   0.248   1.022   7.653
 5367POPC   NC3 7883  43.091  24.508   9.453
 5367POPC   PO4 7884  43.140  24.493   9.153
 5367POPC   GL1 7885  43.092  24.450   8.853
 5367POPC   GL2 7886  43.077  24.369   8.853
 5367POPC   C1A 7887  43.118  24.461   8.553
 5367POPC   D2A 7888  43.118  24.519   8.253
 5367POPC   C3A 7889  43.088  24.521   7.953
 5367POPC   C4A 7890  43.100  24.539   7.653
 5367POPC   C1B 7891  42.939  24.284   8.553
 5367POPC   C2B 7892  42.968  24.292   8.253
 5367POPC   C3B 7893  42.998  24.288   7.953
 5367POPC   C4B 7894  42.924  24.331   7.653
 5368POPC   NC3 7895  19.079  29.925   9.453
 5368POPC   PO4 7896  19.019  29.888   9.153
 5368POPC   GL1 7897  19.042  29.965   8.853
 5368POPC   GL2 7898  18.939  29.868   8.853
 5368POPC   C1A 7899  19.034  29.968   8.553
 5368POPC   D2A 7900  19.085  29.899   8.253
 5368POPC   C3A 7901  19.107  29.925   7.953
 5368POPC   C4A 7902  19.056  29.920   7.653
 5368POPC   C1B 7903  18.874  29.737   8.553
 5368POPC   C2B 7904  18.874  29.770   8.253
 5368POPC   C3B 7905  18.835  29.765   7.953
 5368POPC   C4B 7906  18.887  29.757   7.653
 5369POPC   NC3 7907  13.637  34.545   9.453
 5369POPC   PO4 7908  13.651  34.564   9.153
 5369POPC   GL1 7909  13.669  34.545   8.853
 5369POPC   GL2 7910  13.558  34.657   8.853
 5369POPC   C1A 7911  13.659  34.531   8.553
 5369POPC   D2A 7912  13.653  34.599   8.253
 5369POPC   C3A 7913  13.595  34.613   7.953
 5369POPC   C4A 7914  13.653  34.596   7.653
 5369POPC   C1B 7915  13.470  34.796   8.553
 5369POPC   C2B 7916  13.484  34.797   8.253
 5369POPC   C3B 7917  13.487  34.815   7.953
 5369POPC   C4B 7918  13.530  34.842   7.653
 5370POPC   NC3 7919   4.275  36.925   9.453
 5370POPC   PO4 7920   4.352  36.929   9.153
 5370POPC   GL1 7921   4.277  36.925   8.853
 5370POPC   GL2 7922   4.391  36.934   8.853
 5370POPC   C1A 7923   4.325  36.889   8.553
 5370POPC   D2A 7924   4.348  36.936   8.253
 5370POPC   C3A 7925   4.318  36.911   7.953
 5370POPC   C4A 7926   4.292  36.951   7.653
 5370POPC   C1B 7927   4.579  37.015   8.553
 5370POPC   C2B 7928   4.544  37.036   8.253
 5370POPC   C3B 7929   4.557  37.049   7.953
 5370POPC   C4B 7930   4.578  37.009   7.653
 5371POPC   NC3 7931   6.617   9.005   9.453
 5371POPC   PO4 7932   6.613   8.969   9.153
 5371POPC   GL1 7933   6.659   8.940   8.853
 5371POPC   GL2 7934   6.751   8.953   8.853
 5371POPC   C1A 7935   6.604   8.946   8.553
 5371POPC   D2A 7936   6.673   8.924   8.253
 5371POPC   C3A 7937   6.626   8.926   7.953
 5371POPC   C4A 7938   6.633   8.959   7.653
 5371POPC   C1B 7939   6.841   8.923   8.553
 5371POPC   C2B 7940   6.914   8.864   8.253
 5371POPC   C3B 7941   6.910   8.869   7.953
 5371POPC   C4B 7942   6.841   8.849   7.653
 5372POPC   NC3 7943  17.537  41.532   9.453
 5372POPC   PO4 7944  17.485  41.575   9.153
 5372POPC   GL1 7945  17.514  41.581   8.853
 5372POPC   GL2 7946  17.645  41.591   8.853
 5372POPC   C1A 7947  17.542  41.573   8.553
 5372POPC   D2A 7948  17.504  41.595   8.253
 5372POPC   C3A 7949  17.485  41.553   7.953
 5372POPC   C4A 7950  17.463  41.542   7.653
 5372POPC   C1B 7951  17.732  41.629   8.553
 5372POPC   C2B 7952  17.711  41.583   8.253
 5372POPC   C3B 7953  17.728  41.618   7.953
 5372POPC   C4B 7954  17.754  41.576   7.653
 5373POPC   NC3 7955  16.707  17.504   9.453
 5373POPC   PO4 7956  16.700  17.515   9.153
 5373POPC   GL1 7957  16.757  17.469   8.853
 5373POPC   GL2 7958  16.850  17.442   8.853
 5373POPC   C1A 7959  16.744  17.546   8.553
 5373POPC   D2A 7960  16.712  17.536   8.253
 5373POPC   C3A 7961  16.682  17.524   7.953
 5373POPC   C4A 7962  16.682  17.460   7.653
 5373POPC   C1B 7963  16.876  17.328   8.553
 5373POPC   C2B 7964  16.931  17.355   8.253
 5373POPC   C3B 7965  16.919  17.345   7.953
 5373POPC   C4B 7966  16.864  17.352   7.653
 5374POPC   NC3 7967  15.208  33.015   9.453
 5374POPC   PO4 7968  15.151  32.995   9.153
 5374POPC   GL1 7969  15.220  33.009   8.853
 5374POPC   GL2 7970  15.253  32.963   8.853
 5374POPC   C1A 7971  15.137  32.976   8.553
 5374POPC   D2A 7972  15.162  33.035   8.253
 5374POPC   C3A 7973  15.138  33.019   7.953
 5374POPC   C4A 7974  15.201  33.012   7.653
 5374POPC   C1B 7975  15.367  32.896   8.553
 5374POPC   C2B 7976  15.418  32.891   8.253
 5374POPC   C3B 7977  15.370  32.952   7.953
 5374POPC   C4B 7978  15.447  32.946   7.653
 5375POPC   NC3 7979  36.144   5.883   9.453
 5375POPC   PO4 7980  36.170   5.916   9.153
 5375POPC   GL1 7981  36.112   5.835   8.853
 5375POPC   GL2 7982  35.999   5.825   8.853
 5375POPC   C1A 7983  36.078   5.889   8.553
 5375POPC   D2A 7984  36.117   5.861   8.253
 5375POPC   C3A 7985  36.104   5.912   7.953
 5375POPC   C4A 7986  36.078   5.819   7.653
 5375POPC   C1B 7987  35.904   5.894   8.553
 5375POPC   C2B 7988  35.846   5.868   8.253
 5375POPC   C3B 7989  35.862   5.904   7.953
 5375POPC   C4B 7990  35.830   5.818   7.653
 5376POPC   NC3 7991  35.355   8.171   9.453
 5376POPC   PO4 7992  35.305   8.171   9.153
 5376POPC   GL1 7993  35.332   8.201   8.853
 5376POPC   GL2 7994  35.283   8.081   8.853
 5376POPC   C1A 7995  35.380   8.240   8.553
 5376POPC   D2A 7996  35.397   8.162   8.253
 5376POPC   C3A 7997  35.358   8.234   7.953
 5376POPC   C4A 7998  35.389   8.184   7.653
 5376POPC   C1B 7999  35.175   8.061   8.553
 5376POPC   C2B 8000  35.156   8.068   8.253
 5376POPC   C3B 8001  35.170   7.994   7.953
 5376POPC   C4B 8002  35.205   7.996   7.653
 5377POPC   NC3 8003  18.302   2.760   9.453
 5377POPC   PO4 8004  18.275   2.739   9.153
 5377POPC   GL1 8005  18.326   2.767   8.853
 5377POPC   GL2 8006  18.220   2.715   8.853
 5377POPC   C1A 8007  18.316   2.811   8.553
 5377POPC   D2A 8008  18.320   2.743   8.253
 5377POPC   C3A 8009  18.319   2.772   7.953
 5377POPC   C4A 8010  18.248   2.716   7.653
 5377POPC   C1B 8011  18.095   2.620   8.553
 5377POPC   C2B 8012  18.131   2.578   8.253
 5377POPC   C3B 8013  18.066   2.613   7.953
 5377POPC   C4B 8014  18.124   2.561   7.653
 5378POPC   NC3 8015  33.838  34.557   9.453
 5378POPC   PO4 8016  33.794  34.611   9.153
 5378POPC   GL1 8017  33.767  34.617   8.853
 5378POPC   GL2 8018  33.875  34.525   8.853
 5378POPC   C1A 8019  33.838  34.571   8.553
 5378POPC   D2A 8020  33.818  34.527   8.253
 5378POPC   C3A 8021  33.781  34.576   7.953
 5378POPC   C4A 8022  33.845  34.556   7.653
 5378POPC   C1B 8023  33.993  34.433   8.553
 5378POPC   C2B 8024  34.038  34.383   8.253
 5378POPC   C3B 8025  34.033  34.413   7.953
 5378POPC   C4B 8026  34.023  34.375   7.653
 5379POPC   NC3 8027  12.881   4.303   9.453
 5379POPC   PO4 8028  12.807   4.268   9.153
 5379POPC   GL1 8029  12.837   4.308   8.853
 5379POPC   GL2 8030  12.873   4.148   8.853
 5379POPC   C1A 8031  12.873   4.328   8.553
 5379POPC   D2A 8032  12.900   4.308   8.253
 5379POPC   C3A 8033  12.866   4.276   7.953
 5379POPC   C4A 8034  12.848   4.323   7.653
 5379POPC   C1B 8035  12.834   4.028   8.553
 5379POPC   C2B 8036  12.846   4.076   8.253
 5379POPC   C3B 8037  12.819   4.078   7.953
 5379POPC   C4B 8038  12.875   4.088   7.653
 5380POPC   NC3 8039   5.915  30.664   9.453
 5380POPC   PO4 8040   5.869  30.681   9.153
 5380POPC   GL1 8041   5.870  30.746   8.853
 5380POPC   GL2 8042   5.753  30.594   8.853
 5380POPC   C1A 8043   5.821  30.672   8.553
 5380POPC   D2A 8044   5.873  30.741   8.253
 5380POPC   C3A 8045   5.849  30.695   7.953
 5380POPC   C4A 8046   5.820  30.700   7.653
 5380POPC   C1B 8047   5.713  30.533   8.553
 5380POPC   C2B 8048   5.715  30.482   8.253
 5380POPC   C3B 8049   5.695  30.533   7.953
 5380POPC   C4B 8050   5.738  30.525   7.653
 5381POPC   NC3 8051   0.435   8.225   9.453
 5381POPC   PO4 8052   0.462   8.176   9.153
 5381POPC   GL1 8053   0.444   8.215   8.853
 5381POPC   GL2 8054   0.456   8.356   8.853
 5381POPC   C1A 8055   0.456   8.215   8.553
 5381POPC   D2A 8056   0.401   8.181   8.253
 5381POPC   C3A 8057   0.461   8.185   7.953
 5381POPC   C4A 8058   0.415   8.234   7.653
 5381POPC   C1B 8059   0.529   8.445   8.553
 5381POPC   C2B 8060   0.460   8.430   8.253
 5381POPC   C3B 8061   0.469   8.454   7.953
 5381POPC   C4B 8062   0.475   8.468   7.653
 5382POPC   NC3 8063  31.458  22.177   9.453
 5382POPC   PO4 8064  31.457  22.135   9.153
 5382POPC   GL1 8065  31.518  22.155   8.853
 5382POPC   GL2 8066  31.455  22.296   8.853
 5382POPC   C1A 8067  31.467  22.176   8.553
 5382POPC   D2A 8068  31.510  22.124   8.253
 5382POPC   C3A 8069  31.514  22.143   7.953
 5382POPC   C4A 8070  31.425  22.122   7.653
 5382POPC   C1B 8071  31.391  22.403   8.553
 5382POPC   C2B 8072  31.438  22.359   8.253
 5382POPC   C3B 8073  31.446  22.391   7.953
 5382POPC   C4B 8074  31.396  22.428   7.653
 5383POPC   NC3 8075  33.811   9.737   9.453
 5383POPC   PO4 8076  33.789   9.767   9.153
 5383POPC   GL1 8077  33.804   9.775   8.853
 5383POPC   GL2 8078  33.893   9.714   8.853
 5383POPC   C1A 8079  33.806   9.713   8.553
 5383POPC   D2A 8080  33.838   9.736   8.253
 5383POPC   C3A 8081  33.816   9.709   7.953
 5383POPC   C4A 8082  33.755   9.783   7.653
 5383POPC   C1B 8083  34.040   9.604   8.553
 5383POPC   C2B 8084  34.030   9.665   8.253
 5383POPC   C3B 8085  34.037   9.659   7.953
 5383POPC   C4B 8086  33.994   9.621   7.653
 5384POPC   NC3 8087  15.150  19.013   9.453
 5384POPC   PO4 8088  15.144  19.080   9.153
 5384POPC   GL1 8089  15.189  19.025   8.853
 5384POPC   GL2 8090  15.077  19.198   8.853
 5384POPC   C1A 8091  15.222  19.087   8.553
 5384POPC   D2A 8092  15.154  19.106   8.253
 5384POPC   C3A 8093  15.196  19.086   7.953
 5384POPC   C4A 8094  15.151  19.097   7.653
 5384POPC   C1B 8095  15.028  19.291   8.553
 5384POPC   C2B 8096  15.043  19.262   8.253
 5384POPC   C3B 8097  15.030  19.304   7.953
 5384POPC   C4B 8098  15.005  19.292   7.653
 5385POPC   NC3 8099   5.829  33.011   9.453
 5385POPC   PO4 8100   5.861  33.068   9.153
 5385POPC   GL1 8101   5.873  33.004   8.853
 5385POPC   GL2 8102   5.741  33.104   8.853
 5385POPC   C1A 8103   5.900  33.015   8.553
 5385POPC   D2A 8104   5.870  33.017   8.253
 5385POPC   C3A 8105   5.865  33.046   7.953
 5385POPC   C4A 8106   5.902  33.060   7.653
 5385POPC   C1B 8107   5.650  33.216   8.553
 5385POPC   C2B 8108   5.692  33.200   8.253
 5385POPC   C3B 8109   5.713  33.178   7.953
 5385POPC   C4B 8110   5.704  33.242   7.653
 5386POPC   NC3 8111  24.487  14.388   9.453
 5386POPC   PO4 8112  24.533  14.421   9.153
 5386POPC   GL1 8113  24.510  14.364   8.853
 5386POPC   GL2 8114  24.530  14.327   8.853
 5386POPC   C1A 8115  24.538  14.426   8.553
 5386POPC   D2A 8116  24.463  14.434   8.253
 5386POPC   C3A 8117  24.524  14.434   7.953
 5386POPC   C4A 8118  24.527  14.399   7.653
 5386POPC   C1B 8119  24.670  14.209   8.553
 5386POPC   C2B 8120  24.599  14.230   8.253
 5386POPC   C3B 8121  24.624  14.191   7.953
 5386POPC   C4B 8122  24.669  14.153   7.653
 5387POPC   NC3 8123  40.040  23.740   9.453
 5387POPC   PO4 8124  39.981  23.753   9.153
 5387POPC   GL1 8125  39.990  23.749   8.853
 5387POPC   GL2 8126  39.987  23.884   8.853
 5387POPC   C1A 8127  40.018  23.711   8.553
 5387POPC   D2A 8128  40.026  23.666   8.253
 5387POPC   C3A 8129  39.961  23.682   7.953
 5387POPC   C4A 8130  40.003  23.739   7.653
 5387POPC   C1B 8131  40.094  23.942   8.553
 5387POPC   C2B 8132  40.077  23.966   8.253
 5387POPC   C3B 8133  40.074  23.920   7.953
 5387POPC   C4B 8134  40.071  23.925   7.653
 5388POPC   NC3 8135  32.989  18.249   9.453
 5388POPC   PO4 8136  33.057  18.256   9.153
 5388POPC   GL1 8137  33.020  18.308   8.853
 5388POPC   GL2 8138  33.146  18.255   8.853
 5388POPC   C1A 8139  33.066  18.332   8.553
 5388POPC   D2A 8140  32.984  18.318   8.253
 5388POPC   C3A 8141  32.988  18.258   7.953
 5388POPC   C4A 8142  32.984  18.239   7.653
 5388POPC   C1B 8143  33.277  18.339   8.553
 5388POPC   C2B 8144  33.268  18.369   8.253
 5388POPC   C3B 8145  33.224  18.331   7.953
 5388POPC   C4B 8146  33.314  18.324   7.653
 5389POPC   NC3 8147  10.572  15.977   9.453
 5389POPC   PO4 8148  10.529  15.957   9.153
 5389POPC   GL1 8149  10.513  15.953   8.853
 5389POPC   GL2 8150  10.642  15.822   8.853
 5389POPC   C1A 8151  10.524  15.998   8.553
 5389POPC   D2A 8152  10.522  15.935   8.253
 5389POPC   C3A 8153  10.536  15.916   7.953
 5389POPC   C4A 8154  10.500  15.950   7.653
 5389POPC   C1B 8155  10.674  15.833   8.553
 5389POPC   C2B 8156  10.741  15.796   8.253
 5389POPC   C3B 8157  10.664  15.774   7.953
 5389POPC   C4B 8158  10.729  15.742   7.653
 5390POPC   NC3 8159   2.786  36.918   9.453
 5390POPC   PO4 8160   2.742  36.901   9.153
 5390POPC   GL1 8161   2.720  36.899   8.853
 5390POPC   GL2 8162   2.868  36.851   8.853
 5390POPC   C1A 8163   2.801  36.949   8.553
 5390POPC   D2A 8164   2.750  36.886   8.253
 5390POPC   C3A 8165   2.725  36.881   7.953
 5390POPC   C4A 8166   2.727  36.917   7.653
 5390POPC   C1B 8167   3.022  36.825   8.553
 5390POPC   C2B 8168   2.939  36.762   8.253
 5390POPC   C3B 8169   2.942  36.758   7.953
 5390POPC   C4B 8170   3.015  36.798   7.653
 5391POPC   NC3 8171   4.354  39.961   9.453
 5391POPC   PO4 8172   4.290  39.991   9.153
 5391POPC   GL1 8173   4.311  39.968   8.853
 5391POPC   GL2 8174   4.175  40.011   8.853
 5391POPC   C1A 8175   4.331  40.026   8.553
 5391POPC   D2A 8176   4.345  40.007   8.253
 5391POPC   C3A 8177   4.331  40.036   7.953
 5391POPC   C4A 8178   4.335  40.009   7.653
 5391POPC   C1B 8179   4.080  40.142   8.553
 5391POPC   C2B 8180   4.040  40.141   8.253
 5391POPC   C3B 8181   4.094  40.109   7.953
 5391POPC   C4B 8182   4.045  40.120   7.653
 5392POPC   NC3 8183  27.564  13.610   9.453
 5392POPC   PO4 8184  27.624  13.602   9.153
 5392POPC   GL1 8185  27.638  13.615   8.853
 5392POPC   GL2 8186  27.541  13.530   8.853
 5392POPC   C1A 8187  27.620  13.599   8.553
 5392POPC   D2A 8188  27.563  13.582   8.253
 5392POPC   C3A 8189  27.607  13.596   7.953
 5392POPC   C4A 8190  27.591  13.579   7.653
 5392POPC   C1B 8191  27.408  13.443   8.553
 5392POPC   C2B 8192  27.479  13.405   8.253
 5392POPC   C3B 8193  27.461  13.467   7.953
 5392POPC   C4B 8194  27.453  13.416   7.653
 5393POPC   NC3 8195   3.576   0.469   9.453
 5393POPC   PO4 8196   3.528   0.420   9.153
 5393POPC   GL1 8197   3.544   0.471   8.853
 5393POPC   GL2 8198   3.663   0.401   8.853
 5393POPC   C1A 8199   3.569   0.483   8.553
 5393POPC   D2A 8200   3.527   0.485   8.253
 5393POPC   C3A 8201   3.525   0.467   7.953
 5393POPC   C4A 8202   3.515   0.423   7.653
 5393POPC   C1B 8203   3.796   0.370   8.553
 5393POPC   C2B 8204   3.750   0.408   8.253
 5393POPC   C3B 8205   3.767   0.365   7.953
 5393POPC   C4B 8206   3.788   0.440   7.653
 5394POPC   NC3 8207  22.159   6.607   9.453
 5394POPC   PO4 8208  22.170   6.678   9.153
 5394POPC   GL1 8209  22.187   6.686   8.853
 5394POPC   GL2 8210  22.164   6.722   8.853
 5394POPC   C1A 8211  22.156   6.638   8.553
 5394POPC   D2A 8212  22.212   6.668   8.253
 5394POPC   C3A 8213  22.209   6.600   7.953
 5394POPC   C4A 8214  22.206   6.650   7.653
 5394POPC   C1B 8215  22.140   6.875   8.553
 5394POPC   C2B 8216  22.155   6.918   8.253
 5394POPC   C3B 8217  22.151   6.866   7.953
 5394POPC   C4B 8218  22.180   6.887   7.653
 5395POPC   NC3 8219  17.490  38.485   9.453
 5395POPC   PO4 8220  17.549  38.446   9.153
 5395POPC   GL1 8221  17.461  38.474   8.853
 5395POPC   GL2 8222  17.527  38.555   8.853
 5395POPC   C1A 8223  17.472  38.444   8.553
 5395POPC   D2A 8224  17.458  38.488   8.253
 5395POPC   C3A 8225  17.501  38.492   7.953
 5395POPC   C4A 8226  17.547  38.432   7.653
 5395POPC   C1B 8227  17.614  38.637   8.553
 5395POPC   C2B 8228  17.626  38.668   8.253
 5395POPC   C3B 8229  17.661  38.637   7.953
 5395POPC   C4B 8230  17.656  38.649   7.653
 5396POPC   NC3 8231  31.509  42.339   9.453
 5396POPC   PO4 8232  31.494  42.307   9.153
 5396POPC   GL1 8233  31.500  42.355   8.853
 5396POPC   GL2 8234  31.567  42.301   8.853
 5396POPC   C1A 8235  31.509  42.331   8.553
 5396POPC   D2A 8236  31.466  42.300   8.253
 5396POPC   C3A 8237  31.463  42.335   7.953
 5396POPC   C4A 8238  31.508  42.287   7.653
 5396POPC   C1B 8239  31.718  42.216   8.553
 5396POPC   C2B 8240  31.652  42.164   8.253
 5396POPC   C3B 8241  31.727  42.248   7.953
 5396POPC   C4B 8242  31.656  42.204   7.653
 5397POPC   NC3 8243  15.961  39.195   9.453
 5397POPC   PO4 8244  15.919  39.273   9.153
 5397POPC   GL1 8245  15.970  39.183   8.853
 5397POPC   GL2 8246  15.940  39.343   8.853
 5397POPC   C1A 8247  15.976  39.269   8.553
 5397POPC   D2A 8248  15.910  39.227   8.253
 5397POPC   C3A 8249  15.950  39.256   7.953
 5397POPC   C4A 8250  15.914  39.251   7.653
 5397POPC   C1B 8251  15.835  39.472   8.553
 5397POPC   C2B 8252  15.840  39.481   8.253
 5397POPC   C3B 8253  15.785  39.398   7.953
 5397POPC   C4B 8254  15.793  39.488   7.653
 5398POPC   NC3 8255  26.853  26.786   9.453
 5398POPC   PO4 8256  26.780  26.847   9.153
 5398POPC   GL1 8257  26.808  26.824   8.853
 5398POPC   GL2 8258  26.695  26.769   8.853
 5398POPC   C1A 8259  26.784  26.864   8.553
 5398POPC   D2A 8260  26.796  26.859   8.253
 5398POPC   C3A 8261  26.808  26.847   7.953
 5398POPC   C4A 8262  26.771  26.837   7.653
 5398POPC   C1B 8263  26.562  26.843   8.553
 5398POPC   C2B 8264  26.560  26.811   8.253
 5398POPC   C3B 8265  26.604  26.822   7.953
 5398POPC   C4B 8266  26.604  26.827   7.653
 5399POPC   NC3 8267   5.086  37.642   9.453
 5399POPC   PO4 8268   5.136  37.713   9.153
 5399POPC   GL1 8269   5.056  37.655   8.853
 5399POPC   GL2 8270   5.044  37.597   8.853
 5399POPC   C1A 8271   5.137  37.638   8.553
 5399POPC   D2A 8272   5.099  37.654   8.253
 5399POPC   C3A 8273   5.051  37.688   7.953
 5399POPC   C4A 8274   5.100  37.724   7.653
 5399POPC   C1B 8275   4.864  37.565   8.553
 5399POPC   C2B 8276   4.939  37.526   8.253
 5399POPC   C3B 8277   4.932  37.566   7.953
 5399POPC   C4B 8278   4.908  37.556   7.653
 5400POPC   NC3 8279  33.773  40.037   9.453
 5400POPC   PO4 8280  33.776  39.960   9.153
 5400POPC   GL1 8281  33.835  39.963   8.853
 5400POPC   GL2 8282  33.846  39.857   8.853
 5400POPC   C1A 8283  33.836  39.999   8.553
 5400POPC   D2A 8284  33.822  40.024   8.253
 5400POPC   C3A 8285  33.784  39.965   7.953
 5400POPC   C4A 8286  33.791  40.050   7.653
 5400POPC   C1B 8287  33.810  39.715   8.553
 5400POPC   C2B 8288  33.811  39.770   8.253
 5400POPC   C3B 8289  33.816  39.711   7.953
 5400POPC   C4B 8290  33.846  39.726   7.653
 5401POPC   NC3 8291  25.306  33.806   9.453
 5401POPC   PO4 8292  25.262  33.797   9.153
 5401POPC   GL1 8293  25.283  33.773   8.853
 5401POPC   GL2 8294  25.347  33.671   8.853
 5401POPC   C1A 8295  25.284  33.783   8.553
 5401POPC   D2A 8296  25.281  33.775   8.253
 5401POPC   C3A 8297  25.300  33.762   7.953
 5401POPC   C4A 8298  25.302  33.757   7.653
 5401POPC   C1B 8299  25.284  33.575   8.553
 5401POPC   C2B 8300  25.323  33.570   8.253
 5401POPC   C3B 8301  25.316  33.582   7.953
 5401POPC   C4B 8302  25.377  33.601   7.653
 5402POPC   NC3 8303  15.965  32.220   9.453
 5402POPC   PO4 8304  15.947  32.269   9.153
 5402POPC   GL1 8305  15.921  32.270   8.853
 5402POPC   GL2 8306  15.986  32.320   8.853
 5402POPC   C1A 8307  15.909  32.289   8.553
 5402POPC   D2A 8308  15.935  32.205   8.253
 5402POPC   C3A 8309  15.948  32.290   7.953
 5402POPC   C4A 8310  15.921  32.233   7.653
 5402POPC   C1B 8311  16.111  32.400   8.553
 5402POPC   C2B 8312  16.123  32.439   8.253
 5402POPC   C3B 8313  16.075  32.448   7.953
 5402POPC   C4B 8314  16.065  32.407   7.653
 5403POPC   NC3 8315   0.458  36.937   9.453
 5403POPC   PO4 8316   0.435  36.939   9.153
 5403POPC   GL1 8317   0.446  36.875   8.853
 5403POPC   GL2 8318   0.300  36.961   8.853
 5403POPC   C1A 8319   0.468  36.885   8.553
 5403POPC   D2A 8320   0.481  36.895   8.253
 5403POPC   C3A 8321   0.443  36.953   7.953
 5403POPC   C4A 8322   0.436  36.875   7.653
 5403POPC   C1B 8323   0.254  36.979   8.553
 5403POPC   C2B 8324   0.167  37.011   8.253
 5403POPC   C3B 8325   0.213  36.981   7.953
 5403POPC   C4B 8326   0.238  37.002   7.653
 5404POPC   NC3 8327  14.440  36.086   9.453
 5404POPC   PO4 8328  14.378  36.176   9.153
 5404POPC   GL1 8329  14.451  36.086   8.853
 5404POPC   GL2 8330  14.436  36.251   8.853
 5404POPC   C1A 8331  14.437  36.130   8.553
 5404POPC   D2A 8332  14.423  36.100   8.253
 5404POPC   C3A 8333  14.396  36.079   7.953
 5404POPC   C4A 8334  14.359  36.096   7.653
 5404POPC   C1B 8335  14.479  36.319   8.553
 5404POPC   C2B 8336  14.530  36.349   8.253
 5404POPC   C3B 8337  14.546  36.353   7.953
 5404POPC   C4B 8338  14.464  36.385   7.653
 5405POPC   NC3 8339  40.023  13.630   9.453
 5405POPC   PO4 8340  40.013  13.594   9.153
 5405POPC   GL1 8341  40.018  13.605   8.853
 5405POPC   GL2 8342  40.048  13.706   8.853
 5405POPC   C1A 8343  39.984  13.605   8.553
 5405POPC   D2A 8344  40.000  13.650   8.253
 5405POPC   C3A 8345  39.957  13.661   7.953
 5405POPC   C4A 8346  39.996  13.674   7.653
 5405POPC   C1B 8347  40.165  13.872   8.553
 5405POPC   C2B 8348  40.181  13.788   8.253
 5405POPC   C3B 8349  40.172  13.808   7.953
 5405POPC   C4B 8350  40.120  13.873   7.653
 5406POPC   NC3 8351   3.542  13.584   9.453
 5406POPC   PO4 8352   3.522  13.639   9.153
 5406POPC   GL1 8353   3.571  13.583   8.853
 5406POPC   GL2 8354   3.492  13.494   8.853
 5406POPC   C1A 8355   3.500  13.599   8.553
 5406POPC   D2A 8356   3.527  13.641   8.253
 5406POPC   C3A 8357   3.511  13.643   7.953
 5406POPC   C4A 8358   3.513  13.618   7.653
 5406POPC   C1B 8359   3.455  13.398   8.553
 5406POPC   C2B 8360   3.475  13.404   8.253
 5406POPC   C3B 8361   3.410  13.388   7.953
 5406POPC   C4B 8362   3.424  13.448   7.653
 5407POPC   NC3 8363  11.266  14.432   9.453
 5407POPC   PO4 8364  11.272  14.364   9.153
 5407POPC   GL1 8365  11.302  14.379   8.853
 5407POPC   GL2 8366  11.209  14.358   8.853
 5407POPC   C1A 8367  11.326  14.386   8.553
 5407POPC   D2A 8368  11.328  14.397   8.253
 5407POPC   C3A 8369  11.327  14.393   7.953
 5407POPC   C4A 8370  11.256  14.405   7.653
 5407POPC   C1B 8371  11.009  14.369   8.553
 5407POPC   C2B 8372  11.056  14.396   8.253
 5407POPC   C3B 8373  11.100  14.345   7.953
 5407POPC   C4B 8374  11.056  14.367   7.653
 5408POPC   NC3 8375  25.285   3.503   9.453
 5408POPC   PO4 8376  25.290   3.576   9.153
 5408POPC   GL1 8377  25.290   3.545   8.853
 5408POPC   GL2 8378  25.424   3.567   8.853
 5408POPC   C1A 8379  25.217   3.584   8.553
 5408POPC   D2A 8380  25.309   3.518   8.253
 5408POPC   C3A 8381  25.222   3.573   7.953
 5408POPC   C4A 8382  25.225   3.586   7.653
 5408POPC   C1B 8383  25.500   3.689   8.553
 5408POPC   C2B 8384  25.516   3.691   8.253
 5408POPC   C3B 8385  25.499   3.624   7.953
 5408POPC   C4B 8386  25.459   3.659   7.653
 5409POPC   NC3 8387  33.007  36.941   9.453
 5409POPC   PO4 8388  33.052  36.868   9.153
 5409POPC   GL1 8389  32.996  36.934   8.853
 5409POPC   GL2 8390  33.091  36.969   8.853
 5409POPC   C1A 8391  33.063  36.930   8.553
 5409POPC   D2A 8392  33.026  36.952   8.253
 5409POPC   C3A 8393  33.066  36.883   7.953
 5409POPC   C4A 8394  32.978  36.920   7.653
 5409POPC   C1B 8395  33.125  37.142   8.553
 5409POPC   C2B 8396  33.169  37.121   8.253
 5409POPC   C3B 8397  33.135  37.178   7.953
 5409POPC   C4B 8398  33.171  37.126   7.653
 5410POPC   NC3 8399   7.401   2.781   9.453
 5410POPC   PO4 8400   7.375   2.760   9.153
 5410POPC   GL1 8401   7.457   2.732   8.853
 5410POPC   GL2 8402   7.308   2.843   8.853
 5410POPC   C1A 8403   7.469   2.794   8.553
 5410POPC   D2A 8404   7.415   2.760   8.253
 5410POPC   C3A 8405   7.467   2.729   7.953
 5410POPC   C4A 8406   7.468   2.773   7.653
 5410POPC   C1B 8407   7.211   2.791   8.553
 5410POPC   C2B 8408   7.230   2.858   8.253
 5410POPC   C3B 8409   7.227   2.868   7.953
 5410POPC   C4B 8410   7.164   2.788   7.653
 5411POPC   NC3 8411  40.830  35.307   9.453
 5411POPC   PO4 8412  40.806  35.316   9.153
 5411POPC   GL1 8413  40.826  35.344   8.853
 5411POPC   GL2 8414  40.704  35.240   8.853
 5411POPC   C1A 8415  40.830  35.350   8.553
 5411POPC   D2A 8416  40.832  35.371   8.253
 5411POPC   C3A 8417  40.813  35.316   7.953
 5411POPC   C4A 8418  40.739  35.400   7.653
 5411POPC   C1B 8419  40.670  35.139   8.553
 5411POPC   C2B 8420  40.625  35.132   8.253
 5411POPC   C3B 8421  40.699  35.107   7.953
 5411POPC   C4B 8422  40.703  35.121   7.653
 5412POPC   NC3 8423  43.896  22.949   9.453
 5412POPC   PO4 8424  43.915  22.923   9.153
 5412POPC   GL1 8425  43.887  22.896   8.853
 5412POPC   GL2 8426  43.795  22.836   8.853
 5412POPC   C1A 8427  43.897  22.956   8.553
 5412POPC   D2A 8428  43.882  22.908   8.253
 5412POPC   C3A 8429  43.905  22.910   7.953
 5412POPC   C4A 8430  43.890  22.927   7.653
 5412POPC   C1B 8431  43.712  22.729   8.553
 5412POPC   C2B 8432  43.768  22.734   8.253
 5412POPC   C3B 8433  43.750  22.702   7.953
 5412POPC   C4B 8434  43.775  22.675   7.653
 5413POPC   NC3 8435  44.701   9.716   9.453
 5413POPC   PO4 8436  44.639   9.749   9.153
 5413POPC   GL1 8437  44.653   9.730   8.853
 5413POPC   GL2 8438  44.725   9.657   8.853
 5413POPC   C1A 8439  44.621   9.771   8.553
 5413POPC   D2A 8440  44.678   9.760   8.253
 5413POPC   C3A 8441  44.674   9.781   7.953
 5413POPC   C4A 8442  44.630   9.719   7.653
 5413POPC   C1B 8443  44.906   9.657   8.553
 5413POPC   C2B 8444  44.843   9.609   8.253
 5413POPC   C3B 8445  44.883   9.612   7.953
 5413POPC   C4B 8446  44.834   9.587   7.653
 5414POPC   NC3 8447  12.057  28.348   9.453
 5414POPC   PO4 8448  12.053  28.395   9.153
 5414POPC   GL1 8449  12.061  28.339   8.853
 5414POPC   GL2 8450  12.217  28.311   8.853
 5414POPC   C1A 8451  12.088  28.407   8.553
 5414POPC   D2A 8452  12.102  28.339   8.253
 5414POPC   C3A 8453  12.096  28.362   7.953
 5414POPC   C4A 8454  12.103  28.416   7.653
 5414POPC   C1B 8455  12.283  28.295   8.553
 5414POPC   C2B 8456  12.293  28.254   8.253
 5414POPC   C3B 8457  12.287  28.246   7.953
 5414POPC   C4B 8458  12.317  28.248   7.653
 5415POPC   NC3 8459   5.093  10.510   9.453
 5415POPC   PO4 8460   5.073  10.479   9.153
 5415POPC   GL1 8461   5.107  10.483   8.853
 5415POPC   GL2 8462   5.216  10.578   8.853
 5415POPC   C1A 8463   5.076  10.475   8.553
 5415POPC   D2A 8464   5.045  10.525   8.253
 5415POPC   C3A 8465   5.053  10.480   7.953
 5415POPC   C4A 8466   5.100  10.497   7.653
 5415POPC   C1B 8467   5.290  10.672   8.553
 5415POPC   C2B 8468   5.358  10.667   8.253
 5415POPC   C3B 8469   5.356  10.650   7.953
 5415POPC   C4B 8470   5.274  10.676   7.653
 5416POPC   NC3 8471  10.539  35.350   9.453
 5416POPC   PO4 8472  10.481  35.389   9.153
 5416POPC   GL1 8473  10.481  35.365   8.853
 5416POPC   GL2 8474  10.562  35.481   8.853
 5416POPC   C1A 8475  10.479  35.379   8.553
 5416POPC   D2A 8476  10.556  35.308   8.253
 5416POPC   C3A 8477  10.518  35.323   7.953
 5416POPC   C4A 8478  10.559  35.388   7.653
 5416POPC   C1B 8479  10.585  35.570   8.553
 5416POPC   C2B 8480  10.582  35.575   8.253
 5416POPC   C3B 8481  10.516  35.569   7.953
 5416POPC   C4B 8482  10.569  35.640   7.653
 5417POPC   NC3 8483   8.185  12.860   9.453
 5417POPC   PO4 8484   8.206  12.852   9.153
 5417POPC   GL1 8485   8.205  12.876   8.853
 5417POPC   GL2 8486   8.066  12.909   8.853
 5417POPC   C1A 8487   8.155  12.827   8.553
 5417POPC   D2A 8488   8.201  12.861   8.253
 5417POPC   C3A 8489   8.158  12.872   7.953
 5417POPC   C4A 8490   8.217  12.841   7.653
 5417POPC   C1B 8491   7.990  12.947   8.553
 5417POPC   C2B 8492   7.923  12.916   8.253
 5417POPC   C3B 8493   7.956  12.869   7.953
 5417POPC   C4B 8494   7.926  12.928   7.653
 5418POPC   NC3 8495  22.890  13.640   9.453
 5418POPC   PO4 8496  22.952  13.625   9.153
 5418POPC   GL1 8497  22.914  13.676   8.853
 5418POPC   GL2 8498  23.036  13.733   8.853
 5418POPC   C1A 8499  22.980  13.600   8.553
 5418POPC   D2A 8500  22.957  13.640   8.253
 5418POPC   C3A 8501  22.911  13.604   7.953
 5418POPC   C4A 8502  22.890  13.672   7.653
 5418POPC   C1B 8503  23.137  13.808   8.553
 5418POPC   C2B 8504  23.169  13.803   8.253
 5418POPC   C3B 8505  23.129  13.793   7.953
 5418POPC   C4B 8506  23.093  13.817   7.653
 5419POPC   NC3 8507  31.466  18.327   9.453
 5419POPC   PO4 8508  31.510  18.281   9.153
 5419POPC   GL1 8509  31.448  18.278   8.853
 5419POPC   GL2 8510  31.402  18.370   8.853
 5419POPC   C1A 8511  31.456  18.322   8.553
 5419POPC   D2A 8512  31.508  18.247   8.253
 5419POPC   C3A 8513  31.431  18.284   7.953
 5419POPC   C4A 8514  31.501  18.285   7.653
 5419POPC   C1B 8515  31.284  18.385   8.553
 5419POPC   C2B 8516  31.220  18.388   8.253
 5419POPC   C3B 8517  31.215  18.401   7.953
 5419POPC   C4B 8518  31.274  18.421   7.653
 5420POPC   NC3 8519   1.973  29.883   9.453
 5420POPC   PO4 8520   1.999  29.917   9.153
 5420POPC   GL1 8521   1.978  29.970   8.853
 5420POPC   GL2 8522   2.155  29.916   8.853
 5420POPC   C1A 8523   1.973  29.940   8.553
 5420POPC   D2A 8524   2.025  29.959   8.253
 5420POPC   C3A 8525   2.003  29.886   7.953
 5420POPC   C4A 8526   1.947  29.914   7.653
 5420POPC   C1B 8527   2.246  29.813   8.553
 5420POPC   C2B 8528   2.269  29.814   8.253
 5420POPC   C3B 8529   2.188  29.850   7.953
 5420POPC   C4B 8530   2.188  29.868   7.653
 5421POPC   NC3 8531  32.230   1.956   9.453
 5421POPC   PO4 8532  32.238   2.010   9.153
 5421POPC   GL1 8533  32.271   2.008   8.853
 5421POPC   GL2 8534  32.312   1.840   8.853
 5421POPC   C1A 8535  32.238   1.968   8.553
 5421POPC   D2A 8536  32.213   1.981   8.253
 5421POPC   C3A 8537  32.262   1.945   7.953
 5421POPC   C4A 8538  32.273   2.010   7.653
 5421POPC   C1B 8539  32.315   1.775   8.553
 5421POPC   C2B 8540  32.350   1.713   8.253
 5421POPC   C3B 8541  32.273   1.765   7.953
 5421POPC   C4B 8542  32.354   1.767   7.653
 5422POPC   NC3 8543  41.529   9.002   9.453
 5422POPC   PO4 8544  41.548   8.936   9.153
 5422POPC   GL1 8545  41.602   8.999   8.853
 5422POPC   GL2 8546  41.672   8.973   8.853
 5422POPC   C1A 8547  41.548   8.943   8.553
 5422POPC   D2A 8548  41.589   9.021   8.253
 5422POPC   C3A 8549  41.575   9.001   7.953
 5422POPC   C4A 8550  41.555   9.013   7.653
 5422POPC   C1B 8551  41.786   9.044   8.553
 5422POPC   C2B 8552  41.764   9.081   8.253
 5422POPC   C3B 8553  41.785   9.048   7.953
 5422POPC   C4B 8554  41.828   9.029   7.653
 5423POPC   NC3 8555  37.691  20.600   9.453
 5423POPC   PO4 8556  37.711  20.584   9.153
 5423POPC   GL1 8557  37.698  20.603   8.853
 5423POPC   GL2 8558  37.620  20.528   8.853
 5423POPC   C1A 8559  37.671  20.638   8.553
 5423POPC   D2A 8560  37.663  20.620   8.253
 5423POPC   C3A 8561  37.721  20.581   7.953
 5423POPC   C4A 8562  37.670  20.629   7.653
 5423POPC   C1B 8563  37.476  20.478   8.553
 5423POPC   C2B 8564  37.506  20.451   8.253
 5423POPC   C3B 8565  37.490  20.424   7.953
 5423POPC   C4B 8566  37.491  20.410   7.653
 5424POPC   NC3 8567  25.272  37.661   9.453
 5424POPC   PO4 8568  25.307  37.689   9.153
 5424POPC   GL1 8569  25.267  37.724   8.853
 5424POPC   GL2 8570  25.186  37.674   8.853
 5424POPC   C1A 8571  25.231  37.700   8.553
 5424POPC   D2A 8572  25.231  37.634   8.253
 5424POPC   C3A 8573  25.305  37.707   7.953
 5424POPC   C4A 8574  25.230  37.645   7.653
 5424POPC   C1B 8575  25.013  37.701   8.553
 5424POPC   C2B 8576  25.058  37.720   8.253
 5424POPC   C3B 8577  25.033  37.670   7.953
 5424POPC   C4B 8578  25.039  37.715   7.653
 5425POPC   NC3 8579  43.902  27.548   9.453
 5425POPC   PO4 8580  43.839  27.559   9.153
 5425POPC   GL1 8581  43.911  27.587   8.853
 5425POPC   GL2 8582  43.785  27.526   8.853
 5425POPC   C1A 8583  43.846  27.590   8.553
 5425POPC   D2A 8584  43.909  27.592   8.253
 5425POPC   C3A 8585  43.915  27.577   7.953
 5425POPC   C4A 8586  43.841  27.575   7.653
 5425POPC   C1B 8587  43.728  27.438   8.553
 5425POPC   C2B 8588  43.651  27.435   8.253
 5425POPC   C3B 8589  43.733  27.393   7.953
 5425POPC   C4B 8590  43.669  27.424   7.653
 5426POPC   NC3 8591  41.524  38.495   9.453
 5426POPC   PO4 8592  41.583  38.488   9.153
 5426POPC   GL1 8593  41.524  38.497   8.853
 5426POPC   GL2 8594  41.473  38.361   8.853
 5426POPC   C1A 8595  41.606  38.416   8.553
 5426POPC   D2A 8596  41.547  38.490   8.253
 5426POPC   C3A 8597  41.518  38.457   7.953
 5426POPC   C4A 8598  41.571  38.406   7.653
 5426POPC   C1B 8599  41.506  38.223   8.553
 5426POPC   C2B 8600  41.476  38.215   8.253
 5426POPC   C3B 8601  41.463  38.232   7.953
 5426POPC   C4B 8602  41.493  38.261   7.653
 5427POPC   NC3 8603  15.911  35.376   9.453
 5427POPC   PO4 8604  15.957  35.372   9.153
 5427POPC   GL1 8605  15.923  35.380   8.853
 5427POPC   GL2 8606  16.085  35.383   8.853
 5427POPC   C1A 8607  15.974  35.327   8.553
 5427POPC   D2A 8608  15.932  35.386   8.253
 5427POPC   C3A 8609  15.971  35.374   7.953
 5427POPC   C4A 8610  15.923  35.399   7.653
 5427POPC   C1B 8611  16.190  35.459   8.553
 5427POPC   C2B 8612  16.220  35.522   8.253
 5427POPC   C3B 8613  16.211  35.499   7.953
 5427POPC   C4B 8614  16.217  35.436   7.653
 5428POPC   NC3 8615  16.780   7.452   9.453
 5428POPC   PO4 8616  16.767   7.417   9.153
 5428POPC   GL1 8617  16.728   7.397   8.853
 5428POPC   GL2 8618  16.741   7.513   8.853
 5428POPC   C1A 8619  16.721   7.459   8.553
 5428POPC   D2A 8620  16.724   7.442   8.253
 5428POPC   C3A 8621  16.728   7.407   7.953
 5428POPC   C4A 8622  16.775   7.465   7.653
 5428POPC   C1B 8623  16.718   7.677   8.553
 5428POPC   C2B 8624  16.712   7.665   8.253
 5428POPC   C3B 8625  16.750   7.678   7.953
 5428POPC   C4B 8626  16.725   7.681   7.653
 5429POPC   NC3 8627  14.418   9.736   9.453
 5429POPC   PO4 8628  14.448   9.752   9.153
 5429POPC   GL1 8629  14.362   9.713   8.853
 5429POPC   GL2 8630  14.295   9.854   8.853
 5429POPC   C1A 8631  14.407   9.761   8.553
 5429POPC   D2A 8632  14.360   9.798   8.253
 5429POPC   C3A 8633  14.360   9.793   7.953
 5429POPC   C4A 8634  14.391   9.739   7.653
 5429POPC   C1B 8635  14.217   9.924   8.553
 5429POPC   C2B 8636  14.243   9.908   8.253
 5429POPC   C3B 8637  14.294   9.988   7.953
 5429POPC   C4B 8638  14.270   9.948   7.653
 5430POPC   NC3 8639  15.157  33.802   9.453
 5430POPC   PO4 8640  15.217  33.810   9.153
 5430POPC   GL1 8641  15.162  33.782   8.853
 5430POPC   GL2 8642  15.174  33.677   8.853
 5430POPC   C1A 8643  15.189  33.834   8.553
 5430POPC   D2A 8644  15.176  33.766   8.253
 5430POPC   C3A 8645  15.213  33.839   7.953
 5430POPC   C4A 8646  15.162  33.816   7.653
 5430POPC   C1B 8647  15.241  33.556   8.553
 5430POPC   C2B 8648  15.209  33.569   8.253
 5430POPC   C3B 8649  15.257  33.552   7.953
 5430POPC   C4B 8650  15.284  33.586   7.653
 5431POPC   NC3 8651  29.909  38.502   9.453
 5431POPC   PO4 8652  29.937  38.460   9.153
 5431POPC   GL1 8653  29.897  38.489   8.853
 5431POPC   GL2 8654  30.054  38.526   8.853
 5431POPC   C1A 8655  29.936  38.435   8.553
 5431POPC   D2A 8656  29.882  38.441   8.253
 5431POPC   C3A 8657  29.876  38.492   7.953
 5431POPC   C4A 8658  29.902  38.490   7.653
 5431POPC   C1B 8659  30.125  38.546   8.553
 5431POPC   C2B 8660  30.115  38.542   8.253
 5431POPC   C3B 8661  30.121  38.588   7.953
 5431POPC   C4B 8662  30.135  38.611   7.653
 5432POPC   NC3 8663  29.188  30.654   9.453
 5432POPC   PO4 8664  29.169  30.695   9.153
 5432POPC   GL1 8665  29.120  30.708   8.853
 5432POPC   GL2 8666  29.187  30.543   8.853
 5432POPC   C1A 8667  29.151  30.648   8.553
 5432POPC   D2A 8668  29.191  30.715   8.253
 5432POPC   C3A 8669  29.168  30.720   7.953
 5432POPC   C4A 8670  29.124  30.708   7.653
 5432POPC   C1B 8671  29.245  30.490   8.553
 5432POPC   C2B 8672  29.267  30.437   8.253
 5432POPC   C3B 8673  29.224  30.463   7.953
 5432POPC   C4B 8674  29.237  30.452   7.653
 5433POPC   NC3 8675  35.401  15.203   9.453
 5433POPC   PO4 8676  35.328  15.199   9.153
 5433POPC   GL1 8677  35.319  15.179   8.853
 5433POPC   GL2 8678  35.405  15.328   8.853
 5433POPC   C1A 8679  35.328  15.220   8.553
 5433POPC   D2A 8680  35.338  15.191   8.253
 5433POPC   C3A 8681  35.389  15.170   7.953
 5433POPC   C4A 8682  35.334  15.160   7.653
 5433POPC   C1B 8683  35.330  15.438   8.553
 5433POPC   C2B 8684  35.331  15.395   8.253
 5433POPC   C3B 8685  35.415  15.436   7.953
 5433POPC   C4B 8686  35.389  15.462   7.653
 5434POPC   NC3 8687   3.552  30.734   9.453
 5434POPC   PO4 8688   3.503  30.719   9.153
 5434POPC   GL1 8689   3.549  30.674   8.853
 5434POPC   GL2 8690   3.464  30.689   8.853
 5434POPC   C1A 8691   3.564  30.686   8.553
 5434POPC   D2A 8692   3.536  30.689   8.253
 5434POPC   C3A 8693   3.534  30.650   7.953
 5434POPC   C4A 8694   3.523  30.743   7.653
 5434POPC   C1B 8695   3.274  30.634   8.553
 5434POPC   C2B 8696   3.327  30.628   8.253
 5434POPC   C3B 8697   3.271  30.697   7.953
 5434POPC   C4B 8698   3.334  30.689   7.653
 5435POPC   NC3 8699  23.716  39.187   9.453
 5435POPC   PO4 8700  23.675  39.273   9.153
 5435POPC   GL1 8701  23.664  39.181   8.853
 5435POPC   GL2 8702  23.812  39.211   8.853
 5435POPC   C1A 8703  23.676  39.241   8.553
 5435POPC   D2A 8704  23.670  39.241   8.253
 5435POPC   C3A 8705  23.692  39.248   7.953
 5435POPC   C4A 8706  23.718  39.264   7.653
 5435POPC   C1B 8707  23.952  39.239   8.553
 5435POPC   C2B 8708  24.011  39.207   8.253
 5435POPC   C3B 8709  23.957  39.158   7.953
 5435POPC   C4B 8710  23.982  39.190   7.653
 5436POPC   NC3 8711  12.891  12.866   9.453
 5436POPC   PO4 8712  12.899  12.834   9.153
 5436POPC   GL1 8713  12.869  12.819   8.853
 5436POPC   GL2 8714  12.923  12.785   8.853
 5436POPC   C1A 8715  12.810  12.853   8.553
 5436POPC   D2A 8716  12.843  12.842   8.253
 5436POPC   C3A 8717  12.890  12.900   7.953
 5436POPC   C4A 8718  12.810  12.847   7.653
 5436POPC   C1B 8719  13.079  12.715   8.553
 5436POPC   C2B 8720  13.122  12.770   8.253
 5436POPC   C3B 8721  13.070  12.710   7.953
 5436POPC   C4B 8722  13.113  12.765   7.653
 5437POPC   NC3 8723  33.792   7.386   9.453
 5437POPC   PO4 8724  33.829   7.457   9.153
 5437POPC   GL1 8725  33.813   7.435   8.853
 5437POPC   GL2 8726  33.710   7.421   8.853
 5437POPC   C1A 8727  33.775   7.459   8.553
 5437POPC   D2A 8728  33.833   7.394   8.253
 5437POPC   C3A 8729  33.835   7.380   7.953
 5437POPC   C4A 8730  33.819   7.470   7.653
 5437POPC   C1B 8731  33.570   7.551   8.553
 5437POPC   C2B 8732  33.526   7.530   8.253
 5437POPC   C3B 8733  33.517   7.522   7.953
 5437POPC   C4B 8734  33.534   7.486   7.653
 5438POPC   NC3 8735   5.857  26.069   9.453
 5438POPC   PO4 8736   5.882  26.091   9.153
 5438POPC   GL1 8737   5.917  26.016   8.853
 5438POPC   GL2 8738   5.983  26.034   8.853
 5438POPC   C1A 8739   5.828  26.027   8.553
 5438POPC   D2A 8740   5.881  26.087   8.253
 5438POPC   C3A 8741   5.903  26.010   7.953
 5438POPC   C4A 8742   5.849  26.025   7.653
 5438POPC   C1B 8743   6.145  26.094   8.553
 5438POPC   C2B 8744   6.110  26.156   8.253
 5438POPC   C3B 8745   6.122  26.172   7.953
 5438POPC   C4B 8746   6.056  26.133   7.653
 5439POPC   NC3 8747   9.716  21.350   9.453
 5439POPC   PO4 8748   9.712  21.337   9.153
 5439POPC   GL1 8749   9.781  21.383   8.853
 5439POPC   GL2 8750   9.604  21.379   8.853
 5439POPC   C1A 8751   9.700  21.372   8.553
 5439POPC   D2A 8752   9.765  21.419   8.253
 5439POPC   C3A 8753   9.760  21.339   7.953
 5439POPC   C4A 8754   9.786  21.356   7.653
 5439POPC   C1B 8755   9.488  21.356   8.553
 5439POPC   C2B 8756   9.488  21.336   8.253
 5439POPC   C3B 8757   9.496  21.294   7.953
 5439POPC   C4B 8758   9.521  21.369   7.653
 5440POPC   NC3 8759  34.558  12.115   9.453
 5440POPC   PO4 8760  34.554  12.079   9.153
 5440POPC   GL1 8761  34.574  12.105   8.853
 5440POPC   GL2 8762  34.686  12.023   8.853
 5440POPC   C1A 8763  34.597  12.047   8.553
 5440POPC   D2A 8764  34.560  12.037   8.253
 5440POPC   C3A 8765  34.550  12.047   7.953
 5440POPC   C4A 8766  34.543  12.058   7.653
 5440POPC   C1B 8767  34.802  11.884   8.553
 5440POPC   C2B 8768  34.822  11.954   8.253
 5440POPC   C3B 8769  34.824  11.887   7.953
 5440POPC   C4B 8770  34.771  11.948   7.653
 5441POPC   NC3 8771   8.966  20.619   9.453
 5441POPC   PO4 8772   9.013  20.615   9.153
 5441POPC   GL1 8773   8.934  20.631   8.853
 5441POPC   GL2 8774   9.042  20.527   8.853
 5441POPC   C1A 8775   8.966  20.580   8.553
 5441POPC   D2A 8776   9.004  20.583   8.253
 5441POPC   C3A 8777   8.984  20.586   7.953
 5441POPC   C4A 8778   8.994  20.573   7.653
 5441POPC   C1B 8779   9.075  20.358   8.553
 5441POPC   C2B 8780   9.051  20.321   8.253
 5441POPC   C3B 8781   8.992  20.406   7.953
 5441POPC   C4B 8782   9.020  20.387   7.653
 5442POPC   NC3 8783  12.047  22.128   9.453
 5442POPC   PO4 8784  12.053  22.198   9.153
 5442POPC   GL1 8785  12.082  22.208   8.853
 5442POPC   GL2 8786  12.185  22.102   8.853
 5442POPC   C1A 8787  12.083  22.173   8.553
 5442POPC   D2A 8788  12.035  22.169   8.253
 5442POPC   C3A 8789  12.074  22.209   7.953
 5442POPC   C4A 8790  12.080  22.193   7.653
 5442POPC   C1B 8791  12.212  21.971   8.553
 5442POPC   C2B 8792  12.281  22.009   8.253
 5442POPC   C3B 8793  12.221  21.986   7.953
 5442POPC   C4B 8794  12.251  21.929   7.653
 5443POPC   NC3 8795  24.513  15.150   9.453
 5443POPC   PO4 8796  24.506  15.196   9.153
 5443POPC   GL1 8797  24.471  15.146   8.853
 5443POPC   GL2 8798  24.355  15.167   8.853
 5443POPC   C1A 8799  24.507  15.152   8.553
 5443POPC   D2A 8800  24.457  15.218   8.253
 5443POPC   C3A 8801  24.500  15.182   7.953
 5443POPC   C4A 8802  24.492  15.197   7.653
 5443POPC   C1B 8803  24.221  15.057   8.553
 5443POPC   C2B 8804  24.228  15.060   8.253
 5443POPC   C3B 8805  24.251  15.111   7.953
 5443POPC   C4B 8806  24.304  15.021   7.653
 5444POPC   NC3 8807  19.067   1.220   9.453
 5444POPC   PO4 8808  19.037   1.169   9.153
 5444POPC   GL1 8809  19.081   1.255   8.853
 5444POPC   GL2 8810  19.195   1.184   8.853
 5444POPC   C1A 8811  19.067   1.176   8.553
 5444POPC   D2A 8812  19.032   1.239   8.253
 5444POPC   C3A 8813  19.062   1.192   7.953
 5444POPC   C4A 8814  19.052   1.228   7.653
 5444POPC   C1B 8815  19.346   1.188   8.553
 5444POPC   C2B 8816  19.310   1.171   8.253
 5444POPC   C3B 8817  19.267   1.189   7.953
 5444POPC   C4B 8818  19.257   1.146   7.653
 5445POPC   NC3 8819  20.616   5.867   9.453
 5445POPC   PO4 8820  20.617   5.833   9.153
 5445POPC   GL1 8821  20.657   5.834   8.853
 5445POPC   GL2 8822  20.529   5.840   8.853
 5445POPC   C1A 8823  20.578   5.872   8.553
 5445POPC   D2A 8824  20.576   5.856   8.253
 5445POPC   C3A 8825  20.610   5.842   7.953
 5445POPC   C4A 8826  20.642   5.919   7.653
 5445POPC   C1B 8827  20.345   5.817   8.553
 5445POPC   C2B 8828  20.391   5.827   8.253
 5445POPC   C3B 8829  20.371   5.874   7.953
 5445POPC   C4B 8830  20.357   5.840   7.653
 5446POPC   NC3 8831  23.737  25.264   9.453
 5446POPC   PO4 8832  23.736  25.250   9.153
 5446POPC   GL1 8833  23.729  25.300   8.853
 5446POPC   GL2 8834  23.755  25.380   8.853
 5446POPC   C1A 8835  23.758  25.216   8.553
 5446POPC   D2A 8836  23.727  25.256   8.253
 5446POPC   C3A 8837  23.700  25.224   7.953
 5446POPC   C4A 8838  23.757  25.217   7.653
 5446POPC   C1B 8839  23.874  25.397   8.553
 5446POPC   C2B 8840  23.856  25.495   8.253
 5446POPC   C3B 8841  23.845  25.432   7.953
 5446POPC   C4B 8842  23.925  25.413   7.653
 5447POPC   NC3 8843  33.767  22.177   9.453
 5447POPC   PO4 8844  33.782  22.168   9.153
 5447POPC   GL1 8845  33.800  22.190   8.853
 5447POPC   GL2 8846  33.892  22.222   8.853
 5447POPC   C1A 8847  33.843  22.136   8.553
 5447POPC   D2A 8848  33.801  22.160   8.253
 5447POPC   C3A 8849  33.826  22.206   7.953
 5447POPC   C4A 8850  33.798  22.127   7.653
 5447POPC   C1B 8851  34.070  22.250   8.553
 5447POPC   C2B 8852  34.035  22.249   8.253
 5447POPC   C3B 8853  34.013  22.260   7.953
 5447POPC   C4B 8854  34.006  22.215   7.653
 5448POPC   NC3 8855   8.208  40.773   9.453
 5448POPC   PO4 8856   8.207  40.763   9.153
 5448POPC   GL1 8857   8.161  40.756   8.853
 5448POPC   GL2 8858   8.210  40.909   8.853
 5448POPC   C1A 8859   8.172  40.798   8.553
 5448POPC   D2A 8860   8.225  40.822   8.253
 5448POPC   C3A 8861   8.223  40.782   7.953
 5448POPC   C4A 8862   8.201  40.786   7.653
 5448POPC   C1B 8863   8.144  41.043   8.553
 5448POPC   C2B 8864   8.169  41.017   8.253
 5448POPC   C3B 8865   8.196  41.023   7.953
 5448POPC   C4B 8866   8.111  41.035   7.653
 5449POPC   NC3 8867   2.040   6.656   9.453
 5449POPC   PO4 8868   2.023   6.647   9.153
 5449POPC   GL1 8869   2.036   6.614   8.853
 5449POPC   GL2 8870   2.122   6.609   8.853
 5449POPC   C1A 8871   1.954   6.597   8.553
 5449POPC   D2A 8872   1.996   6.625   8.253
 5449POPC   C3A 8873   1.975   6.687   7.953
 5449POPC   C4A 8874   1.959   6.636   7.653
 5449POPC   C1B 8875   2.284   6.582   8.553
 5449POPC   C2B 8876   2.279   6.643   8.253
 5449POPC   C3B 8877   2.258   6.587   7.953
 5449POPC   C4B 8878   2.210   6.614   7.653
 5450POPC   NC3 8879   6.690  36.128   9.453
 5450POPC   PO4 8880   6.636  36.147   9.153
 5450POPC   GL1 8881   6.634  36.093   8.853
 5450POPC   GL2 8882   6.627  36.300   8.853
 5450POPC   C1A 8883   6.681  36.169   8.553
 5450POPC   D2A 8884   6.675  36.085   8.253
 5450POPC   C3A 8885   6.643  36.099   7.953
 5450POPC   C4A 8886   6.624  36.172   7.653
 5450POPC   C1B 8887   6.668  36.353   8.553
 5450POPC   C2B 8888   6.626  36.364   8.253
 5450POPC   C3B 8889   6.707  36.358   7.953
 5450POPC   C4B 8890   6.705  36.425   7.653
 5451POPC   NC3 8891  23.695  23.723   9.453
 5451POPC   PO4 8892  23.755  23.723   9.153
 5451POPC   GL1 8893  23.717  23.762   8.853
 5451POPC   GL2 8894  23.571  23.705   8.853
 5451POPC   C1A 8895  23.706  23.730   8.553
 5451POPC   D2A 8896  23.760  23.667   8.253
 5451POPC   C3A 8897  23.667  23.692   7.953
 5451POPC   C4A 8898  23.735  23.736   7.653
 5451POPC   C1B 8899  23.503  23.722   8.553
 5451POPC   C2B 8900  23.442  23.710   8.253
 5451POPC   C3B 8901  23.475  23.710   7.953
 5451POPC   C4B 8902  23.453  23.749   7.653
 5452POPC   NC3 8903  43.920  26.861   9.453
 5452POPC   PO4 8904  43.932  26.839   9.153
 5452POPC   GL1 8905  43.930  26.834   8.853
 5452POPC   GL2 8906  43.769  26.846   8.853
 5452POPC   C1A 8907  43.894  26.853   8.553
 5452POPC   D2A 8908  43.932  26.782   8.253
 5452POPC   C3A 8909  43.873  26.777   7.953
 5452POPC   C4A 8910  43.892  26.843   7.653
 5452POPC   C1B 8911  43.644  26.979   8.553
 5452POPC   C2B 8912  43.666  26.999   8.253
 5452POPC   C3B 8913  43.687  26.960   7.953
 5452POPC   C4B 8914  43.671  26.972   7.653
 5453POPC   NC3 8915  26.089  11.256   9.453
 5453POPC   PO4 8916  26.025  11.279   9.153
 5453POPC   GL1 8917  26.047  11.275   8.853
 5453POPC   GL2 8918  25.974  11.238   8.853
 5453POPC   C1A 8919  26.007  11.323   8.553
 5453POPC   D2A 8920  26.089  11.319   8.253
 5453POPC   C3A 8921  26.005  11.305   7.953
 5453POPC   C4A 8922  26.023  11.280   7.653
 5453POPC   C1B 8923  25.905  11.076   8.553
 5453POPC   C2B 8924  25.841  11.112   8.253
 5453POPC   C3B 8925  25.843  11.110   7.953
 5453POPC   C4B 8926  25.842  11.110   7.653
 5454POPC   NC3 8927  19.855  29.953   9.453
 5454POPC   PO4 8928  19.802  29.898   9.153
 5454POPC   GL1 8929  19.801  29.906   8.853
 5454POPC   GL2 8930  19.936  30.042   8.853
 5454POPC   C1A 8931  19.825  29.910   8.553
 5454POPC   D2A 8932  19.851  29.954   8.253
 5454POPC   C3A 8933  19.790  29.948   7.953
 5454POPC   C4A 8934  19.877  29.961   7.653
 5454POPC   C1B 8935  19.921  30.129   8.553
 5454POPC   C2B 8936  19.986  30.130   8.253
 5454POPC   C3B 8937  19.993  30.103   7.953
 5454POPC   C4B 8938  20.012  30.140   7.653
 5455POPC   NC3 8939   9.736  29.175   9.453
 5455POPC   PO4 8940   9.786  29.167   9.153
 5455POPC   GL1 8941   9.714  29.150   8.853
 5455POPC   GL2 8942   9.829  29.043   8.853
 5455POPC   C1A 8943   9.700  29.148   8.553
 5455POPC   D2A 8944   9.771  29.149   8.253
 5455POPC   C3A 8945   9.752  29.153   7.953
 5455POPC   C4A 8946   9.710  29.154   7.653
 5455POPC   C1B 8947   9.914  28.911   8.553
 5455POPC   C2B 8948   9.824  28.942   8.253
 5455POPC   C3B 8949   9.896  28.937   7.953
 5455POPC   C4B 8950   9.857  28.904   7.653
 5456POPC   NC3 8951   3.515   8.182   9.453
 5456POPC   PO4 8952   3.538   8.163   9.153
 5456POPC   GL1 8953   3.567   8.237   8.853
 5456POPC   GL2 8954   3.477   8.311   8.853
 5456POPC   C1A 8955   3.574   8.158   8.553
 5456POPC   D2A 8956   3.521   8.155   8.253
 5456POPC   C3A 8957   3.500   8.207   7.953
 5456POPC   C4A 8958   3.547   8.173   7.653
 5456POPC   C1B 8959   3.457   8.441   8.553
 5456POPC   C2B 8960   3.505   8.433   8.253
 5456POPC   C3B 8961   3.513   8.449   7.953
 5456POPC   C4B 8962   3.461   8.426   7.653
 5457POPC   NC3 8963  26.026  41.566   9.453
 5457POPC   PO4 8964  26.052  41.598   9.153
 5457POPC   GL1 8965  26.030  41.555   8.853
 5457POPC   GL2 8966  26.200  41.517   8.853
 5457POPC   C1A 8967  26.022  41.585   8.553
 5457POPC   D2A 8968  26.039  41.545   8.253
 5457POPC   C3A 8969  26.045  41.606   7.953
 5457POPC   C4A 8970  26.016  41.510   7.653
 5457POPC   C1B 8971  26.301  41.503   8.553
 5457POPC   C2B 8972  26.323  41.490   8.253
 5457POPC   C3B 8973  26.319  41.481   7.953
 5457POPC   C4B 8974  26.284  41.506   7.653
 5458POPC   NC3 8975   1.958  10.541   9.453
 5458POPC   PO4 8976   2.034  10.493   9.153
 5458POPC   GL1 8977   1.952  10.544   8.853
 5458POPC   GL2 8978   1.905  10.564   8.853
 5458POPC   C1A 8979   1.970  10.511   8.553
 5458POPC   D2A 8980   2.032  10.478   8.253
 5458POPC   C3A 8981   1.987  10.554   7.953
 5458POPC   C4A 8982   2.017  10.475   7.653
 5458POPC   C1B 8983   1.779  10.629   8.553
 5458POPC   C2B 8984   1.787  10.601   8.253
 5458POPC   C3B 8985   1.725  10.537   7.953
 5458POPC   C4B 8986   1.792  10.531   7.653
 5459POPC   NC3 8987  42.343  39.207   9.453
 5459POPC   PO4 8988  42.367  39.232   9.153
 5459POPC   GL1 8989  42.318  39.267   8.853
 5459POPC   GL2 8990  42.226  39.338   8.853
 5459POPC   C1A 8991  42.298  39.217   8.553
 5459POPC   D2A 8992  42.360  39.223   8.253
 5459POPC   C3A 8993  42.340  39.236   7.953
 5459POPC   C4A 8994  42.377  39.218   7.653
 5459POPC   C1B 8995  42.119  39.324   8.553
 5459POPC   C2B 8996  42.085  39.353   8.253
 5459POPC   C3B 8997  42.152  39.316   7.953
 5459POPC   C4B 8998  42.099  39.372   7.653
 5460POPC   NC3 8999  43.149  14.420   9.453
 5460POPC   PO4 9000  43.094  14.435   9.153
 5460POPC   GL1 9001  43.123  14.382   8.853
 5460POPC   GL2 9002  43.027  14.302   8.853
 5460POPC   C1A 9003  43.089  14.382   8.553
 5460POPC   D2A 9004  43.149  14.399   8.253
 5460POPC   C3A 9005  43.123  14.432   7.953
 5460POPC   C4A 9006  43.101  14.355   7.653
 5460POPC   C1B 9007  42.869  14.268   8.553
 5460POPC   C2B 9008  42.842  14.294   8.253
 5460POPC   C3B 9009  42.909  14.276   7.953
 5460POPC   C4B 9010  42.918  14.242   7.653
 5461POPC   NC3 9011   3.509  12.046   9.453
 5461POPC   PO4 9012   3.589  12.098   9.153
 5461POPC   GL1 9013   3.500  12.107   8.853
 5461POPC   GL2 9014   3.397  12.054   8.853
 5461POPC   C1A 9015   3.544  12.048   8.553
 5461POPC   D2A 9016   3.530  12.113   8.253
 5461POPC   C3A 9017   3.583  12.092   7.953
 5461POPC   C4A 9018   3.517  12.054   7.653
 5461POPC   C1B 9019   3.326  11.949   8.553
 5461POPC   C2B 9020   3.357  11.970   8.253
 5461POPC   C3B 9021   3.345  11.953   7.953
 5461POPC   C4B 9022   3.354  12.005   7.653
 5462POPC   NC3 9023  43.839  29.905   9.453
 5462POPC   PO4 9024  43.843  29.882   9.153
 5462POPC   GL1 9025  43.891  29.965   8.853
 5462POPC   GL2 9026  43.865  29.780   8.853
 5462POPC   C1A 9027  43.837  29.901   8.553
 5462POPC   D2A 9028  43.894  29.949   8.253
 5462POPC   C3A 9029  43.856  29.917   7.953
 5462POPC   C4A 9030  43.863  29.892   7.653
 5462POPC   C1B 9031  43.922  29.667   8.553
 5462POPC   C2B 9032  43.862  29.639   8.253
 5462POPC   C3B 9033  43.909  29.696   7.953
 5462POPC   C4B 9034  43.902  29.696   7.653
 5463POPC   NC3 9035   2.808  40.022   9.453
 5463POPC   PO4 9036   2.807  40.054   9.153
 5463POPC   GL1 9037   2.792  40.051   8.853
 5463POPC   GL2 9038   2.618  39.957   8.853
 5463POPC   C1A 9039   2.743  40.022   8.553
 5463POPC   D2A 9040   2.720  39.987   8.253
 5463POPC   C3A 9041   2.718  39.998   7.953
 5463POPC   C4A 9042   2.800  39.969   7.653
 5463POPC   C1B 9043   2.541  39.877   8.553
 5463POPC   C2B 9044   2.545  39.853   8.253
 5463POPC   C3B 9045   2.517  39.879   7.953
 5463POPC   C4B 9046   2.539  39.893   7.653
 5464POPC   NC3 9047   6.690  33.759   9.453
 5464POPC   PO4 9048   6.669  33.828   9.153
 5464POPC   GL1 9049   6.679  33.781   8.853
 5464POPC   GL2 9050   6.520  33.887   8.853
 5464POPC   C1A 9051   6.686  33.816   8.553
 5464POPC   D2A 9052   6.606  33.758   8.253
 5464POPC   C3A 9053   6.605  33.759   7.953
 5464POPC   C4A 9054   6.669  33.816   7.653
 5464POPC   C1B 9055   6.461  33.934   8.553
 5464POPC   C2B 9056   6.454  33.953   8.253
 5464POPC   C3B 9057   6.439  33.879   7.953
 5464POPC   C4B 9058   6.375  33.894   7.653
 5465POPC   NC3 9059  35.334  43.899   9.453
 5465POPC   PO4 9060  35.371  43.926   9.153
 5465POPC   GL1 9061  35.397  43.886   8.853
 5465POPC   GL2 9062  35.378  43.720   8.853
 5465POPC   C1A 9063  35.332  43.928   8.553
 5465POPC   D2A 9064  35.391  43.844   8.253
 5465POPC   C3A 9065  35.369  43.865   7.953
 5465POPC   C4A 9066  35.347  43.882   7.653
 5465POPC   C1B 9067  35.323  43.681   8.553
 5465POPC   C2B 9068  35.341  43.627   8.253
 5465POPC   C3B 9069  35.295  43.597   7.953
 5465POPC   C4B 9070  35.283  43.616   7.653
 5466POPC   NC3 9071   5.879  22.207   9.453
 5466POPC   PO4 9072   5.845  22.121   9.153
 5466POPC   GL1 9073   5.853  22.154   8.853
 5466POPC   GL2 9074   5.915  22.244   8.853
 5466POPC   C1A 9075   5.895  22.115   8.553
 5466POPC   D2A 9076   5.879  22.148   8.253
 5466POPC   C3A 9077   5.853  22.211   7.953
 5466POPC   C4A 9078   5.902  22.177   7.653
 5466POPC   C1B 9079   5.927  22.436   8.553
 5466POPC   C2B 9080   5.929  22.426   8.253
 5466POPC   C3B 9081   5.901  22.434   7.953
 5466POPC   C4B 9082   5.951  22.434   7.653
 5467POPC   NC3 9083  30.686  20.647   9.453
 5467POPC   PO4 9084  30.681  20.656   9.153
 5467POPC   GL1 9085  30.731  20.577   8.853
 5467POPC   GL2 9086  30.826  20.611   8.853
 5467POPC   C1A 9087  30.682  20.641   8.553
 5467POPC   D2A 9088  30.720  20.655   8.253
 5467POPC   C3A 9089  30.658  20.643   7.953
 5467POPC   C4A 9090  30.735  20.656   7.653
 5467POPC   C1B 9091  30.986  20.577   8.553
 5467POPC   C2B 9092  30.974  20.581   8.253
 5467POPC   C3B 9093  30.967  20.594   7.953
 5467POPC   C4B 9094  30.910  20.584   7.653
 5468POPC   NC3 9095  44.638  41.536   9.453
 5468POPC   PO4 9096  44.694  41.573   9.153
 5468POPC   GL1 9097  44.708  41.599   8.853
 5468POPC   GL2 9098  44.567  41.644   8.853
 5468POPC   C1A 9099  44.638  41.550   8.553
 5468POPC   D2A 9100  44.704  41.592   8.253
 5468POPC   C3A 9101  44.680  41.549   7.953
 5468POPC   C4A 9102  44.686  41.537   7.653
 5468POPC   C1B 9103  44.583  41.813   8.553
 5468POPC   C2B 9104  44.582  41.783   8.253
 5468POPC   C3B 9105  44.620  41.829   7.953
 5468POPC   C4B 9106  44.595  41.812   7.653
 5469POPC   NC3 9107  39.264  14.354   9.453
 5469POPC   PO4 9108  39.215  14.358   9.153
 5469POPC   GL1 9109  39.280  14.449   8.853
 5469POPC   GL2 9110  39.273  14.493   8.853
 5469POPC   C1A 9111  39.266  14.410   8.553
 5469POPC   D2A 9112  39.237  14.451   8.253
 5469POPC   C3A 9113  39.234  14.433   7.953
 5469POPC   C4A 9114  39.252  14.389   7.653
 5469POPC   C1B 9115  39.435  14.596   8.553
 5469POPC   C2B 9116  39.425  14.566   8.253
 5469POPC   C3B 9117  39.358  14.568   7.953
 5469POPC   C4B 9118  39.425  14.547   7.653
 5470POPC   NC3 9119   2.746  29.134   9.453
 5470POPC   PO4 9120   2.759  29.116   9.153
 5470POPC   GL1 9121   2.764  29.158   8.853
 5470POPC   GL2 9122   2.626  29.037   8.853
 5470POPC   C1A 9123   2.751  29.164   8.553
 5470POPC   D2A 9124   2.744  29.169   8.253
 5470POPC   C3A 9125   2.746  29.172   7.953
 5470POPC   C4A 9126   2.748  29.138   7.653
 5470POPC   C1B 9127   2.580  29.040   8.553
 5470POPC   C2B 9128   2.564  29.021   8.253
 5470POPC   C3B 9129   2.574  28.973   7.953
 5470POPC   C4B 9130   2.546  29.000   7.653
 5471POPC   NC3 9131  38.443  21.383   9.453
 5471POPC   PO4 9132  38.497  21.352   9.153
 5471POPC   GL1 9133  38.460  21.435   8.853
 5471POPC   GL2 9134  38.553  21.397   8.853
 5471POPC   C1A 9135  38.486  21.380   8.553
 5471POPC   D2A 9136  38.413  21.340   8.253
 5471POPC   C3A 9137  38.469  21.404   7.953
 5471POPC   C4A 9138  38.487  21.432   7.653
 5471POPC   C1B 9139  38.726  21.307   8.553
 5471POPC   C2B 9140  38.742  21.363   8.253
 5471POPC   C3B 9141  38.659  21.334   7.953
 5471POPC   C4B 9142  38.702  21.333   7.653
 5472POPC   NC3 9143   1.251   3.525   9.453
 5472POPC   PO4 9144   1.172   3.583   9.153
 5472POPC   GL1 9145   1.201   3.505   8.853
 5472POPC   GL2 9146   1.157   3.638   8.853
 5472POPC   C1A 9147   1.245   3.499   8.553
 5472POPC   D2A 9148   1.213   3.515   8.253
 5472POPC   C3A 9149   1.259   3.508   7.953
 5472POPC   C4A 9150   1.240   3.538   7.653
 5472POPC   C1B 9151   1.118   3.773   8.553
 5472POPC   C2B 9152   1.106   3.752   8.253
 5472POPC   C3B 9153   1.098   3.822   7.953
 5472POPC   C4B 9154   1.129   3.736   7.653
 5473POPC   NC3 9155  17.471  34.578   9.453
 5473POPC   PO4 9156  17.524  34.531   9.153
 5473POPC   GL1 9157  17.479  34.537   8.853
 5473POPC   GL2 9158  17.606  34.579   8.853
 5473POPC   C1A 9159  17.513  34.622   8.553
 5473POPC   D2A 9160  17.556  34.553   8.253
 5473POPC   C3A 9161  17.480  34.581   7.953
 5473POPC   C4A 9162  17.534  34.570   7.653
 5473POPC   C1B 9163  17.753  34.684   8.553
 5473POPC   C2B 9164  17.734  34.682   8.253
 5473POPC   C3B 9165  17.707  34.722   7.953
 5473POPC   C4B 9166  17.702  34.715   7.653
 5474POPC   NC3 9167   5.844  42.305   9.453
 5474POPC   PO4 9168   5.850  42.358   9.153
 5474POPC   GL1 9169   5.916  42.381   8.853
 5474POPC   GL2 9170   5.830  42.257   8.853
 5474POPC   C1A 9171   5.859  42.291   8.553
 5474POPC   D2A 9172   5.892  42.344   8.253
 5474POPC   C3A 9173   5.902  42.353   7.953
 5474POPC   C4A 9174   5.850  42.362   7.653
 5474POPC   C1B 9175   5.883  42.046   8.553
 5474POPC   C2B 9176   5.917  42.061   8.253
 5474POPC   C3B 9177   5.867  42.131   7.953
 5474POPC   C4B 9178   5.872  42.104   7.653
 5475POPC   NC3 9179  44.694  43.872   9.453
 5475POPC   PO4 9180  44.694  43.904   9.153
 5475POPC   GL1 9181  44.616  43.862   8.853
 5475POPC   GL2 9182  44.790  43.996   8.853
 5475POPC   C1A 9183  44.630  43.873   8.553
 5475POPC   D2A 9184  44.705  43.884   8.253
 5475POPC   C3A 9185  44.645  43.902   7.953
 5475POPC   C4A 9186  44.631  43.889   7.653
 5475POPC   C1B 9187  44.893  44.081   8.553
 5475POPC   C2B 9188  44.815  44.049   8.253
 5475POPC   C3B 9189  44.870  44.077   7.953
 5475POPC   C4B 9190  44.881  44.018   7.653
 5476POPC   NC3 9191  19.058  31.485   9.453
 5476POPC   PO4 9192  19.019  31.431   9.153
 5476POPC   GL1 9193  19.029  31.505   8.853
 5476POPC   GL2 9194  19.126  31.563   8.853
 5476POPC   C1A 9195  19.017  31.470   8.553
 5476POPC   D2A 9196  19.030  31.457   8.253
 5476POPC   C3A 9197  19.073  31.478   7.953
 5476POPC   C4A 9198  19.106  31.426   7.653
 5476POPC   C1B 9199  19.131  31.701   8.553
 5476POPC   C2B 9200  19.131  31.725   8.253
 5476POPC   C3B 9201  19.141  31.703   7.953
 5476POPC   C4B 9202  19.210  31.709   7.653
 5477POPC   NC3 9203   8.182   6.606   9.453
 5477POPC   PO4 9204   8.189   6.653   9.153
 5477POPC   GL1 9205   8.177   6.692   8.853
 5477POPC   GL2 9206   8.157   6.780   8.853
 5477POPC   C1A 9207   8.167   6.670   8.553
 5477POPC   D2A 9208   8.169   6.657   8.253
 5477POPC   C3A 9209   8.185   6.690   7.953
 5477POPC   C4A 9210   8.206   6.645   7.653
 5477POPC   C1B 9211   8.005   6.804   8.553
 5477POPC   C2B 9212   8.065   6.839   8.253
 5477POPC   C3B 9213   7.996   6.846   7.953
 5477POPC   C4B 9214   8.027   6.785   7.653
 5478POPC   NC3 9215  36.904  10.565   9.453
 5478POPC   PO4 9216  36.901  10.555   9.153
 5478POPC   GL1 9217  36.881  10.475   8.853
 5478POPC   GL2 9218  36.892  10.617   8.853
 5478POPC   C1A 9219  36.916  10.572   8.553
 5478POPC   D2A 9220  36.927  10.522   8.253
 5478POPC   C3A 9221  36.914  10.541   7.953
 5478POPC   C4A 9222  36.926  10.544   7.653
 5478POPC   C1B 9223  36.913  10.732   8.553
 5478POPC   C2B 9224  36.920  10.815   8.253
 5478POPC   C3B 9225  36.898  10.796   7.953
 5478POPC   C4B 9226  36.923  10.750   7.653
 5479POPC   NC3 9227  29.095  11.297   9.453
 5479POPC   PO4 9228  29.119  11.263   9.153
 5479POPC   GL1 9229  29.106  11.279   8.853
 5479POPC   GL2 9230  29.175  11.365   8.853
 5479POPC   C1A 9231  29.131  11.348   8.553
 5479POPC   D2A 9232  29.156  11.258   8.253
 5479POPC   C3A 9233  29.182  11.341   7.953
 5479POPC   C4A 9234  29.154  11.317   7.653
 5479POPC   C1B 9235  29.261  11.541   8.553
 5479POPC   C2B 9236  29.269  11.527   8.253
 5479POPC   C3B 9237  29.268  11.498   7.953
 5479POPC   C4B 9238  29.295  11.496   7.653
 5480POPC   NC3 9239  24.458   0.423   9.453
 5480POPC   PO4 9240  24.469   0.487   9.153
 5480POPC   GL1 9241  24.504   0.452   8.853
 5480POPC   GL2 9242  24.511   0.579   8.853
 5480POPC   C1A 9243  24.503   0.485   8.553
 5480POPC   D2A 9244  24.459   0.479   8.253
 5480POPC   C3A 9245  24.458   0.420   7.953
 5480POPC   C4A 9246  24.522   0.478   7.653
 5480POPC   C1B 9247  24.590   0.693   8.553
 5480POPC   C2B 9248  24.629   0.619   8.253
 5480POPC   C3B 9249  24.640   0.683   7.953
 5480POPC   C4B 9250  24.626   0.651   7.653
 5481POPC   NC3 9251  14.411   0.447   9.453
 5481POPC   PO4 9252  14.443   0.443   9.153
 5481POPC   GL1 9253  14.430   0.440   8.853
 5481POPC   GL2 9254  14.550   0.491   8.853
 5481POPC   C1A 9255  14.364   0.408   8.553
 5481POPC   D2A 9256  14.405   0.416   8.253
 5481POPC   C3A 9257  14.364   0.404   7.953
 5481POPC   C4A 9258  14.428   0.429   7.653
 5481POPC   C1B 9259  14.679   0.509   8.553
 5481POPC   C2B 9260  14.660   0.496   8.253
 5481POPC   C3B 9261  14.649   0.510   7.953
 5481POPC   C4B 9262  14.633   0.435   7.653
 5482POPC   NC3 9263   4.299   4.315   9.453
 5482POPC   PO4 9264   4.322   4.358   9.153
 5482POPC   GL1 9265   4.341   4.292   8.853
 5482POPC   GL2 9266   4.237   4.353   8.853
 5482POPC   C1A 9267   4.294   4.340   8.553
 5482POPC   D2A 9268   4.344   4.331   8.253
 5482POPC   C3A 9269   4.314   4.329   7.953
 5482POPC   C4A 9270   4.367   4.300   7.653
 5482POPC   C1B 9271   4.110   4.390   8.553
 5482POPC   C2B 9272   4.066   4.378   8.253
 5482POPC   C3B 9273   4.095   4.389   7.953
 5482POPC   C4B 9274   4.125   4.471   7.653
 5483POPC   NC3 9275  14.399  42.310   9.453
 5483POPC   PO4 9276  14.419  42.340   9.153
 5483POPC   GL1 9277  14.398  42.346   8.853
 5483POPC   GL2 9278  14.542  42.335   8.853
 5483POPC   C1A 9279  14.410  42.345   8.553
 5483POPC   D2A 9280  14.384  42.295   8.253
 5483POPC   C3A 9281  14.432  42.341   7.953
 5483POPC   C4A 9282  14.437  42.345   7.653
 5483POPC   C1B 9283  14.654  42.288   8.553
 5483POPC   C2B 9284  14.660  42.285   8.253
 5483POPC   C3B 9285  14.616  42.271   7.953
 5483POPC   C4B 9286  14.605  42.253   7.653
 5484POPC   NC3 9287  18.313  22.975   9.453
 5484POPC   PO4 9288  18.245  22.895   9.153
 5484POPC   GL1 9289  18.259  22.985   8.853
 5484POPC   GL2 9290  18.272  22.789   8.853
 5484POPC   C1A 9291  18.252  22.892   8.553
 5484POPC   D2A 9292  18.318  22.934   8.253
 5484POPC   C3A 9293  18.330  22.969   7.953
 5484POPC   C4A 9294  18.254  22.898   7.653
 5484POPC   C1B 9295  18.274  22.718   8.553
 5484POPC   C2B 9296  18.285  22.677   8.253
 5484POPC   C3B 9297  18.245  22.659   7.953
 5484POPC   C4B 9298  18.278  22.686   7.653
 5485POPC   NC3 9299  29.930  32.981   9.453
 5485POPC   PO4 9300  29.878  33.039   9.153
 5485POPC   GL1 9301  29.945  33.052   8.853
 5485POPC   GL2 9302  30.075  32.961   8.853
 5485POPC   C1A 9303  29.934  33.064   8.553
 5485POPC   D2A 9304  29.928  33.019   8.253
 5485POPC   C3A 9305  29.905  33.055   7.953
 5485POPC   C4A 9306  29.906  33.001   7.653
 5485POPC   C1B 9307  30.163  32.895   8.553
 5485POPC   C2B 9308  30.201  32.967   8.253
 5485POPC   C3B 9309  30.129  32.980   7.953
 5485POPC   C4B 9310  30.109  32.896   7.653
 5486POPC   NC3 9311  14.447  36.856   9.453
 5486POPC   PO4 9312  14.447  36.941   9.153
 5486POPC   GL1 9313  14.419  36.949   8.853
 5486POPC   GL2 9314  14.535  36.876   8.853
 5486POPC   C1A 9315  14.415  36.855   8.553
 5486POPC   D2A 9316  14.451  36.930   8.253
 5486POPC   C3A 9317  14.372  36.873   7.953
 5486POPC   C4A 9318  14.410  36.898   7.653
 5486POPC   C1B 9319  14.644  36.899   8.553
 5486POPC   C2B 9320  14.604  36.977   8.253
 5486POPC   C3B 9321  14.613  36.924   7.953
 5486POPC   C4B 9322  14.690  36.909   7.653
 5487POPC   NC3 9323  12.104  37.667   9.453
 5487POPC   PO4 9324  12.116  37.654   9.153
 5487POPC   GL1 9325  12.071  37.696   8.853
 5487POPC   GL2 9326  12.185  37.681   8.853
 5487POPC   C1A 9327  12.063  37.705   8.553
 5487POPC   D2A 9328  12.114  37.728   8.253
 5487POPC   C3A 9329  12.083  37.695   7.953
 5487POPC   C4A 9330  12.100  37.648   7.653
 5487POPC   C1B 9331  12.301  37.782   8.553
 5487POPC   C2B 9332  12.352  37.783   8.253
 5487POPC   C3B 9333  12.286  37.711   7.953
 5487POPC   C4B 9334  12.353  37.801   7.653
 5488POPC   NC3 9335   6.653  28.353   9.453
 5488POPC   PO4 9336   6.679  28.322   9.153
 5488POPC   GL1 9337   6.608  28.326   8.853
 5488POPC   GL2 9338   6.567  28.447   8.853
 5488POPC   C1A 9339   6.610  28.364   8.553
 5488POPC   D2A 9340   6.669  28.325   8.253
 5488POPC   C3A 9341   6.693  28.320   7.953
 5488POPC   C4A 9342   6.649  28.369   7.653
 5488POPC   C1B 9343   6.466  28.517   8.553
 5488POPC   C2B 9344   6.386  28.468   8.253
 5488POPC   C3B 9345   6.425  28.551   7.953
 5488POPC   C4B 9346   6.481  28.492   7.653
 5489POPC   NC3 9347  19.046  11.308   9.453
 5489POPC   PO4 9348  19.065  11.305   9.153
 5489POPC   GL1 9349  19.077  11.299   8.853
 5489POPC   GL2 9350  18.972  11.206   8.853
 5489POPC   C1A 9351  19.013  11.292   8.553
 5489POPC   D2A 9352  19.101  11.318   8.253
 5489POPC   C3A 9353  19.050  11.276   7.953
 5489POPC   C4A 9354  19.053  11.281   7.653
 5489POPC   C1B 9355  18.855  11.173   8.553
 5489POPC   C2B 9356  18.874  11.171   8.253
 5489POPC   C3B 9357  18.843  11.108   7.953
 5489POPC   C4B 9358  18.877  11.181   7.653
 5490POPC   NC3 9359  13.633  16.755   9.453
 5490POPC   PO4 9360  13.647  16.735   9.153
 5490POPC   GL1 9361  13.628  16.715   8.853
 5490POPC   GL2 9362  13.761  16.736   8.853
 5490POPC   C1A 9363  13.610  16.734   8.553
 5490POPC   D2A 9364  13.646  16.708   8.253
 5490POPC   C3A 9365  13.597  16.744   7.953
 5490POPC   C4A 9366  13.594  16.758   7.653
 5490POPC   C1B 9367  13.845  16.701   8.553
 5490POPC   C2B 9368  13.898  16.710   8.253
 5490POPC   C3B 9369  13.879  16.631   7.953
 5490POPC   C4B 9370  13.828  16.637   7.653
 5491POPC   NC3 9371   5.137  43.103   9.453
 5491POPC   PO4 9372   5.044  43.065   9.153
 5491POPC   GL1 9373   5.086  43.113   8.853
 5491POPC   GL2 9374   4.935  43.049   8.853
 5491POPC   C1A 9375   5.088  43.124   8.553
 5491POPC   D2A 9376   5.102  43.080   8.253
 5491POPC   C3A 9377   5.099  43.159   7.953
 5491POPC   C4A 9378   5.096  43.109   7.653
 5491POPC   C1B 9379   4.890  43.101   8.553
 5491POPC   C2B 9380   4.896  43.037   8.253
 5491POPC   C3B 9381   4.839  43.102   7.953
 5491POPC   C4B 9382   4.840  43.030   7.653
 5492POPC   NC3 9383  21.360   2.757   9.453
 5492POPC   PO4 9384  21.414   2.796   9.153
 5492POPC   GL1 9385  21.391   2.811   8.853
 5492POPC   GL2 9386  21.334   2.858   8.853
 5492POPC   C1A 9387  21.362   2.796   8.553
 5492POPC   D2A 9388  21.435   2.794   8.253
 5492POPC   C3A 9389  21.421   2.773   7.953
 5492POPC   C4A 9390  21.419   2.720   7.653
 5492POPC   C1B 9391  21.230   2.998   8.553
 5492POPC   C2B 9392  21.267   2.936   8.253
 5492POPC   C3B 9393  21.283   2.968   7.953
 5492POPC   C4B 9394  21.293   2.997   7.653
 5493POPC   NC3 9395  29.924  13.628   9.453
 5493POPC   PO4 9396  29.930  13.629   9.153
 5493POPC   GL1 9397  29.949  13.580   8.853
 5493POPC   GL2 9398  30.002  13.573   8.853
 5493POPC   C1A 9399  29.898  13.674   8.553
 5493POPC   D2A 9400  29.927  13.669   8.253
 5493POPC   C3A 9401  29.960  13.624   7.953
 5493POPC   C4A 9402  29.898  13.658   7.653
 5493POPC   C1B 9403  30.152  13.503   8.553
 5493POPC   C2B 9404  30.139  13.504   8.253
 5493POPC   C3B 9405  30.152  13.511   7.953
 5493POPC   C4B 9406  30.138  13.501   7.653
 5494POPC   NC3 9407  29.898  36.146   9.453
 5494POPC   PO4 9408  29.876  36.115   9.153
 5494POPC   GL1 9409  29.875  36.143   8.853
 5494POPC   GL2 9410  29.802  36.040   8.853
 5494POPC   C1A 9411  29.958  36.149   8.553
 5494POPC   D2A 9412  29.883  36.087   8.253
 5494POPC   C3A 9413  29.902  36.109   7.953
 5494POPC   C4A 9414  29.877  36.150   7.653
 5494POPC   C1B 9415  29.658  36.048   8.553
 5494POPC   C2B 9416  29.656  36.009   8.253
 5494POPC   C3B 9417  29.715  36.025   7.953
 5494POPC   C4B 9418  29.709  36.022   7.653
 5495POPC   NC3 9419  10.482  12.808   9.453
 5495POPC   PO4 9420  10.571  12.827   9.153
 5495POPC   GL1 9421  10.483  12.872   8.853
 5495POPC   GL2 9422  10.478  12.963   8.853
 5495POPC   C1A 9423  10.476  12.884   8.553
 5495POPC   D2A 9424  10.510  12.873   8.253
 5495POPC   C3A 9425  10.558  12.840   7.953
 5495POPC   C4A 9426  10.537  12.812   7.653
 5495POPC   C1B 9427  10.460  13.122   8.553
 5495POPC   C2B 9428  10.502  13.100   8.253
 5495POPC   C3B 9429  10.463  13.120   7.953
 5495POPC   C4B 9430  10.498  13.050   7.653
 5496POPC   NC3 9431  22.897  11.253   9.453
 5496POPC   PO4 9432  22.888  11.317   9.153
 5496POPC   GL1 9433  22.903  11.261   8.853
 5496POPC   GL2 9434  22.909  11.407   8.853
 5496POPC   C1A 9435  22.939  11.349   8.553
 5496POPC   D2A 9436  22.981  11.292   8.253
 5496POPC   C3A 9437  22.943  11.336   7.953
 5496POPC   C4A 9438  22.947  11.265   7.653
 5496POPC   C1B 9439  22.917  11.495   8.553
 5496POPC   C2B 9440  22.849  11.550   8.253
 5496POPC   C3B 9441  22.892  11.570   7.953
 5496POPC   C4B 9442  22.920  11.546   7.653
 5497POPC   NC3 9443  20.660   3.533   9.453
 5497POPC   PO4 9444  20.584   3.518   9.153
 5497POPC   GL1 9445  20.563   3.575   8.853
 5497POPC   GL2 9446  20.709   3.589   8.853
 5497POPC   C1A 9447  20.630   3.554   8.553
 5497POPC   D2A 9448  20.561   3.502   8.253
 5497POPC   C3A 9449  20.568   3.555   7.953
 5497POPC   C4A 9450  20.624   3.591   7.653
 5497POPC   C1B 9451  20.767   3.755   8.553
 5497POPC   C2B 9452  20.750   3.768   8.253
 5497POPC   C3B 9453  20.782   3.759   7.953
 5497POPC   C4B 9454  20.724   3.747   7.653
 5498POPC   NC3 9455  23.748  44.630   9.453
 5498POPC   PO4 9456  23.667  44.633   9.153
 5498POPC   GL1 9457  23.717  44.639   8.853
 5498POPC   GL2 9458  23.604  44.581   8.853
 5498POPC   C1A 9459  23.730  44.706   8.553
 5498POPC   D2A 9460  23.737  44.654   8.253
 5498POPC   C3A 9461  23.751  44.655   7.953
 5498POPC   C4A 9462  23.749  44.631   7.653
 5498POPC   C1B 9463  23.541  44.500   8.553
 5498POPC   C2B 9464  23.533  44.581   8.253
 5498POPC   C3B 9465  23.460  44.544   7.953
 5498POPC   C4B 9466  23.517  44.562   7.653
 5499POPC   NC3 9467  44.676  18.329   9.453
 5499POPC   PO4 9468  44.617  18.328   9.153
 5499POPC   GL1 9469  44.693  18.318   8.853
 5499POPC   GL2 9470  44.543  18.248   8.853
 5499POPC   C1A 9471  44.694  18.306   8.553
 5499POPC   D2A 9472  44.706  18.238   8.253
 5499POPC   C3A 9473  44.698  18.292   7.953
 5499POPC   C4A 9474  44.701  18.264   7.653
 5499POPC   C1B 9475  44.430  18.235   8.553
 5499POPC   C2B 9476  44.414  18.259   8.253
 5499POPC   C3B 9477  44.445  18.234   7.953
 5499POPC   C4B 9478  44.384  18.228   7.653
 5500POPC   NC3 9479  40.023   8.993   9.453
 5500POPC   PO4 9480  40.009   9.006   9.153
 5500POPC   GL1 9481  39.964   9.013   8.853
 5500POPC   GL2 9482  39.864   8.951   8.853
 5500POPC   C1A 9483  40.032   8.980   8.553
 5500POPC   D2A 9484  39.993   8.972   8.253
 5500POPC   C3A 9485  39.998   8.937   7.953
 5500POPC   C4A 9486  39.967   8.961   7.653
 5500POPC   C1B 9487  39.752   8.806   8.553
 5500POPC   C2B 9488  39.815   8.857   8.253
 5500POPC   C3B 9489  39.770   8.812   7.953
 5500POPC   C4B 9490  39.846   8.823   7.653
 5501POPC   NC3 9491  29.182  29.965   9.453
 5501POPC   PO4 9492  29.189  29.959   9.153
 5501POPC   GL1 9493  29.157  29.966   8.853
 5501POPC   GL2 9494  29.181  30.019   8.853
 5501POPC   C1A 9495  29.149  29.934   8.553
 5501POPC   D2A 9496  29.161  29.915   8.253
 5501POPC   C3A 9497  29.098  29.904   7.953
 5501POPC   C4A 9498  29.106  29.912   7.653
 5501POPC   C1B 9499  29.283  30.122   8.553
 5501POPC   C2B 9500  29.296  30.146   8.253
 5501POPC   C3B 9501  29.288  30.155   7.953
 5501POPC   C4B 9502  29.221  30.184   7.653
 5502POPC   NC3 9503   0.488  13.623   9.453
 5502POPC   PO4 9504   0.414  13.667   9.153
 5502POPC   GL1 9505   0.465  13.601   8.853
 5502POPC   GL2 9506   0.333  13.578   8.853
 5502POPC   C1A 9507   0.450  13.649   8.553
 5502POPC   D2A 9508   0.469  13.634   8.253
 5502POPC   C3A 9509   0.476  13.666   7.953
 5502POPC   C4A 9510   0.420  13.649   7.653
 5502POPC   C1B 9511   0.165  13.605   8.553
 5502POPC   C2B 9512   0.202  13.580   8.253
 5502POPC   C3B 9513   0.221  13.595   7.953
 5502POPC   C4B 9514   0.231  13.621   7.653
 5503POPC   NC3 9515  33.797  43.840   9.453
 5503POPC   PO4 9516  33.794  43.875   9.153
 5503POPC   GL1 9517  33.772  43.854   8.853
 5503POPC   GL2 9518  33.947  43.850   8.853
 5503POPC   C1A 9519  33.784  43.899   8.553
 5503POPC   D2A 9520  33.842  43.897   8.253
 5503POPC   C3A 9521  33.750  43.848   7.953
 5503POPC   C4A 9522  33.839  43.916   7.653
 5503POPC   C1B 9523  34.034  43.814   8.553
 5503POPC   C2B 9524  34.009  43.815   8.253
 5503POPC   C3B 9525  34.024  43.767   7.953
 5503POPC   C4B 9526  34.034  43.769   7.653
 5504POPC   NC3 9527  26.859  16.718   9.453
 5504POPC   PO4 9528  26.828  16.689   9.153
 5504POPC   GL1 9529  26.810  16.685   8.853
 5504POPC   GL2 9530  26.909  16.721   8.853
 5504POPC   C1A 9531  26.854  16.707   8.553
 5504POPC   D2A 9532  26.846  16.772   8.253
 5504POPC   C3A 9533  26.857  16.761   7.953
 5504POPC   C4A 9534  26.806  16.692   7.653
 5504POPC   C1B 9535  27.041  16.590   8.553
 5504POPC   C2B 9536  27.029  16.613   8.253
 5504POPC   C3B 9537  27.025  16.678   7.953
 5504POPC   C4B 9538  27.005  16.605   7.653
 5505POPC   NC3 9539  43.841  43.126   9.453
 5505POPC   PO4 9540  43.857  43.160   9.153
 5505POPC   GL1 9541  43.917  43.136   8.853
 5505POPC   GL2 9542  43.831  43.039   8.853
 5505POPC   C1A 9543  43.919  43.153   8.553
 5505POPC   D2A 9544  43.890  43.065   8.253
 5505POPC   C3A 9545  43.863  43.103   7.953
 5505POPC   C4A 9546  43.877  43.091   7.653
 5505POPC   C1B 9547  43.802  42.918   8.553
 5505POPC   C2B 9548  43.791  42.922   8.253
 5505POPC   C3B 9549  43.798  42.910   7.953
 5505POPC   C4B 9550  43.750  42.915   7.653
 5506POPC   NC3 9551  27.562  43.120   9.453
 5506POPC   PO4 9552  27.636  43.100   9.153
 5506POPC   GL1 9553  27.544  43.067   8.853
 5506POPC   GL2 9554  27.603  42.967   8.853
 5506POPC   C1A 9555  27.560  43.110   8.553
 5506POPC   D2A 9556  27.582  43.144   8.253
 5506POPC   C3A 9557  27.557  43.125   7.953
 5506POPC   C4A 9558  27.640  43.098   7.653
 5506POPC   C1B 9559  27.639  42.887   8.553
 5506POPC   C2B 9560  27.696  42.913   8.253
 5506POPC   C3B 9561  27.632  42.900   7.953
 5506POPC   C4B 9562  27.618  42.834   7.653
 5507POPC   NC3 9563  33.044  26.091   9.453
 5507POPC   PO4 9564  33.017  26.025   9.153
 5507POPC   GL1 9565  33.058  26.032   8.853
 5507POPC   GL2 9566  32.923  25.988   8.853
 5507POPC   C1A 9567  33.012  26.063   8.553
 5507POPC   D2A 9568  33.042  26.021   8.253
 5507POPC   C3A 9569  33.036  26.076   7.953
 5507POPC   C4A 9570  33.065  26.007   7.653
 5507POPC   C1B 9571  32.749  25.951   8.553
 5507POPC   C2B 9572  32.767  25.960   8.253
 5507POPC   C3B 9573  32.805  25.959   7.953
 5507POPC   C4B 9574  32.817  25.974   7.653
 5508POPC   NC3 9575   1.945  42.287   9.453
 5508POPC   PO4 9576   2.036  42.287   9.153
 5508POPC   GL1 9577   1.989  42.294   8.853
 5508POPC   GL2 9578   1.976  42.437   8.853
 5508POPC   C1A 9579   2.027  42.307   8.553
 5508POPC   D2A 9580   1.980  42.319   8.253
 5508POPC   C3A 9581   2.005  42.333   7.953
 5508POPC   C4A 9582   2.022  42.329   7.653
 5508POPC   C1B 9583   2.087  42.599   8.553
 5508POPC   C2B 9584   2.098  42.618   8.253
 5508POPC   C3B 9585   2.088  42.596   7.953
 5508POPC   C4B 9586   2.071  42.590   7.653
 5509POPC   NC3 9587   9.713   8.964   9.453
 5509POPC   PO4 9588   9.784   8.940   9.153
 5509POPC   GL1 9589   9.751   8.995   8.853
 5509POPC   GL2 9590   9.892   8.944   8.853
 5509POPC   C1A 9591   9.703   8.996   8.553
 5509POPC   D2A 9592   9.789   8.998   8.253
 5509POPC   C3A 9593   9.730   8.927   7.953
 5509POPC   C4A 9594   9.737   8.940   7.653
 5509POPC   C1B 9595   9.927   8.795   8.553
 5509POPC   C2B 9596   9.983   8.832   8.253
 5509POPC   C3B 9597   9.910   8.821   7.953
 5509POPC   C4B 9598   9.952   8.829   7.653
 5510POPC   NC3 9599  42.334  41.564   9.453
 5510POPC   PO4 9600  42.361  41.543   9.153
 5510POPC   GL1 9601  42.341  41.529   8.853
 5510POPC   GL2 9602  42.249  41.495   8.853
 5510POPC   C1A 9603  42.324  41.608   8.553
 5510POPC   D2A 9604  42.294  41.541   8.253
 5510POPC   C3A 9605  42.346  41.578   7.953
 5510POPC   C4A 9606  42.326  41.605   7.653
 5510POPC   C1B 9607  42.123  41.469   8.553
 5510POPC   C2B 9608  42.052  41.505   8.253
 5510POPC   C3B 9609  42.054  41.460   7.953
 5510POPC   C4B 9610  42.127  41.487   7.653
 5511POPC   NC3 9611  36.125  15.193   9.453
 5511POPC   PO4 9612  36.143  15.189   9.153
 5511POPC   GL1 9613  36.171  15.147   8.853
 5511POPC   GL2 9614  36.103  15.289   8.853
 5511POPC   C1A 9615  36.156  15.156   8.553
 5511POPC   D2A 9616  36.139  15.145   8.253
 5511POPC   C3A 9617  36.088  15.195   7.953
 5511POPC   C4A 9618  36.171  15.203   7.653
 5511POPC   C1B 9619  35.992  15.362   8.553
 5511POPC   C2B 9620  36.019  15.431   8.253
 5511POPC   C3B 9621  35.954  15.390   7.953
 5511POPC   C4B 9622  35.960  15.426   7.653
 5512POPC   NC3 9623  39.198  30.730   9.453
 5512POPC   PO4 9624  39.241  30.693   9.153
 5512POPC   GL1 9625  39.200  30.723   8.853
 5512POPC   GL2 9626  39.131  30.606   8.853
 5512POPC   C1A 9627  39.183  30.669   8.553
 5512POPC   D2A 9628  39.190  30.721   8.253
 5512POPC   C3A 9629  39.255  30.672   7.953
 5512POPC   C4A 9630  39.187  30.669   7.653
 5512POPC   C1B 9631  38.989  30.541   8.553
 5512POPC   C2B 9632  39.050  30.600   8.253
 5512POPC   C3B 9633  39.004  30.617   7.953
 5512POPC   C4B 9634  38.980  30.534   7.653
 5513POPC   NC3 9635  17.465   7.439   9.453
 5513POPC   PO4 9636  17.490   7.470   9.153
 5513POPC   GL1 9637  17.534   7.388   8.853
 5513POPC   GL2 9638  17.442   7.290   8.853
 5513POPC   C1A 9639  17.492   7.468   8.553
 5513POPC   D2A 9640  17.461   7.427   8.253
 5513POPC   C3A 9641  17.546   7.450   7.953
 5513POPC   C4A 9642  17.531   7.463   7.653
 5513POPC   C1B 9643  17.296   7.255   8.553
 5513POPC   C2B 9644  17.313   7.226   8.253
 5513POPC   C3B 9645  17.346   7.291   7.953
 5513POPC   C4B 9646  17.302   7.202   7.653
 5514POPC   NC3 9647  12.070  18.257   9.453
 5514POPC   PO4 9648  12.070  18.257   9.153
 5514POPC   GL1 9649  12.063  18.314   8.853
 5514POPC   GL2 9650  12.185  18.213   8.853
 5514POPC   C1A 9651  12.042  18.238   8.553
 5514POPC   D2A 9652  12.051  18.325   8.253
 5514POPC   C3A 9653  12.036  18.321   7.953
 5514POPC   C4A 9654  12.081  18.289   7.653
 5514POPC   C1B 9655  12.263  18.118   8.553
 5514POPC   C2B 9656  12.236  18.163   8.253
 5514POPC   C3B 9657  12.243  18.129   7.953
 5514POPC   C4B 9658  12.302  18.091   7.653
 5515POPC   NC3 9659  12.871  34.567   9.453
 5515POPC   PO4 9660  12.888  34.603   9.153
 5515POPC   GL1 9661  12.856  34.540   8.853
 5515POPC   GL2 9662  12.705  34.560   8.853
 5515POPC   C1A 9663  12.878  34.542   8.553
 5515POPC   D2A 9664  12.826  34.544   8.253
 5515POPC   C3A 9665  12.885  34.623   7.953
 5515POPC   C4A 9666  12.873  34.535   7.653
 5515POPC   C1B 9667  12.603  34.666   8.553
 5515POPC   C2B 9668  12.618  34.674   8.253
 5515POPC   C3B 9669  12.568  34.635   7.953
 5515POPC   C4B 9670  12.618  34.606   7.653
 5516POPC   NC3 9671  32.289  19.023   9.453
 5516POPC   PO4 9672  32.242  19.079   9.153
 5516POPC   GL1 9673  32.252  19.034   8.853
 5516POPC   GL2 9674  32.410  19.120   8.853
 5516POPC   C1A 9675  32.200  19.092   8.553
 5516POPC   D2A 9676  32.262  19.060   8.253
 5516POPC   C3A 9677  32.271  19.018   7.953
 5516POPC   C4A 9678  32.290  19.010   7.653
 5516POPC   C1B 9679  32.462  19.189   8.553
 5516POPC   C2B 9680  32.443  19.210   8.253
 5516POPC   C3B 9681  32.444  19.127   7.953
 5516POPC   C4B 9682  32.451  19.171   7.653
 5517POPC   NC3 9683  31.436  10.496   9.453
 5517POPC   PO4 9684  31.427  10.520   9.153
 5517POPC   GL1 9685  31.467  10.515   8.853
 5517POPC   GL2 9686  31.358  10.637   8.853
 5517POPC   C1A 9687  31.445  10.527   8.553
 5517POPC   D2A 9688  31.448  10.522   8.253
 5517POPC   C3A 9689  31.470  10.501   7.953
 5517POPC   C4A 9690  31.508  10.540   7.653
 5517POPC   C1B 9691  31.342  10.733   8.553
 5517POPC   C2B 9692  31.341  10.770   8.253
 5517POPC   C3B 9693  31.354  10.741   7.953
 5517POPC   C4B 9694  31.356  10.689   7.653
 5518POPC   NC3 9695  19.794  10.498   9.453
 5518POPC   PO4 9696  19.818  10.522   9.153
 5518POPC   GL1 9697  19.823  10.512   8.853
 5518POPC   GL2 9698  19.766  10.622   8.853
 5518POPC   C1A 9699  19.792  10.523   8.553
 5518POPC   D2A 9700  19.847  10.483   8.253
 5518POPC   C3A 9701  19.858  10.515   7.953
 5518POPC   C4A 9702  19.842  10.511   7.653
 5518POPC   C1B 9703  19.743  10.793   8.553
 5518POPC   C2B 9704  19.688  10.771   8.253
 5518POPC   C3B 9705  19.765  10.776   7.953
 5518POPC   C4B 9706  19.693  10.771   7.653
 5519POPC   NC3 9707  42.293  42.351   9.453
 5519POPC   PO4 9708  42.321  42.351   9.153
 5519POPC   GL1 9709  42.326  42.335   8.853
 5519POPC   GL2 9710  42.346  42.255   8.853
 5519POPC   C1A 9711  42.324  42.304   8.553
 5519POPC   D2A 9712  42.287  42.369   8.253
 5519POPC   C3A 9713  42.336  42.287   7.953
 5519POPC   C4A 9714  42.317  42.368   7.653
 5519POPC   C1B 9715  42.410  42.079   8.553
 5519POPC   C2B 9716  42.357  42.067   8.253
 5519POPC   C3B 9717  42.431  42.055   7.953
 5519POPC   C4B 9718  42.410  42.054   7.653
 5520POPC   NC3 9719  19.009   1.993   9.453
 5520POPC   PO4 9720  19.026   2.034   9.153
 5520POPC   GL1 9721  19.072   1.973   8.853
 5520POPC   GL2 9722  19.056   2.086   8.853
 5520POPC   C1A 9723  19.019   2.033   8.553
 5520POPC   D2A 9724  19.040   2.016   8.253
 5520POPC   C3A 9725  19.051   2.016   7.953
 5520POPC   C4A 9726  19.053   1.946   7.653
 5520POPC   C1B 9727  19.038   2.273   8.553
 5520POPC   C2B 9728  19.014   2.258   8.253
 5520POPC   C3B 9729  18.988   2.255   7.953
 5520POPC   C4B 9730  19.064   2.250   7.653
 5521POPC   NC3 9731  41.557   1.244   9.453
 5521POPC   PO4 9732  41.523   1.183   9.153
 5521POPC   GL1 9733  41.552   1.254   8.853
 5521POPC   GL2 9734  41.476   1.156   8.853
 5521POPC   C1A 9735  41.552   1.225   8.553
 5521POPC   D2A 9736  41.524   1.191   8.253
 5521POPC   C3A 9737  41.552   1.198   7.953
 5521POPC   C4A 9738  41.545   1.258   7.653
 5521POPC   C1B 9739  41.402   0.955   8.553
 5521POPC   C2B 9740  41.423   0.957   8.253
 5521POPC   C3B 9741  41.404   1.019   7.953
 5521POPC   C4B 9742  41.448   1.038   7.653
 5522POPC   NC3 9743   1.982  33.812   9.453
 5522POPC   PO4 9744   2.000  33.759   9.153
 5522POPC   GL1 9745   2.023  33.800   8.853
 5522POPC   GL2 9746   1.900  33.668   8.853
 5522POPC   C1A 9747   1.960  33.759   8.553
 5522POPC   D2A 9748   1.970  33.770   8.253
 5522POPC   C3A 9749   1.996  33.814   7.953
 5522POPC   C4A 9750   2.003  33.849   7.653
 5522POPC   C1B 9751   1.797  33.616   8.553
 5522POPC   C2B 9752   1.790  33.658   8.253
 5522POPC   C3B 9753   1.787  33.632   7.953
 5522POPC   C4B 9754   1.787  33.651   7.653
 5523POPC   NC3 9755   2.756   1.224   9.453
 5523POPC   PO4 9756   2.745   1.187   9.153
 5523POPC   GL1 9757   2.803   1.217   8.853
 5523POPC   GL2 9758   2.684   1.358   8.853
 5523POPC   C1A 9759   2.720   1.171   8.553
 5523POPC   D2A 9760   2.730   1.246   8.253
 5523POPC   C3A 9761   2.751   1.237   7.953
 5523POPC   C4A 9762   2.731   1.188   7.653
 5523POPC   C1B 9763   2.696   1.429   8.553
 5523POPC   C2B 9764   2.633   1.402   8.253
 5523POPC   C3B 9765   2.682   1.454   7.953
 5523POPC   C4B 9766   2.681   1.433   7.653
 5524POPC   NC3 9767  15.191  31.450   9.453
 5524POPC   PO4 9768  15.189  31.516   9.153
 5524POPC   GL1 9769  15.138  31.495   8.853
 5524POPC   GL2 9770  15.156  31.548   8.853
 5524POPC   C1A 9771  15.153  31.518   8.553
 5524POPC   D2A 9772  15.132  31.436   8.253
 5524POPC   C3A 9773  15.185  31.507   7.953
 5524POPC   C4A 9774  15.159  31.461   7.653
 5524POPC   C1B 9775  15.032  31.651   8.553
 5524POPC   C2B 9776  15.080  31.672   8.253
 5524POPC   C3B 9777  15.077  31.712   7.953
 5524POPC   C4B 9778  15.083  31.671   7.653
 5525POPC   NC3 9779  28.359  42.367   9.453
 5525POPC   PO4 9780  28.411  42.298   9.153
 5525POPC   GL1 9781  28.368  42.312   8.853
 5525POPC   GL2 9782  28.221  42.351   8.853
 5525POPC   C1A 9783  28.337  42.294   8.553
 5525POPC   D2A 9784  28.393  42.317   8.253
 5525POPC   C3A 9785  28.388  42.369   7.953
 5525POPC   C4A 9786  28.397  42.383   7.653
 5525POPC   C1B 9787  28.155  42.440   8.553
 5525POPC   C2B 9788  28.149  42.432   8.253
 5525POPC   C3B 9789  28.101  42.478   7.953
 5525POPC   C4B 9790  28.154  42.422   7.653
 5526POPC   NC3 9791  43.084  15.176   9.453
 5526POPC   PO4 9792  43.143  15.156   9.153
 5526POPC   GL1 9793  43.128  15.215   8.853
 5526POPC   GL2 9794  43.012  15.152   8.853
 5526POPC   C1A 9795  43.149  15.151   8.553
 5526POPC   D2A 9796  43.150  15.157   8.253
 5526POPC   C3A 9797  43.133  15.173   7.953
 5526POPC   C4A 9798  43.142  15.157   7.653
 5526POPC   C1B 9799  42.872  15.153   8.553
 5526POPC   C2B 9800  42.881  15.107   8.253
 5526POPC   C3B 9801  42.830  15.106   7.953
 5526POPC   C4B 9802  42.886  15.145   7.653
 5527POPC   NC3 9803   3.584  21.429   9.453
 5527POPC   PO4 9804   3.507  21.370   9.153
 5527POPC   GL1 9805   3.589  21.351   8.853
 5527POPC   GL2 9806   3.457  21.260   8.853
 5527POPC   C1A 9807   3.560  21.389   8.553
 5527POPC   D2A 9808   3.558  21.399   8.253
 5527POPC   C3A 9809   3.494  21.420   7.953
 5527POPC   C4A 9810   3.570  21.425   7.653
 5527POPC   C1B 9811   3.503  21.102   8.553
 5527POPC   C2B 9812   3.432  21.186   8.253
 5527POPC   C3B 9813   3.494  21.194   7.953
 5527POPC   C4B 9814   3.504  21.151   7.653
 5528POPC   NC3 9815  33.010  43.065   9.453
 5528POPC   PO4 9816  33.043  43.154   9.153
 5528POPC   GL1 9817  32.979  43.061   8.853
 5528POPC   GL2 9818  32.935  43.049   8.853
 5528POPC   C1A 9819  33.068  43.094   8.553
 5528POPC   D2A 9820  33.033  43.097   8.253
 5528POPC   C3A 9821  33.046  43.147   7.953
 5528POPC   C4A 9822  33.070  43.105   7.653
 5528POPC   C1B 9823  32.764  42.970   8.553
 5528POPC   C2B 9824  32.763  42.993   8.253
 5528POPC   C3B 9825  32.786  43.000   7.953
 5528POPC   C4B 9826  32.850  42.933   7.653
 5529POPC   NC3 9827  12.819  18.320   9.453
 5529POPC   PO4 9828  12.859  18.266   9.153
 5529POPC   GL1 9829  12.892  18.243   8.853
 5529POPC   GL2 9830  12.944  18.213   8.853
 5529POPC   C1A 9831  12.884  18.244   8.553
 5529POPC   D2A 9832  12.866  18.304   8.253
 5529POPC   C3A 9833  12.873  18.293   7.953
 5529POPC   C4A 9834  12.819  18.271   7.653
 5529POPC   C1B 9835  12.947  18.031   8.553
 5529POPC   C2B 9836  13.016  18.067   8.253
 5529POPC   C3B 9837  12.951  18.096   7.953
 5529POPC   C4B 9838  12.972  18.053   7.653
 5530POPC   NC3 9839  16.755  10.563   9.453
 5530POPC   PO4 9840  16.697  10.481   9.153
 5530POPC   GL1 9841  16.721  10.492   8.853
 5530POPC   GL2 9842  16.667  10.429   8.853
 5530POPC   C1A 9843  16.710  10.568   8.553
 5530POPC   D2A 9844  16.751  10.498   8.253
 5530POPC   C3A 9845  16.777  10.535   7.953
 5530POPC   C4A 9846  16.750  10.547   7.653
 5530POPC   C1B 9847  16.731  10.280   8.553
 5530POPC   C2B 9848  16.665  10.270   8.253
 5530POPC   C3B 9849  16.656  10.263   7.953
 5530POPC   C4B 9850  16.661  10.265   7.653
 5531POPC   NC3 9851   7.400  39.189   9.453
 5531POPC   PO4 9852   7.374  39.277   9.153
 5531POPC   GL1 9853   7.454  39.186   8.853
 5531POPC   GL2 9854   7.256  39.198   8.853
 5531POPC   C1A 9855   7.383  39.229   8.553
 5531POPC   D2A 9856   7.374  39.225   8.253
 5531POPC   C3A 9857   7.422  39.233   7.953
 5531POPC   C4A 9858   7.418  39.250   7.653
 5531POPC   C1B 9859   7.144  39.175   8.553
 5531POPC   C2B 9860   7.213  39.251   8.253
 5531POPC   C3B 9861   7.172  39.243   7.953
 5531POPC   C4B 9862   7.162  39.198   7.653
 5532POPC   NC3 9863   1.239  17.555   9.453
 5532POPC   PO4 9864   1.248  17.483   9.153
 5532POPC   GL1 9865   1.234  17.531   8.853
 5532POPC   GL2 9866   1.294  17.585   8.853
 5532POPC   C1A 9867   1.220  17.473   8.553
 5532POPC   D2A 9868   1.178  17.489   8.253
 5532POPC   C3A 9869   1.216  17.516   7.953
 5532POPC   C4A 9870   1.194  17.531   7.653
 5532POPC   C1B 9871   1.413  17.595   8.553
 5532POPC   C2B 9872   1.408  17.621   8.253
 5532POPC   C3B 9873   1.414  17.541   7.953
 5532POPC   C4B 9874   1.460  17.581   7.653
 5533POPC   NC3 9875  18.329   7.386   9.453
 5533POPC   PO4 9876  18.329   7.406   9.153
 5533POPC   GL1 9877  18.251   7.445   8.853
 5533POPC   GL2 9878  18.399   7.531   8.853
 5533POPC   C1A 9879  18.267   7.407   8.553
 5533POPC   D2A 9880  18.285   7.388   8.253
 5533POPC   C3A 9881  18.269   7.384   7.953
 5533POPC   C4A 9882  18.256   7.452   7.653
 5533POPC   C1B 9883  18.458   7.599   8.553
 5533POPC   C2B 9884  18.517   7.519   8.253
 5533POPC   C3B 9885  18.526   7.587   7.953
 5533POPC   C4B 9886  18.488   7.565   7.653
 5534POPC   NC3 9887  15.912   1.208   9.453
 5534POPC   PO4 9888  15.989   1.226   9.153
 5534POPC   GL1 9889  15.973   1.168   8.853
 5534POPC   GL2 9890  16.067   1.224   8.853
 5534POPC   C1A 9891  15.954   1.210   8.553
 5534POPC   D2A 9892  15.943   1.191   8.253
 5534POPC   C3A 9893  15.918   1.262   7.953
 5534POPC   C4A 9894  15.957   1.167   7.653
 5534POPC   C1B 9895  16.161   1.128   8.553
 5534POPC   C2B 9896  16.217   1.167   8.253
 5534POPC   C3B 9897  16.239   1.223   7.953
 5534POPC   C4B 9898  16.203   1.210   7.653
 5535POPC   NC3 9899   3.493  35.334   9.453
 5535POPC   PO4 9900   3.499  35.335   9.153
 5535POPC   GL1 9901   3.507  35.359   8.853
 5535POPC   GL2 9902   3.460  35.396   8.853
 5535POPC   C1A 9903   3.507  35.319   8.553
 5535POPC   D2A 9904   3.586  35.317   8.253
 5535POPC   C3A 9905   3.583  35.304   7.953
 5535POPC   C4A 9906   3.584  35.383   7.653
 5535POPC   C1B 9907   3.308  35.389   8.553
 5535POPC   C2B 9908   3.261  35.386   8.253
 5535POPC   C3B 9909   3.306  35.429   7.953
 5535POPC   C4B 9910   3.281  35.374   7.653
 5536POPC   NC3 9911  25.308  42.334   9.453
 5536POPC   PO4 9912  25.282  42.304   9.153
 5536POPC   GL1 9913  25.267  42.305   8.853
 5536POPC   GL2 9914  25.374  42.429   8.853
 5536POPC   C1A 9915  25.300  42.338   8.553
 5536POPC   D2A 9916  25.234  42.291   8.253
 5536POPC   C3A 9917  25.236  42.301   7.953
 5536POPC   C4A 9918  25.236  42.343   7.653
 5536POPC   C1B 9919  25.532  42.438   8.553
 5536POPC   C2B 9920  25.469  42.502   8.253
 5536POPC   C3B 9921  25.438  42.426   7.953
 5536POPC   C4B 9922  25.505  42.447   7.653
 5537POPC   NC3 9923  11.263  32.285   9.453
 5537POPC   PO4 9924  11.259  32.231   9.153
 5537POPC   GL1 9925  11.259  32.275   8.853
 5537POPC   GL2 9926  11.366  32.165   8.853
 5537POPC   C1A 9927  11.254  32.284   8.553
 5537POPC   D2A 9928  11.323  32.229   8.253
 5537POPC   C3A 9929  11.329  32.233   7.953
 5537POPC   C4A 9930  11.291  32.239   7.653
 5537POPC   C1B 9931  11.472  32.100   8.553
 5537POPC   C2B 9932  11.550  32.116   8.253
 5537POPC   C3B 9933  11.511  32.121   7.953
 5537POPC   C4B 9934  11.519  32.101   7.653
 5538POPC   NC3 9935  31.428  12.055   9.453
 5538POPC   PO4 9936  31.469  12.124   9.153
 5538POPC   GL1 9937  31.471  12.108   8.853
 5538POPC   GL2 9938  31.619  12.109   8.853
 5538POPC   C1A 9939  31.428  12.079   8.553
 5538POPC   D2A 9940  31.461  12.124   8.253
 5538POPC   C3A 9941  31.496  12.067   7.953
 5538POPC   C4A 9942  31.485  12.114   7.653
 5538POPC   C1B 9943  31.742  12.094   8.553
 5538POPC   C2B 9944  31.749  12.073   8.253
 5538POPC   C3B 9945  31.706  12.124   7.953
 5538POPC   C4B 9946  31.713  12.157   7.653
 5539POPC   NC3 9947  32.979  20.583   9.453
 5539POPC   PO4 9948  33.060  20.593   9.153
 5539POPC   GL1 9949  33.055  20.635   8.853
 5539POPC   GL2 9950  33.138  20.754   8.853
 5539POPC   C1A 9951  33.063  20.644   8.553
 5539POPC   D2A 9952  32.993  20.569   8.253
 5539POPC   C3A 9953  32.997  20.574   7.953
 5539POPC   C4A 9954  33.055  20.624   7.653
 5539POPC   C1B 9955  33.179  20.786   8.553
 5539POPC   C2B 9956  33.206  20.863   8.253
 5539POPC   C3B 9957  33.158  20.854   7.953
 5539POPC   C4B 9958  33.191  20.849   7.653
 5540POPC   NC3 9959   9.725  39.187   9.453
 5540POPC   PO4 9960   9.754  39.272   9.153
 5540POPC   GL1 9961   9.745  39.249   8.853
 5540POPC   GL2 9962   9.660  39.196   8.853
 5540POPC   C1A 9963   9.753  39.190   8.553
 5540POPC   D2A 9964   9.717  39.196   8.253
 5540POPC   C3A 9965   9.744  39.274   7.953
 5540POPC   C4A 9966   9.733  39.221   7.653
 5540POPC   C1B 9967   9.533  39.084   8.553
 5540POPC   C2B 9968   9.546  39.155   8.253
 5540POPC   C3B 9969   9.480  39.137   7.953
 5540POPC   C4B 9970   9.504  39.124   7.653
 5541POPC   NC3 9971  35.316  33.826   9.453
 5541POPC   PO4 9972  35.377  33.846   9.153
 5541POPC   GL1 9973  35.344  33.783   8.853
 5541POPC   GL2 9974  35.315  33.898   8.853
 5541POPC   C1A 9975  35.331  33.755   8.553
 5541POPC   D2A 9976  35.326  33.813   8.253
 5541POPC   C3A 9977  35.378  33.783   7.953
 5541POPC   C4A 9978  35.341  33.816   7.653
 5541POPC   C1B 9979  35.342  34.023   8.553
 5541POPC   C2B 9980  35.315  34.066   8.253
 5541POPC   C3B 9981  35.342  34.034   7.953
 5541POPC   C4B 9982  35.311  34.050   7.653
 5542POPC   NC3 9983   8.184  29.902   9.453
 5542POPC   PO4 9984   8.203  29.955   9.153
 5542POPC   GL1 9985   8.166  29.882   8.853
 5542POPC   GL2 9986   8.218  30.064   8.853
 5542POPC   C1A 9987   8.242  29.881   8.553
 5542POPC   D2A 9988   8.215  29.964   8.253
 5542POPC   C3A 9989   8.233  29.942   7.953
 5542POPC   C4A 9990   8.243  29.874   7.653
 5542POPC   C1B 9991   8.262  30.181   8.553
 5542POPC   C2B 9992   8.253  30.135   8.253
 5542POPC   C3B 9993   8.239  30.184   7.953
 5542POPC   C4B 9994   8.238  30.158   7.653
 5543POPC   NC3 9995  27.574  38.432   9.453
 5543POPC   PO4 9996  27.565  38.458   9.153
 5543POPC   GL1 9997  27.619  38.496   8.853
 5543POPC   GL2 9998  27.444  38.365   8.853
 5543POPC   C1A 9999  27.621  38.501   8.553
 5543POPC   D2A10000  27.569  38.476   8.253
 5543POPC   C3A10001  27.555  38.426   7.953
 5543POPC   C4A10002  27.604  38.474   7.653
 5543POPC   C1B10003  27.396  38.274   8.553
 5543POPC   C2B10004  27.399  38.335   8.253
 5543POPC   C3B10005  27.376  38.297   7.953
 5543POPC   C4B10006  27.375  38.293   7.653
 5544POPC   NC310007  15.933  40.823   9.453
 5544POPC   PO410008  15.957  40.741   9.153
 5544POPC   GL110009  15.912  40.830   8.853
 5544POPC   GL210010  15.825  40.857   8.853
 5544POPC   C1A10011  15.917  40.755   8.553
 5544POPC   D2A10012  15.987  40.821   8.253
 5544POPC   C3A10013  15.950  40.781   7.953
 5544POPC   C4A10014  15.957  40.804   7.653
 5544POPC   C1B10015  15.689  40.865   8.553
 5544POPC   C2B10016  15.722  40.848   8.253
 5544POPC   C3B10017  15.678  40.810   7.953
 5544POPC   C4B10018  15.749  40.819   7.653
 5545POPC   NC310019  28.321  11.254   9.453
 5545POPC   PO410020  28.412  11.276   9.153
 5545POPC   GL110021  28.388  11.311   8.853
 5545POPC   GL210022  28.267  11.318   8.853
 5545POPC   C1A10023  28.390  11.316   8.553
 5545POPC   D2A10024  28.371  11.302   8.253
 5545POPC   C3A10025  28.352  11.335   7.953
 5545POPC   C4A10026  28.354  11.349   7.653
 5545POPC   C1B10027  28.122  11.261   8.553
 5545POPC   C2B10028  28.090  11.280   8.253
 5545POPC   C3B10029  28.090  11.278   7.953
 5545POPC   C4B10030  28.151  11.258   7.653
 5546POPC   NC310031  30.700  21.343   9.453
 5546POPC   PO410032  30.744  21.427   9.153
 5546POPC   GL110033  30.676  21.389   8.853
 5546POPC   GL210034  30.534  21.386   8.853
 5546POPC   C1A10035  30.704  21.433   8.553
 5546POPC   D2A10036  30.667  21.359   8.253
 5546POPC   C3A10037  30.713  21.379   7.953
 5546POPC   C4A10038  30.709  21.351   7.653
 5546POPC   C1B10039  30.496  21.391   8.553
 5546POPC   C2B10040  30.429  21.324   8.253
 5546POPC   C3B10041  30.443  21.328   7.953
 5546POPC   C4B10042  30.412  21.347   7.653
 5547POPC   NC310043  26.848   1.206   9.453
 5547POPC   PO410044  26.857   1.259   9.153
 5547POPC   GL110045  26.801   1.210   8.853
 5547POPC   GL210046  26.924   1.207   8.853
 5547POPC   C1A10047  26.799   1.248   8.553
 5547POPC   D2A10048  26.856   1.186   8.253
 5547POPC   C3A10049  26.811   1.235   7.953
 5547POPC   C4A10050  26.811   1.263   7.653
 5547POPC   C1B10051  27.048   1.234   8.553
 5547POPC   C2B10052  27.024   1.232   8.253
 5547POPC   C3B10053  27.097   1.224   7.953
 5547POPC   C4B10054  27.040   1.222   7.653
 5548POPC   NC310055  19.070  33.807   9.453
 5548POPC   PO410056  19.016  33.827   9.153
 5548POPC   GL110057  19.061  33.779   8.853
 5548POPC   GL210058  19.212  33.859   8.853
 5548POPC   C1A10059  19.074  33.795   8.553
 5548POPC   D2A10060  19.057  33.816   8.253
 5548POPC   C3A10061  19.103  33.759   7.953
 5548POPC   C4A10062  19.101  33.775   7.653
 5548POPC   C1B10063  19.292  33.895   8.553
 5548POPC   C2B10064  19.328  33.875   8.253
 5548POPC   C3B10065  19.314  33.905   7.953
 5548POPC   C4B10066  19.283  33.872   7.653
 5549POPC   NC310067  26.778  42.335   9.453
 5549POPC   PO410068  26.795  42.358   9.153
 5549POPC   GL110069  26.830  42.302   8.853
 5549POPC   GL210070  26.885  42.439   8.853
 5549POPC   C1A10071  26.837  42.362   8.553
 5549POPC   D2A10072  26.825  42.328   8.253
 5549POPC   C3A10073  26.862  42.305   7.953
 5549POPC   C4A10074  26.845  42.364   7.653
 5549POPC   C1B10075  26.912  42.549   8.553
 5549POPC   C2B10076  26.891  42.560   8.253
 5549POPC   C3B10077  26.850  42.612   7.953
 5549POPC   C4B10078  26.919  42.583   7.653
 5550POPC   NC310079  43.869  39.973   9.453
 5550POPC   PO410080  43.928  40.046   9.153
 5550POPC   GL110081  43.892  40.042   8.853
 5550POPC   GL210082  43.889  40.107   8.853
 5550POPC   C1A10083  43.865  40.018   8.553
 5550POPC   D2A10084  43.852  40.012   8.253
 5550POPC   C3A10085  43.859  40.048   7.953
 5550POPC   C4A10086  43.868  39.977   7.653
 5550POPC   C1B10087  43.982  40.232   8.553
 5550POPC   C2B10088  43.983  40.203   8.253
 5550POPC   C3B10089  43.982  40.249   7.953
 5550POPC   C4B10090  44.005  40.247   7.653
 5551POPC   NC310091  39.231  33.786   9.453
 5551POPC   PO410092  39.183  33.843   9.153
 5551POPC   GL110093  39.191  33.793   8.853
 5551POPC   GL210094  39.137  33.790   8.853
 5551POPC   C1A10095  39.242  33.840   8.553
 5551POPC   D2A10096  39.275  33.836   8.253
 5551POPC   C3A10097  39.222  33.850   7.953
 5551POPC   C4A10098  39.261  33.832   7.653
 5551POPC   C1B10099  38.942  33.789   8.553
 5551POPC   C2B10100  38.984  33.843   8.253
 5551POPC   C3B10101  39.002  33.820   7.953
 5551POPC   C4B10102  38.935  33.783   7.653
 5552POPC   NC310103   8.928  10.570   9.453
 5552POPC   PO410104   8.967  10.484   9.153
 5552POPC   GL110105   8.995  10.533   8.853
 5552POPC   GL210106   9.059  10.431   8.853
 5552POPC   C1A10107   8.951  10.512   8.553
 5552POPC   D2A10108   8.992  10.480   8.253
 5552POPC   C3A10109   8.978  10.566   7.953
 5552POPC   C4A10110   8.931  10.522   7.653
 5552POPC   C1B10111   9.158  10.380   8.553
 5552POPC   C2B10112   9.211  10.406   8.253
 5552POPC   C3B10113   9.172  10.457   7.953
 5552POPC   C4B10114   9.230  10.406   7.653
 5553POPC   NC310115  28.350  40.759   9.453
 5553POPC   PO410116  28.327  40.806   9.153
 5553POPC   GL110117  28.322  40.780   8.853
 5553POPC   GL210118  28.335  40.888   8.853
 5553POPC   C1A10119  28.394  40.788   8.553
 5553POPC   D2A10120  28.416  40.744   8.253
 5553POPC   C3A10121  28.350  40.797   7.953
 5553POPC   C4A10122  28.402  40.741   7.653
 5553POPC   C1B10123  28.346  41.003   8.553
 5553POPC   C2B10124  28.302  41.065   8.253
 5553POPC   C3B10125  28.287  41.037   7.953
 5553POPC   C4B10126  28.303  40.987   7.653
 5554POPC   NC310127  42.299   0.454   9.453
 5554POPC   PO410128  42.335   0.397   9.153
 5554POPC   GL110129  42.308   0.437   8.853
 5554POPC   GL210130  42.196   0.435   8.853
 5554POPC   C1A10131  42.375   0.408   8.553
 5554POPC   D2A10132  42.333   0.462   8.253
 5554POPC   C3A10133  42.310   0.488   7.953
 5554POPC   C4A10134  42.344   0.419   7.653
 5554POPC   C1B10135  42.053   0.474   8.553
 5554POPC   C2B10136  42.117   0.490   8.253
 5554POPC   C3B10137  42.065   0.468   7.953
 5554POPC   C4B10138  42.078   0.447   7.653
 5555POPC   NC310139  20.588  12.095   9.453
 5555POPC   PO410140  20.598  12.105   9.153
 5555POPC   GL110141  20.646  12.030   8.853
 5555POPC   GL210142  20.470  12.006   8.853
 5555POPC   C1A10143  20.651  12.099   8.553
 5555POPC   D2A10144  20.626  12.039   8.253
 5555POPC   C3A10145  20.624  12.054   7.953
 5555POPC   C4A10146  20.657  12.111   7.653
 5555POPC   C1B10147  20.333  11.996   8.553
 5555POPC   C2B10148  20.406  12.054   8.253
 5555POPC   C3B10149  20.354  11.988   7.953
 5555POPC   C4B10150  20.365  12.015   7.653
 5556POPC   NC310151  42.339  30.669   9.453
 5556POPC   PO410152  42.376  30.661   9.153
 5556POPC   GL110153  42.353  30.666   8.853
 5556POPC   GL210154  42.502  30.701   8.853
 5556POPC   C1A10155  42.339  30.660   8.553
 5556POPC   D2A10156  42.328  30.707   8.253
 5556POPC   C3A10157  42.327  30.690   7.953
 5556POPC   C4A10158  42.361  30.708   7.653
 5556POPC   C1B10159  42.600  30.742   8.553
 5556POPC   C2B10160  42.594  30.732   8.253
 5556POPC   C3B10161  42.610  30.717   7.953
 5556POPC   C4B10162  42.593  30.749   7.653
 5557POPC   NC310163  40.780  32.976   9.453
 5557POPC   PO410164  40.829  33.053   9.153
 5557POPC   GL110165  40.743  33.039   8.853
 5557POPC   GL210166  40.697  33.138   8.853
 5557POPC   C1A10167  40.783  33.054   8.553
 5557POPC   D2A10168  40.751  32.990   8.253
 5557POPC   C3A10169  40.792  32.989   7.953
 5557POPC   C4A10170  40.795  33.000   7.653
 5557POPC   C1B10171  40.579  33.174   8.553
 5557POPC   C2B10172  40.663  33.205   8.253
 5557POPC   C3B10173  40.656  33.250   7.953
 5557POPC   C4B10174  40.647  33.256   7.653
 5558POPC   NC310175  19.019  20.606   9.453
 5558POPC   PO410176  19.020  20.579   9.153
 5558POPC   GL110177  19.070  20.588   8.853
 5558POPC   GL210178  18.972  20.522   8.853
 5558POPC   C1A10179  19.030  20.639   8.553
 5558POPC   D2A10180  19.055  20.573   8.253
 5558POPC   C3A10181  19.038  20.583   7.953
 5558POPC   C4A10182  19.087  20.597   7.653
 5558POPC   C1B10183  18.855  20.512   8.553
 5558POPC   C2B10184  18.900  20.440   8.253
 5558POPC   C3B10185  18.826  20.503   7.953
 5558POPC   C4B10186  18.882  20.518   7.653
 5559POPC   NC310187   1.976  33.036   9.453
 5559POPC   PO410188   2.033  33.021   9.153
 5559POPC   GL110189   1.963  33.019   8.853
 5559POPC   GL210190   1.835  33.050   8.853
 5559POPC   C1A10191   1.978  33.028   8.553
 5559POPC   D2A10192   2.018  33.068   8.253
 5559POPC   C3A10193   1.977  33.062   7.953
 5559POPC   C4A10194   2.005  33.041   7.653
 5559POPC   C1B10195   1.732  33.101   8.553
 5559POPC   C2B10196   1.765  33.056   8.253
 5559POPC   C3B10197   1.780  33.071   7.953
 5559POPC   C4B10198   1.794  33.075   7.653
 5560POPC   NC310199  13.619  43.135   9.453
 5560POPC   PO410200  13.583  43.120   9.153
 5560POPC   GL110201  13.589  43.155   8.853
 5560POPC   GL210202  13.668  43.274   8.853
 5560POPC   C1A10203  13.594  43.151   8.553
 5560POPC   D2A10204  13.649  43.089   8.253
 5560POPC   C3A10205  13.667  43.108   7.953
 5560POPC   C4A10206  13.672  43.067   7.653
 5560POPC   C1B10207  13.689  43.294   8.553
 5560POPC   C2B10208  13.751  43.350   8.253
 5560POPC   C3B10209  13.680  43.295   7.953
 5560POPC   C4B10210  13.739  43.328   7.653
 5561POPC   NC310211  37.673  12.843   9.453
 5561POPC   PO410212  37.649  12.814   9.153
 5561POPC   GL110213  37.717  12.870   8.853
 5561POPC   GL210214  37.601  12.949   8.853
 5561POPC   C1A10215  37.640  12.873   8.553
 5561POPC   D2A10216  37.697  12.829   8.253
 5561POPC   C3A10217  37.728  12.813   7.953
 5561POPC   C4A10218  37.696  12.891   7.653
 5561POPC   C1B10219  37.605  13.136   8.553
 5561POPC   C2B10220  37.667  13.079   8.253
 5561POPC   C3B10221  37.625  13.084   7.953
 5561POPC   C4B10222  37.627  13.056   7.653
 5562POPC   NC310223  44.666  29.963   9.453
 5562POPC   PO410224  44.666  29.881   9.153
 5562POPC   GL110225  44.675  29.925   8.853
 5562POPC   GL210226  44.542  29.967   8.853
 5562POPC   C1A10227  44.631  29.964   8.553
 5562POPC   D2A10228  44.615  29.908   8.253
 5562POPC   C3A10229  44.678  29.917   7.953
 5562POPC   C4A10230  44.613  29.906   7.653
 5562POPC   C1B10231  44.442  29.928   8.553
 5562POPC   C2B10232  44.365  29.926   8.253
 5562POPC   C3B10233  44.410  29.967   7.953
 5562POPC   C4B10234  44.442  29.982   7.653
 5563POPC   NC310235  43.138  26.086   9.453
 5563POPC   PO410236  43.141  26.069   9.153
 5563POPC   GL110237  43.068  26.044   8.853
 5563POPC   GL210238  43.095  25.927   8.853
 5563POPC   C1A10239  43.143  26.050   8.553
 5563POPC   D2A10240  43.075  26.043   8.253
 5563POPC   C3A10241  43.137  26.062   7.953
 5563POPC   C4A10242  43.068  26.065   7.653
 5563POPC   C1B10243  43.056  25.838   8.553
 5563POPC   C2B10244  43.071  25.798   8.253
 5563POPC   C3B10245  43.015  25.772   7.953
 5563POPC   C4B10246  43.049  25.767   7.653
 5564POPC   NC310247  32.234  32.988   9.453
 5564POPC   PO410248  32.225  33.034   9.153
 5564POPC   GL110249  32.234  33.068   8.853
 5564POPC   GL210250  32.137  33.069   8.853
 5564POPC   C1A10251  32.274  32.991   8.553
 5564POPC   D2A10252  32.232  33.033   8.253
 5564POPC   C3A10253  32.240  32.988   7.953
 5564POPC   C4A10254  32.290  33.058   7.653
 5564POPC   C1B10255  32.069  33.182   8.553
 5564POPC   C2B10256  31.997  33.126   8.253
 5564POPC   C3B10257  32.022  33.158   7.953
 5564POPC   C4B10258  32.000  33.170   7.653
 5565POPC   NC310259   4.311  35.323   9.453
 5565POPC   PO410260   4.314  35.315   9.153
 5565POPC   GL110261   4.322  35.398   8.853
 5565POPC   GL210262   4.480  35.405   8.853
 5565POPC   C1A10263   4.352  35.368   8.553
 5565POPC   D2A10264   4.365  35.401   8.253
 5565POPC   C3A10265   4.288  35.343   7.953
 5565POPC   C4A10266   4.280  35.388   7.653
 5565POPC   C1B10267   4.567  35.450   8.553
 5565POPC   C2B10268   4.559  35.445   8.253
 5565POPC   C3B10269   4.516  35.362   7.953
 5565POPC   C4B10270   4.594  35.397   7.653
 5566POPC   NC310271   6.600  29.909   9.453
 5566POPC   PO410272   6.631  29.958   9.153
 5566POPC   GL110273   6.638  29.969   8.853
 5566POPC   GL210274   6.473  29.933   8.853
 5566POPC   C1A10275   6.596  29.959   8.553
 5566POPC   D2A10276   6.654  29.900   8.253
 5566POPC   C3A10277   6.665  29.962   7.953
 5566POPC   C4A10278   6.672  29.925   7.653
 5566POPC   C1B10279   6.386  29.875   8.553
 5566POPC   C2B10280   6.413  29.876   8.253
 5566POPC   C3B10281   6.404  29.902   7.953
 5566POPC   C4B10282   6.388  29.863   7.653
 5567POPC   NC310283  12.839  29.898   9.453
 5567POPC   PO410284  12.896  29.877   9.153
 5567POPC   GL110285  12.816  29.946   8.853
 5567POPC   GL210286  12.974  29.913   8.853
 5567POPC   C1A10287  12.835  29.944   8.553
 5567POPC   D2A10288  12.822  29.954   8.253
 5567POPC   C3A10289  12.861  29.947   7.953
 5567POPC   C4A10290  12.825  29.953   7.653
 5567POPC   C1B10291  13.115  30.009   8.553
 5567POPC   C2B10292  13.101  29.976   8.253
 5567POPC   C3B10293  13.139  29.966   7.953
 5567POPC   C4B10294  13.108  29.992   7.653
 5568POPC   NC310295   0.407  43.125   9.453
 5568POPC   PO410296   0.401  43.120   9.153
 5568POPC   GL110297   0.416  43.160   8.853
 5568POPC   GL210298   0.562  43.029   8.853
 5568POPC   C1A10299   0.444  43.078   8.553
 5568POPC   D2A10300   0.477  43.118   8.253
 5568POPC   C3A10301   0.438  43.159   7.953
 5568POPC   C4A10302   0.473  43.073   7.653
 5568POPC   C1B10303   0.621  42.993   8.553
 5568POPC   C2B10304   0.691  42.961   8.253
 5568POPC   C3B10305   0.614  42.958   7.953
 5568POPC   C4B10306   0.638  42.984   7.653
 5569POPC   NC310307  17.515  33.047   9.453
 5569POPC   PO410308  17.460  32.983   9.153
 5569POPC   GL110309  17.479  33.043   8.853
 5569POPC   GL210310  17.535  32.962   8.853
 5569POPC   C1A10311  17.521  32.992   8.553
 5569POPC   D2A10312  17.495  32.978   8.253
 5569POPC   C3A10313  17.495  33.047   7.953
 5569POPC   C4A10314  17.478  32.976   7.653
 5569POPC   C1B10315  17.651  32.769   8.553
 5569POPC   C2B10316  17.649  32.849   8.253
 5569POPC   C3B10317  17.639  32.774   7.953
 5569POPC   C4B10318  17.608  32.834   7.653
 5570POPC   NC310319  41.582   4.322   9.453
 5570POPC   PO410320  41.526   4.361   9.153
 5570POPC   GL110321  41.538   4.355   8.853
 5570POPC   GL210322  41.646   4.186   8.853
 5570POPC   C1A10323  41.599   4.349   8.553
 5570POPC   D2A10324  41.554   4.325   8.253
 5570POPC   C3A10325  41.548   4.349   7.953
 5570POPC   C4A10326  41.602   4.361   7.653
 5570POPC   C1B10327  41.687   4.144   8.553
 5570POPC   C2B10328  41.731   4.104   8.253
 5570POPC   C3B10329  41.706   4.163   7.953
 5570POPC   C4B10330  41.693   4.191   7.653
 5571POPC   NC310331  26.823   0.437   9.453
 5571POPC   PO410332  26.791   0.467   9.153
 5571POPC   GL110333  26.815   0.418   8.853
 5571POPC   GL210334  26.738   0.563   8.853
 5571POPC   C1A10335  26.841   0.403   8.553
 5571POPC   D2A10336  26.770   0.436   8.253
 5571POPC   C3A10337  26.769   0.454   7.953
 5571POPC   C4A10338  26.771   0.421   7.653
 5571POPC   C1B10339  26.704   0.676   8.553
 5571POPC   C2B10340  26.755   0.686   8.253
 5571POPC   C3B10341  26.769   0.656   7.953
 5571POPC   C4B10342  26.746   0.695   7.653
 5572POPC   NC310343  16.710  35.366   9.453
 5572POPC   PO410344  16.716  35.327   9.153
 5572POPC   GL110345  16.682  35.373   8.853
 5572POPC   GL210346  16.706  35.507   8.853
 5572POPC   C1A10347  16.762  35.313   8.553
 5572POPC   D2A10348  16.704  35.374   8.253
 5572POPC   C3A10349  16.772  35.350   7.953
 5572POPC   C4A10350  16.748  35.306   7.653
 5572POPC   C1B10351  16.668  35.621   8.553
 5572POPC   C2B10352  16.676  35.573   8.253
 5572POPC   C3B10353  16.689  35.543   7.953
 5572POPC   C4B10354  16.658  35.592   7.653
 5573POPC   NC310355  17.534   2.008   9.453
 5573POPC   PO410356  17.517   2.023   9.153
 5573POPC   GL110357  17.470   1.985   8.853
 5573POPC   GL210358  17.392   1.907   8.853
 5573POPC   C1A10359  17.555   1.999   8.553
 5573POPC   D2A10360  17.466   1.986   8.253
 5573POPC   C3A10361  17.536   1.964   7.953
 5573POPC   C4A10362  17.545   2.031   7.653
 5573POPC   C1B10363  17.238   1.852   8.553
 5573POPC   C2B10364  17.255   1.861   8.253
 5573POPC   C3B10365  17.269   1.876   7.953
 5573POPC   C4B10366  17.296   1.936   7.653
 5574POPC   NC310367   8.211  33.058   9.453
 5574POPC   PO410368   8.232  33.013   9.153
 5574POPC   GL110369   8.193  32.989   8.853
 5574POPC   GL210370   8.105  33.171   8.853
 5574POPC   C1A10371   8.176  33.055   8.553
 5574POPC   D2A10372   8.151  33.022   8.253
 5574POPC   C3A10373   8.194  33.043   7.953
 5574POPC   C4A10374   8.193  32.985   7.653
 5574POPC   C1B10375   8.096  33.196   8.553
 5574POPC   C2B10376   8.051  33.267   8.253
 5574POPC   C3B10377   8.090  33.211   7.953
 5574POPC   C4B10378   8.105  33.272   7.653
 5575POPC   NC310379  40.041   5.123   9.453
 5575POPC   PO410380  40.029   5.057   9.153
 5575POPC   GL110381  40.052   5.105   8.853
 5575POPC   GL210382  39.937   4.987   8.853
 5575POPC   C1A10383  39.999   5.051   8.553
 5575POPC   D2A10384  39.960   5.062   8.253
 5575POPC   C3A10385  40.045   5.072   7.953
 5575POPC   C4A10386  40.048   5.107   7.653
 5575POPC   C1B10387  39.958   4.830   8.553
 5575POPC   C2B10388  39.995   4.804   8.253
 5575POPC   C3B10389  39.958   4.803   7.953
 5575POPC   C4B10390  39.988   4.894   7.653
 5576POPC   NC310391  30.675  25.272   9.453
 5576POPC   PO410392  30.733  25.300   9.153
 5576POPC   GL110393  30.717  25.292   8.853
 5576POPC   GL210394  30.678  25.184   8.853
 5576POPC   C1A10395  30.655  25.243   8.553
 5576POPC   D2A10396  30.733  25.263   8.253
 5576POPC   C3A10397  30.721  25.271   7.953
 5576POPC   C4A10398  30.740  25.229   7.653
 5576POPC   C1B10399  30.578  24.992   8.553
 5576POPC   C2B10400  30.560  25.040   8.253
 5576POPC   C3B10401  30.606  25.033   7.953
 5576POPC   C4B10402  30.649  25.045   7.653
 5577POPC   NC310403  20.594  19.095   9.453
 5577POPC   PO410404  20.610  19.024   9.153
 5577POPC   GL110405  20.628  19.097   8.853
 5577POPC   GL210406  20.593  18.915   8.853
 5577POPC   C1A10407  20.600  19.052   8.553
 5577POPC   D2A10408  20.654  19.084   8.253
 5577POPC   C3A10409  20.603  19.043   7.953
 5577POPC   C4A10410  20.645  19.060   7.653
 5577POPC   C1B10411  20.577  18.806   8.553
 5577POPC   C2B10412  20.662  18.835   8.253
 5577POPC   C3B10413  20.628  18.853   7.953
 5577POPC   C4B10414  20.642  18.837   7.653
 5578POPC   NC310415   4.293  10.514   9.453
 5578POPC   PO410416   4.317  10.482   9.153
 5578POPC   GL110417   4.267  10.504   8.853
 5578POPC   GL210418   4.341  10.613   8.853
 5578POPC   C1A10419   4.292  10.518   8.553
 5578POPC   D2A10420   4.306  10.494   8.253
 5578POPC   C3A10421   4.348  10.572   7.953
 5578POPC   C4A10422   4.314  10.482   7.653
 5578POPC   C1B10423   4.399  10.797   8.553
 5578POPC   C2B10424   4.437  10.738   8.253
 5578POPC   C3B10425   4.410  10.749   7.953
 5578POPC   C4B10426   4.405  10.771   7.653
 5579POPC   NC310427  33.842  18.243   9.453
 5579POPC   PO410428  33.776  18.312   9.153
 5579POPC   GL110429  33.808  18.256   8.853
 5579POPC   GL210430  33.825  18.402   8.853
 5579POPC   C1A10431  33.774  18.276   8.553
 5579POPC   D2A10432  33.777  18.328   8.253
 5579POPC   C3A10433  33.813  18.236   7.953
 5579POPC   C4A10434  33.824  18.264   7.653
 5579POPC   C1B10435  33.797  18.571   8.553
 5579POPC   C2B10436  33.779  18.508   8.253
 5579POPC   C3B10437  33.805  18.538   7.953
 5579POPC   C4B10438  33.760  18.545   7.653
 5580POPC   NC310439  31.470  25.245   9.453
 5580POPC   PO410440  31.439  25.299   9.153
 5580POPC   GL110441  31.490  25.248   8.853
 5580POPC   GL210442  31.382  25.289   8.853
 5580POPC   C1A10443  31.447  25.270   8.553
 5580POPC   D2A10444  31.430  25.307   8.253
 5580POPC   C3A10445  31.499  25.235   7.953
 5580POPC   C4A10446  31.487  25.244   7.653
 5580POPC   C1B10447  31.273  25.370   8.553
 5580POPC   C2B10448  31.229  25.402   8.253
 5580POPC   C3B10449  31.304  25.395   7.953
 5580POPC   C4B10450  31.251  25.399   7.653
 5581POPC   NC310451   6.641  34.611   9.453
 5581POPC   PO410452   6.614  34.567   9.153
 5581POPC   GL110453   6.630  34.563   8.853
 5581POPC   GL210454   6.568  34.590   8.853
 5581POPC   C1A10455   6.655  34.574   8.553
 5581POPC   D2A10456   6.610  34.578   8.253
 5581POPC   C3A10457   6.607  34.617   7.953
 5581POPC   C4A10458   6.690  34.609   7.653
 5581POPC   C1B10459   6.352  34.563   8.553
 5581POPC   C2B10460   6.380  34.595   8.253
 5581POPC   C3B10461   6.370  34.616   7.953
 5581POPC   C4B10462   6.350  34.613   7.653
 5582POPC   NC310463   3.547  20.585   9.453
 5582POPC   PO410464   3.543  20.582   9.153
 5582POPC   GL110465   3.555  20.641   8.853
 5582POPC   GL210466   3.670  20.615   8.853
 5582POPC   C1A10467   3.528  20.573   8.553
 5582POPC   D2A10468   3.590  20.565   8.253
 5582POPC   C3A10469   3.571  20.606   7.953
 5582POPC   C4A10470   3.540  20.654   7.653
 5582POPC   C1B10471   3.781  20.691   8.553
 5582POPC   C2B10472   3.762  20.668   8.253
 5582POPC   C3B10473   3.805  20.690   7.953
 5582POPC   C4B10474   3.796  20.704   7.653
 5583POPC   NC310475  16.691  36.927   9.453
 5583POPC   PO410476  16.716  36.906   9.153
 5583POPC   GL110477  16.778  36.939   8.853
 5583POPC   GL210478  16.661  36.824   8.853
 5583POPC   C1A10479  16.746  36.930   8.553
 5583POPC   D2A10480  16.713  36.950   8.253
 5583POPC   C3A10481  16.778  36.939   7.953
 5583POPC   C4A10482  16.757  36.944   7.653
 5583POPC   C1B10483  16.508  36.744   8.553
 5583POPC   C2B10484  16.522  36.754   8.253
 5583POPC   C3B10485  16.541  36.745   7.953
 5583POPC   C4B10486  16.534  36.797   7.653
 5584POPC   NC310487   7.444   0.453   9.453
 5584POPC   PO410488   7.396   0.472   9.153
 5584POPC   GL110489   7.428   0.419   8.853
 5584POPC   GL210490   7.327   0.309   8.853
 5584POPC   C1A10491   7.456   0.451   8.553
 5584POPC   D2A10492   7.386   0.436   8.253
 5584POPC   C3A10493   7.402   0.456   7.953
 5584POPC   C4A10494   7.384   0.466   7.653
 5584POPC   C1B10495   7.238   0.261   8.553
 5584POPC   C2B10496   7.245   0.213   8.253
 5584POPC   C3B10497   7.252   0.237   7.953
 5584POPC   C4B10498   7.320   0.205   7.653
 5585POPC   NC310499   6.675  36.908   9.453
 5585POPC   PO410500   6.641  36.872   9.153
 5585POPC   GL110501   6.609  36.929   8.853
 5585POPC   GL210502   6.563  37.021   8.853
 5585POPC   C1A10503   6.690  36.934   8.553
 5585POPC   D2A10504   6.605  36.928   8.253
 5585POPC   C3A10505   6.685  36.856   7.953
 5585POPC   C4A10506   6.600  36.950   7.653
 5585POPC   C1B10507   6.517  37.102   8.553
 5585POPC   C2B10508   6.553  37.140   8.253
 5585POPC   C3B10509   6.552  37.171   7.953
 5585POPC   C4B10510   6.551  37.160   7.653
 5586POPC   NC310511  11.330  15.130   9.453
 5586POPC   PO410512  11.269  15.185   9.153
 5586POPC   GL110513  11.265  15.190   8.853
 5586POPC   GL210514  11.380  15.295   8.853
 5586POPC   C1A10515  11.343  15.155   8.553
 5586POPC   D2A10516  11.302  15.150   8.253
 5586POPC   C3A10517  11.298  15.216   7.953
 5586POPC   C4A10518  11.327  15.148   7.653
 5586POPC   C1B10519  11.466  15.360   8.553
 5586POPC   C2B10520  11.473  15.366   8.253
 5586POPC   C3B10521  11.489  15.348   7.953
 5586POPC   C4B10522  11.513  15.368   7.653
 5587POPC   NC310523  14.403  40.782   9.453
 5587POPC   PO410524  14.361  40.759   9.153
 5587POPC   GL110525  14.401  40.766   8.853
 5587POPC   GL210526  14.263  40.750   8.853
 5587POPC   C1A10527  14.451  40.782   8.553
 5587POPC   D2A10528  14.391  40.753   8.253
 5587POPC   C3A10529  14.405  40.737   7.953
 5587POPC   C4A10530  14.386  40.775   7.653
 5587POPC   C1B10531  14.108  40.788   8.553
 5587POPC   C2B10532  14.146  40.772   8.253
 5587POPC   C3B10533  14.106  40.840   7.953
 5587POPC   C4B10534  14.123  40.827   7.653
 5588POPC   NC310535  43.061   7.420   9.453
 5588POPC   PO410536  43.124   7.386   9.153
 5588POPC   GL110537  43.143   7.400   8.853
 5588POPC   GL210538  43.025   7.457   8.853
 5588POPC   C1A10539  43.112   7.396   8.553
 5588POPC   D2A10540  43.109   7.396   8.253
 5588POPC   C3A10541  43.099   7.419   7.953
 5588POPC   C4A10542  43.094   7.406   7.653
 5588POPC   C1B10543  42.872   7.453   8.553
 5588POPC   C2B10544  42.891   7.371   8.253
 5588POPC   C3B10545  42.814   7.398   7.953
 5588POPC   C4B10546  42.841   7.460   7.653
 5589POPC   NC310547  24.473  36.947   9.453
 5589POPC   PO410548  24.538  36.923   9.153
 5589POPC   GL110549  24.462  36.865   8.853
 5589POPC   GL210550  24.400  36.817   8.853
 5589POPC   C1A10551  24.510  36.866   8.553
 5589POPC   D2A10552  24.449  36.858   8.253
 5589POPC   C3A10553  24.478  36.877   7.953
 5589POPC   C4A10554  24.447  36.913   7.653
 5589POPC   C1B10555  24.261  36.789   8.553
 5589POPC   C2B10556  24.229  36.841   8.253
 5589POPC   C3B10557  24.285  36.801   7.953
 5589POPC   C4B10558  24.302  36.809   7.653
 5590POPC   NC310559  40.777   9.741   9.453
 5590POPC   PO410560  40.752   9.785   9.153
 5590POPC   GL110561  40.741   9.712   8.853
 5590POPC   GL210562  40.675   9.661   8.853
 5590POPC   C1A10563  40.815   9.720   8.553
 5590POPC   D2A10564  40.785   9.767   8.253
 5590POPC   C3A10565  40.756   9.768   7.953
 5590POPC   C4A10566  40.826   9.766   7.653
 5590POPC   C1B10567  40.534   9.556   8.553
 5590POPC   C2B10568  40.532   9.611   8.253
 5590POPC   C3B10569  40.611   9.626   7.953
 5590POPC   C4B10570  40.588   9.590   7.653
 5591POPC   NC310571   4.326  12.103   9.453
 5591POPC   PO410572   4.276  12.060   9.153
 5591POPC   GL110573   4.364  12.073   8.853
 5591POPC   GL210574   4.346  12.232   8.853
 5591POPC   C1A10575   4.348  12.097   8.553
 5591POPC   D2A10576   4.365  12.033   8.253
 5591POPC   C3A10577   4.305  12.079   7.953
 5591POPC   C4A10578   4.281  12.085   7.653
 5591POPC   C1B10579   4.415  12.332   8.553
 5591POPC   C2B10580   4.448  12.317   8.253
 5591POPC   C3B10581   4.404  12.331   7.953
 5591POPC   C4B10582   4.386  12.332   7.653
 5592POPC   NC310583  24.443  39.277   9.453
 5592POPC   PO410584  24.486  39.190   9.153
 5592POPC   GL110585  24.484  39.184   8.853
 5592POPC   GL210586  24.592  39.180   8.853
 5592POPC   C1A10587  24.484  39.278   8.553
 5592POPC   D2A10588  24.460  39.250   8.253
 5592POPC   C3A10589  24.535  39.229   7.953
 5592POPC   C4A10590  24.443  39.210   7.653
 5592POPC   C1B10591  24.727  39.143   8.553
 5592POPC   C2B10592  24.752  39.177   8.253
 5592POPC   C3B10593  24.731  39.147   7.953
 5592POPC   C4B10594  24.727  39.163   7.653
 5593POPC   NC310595  40.040  30.742   9.453
 5593POPC   PO410596  40.039  30.651   9.153
 5593POPC   GL110597  40.030  30.712   8.853
 5593POPC   GL210598  39.936  30.775   8.853
 5593POPC   C1A10599  40.004  30.688   8.553
 5593POPC   D2A10600  39.986  30.710   8.253
 5593POPC   C3A10601  39.975  30.696   7.953
 5593POPC   C4A10602  39.960  30.704   7.653
 5593POPC   C1B10603  39.776  30.799   8.553
 5593POPC   C2B10604  39.830  30.809   8.253
 5593POPC   C3B10605  39.853  30.835   7.953
 5593POPC   C4B10606  39.822  30.839   7.653
 5594POPC   NC310607  18.279  10.502   9.453
 5594POPC   PO410608  18.316  10.501   9.153
 5594POPC   GL110609  18.278  10.482   8.853
 5594POPC   GL210610  18.189  10.659   8.853
 5594POPC   C1A10611  18.292  10.497   8.553
 5594POPC   D2A10612  18.312  10.489   8.253
 5594POPC   C3A10613  18.274  10.568   7.953
 5594POPC   C4A10614  18.250  10.529   7.653
 5594POPC   C1B10615  18.140  10.782   8.553
 5594POPC   C2B10616  18.113  10.711   8.253
 5594POPC   C3B10617  18.103  10.774   7.953
 5594POPC   C4B10618  18.138  10.762   7.653
 5595POPC   NC310619  36.906  15.155   9.453
 5595POPC   PO410620  36.868  15.217   9.153
 5595POPC   GL110621  36.938  15.172   8.853
 5595POPC   GL210622  36.801  15.322   8.853
 5595POPC   C1A10623  36.897  15.171   8.553
 5595POPC   D2A10624  36.940  15.226   8.253
 5595POPC   C3A10625  36.944  15.210   7.953
 5595POPC   C4A10626  36.896  15.203   7.653
 5595POPC   C1B10627  36.798  15.384   8.553
 5595POPC   C2B10628  36.795  15.392   8.253
 5595POPC   C3B10629  36.819  15.443   7.953
 5595POPC   C4B10630  36.806  15.420   7.653
 5596POPC   NC310631  25.266  43.928   9.453
 5596POPC   PO410632  25.314  43.848   9.153
 5596POPC   GL110633  25.265  43.901   8.853
 5596POPC   GL210634  25.358  43.784   8.853
 5596POPC   C1A10635  25.241  43.881   8.553
 5596POPC   D2A10636  25.275  43.874   8.253
 5596POPC   C3A10637  25.307  43.894   7.953
 5596POPC   C4A10638  25.238  43.850   7.653
 5596POPC   C1B10639  25.369  43.621   8.553
 5596POPC   C2B10640  25.350  43.691   8.253
 5596POPC   C3B10641  25.324  43.699   7.953
 5596POPC   C4B10642  25.390  43.672   7.653
 5597POPC   NC310643  19.044   5.097   9.453
 5597POPC   PO410644  19.054   5.066   9.153
 5597POPC   GL110645  19.033   5.092   8.853
 5597POPC   GL210646  19.113   5.167   8.853
 5597POPC   C1A10647  19.032   5.055   8.553
 5597POPC   D2A10648  19.075   5.052   8.253
 5597POPC   C3A10649  19.101   5.067   7.953
 5597POPC   C4A10650  19.026   5.060   7.653
 5597POPC   C1B10651  19.065   5.316   8.553
 5597POPC   C2B10652  19.079   5.370   8.253
 5597POPC   C3B10653  19.098   5.367   7.953
 5597POPC   C4B10654  19.158   5.330   7.653
 5598POPC   NC310655  13.614  28.416   9.453
 5598POPC   PO410656  13.642  28.410   9.153
 5598POPC   GL110657  13.652  28.354   8.853
 5598POPC   GL210658  13.655  28.526   8.853
 5598POPC   C1A10659  13.603  28.376   8.553
 5598POPC   D2A10660  13.635  28.393   8.253
 5598POPC   C3A10661  13.673  28.347   7.953
 5598POPC   C4A10662  13.655  28.352   7.653
 5598POPC   C1B10663  13.699  28.650   8.553
 5598POPC   C2B10664  13.733  28.615   8.253
 5598POPC   C3B10665  13.738  28.562   7.953
 5598POPC   C4B10666  13.725  28.648   7.653
 5599POPC   NC310667  41.596   2.748   9.453
 5599POPC   PO410668  41.520   2.771   9.153
 5599POPC   GL110669  41.586   2.774   8.853
 5599POPC   GL210670  41.636   2.879   8.853
 5599POPC   C1A10671  41.559   2.750   8.553
 5599POPC   D2A10672  41.566   2.788   8.253
 5599POPC   C3A10673  41.517   2.798   7.953
 5599POPC   C4A10674  41.565   2.733   7.653
 5599POPC   C1B10675  41.668   2.972   8.553
 5599POPC   C2B10676  41.660   3.002   8.253
 5599POPC   C3B10677  41.710   2.934   7.953
 5599POPC   C4B10678  41.715   3.020   7.653
 5600POPC   NC310679  12.030  39.957   9.453
 5600POPC   PO410680  12.027  40.041   9.153
 5600POPC   GL110681  12.088  40.056   8.853
 5600POPC   GL210682  12.031  39.866   8.853
 5600POPC   C1A10683  12.049  40.047   8.553
 5600POPC   D2A10684  12.089  39.987   8.253
 5600POPC   C3A10685  12.064  40.005   7.953
 5600POPC   C4A10686  12.049  40.028   7.653
 5600POPC   C1B10687  12.044  39.724   8.553
 5600POPC   C2B10688  12.055  39.736   8.253
 5600POPC   C3B10689  11.988  39.736   7.953
 5600POPC   C4B10690  12.038  39.812   7.653
 5601POPC   NC310691  24.476  27.618   9.453
 5601POPC   PO410692  24.443  27.637   9.153
 5601POPC   GL110693  24.473  27.602   8.853
 5601POPC   GL210694  24.508  27.437   8.853
 5601POPC   C1A10695  24.467  27.553   8.553
 5601POPC   D2A10696  24.484  27.636   8.253
 5601POPC   C3A10697  24.485  27.618   7.953
 5601POPC   C4A10698  24.534  27.587   7.653
 5601POPC   C1B10699  24.537  27.318   8.553
 5601POPC   C2B10700  24.563  27.357   8.253
 5601POPC   C3B10701  24.569  27.326   7.953
 5601POPC   C4B10702  24.566  27.371   7.653
 5602POPC   NC310703  43.922  33.066   9.453
 5602POPC   PO410704  43.852  33.034   9.153
 5602POPC   GL110705  43.868  33.060   8.853
 5602POPC   GL210706  43.815  33.110   8.853
 5602POPC   C1A10707  43.871  33.030   8.553
 5602POPC   D2A10708  43.913  33.035   8.253
 5602POPC   C3A10709  43.909  33.028   7.953
 5602POPC   C4A10710  43.885  33.037   7.653
 5602POPC   C1B10711  43.778  33.258   8.553
 5602POPC   C2B10712  43.772  33.242   8.253
 5602POPC   C3B10713  43.780  33.251   7.953
 5602POPC   C4B10714  43.800  33.262   7.653
 5603POPC   NC310715  20.578  11.318   9.453
 5603POPC   PO410716  20.643  11.316   9.153
 5603POPC   GL110717  20.562  11.349   8.853
 5603POPC   GL210718  20.679  11.209   8.853
 5603POPC   C1A10719  20.575  11.332   8.553
 5603POPC   D2A10720  20.641  11.299   8.253
 5603POPC   C3A10721  20.564  11.347   7.953
 5603POPC   C4A10722  20.635  11.327   7.653
 5603POPC   C1B10723  20.808  11.171   8.553
 5603POPC   C2B10724  20.810  11.174   8.253
 5603POPC   C3B10725  20.855  11.186   7.953
 5603POPC   C4B10726  20.835  11.214   7.653
 5604POPC   NC310727  10.492  41.556   9.453
 5604POPC   PO410728  10.565  41.544   9.153
 5604POPC   GL110729  10.555  41.558   8.853
 5604POPC   GL210730  10.526  41.430   8.853
 5604POPC   C1A10731  10.507  41.572   8.553
 5604POPC   D2A10732  10.486  41.584   8.253
 5604POPC   C3A10733  10.524  41.587   7.953
 5604POPC   C4A10734  10.536  41.607   7.653
 5604POPC   C1B10735  10.611  41.356   8.553
 5604POPC   C2B10736  10.551  41.348   8.253
 5604POPC   C3B10737  10.579  41.313   7.953
 5604POPC   C4B10738  10.579  41.346   7.653
 5605POPC   NC310739  13.662  29.187   9.453
 5605POPC   PO410740  13.668  29.113   9.153
 5605POPC   GL110741  13.678  29.135   8.853
 5605POPC   GL210742  13.709  29.040   8.853
 5605POPC   C1A10743  13.652  29.188   8.553
 5605POPC   D2A10744  13.668  29.192   8.253
 5605POPC   C3A10745  13.666  29.112   7.953
 5605POPC   C4A10746  13.669  29.115   7.653
 5605POPC   C1B10747  13.714  28.923   8.553
 5605POPC   C2B10748  13.762  28.967   8.253
 5605POPC   C3B10749  13.719  28.933   7.953
 5605POPC   C4B10750  13.699  28.929   7.653
 5606POPC   NC310751  43.934  31.456   9.453
 5606POPC   PO410752  43.901  31.513   9.153
 5606POPC   GL110753  43.891  31.470   8.853
 5606POPC   GL210754  43.841  31.604   8.853
 5606POPC   C1A10755  43.865  31.440   8.553
 5606POPC   D2A10756  43.911  31.465   8.253
 5606POPC   C3A10757  43.924  31.446   7.953
 5606POPC   C4A10758  43.859  31.444   7.653
 5606POPC   C1B10759  43.701  31.702   8.553
 5606POPC   C2B10760  43.724  31.648   8.253
 5606POPC   C3B10761  43.707  31.655   7.953
 5606POPC   C4B10762  43.771  31.694   7.653
 5607POPC   NC310763  22.900   5.831   9.453
 5607POPC   PO410764  22.899   5.849   9.153
 5607POPC   GL110765  22.986   5.874   8.853
 5607POPC   GL210766  23.109   5.849   8.853
 5607POPC   C1A10767  22.986   5.825   8.553
 5607POPC   D2A10768  22.967   5.853   8.253
 5607POPC   C3A10769  22.905   5.877   7.953
 5607POPC   C4A10770  22.976   5.821   7.653
 5607POPC   C1B10771  23.189   5.907   8.553
 5607POPC   C2B10772  23.176   5.845   8.253
 5607POPC   C3B10773  23.187   5.823   7.953
 5607POPC   C4B10774  23.223   5.904   7.653
 5608POPC   NC310775  22.193   0.422   9.453
 5608POPC   PO410776  22.163   0.390   9.153
 5608POPC   GL110777  22.123   0.395   8.853
 5608POPC   GL210778  22.173   0.337   8.853
 5608POPC   C1A10779  22.172   0.426   8.553
 5608POPC   D2A10780  22.164   0.399   8.253
 5608POPC   C3A10781  22.163   0.480   7.953
 5608POPC   C4A10782  22.123   0.481   7.653
 5608POPC   C1B10783  22.242   0.221   8.553
 5608POPC   C2B10784  22.319   0.242   8.253
 5608POPC   C3B10785  22.329   0.220   7.953
 5608POPC   C4B10786  22.232   0.265   7.653
 5609POPC   NC310787  39.206  39.211   9.453
 5609POPC   PO410788  39.229  39.207   9.153
 5609POPC   GL110789  39.194  39.265   8.853
 5609POPC   GL210790  39.163  39.254   8.853
 5609POPC   C1A10791  39.267  39.196   8.553
 5609POPC   D2A10792  39.246  39.182   8.253
 5609POPC   C3A10793  39.277  39.270   7.953
 5609POPC   C4A10794  39.245  39.207   7.653
 5609POPC   C1B10795  39.007  39.311   8.553
 5609POPC   C2B10796  38.967  39.293   8.253
 5609POPC   C3B10797  39.011  39.348   7.953
 5609POPC   C4B10798  39.026  39.327   7.653
 5610POPC   NC310799   2.811   6.664   9.453
 5610POPC   PO410800   2.812   6.643   9.153
 5610POPC   GL110801   2.814   6.595   8.853
 5610POPC   GL210802   2.717   6.723   8.853
 5610POPC   C1A10803   2.808   6.689   8.553
 5610POPC   D2A10804   2.761   6.619   8.253
 5610POPC   C3A10805   2.783   6.685   7.953
 5610POPC   C4A10806   2.738   6.642   7.653
 5610POPC   C1B10807   2.613   6.849   8.553
 5610POPC   C2B10808   2.615   6.796   8.253
 5610POPC   C3B10809   2.640   6.806   7.953
 5610POPC   C4B10810   2.564   6.829   7.653
 5611POPC   NC310811  14.362  12.055   9.453
 5611POPC   PO410812  14.410  12.027   9.153
 5611POPC   GL110813  14.390  12.038   8.853
 5611POPC   GL210814  14.377  11.904   8.853
 5611POPC   C1A10815  14.390  12.033   8.553
 5611POPC   D2A10816  14.375  12.085   8.253
 5611POPC   C3A10817  14.365  12.056   7.953
 5611POPC   C4A10818  14.377  12.104   7.653
 5611POPC   C1B10819  14.386  11.781   8.553
 5611POPC   C2B10820  14.461  11.786   8.253
 5611POPC   C3B10821  14.401  11.825   7.953
 5611POPC   C4B10822  14.447  11.868   7.653
 5612POPC   NC310823   5.119  43.907   9.453
 5612POPC   PO410824   5.081  43.926   9.153
 5612POPC   GL110825   5.053  43.928   8.853
 5612POPC   GL210826   4.951  43.918   8.853
 5612POPC   C1A10827   5.074  43.919   8.553
 5612POPC   D2A10828   5.048  43.935   8.253
 5612POPC   C3A10829   5.051  43.905   7.953
 5612POPC   C4A10830   5.131  43.884   7.653
 5612POPC   C1B10831   4.842  44.002   8.553
 5612POPC   C2B10832   4.931  44.078   8.253
 5612POPC   C3B10833   4.877  44.030   7.953
 5612POPC   C4B10834   4.936  44.034   7.653
 5613POPC   NC310835  12.820  44.636   9.453
 5613POPC   PO410836  12.808  44.621   9.153
 5613POPC   GL110837  12.876  44.652   8.853
 5613POPC   GL210838  12.885  44.550   8.853
 5613POPC   C1A10839  12.872  44.708   8.553
 5613POPC   D2A10840  12.890  44.709   8.253
 5613POPC   C3A10841  12.862  44.696   7.953
 5613POPC   C4A10842  12.877  44.625   7.653
 5613POPC   C1B10843  12.902  44.444   8.553
 5613POPC   C2B10844  12.962  44.459   8.253
 5613POPC   C3B10845  12.975  44.418   7.953
 5613POPC   C4B10846  12.915  44.470   7.653
 5614POPC   NC310847  23.748   7.389   9.453
 5614POPC   PO410848  23.750   7.445   9.153
 5614POPC   GL110849  23.687   7.403   8.853
 5614POPC   GL210850  23.757   7.568   8.853
 5614POPC   C1A10851  23.710   7.466   8.553
 5614POPC   D2A10852  23.701   7.418   8.253
 5614POPC   C3A10853  23.724   7.427   7.953
 5614POPC   C4A10854  23.716   7.400   7.653
 5614POPC   C1B10855  23.733   7.655   8.553
 5614POPC   C2B10856  23.711   7.675   8.253
 5614POPC   C3B10857  23.746   7.714   7.953
 5614POPC   C4B10858  23.777   7.639   7.653
 5615POPC   NC310859   5.085  28.399   9.453
 5615POPC   PO410860   5.125  28.405   9.153
 5615POPC   GL110861   5.093  28.335   8.853
 5615POPC   GL210862   5.220  28.328   8.853
 5615POPC   C1A10863   5.044  28.406   8.553
 5615POPC   D2A10864   5.059  28.417   8.253
 5615POPC   C3A10865   5.047  28.409   7.953
 5615POPC   C4A10866   5.117  28.324   7.653
 5615POPC   C1B10867   5.230  28.250   8.553
 5615POPC   C2B10868   5.235  28.244   8.253
 5615POPC   C3B10869   5.234  28.208   7.953
 5615POPC   C4B10870   5.327  28.195   7.653
 5616POPC   NC310871   7.390  22.205   9.453
 5616POPC   PO410872   7.442  22.133   9.153
 5616POPC   GL110873   7.408  22.186   8.853
 5616POPC   GL210874   7.363  22.096   8.853
 5616POPC   C1A10875   7.399  22.210   8.553
 5616POPC   D2A10876   7.394  22.135   8.253
 5616POPC   C3A10877   7.390  22.196   7.953
 5616POPC   C4A10878   7.401  22.159   7.653
 5616POPC   C1B10879   7.323  21.920   8.553
 5616POPC   C2B10880   7.292  21.910   8.253
 5616POPC   C3B10881   7.317  21.962   7.953
 5616POPC   C4B10882   7.286  21.948   7.653
 5617POPC   NC310883  30.651  36.920   9.453
 5617POPC   PO410884  30.691  36.883   9.153
 5617POPC   GL110885  30.711  36.875   8.853
 5617POPC   GL210886  30.696  36.812   8.853
 5617POPC   C1A10887  30.657  36.924   8.553
 5617POPC   D2A10888  30.684  36.910   8.253
 5617POPC   C3A10889  30.744  36.906   7.953
 5617POPC   C4A10890  30.702  36.941   7.653
 5617POPC   C1B10891  30.720  36.683   8.553
 5617POPC   C2B10892  30.748  36.636   8.253
 5617POPC   C3B10893  30.764  36.691   7.953
 5617POPC   C4B10894  30.744  36.672   7.653
 5618POPC   NC310895  21.423  12.092   9.453
 5618POPC   PO410896  21.414  12.054   9.153
 5618POPC   GL110897  21.389  12.061   8.853
 5618POPC   GL210898  21.398  11.983   8.853
 5618POPC   C1A10899  21.426  12.123   8.553
 5618POPC   D2A10900  21.411  12.064   8.253
 5618POPC   C3A10901  21.398  12.076   7.953
 5618POPC   C4A10902  21.402  12.106   7.653
 5618POPC   C1B10903  21.372  11.820   8.553
 5618POPC   C2B10904  21.375  11.843   8.253
 5618POPC   C3B10905  21.394  11.826   7.953
 5618POPC   C4B10906  21.455  11.841   7.653
 5619POPC   NC310907  44.648  12.068   9.453
 5619POPC   PO410908  44.667  12.119   9.153
 5619POPC   GL110909  44.648  12.046   8.853
 5619POPC   GL210910  44.776  12.086   8.853
 5619POPC   C1A10911  44.686  12.118   8.553
 5619POPC   D2A10912  44.647  12.078   8.253
 5619POPC   C3A10913  44.710  12.049   7.953
 5619POPC   C4A10914  44.656  12.093   7.653
 5619POPC   C1B10915  44.935  12.122   8.553
 5619POPC   C2B10916  44.865  12.110   8.253
 5619POPC   C3B10917  44.906  12.124   7.953
 5619POPC   C4B10918  44.867  12.104   7.653
 5620POPC   NC310919  10.555  37.698   9.453
 5620POPC   PO410920  10.567  37.681   9.153
 5620POPC   GL110921  10.482  37.689   8.853
 5620POPC   GL210922  10.533  37.539   8.853
 5620POPC   C1A10923  10.529  37.684   8.553
 5620POPC   D2A10924  10.496  37.676   8.253
 5620POPC   C3A10925  10.553  37.692   7.953
 5620POPC   C4A10926  10.482  37.634   7.653
 5620POPC   C1B10927  10.467  37.395   8.553
 5620POPC   C2B10928  10.488  37.427   8.253
 5620POPC   C3B10929  10.449  37.430   7.953
 5620POPC   C4B10930  10.437  37.393   7.653
 5621POPC   NC310931  39.985  12.038   9.453
 5621POPC   PO410932  39.969  12.095   9.153
 5621POPC   GL110933  39.971  12.093   8.853
 5621POPC   GL210934  40.049  12.224   8.853
 5621POPC   C1A10935  40.051  12.107   8.553
 5621POPC   D2A10936  39.962  12.057   8.253
 5621POPC   C3A10937  40.041  12.119   7.953
 5621POPC   C4A10938  40.009  12.094   7.653
 5621POPC   C1B10939  40.113  12.293   8.553
 5621POPC   C2B10940  40.164  12.291   8.253
 5621POPC   C3B10941  40.105  12.277   7.953
 5621POPC   C4B10942  40.180  12.308   7.653
 5622POPC   NC310943  15.199   9.705   9.453
 5622POPC   PO410944  15.207   9.766   9.153
 5622POPC   GL110945  15.165   9.768   8.853
 5622POPC   GL210946  15.193   9.644   8.853
 5622POPC   C1A10947  15.229   9.701   8.553
 5622POPC   D2A10948  15.176   9.700   8.253
 5622POPC   C3A10949  15.215   9.743   7.953
 5622POPC   C4A10950  15.222   9.792   7.653
 5622POPC   C1B10951  15.145   9.515   8.553
 5622POPC   C2B10952  15.109   9.498   8.253
 5622POPC   C3B10953  15.108   9.478   7.953
 5622POPC   C4B10954  15.128   9.544   7.653
 5623POPC   NC310955   7.419  32.990   9.453
 5623POPC   PO410956   7.402  32.977   9.153
 5623POPC   GL110957   7.388  33.004   8.853
 5623POPC   GL210958   7.415  33.111   8.853
 5623POPC   C1A10959   7.406  33.052   8.553
 5623POPC   D2A10960   7.401  33.029   8.253
 5623POPC   C3A10961   7.380  33.032   7.953
 5623POPC   C4A10962   7.384  33.063   7.653
 5623POPC   C1B10963   7.483  33.273   8.553
 5623POPC   C2B10964   7.465  33.232   8.253
 5623POPC   C3B10965   7.497  33.224   7.953
 5623POPC   C4B10966   7.442  33.267   7.653
 5624POPC   NC310967   9.725   4.277   9.453
 5624POPC   PO410968   9.791   4.295   9.153
 5624POPC   GL110969   9.720   4.304   8.853
 5624POPC   GL210970   9.747   4.179   8.853
 5624POPC   C1A10971   9.756   4.322   8.553
 5624POPC   D2A10972   9.750   4.335   8.253
 5624POPC   C3A10973   9.751   4.360   7.953
 5624POPC   C4A10974   9.707   4.302   7.653
 5624POPC   C1B10975   9.830   4.096   8.553
 5624POPC   C2B10976   9.776   4.027   8.253
 5624POPC   C3B10977   9.801   4.084   7.953
 5624POPC   C4B10978   9.790   4.059   7.653
 5625POPC   NC310979   7.418  44.639   9.453
 5625POPC   PO410980   7.452  44.652   9.153
 5625POPC   GL110981   7.458  44.710   8.853
 5625POPC   GL210982   7.269  44.682   8.853
 5625POPC   C1A10983   7.460  44.615   8.553
 5625POPC   D2A10984   7.412  44.619   8.253
 5625POPC   C3A10985   7.391  44.621   7.953
 5625POPC   C4A10986   7.375  44.641   7.653
 5625POPC   C1B10987   7.184  44.618   8.553
 5625POPC   C2B10988   7.225  44.612   8.253
 5625POPC   C3B10989   7.172  44.632   7.953
 5625POPC   C4B10990   7.211  44.632   7.653
 5626POPC   NC310991  20.621   6.694   9.453
 5626POPC   PO410992  20.623   6.613   9.153
 5626POPC   GL110993  20.567   6.599   8.853
 5626POPC   GL210994  20.729   6.604   8.853
 5626POPC   C1A10995  20.580   6.628   8.553
 5626POPC   D2A10996  20.570   6.598   8.253
 5626POPC   C3A10997  20.614   6.657   7.953
 5626POPC   C4A10998  20.618   6.651   7.653
 5626POPC   C1B10999  20.815   6.461   8.553
 5626POPC   C2B11000  20.781   6.445   8.253
 5626POPC   C3B11001  20.748   6.486   7.953
 5626POPC   C4B11002  20.813   6.463   7.653
 5627POPC   NC311003  36.931  19.032   9.453
 5627POPC   PO411004  36.870  19.075   9.153
 5627POPC   GL111005  36.909  19.106   8.853
 5627POPC   GL211006  36.909  18.890   8.853
 5627POPC   C1A11007  36.886  19.061   8.553
 5627POPC   D2A11008  36.871  19.106   8.253
 5627POPC   C3A11009  36.924  19.045   7.953
 5627POPC   C4A11010  36.854  19.084   7.653
 5627POPC   C1B11011  36.843  18.785   8.553
 5627POPC   C2B11012  36.902  18.811   8.253
 5627POPC   C3B11013  36.918  18.831   7.953
 5627POPC   C4B11014  36.895  18.792   7.653
 5628POPC   NC311015   8.162   2.005   9.453
 5628POPC   PO411016   8.186   2.020   9.153
 5628POPC   GL111017   8.187   2.012   8.853
 5628POPC   GL211018   8.192   2.109   8.853
 5628POPC   C1A11019   8.235   1.955   8.553
 5628POPC   D2A11020   8.161   1.960   8.253
 5628POPC   C3A11021   8.162   1.972   7.953
 5628POPC   C4A11022   8.213   1.975   7.653
 5628POPC   C1B11023   8.182   2.254   8.553
 5628POPC   C2B11024   8.221   2.251   8.253
 5628POPC   C3B11025   8.187   2.214   7.953
 5628POPC   C4B11026   8.217   2.270   7.653
 5629POPC   NC311027   5.106   1.976   9.453
 5629POPC   PO411028   5.099   1.973   9.153
 5629POPC   GL111029   5.141   2.013   8.853
 5629POPC   GL211030   5.067   2.151   8.853
 5629POPC   C1A11031   5.108   1.997   8.553
 5629POPC   D2A11032   5.084   1.970   8.253
 5629POPC   C3A11033   5.084   1.940   7.953
 5629POPC   C4A11034   5.068   2.005   7.653
 5629POPC   C1B11035   5.080   2.265   8.553
 5629POPC   C2B11036   5.069   2.253   8.253
 5629POPC   C3B11037   5.122   2.253   7.953
 5629POPC   C4B11038   5.138   2.209   7.653
 5630POPC   NC311039  20.562  23.731   9.453
 5630POPC   PO411040  20.567  23.680   9.153
 5630POPC   GL111041  20.639  23.729   8.853
 5630POPC   GL211042  20.667  23.636   8.853
 5630POPC   C1A11043  20.580  23.701   8.553
 5630POPC   D2A11044  20.609  23.721   8.253
 5630POPC   C3A11045  20.578  23.709   7.953
 5630POPC   C4A11046  20.652  23.742   7.653
 5630POPC   C1B11047  20.699  23.482   8.553
 5630POPC   C2B11048  20.668  23.522   8.253
 5630POPC   C3B11049  20.677  23.513   7.953
 5630POPC   C4B11050  20.681  23.530   7.653
 5631POPC   NC311051  24.533   2.731   9.453
 5631POPC   PO411052  24.467   2.727   9.153
 5631POPC   GL111053  24.472   2.786   8.853
 5631POPC   GL211054  24.567   2.862   8.853
 5631POPC   C1A11055  24.519   2.732   8.553
 5631POPC   D2A11056  24.527   2.815   8.253
 5631POPC   C3A11057  24.509   2.760   7.953
 5631POPC   C4A11058  24.526   2.779   7.653
 5631POPC   C1B11059  24.562   2.970   8.553
 5631POPC   C2B11060  24.509   3.022   8.253
 5631POPC   C3B11061  24.556   2.995   7.953
 5631POPC   C4B11062  24.587   3.046   7.653
 5632POPC   NC311063  42.366   1.997   9.453
 5632POPC   PO411064  42.294   2.028   9.153
 5632POPC   GL111065  42.314   2.033   8.853
 5632POPC   GL211066  42.295   1.924   8.853
 5632POPC   C1A11067  42.302   2.034   8.553
 5632POPC   D2A11068  42.290   1.950   8.253
 5632POPC   C3A11069  42.302   1.980   7.953
 5632POPC   C4A11070  42.362   1.960   7.653
 5632POPC   C1B11071  42.194   1.841   8.553
 5632POPC   C2B11072  42.163   1.802   8.253
 5632POPC   C3B11073  42.140   1.793   7.953
 5632POPC   C4B11074  42.135   1.759   7.653
 5633POPC   NC311075  37.632   9.763   9.453
 5633POPC   PO411076  37.654   9.701   9.153
 5633POPC   GL111077  37.728   9.752   8.853
 5633POPC   GL211078  37.632   9.880   8.853
 5633POPC   C1A11079  37.687   9.700   8.553
 5633POPC   D2A11080  37.703   9.739   8.253
 5633POPC   C3A11081  37.675   9.773   7.953
 5633POPC   C4A11082  37.705   9.783   7.653
 5633POPC   C1B11083  37.529  10.001   8.553
 5633POPC   C2B11084  37.535   9.993   8.253
 5633POPC   C3B11085  37.563  10.015   7.953
 5633POPC   C4B11086  37.584  10.011   7.653
 5634POPC   NC311087  38.459   7.418   9.453
 5634POPC   PO411088  38.454   7.375   9.153
 5634POPC   GL111089  38.463   7.439   8.853
 5634POPC   GL211090  38.325   7.472   8.853
 5634POPC   C1A11091  38.427   7.438   8.553
 5634POPC   D2A11092  38.405   7.399   8.253
 5634POPC   C3A11093  38.440   7.386   7.953
 5634POPC   C4A11094  38.443   7.379   7.653
 5634POPC   C1B11095  38.220   7.393   8.553
 5634POPC   C2B11096  38.193   7.445   8.253
 5634POPC   C3B11097  38.198   7.414   7.953
 5634POPC   C4B11098  38.189   7.429   7.653
 5635POPC   NC311099  11.303  32.980   9.453
 5635POPC   PO411100  11.277  33.009   9.153
 5635POPC   GL111101  11.259  33.044   8.853
 5635POPC   GL211102  11.143  33.009   8.853
 5635POPC   C1A11103  11.309  33.047   8.553
 5635POPC   D2A11104  11.272  33.054   8.253
 5635POPC   C3A11105  11.329  33.066   7.953
 5635POPC   C4A11106  11.293  33.060   7.653
 5635POPC   C1B11107  11.029  32.910   8.553
 5635POPC   C2B11108  11.052  32.962   8.253
 5635POPC   C3B11109  11.025  32.888   7.953
 5635POPC   C4B11110  11.034  32.956   7.653
 5636POPC   NC311111  20.643  26.864   9.453
 5636POPC   PO411112  20.585  26.841   9.153
 5636POPC   GL111113  20.601  26.805   8.853
 5636POPC   GL211114  20.485  26.771   8.853
 5636POPC   C1A11115  20.657  26.847   8.553
 5636POPC   D2A11116  20.582  26.833   8.253
 5636POPC   C3A11117  20.654  26.847   7.953
 5636POPC   C4A11118  20.597  26.843   7.653
 5636POPC   C1B11119  20.421  26.660   8.553
 5636POPC   C2B11120  20.464  26.657   8.253
 5636POPC   C3B11121  20.444  26.667   7.953
 5636POPC   C4B11122  20.472  26.614   7.653
 5637POPC   NC311123   7.400  11.277   9.453
 5637POPC   PO411124   7.451  11.349   9.153
 5637POPC   GL111125   7.395  11.300   8.853
 5637POPC   GL211126   7.493  11.294   8.853
 5637POPC   C1A11127   7.373  11.292   8.553
 5637POPC   D2A11128   7.470  11.287   8.253
 5637POPC   C3A11129   7.469  11.331   7.953
 5637POPC   C4A11130   7.381  11.297   7.653
 5637POPC   C1B11131   7.651  11.240   8.553
 5637POPC   C2B11132   7.670  11.251   8.253
 5637POPC   C3B11133   7.666  11.200   7.953
 5637POPC   C4B11134   7.681  11.168   7.653
 5638POPC   NC311135  40.739  25.241   9.453
 5638POPC   PO411136  40.733  25.221   9.153
 5638POPC   GL111137  40.804  25.238   8.853
 5638POPC   GL211138  40.724  25.145   8.853
 5638POPC   C1A11139  40.745  25.222   8.553
 5638POPC   D2A11140  40.749  25.263   8.253
 5638POPC   C3A11141  40.813  25.252   7.953
 5638POPC   C4A11142  40.748  25.238   7.653
 5638POPC   C1B11143  40.620  25.049   8.553
 5638POPC   C2B11144  40.593  25.088   8.253
 5638POPC   C3B11145  40.614  25.067   7.953
 5638POPC   C4B11146  40.637  25.058   7.653
 5639POPC   NC311147  21.433   1.214   9.453
 5639POPC   PO411148  21.398   1.254   9.153
 5639POPC   GL111149  21.400   1.234   8.853
 5639POPC   GL211150  21.452   1.078   8.853
 5639POPC   C1A11151  21.395   1.173   8.553
 5639POPC   D2A11152  21.425   1.215   8.253
 5639POPC   C3A11153  21.347   1.229   7.953
 5639POPC   C4A11154  21.336   1.167   7.653
 5639POPC   C1B11155  21.528   0.943   8.553
 5639POPC   C2B11156  21.515   1.028   8.253
 5639POPC   C3B11157  21.446   0.955   7.953
 5639POPC   C4B11158  21.527   0.987   7.653
 5640POPC   NC311159   2.805  17.534   9.453
 5640POPC   PO411160   2.785  17.506   9.153
 5640POPC   GL111161   2.735  17.519   8.853
 5640POPC   GL211162   2.841  17.495   8.853
 5640POPC   C1A11163   2.719  17.514   8.553
 5640POPC   D2A11164   2.770  17.464   8.253
 5640POPC   C3A11165   2.784  17.556   7.953
 5640POPC   C4A11166   2.762  17.489   7.653
 5640POPC   C1B11167   3.007  17.526   8.553
 5640POPC   C2B11168   3.020  17.571   8.253
 5640POPC   C3B11169   2.975  17.563   7.953
 5640POPC   C4B11170   3.054  17.518   7.653
 5641POPC   NC311171  28.370  32.271   9.453
 5641POPC   PO411172  28.353  32.280   9.153
 5641POPC   GL111173  28.335  32.285   8.853
 5641POPC   GL211174  28.326  32.350   8.853
 5641POPC   C1A11175  28.416  32.207   8.553
 5641POPC   D2A11176  28.370  32.246   8.253
 5641POPC   C3A11177  28.351  32.260   7.953
 5641POPC   C4A11178  28.368  32.259   7.653
 5641POPC   C1B11179  28.387  32.487   8.553
 5641POPC   C2B11180  28.406  32.546   8.253
 5641POPC   C3B11181  28.405  32.506   7.953
 5641POPC   C4B11182  28.406  32.514   7.653
 5642POPC   NC311183   0.470  43.928   9.453
 5642POPC   PO411184   0.439  43.927   9.153
 5642POPC   GL111185   0.480  43.926   8.853
 5642POPC   GL211186   0.514  44.023   8.853
 5642POPC   C1A11187   0.465  43.863   8.553
 5642POPC   D2A11188   0.485  43.924   8.253
 5642POPC   C3A11189   0.477  43.863   7.953
 5642POPC   C4A11190   0.420  43.925   7.653
 5642POPC   C1B11191   0.563  44.101   8.553
 5642POPC   C2B11192   0.522  44.089   8.253
 5642POPC   C3B11193   0.542  44.090   7.953
 5642POPC   C4B11194   0.543  44.147   7.653
 5643POPC   NC311195  20.656  34.621   9.453
 5643POPC   PO411196  20.585  34.591   9.153
 5643POPC   GL111197  20.607  34.579   8.853
 5643POPC   GL211198  20.464  34.560   8.853
 5643POPC   C1A11199  20.659  34.561   8.553
 5643POPC   D2A11200  20.658  34.625   8.253
 5643POPC   C3A11201  20.591  34.604   7.953
 5643POPC   C4A11202  20.620  34.561   7.653
 5643POPC   C1B11203  20.344  34.520   8.553
 5643POPC   C2B11204  20.393  34.587   8.253
 5643POPC   C3B11205  20.389  34.531   7.953
 5643POPC   C4B11206  20.356  34.529   7.653
 5644POPC   NC311207  12.070  36.915   9.453
 5644POPC   PO411208  12.099  36.869   9.153
 5644POPC   GL111209  12.064  36.944   8.853
 5644POPC   GL211210  12.125  36.976   8.853
 5644POPC   C1A11211  12.113  36.943   8.553
 5644POPC   D2A11212  12.089  36.897   8.253
 5644POPC   C3A11213  12.125  36.885   7.953
 5644POPC   C4A11214  12.097  36.922   7.653
 5644POPC   C1B11215  12.249  37.105   8.553
 5644POPC   C2B11216  12.310  37.051   8.253
 5644POPC   C3B11217  12.250  37.092   7.953
 5644POPC   C4B11218  12.310  37.086   7.653
 5645POPC   NC311219  41.539   6.608   9.453
 5645POPC   PO411220  41.590   6.628   9.153
 5645POPC   GL111221  41.546   6.658   8.853
 5645POPC   GL211222  41.486   6.518   8.853
 5645POPC   C1A11223  41.515   6.629   8.553
 5645POPC   D2A11224  41.525   6.666   8.253
 5645POPC   C3A11225  41.594   6.649   7.953
 5645POPC   C4A11226  41.512   6.596   7.653
 5645POPC   C1B11227  41.536   6.366   8.553
 5645POPC   C2B11228  41.546   6.398   8.253
 5645POPC   C3B11229  41.552   6.439   7.953
 5645POPC   C4B11230  41.560   6.362   7.653
 5646POPC   NC311231  41.608  28.380   9.453
 5646POPC   PO411232  41.579  28.355   9.153
 5646POPC   GL111233  41.562  28.407   8.853
 5646POPC   GL211234  41.393  28.286   8.853
 5646POPC   C1A11235  41.522  28.384   8.553
 5646POPC   D2A11236  41.533  28.412   8.253
 5646POPC   C3A11237  41.533  28.333   7.953
 5646POPC   C4A11238  41.525  28.364   7.653
 5646POPC   C1B11239  41.286  28.301   8.553
 5646POPC   C2B11240  41.286  28.257   8.253
 5646POPC   C3B11241  41.373  28.284   7.953
 5646POPC   C4B11242  41.346  28.295   7.653
 5647POPC   NC311243  34.543   6.658   9.453
 5647POPC   PO411244  34.574   6.630   9.153
 5647POPC   GL111245  34.549   6.614   8.853
 5647POPC   GL211246  34.531   6.571   8.853
 5647POPC   C1A11247  34.549   6.623   8.553
 5647POPC   D2A11248  34.541   6.603   8.253
 5647POPC   C3A11249  34.550   6.677   7.953
 5647POPC   C4A11250  34.566   6.629   7.653
 5647POPC   C1B11251  34.397   6.481   8.553
 5647POPC   C2B11252  34.422   6.493   8.253
 5647POPC   C3B11253  34.449   6.448   7.953
 5647POPC   C4B11254  34.417   6.415   7.653
 5648POPC   NC311255  32.995   5.112   9.453
 5648POPC   PO411256  33.040   5.051   9.153
 5648POPC   GL111257  33.000   5.093   8.853
 5648POPC   GL211258  33.054   5.181   8.853
 5648POPC   C1A11259  33.067   5.110   8.553
 5648POPC   D2A11260  32.976   5.115   8.253
 5648POPC   C3A11261  32.983   5.077   7.953
 5648POPC   C4A11262  33.001   5.084   7.653
 5648POPC   C1B11263  33.025   5.353   8.553
 5648POPC   C2B11264  33.025   5.335   8.253
 5648POPC   C3B11265  33.009   5.333   7.953
 5648POPC   C4B11266  33.019   5.347   7.653
 5649POPC   NC311267  16.681  21.373   9.453
 5649POPC   PO411268  16.751  21.433   9.153
 5649POPC   GL111269  16.757  21.342   8.853
 5649POPC   GL211270  16.779  21.507   8.853
 5649POPC   C1A11271  16.764  21.376   8.553
 5649POPC   D2A11272  16.726  21.362   8.253
 5649POPC   C3A11273  16.707  21.409   7.953
 5649POPC   C4A11274  16.703  21.393   7.653
 5649POPC   C1B11275  16.841  21.573   8.553
 5649POPC   C2B11276  16.790  21.582   8.253
 5649POPC   C3B11277  16.841  21.631   7.953
 5649POPC   C4B11278  16.870  21.589   7.653
 5650POPC   NC311279  34.609   0.421   9.453
 5650POPC   PO411280  34.605   0.481   9.153
 5650POPC   GL111281  34.573   0.393   8.853
 5650POPC   GL211282  34.695   0.353   8.853
 5650POPC   C1A11283  34.601   0.471   8.553
 5650POPC   D2A11284  34.574   0.465   8.253
 5650POPC   C3A11285  34.534   0.412   7.953
 5650POPC   C4A11286  34.624   0.462   7.653
 5650POPC   C1B11287  34.783   0.233   8.553
 5650POPC   C2B11288  34.777   0.278   8.253
 5650POPC   C3B11289  34.788   0.293   7.953
 5650POPC   C4B11290  34.767   0.256   7.653
 5651POPC   NC311291  24.533  36.144   9.453
 5651POPC   PO411292  24.506  36.103   9.153
 5651POPC   GL111293  24.483  36.091   8.853
 5651POPC   GL211294  24.397  36.124   8.853
 5651POPC   C1A11295  24.510  36.115   8.553
 5651POPC   D2A11296  24.446  36.096   8.253
 5651POPC   C3A11297  24.444  36.103   7.953
 5651POPC   C4A11298  24.504  36.084   7.653
 5651POPC   C1B11299  24.285  36.209   8.553
 5651POPC   C2B11300  24.195  36.172   8.253
 5651POPC   C3B11301  24.222  36.148   7.953
 5651POPC   C4B11302  24.243  36.154   7.653
 5652POPC   NC311303  10.517  12.044   9.453
 5652POPC   PO411304  10.509  12.124   9.153
 5652POPC   GL111305  10.557  12.093   8.853
 5652POPC   GL211306  10.353  12.073   8.853
 5652POPC   C1A11307  10.485  12.047   8.553
 5652POPC   D2A11308  10.509  12.032   8.253
 5652POPC   C3A11309  10.549  12.069   7.953
 5652POPC   C4A11310  10.523  12.089   7.653
 5652POPC   C1B11311  10.247  12.012   8.553
 5652POPC   C2B11312  10.286  12.006   8.253
 5652POPC   C3B11313  10.285  12.081   7.953
 5652POPC   C4B11314  10.257  12.040   7.653
 5653POPC   NC311315   8.930   6.596   9.453
 5653POPC   PO411316   8.987   6.667   9.153
 5653POPC   GL111317   8.948   6.627   8.853
 5653POPC   GL211318   9.109   6.688   8.853
 5653POPC   C1A11319   8.984   6.628   8.553
 5653POPC   D2A11320   8.945   6.632   8.253
 5653POPC   C3A11321   8.980   6.626   7.953
 5653POPC   C4A11322   8.958   6.674   7.653
 5653POPC   C1B11323   9.206   6.681   8.553
 5653POPC   C2B11324   9.221   6.678   8.253
 5653POPC   C3B11325   9.203   6.652   7.953
 5653POPC   C4B11326   9.183   6.607   7.653
 5654POPC   NC311327  40.787  41.581   9.453
 5654POPC   PO411328  40.758  41.607   9.153
 5654POPC   GL111329  40.756  41.601   8.853
 5654POPC   GL211330  40.658  41.608   8.853
 5654POPC   C1A11331  40.776  41.575   8.553
 5654POPC   D2A11332  40.755  41.512   8.253
 5654POPC   C3A11333  40.743  41.522   7.953
 5654POPC   C4A11334  40.755  41.553   7.653
 5654POPC   C1B11335  40.603  41.643   8.553
 5654POPC   C2B11336  40.567  41.701   8.253
 5654POPC   C3B11337  40.587  41.691   7.953
 5654POPC   C4B11338  40.529  41.656   7.653
 5655POPC   NC311339   8.155  39.999   9.453
 5655POPC   PO411340   8.207  40.039   9.153
 5655POPC   GL111341   8.156  40.032   8.853
 5655POPC   GL211342   8.091  40.113   8.853
 5655POPC   C1A11343   8.218  40.021   8.553
 5655POPC   D2A11344   8.208  40.054   8.253
 5655POPC   C3A11345   8.203  40.019   7.953
 5655POPC   C4A11346   8.204  39.997   7.653
 5655POPC   C1B11347   8.031  40.251   8.553
 5655POPC   C2B11348   8.033  40.168   8.253
 5655POPC   C3B11349   8.069  40.168   7.953
 5655POPC   C4B11350   8.062  40.180   7.653
 5656POPC   NC311351   2.035  32.249   9.453
 5656POPC   PO411352   1.990  32.236   9.153
 5656POPC   GL111353   1.944  32.207   8.853
 5656POPC   GL211354   2.024  32.338   8.853
 5656POPC   C1A11355   2.021  32.257   8.553
 5656POPC   D2A11356   1.966  32.297   8.253
 5656POPC   C3A11357   2.021  32.244   7.953
 5656POPC   C4A11358   2.001  32.217   7.653
 5656POPC   C1B11359   2.099  32.465   8.553
 5656POPC   C2B11360   2.058  32.471   8.253
 5656POPC   C3B11361   2.133  32.473   7.953
 5656POPC   C4B11362   2.102  32.440   7.653
 5657POPC   NC311363   4.279  19.843   9.453
 5657POPC   PO411364   4.268  19.813   9.153
 5657POPC   GL111365   4.298  19.826   8.853
 5657POPC   GL211366   4.280  19.688   8.853
 5657POPC   C1A11367   4.355  19.830   8.553
 5657POPC   D2A11368   4.346  19.836   8.253
 5657POPC   C3A11369   4.275  19.801   7.953
 5657POPC   C4A11370   4.302  19.854   7.653
 5657POPC   C1B11371   4.266  19.633   8.553
 5657POPC   C2B11372   4.281  19.620   8.253
 5657POPC   C3B11373   4.314  19.588   7.953
 5657POPC   C4B11374   4.306  19.595   7.653
 5658POPC   NC311375  36.169  32.989   9.453
 5658POPC   PO411376  36.100  33.047   9.153
 5658POPC   GL111377  36.158  33.004   8.853
 5658POPC   GL211378  36.213  32.951   8.853
 5658POPC   C1A11379  36.139  32.998   8.553
 5658POPC   D2A11380  36.164  33.029   8.253
 5658POPC   C3A11381  36.132  32.984   7.953
 5658POPC   C4A11382  36.156  32.989   7.653
 5658POPC   C1B11383  36.275  32.807   8.553
 5658POPC   C2B11384  36.225  32.839   8.253
 5658POPC   C3B11385  36.284  32.852   7.953
 5658POPC   C4B11386  36.276  32.783   7.653
 5659POPC   NC311387  30.661  17.550   9.453
 5659POPC   PO411388  30.671  17.462   9.153
 5659POPC   GL111389  30.695  17.554   8.853
 5659POPC   GL211390  30.783  17.424   8.853
 5659POPC   C1A11391  30.722  17.486   8.553
 5659POPC   D2A11392  30.648  17.469   8.253
 5659POPC   C3A11393  30.671  17.467   7.953
 5659POPC   C4A11394  30.660  17.554   7.653
 5659POPC   C1B11395  30.848  17.370   8.553
 5659POPC   C2B11396  30.901  17.327   8.253
 5659POPC   C3B11397  30.900  17.350   7.953
 5659POPC   C4B11398  30.923  17.334   7.653
 5660POPC   NC311399  24.485  25.273   9.453
 5660POPC   PO411400  24.487  25.245   9.153
 5660POPC   GL111401  24.523  25.253   8.853
 5660POPC   GL211402  24.561  25.370   8.853
 5660POPC   C1A11403  24.537  25.225   8.553
 5660POPC   D2A11404  24.483  25.274   8.253
 5660POPC   C3A11405  24.478  25.306   7.953
 5660POPC   C4A11406  24.516  25.294   7.653
 5660POPC   C1B11407  24.512  25.464   8.553
 5660POPC   C2B11408  24.586  25.518   8.253
 5660POPC   C3B11409  24.521  25.511   7.953
 5660POPC   C4B11410  24.557  25.491   7.653
 5661POPC   NC311411  36.951  35.374   9.453
 5661POPC   PO411412  36.917  35.367   9.153
 5661POPC   GL111413  36.892  35.378   8.853
 5661POPC   GL211414  36.869  35.185   8.853
 5661POPC   C1A11415  36.867  35.372   8.553
 5661POPC   D2A11416  36.908  35.324   8.253
 5661POPC   C3A11417  36.889  35.336   7.953
 5661POPC   C4A11418  36.887  35.332   7.653
 5661POPC   C1B11419  36.925  35.134   8.553
 5661POPC   C2B11420  36.908  35.130   8.253
 5661POPC   C3B11421  36.903  35.063   7.953
 5661POPC   C4B11422  36.880  35.133   7.653
 5662POPC   NC311423  29.152  26.084   9.453
 5662POPC   PO411424  29.185  26.066   9.153
 5662POPC   GL111425  29.145  26.057   8.853
 5662POPC   GL211426  29.017  25.998   8.853
 5662POPC   C1A11427  29.127  26.000   8.553
 5662POPC   D2A11428  29.110  25.994   8.253
 5662POPC   C3A11429  29.195  26.009   7.953
 5662POPC   C4A11430  29.181  26.012   7.653
 5662POPC   C1B11431  28.915  26.099   8.553
 5662POPC   C2B11432  28.863  26.071   8.253
 5662POPC   C3B11433  28.892  26.061   7.953
 5662POPC   C4B11434  28.938  26.077   7.653
 5663POPC   NC311435  29.906  43.884   9.453
 5663POPC   PO411436  29.943  43.898   9.153
 5663POPC   GL111437  29.924  43.860   8.853
 5663POPC   GL211438  29.760  43.950   8.853
 5663POPC   C1A11439  29.935  43.929   8.553
 5663POPC   D2A11440  29.966  43.851   8.253
 5663POPC   C3A11441  29.906  43.933   7.953
 5663POPC   C4A11442  29.957  43.858   7.653
 5663POPC   C1B11443  29.654  43.929   8.553
 5663POPC   C2B11444  29.656  43.896   8.253
 5663POPC   C3B11445  29.712  43.872   7.953
 5663POPC   C4B11446  29.692  43.954   7.653
 5664POPC   NC311447  20.590  14.415   9.453
 5664POPC   PO411448  20.629  14.357   9.153
 5664POPC   GL111449  20.625  14.399   8.853
 5664POPC   GL211450  20.479  14.294   8.853
 5664POPC   C1A11451  20.563  14.380   8.553
 5664POPC   D2A11452  20.610  14.386   8.253
 5664POPC   C3A11453  20.643  14.398   7.953
 5664POPC   C4A11454  20.604  14.363   7.653
 5664POPC   C1B11455  20.419  14.244   8.553
 5664POPC   C2B11456  20.399  14.276   8.253
 5664POPC   C3B11457  20.434  14.252   7.953
 5664POPC   C4B11458  20.432  14.264   7.653
 5665POPC   NC311459  34.617  24.454   9.453
 5665POPC   PO411460  34.554  24.475   9.153
 5665POPC   GL111461  34.623  24.526   8.853
 5665POPC   GL211462  34.724  24.474   8.853
 5665POPC   C1A11463  34.571  24.468   8.553
 5665POPC   D2A11464  34.549  24.469   8.253
 5665POPC   C3A11465  34.614  24.518   7.953
 5665POPC   C4A11466  34.544  24.480   7.653
 5665POPC   C1B11467  34.785  24.519   8.553
 5665POPC   C2B11468  34.854  24.528   8.253
 5665POPC   C3B11469  34.824  24.479   7.953
 5665POPC   C4B11470  34.874  24.480   7.653
 5666POPC   NC311471   2.781   7.373   9.453
 5666POPC   PO411472   2.803   7.434   9.153
 5666POPC   GL111473   2.731   7.415   8.853
 5666POPC   GL211474   2.671   7.480   8.853
 5666POPC   C1A11475   2.735   7.405   8.553
 5666POPC   D2A11476   2.763   7.427   8.253
 5666POPC   C3A11477   2.809   7.407   7.953
 5666POPC   C4A11478   2.787   7.407   7.653
 5666POPC   C1B11479   2.528   7.474   8.553
 5666POPC   C2B11480   2.481   7.467   8.253
 5666POPC   C3B11481   2.476   7.454   7.953
 5666POPC   C4B11482   2.551   7.476   7.653
 5667POPC   NC311483   6.640  44.648   9.453
 5667POPC   PO411484   6.661  44.702   9.153
 5667POPC   GL111485   6.693  44.671   8.853
 5667POPC   GL211486   6.595  44.631   8.853
 5667POPC   C1A11487   6.598  44.620   8.553
 5667POPC   D2A11488   6.661  44.618   8.253
 5667POPC   C3A11489   6.657  44.627   7.953
 5667POPC   C4A11490   6.686  44.682   7.653
 5667POPC   C1B11491   6.431  44.537   8.553
 5667POPC   C2B11492   6.467  44.452   8.253
 5667POPC   C3B11493   6.441  44.476   7.953
 5667POPC   C4B11494   6.475  44.504   7.653
 5668POPC   NC311495  12.803  21.380   9.453
 5668POPC   PO411496  12.890  21.385   9.153
 5668POPC   GL111497  12.898  21.357   8.853
 5668POPC   GL211498  12.759  21.459   8.853
 5668POPC   C1A11499  12.872  21.379   8.553
 5668POPC   D2A11500  12.820  21.359   8.253
 5668POPC   C3A11501  12.863  21.424   7.953
 5668POPC   C4A11502  12.869  21.390   7.653
 5668POPC   C1B11503  12.719  21.646   8.553
 5668POPC   C2B11504  12.733  21.577   8.253
 5668POPC   C3B11505  12.766  21.592   7.953
 5668POPC   C4B11506  12.746  21.632   7.653
 5669POPC   NC311507  17.536  30.667   9.453
 5669POPC   PO411508  17.494  30.698   9.153
 5669POPC   GL111509  17.553  30.677   8.853
 5669POPC   GL211510  17.657  30.732   8.853
 5669POPC   C1A11511  17.516  30.729   8.553
 5669POPC   D2A11512  17.553  30.730   8.253
 5669POPC   C3A11513  17.539  30.700   7.953
 5669POPC   C4A11514  17.460  30.680   7.653
 5669POPC   C1B11515  17.732  30.729   8.553
 5669POPC   C2B11516  17.725  30.779   8.253
 5669POPC   C3B11517  17.774  30.746   7.953
 5669POPC   C4B11518  17.707  30.797   7.653
 5670POPC   NC311519   3.583  44.704   9.453
 5670POPC   PO411520   3.539  44.631   9.153
 5670POPC   GL111521   3.527  44.711   8.853
 5670POPC   GL211522   3.465  44.595   8.853
 5670POPC   C1A11523   3.570  44.656   8.553
 5670POPC   D2A11524   3.510  44.654   8.253
 5670POPC   C3A11525   3.548  44.630   7.953
 5670POPC   C4A11526   3.572  44.679   7.653
 5670POPC   C1B11527   3.332  44.495   8.553
 5670POPC   C2B11528   3.340  44.539   8.253
 5670POPC   C3B11529   3.341  44.542   7.953
 5670POPC   C4B11530   3.330  44.456   7.653
 5671POPC   NC311531  36.118   5.044   9.453
 5671POPC   PO411532  36.095   5.087   9.153
 5671POPC   GL111533  36.083   5.125   8.853
 5671POPC   GL211534  36.032   5.054   8.853
 5671POPC   C1A11535  36.091   5.043   8.553
 5671POPC   D2A11536  36.141   5.107   8.253
 5671POPC   C3A11537  36.079   5.057   7.953
 5671POPC   C4A11538  36.158   5.128   7.653
 5671POPC   C1B11539  35.915   5.098   8.553
 5671POPC   C2B11540  35.846   5.099   8.253
 5671POPC   C3B11541  35.881   5.075   7.953
 5671POPC   C4B11542  35.841   5.110   7.653
 5672POPC   NC311543   1.201  11.346   9.453
 5672POPC   PO411544   1.183  11.309   9.153
 5672POPC   GL111545   1.194  11.342   8.853
 5672POPC   GL211546   1.305  11.233   8.853
 5672POPC   C1A11547   1.236  11.251   8.553
 5672POPC   D2A11548   1.218  11.322   8.253
 5672POPC   C3A11549   1.204  11.323   7.953
 5672POPC   C4A11550   1.208  11.339   7.653
 5672POPC   C1B11551   1.368  11.083   8.553
 5672POPC   C2B11552   1.329  11.050   8.253
 5672POPC   C3B11553   1.327  11.038   7.953
 5672POPC   C4B11554   1.375  11.105   7.653
 5673POPC   NC311555  23.743  26.866   9.453
 5673POPC   PO411556  23.692  26.858   9.153
 5673POPC   GL111557  23.740  26.830   8.853
 5673POPC   GL211558  23.796  26.910   8.853
 5673POPC   C1A11559  23.710  26.821   8.553
 5673POPC   D2A11560  23.695  26.772   8.253
 5673POPC   C3A11561  23.708  26.820   7.953
 5673POPC   C4A11562  23.727  26.800   7.653
 5673POPC   C1B11563  23.854  27.074   8.553
 5673POPC   C2B11564  23.823  27.076   8.253
 5673POPC   C3B11565  23.859  27.077   7.953
 5673POPC   C4B11566  23.824  27.040   7.653
 5674POPC   NC311567  40.004   9.739   9.453
 5674POPC   PO411568  40.019   9.783   9.153
 5674POPC   GL111569  40.009   9.790   8.853
 5674POPC   GL211570  40.075   9.874   8.853
 5674POPC   C1A11571  39.980   9.702   8.553
 5674POPC   D2A11572  40.008   9.761   8.253
 5674POPC   C3A11573  39.967   9.790   7.953
 5674POPC   C4A11574  39.958   9.785   7.653
 5674POPC   C1B11575  40.098   9.957   8.553
 5674POPC   C2B11576  40.126   9.943   8.253
 5674POPC   C3B11577  40.124   9.974   7.953
 5674POPC   C4B11578  40.156  10.003   7.653
 5675POPC   NC311579  32.292  25.281   9.453
 5675POPC   PO411580  32.206  25.239   9.153
 5675POPC   GL111581  32.261  25.307   8.853
 5675POPC   GL211582  32.263  25.396   8.853
 5675POPC   C1A11583  32.288  25.294   8.553
 5675POPC   D2A11584  32.242  25.294   8.253
 5675POPC   C3A11585  32.212  25.255   7.953
 5675POPC   C4A11586  32.239  25.259   7.653
 5675POPC   C1B11587  32.401  25.506   8.553
 5675POPC   C2B11588  32.366  25.511   8.253
 5675POPC   C3B11589  32.428  25.436   7.953
 5675POPC   C4B11590  32.350  25.504   7.653
 5676POPC   NC311591  26.792   9.787   9.453
 5676POPC   PO411592  26.774   9.724   9.153
 5676POPC   GL111593  26.866   9.785   8.853
 5676POPC   GL211594  26.846   9.666   8.853
 5676POPC   C1A11595  26.772   9.777   8.553
 5676POPC   D2A11596  26.792   9.762   8.253
 5676POPC   C3A11597  26.806   9.760   7.953
 5676POPC   C4A11598  26.779   9.726   7.653
 5676POPC   C1B11599  26.937   9.581   8.553
 5676POPC   C2B11600  26.922   9.531   8.253
 5676POPC   C3B11601  26.909   9.578   7.953
 5676POPC   C4B11602  26.986   9.570   7.653
 5677POPC   NC311603  42.334  11.324   9.453
 5677POPC   PO411604  42.343  11.330   9.153
 5677POPC   GL111605  42.293  11.325   8.853
 5677POPC   GL211606  42.312  11.406   8.853
 5677POPC   C1A11607  42.340  11.270   8.553
 5677POPC   D2A11608  42.291  11.338   8.253
 5677POPC   C3A11609  42.293  11.292   7.953
 5677POPC   C4A11610  42.288  11.333   7.653
 5677POPC   C1B11611  42.259  11.570   8.553
 5677POPC   C2B11612  42.262  11.551   8.253
 5677POPC   C3B11613  42.282  11.535   7.953
 5677POPC   C4B11614  42.325  11.589   7.653
 5678POPC   NC311615  26.048   1.198   9.453
 5678POPC   PO411616  26.000   1.230   9.153
 5678POPC   GL111617  26.033   1.220   8.853
 5678POPC   GL211618  26.151   1.237   8.853
 5678POPC   C1A11619  26.037   1.248   8.553
 5678POPC   D2A11620  26.063   1.209   8.253
 5678POPC   C3A11621  25.992   1.180   7.953
 5678POPC   C4A11622  26.004   1.170   7.653
 5678POPC   C1B11623  26.256   1.291   8.553
 5678POPC   C2B11624  26.263   1.274   8.253
 5678POPC   C3B11625  26.301   1.244   7.953
 5678POPC   C4B11626  26.303   1.289   7.653
 5679POPC   NC311627  20.652   2.774   9.453
 5679POPC   PO411628  20.568   2.803   9.153
 5679POPC   GL111629  20.606   2.804   8.853
 5679POPC   GL211630  20.540   2.708   8.853
 5679POPC   C1A11631  20.648   2.779   8.553
 5679POPC   D2A11632  20.597   2.726   8.253
 5679POPC   C3A11633  20.636   2.783   7.953
 5679POPC   C4A11634  20.576   2.785   7.653
 5679POPC   C1B11635  20.422   2.567   8.553
 5679POPC   C2B11636  20.399   2.532   8.253
 5679POPC   C3B11637  20.463   2.558   7.953
 5679POPC   C4B11638  20.475   2.602   7.653
 5680POPC   NC311639  43.852  35.370   9.453
 5680POPC   PO411640  43.892  35.396   9.153
 5680POPC   GL111641  43.857  35.330   8.853
 5680POPC   GL211642  44.014  35.325   8.853
 5680POPC   C1A11643  43.863  35.348   8.553
 5680POPC   D2A11644  43.925  35.401   8.253
 5680POPC   C3A11645  43.892  35.322   7.953
 5680POPC   C4A11646  43.863  35.397   7.653
 5680POPC   C1B11647  44.101  35.319   8.553
 5680POPC   C2B11648  44.146  35.236   8.253
 5680POPC   C3B11649  44.122  35.238   7.953
 5680POPC   C4B11650  44.079  35.317   7.653
 5681POPC   NC311651   6.652  21.367   9.453
 5681POPC   PO411652   6.619  21.378   9.153
 5681POPC   GL111653   6.651  21.369   8.853
 5681POPC   GL211654   6.664  21.269   8.853
 5681POPC   C1A11655   6.614  21.403   8.553
 5681POPC   D2A11656   6.601  21.363   8.253
 5681POPC   C3A11657   6.667  21.430   7.953
 5681POPC   C4A11658   6.608  21.381   7.653
 5681POPC   C1B11659   6.660  21.117   8.553
 5681POPC   C2B11660   6.701  21.106   8.253
 5681POPC   C3B11661   6.669  21.105   7.953
 5681POPC   C4B11662   6.625  21.139   7.653
 5682POPC   NC311663  29.159  22.929   9.453
 5682POPC   PO411664  29.156  22.897   9.153
 5682POPC   GL111665  29.179  22.913   8.853
 5682POPC   GL211666  28.978  22.854   8.853
 5682POPC   C1A11667  29.147  22.907   8.553
 5682POPC   D2A11668  29.110  22.976   8.253
 5682POPC   C3A11669  29.186  22.948   7.953
 5682POPC   C4A11670  29.147  22.987   7.653
 5682POPC   C1B11671  28.933  22.846   8.553
 5682POPC   C2B11672  28.935  22.864   8.253
 5682POPC   C3B11673  28.936  22.830   7.953
 5682POPC   C4B11674  28.913  22.859   7.653
 5683POPC   NC311675   0.483  44.687   9.453
 5683POPC   PO411676   0.446  44.679   9.153
 5683POPC   GL111677   0.470  44.653   8.853
 5683POPC   GL211678   0.512  44.746   8.853
 5683POPC   C1A11679   0.459  44.643   8.553
 5683POPC   D2A11680   0.450  44.635   8.253
 5683POPC   C3A11681   0.443  44.663   7.953
 5683POPC   C4A11682   0.461  44.696   7.653
 5683POPC   C1B11683   0.490  44.886   8.553
 5683POPC   C2B11684   0.499  44.915   8.253
 5683POPC   C3B11685   0.528  44.857   7.953
 5683POPC   C4B11686   0.548  44.882   7.653
 5684POPC   NC311687  28.419  12.046   9.453
 5684POPC   PO411688  28.373  12.051   9.153
 5684POPC   GL111689  28.331  12.058   8.853
 5684POPC   GL211690  28.242  11.946   8.853
 5684POPC   C1A11691  28.363  12.028   8.553
 5684POPC   D2A11692  28.366  12.104   8.253
 5684POPC   C3A11693  28.408  12.029   7.953
 5684POPC   C4A11694  28.329  12.045   7.653
 5684POPC   C1B11695  28.140  11.883   8.553
 5684POPC   C2B11696  28.204  11.924   8.253
 5684POPC   C3B11697  28.166  11.890   7.953
 5684POPC   C4B11698  28.169  11.937   7.653
 5685POPC   NC311699  19.069   5.837   9.453
 5685POPC   PO411700  19.015   5.897   9.153
 5685POPC   GL111701  19.102   5.885   8.853
 5685POPC   GL211702  19.169   5.946   8.853
 5685POPC   C1A11703  19.056   5.868   8.553
 5685POPC   D2A11704  19.034   5.911   8.253
 5685POPC   C3A11705  19.025   5.835   7.953
 5685POPC   C4A11706  19.104   5.884   7.653
 5685POPC   C1B11707  19.272   6.021   8.553
 5685POPC   C2B11708  19.216   5.973   8.253
 5685POPC   C3B11709  19.253   6.025   7.953
 5685POPC   C4B11710  19.253   5.993   7.653
 5686POPC   NC311711  18.309  20.565   9.453
 5686POPC   PO411712  18.332  20.627   9.153
 5686POPC   GL111713  18.246  20.633   8.853
 5686POPC   GL211714  18.146  20.501   8.853
 5686POPC   C1A11715  18.253  20.623   8.553
 5686POPC   D2A11716  18.294  20.567   8.253
 5686POPC   C3A11717  18.273  20.649   7.953
 5686POPC   C4A11718  18.243  20.648   7.653
 5686POPC   C1B11719  18.110  20.401   8.553
 5686POPC   C2B11720  18.146  20.469   8.253
 5686POPC   C3B11721  18.057  20.402   7.953
 5686POPC   C4B11722  18.140  20.487   7.653
 5687POPC   NC311723  18.233  29.902   9.453
 5687POPC   PO411724  18.316  29.896   9.153
 5687POPC   GL111725  18.262  29.937   8.853
 5687POPC   GL211726  18.170  29.902   8.853
 5687POPC   C1A11727  18.233  29.955   8.553
 5687POPC   D2A11728  18.321  29.970   8.253
 5687POPC   C3A11729  18.252  29.961   7.953
 5687POPC   C4A11730  18.258  29.897   7.653
 5687POPC   C1B11731  18.025  29.930   8.553
 5687POPC   C2B11732  18.024  29.988   8.253
 5687POPC   C3B11733  18.069  29.976   7.953
 5687POPC   C4B11734  17.986  29.949   7.653
 5688POPC   NC311735   6.595   1.999   9.453
 5688POPC   PO411736   6.613   2.034   9.153
 5688POPC   GL111737   6.671   1.978   8.853
 5688POPC   GL211738   6.504   2.037   8.853
 5688POPC   C1A11739   6.597   1.999   8.553
 5688POPC   D2A11740   6.598   1.945   8.253
 5688POPC   C3A11741   6.620   2.028   7.953
 5688POPC   C4A11742   6.603   1.985   7.653
 5688POPC   C1B11743   6.485   2.177   8.553
 5688POPC   C2B11744   6.410   2.119   8.253
 5688POPC   C3B11745   6.417   2.150   7.953
 5688POPC   C4B11746   6.412   2.125   7.653
 5689POPC   NC311747  27.640  24.441   9.453
 5689POPC   PO411748  27.591  24.468   9.153
 5689POPC   GL111749  27.622  24.458   8.853
 5689POPC   GL211750  27.493  24.604   8.853
 5689POPC   C1A11751  27.591  24.523   8.553
 5689POPC   D2A11752  27.564  24.441   8.253
 5689POPC   C3A11753  27.611  24.464   7.953
 5689POPC   C4A11754  27.563  24.502   7.653
 5689POPC   C1B11755  27.390  24.699   8.553
 5689POPC   C2B11756  27.467  24.684   8.253
 5689POPC   C3B11757  27.385  24.707   7.953
 5689POPC   C4B11758  27.410  24.645   7.653
 5690POPC   NC311759  40.049  20.650   9.453
 5690POPC   PO411760  40.019  20.645   9.153
 5690POPC   GL111761  40.014  20.628   8.853
 5690POPC   GL211762  40.026  20.469   8.853
 5690POPC   C1A11763  40.042  20.578   8.553
 5690POPC   D2A11764  39.972  20.649   8.253
 5690POPC   C3A11765  39.983  20.659   7.953
 5690POPC   C4A11766  40.008  20.563   7.653
 5690POPC   C1B11767  40.015  20.336   8.553
 5690POPC   C2B11768  39.956  20.322   8.253
 5690POPC   C3B11769  39.969  20.311   7.953
 5690POPC   C4B11770  40.031  20.318   7.653
 5691POPC   NC311771  21.413   3.545   9.453
 5691POPC   PO411772  21.425   3.570   9.153
 5691POPC   GL111773  21.351   3.502   8.853
 5691POPC   GL211774  21.245   3.480   8.853
 5691POPC   C1A11775  21.367   3.512   8.553
 5691POPC   D2A11776  21.376   3.567   8.253
 5691POPC   C3A11777  21.410   3.527   7.953
 5691POPC   C4A11778  21.414   3.559   7.653
 5691POPC   C1B11779  21.157   3.400   8.553
 5691POPC   C2B11780  21.204   3.417   8.253
 5691POPC   C3B11781  21.155   3.342   7.953
 5691POPC   C4B11782  21.213   3.408   7.653
 5692POPC   NC311783   5.129   6.693   9.453
 5692POPC   PO411784   5.127   6.691   9.153
 5692POPC   GL111785   5.092   6.637   8.853
 5692POPC   GL211786   4.996   6.557   8.853
 5692POPC   C1A11787   5.127   6.628   8.553
 5692POPC   D2A11788   5.128   6.668   8.253
 5692POPC   C3A11789   5.137   6.671   7.953
 5692POPC   C4A11790   5.046   6.643   7.653
 5692POPC   C1B11791   4.844   6.540   8.553
 5692POPC   C2B11792   4.833   6.587   8.253
 5692POPC   C3B11793   4.909   6.578   7.953
 5692POPC   C4B11794   4.887   6.563   7.653
 5693POPC   NC311795  24.484  35.364   9.453
 5693POPC   PO411796  24.536  35.392   9.153
 5693POPC   GL111797  24.519  35.362   8.853
 5693POPC   GL211798  24.389  35.445   8.853
 5693POPC   C1A11799  24.502  35.303   8.553
 5693POPC   D2A11800  24.446  35.378   8.253
 5693POPC   C3A11801  24.483  35.388   7.953
 5693POPC   C4A11802  24.482  35.315   7.653
 5693POPC   C1B11803  24.424  35.599   8.553
 5693POPC   C2B11804  24.414  35.591   8.253
 5693POPC   C3B11805  24.407  35.543   7.953
 5693POPC   C4B11806  24.405  35.543   7.653
 5694POPC   NC311807  17.477  21.403   9.453
 5694POPC   PO411808  17.479  21.386   9.153
 5694POPC   GL111809  17.545  21.348   8.853
 5694POPC   GL211810  17.378  21.376   8.853
 5694POPC   C1A11811  17.556  21.401   8.553
 5694POPC   D2A11812  17.523  21.416   8.253
 5694POPC   C3A11813  17.544  21.361   7.953
 5694POPC   C4A11814  17.524  21.365   7.653
 5694POPC   C1B11815  17.244  21.302   8.553
 5694POPC   C2B11816  17.321  21.240   8.253
 5694POPC   C3B11817  17.300  21.282   7.953
 5694POPC   C4B11818  17.309  21.319   7.653
 5695POPC   NC311819  41.589   8.227   9.453
 5695POPC   PO411820  41.531   8.168   9.153
 5695POPC   GL111821  41.546   8.236   8.853
 5695POPC   GL211822  41.653   8.236   8.853
 5695POPC   C1A11823  41.514   8.159   8.553
 5695POPC   D2A11824  41.560   8.178   8.253
 5695POPC   C3A11825  41.535   8.166   7.953
 5695POPC   C4A11826  41.545   8.189   7.653
 5695POPC   C1B11827  41.796   8.306   8.553
 5695POPC   C2B11828  41.839   8.231   8.253
 5695POPC   C3B11829  41.848   8.292   7.953
 5695POPC   C4B11830  41.761   8.256   7.653
 5696POPC   NC311831   9.727  29.876   9.453
 5696POPC   PO411832   9.786  29.958   9.153
 5696POPC   GL111833   9.766  29.938   8.853
 5696POPC   GL211834   9.643  29.841   8.853
 5696POPC   C1A11835   9.760  29.949   8.553
 5696POPC   D2A11836   9.729  29.935   8.253
 5696POPC   C3A11837   9.728  29.952   7.953
 5696POPC   C4A11838   9.763  29.945   7.653
 5696POPC   C1B11839   9.528  29.777   8.553
 5696POPC   C2B11840   9.549  29.806   8.253
 5696POPC   C3B11841   9.552  29.810   7.953
 5696POPC   C4B11842   9.489  29.782   7.653
 5697POPC   NC311843   5.853   2.733   9.453
 5697POPC   PO411844   5.855   2.744   9.153
 5697POPC   GL111845   5.848   2.729   8.853
 5697POPC   GL211846   5.843   2.647   8.853
 5697POPC   C1A11847   5.874   2.734   8.553
 5697POPC   D2A11848   5.917   2.750   8.253
 5697POPC   C3A11849   5.847   2.783   7.953
 5697POPC   C4A11850   5.861   2.789   7.653
 5697POPC   C1B11851   5.945   2.557   8.553
 5697POPC   C2B11852   5.914   2.528   8.253
 5697POPC   C3B11853   5.959   2.506   7.953
 5697POPC   C4B11854   5.895   2.501   7.653
 5698POPC   NC311855  27.641  42.354   9.453
 5698POPC   PO411856  27.594  42.323   9.153
 5698POPC   GL111857  27.634  42.292   8.853
 5698POPC   GL211858  27.453  42.329   8.853
 5698POPC   C1A11859  27.552  42.341   8.553
 5698POPC   D2A11860  27.590  42.323   8.253
 5698POPC   C3A11861  27.614  42.308   7.953
 5698POPC   C4A11862  27.611  42.382   7.653
 5698POPC   C1B11863  27.331  42.311   8.553
 5698POPC   C2B11864  27.342  42.291   8.253
 5698POPC   C3B11865  27.383  42.248   7.953
 5698POPC   C4B11866  27.313  42.319   7.653
 5699POPC   NC311867  12.061  38.434   9.453
 5699POPC   PO411868  12.055  38.408   9.153
 5699POPC   GL111869  12.083  38.482   8.853
 5699POPC   GL211870  12.037  38.523   8.853
 5699POPC   C1A11871  12.099  38.410   8.553
 5699POPC   D2A11872  12.107  38.476   8.253
 5699POPC   C3A11873  12.047  38.465   7.953
 5699POPC   C4A11874  12.063  38.503   7.653
 5699POPC   C1B11875  11.988  38.714   8.553
 5699POPC   C2B11876  11.942  38.671   8.253
 5699POPC   C3B11877  11.999  38.656   7.953
 5699POPC   C4B11878  11.978  38.664   7.653
 5700POPC   NC311879  43.922   4.303   9.453
 5700POPC   PO411880  43.865   4.320   9.153
 5700POPC   GL111881  43.906   4.335   8.853
 5700POPC   GL211882  43.795   4.283   8.853
 5700POPC   C1A11883  43.862   4.353   8.553
 5700POPC   D2A11884  43.895   4.327   8.253
 5700POPC   C3A11885  43.854   4.357   7.953
 5700POPC   C4A11886  43.861   4.332   7.653
 5700POPC   C1B11887  43.664   4.253   8.553
 5700POPC   C2B11888  43.608   4.249   8.253
 5700POPC   C3B11889  43.615   4.299   7.953
 5700POPC   C4B11890  43.646   4.266   7.653
 5701POPC   NC311891  38.449  15.944   9.453
 5701POPC   PO411892  38.486  15.944   9.153
 5701POPC   GL111893  38.462  16.001   8.853
 5701POPC   GL211894  38.592  15.953   8.853
 5701POPC   C1A11895  38.477  15.995   8.553
 5701POPC   D2A11896  38.479  15.962   8.253
 5701POPC   C3A11897  38.456  15.987   7.953
 5701POPC   C4A11898  38.470  15.941   7.653
 5701POPC   C1B11899  38.742  15.977   8.553
 5701POPC   C2B11900  38.739  16.030   8.253
 5701POPC   C3B11901  38.692  15.979   7.953
 5701POPC   C4B11902  38.652  16.022   7.653
 5702POPC   NC311903  11.307  43.908   9.453
 5702POPC   PO411904  11.338  43.923   9.153
 5702POPC   GL111905  11.286  43.905   8.853
 5702POPC   GL211906  11.201  43.952   8.853
 5702POPC   C1A11907  11.341  43.855   8.553
 5702POPC   D2A11908  11.343  43.867   8.253
 5702POPC   C3A11909  11.267  43.918   7.953
 5702POPC   C4A11910  11.348  43.916   7.653
 5702POPC   C1B11911  11.148  44.100   8.553
 5702POPC   C2B11912  11.079  44.058   8.253
 5702POPC   C3B11913  11.129  44.061   7.953
 5702POPC   C4B11914  11.160  44.025   7.653
 5703POPC   NC311915  35.369  11.286   9.453
 5703POPC   PO411916  35.363  11.260   9.153
 5703POPC   GL111917  35.348  11.329   8.853
 5703POPC   GL211918  35.219  11.221   8.853
 5703POPC   C1A11919  35.351  11.342   8.553
 5703POPC   D2A11920  35.331  11.332   8.253
 5703POPC   C3A11921  35.377  11.266   7.953
 5703POPC   C4A11922  35.393  11.329   7.653
 5703POPC   C1B11923  35.098  11.256   8.553
 5703POPC   C2B11924  35.129  11.215   8.253
 5703POPC   C3B11925  35.079  11.216   7.953
 5703POPC   C4B11926  35.129  11.249   7.653
 5704POPC   NC311927  27.555  22.932   9.453
 5704POPC   PO411928  27.547  22.968   9.153
 5704POPC   GL111929  27.606  22.986   8.853
 5704POPC   GL211930  27.688  22.937   8.853
 5704POPC   C1A11931  27.550  22.987   8.553
 5704POPC   D2A11932  27.563  22.896   8.253
 5704POPC   C3A11933  27.603  22.899   7.953
 5704POPC   C4A11934  27.635  22.908   7.653
 5704POPC   C1B11935  27.868  22.917   8.553
 5704POPC   C2B11936  27.864  22.986   8.253
 5704POPC   C3B11937  27.863  22.939   7.953
 5704POPC   C4B11938  27.804  22.904   7.653
 5705POPC   NC311939  33.763  21.435   9.453
 5705POPC   PO411940  33.819  21.366   9.153
 5705POPC   GL111941  33.850  21.431   8.853
 5705POPC   GL211942  33.677  21.332   8.853
 5705POPC   C1A11943  33.799  21.375   8.553
 5705POPC   D2A11944  33.801  21.380   8.253
 5705POPC   C3A11945  33.757  21.342   7.953
 5705POPC   C4A11946  33.844  21.418   7.653
 5705POPC   C1B11947  33.541  21.266   8.553
 5705POPC   C2B11948  33.575  21.321   8.253
 5705POPC   C3B11949  33.615  21.284   7.953
 5705POPC   C4B11950  33.546  21.290   7.653
 5706POPC   NC311951  18.315  32.280   9.453
 5706POPC   PO411952  18.258  32.258   9.153
 5706POPC   GL111953  18.245  32.232   8.853
 5706POPC   GL211954  18.284  32.331   8.853
 5706POPC   C1A11955  18.313  32.255   8.553
 5706POPC   D2A11956  18.266  32.260   8.253
 5706POPC   C3A11957  18.275  32.249   7.953
 5706POPC   C4A11958  18.240  32.253   7.653
 5706POPC   C1B11959  18.323  32.495   8.553
 5706POPC   C2B11960  18.310  32.536   8.253
 5706POPC   C3B11961  18.301  32.536   7.953
 5706POPC   C4B11962  18.319  32.536   7.653
 5707POPC   NC311963  25.312  32.271   9.453
 5707POPC   PO411964  25.245  32.219   9.153
 5707POPC   GL111965  25.307  32.223   8.853
 5707POPC   GL211966  25.358  32.336   8.853
 5707POPC   C1A11967  25.247  32.284   8.553
 5707POPC   D2A11968  25.248  32.212   8.253
 5707POPC   C3A11969  25.290  32.256   7.953
 5707POPC   C4A11970  25.307  32.262   7.653
 5707POPC   C1B11971  25.507  32.433   8.553
 5707POPC   C2B11972  25.445  32.378   8.253
 5707POPC   C3B11973  25.440  32.444   7.953
 5707POPC   C4B11974  25.480  32.437   7.653
 5708POPC   NC311975  36.121  15.910   9.453
 5708POPC   PO411976  36.121  15.917   9.153
 5708POPC   GL111977  36.129  15.912   8.853
 5708POPC   GL211978  36.025  16.024   8.853
 5708POPC   C1A11979  36.105  15.986   8.553
 5708POPC   D2A11980  36.105  15.907   8.253
 5708POPC   C3A11981  36.123  15.989   7.953
 5708POPC   C4A11982  36.166  15.936   7.653
 5708POPC   C1B11983  35.950  16.142   8.553
 5708POPC   C2B11984  35.931  16.134   8.253
 5708POPC   C3B11985  35.917  16.150   7.953
 5708POPC   C4B11986  35.931  16.091   7.653
 5709POPC   NC311987  44.647  21.354   9.453
 5709POPC   PO411988  44.640  21.390   9.153
 5709POPC   GL111989  44.703  21.380   8.853
 5709POPC   GL211990  44.656  21.492   8.853
 5709POPC   C1A11991  44.704  21.349   8.553
 5709POPC   D2A11992  44.629  21.434   8.253
 5709POPC   C3A11993  44.702  21.417   7.953
 5709POPC   C4A11994  44.658  21.404   7.653
 5709POPC   C1B11995  44.682  21.643   8.553
 5709POPC   C2B11996  44.680  21.610   8.253
 5709POPC   C3B11997  44.690  21.633   7.953
 5709POPC   C4B11998  44.596  21.599   7.653
 5710POPC   NC311999  44.639  20.639   9.453
 5710POPC   PO412000  44.690  20.640   9.153
 5710POPC   GL112001  44.686  20.586   8.853
 5710POPC   GL212002  44.657  20.716   8.853
 5710POPC   C1A12003  44.652  20.656   8.553
 5710POPC   D2A12004  44.683  20.621   8.253
 5710POPC   C3A12005  44.692  20.574   7.953
 5710POPC   C4A12006  44.693  20.574   7.653
 5710POPC   C1B12007  44.544  20.886   8.553
 5710POPC   C2B12008  44.554  20.854   8.253
 5710POPC   C3B12009  44.549  20.887   7.953
 5710POPC   C4B12010  44.583  20.830   7.653
 5711POPC   NC312011  26.839  23.735   9.453
 5711POPC   PO412012  26.840  23.730   9.153
 5711POPC   GL112013  26.834  23.747   8.853
 5711POPC   GL212014  26.771  23.566   8.853
 5711POPC   C1A12015  26.843  23.714   8.553
 5711POPC   D2A12016  26.808  23.671   8.253
 5711POPC   C3A12017  26.858  23.679   7.953
 5711POPC   C4A12018  26.769  23.738   7.653
 5711POPC   C1B12019  26.768  23.480   8.553
 5711POPC   C2B12020  26.758  23.505   8.253
 5711POPC   C3B12021  26.815  23.509   7.953
 5711POPC   C4B12022  26.822  23.430   7.653
 5712POPC   NC312023  16.752  20.660   9.453
 5712POPC   PO412024  16.740  20.571   9.153
 5712POPC   GL112025  16.737  20.648   8.853
 5712POPC   GL212026  16.675  20.539   8.853
 5712POPC   C1A12027  16.780  20.646   8.553
 5712POPC   D2A12028  16.698  20.592   8.253
 5712POPC   C3A12029  16.746  20.602   7.953
 5712POPC   C4A12030  16.711  20.654   7.653
 5712POPC   C1B12031  16.586  20.372   8.553
 5712POPC   C2B12032  16.589  20.407   8.253
 5712POPC   C3B12033  16.545  20.427   7.953
 5712POPC   C4B12034  16.579  20.409   7.653
 5713POPC   NC312035  41.522  36.100   9.453
 5713POPC   PO412036  41.590  36.150   9.153
 5713POPC   GL112037  41.532  36.110   8.853
 5713POPC   GL212038  41.596  36.009   8.853
 5713POPC   C1A12039  41.558  36.171   8.553
 5713POPC   D2A12040  41.567  36.107   8.253
 5713POPC   C3A12041  41.567  36.084   7.953
 5713POPC   C4A12042  41.583  36.154   7.653
 5713POPC   C1B12043  41.529  35.878   8.553
 5713POPC   C2B12044  41.534  35.884   8.253
 5713POPC   C3B12045  41.603  35.870   7.953
 5713POPC   C4B12046  41.595  35.857   7.653
 5714POPC   NC312047  33.000  25.264   9.453
 5714POPC   PO412048  33.008  25.283   9.153
 5714POPC   GL112049  32.993  25.252   8.853
 5714POPC   GL212050  32.979  25.181   8.853
 5714POPC   C1A12051  33.061  25.265   8.553
 5714POPC   D2A12052  33.049  25.267   8.253
 5714POPC   C3A12053  33.022  25.304   7.953
 5714POPC   C4A12054  33.067  25.258   7.653
 5714POPC   C1B12055  33.012  25.037   8.553
 5714POPC   C2B12056  33.019  25.045   8.253
 5714POPC   C3B12057  33.018  24.990   7.953
 5714POPC   C4B12058  33.043  24.990   7.653
 5715POPC   NC312059  31.437  33.065   9.453
 5715POPC   PO412060  31.522  33.052   9.153
 5715POPC   GL112061  31.474  32.974   8.853
 5715POPC   GL212062  31.637  33.001   8.853
 5715POPC   C1A12063  31.467  32.992   8.553
 5715POPC   D2A12064  31.502  33.041   8.253
 5715POPC   C3A12065  31.464  33.030   7.953
 5715POPC   C4A12066  31.462  33.043   7.653
 5715POPC   C1B12067  31.753  33.025   8.553
 5715POPC   C2B12068  31.744  32.986   8.253
 5715POPC   C3B12069  31.713  33.034   7.953
 5715POPC   C4B12070  31.731  32.987   7.653
 5716POPC   NC312071  12.895  31.435   9.453
 5716POPC   PO412072  12.824  31.444   9.153
 5716POPC   GL112073  12.862  31.485   8.853
 5716POPC   GL212074  12.784  31.345   8.853
 5716POPC   C1A12075  12.806  31.503   8.553
 5716POPC   D2A12076  12.827  31.477   8.253
 5716POPC   C3A12077  12.870  31.469   7.953
 5716POPC   C4A12078  12.898  31.479   7.653
 5716POPC   C1B12079  12.769  31.229   8.553
 5716POPC   C2B12080  12.745  31.204   8.253
 5716POPC   C3B12081  12.740  31.272   7.953
 5716POPC   C4B12082  12.716  31.279   7.653
 5717POPC   NC312083   9.707  38.483   9.453
 5717POPC   PO412084   9.704  38.429   9.153
 5717POPC   GL112085   9.726  38.436   8.853
 5717POPC   GL212086   9.781  38.580   8.853
 5717POPC   C1A12087   9.724  38.455   8.553
 5717POPC   D2A12088   9.742  38.503   8.253
 5717POPC   C3A12089   9.788  38.408   7.953
 5717POPC   C4A12090   9.750  38.495   7.653
 5717POPC   C1B12091   9.905  38.665   8.553
 5717POPC   C2B12092   9.909  38.679   8.253
 5717POPC   C3B12093   9.908  38.698   7.953
 5717POPC   C4B12094   9.917  38.619   7.653
 5718POPC   NC312095  36.908  12.050   9.453
 5718POPC   PO412096  36.911  12.064   9.153
 5718POPC   GL112097  36.926  12.103   8.853
 5718POPC   GL212098  36.760  12.123   8.853
 5718POPC   C1A12099  36.915  12.055   8.553
 5718POPC   D2A12100  36.938  12.071   8.253
 5718POPC   C3A12101  36.948  12.085   7.953
 5718POPC   C4A12102  36.878  12.121   7.653
 5718POPC   C1B12103  36.700  12.097   8.553
 5718POPC   C2B12104  36.621  12.103   8.253
 5718POPC   C3B12105  36.679  12.069   7.953
 5718POPC   C4B12106  36.682  12.096   7.653
 5719POPC   NC312107  36.946   2.741   9.453
 5719POPC   PO412108  36.865   2.745   9.153
 5719POPC   GL112109  36.912   2.756   8.853
 5719POPC   GL212110  36.754   2.751   8.853
 5719POPC   C1A12111  36.913   2.721   8.553
 5719POPC   D2A12112  36.904   2.768   8.253
 5719POPC   C3A12113  36.950   2.755   7.953
 5719POPC   C4A12114  36.878   2.810   7.653
 5719POPC   C1B12115  36.608   2.776   8.553
 5719POPC   C2B12116  36.695   2.697   8.253
 5719POPC   C3B12117  36.635   2.780   7.953
 5719POPC   C4B12118  36.661   2.779   7.653
 5720POPC   NC312119  20.597  30.709   9.453
 5720POPC   PO412120  20.656  30.657   9.153
 5720POPC   GL112121  20.618  30.689   8.853
 5720POPC   GL212122  20.681  30.613   8.853
 5720POPC   C1A12123  20.641  30.690   8.553
 5720POPC   D2A12124  20.584  30.723   8.253
 5720POPC   C3A12125  20.657  30.654   7.953
 5720POPC   C4A12126  20.573  30.667   7.653
 5720POPC   C1B12127  20.848  30.536   8.553
 5720POPC   C2B12128  20.798  30.516   8.253
 5720POPC   C3B12129  20.782  30.585   7.953
 5720POPC   C4B12130  20.803  30.564   7.653
 5721POPC   NC312131   1.260  12.886   9.453
 5721POPC   PO412132   1.262  12.808   9.153
 5721POPC   GL112133   1.218  12.882   8.853
 5721POPC   GL212134   1.245  12.941   8.853
 5721POPC   C1A12135   1.204  12.878   8.553
 5721POPC   D2A12136   1.170  12.843   8.253
 5721POPC   C3A12137   1.234  12.893   7.953
 5721POPC   C4A12138   1.195  12.860   7.653
 5721POPC   C1B12139   1.208  13.096   8.553
 5721POPC   C2B12140   1.193  13.108   8.253
 5721POPC   C3B12141   1.191  13.099   7.953
 5721POPC   C4B12142   1.156  13.057   7.653
 5722POPC   NC312143  19.047  42.379   9.453
 5722POPC   PO412144  19.054  42.290   9.153
 5722POPC   GL112145  19.099  42.306   8.853
 5722POPC   GL212146  19.055  42.476   8.853
 5722POPC   C1A12147  19.030  42.369   8.553
 5722POPC   D2A12148  19.057  42.364   8.253
 5722POPC   C3A12149  19.076  42.335   7.953
 5722POPC   C4A12150  19.056  42.352   7.653
 5722POPC   C1B12151  19.099  42.619   8.553
 5722POPC   C2B12152  19.077  42.543   8.253
 5722POPC   C3B12153  19.101  42.557   7.953
 5722POPC   C4B12154  19.026  42.604   7.653
 5723POPC   NC312155   2.781  10.534   9.453
 5723POPC   PO412156   2.723  10.556   9.153
 5723POPC   GL112157   2.785  10.572   8.853
 5723POPC   GL212158   2.781  10.622   8.853
 5723POPC   C1A12159   2.786  10.526   8.553
 5723POPC   D2A12160   2.799  10.548   8.253
 5723POPC   C3A12161   2.738  10.510   7.953
 5723POPC   C4A12162   2.738  10.562   7.653
 5723POPC   C1B12163   2.775  10.735   8.553
 5723POPC   C2B12164   2.845  10.810   8.253
 5723POPC   C3B12165   2.774  10.798   7.953
 5723POPC   C4B12166   2.832  10.745   7.653
 5724POPC   NC312167   1.206  41.575   9.453
 5724POPC   PO412168   1.255  41.597   9.153
 5724POPC   GL112169   1.168  41.567   8.853
 5724POPC   GL212170   1.369  41.618   8.853
 5724POPC   C1A12171   1.209  41.523   8.553
 5724POPC   D2A12172   1.173  41.562   8.253
 5724POPC   C3A12173   1.230  41.522   7.953
 5724POPC   C4A12174   1.169  41.579   7.653
 5724POPC   C1B12175   1.467  41.634   8.553
 5724POPC   C2B12176   1.494  41.649   8.253
 5724POPC   C3B12177   1.474  41.618   7.953
 5724POPC   C4B12178   1.424  41.683   7.653
 5725POPC   NC312179  27.611  22.131   9.453
 5725POPC   PO412180  27.627  22.146   9.153
 5725POPC   GL112181  27.632  22.178   8.853
 5725POPC   GL212182  27.499  22.251   8.853
 5725POPC   C1A12183  27.583  22.117   8.553
 5725POPC   D2A12184  27.634  22.145   8.253
 5725POPC   C3A12185  27.642  22.189   7.953
 5725POPC   C4A12186  27.633  22.118   7.653
 5725POPC   C1B12187  27.393  22.335   8.553
 5725POPC   C2B12188  27.344  22.299   8.253
 5725POPC   C3B12189  27.405  22.322   7.953
 5725POPC   C4B12190  27.362  22.358   7.653
 5726POPC   NC312191  36.105  44.644   9.453
 5726POPC   PO412192  36.098  44.666   9.153
 5726POPC   GL112193  36.078  44.613   8.853
 5726POPC   GL212194  36.014  44.603   8.853
 5726POPC   C1A12195  36.177  44.707   8.553
 5726POPC   D2A12196  36.106  44.640   8.253
 5726POPC   C3A12197  36.082  44.657   7.953
 5726POPC   C4A12198  36.163  44.663   7.653
 5726POPC   C1B12199  35.963  44.486   8.553
 5726POPC   C2B12200  35.936  44.479   8.253
 5726POPC   C3B12201  35.962  44.476   7.953
 5726POPC   C4B12202  35.946  44.555   7.653
 5727POPC   NC312203   0.393  37.720   9.453
 5727POPC   PO412204   0.478  37.682   9.153
 5727POPC   GL112205   0.417  37.656   8.853
 5727POPC   GL212206   0.489  37.820   8.853
 5727POPC   C1A12207   0.431  37.684   8.553
 5727POPC   D2A12208   0.444  37.710   8.253
 5727POPC   C3A12209   0.451  37.649   7.953
 5727POPC   C4A12210   0.425  37.716   7.653
 5727POPC   C1B12211   0.503  37.959   8.553
 5727POPC   C2B12212   0.437  37.892   8.253
 5727POPC   C3B12213   0.461  37.951   7.953
 5727POPC   C4B12214   0.451  37.922   7.653
 5728POPC   NC312215  33.786   1.952   9.453
 5728POPC   PO412216  33.752   1.945   9.153
 5728POPC   GL112217  33.792   1.979   8.853
 5728POPC   GL212218  33.736   1.917   8.853
 5728POPC   C1A12219  33.817   2.039   8.553
 5728POPC   D2A12220  33.782   2.040   8.253
 5728POPC   C3A12221  33.808   1.961   7.953
 5728POPC   C4A12222  33.825   2.022   7.653
 5728POPC   C1B12223  33.660   1.814   8.553
 5728POPC   C2B12224  33.607   1.754   8.253
 5728POPC   C3B12225  33.658   1.796   7.953
 5728POPC   C4B12226  33.655   1.831   7.653
 5729POPC   NC312227  25.245   0.426   9.453
 5729POPC   PO412228  25.216   0.476   9.153
 5729POPC   GL112229  25.273   0.479   8.853
 5729POPC   GL212230  25.214   0.589   8.853
 5729POPC   C1A12231  25.306   0.395   8.553
 5729POPC   D2A12232  25.282   0.428   8.253
 5729POPC   C3A12233  25.233   0.424   7.953
 5729POPC   C4A12234  25.225   0.463   7.653
 5729POPC   C1B12235  25.119   0.651   8.553
 5729POPC   C2B12236  25.149   0.711   8.253
 5729POPC   C3B12237  25.161   0.677   7.953
 5729POPC   C4B12238  25.183   0.701   7.653
 5730POPC   NC312239   1.258  38.411   9.453
 5730POPC   PO412240   1.190  38.417   9.153
 5730POPC   GL112241   1.190  38.469   8.853
 5730POPC   GL212242   1.067  38.478   8.853
 5730POPC   C1A12243   1.260  38.421   8.553
 5730POPC   D2A12244   1.233  38.469   8.253
 5730POPC   C3A12245   1.178  38.494   7.953
 5730POPC   C4A12246   1.249  38.425   7.653
 5730POPC   C1B12247   0.939  38.499   8.553
 5730POPC   C2B12248   1.025  38.585   8.253
 5730POPC   C3B12249   0.960  38.559   7.953
 5730POPC   C4B12250   0.967  38.589   7.653
 5731POPC   NC312251  13.630  12.052   9.453
 5731POPC   PO412252  13.589  12.088   9.153
 5731POPC   GL112253  13.624  12.081   8.853
 5731POPC   GL212254  13.522  11.948   8.853
 5731POPC   C1A12255  13.596  12.076   8.553
 5731POPC   D2A12256  13.609  12.105   8.253
 5731POPC   C3A12257  13.599  12.102   7.953
 5731POPC   C4A12258  13.596  12.116   7.653
 5731POPC   C1B12259  13.421  11.915   8.553
 5731POPC   C2B12260  13.449  11.898   8.253
 5731POPC   C3B12261  13.402  11.938   7.953
 5731POPC   C4B12262  13.478  11.948   7.653
 5732POPC   NC312263  33.770   8.934   9.453
 5732POPC   PO412264  33.820   9.002   9.153
 5732POPC   GL112265  33.781   9.013   8.853
 5732POPC   GL212266  33.825   8.819   8.853
 5732POPC   C1A12267  33.841   8.940   8.553
 5732POPC   D2A12268  33.833   8.980   8.253
 5732POPC   C3A12269  33.809   8.985   7.953
 5732POPC   C4A12270  33.813   8.926   7.653
 5732POPC   C1B12271  33.763   8.772   8.553
 5732POPC   C2B12272  33.776   8.762   8.253
 5732POPC   C3B12273  33.819   8.719   7.953
 5732POPC   C4B12274  33.759   8.738   7.653
 5733POPC   NC312275  10.490  36.898   9.453
 5733POPC   PO412276  10.522  36.927   9.153
 5733POPC   GL112277  10.548  36.869   8.853
 5733POPC   GL212278  10.661  36.786   8.853
 5733POPC   C1A12279  10.538  36.877   8.553
 5733POPC   D2A12280  10.521  36.874   8.253
 5733POPC   C3A12281  10.525  36.906   7.953
 5733POPC   C4A12282  10.490  36.929   7.653
 5733POPC   C1B12283  10.709  36.702   8.553
 5733POPC   C2B12284  10.659  36.697   8.253
 5733POPC   C3B12285  10.754  36.772   7.953
 5733POPC   C4B12286  10.692  36.721   7.653
 5734POPC   NC312287   8.209   7.408   9.453
 5734POPC   PO412288   8.173   7.392   9.153
 5734POPC   GL112289   8.185   7.397   8.853
 5734POPC   GL212290   8.219   7.552   8.853
 5734POPC   C1A12291   8.193   7.430   8.553
 5734POPC   D2A12292   8.193   7.467   8.253
 5734POPC   C3A12293   8.187   7.430   7.953
 5734POPC   C4A12294   8.161   7.457   7.653
 5734POPC   C1B12295   8.297   7.682   8.553
 5734POPC   C2B12296   8.312   7.663   8.253
 5734POPC   C3B12297   8.263   7.679   7.953
 5734POPC   C4B12298   8.301   7.668   7.653
 5735POPC   NC312299  12.874  13.655   9.453
 5735POPC   PO412300  12.875  13.624   9.153
 5735POPC   GL112301  12.845  13.616   8.853
 5735POPC   GL212302  12.691  13.658   8.853
 5735POPC   C1A12303  12.843  13.663   8.553
 5735POPC   D2A12304  12.815  13.583   8.253
 5735POPC   C3A12305  12.899  13.598   7.953
 5735POPC   C4A12306  12.877  13.637   7.653
 5735POPC   C1B12307  12.554  13.573   8.553
 5735POPC   C2B12308  12.593  13.650   8.253
 5735POPC   C3B12309  12.578  13.627   7.953
 5735POPC   C4B12310  12.585  13.660   7.653
 5736POPC   NC312311  22.206  12.804   9.453
 5736POPC   PO412312  22.116  12.872   9.153
 5736POPC   GL112313  22.163  12.855   8.853
 5736POPC   GL212314  22.057  12.724   8.853
 5736POPC   C1A12315  22.121  12.839   8.553
 5736POPC   D2A12316  22.160  12.897   8.253
 5736POPC   C3A12317  22.202  12.898   7.953
 5736POPC   C4A12318  22.171  12.871   7.653
 5736POPC   C1B12319  22.057  12.623   8.553
 5736POPC   C2B12320  21.973  12.619   8.253
 5736POPC   C3B12321  21.996  12.654   7.953
 5736POPC   C4B12322  21.979  12.679   7.653
 5737POPC   NC312323  33.023  23.689   9.453
 5737POPC   PO412324  33.058  23.683   9.153
 5737POPC   GL112325  33.016  23.762   8.853
 5737POPC   GL212326  33.128  23.783   8.853
 5737POPC   C1A12327  33.043  23.685   8.553
 5737POPC   D2A12328  33.031  23.726   8.253
 5737POPC   C3A12329  33.063  23.666   7.953
 5737POPC   C4A12330  33.000  23.703   7.653
 5737POPC   C1B12331  33.186  23.972   8.553
 5737POPC   C2B12332  33.124  23.906   8.253
 5737POPC   C3B12333  33.174  23.897   7.953
 5737POPC   C4B12334  33.136  23.905   7.653
 5738POPC   NC312335  32.216  28.406   9.453
 5738POPC   PO412336  32.289  28.377   9.153
 5738POPC   GL112337  32.237  28.417   8.853
 5738POPC   GL212338  32.144  28.413   8.853
 5738POPC   C1A12339  32.206  28.356   8.553
 5738POPC   D2A12340  32.237  28.364   8.253
 5738POPC   C3A12341  32.233  28.390   7.953
 5738POPC   C4A12342  32.228  28.388   7.653
 5738POPC   C1B12343  32.077  28.549   8.553
 5738POPC   C2B12344  32.067  28.541   8.253
 5738POPC   C3B12345  32.082  28.554   7.953
 5738POPC   C4B12346  32.021  28.526   7.653
 5739POPC   NC312347  32.235  37.638   9.453
 5739POPC   PO412348  32.244  37.653   9.153
 5739POPC   GL112349  32.226  37.687   8.853
 5739POPC   GL212350  32.379  37.678   8.853
 5739POPC   C1A12351  32.215  37.640   8.553
 5739POPC   D2A12352  32.298  37.649   8.253
 5739POPC   C3A12353  32.239  37.719   7.953
 5739POPC   C4A12354  32.254  37.679   7.653
 5739POPC   C1B12355  32.537  37.672   8.553
 5739POPC   C2B12356  32.517  37.706   8.253
 5739POPC   C3B12357  32.507  37.691   7.953
 5739POPC   C4B12358  32.476  37.695   7.653
 5740POPC   NC312359  38.487  17.536   9.453
 5740POPC   PO412360  38.474  17.546   9.153
 5740POPC   GL112361  38.434  17.498   8.853
 5740POPC   GL212362  38.416  17.590   8.853
 5740POPC   C1A12363  38.408  17.496   8.553
 5740POPC   D2A12364  38.473  17.502   8.253
 5740POPC   C3A12365  38.411  17.495   7.953
 5740POPC   C4A12366  38.465  17.542   7.653
 5740POPC   C1B12367  38.326  17.673   8.553
 5740POPC   C2B12368  38.305  17.708   8.253
 5740POPC   C3B12369  38.334  17.759   7.953
 5740POPC   C4B12370  38.331  17.756   7.653
 5741POPC   NC312371  11.282  21.403   9.453
 5741POPC   PO412372  11.301  21.436   9.153
 5741POPC   GL112373  11.337  21.399   8.853
 5741POPC   GL212374  11.355  21.274   8.853
 5741POPC   C1A12375  11.334  21.415   8.553
 5741POPC   D2A12376  11.263  21.370   8.253
 5741POPC   C3A12377  11.345  21.424   7.953
 5741POPC   C4A12378  11.266  21.340   7.653
 5741POPC   C1B12379  11.434  21.203   8.553
 5741POPC   C2B12380  11.424  21.145   8.253
 5741POPC   C3B12381  11.468  21.216   7.953
 5741POPC   C4B12382  11.480  21.217   7.653
 5742POPC   NC312383  43.071  28.397   9.453
 5742POPC   PO412384  43.131  28.370   9.153
 5742POPC   GL112385  43.092  28.348   8.853
 5742POPC   GL212386  43.078  28.230   8.853
 5742POPC   C1A12387  43.138  28.330   8.553
 5742POPC   D2A12388  43.114  28.346   8.253
 5742POPC   C3A12389  43.151  28.364   7.953
 5742POPC   C4A12390  43.102  28.387   7.653
 5742POPC   C1B12391  42.918  28.138   8.553
 5742POPC   C2B12392  42.925  28.197   8.253
 5742POPC   C3B12393  42.987  28.157   7.953
 5742POPC   C4B12394  42.903  28.179   7.653
 5743POPC   NC312395  43.141  41.606   9.453
 5743POPC   PO412396  43.100  41.560   9.153
 5743POPC   GL112397  43.157  41.568   8.853
 5743POPC   GL212398  43.201  41.446   8.853
 5743POPC   C1A12399  43.159  41.589   8.553
 5743POPC   D2A12400  43.154  41.604   8.253
 5743POPC   C3A12401  43.092  41.593   7.953
 5743POPC   C4A12402  43.133  41.553   7.653
 5743POPC   C1B12403  43.371  41.420   8.553
 5743POPC   C2B12404  43.289  41.416   8.253
 5743POPC   C3B12405  43.334  41.433   7.953
 5743POPC   C4B12406  43.339  41.390   7.653
 5744POPC   NC312407  41.525  30.669   9.453
 5744POPC   PO412408  41.538  30.712   9.153
 5744POPC   GL112409  41.561  30.660   8.853
 5744POPC   GL212410  41.698  30.659   8.853
 5744POPC   C1A12411  41.511  30.685   8.553
 5744POPC   D2A12412  41.534  30.689   8.253
 5744POPC   C3A12413  41.521  30.655   7.953
 5744POPC   C4A12414  41.579  30.670   7.653
 5744POPC   C1B12415  41.775  30.610   8.553
 5744POPC   C2B12416  41.786  30.655   8.253
 5744POPC   C3B12417  41.839  30.642   7.953
 5744POPC   C4B12418  41.835  30.663   7.653
 5745POPC   NC312419   5.134   0.457   9.453
 5745POPC   PO412420   5.063   0.396   9.153
 5745POPC   GL112421   5.075   0.402   8.853
 5745POPC   GL212422   5.253   0.343   8.853
 5745POPC   C1A12423   5.070   0.427   8.553
 5745POPC   D2A12424   5.097   0.484   8.253
 5745POPC   C3A12425   5.099   0.406   7.953
 5745POPC   C4A12426   5.093   0.424   7.653
 5745POPC   C1B12427   5.335   0.355   8.553
 5745POPC   C2B12428   5.282   0.355   8.253
 5745POPC   C3B12429   5.345   0.346   7.953
 5745POPC   C4B12430   5.348   0.365   7.653
 5746POPC   NC312431  37.664   6.621   9.453
 5746POPC   PO412432  37.666   6.668   9.153
 5746POPC   GL112433  37.694   6.606   8.853
 5746POPC   GL212434  37.524   6.674   8.853
 5746POPC   C1A12435  37.687   6.687   8.553
 5746POPC   D2A12436  37.631   6.675   8.253
 5746POPC   C3A12437  37.709   6.621   7.953
 5746POPC   C4A12438  37.705   6.653   7.653
 5746POPC   C1B12439  37.418   6.745   8.553
 5746POPC   C2B12440  37.454   6.754   8.253
 5746POPC   C3B12441  37.431   6.781   7.953
 5746POPC   C4B12442  37.442   6.721   7.653
 5747POPC   NC312443   2.010   2.774   9.453
 5747POPC   PO412444   2.037   2.742   9.153
 5747POPC   GL112445   2.031   2.743   8.853
 5747POPC   GL212446   1.900   2.691   8.853
 5747POPC   C1A12447   1.951   2.730   8.553
 5747POPC   D2A12448   1.993   2.793   8.253
 5747POPC   C3A12449   1.954   2.757   7.953
 5747POPC   C4A12450   1.980   2.745   7.653
 5747POPC   C1B12451   1.718   2.703   8.553
 5747POPC   C2B12452   1.748   2.714   8.253
 5747POPC   C3B12453   1.735   2.707   7.953
 5747POPC   C4B12454   1.753   2.693   7.653
 5748POPC   NC312455  22.117  23.755   9.453
 5748POPC   PO412456  22.125  23.685   9.153
 5748POPC   GL112457  22.115  23.760   8.853
 5748POPC   GL212458  21.989  23.683   8.853
 5748POPC   C1A12459  22.132  23.727   8.553
 5748POPC   D2A12460  22.184  23.720   8.253
 5748POPC   C3A12461  22.126  23.734   7.953
 5748POPC   C4A12462  22.160  23.702   7.653
 5748POPC   C1B12463  21.905  23.768   8.553
 5748POPC   C2B12464  21.930  23.785   8.253
 5748POPC   C3B12465  21.886  23.718   7.953
 5748POPC   C4B12466  21.899  23.751   7.653
 5749POPC   NC312467  42.362  19.015   9.453
 5749POPC   PO412468  42.321  19.025   9.153
 5749POPC   GL112469  42.325  19.090   8.853
 5749POPC   GL212470  42.242  19.082   8.853
 5749POPC   C1A12471  42.338  19.036   8.553
 5749POPC   D2A12472  42.310  19.032   8.253
 5749POPC   C3A12473  42.293  19.087   7.953
 5749POPC   C4A12474  42.348  19.062   7.653
 5749POPC   C1B12475  42.093  19.137   8.553
 5749POPC   C2B12476  42.092  19.131   8.253
 5749POPC   C3B12477  42.088  19.145   7.953
 5749POPC   C4B12478  42.108  19.216   7.653
 5750POPC   NC312479  39.253  26.864   9.453
 5750POPC   PO412480  39.247  26.861   9.153
 5750POPC   GL112481  39.237  26.807   8.853
 5750POPC   GL212482  39.133  26.838   8.853
 5750POPC   C1A12483  39.272  26.770   8.553
 5750POPC   D2A12484  39.232  26.818   8.253
 5750POPC   C3A12485  39.263  26.773   7.953
 5750POPC   C4A12486  39.275  26.791   7.653
 5750POPC   C1B12487  39.038  26.909   8.553
 5750POPC   C2B12488  38.952  26.879   8.253
 5750POPC   C3B12489  38.974  26.924   7.953
 5750POPC   C4B12490  38.965  26.867   7.653
 5751POPC   NC312491   2.815  33.750   9.453
 5751POPC   PO412492   2.785  33.792   9.153
 5751POPC   GL112493   2.716  33.826   8.853
 5751POPC   GL212494   2.650  33.854   8.853
 5751POPC   C1A12495   2.775  33.778   8.553
 5751POPC   D2A12496   2.753  33.821   8.253
 5751POPC   C3A12497   2.767  33.844   7.953
 5751POPC   C4A12498   2.746  33.810   7.653
 5751POPC   C1B12499   2.574  33.843   8.553
 5751POPC   C2B12500   2.539  33.919   8.253
 5751POPC   C3B12501   2.530  33.883   7.953
 5751POPC   C4B12502   2.507  33.875   7.653
 5752POPC   NC312503  40.046   3.533   9.453
 5752POPC   PO412504  40.026   3.577   9.153
 5752POPC   GL112505  39.963   3.533   8.853
 5752POPC   GL212506  40.020   3.712   8.853
 5752POPC   C1A12507  40.009   3.495   8.553
 5752POPC   D2A12508  39.985   3.586   8.253
 5752POPC   C3A12509  39.999   3.550   7.953
 5752POPC   C4A12510  40.016   3.540   7.653
 5752POPC   C1B12511  39.996   3.772   8.553
 5752POPC   C2B12512  40.031   3.745   8.253
 5752POPC   C3B12513  40.030   3.787   7.953
 5752POPC   C4B12514  39.995   3.808   7.653
 5753POPC   NC312515  12.900  43.085   9.453
 5753POPC   PO412516  12.855  43.123   9.153
 5753POPC   GL112517  12.887  43.075   8.853
 5753POPC   GL212518  12.923  42.994   8.853
 5753POPC   C1A12519  12.828  43.068   8.553
 5753POPC   D2A12520  12.832  43.073   8.253
 5753POPC   C3A12521  12.825  43.100   7.953
 5753POPC   C4A12522  12.829  43.094   7.653
 5753POPC   C1B12523  12.976  42.921   8.553
 5753POPC   C2B12524  12.911  42.884   8.253
 5753POPC   C3B12525  12.901  42.872   7.953
 5753POPC   C4B12526  12.984  42.847   7.653
 5754POPC   NC312527   5.079  40.762   9.453
 5754POPC   PO412528   5.063  40.767   9.153
 5754POPC   GL112529   5.076  40.745   8.853
 5754POPC   GL212530   5.007  40.847   8.853
 5754POPC   C1A12531   5.137  40.770   8.553
 5754POPC   D2A12532   5.075  40.828   8.253
 5754POPC   C3A12533   5.056  40.812   7.953
 5754POPC   C4A12534   5.074  40.830   7.653
 5754POPC   C1B12535   4.859  40.917   8.553
 5754POPC   C2B12536   4.945  40.955   8.253
 5754POPC   C3B12537   4.935  40.915   7.953
 5754POPC   C4B12538   4.923  40.905   7.653
 5755POPC   NC312539  28.326  26.067   9.453
 5755POPC   PO412540  28.397  26.069   9.153
 5755POPC   GL112541  28.387  26.039   8.853
 5755POPC   GL212542  28.351  25.955   8.853
 5755POPC   C1A12543  28.327  26.042   8.553
 5755POPC   D2A12544  28.335  26.025   8.253
 5755POPC   C3A12545  28.378  25.999   7.953
 5755POPC   C4A12546  28.323  26.013   7.653
 5755POPC   C1B12547  28.292  25.792   8.553
 5755POPC   C2B12548  28.286  25.747   8.253
 5755POPC   C3B12549  28.305  25.820   7.953
 5755POPC   C4B12550  28.357  25.756   7.653
 5756POPC   NC312551   5.066  22.179   9.453
 5756POPC   PO412552   5.142  22.180   9.153
 5756POPC   GL112553   5.120  22.209   8.853
 5756POPC   GL212554   5.120  22.034   8.853
 5756POPC   C1A12555   5.113  22.204   8.553
 5756POPC   D2A12556   5.047  22.128   8.253
 5756POPC   C3A12557   5.139  22.177   7.953
 5756POPC   C4A12558   5.136  22.131   7.653
 5756POPC   C1B12559   5.196  21.964   8.553
 5756POPC   C2B12560   5.181  21.915   8.253
 5756POPC   C3B12561   5.119  21.969   7.953
 5756POPC   C4B12562   5.210  21.960   7.653
 5757POPC   NC312563  19.846  26.779   9.453
 5757POPC   PO412564  19.843  26.789   9.153
 5757POPC   GL112565  19.857  26.850   8.853
 5757POPC   GL212566  19.695  26.796   8.853
 5757POPC   C1A12567  19.840  26.793   8.553
 5757POPC   D2A12568  19.831  26.801   8.253
 5757POPC   C3A12569  19.832  26.767   7.953
 5757POPC   C4A12570  19.879  26.812   7.653
 5757POPC   C1B12571  19.598  26.758   8.553
 5757POPC   C2B12572  19.630  26.715   8.253
 5757POPC   C3B12573  19.546  26.758   7.953
 5757POPC   C4B12574  19.615  26.725   7.653
 5758POPC   NC312575  23.664   3.571   9.453
 5758POPC   PO412576  23.711   3.496   9.153
 5758POPC   GL112577  23.728   3.542   8.853
 5758POPC   GL212578  23.783   3.707   8.853
 5758POPC   C1A12579  23.714   3.582   8.553
 5758POPC   D2A12580  23.722   3.565   8.253
 5758POPC   C3A12581  23.734   3.560   7.953
 5758POPC   C4A12582  23.692   3.574   7.653
 5758POPC   C1B12583  23.728   3.814   8.553
 5758POPC   C2B12584  23.809   3.814   8.253
 5758POPC   C3B12585  23.759   3.742   7.953
 5758POPC   C4B12586  23.802   3.824   7.653
 5759POPC   NC312587   1.193  26.799   9.453
 5759POPC   PO412588   1.236  26.774   9.153
 5759POPC   GL112589   1.243  26.794   8.853
 5759POPC   GL212590   1.055  26.822   8.853
 5759POPC   C1A12591   1.172  26.788   8.553
 5759POPC   D2A12592   1.205  26.785   8.253
 5759POPC   C3A12593   1.257  26.812   7.953
 5759POPC   C4A12594   1.239  26.837   7.653
 5759POPC   C1B12595   1.010  26.892   8.553
 5759POPC   C2B12596   0.994  26.904   8.253
 5759POPC   C3B12597   0.940  26.854   7.953
 5759POPC   C4B12598   0.973  26.838   7.653
 5760POPC   NC312599  26.828  21.361   9.453
 5760POPC   PO412600  26.849  21.366   9.153
 5760POPC   GL112601  26.806  21.417   8.853
 5760POPC   GL212602  26.692  21.331   8.853
 5760POPC   C1A12603  26.822  21.363   8.553
 5760POPC   D2A12604  26.807  21.427   8.253
 5760POPC   C3A12605  26.832  21.339   7.953
 5760POPC   C4A12606  26.799  21.411   7.653
 5760POPC   C1B12607  26.525  21.346   8.553
 5760POPC   C2B12608  26.607  21.328   8.253
 5760POPC   C3B12609  26.570  21.335   7.953
 5760POPC   C4B12610  26.549  21.407   7.653
 5761POPC   NC312611  12.886   0.461   9.453
 5761POPC   PO412612  12.853   0.406   9.153
 5761POPC   GL112613  12.879   0.445   8.853
 5761POPC   GL212614  12.801   0.552   8.853
 5761POPC   C1A12615  12.828   0.460   8.553
 5761POPC   D2A12616  12.892   0.447   8.253
 5761POPC   C3A12617  12.837   0.408   7.953
 5761POPC   C4A12618  12.895   0.478   7.653
 5761POPC   C1B12619  12.866   0.687   8.553
 5761POPC   C2B12620  12.836   0.700   8.253
 5761POPC   C3B12621  12.834   0.700   7.953
 5761POPC   C4B12622  12.811   0.672   7.653
 5762POPC   NC312623  26.091  39.250   9.453
 5762POPC   PO412624  26.087  39.226   9.153
 5762POPC   GL112625  26.020  39.260   8.853
 5762POPC   GL212626  26.149  39.202   8.853
 5762POPC   C1A12627  26.014  39.251   8.553
 5762POPC   D2A12628  26.086  39.253   8.253
 5762POPC   C3A12629  26.077  39.217   7.953
 5762POPC   C4A12630  26.035  39.191   7.653
 5762POPC   C1B12631  26.323  39.176   8.553
 5762POPC   C2B12632  26.233  39.111   8.253
 5762POPC   C3B12633  26.319  39.100   7.953
 5762POPC   C4B12634  26.271  39.116   7.653
 5763POPC   NC312635   7.448   6.647   9.453
 5763POPC   PO412636   7.422   6.666   9.153
 5763POPC   GL112637   7.376   6.668   8.853
 5763POPC   GL212638   7.398   6.801   8.853
 5763POPC   C1A12639   7.405   6.652   8.553
 5763POPC   D2A12640   7.398   6.621   8.253
 5763POPC   C3A12641   7.397   6.634   7.953
 5763POPC   C4A12642   7.431   6.638   7.653
 5763POPC   C1B12643   7.368   6.843   8.553
 5763POPC   C2B12644   7.316   6.829   8.253
 5763POPC   C3B12645   7.293   6.889   7.953
 5763POPC   C4B12646   7.374   6.876   7.653
 5764POPC   NC312647  29.948  19.793   9.453
 5764POPC   PO412648  29.914  19.823   9.153
 5764POPC   GL112649  29.937  19.848   8.853
 5764POPC   GL212650  29.762  19.822   8.853
 5764POPC   C1A12651  29.951  19.858   8.553
 5764POPC   D2A12652  29.904  19.853   8.253
 5764POPC   C3A12653  29.917  19.837   7.953
 5764POPC   C4A12654  29.927  19.814   7.653
 5764POPC   C1B12655  29.675  19.803   8.553
 5764POPC   C2B12656  29.636  19.866   8.253
 5764POPC   C3B12657  29.708  19.863   7.953
 5764POPC   C4B12658  29.624  19.863   7.653
 5765POPC   NC312659  36.890  44.708   9.453
 5765POPC   PO412660  36.892  44.702   9.153
 5765POPC   GL112661  36.943  44.657   8.853
 5765POPC   GL212662  36.991  44.678   8.853
 5765POPC   C1A12663  36.857  44.708   8.553
 5765POPC   D2A12664  36.952  44.635   8.253
 5765POPC   C3A12665  36.876  44.690   7.953
 5765POPC   C4A12666  36.896  44.631   7.653
 5765POPC   C1B12667  37.093  44.766   8.553
 5765POPC   C2B12668  37.109  44.774   8.253
 5765POPC   C3B12669  37.131  44.827   7.953
 5765POPC   C4B12670  37.103  44.753   7.653
 5766POPC   NC312671   3.587  14.360   9.453
 5766POPC   PO412672   3.499  14.431   9.153
 5766POPC   GL112673   3.562  14.371   8.853
 5766POPC   GL212674   3.454  14.264   8.853
 5766POPC   C1A12675   3.516  14.451   8.553
 5766POPC   D2A12676   3.589  14.369   8.253
 5766POPC   C3A12677   3.556  14.376   7.953
 5766POPC   C4A12678   3.587  14.366   7.653
 5766POPC   C1B12679   3.378  14.174   8.553
 5766POPC   C2B12680   3.330  14.173   8.253
 5766POPC   C3B12681   3.417  14.251   7.953
 5766POPC   C4B12682   3.369  14.209   7.653
 5767POPC   NC312683  15.204  41.544   9.453
 5767POPC   PO412684  15.217  41.514   9.153
 5767POPC   GL112685  15.218  41.520   8.853
 5767POPC   GL212686  15.151  41.399   8.853
 5767POPC   C1A12687  15.184  41.583   8.553
 5767POPC   D2A12688  15.197  41.570   8.253
 5767POPC   C3A12689  15.197  41.530   7.953
 5767POPC   C4A12690  15.198  41.553   7.653
 5767POPC   C1B12691  15.190  41.318   8.553
 5767POPC   C2B12692  15.234  41.319   8.253
 5767POPC   C3B12693  15.195  41.290   7.953
 5767POPC   C4B12694  15.188  41.325   7.653
 5768POPC   NC312695  40.750  20.598   9.453
 5768POPC   PO412696  40.748  20.628   9.153
 5768POPC   GL112697  40.789  20.655   8.853
 5768POPC   GL212698  40.735  20.748   8.853
 5768POPC   C1A12699  40.808  20.565   8.553
 5768POPC   D2A12700  40.822  20.600   8.253
 5768POPC   C3A12701  40.819  20.562   7.953
 5768POPC   C4A12702  40.774  20.652   7.653
 5768POPC   C1B12703  40.618  20.744   8.553
 5768POPC   C2B12704  40.621  20.836   8.253
 5768POPC   C3B12705  40.636  20.801   7.953
 5768POPC   C4B12706  40.652  20.835   7.653
 5769POPC   NC312707  11.331  36.088   9.453
 5769POPC   PO412708  11.346  36.120   9.153
 5769POPC   GL112709  11.308  36.098   8.853
 5769POPC   GL212710  11.327  36.010   8.853
 5769POPC   C1A12711  11.283  36.135   8.553
 5769POPC   D2A12712  11.269  36.100   8.253
 5769POPC   C3A12713  11.291  36.115   7.953
 5769POPC   C4A12714  11.332  36.148   7.653
 5769POPC   C1B12715  11.378  35.873   8.553
 5769POPC   C2B12716  11.441  35.874   8.253
 5769POPC   C3B12717  11.357  35.929   7.953
 5769POPC   C4B12718  11.362  35.872   7.653
 5770POPC   NC312719  19.798  36.933   9.453
 5770POPC   PO412720  19.796  36.880   9.153
 5770POPC   GL112721  19.809  36.940   8.853
 5770POPC   GL212722  19.748  36.799   8.853
 5770POPC   C1A12723  19.812  36.901   8.553
 5770POPC   D2A12724  19.827  36.921   8.253
 5770POPC   C3A12725  19.846  36.939   7.953
 5770POPC   C4A12726  19.819  36.907   7.653
 5770POPC   C1B12727  19.794  36.616   8.553
 5770POPC   C2B12728  19.792  36.643   8.253
 5770POPC   C3B12729  19.734  36.699   7.953
 5770POPC   C4B12730  19.804  36.655   7.653
 5771POPC   NC312731  12.026  43.089   9.453
 5771POPC   PO412732  12.032  43.090   9.153
 5771POPC   GL112733  12.065  43.147   8.853
 5771POPC   GL212734  12.055  43.252   8.853
 5771POPC   C1A12735  12.101  43.089   8.553
 5771POPC   D2A12736  12.084  43.154   8.253
 5771POPC   C3A12737  12.036  43.115   7.953
 5771POPC   C4A12738  12.053  43.095   7.653
 5771POPC   C1B12739  11.958  43.342   8.553
 5771POPC   C2B12740  11.982  43.358   8.253
 5771POPC   C3B12741  11.930  43.370   7.953
 5771POPC   C4B12742  12.004  43.339   7.653
 5772POPC   NC312743  29.924   9.708   9.453
 5772POPC   PO412744  29.879   9.788   9.153
 5772POPC   GL112745  29.901   9.740   8.853
 5772POPC   GL212746  29.869   9.635   8.853
 5772POPC   C1A12747  29.934   9.769   8.553
 5772POPC   D2A12748  29.874   9.742   8.253
 5772POPC   C3A12749  29.878   9.781   7.953
 5772POPC   C4A12750  29.893   9.760   7.653
 5772POPC   C1B12751  29.756   9.562   8.553
 5772POPC   C2B12752  29.779   9.574   8.253
 5772POPC   C3B12753  29.779   9.615   7.953
 5772POPC   C4B12754  29.708   9.579   7.653
 5773POPC   NC312755  10.491  26.046   9.453
 5773POPC   PO412756  10.475  26.078   9.153
 5773POPC   GL112757  10.529  26.023   8.853
 5773POPC   GL212758  10.534  25.896   8.853
 5773POPC   C1A12759  10.545  26.089   8.553
 5773POPC   D2A12760  10.520  26.050   8.253
 5773POPC   C3A12761  10.478  26.078   7.953
 5773POPC   C4A12762  10.544  26.076   7.653
 5773POPC   C1B12763  10.518  25.757   8.553
 5773POPC   C2B12764  10.480  25.761   8.253
 5773POPC   C3B12765  10.536  25.747   7.953
 5773POPC   C4B12766  10.464  25.763   7.653
 5774POPC   NC312767  11.280  28.387   9.453
 5774POPC   PO412768  11.252  28.384   9.153
 5774POPC   GL112769  11.308  28.364   8.853
 5774POPC   GL212770  11.178  28.286   8.853
 5774POPC   C1A12771  11.341  28.395   8.553
 5774POPC   D2A12772  11.305  28.404   8.253
 5774POPC   C3A12773  11.349  28.344   7.953
 5774POPC   C4A12774  11.294  28.411   7.653
 5774POPC   C1B12775  11.108  28.257   8.553
 5774POPC   C2B12776  11.051  28.265   8.253
 5774POPC   C3B12777  11.082  28.218   7.953
 5774POPC   C4B12778  11.065  28.252   7.653
 5775POPC   NC312779   4.325  29.963   9.453
 5775POPC   PO412780   4.363  29.900   9.153
 5775POPC   GL112781   4.301  29.920   8.853
 5775POPC   GL212782   4.482  29.982   8.853
 5775POPC   C1A12783   4.318  29.940   8.553
 5775POPC   D2A12784   4.334  29.906   8.253
 5775POPC   C3A12785   4.282  29.912   7.953
 5775POPC   C4A12786   4.307  29.969   7.653
 5775POPC   C1B12787   4.602  29.898   8.553
 5775POPC   C2B12788   4.526  29.986   8.253
 5775POPC   C3B12789   4.569  29.970   7.953
 5775POPC   C4B12790   4.566  29.950   7.653
 5776POPC   NC312791  43.882   7.448   9.453
 5776POPC   PO412792  43.865   7.397   9.153
 5776POPC   GL112793  43.853   7.462   8.853
 5776POPC   GL212794  44.008   7.517   8.853
 5776POPC   C1A12795  43.869   7.471   8.553
 5776POPC   D2A12796  43.858   7.462   8.253
 5776POPC   C3A12797  43.913   7.382   7.953
 5776POPC   C4A12798  43.849   7.438   7.653
 5776POPC   C1B12799  44.031   7.664   8.553
 5776POPC   C2B12800  44.040   7.593   8.253
 5776POPC   C3B12801  44.049   7.645   7.953
 5776POPC   C4B12802  44.080   7.610   7.653
 5777POPC   NC312803  26.826  40.056   9.453
 5777POPC   PO412804  26.861  39.983   9.153
 5777POPC   GL112805  26.808  40.009   8.853
 5777POPC   GL212806  26.910  40.031   8.853
 5777POPC   C1A12807  26.819  39.975   8.553
 5777POPC   D2A12808  26.787  40.015   8.253
 5777POPC   C3A12809  26.810  39.984   7.953
 5777POPC   C4A12810  26.830  39.993   7.653
 5777POPC   C1B12811  27.016  39.972   8.553
 5777POPC   C2B12812  27.085  39.954   8.253
 5777POPC   C3B12813  27.055  39.989   7.953
 5777POPC   C4B12814  27.049  40.019   7.653
 5778POPC   NC312815  10.494  36.145   9.453
 5778POPC   PO412816  10.556  36.127   9.153
 5778POPC   GL112817  10.513  36.082   8.853
 5778POPC   GL212818  10.512  36.004   8.853
 5778POPC   C1A12819  10.535  36.170   8.553
 5778POPC   D2A12820  10.497  36.153   8.253
 5778POPC   C3A12821  10.485  36.143   7.953
 5778POPC   C4A12822  10.514  36.079   7.653
 5778POPC   C1B12823  10.433  35.940   8.553
 5778POPC   C2B12824  10.496  35.848   8.253
 5778POPC   C3B12825  10.455  35.938   7.953
 5778POPC   C4B12826  10.417  35.909   7.653
 5779POPC   NC312827  28.407  15.191   9.453
 5779POPC   PO412828  28.411  15.227   9.153
 5779POPC   GL112829  28.404  15.171   8.853
 5779POPC   GL212830  28.278  15.126   8.853
 5779POPC   C1A12831  28.351  15.210   8.553
 5779POPC   D2A12832  28.335  15.134   8.253
 5779POPC   C3A12833  28.404  15.185   7.953
 5779POPC   C4A12834  28.371  15.208   7.653
 5779POPC   C1B12835  28.217  15.000   8.553
 5779POPC   C2B12836  28.218  15.013   8.253
 5779POPC   C3B12837  28.206  14.956   7.953
 5779POPC   C4B12838  28.181  14.993   7.653
 5780POPC   NC312839  32.284   2.735   9.453
 5780POPC   PO412840  32.222   2.805   9.153
 5780POPC   GL112841  32.284   2.798   8.853
 5780POPC   GL212842  32.164   2.870   8.853
 5780POPC   C1A12843  32.230   2.813   8.553
 5780POPC   D2A12844  32.239   2.724   8.253
 5780POPC   C3A12845  32.224   2.782   7.953
 5780POPC   C4A12846  32.260   2.746   7.653
 5780POPC   C1B12847  32.100   2.925   8.553
 5780POPC   C2B12848  32.033   2.975   8.253
 5780POPC   C3B12849  32.106   2.954   7.953
 5780POPC   C4B12850  32.119   2.947   7.653
 5781POPC   NC312851  16.727  42.368   9.453
 5781POPC   PO412852  16.738  42.307   9.153
 5781POPC   GL112853  16.741  42.309   8.853
 5781POPC   GL212854  16.859  42.364   8.853
 5781POPC   C1A12855  16.681  42.354   8.553
 5781POPC   D2A12856  16.762  42.297   8.253
 5781POPC   C3A12857  16.739  42.363   7.953
 5781POPC   C4A12858  16.690  42.371   7.653
 5781POPC   C1B12859  16.901  42.497   8.553
 5781POPC   C2B12860  16.916  42.522   8.253
 5781POPC   C3B12861  16.893  42.484   7.953
 5781POPC   C4B12862  16.931  42.449   7.653
 5782POPC   NC312863  36.858  17.519   9.453
 5782POPC   PO412864  36.923  17.540   9.153
 5782POPC   GL112865  36.859  17.539   8.853
 5782POPC   GL212866  37.001  17.653   8.853
 5782POPC   C1A12867  36.933  17.549   8.553
 5782POPC   D2A12868  36.916  17.541   8.253
 5782POPC   C3A12869  36.882  17.543   7.953
 5782POPC   C4A12870  36.940  17.509   7.653
 5782POPC   C1B12871  37.017  17.718   8.553
 5782POPC   C2B12872  37.007  17.778   8.253
 5782POPC   C3B12873  36.998  17.770   7.953
 5782POPC   C4B12874  36.969  17.707   7.653
 5783POPC   NC312875  28.326  17.480   9.453
 5783POPC   PO412876  28.363  17.460   9.153
 5783POPC   GL112877  28.382  17.552   8.853
 5783POPC   GL212878  28.336  17.600   8.853
 5783POPC   C1A12879  28.358  17.556   8.553
 5783POPC   D2A12880  28.319  17.525   8.253
 5783POPC   C3A12881  28.380  17.533   7.953
 5783POPC   C4A12882  28.416  17.540   7.653
 5783POPC   C1B12883  28.394  17.725   8.553
 5783POPC   C2B12884  28.330  17.768   8.253
 5783POPC   C3B12885  28.339  17.799   7.953
 5783POPC   C4B12886  28.338  17.749   7.653
 5784POPC   NC312887   9.016  21.356   9.453
 5784POPC   PO412888   8.996  21.402   9.153
 5784POPC   GL112889   8.997  21.376   8.853
 5784POPC   GL212890   8.823  21.369   8.853
 5784POPC   C1A12891   8.940  21.391   8.553
 5784POPC   D2A12892   8.975  21.389   8.253
 5784POPC   C3A12893   8.924  21.431   7.953
 5784POPC   C4A12894   9.001  21.352   7.653
 5784POPC   C1B12895   8.776  21.361   8.553
 5784POPC   C2B12896   8.756  21.292   8.253
 5784POPC   C3B12897   8.755  21.337   7.953
 5784POPC   C4B12898   8.699  21.372   7.653
 5785POPC   NC312899  40.000  15.918   9.453
 5785POPC   PO412900  39.988  16.004   9.153
 5785POPC   GL112901  39.968  15.946   8.853
 5785POPC   GL212902  40.062  16.087   8.853
 5785POPC   C1A12903  40.049  15.965   8.553
 5785POPC   D2A12904  39.981  15.957   8.253
 5785POPC   C3A12905  40.013  15.955   7.953
 5785POPC   C4A12906  39.983  15.916   7.653
 5785POPC   C1B12907  40.086  16.243   8.553
 5785POPC   C2B12908  40.021  16.201   8.253
 5785POPC   C3B12909  40.031  16.249   7.953
 5785POPC   C4B12910  40.021  16.203   7.653
 5786POPC   NC312911   3.557   8.990   9.453
 5786POPC   PO412912   3.572   8.935   9.153
 5786POPC   GL112913   3.537   8.953   8.853
 5786POPC   GL212914   3.457   9.036   8.853
 5786POPC   C1A12915   3.547   9.021   8.553
 5786POPC   D2A12916   3.540   8.926   8.253
 5786POPC   C3A12917   3.526   8.940   7.953
 5786POPC   C4A12918   3.571   8.932   7.653
 5786POPC   C1B12919   3.404   9.142   8.553
 5786POPC   C2B12920   3.441   9.137   8.253
 5786POPC   C3B12921   3.378   9.144   7.953
 5786POPC   C4B12922   3.354   9.214   7.653
 5787POPC   NC312923  29.898  27.639   9.453
 5787POPC   PO412924  29.955  27.571   9.153
 5787POPC   GL112925  29.885  27.595   8.853
 5787POPC   GL212926  30.044  27.634   8.853
 5787POPC   C1A12927  29.902  27.584   8.553
 5787POPC   D2A12928  29.963  27.641   8.253
 5787POPC   C3A12929  29.877  27.586   7.953
 5787POPC   C4A12930  29.923  27.589   7.653
 5787POPC   C1B12931  30.141  27.574   8.553
 5787POPC   C2B12932  30.146  27.598   8.253
 5787POPC   C3B12933  30.220  27.603   7.953
 5787POPC   C4B12934  30.209  27.623   7.653
 5788POPC   NC312935   0.428  38.467   9.453
 5788POPC   PO412936   0.465  38.466   9.153
 5788POPC   GL112937   0.410  38.444   8.853
 5788POPC   GL212938   0.556  38.424   8.853
 5788POPC   C1A12939   0.475  38.431   8.553
 5788POPC   D2A12940   0.433  38.467   8.253
 5788POPC   C3A12941   0.462  38.423   7.953
 5788POPC   C4A12942   0.416  38.474   7.653
 5788POPC   C1B12943   0.603  38.279   8.553
 5788POPC   C2B12944   0.586  38.315   8.253
 5788POPC   C3B12945   0.651  38.293   7.953
 5788POPC   C4B12946   0.642  38.267   7.653
 5789POPC   NC312947  42.366  36.081   9.453
 5789POPC   PO412948  42.338  36.124   9.153
 5789POPC   GL112949  42.335  36.095   8.853
 5789POPC   GL212950  42.242  36.094   8.853
 5789POPC   C1A12951  42.348  36.102   8.553
 5789POPC   D2A12952  42.326  36.131   8.253
 5789POPC   C3A12953  42.323  36.163   7.953
 5789POPC   C4A12954  42.377  36.149   7.653
 5789POPC   C1B12955  42.074  36.119   8.553
 5789POPC   C2B12956  42.041  36.079   8.253
 5789POPC   C3B12957  42.121  36.072   7.953
 5789POPC   C4B12958  42.058  36.047   7.653
 5790POPC   NC312959  36.902  15.924   9.453
 5790POPC   PO412960  36.870  15.975   9.153
 5790POPC   GL112961  36.923  15.974   8.853
 5790POPC   GL212962  36.981  15.814   8.853
 5790POPC   C1A12963  36.935  15.970   8.553
 5790POPC   D2A12964  36.936  15.970   8.253
 5790POPC   C3A12965  36.875  15.909   7.953
 5790POPC   C4A12966  36.912  15.928   7.653
 5790POPC   C1B12967  36.986  15.740   8.553
 5790POPC   C2B12968  37.080  15.709   8.253
 5790POPC   C3B12969  37.007  15.782   7.953
 5790POPC   C4B12970  37.045  15.738   7.653
 5791POPC   NC312971  11.306  12.063   9.453
 5791POPC   PO412972  11.253  12.112   9.153
 5791POPC   GL112973  11.332  12.036   8.853
 5791POPC   GL212974  11.289  11.975   8.853
 5791POPC   C1A12975  11.263  12.046   8.553
 5791POPC   D2A12976  11.255  12.116   8.253
 5791POPC   C3A12977  11.252  12.043   7.953
 5791POPC   C4A12978  11.269  12.081   7.653
 5791POPC   C1B12979  11.294  11.827   8.553
 5791POPC   C2B12980  11.308  11.828   8.253
 5791POPC   C3B12981  11.359  11.843   7.953
 5791POPC   C4B12982  11.373  11.843   7.653
 5792POPC   NC312983  37.696  19.056   9.453
 5792POPC   PO412984  37.685  19.039   9.153
 5792POPC   GL112985  37.708  19.106   8.853
 5792POPC   GL212986  37.762  19.028   8.853
 5792POPC   C1A12987  37.685  19.076   8.553
 5792POPC   D2A12988  37.686  19.059   8.253
 5792POPC   C3A12989  37.705  19.028   7.953
 5792POPC   C4A12990  37.648  19.100   7.653
 5792POPC   C1B12991  37.952  18.994   8.553
 5792POPC   C2B12992  37.951  18.917   8.253
 5792POPC   C3B12993  37.903  18.949   7.953
 5792POPC   C4B12994  37.875  18.971   7.653
 5793POPC   NC312995   2.797   0.403   9.453
 5793POPC   PO412996   2.765   0.451   9.153
 5793POPC   GL112997   2.766   0.441   8.853
 5793POPC   GL212998   2.699   0.325   8.853
 5793POPC   C1A12999   2.784   0.428   8.553
 5793POPC   D2A13000   2.764   0.408   8.253
 5793POPC   C3A13001   2.730   0.409   7.953
 5793POPC   C4A13002   2.726   0.393   7.653
 5793POPC   C1B13003   2.693   0.202   8.553
 5793POPC   C2B13004   2.675   0.185   8.253
 5793POPC   C3B13005   2.676   0.177   7.953
 5793POPC   C4B13006   2.647   0.207   7.653
 5794POPC   NC313007  22.162  26.867   9.453
 5794POPC   PO413008  22.202  26.789   9.153
 5794POPC   GL113009  22.182  26.824   8.853
 5794POPC   GL213010  22.059  26.944   8.853
 5794POPC   C1A13011  22.128  26.855   8.553
 5794POPC   D2A13012  22.188  26.856   8.253
 5794POPC   C3A13013  22.190  26.814   7.953
 5794POPC   C4A13014  22.118  26.843   7.653
 5794POPC   C1B13015  21.959  26.952   8.553
 5794POPC   C2B13016  22.042  27.047   8.253
 5794POPC   C3B13017  21.956  26.982   7.953
 5794POPC   C4B13018  22.039  26.957   7.653
 5795POPC   NC313019  27.575  30.692   9.453
 5795POPC   PO413020  27.623  30.669   9.153
 5795POPC   GL113021  27.627  30.687   8.853
 5795POPC   GL213022  27.604  30.848   8.853
 5795POPC   C1A13023  27.550  30.684   8.553
 5795POPC   D2A13024  27.556  30.691   8.253
 5795POPC   C3A13025  27.626  30.664   7.953
 5795POPC   C4A13026  27.551  30.694   7.653
 5795POPC   C1B13027  27.551  30.922   8.553
 5795POPC   C2B13028  27.565  30.985   8.253
 5795POPC   C3B13029  27.575  30.922   7.953
 5795POPC   C4B13030  27.639  30.974   7.653
 5796POPC   NC313031  24.535   5.060   9.453
 5796POPC   PO413032  24.505   5.112   9.153
 5796POPC   GL113033  24.445   5.091   8.853
 5796POPC   GL213034  24.530   4.983   8.853
 5796POPC   C1A13035  24.493   5.106   8.553
 5796POPC   D2A13036  24.518   5.096   8.253
 5796POPC   C3A13037  24.483   5.072   7.953
 5796POPC   C4A13038  24.537   5.116   7.653
 5796POPC   C1B13039  24.525   4.855   8.553
 5796POPC   C2B13040  24.521   4.885   8.253
 5796POPC   C3B13041  24.550   4.842   7.953
 5796POPC   C4B13042  24.587   4.874   7.653
 5797POPC   NC313043  39.993  32.243   9.453
 5797POPC   PO413044  39.968  32.294   9.153
 5797POPC   GL113045  39.993  32.253   8.853
 5797POPC   GL213046  40.083  32.311   8.853
 5797POPC   C1A13047  40.049  32.256   8.553
 5797POPC   D2A13048  39.978  32.274   8.253
 5797POPC   C3A13049  39.975  32.256   7.953
 5797POPC   C4A13050  40.003  32.255   7.653
 5797POPC   C1B13051  40.179  32.461   8.553
 5797POPC   C2B13052  40.117  32.446   8.253
 5797POPC   C3B13053  40.144  32.423   7.953
 5797POPC   C4B13054  40.136  32.426   7.653
 5798POPC   NC313055  31.472  43.068   9.453
 5798POPC   PO413056  31.440  43.071   9.153
 5798POPC   GL113057  31.428  43.119   8.853
 5798POPC   GL213058  31.484  42.961   8.853
 5798POPC   C1A13059  31.486  43.113   8.553
 5798POPC   D2A13060  31.503  43.085   8.253
 5798POPC   C3A13061  31.429  43.073   7.953
 5798POPC   C4A13062  31.464  43.120   7.653
 5798POPC   C1B13063  31.481  42.825   8.553
 5798POPC   C2B13064  31.471  42.904   8.253
 5798POPC   C3B13065  31.469  42.825   7.953
 5798POPC   C4B13066  31.444  42.870   7.653
 5799POPC   NC313067  10.520   6.658   9.453
 5799POPC   PO413068  10.489   6.596   9.153
 5799POPC   GL113069  10.571   6.642   8.853
 5799POPC   GL213070  10.493   6.475   8.853
 5799POPC   C1A13071  10.485   6.648   8.553
 5799POPC   D2A13072  10.478   6.681   8.253
 5799POPC   C3A13073  10.507   6.691   7.953
 5799POPC   C4A13074  10.547   6.609   7.653
 5799POPC   C1B13075  10.463   6.386   8.553
 5799POPC   C2B13076  10.476   6.396   8.253
 5799POPC   C3B13077  10.428   6.422   7.953
 5799POPC   C4B13078  10.481   6.397   7.653
 5800POPC   NC313079   5.844  10.552   9.453
 5800POPC   PO413080   5.908  10.529   9.153
 5800POPC   GL113081   5.866  10.519   8.853
 5800POPC   GL213082   5.776  10.545   8.853
 5800POPC   C1A13083   5.887  10.484   8.553
 5800POPC   D2A13084   5.857  10.567   8.253
 5800POPC   C3A13085   5.847  10.525   7.953
 5800POPC   C4A13086   5.826  10.564   7.653
 5800POPC   C1B13087   5.624  10.587   8.553
 5800POPC   C2B13088   5.597  10.526   8.253
 5800POPC   C3B13089   5.648  10.561   7.953
 5800POPC   C4B13090   5.659  10.607   7.653
 5801POPC   NC313091  42.317  29.155   9.453
 5801POPC   PO413092  42.365  29.165   9.153
 5801POPC   GL113093  42.326  29.169   8.853
 5801POPC   GL213094  42.254  29.123   8.853
 5801POPC   C1A13095  42.328  29.137   8.553
 5801POPC   D2A13096  42.308  29.179   8.253
 5801POPC   C3A13097  42.316  29.101   7.953
 5801POPC   C4A13098  42.338  29.174   7.653
 5801POPC   C1B13099  42.077  29.207   8.553
 5801POPC   C2B13100  42.080  29.191   8.253
 5801POPC   C3B13101  42.056  29.166   7.953
 5801POPC   C4B13102  42.127  29.154   7.653
 5802POPC   NC313103   2.753  23.716   9.453
 5802POPC   PO413104   2.736  23.687   9.153
 5802POPC   GL113105   2.782  23.686   8.853
 5802POPC   GL213106   2.670  23.823   8.853
 5802POPC   C1A13107   2.780  23.729   8.553
 5802POPC   D2A13108   2.760  23.725   8.253
 5802POPC   C3A13109   2.720  23.691   7.953
 5802POPC   C4A13110   2.812  23.714   7.653
 5802POPC   C1B13111   2.558  23.886   8.553
 5802POPC   C2B13112   2.594  23.901   8.253
 5802POPC   C3B13113   2.569  23.865   7.953
 5802POPC   C4B13114   2.552  23.919   7.653
 5803POPC   NC313115  44.625   8.931   9.453
 5803POPC   PO413116  44.638   9.017   9.153
 5803POPC   GL113117  44.664   8.929   8.853
 5803POPC   GL213118  44.676   8.892   8.853
 5803POPC   C1A13119  44.638   9.020   8.553
 5803POPC   D2A13120  44.699   8.962   8.253
 5803POPC   C3A13121  44.640   9.003   7.953
 5803POPC   C4A13122  44.651   8.990   7.653
 5803POPC   C1B13123  44.749   8.752   8.553
 5803POPC   C2B13124  44.761   8.769   8.253
 5803POPC   C3B13125  44.750   8.754   7.953
 5803POPC   C4B13126  44.760   8.751   7.653
 5804POPC   NC313127   1.971  43.108   9.453
 5804POPC   PO413128   2.023  43.120   9.153
 5804POPC   GL113129   1.945  43.094   8.853
 5804POPC   GL213130   2.145  43.080   8.853
 5804POPC   C1A13131   1.991  43.102   8.553
 5804POPC   D2A13132   1.965  43.109   8.253
 5804POPC   C3A13133   1.945  43.070   7.953
 5804POPC   C4A13134   2.008  43.128   7.653
 5804POPC   C1B13135   2.186  43.016   8.553
 5804POPC   C2B13136   2.270  43.010   8.253
 5804POPC   C3B13137   2.239  42.996   7.953
 5804POPC   C4B13138   2.186  43.076   7.653
 5805POPC   NC313139  22.912   1.187   9.453
 5805POPC   PO413140  22.908   1.195   9.153
 5805POPC   GL113141  22.942   1.220   8.853
 5805POPC   GL213142  22.989   1.276   8.853
 5805POPC   C1A13143  22.909   1.182   8.553
 5805POPC   D2A13144  22.973   1.172   8.253
 5805POPC   C3A13145  22.977   1.186   7.953
 5805POPC   C4A13146  22.926   1.188   7.653
 5805POPC   C1B13147  23.050   1.464   8.553
 5805POPC   C2B13148  23.012   1.404   8.253
 5805POPC   C3B13149  23.036   1.464   7.953
 5805POPC   C4B13150  23.011   1.391   7.653
 5806POPC   NC313151  20.591  42.330   9.453
 5806POPC   PO413152  20.593  42.303   9.153
 5806POPC   GL113153  20.638  42.335   8.853
 5806POPC   GL213154  20.764  42.279   8.853
 5806POPC   C1A13155  20.591  42.340   8.553
 5806POPC   D2A13156  20.576  42.312   8.253
 5806POPC   C3A13157  20.596  42.355   7.953
 5806POPC   C4A13158  20.584  42.341   7.653
 5806POPC   C1B13159  20.807  42.209   8.553
 5806POPC   C2B13160  20.860  42.156   8.253
 5806POPC   C3B13161  20.861  42.239   7.953
 5806POPC   C4B13162  20.855  42.192   7.653
 5807POPC   NC313163  33.778  14.364   9.453
 5807POPC   PO413164  33.754  14.433   9.153
 5807POPC   GL113165  33.794  14.399   8.853
 5807POPC   GL213166  33.730  14.467   8.853
 5807POPC   C1A13167  33.826  14.358   8.553
 5807POPC   D2A13168  33.835  14.396   8.253
 5807POPC   C3A13169  33.828  14.438   7.953
 5807POPC   C4A13170  33.832  14.425   7.653
 5807POPC   C1B13171  33.673  14.609   8.553
 5807POPC   C2B13172  33.631  14.621   8.253
 5807POPC   C3B13173  33.622  14.575   7.953
 5807POPC   C4B13174  33.653  14.607   7.653
 5808POPC   NC313175   3.549  43.932   9.453
 5808POPC   PO413176   3.506  43.879   9.153
 5808POPC   GL113177   3.509  43.906   8.853
 5808POPC   GL213178   3.621  43.897   8.853
 5808POPC   C1A13179   3.545  43.932   8.553
 5808POPC   D2A13180   3.545  43.875   8.253
 5808POPC   C3A13181   3.504  43.936   7.953
 5808POPC   C4A13182   3.587  43.852   7.653
 5808POPC   C1B13183   3.754  43.836   8.553
 5808POPC   C2B13184   3.796  43.846   8.253
 5808POPC   C3B13185   3.787  43.875   7.953
 5808POPC   C4B13186   3.790  43.875   7.653
 5809POPC   NC313187   0.465   3.525   9.453
 5809POPC   PO413188   0.476   3.505   9.153
 5809POPC   GL113189   0.454   3.574   8.853
 5809POPC   GL213190   0.336   3.471   8.853
 5809POPC   C1A13191   0.474   3.504   8.553
 5809POPC   D2A13192   0.410   3.492   8.253
 5809POPC   C3A13193   0.488   3.519   7.953
 5809POPC   C4A13194   0.476   3.503   7.653
 5809POPC   C1B13195   0.311   3.297   8.553
 5809POPC   C2B13196   0.275   3.336   8.253
 5809POPC   C3B13197   0.328   3.283   7.953
 5809POPC   C4B13198   0.347   3.298   7.653
 5810POPC   NC313199  17.460  33.757   9.453
 5810POPC   PO413200  17.478  33.794   9.153
 5810POPC   GL113201  17.514  33.797   8.853
 5810POPC   GL213202  17.517  33.943   8.853
 5810POPC   C1A13203  17.540  33.765   8.553
 5810POPC   D2A13204  17.516  33.828   8.253
 5810POPC   C3A13205  17.538  33.779   7.953
 5810POPC   C4A13206  17.539  33.754   7.653
 5810POPC   C1B13207  17.545  34.058   8.553
 5810POPC   C2B13208  17.521  34.094   8.253
 5810POPC   C3B13209  17.570  34.073   7.953
 5810POPC   C4B13210  17.500  34.016   7.653
 5811POPC   NC313211   6.633  23.667   9.453
 5811POPC   PO413212   6.662  23.680   9.153
 5811POPC   GL113213   6.637  23.688   8.853
 5811POPC   GL213214   6.495  23.736   8.853
 5811POPC   C1A13215   6.666  23.746   8.553
 5811POPC   D2A13216   6.679  23.700   8.253
 5811POPC   C3A13217   6.692  23.688   7.953
 5811POPC   C4A13218   6.650  23.685   7.653
 5811POPC   C1B13219   6.352  23.692   8.553
 5811POPC   C2B13220   6.383  23.656   8.253
 5811POPC   C3B13221   6.426  23.725   7.953
 5811POPC   C4B13222   6.402  23.708   7.653
 5812POPC   NC313223  15.147  19.787   9.453
 5812POPC   PO413224  15.200  19.818   9.153
 5812POPC   GL113225  15.137  19.798   8.853
 5812POPC   GL213226  15.121  19.925   8.853
 5812POPC   C1A13227  15.140  19.876   8.553
 5812POPC   D2A13228  15.144  19.832   8.253
 5812POPC   C3A13229  15.139  19.876   7.953
 5812POPC   C4A13230  15.209  19.818   7.653
 5812POPC   C1B13231  15.124  20.069   8.553
 5812POPC   C2B13232  15.111  20.067   8.253
 5812POPC   C3B13233  15.143  20.112   7.953
 5812POPC   C4B13234  15.060  20.057   7.653
 5813POPC   NC313235  10.538   1.247   9.453
 5813POPC   PO413236  10.535   1.166   9.153
 5813POPC   GL113237  10.482   1.262   8.853
 5813POPC   GL213238  10.439   1.317   8.853
 5813POPC   C1A13239  10.494   1.249   8.553
 5813POPC   D2A13240  10.540   1.241   8.253
 5813POPC   C3A13241  10.489   1.224   7.953
 5813POPC   C4A13242  10.530   1.238   7.653
 5813POPC   C1B13243  10.304   1.399   8.553
 5813POPC   C2B13244  10.307   1.330   8.253
 5813POPC   C3B13245  10.273   1.310   7.953
 5813POPC   C4B13246  10.333   1.403   7.653
 5814POPC   NC313247   1.992  29.118   9.453
 5814POPC   PO413248   1.974  29.119   9.153
 5814POPC   GL113249   2.029  29.136   8.853
 5814POPC   GL213250   1.845  29.086   8.853
 5814POPC   C1A13251   1.956  29.123   8.553
 5814POPC   D2A13252   2.004  29.170   8.253
 5814POPC   C3A13253   1.978  29.106   7.953
 5814POPC   C4A13254   1.952  29.141   7.653
 5814POPC   C1B13255   1.781  29.168   8.553
 5814POPC   C2B13256   1.788  29.133   8.253
 5814POPC   C3B13257   1.699  29.074   7.953
 5814POPC   C4B13258   1.722  29.096   7.653
 5815POPC   NC313259  36.921  13.637   9.453
 5815POPC   PO413260  36.888  13.606   9.153
 5815POPC   GL113261  36.864  13.635   8.853
 5815POPC   GL213262  37.064  13.655   8.853
 5815POPC   C1A13263  36.887  13.600   8.553
 5815POPC   D2A13264  36.900  13.666   8.253
 5815POPC   C3A13265  36.915  13.603   7.953
 5815POPC   C4A13266  36.899  13.601   7.653
 5815POPC   C1B13267  37.184  13.615   8.553
 5815POPC   C2B13268  37.149  13.652   8.253
 5815POPC   C3B13269  37.140  13.588   7.953
 5815POPC   C4B13270  37.168  13.615   7.653
 5816POPC   NC313271  39.982  35.376   9.453
 5816POPC   PO413272  39.967  35.382   9.153
 5816POPC   GL113273  39.983  35.397   8.853
 5816POPC   GL213274  39.901  35.328   8.853
 5816POPC   C1A13275  40.033  35.319   8.553
 5816POPC   D2A13276  39.973  35.364   8.253
 5816POPC   C3A13277  39.976  35.362   7.953
 5816POPC   C4A13278  40.025  35.352   7.653
 5816POPC   C1B13279  39.797  35.391   8.553
 5816POPC   C2B13280  39.734  35.379   8.253
 5816POPC   C3B13281  39.802  35.387   7.953
 5816POPC   C4B13282  39.754  35.381   7.653
 5817POPC   NC313283  18.270  26.780   9.453
 5817POPC   PO413284  18.309  26.782   9.153
 5817POPC   GL113285  18.332  26.782   8.853
 5817POPC   GL213286  18.188  26.776   8.853
 5817POPC   C1A13287  18.263  26.866   8.553
 5817POPC   D2A13288  18.280  26.841   8.253
 5817POPC   C3A13289  18.319  26.817   7.953
 5817POPC   C4A13290  18.319  26.804   7.653
 5817POPC   C1B13291  18.081  26.665   8.553
 5817POPC   C2B13292  18.076  26.679   8.253
 5817POPC   C3B13293  18.115  26.656   7.953
 5817POPC   C4B13294  18.046  26.667   7.653
 5818POPC   NC313295   9.782  31.482   9.453
 5818POPC   PO413296   9.703  31.440   9.153
 5818POPC   GL113297   9.713  31.496   8.853
 5818POPC   GL213298   9.672  31.438   8.853
 5818POPC   C1A13299   9.749  31.483   8.553
 5818POPC   D2A13300   9.791  31.455   8.253
 5818POPC   C3A13301   9.704  31.489   7.953
 5818POPC   C4A13302   9.781  31.502   7.653
 5818POPC   C1B13303   9.543  31.399   8.553
 5818POPC   C2B13304   9.547  31.360   8.253
 5818POPC   C3B13305   9.542  31.398   7.953
 5818POPC   C4B13306   9.546  31.379   7.653
 5819POPC   NC313307   4.302  23.673   9.453
 5819POPC   PO413308   4.352  23.743   9.153
 5819POPC   GL113309   4.329  23.743   8.853
 5819POPC   GL213310   4.212  23.739   8.853
 5819POPC   C1A13311   4.319  23.728   8.553
 5819POPC   D2A13312   4.314  23.731   8.253
 5819POPC   C3A13313   4.358  23.694   7.953
 5819POPC   C4A13314   4.362  23.714   7.653
 5819POPC   C1B13315   4.117  23.735   8.553
 5819POPC   C2B13316   4.084  23.699   8.253
 5819POPC   C3B13317   4.083  23.764   7.953
 5819POPC   C4B13318   4.114  23.744   7.653
 5820POPC   NC313319  10.534  16.686   9.453
 5820POPC   PO413320  10.519  16.718   9.153
 5820POPC   GL113321  10.508  16.703   8.853
 5820POPC   GL213322  10.585  16.596   8.853
 5820POPC   C1A13323  10.507  16.781   8.553
 5820POPC   D2A13324  10.497  16.689   8.253
 5820POPC   C3A13325  10.501  16.729   7.953
 5820POPC   C4A13326  10.490  16.765   7.653
 5820POPC   C1B13327  10.728  16.571   8.553
 5820POPC   C2B13328  10.648  16.564   8.253
 5820POPC   C3B13329  10.690  16.539   7.953
 5820POPC   C4B13330  10.677  16.547   7.653
 5821POPC   NC313331  13.647  17.481   9.453
 5821POPC   PO413332  13.580  17.481   9.153
 5821POPC   GL113333  13.603  17.526   8.853
 5821POPC   GL213334  13.534  17.391   8.853
 5821POPC   C1A13335  13.670  17.466   8.553
 5821POPC   D2A13336  13.612  17.537   8.253
 5821POPC   C3A13337  13.658  17.544   7.953
 5821POPC   C4A13338  13.661  17.518   7.653
 5821POPC   C1B13339  13.448  17.391   8.553
 5821POPC   C2B13340  13.423  17.335   8.253
 5821POPC   C3B13341  13.397  17.390   7.953
 5821POPC   C4B13342  13.469  17.389   7.653
 5822POPC   NC313343   0.439  40.734   9.453
 5822POPC   PO413344   0.427  40.737   9.153
 5822POPC   GL113345   0.395  40.779   8.853
 5822POPC   GL213346   0.440  40.956   8.853
 5822POPC   C1A13347   0.445  40.822   8.553
 5822POPC   D2A13348   0.473  40.743   8.253
 5822POPC   C3A13349   0.448  40.830   7.953
 5822POPC   C4A13350   0.438  40.760   7.653
 5822POPC   C1B13351   0.462  41.066   8.553
 5822POPC   C2B13352   0.425  41.056   8.253
 5822POPC   C3B13353   0.452  41.005   7.953
 5822POPC   C4B13354   0.421  41.044   7.653
 5823POPC   NC313355   4.358  11.297   9.453
 5823POPC   PO413356   4.269  11.310   9.153
 5823POPC   GL113357   4.334  11.336   8.853
 5823POPC   GL213358   4.343  11.389   8.853
 5823POPC   C1A13359   4.287  11.270   8.553
 5823POPC   D2A13360   4.336  11.266   8.253
 5823POPC   C3A13361   4.280  11.333   7.953
 5823POPC   C4A13362   4.289  11.255   7.653
 5823POPC   C1B13363   4.272  11.506   8.553
 5823POPC   C2B13364   4.306  11.543   8.253
 5823POPC   C3B13365   4.242  11.559   7.953
 5823POPC   C4B13366   4.296  11.509   7.653
 5824POPC   NC313367   5.126  30.656   9.453
 5824POPC   PO413368   5.140  30.746   9.153
 5824POPC   GL113369   5.055  30.667   8.853
 5824POPC   GL213370   5.199  30.707   8.853
 5824POPC   C1A13371   5.105  30.718   8.553
 5824POPC   D2A13372   5.141  30.663   8.253
 5824POPC   C3A13373   5.099  30.708   7.953
 5824POPC   C4A13374   5.069  30.676   7.653
 5824POPC   C1B13375   5.364  30.689   8.553
 5824POPC   C2B13376   5.347  30.645   8.253
 5824POPC   C3B13377   5.381  30.646   7.953
 5824POPC   C4B13378   5.380  30.724   7.653
 5825POPC   NC313379  44.652  26.056   9.453
 5825POPC   PO413380  44.703  26.002   9.153
 5825POPC   GL113381  44.664  26.045   8.853
 5825POPC   GL213382  44.709  26.185   8.853
 5825POPC   C1A13383  44.622  26.066   8.553
 5825POPC   D2A13384  44.652  26.041   8.253
 5825POPC   C3A13385  44.707  26.035   7.953
 5825POPC   C4A13386  44.666  26.051   7.653
 5825POPC   C1B13387  44.774  26.264   8.553
 5825POPC   C2B13388  44.790  26.246   8.253
 5825POPC   C3B13389  44.857  26.234   7.953
 5825POPC   C4B13390  44.778  26.249   7.653
 5826POPC   NC313391  29.160  32.258   9.453
 5826POPC   PO413392  29.095  32.288   9.153
 5826POPC   GL113393  29.103  32.294   8.853
 5826POPC   GL213394  29.069  32.270   8.853
 5826POPC   C1A13395  29.104  32.254   8.553
 5826POPC   D2A13396  29.170  32.291   8.253
 5826POPC   C3A13397  29.168  32.287   7.953
 5826POPC   C4A13398  29.125  32.248   7.653
 5826POPC   C1B13399  28.881  32.273   8.553
 5826POPC   C2B13400  28.932  32.223   8.253
 5826POPC   C3B13401  28.875  32.201   7.953
 5826POPC   C4B13402  28.871  32.189   7.653
 5827POPC   NC313403   1.214  29.929   9.453
 5827POPC   PO413404   1.212  29.913   9.153
 5827POPC   GL113405   1.216  29.886   8.853
 5827POPC   GL213406   1.108  29.804   8.853
 5827POPC   C1A13407   1.239  29.940   8.553
 5827POPC   D2A13408   1.170  29.944   8.253
 5827POPC   C3A13409   1.233  29.917   7.953
 5827POPC   C4A13410   1.229  29.936   7.653
 5827POPC   C1B13411   1.061  29.753   8.553
 5827POPC   C2B13412   1.015  29.683   8.253
 5827POPC   C3B13413   1.029  29.686   7.953
 5827POPC   C4B13414   1.046  29.672   7.653
 5828POPC   NC313415  36.120  35.315   9.453
 5828POPC   PO413416  36.160  35.375   9.153
 5828POPC   GL113417  36.079  35.392   8.853
 5828POPC   GL213418  36.076  35.504   8.853
 5828POPC   C1A13419  36.165  35.395   8.553
 5828POPC   D2A13420  36.121  35.325   8.253
 5828POPC   C3A13421  36.082  35.385   7.953
 5828POPC   C4A13422  36.108  35.320   7.653
 5828POPC   C1B13423  36.122  35.551   8.553
 5828POPC   C2B13424  36.109  35.647   8.253
 5828POPC   C3B13425  36.092  35.645   7.953
 5828POPC   C4B13426  36.060  35.561   7.653
 5829POPC   NC313427  40.038  26.060   9.453
 5829POPC   PO413428  39.973  26.060   9.153
 5829POPC   GL113429  40.009  26.073   8.853
 5829POPC   GL213430  40.075  25.946   8.853
 5829POPC   C1A13431  39.979  26.034   8.553
 5829POPC   D2A13432  40.005  26.013   8.253
 5829POPC   C3A13433  39.963  25.996   7.953
 5829POPC   C4A13434  40.045  26.054   7.653
 5829POPC   C1B13435  40.190  25.862   8.553
 5829POPC   C2B13436  40.157  25.900   8.253
 5829POPC   C3B13437  40.234  25.921   7.953
 5829POPC   C4B13438  40.240  25.870   7.653
 5830POPC   NC313439   2.764  14.432   9.453
 5830POPC   PO413440   2.726  14.445   9.153
 5830POPC   GL113441   2.738  14.366   8.853
 5830POPC   GL213442   2.900  14.336   8.853
 5830POPC   C1A13443   2.808  14.384   8.553
 5830POPC   D2A13444   2.805  14.379   8.253
 5830POPC   C3A13445   2.744  14.359   7.953
 5830POPC   C4A13446   2.754  14.382   7.653
 5830POPC   C1B13447   2.982  14.248   8.553
 5830POPC   C2B13448   3.007  14.238   8.253
 5830POPC   C3B13449   2.997  14.286   7.953
 5830POPC   C4B13450   2.937  14.312   7.653
 5831POPC   NC313451  18.254   9.787   9.453
 5831POPC   PO413452  18.255   9.742   9.153
 5831POPC   GL113453  18.262   9.789   8.853
 5831POPC   GL213454  18.190   9.740   8.853
 5831POPC   C1A13455  18.277   9.724   8.553
 5831POPC   D2A13456  18.270   9.758   8.253
 5831POPC   C3A13457  18.267   9.741   7.953
 5831POPC   C4A13458  18.246   9.784   7.653
 5831POPC   C1B13459  18.066   9.688   8.553
 5831POPC   C2B13460  18.037   9.725   8.253
 5831POPC   C3B13461  18.029   9.747   7.953
 5831POPC   C4B13462  18.032   9.657   7.653
 5832POPC   NC313463  42.286  23.709   9.453
 5832POPC   PO413464  42.331  23.685   9.153
 5832POPC   GL113465  42.290  23.719   8.853
 5832POPC   GL213466  42.383  23.585   8.853
 5832POPC   C1A13467  42.376  23.730   8.553
 5832POPC   D2A13468  42.297  23.763   8.253
 5832POPC   C3A13469  42.383  23.730   7.953
 5832POPC   C4A13470  42.339  23.718   7.653
 5832POPC   C1B13471  42.363  23.495   8.553
 5832POPC   C2B13472  42.429  23.442   8.253
 5832POPC   C3B13473  42.350  23.487   7.953
 5832POPC   C4B13474  42.398  23.481   7.653
 5833POPC   NC313475  44.681  10.506   9.453
 5833POPC   PO413476  44.693  10.509   9.153
 5833POPC   GL113477  44.711  10.490   8.853
 5833POPC   GL213478  44.520  10.479   8.853
 5833POPC   C1A13479  44.698  10.489   8.553
 5833POPC   D2A13480  44.691  10.556   8.253
 5833POPC   C3A13481  44.685  10.515   7.953
 5833POPC   C4A13482  44.662  10.505   7.653
 5833POPC   C1B13483  44.412  10.434   8.553
 5833POPC   C2B13484  44.448  10.394   8.253
 5833POPC   C3B13485  44.456  10.386   7.953
 5833POPC   C4B13486  44.410  10.422   7.653
 5834POPC   NC313487   5.896  31.514   9.453
 5834POPC   PO413488   5.908  31.495   9.153
 5834POPC   GL113489   5.892  31.507   8.853
 5834POPC   GL213490   5.741  31.342   8.853
 5834POPC   C1A13491   5.831  31.425   8.553
 5834POPC   D2A13492   5.894  31.515   8.253
 5834POPC   C3A13493   5.898  31.436   7.953
 5834POPC   C4A13494   5.880  31.482   7.653
 5834POPC   C1B13495   5.758  31.310   8.553
 5834POPC   C2B13496   5.741  31.314   8.253
 5834POPC   C3B13497   5.705  31.230   7.953
 5834POPC   C4B13498   5.684  31.247   7.653
 5835POPC   NC313499  38.462   2.766   9.453
 5835POPC   PO413500  38.486   2.719   9.153
 5835POPC   GL113501  38.470   2.748   8.853
 5835POPC   GL213502  38.319   2.785   8.853
 5835POPC   C1A13503  38.438   2.781   8.553
 5835POPC   D2A13504  38.449   2.781   8.253
 5835POPC   C3A13505  38.411   2.758   7.953
 5835POPC   C4A13506  38.472   2.763   7.653
 5835POPC   C1B13507  38.238   2.681   8.553
 5835POPC   C2B13508  38.174   2.776   8.253
 5835POPC   C3B13509  38.200   2.745   7.953
 5835POPC   C4B13510  38.230   2.685   7.653
 5836POPC   NC313511  15.987  26.857   9.453
 5836POPC   PO413512  15.945  26.851   9.153
 5836POPC   GL113513  15.969  26.811   8.853
 5836POPC   GL213514  15.988  26.919   8.853
 5836POPC   C1A13515  15.916  26.853   8.553
 5836POPC   D2A13516  15.943  26.865   8.253
 5836POPC   C3A13517  15.966  26.838   7.953
 5836POPC   C4A13518  15.968  26.774   7.653
 5836POPC   C1B13519  16.041  27.083   8.553
 5836POPC   C2B13520  16.035  27.030   8.253
 5836POPC   C3B13521  15.953  27.054   7.953
 5836POPC   C4B13522  16.028  27.055   7.653
 5837POPC   NC313523  36.857  34.607   9.453
 5837POPC   PO413524  36.867  34.550   9.153
 5837POPC   GL113525  36.950  34.549   8.853
 5837POPC   GL213526  36.991  34.667   8.853
 5837POPC   C1A13527  36.938  34.532   8.553
 5837POPC   D2A13528  36.872  34.620   8.253
 5837POPC   C3A13529  36.887  34.594   7.953
 5837POPC   C4A13530  36.900  34.613   7.653
 5837POPC   C1B13531  37.066  34.685   8.553
 5837POPC   C2B13532  37.096  34.700   8.253
 5837POPC   C3B13533  37.122  34.717   7.953
 5837POPC   C4B13534  37.139  34.674   7.653
 5838POPC   NC313535  26.020  44.661   9.453
 5838POPC   PO413536  26.091  44.709   9.153
 5838POPC   GL113537  26.021  44.702   8.853
 5838POPC   GL213538  26.147  44.610   8.853
 5838POPC   C1A13539  26.069  44.661   8.553
 5838POPC   D2A13540  26.050  44.699   8.253
 5838POPC   C3A13541  26.010  44.698   7.953
 5838POPC   C4A13542  26.065  44.654   7.653
 5838POPC   C1B13543  26.267  44.642   8.553
 5838POPC   C2B13544  26.339  44.633   8.253
 5838POPC   C3B13545  26.242  44.661   7.953
 5838POPC   C4B13546  26.248  44.677   7.653
 5839POPC   NC313547  11.293  40.057   9.453
 5839POPC   PO413548  11.339  40.053   9.153
 5839POPC   GL113549  11.318  40.017   8.853
 5839POPC   GL213550  11.357  39.861   8.853
 5839POPC   C1A13551  11.251  39.967   8.553
 5839POPC   D2A13552  11.349  40.022   8.253
 5839POPC   C3A13553  11.323  40.020   7.953
 5839POPC   C4A13554  11.347  40.050   7.653
 5839POPC   C1B13555  11.413  39.780   8.553
 5839POPC   C2B13556  11.430  39.763   8.253
 5839POPC   C3B13557  11.453  39.838   7.953
 5839POPC   C4B13558  11.395  39.813   7.653
 5840POPC   NC313559  32.275  40.002   9.453
 5840POPC   PO413560  32.291  40.029   9.153
 5840POPC   GL113561  32.255  39.978   8.853
 5840POPC   GL213562  32.139  40.042   8.853
 5840POPC   C1A13563  32.238  39.994   8.553
 5840POPC   D2A13564  32.225  40.033   8.253
 5840POPC   C3A13565  32.218  39.979   7.953
 5840POPC   C4A13566  32.271  40.036   7.653
 5840POPC   C1B13567  32.016  40.112   8.553
 5840POPC   C2B13568  32.059  40.051   8.253
 5840POPC   C3B13569  32.058  40.120   7.953
 5840POPC   C4B13570  32.060  40.052   7.653
 5841POPC   NC313571  41.596  35.367   9.453
 5841POPC   PO413572  41.595  35.396   9.153
 5841POPC   GL113573  41.556  35.400   8.853
 5841POPC   GL213574  41.647  35.398   8.853
 5841POPC   C1A13575  41.583  35.312   8.553
 5841POPC   D2A13576  41.559  35.391   8.253
 5841POPC   C3A13577  41.533  35.303   7.953
 5841POPC   C4A13578  41.562  35.398   7.653
 5841POPC   C1B13579  41.727  35.487   8.553
 5841POPC   C2B13580  41.755  35.556   8.253
 5841POPC   C3B13581  41.736  35.473   7.953
 5841POPC   C4B13582  41.766  35.471   7.653
 5842POPC   NC313583  23.673  15.205   9.453
 5842POPC   PO413584  23.728  15.206   9.153
 5842POPC   GL113585  23.758  15.136   8.853
 5842POPC   GL213586  23.661  15.093   8.853
 5842POPC   C1A13587  23.711  15.144   8.553
 5842POPC   D2A13588  23.684  15.167   8.253
 5842POPC   C3A13589  23.668  15.206   7.953
 5842POPC   C4A13590  23.692  15.202   7.653
 5842POPC   C1B13591  23.570  14.997   8.553
 5842POPC   C2B13592  23.578  14.952   8.253
 5842POPC   C3B13593  23.568  14.996   7.953
 5842POPC   C4B13594  23.571  14.952   7.653
 5843POPC   NC313595   5.897  29.189   9.453
 5843POPC   PO413596   5.883  29.117   9.153
 5843POPC   GL113597   5.890  29.102   8.853
 5843POPC   GL213598   5.874  29.046   8.853
 5843POPC   C1A13599   5.860  29.122   8.553
 5843POPC   D2A13600   5.903  29.189   8.253
 5843POPC   C3A13601   5.832  29.177   7.953
 5843POPC   C4A13602   5.829  29.137   7.653
 5843POPC   C1B13603   5.953  28.931   8.553
 5843POPC   C2B13604   5.971  28.902   8.253
 5843POPC   C3B13605   5.890  28.860   7.953
 5843POPC   C4B13606   5.976  28.923   7.653
 5844POPC   NC313607  38.461  13.601   9.453
 5844POPC   PO413608  38.418  13.633   9.153
 5844POPC   GL113609  38.446  13.595   8.853
 5844POPC   GL213610  38.460  13.730   8.853
 5844POPC   C1A13611  38.409  13.604   8.553
 5844POPC   D2A13612  38.491  13.581   8.253
 5844POPC   C3A13613  38.452  13.635   7.953
 5844POPC   C4A13614  38.428  13.597   7.653
 5844POPC   C1B13615  38.365  13.830   8.553
 5844POPC   C2B13616  38.442  13.896   8.253
 5844POPC   C3B13617  38.429  13.848   7.953
 5844POPC   C4B13618  38.365  13.883   7.653
 5845POPC   NC313619   4.309  22.145   9.453
 5845POPC   PO413620   4.339  22.168   9.153
 5845POPC   GL113621   4.292  22.183   8.853
 5845POPC   GL213622   4.246  22.292   8.853
 5845POPC   C1A13623   4.330  22.178   8.553
 5845POPC   D2A13624   4.289  22.186   8.253
 5845POPC   C3A13625   4.340  22.146   7.953
 5845POPC   C4A13626   4.276  22.144   7.653
 5845POPC   C1B13627   4.202  22.360   8.553
 5845POPC   C2B13628   4.190  22.351   8.253
 5845POPC   C3B13629   4.215  22.388   7.953
 5845POPC   C4B13630   4.200  22.359   7.653
 5846POPC   NC313631  38.427  12.080   9.453
 5846POPC   PO413632  38.431  12.096   9.153
 5846POPC   GL113633  38.490  12.116   8.853
 5846POPC   GL213634  38.412  11.994   8.853
 5846POPC   C1A13635  38.494  12.082   8.553
 5846POPC   D2A13636  38.406  12.110   8.253
 5846POPC   C3A13637  38.440  12.120   7.953
 5846POPC   C4A13638  38.416  12.037   7.653
 5846POPC   C1B13639  38.302  11.850   8.553
 5846POPC   C2B13640  38.315  11.870   8.253
 5846POPC   C3B13641  38.364  11.881   7.953
 5846POPC   C4B13642  38.314  11.909   7.653
 5847POPC   NC313643  17.468  44.693   9.453
 5847POPC   PO413644  17.479  44.687   9.153
 5847POPC   GL113645  17.525  44.665   8.853
 5847POPC   GL213646  17.587  44.678   8.853
 5847POPC   C1A13647  17.516  44.652   8.553
 5847POPC   D2A13648  17.492  44.705   8.253
 5847POPC   C3A13649  17.478  44.692   7.953
 5847POPC   C4A13650  17.472  44.705   7.653
 5847POPC   C1B13651  17.783  44.591   8.553
 5847POPC   C2B13652  17.776  44.586   8.253
 5847POPC   C3B13653  17.765  44.609   7.953
 5847POPC   C4B13654  17.758  44.667   7.653
 5848POPC   NC313655   2.789  41.527   9.453
 5848POPC   PO413656   2.762  41.563   9.153
 5848POPC   GL113657   2.768  41.535   8.853
 5848POPC   GL213658   2.883  41.627   8.853
 5848POPC   C1A13659   2.731  41.558   8.553
 5848POPC   D2A13660   2.717  41.576   8.253
 5848POPC   C3A13661   2.740  41.575   7.953
 5848POPC   C4A13662   2.812  41.536   7.653
 5848POPC   C1B13663   2.935  41.698   8.553
 5848POPC   C2B13664   2.985  41.707   8.253
 5848POPC   C3B13665   3.011  41.721   7.953
 5848POPC   C4B13666   2.979  41.659   7.653
 5849POPC   NC313667   2.000  22.132   9.453
 5849POPC   PO413668   1.980  22.190   9.153
 5849POPC   GL113669   2.029  22.113   8.853
 5849POPC   GL213670   2.098  22.254   8.853
 5849POPC   C1A13671   2.031  22.139   8.553
 5849POPC   D2A13672   1.987  22.132   8.253
 5849POPC   C3A13673   1.980  22.149   7.953
 5849POPC   C4A13674   2.019  22.165   7.653
 5849POPC   C1B13675   2.208  22.303   8.553
 5849POPC   C2B13676   2.184  22.253   8.253
 5849POPC   C3B13677   2.249  22.221   7.953
 5849POPC   C4B13678   2.179  22.259   7.653
 5850POPC   NC313679  33.055   6.604   9.453
 5850POPC   PO413680  33.071   6.615   9.153
 5850POPC   GL113681  33.021   6.643   8.853
 5850POPC   GL213682  33.098   6.742   8.853
 5850POPC   C1A13683  33.071   6.629   8.553
 5850POPC   D2A13684  33.066   6.633   8.253
 5850POPC   C3A13685  33.059   6.655   7.953
 5850POPC   C4A13686  33.072   6.651   7.653
 5850POPC   C1B13687  33.155   6.904   8.553
 5850POPC   C2B13688  33.102   6.906   8.253
 5850POPC   C3B13689  33.133   6.853   7.953
 5850POPC   C4B13690  33.153   6.848   7.653
 5851POPC   NC313691  26.048   2.783   9.453
 5851POPC   PO413692  26.001   2.780   9.153
 5851POPC   GL113693  26.027   2.798   8.853
 5851POPC   GL213694  26.077   2.706   8.853
 5851POPC   C1A13695  26.023   2.728   8.553
 5851POPC   D2A13696  26.051   2.765   8.253
 5851POPC   C3A13697  26.079   2.783   7.953
 5851POPC   C4A13698  26.058   2.803   7.653
 5851POPC   C1B13699  26.227   2.517   8.553
 5851POPC   C2B13700  26.163   2.592   8.253
 5851POPC   C3B13701  26.158   2.554   7.953
 5851POPC   C4B13702  26.165   2.567   7.653
 5852POPC   NC313703  31.519  36.886   9.453
 5852POPC   PO413704  31.430  36.941   9.153
 5852POPC   GL113705  31.512  36.926   8.853
 5852POPC   GL213706  31.575  36.926   8.853
 5852POPC   C1A13707  31.433  36.882   8.553
 5852POPC   D2A13708  31.453  36.865   8.253
 5852POPC   C3A13709  31.453  36.928   7.953
 5852POPC   C4A13710  31.491  36.861   7.653
 5852POPC   C1B13711  31.676  37.066   8.553
 5852POPC   C2B13712  31.706  37.046   8.253
 5852POPC   C3B13713  31.663  37.004   7.953
 5852POPC   C4B13714  31.708  37.075   7.653
 5853POPC   NC313715  31.470   8.945   9.453
 5853POPC   PO413716  31.445   8.926   9.153
 5853POPC   GL113717  31.510   8.989   8.853
 5853POPC   GL213718  31.513   8.852   8.853
 5853POPC   C1A13719  31.501   8.953   8.553
 5853POPC   D2A13720  31.449   8.994   8.253
 5853POPC   C3A13721  31.452   9.014   7.953
 5853POPC   C4A13722  31.449   8.928   7.653
 5853POPC   C1B13723  31.540   8.711   8.553
 5853POPC   C2B13724  31.470   8.717   8.253
 5853POPC   C3B13725  31.544   8.688   7.953
 5853POPC   C4B13726  31.528   8.751   7.653
 5854POPC   NC313727  20.625  43.068   9.453
 5854POPC   PO413728  20.622  43.159   9.153
 5854POPC   GL113729  20.599  43.075   8.853
 5854POPC   GL213730  20.581  42.973   8.853
 5854POPC   C1A13731  20.627  43.113   8.553
 5854POPC   D2A13732  20.631  43.084   8.253
 5854POPC   C3A13733  20.658  43.094   7.953
 5854POPC   C4A13734  20.630  43.101   7.653
 5854POPC   C1B13735  20.512  42.856   8.553
 5854POPC   C2B13736  20.454  42.912   8.253
 5854POPC   C3B13737  20.481  42.927   7.953
 5854POPC   C4B13738  20.458  42.872   7.653
 5855POPC   NC313739  32.986  22.171   9.453
 5855POPC   PO413740  32.975  22.157   9.153
 5855POPC   GL113741  33.022  22.158   8.853
 5855POPC   GL213742  32.886  22.231   8.853
 5855POPC   C1A13743  33.010  22.160   8.553
 5855POPC   D2A13744  33.003  22.206   8.253
 5855POPC   C3A13745  33.017  22.146   7.953
 5855POPC   C4A13746  32.998  22.208   7.653
 5855POPC   C1B13747  32.751  22.165   8.553
 5855POPC   C2B13748  32.752  22.192   8.253
 5855POPC   C3B13749  32.820  22.220   7.953
 5855POPC   C4B13750  32.731  22.194   7.653
 5856POPC   NC313751   0.447  30.732   9.453
 5856POPC   PO413752   0.485  30.725   9.153
 5856POPC   GL113753   0.487  30.672   8.853
 5856POPC   GL213754   0.352  30.754   8.853
 5856POPC   C1A13755   0.486  30.745   8.553
 5856POPC   D2A13756   0.429  30.670   8.253
 5856POPC   C3A13757   0.416  30.691   7.953
 5856POPC   C4A13758   0.403  30.740   7.653
 5856POPC   C1B13759   0.171  30.764   8.553
 5856POPC   C2B13760   0.192  30.745   8.253
 5856POPC   C3B13761   0.246  30.771   7.953
 5856POPC   C4B13762   0.239  30.738   7.653
 5857POPC   NC313763   6.679  26.823   9.453
 5857POPC   PO413764   6.636  26.778   9.153
 5857POPC   GL113765   6.626  26.775   8.853
 5857POPC   GL213766   6.612  26.973   8.853
 5857POPC   C1A13767   6.661  26.814   8.553
 5857POPC   D2A13768   6.649  26.860   8.253
 5857POPC   C3A13769   6.669  26.812   7.953
 5857POPC   C4A13770   6.599  26.804   7.653
 5857POPC   C1B13771   6.484  27.046   8.553
 5857POPC   C2B13772   6.564  27.075   8.253
 5857POPC   C3B13773   6.508  27.019   7.953
 5857POPC   C4B13774   6.561  27.019   7.653
 5858POPC   NC313775  30.661  19.853   9.453
 5858POPC   PO413776  30.718  19.856   9.153
 5858POPC   GL113777  30.743  19.882   8.853
 5858POPC   GL213778  30.590  19.871   8.853
 5858POPC   C1A13779  30.711  19.871   8.553
 5858POPC   D2A13780  30.652  19.804   8.253
 5858POPC   C3A13781  30.719  19.846   7.953
 5858POPC   C4A13782  30.702  19.865   7.653
 5858POPC   C1B13783  30.543  19.948   8.553
 5858POPC   C2B13784  30.457  19.948   8.253
 5858POPC   C3B13785  30.466  19.970   7.953
 5858POPC   C4B13786  30.546  20.023   7.653
 5859POPC   NC313787   5.046   1.173   9.453
 5859POPC   PO413788   5.088   1.247   9.153
 5859POPC   GL113789   5.050   1.202   8.853
 5859POPC   GL213790   5.000   1.163   8.853
 5859POPC   C1A13791   5.135   1.248   8.553
 5859POPC   D2A13792   5.072   1.189   8.253
 5859POPC   C3A13793   5.062   1.187   7.953
 5859POPC   C4A13794   5.079   1.253   7.653
 5859POPC   C1B13795   4.893   1.193   8.553
 5859POPC   C2B13796   4.843   1.152   8.253
 5859POPC   C3B13797   4.895   1.166   7.953
 5859POPC   C4B13798   4.856   1.164   7.653
 5860POPC   NC313799   4.346  38.484   9.453
 5860POPC   PO413800   4.304  38.450   9.153
 5860POPC   GL113801   4.322  38.478   8.853
 5860POPC   GL213802   4.235  38.404   8.853
 5860POPC   C1A13803   4.330  38.457   8.553
 5860POPC   D2A13804   4.285  38.431   8.253
 5860POPC   C3A13805   4.274  38.462   7.953
 5860POPC   C4A13806   4.352  38.421   7.653
 5860POPC   C1B13807   4.036  38.428   8.553
 5860POPC   C2B13808   4.074  38.370   8.253
 5860POPC   C3B13809   4.120  38.385   7.953
 5860POPC   C4B13810   4.113  38.427   7.653
 5861POPC   NC313811   4.281  43.076   9.453
 5861POPC   PO413812   4.323  43.085   9.153
 5861POPC   GL113813   4.296  43.129   8.853
 5861POPC   GL213814   4.401  43.171   8.853
 5861POPC   C1A13815   4.279  43.105   8.553
 5861POPC   D2A13816   4.325  43.123   8.253
 5861POPC   C3A13817   4.270  43.132   7.953
 5861POPC   C4A13818   4.351  43.075   7.653
 5861POPC   C1B13819   4.528  43.187   8.553
 5861POPC   C2B13820   4.559  43.122   8.253
 5861POPC   C3B13821   4.553  43.177   7.953
 5861POPC   C4B13822   4.530  43.147   7.653
 5862POPC   NC313823  31.478   2.793   9.453
 5862POPC   PO413824  31.468   2.769   9.153
 5862POPC   GL113825  31.425   2.804   8.853
 5862POPC   GL213826  31.380   2.776   8.853
 5862POPC   C1A13827  31.452   2.772   8.553
 5862POPC   D2A13828  31.482   2.720   8.253
 5862POPC   C3A13829  31.441   2.769   7.953
 5862POPC   C4A13830  31.484   2.809   7.653
 5862POPC   C1B13831  31.210   2.778   8.553
 5862POPC   C2B13832  31.225   2.817   8.253
 5862POPC   C3B13833  31.224   2.791   7.953
 5862POPC   C4B13834  31.216   2.863   7.653
 5863POPC   NC313835   1.945  26.769   9.453
 5863POPC   PO413836   2.007  26.820   9.153
 5863POPC   GL113837   2.006  26.782   8.853
 5863POPC   GL213838   1.907  26.933   8.853
 5863POPC   C1A13839   2.022  26.836   8.553
 5863POPC   D2A13840   1.980  26.861   8.253
 5863POPC   C3A13841   1.967  26.835   7.953
 5863POPC   C4A13842   1.958  26.789   7.653
 5863POPC   C1B13843   1.837  26.984   8.553
 5863POPC   C2B13844   1.786  26.974   8.253
 5863POPC   C3B13845   1.793  26.967   7.953
 5863POPC   C4B13846   1.861  26.966   7.653
 5864POPC   NC313847  28.362  24.517   9.453
 5864POPC   PO413848  28.384  24.455   9.153
 5864POPC   GL113849  28.369  24.458   8.853
 5864POPC   GL213850  28.423  24.635   8.853
 5864POPC   C1A13851  28.388  24.460   8.553
 5864POPC   D2A13852  28.341  24.538   8.253
 5864POPC   C3A13853  28.389  24.473   7.953
 5864POPC   C4A13854  28.407  24.478   7.653
 5864POPC   C1B13855  28.492  24.747   8.553
 5864POPC   C2B13856  28.469  24.681   8.253
 5864POPC   C3B13857  28.482  24.718   7.953
 5864POPC   C4B13858  28.469  24.691   7.653
 5865POPC   NC313859  32.244  42.320   9.453
 5865POPC   PO413860  32.255  42.368   9.153
 5865POPC   GL113861  32.247  42.328   8.853
 5865POPC   GL213862  32.330  42.419   8.853
 5865POPC   C1A13863  32.253  42.380   8.553
 5865POPC   D2A13864  32.203  42.295   8.253
 5865POPC   C3A13865  32.264  42.340   7.953
 5865POPC   C4A13866  32.219  42.301   7.653
 5865POPC   C1B13867  32.353  42.614   8.553
 5865POPC   C2B13868  32.307  42.535   8.253
 5865POPC   C3B13869  32.309  42.549   7.953
 5865POPC   C4B13870  32.303  42.602   7.653
 5866POPC   NC313871  26.030  43.099   9.453
 5866POPC   PO413872  26.042  43.120   9.153
 5866POPC   GL113873  26.058  43.117   8.853
 5866POPC   GL213874  25.995  43.247   8.853
 5866POPC   C1A13875  26.060  43.064   8.553
 5866POPC   D2A13876  26.081  43.121   8.253
 5866POPC   C3A13877  26.013  43.154   7.953
 5866POPC   C4A13878  26.043  43.131   7.653
 5866POPC   C1B13879  26.033  43.389   8.553
 5866POPC   C2B13880  26.038  43.379   8.253
 5866POPC   C3B13881  26.020  43.313   7.953
 5866POPC   C4B13882  25.989  43.398   7.653
 5867POPC   NC313883  16.703  19.799   9.453
 5867POPC   PO413884  16.778  19.856   9.153
 5867POPC   GL113885  16.770  19.833   8.853
 5867POPC   GL213886  16.641  19.783   8.853
 5867POPC   C1A13887  16.718  19.798   8.553
 5867POPC   D2A13888  16.697  19.826   8.253
 5867POPC   C3A13889  16.779  19.870   7.953
 5867POPC   C4A13890  16.696  19.850   7.653
 5867POPC   C1B13891  16.478  19.771   8.553
 5867POPC   C2B13892  16.456  19.747   8.253
 5867POPC   C3B13893  16.516  19.834   7.953
 5867POPC   C4B13894  16.529  19.766   7.653
 5868POPC   NC313895  14.433  15.228   9.453
 5868POPC   PO413896  14.387  15.221   9.153
 5868POPC   GL113897  14.398  15.186   8.853
 5868POPC   GL213898  14.494  15.264   8.853
 5868POPC   C1A13899  14.443  15.202   8.553
 5868POPC   D2A13900  14.380  15.200   8.253
 5868POPC   C3A13901  14.408  15.174   7.953
 5868POPC   C4A13902  14.394  15.226   7.653
 5868POPC   C1B13903  14.524  15.360   8.553
 5868POPC   C2B13904  14.529  15.424   8.253
 5868POPC   C3B13905  14.471  15.433   7.953
 5868POPC   C4B13906  14.528  15.419   7.653
 5869POPC   NC313907  22.183  44.638   9.453
 5869POPC   PO413908  22.191  44.621   9.153
 5869POPC   GL113909  22.117  44.700   8.853
 5869POPC   GL213910  22.127  44.803   8.853
 5869POPC   C1A13911  22.138  44.674   8.553
 5869POPC   D2A13912  22.189  44.617   8.253
 5869POPC   C3A13913  22.189  44.701   7.953
 5869POPC   C4A13914  22.196  44.689   7.653
 5869POPC   C1B13915  22.011  44.857   8.553
 5869POPC   C2B13916  22.060  44.828   8.253
 5869POPC   C3B13917  22.000  44.900   7.953
 5869POPC   C4B13918  22.058  44.908   7.653
 5870POPC   NC313919  43.093  21.351   9.453
 5870POPC   PO413920  43.080  21.344   9.153
 5870POPC   GL113921  43.139  21.381   8.853
 5870POPC   GL213922  43.014  21.464   8.853
 5870POPC   C1A13923  43.072  21.378   8.553
 5870POPC   D2A13924  43.115  21.430   8.253
 5870POPC   C3A13925  43.128  21.431   7.953
 5870POPC   C4A13926  43.078  21.340   7.653
 5870POPC   C1B13927  43.022  21.581   8.553
 5870POPC   C2B13928  42.975  21.566   8.253
 5870POPC   C3B13929  42.987  21.614   7.953
 5870POPC   C4B13930  43.039  21.574   7.653
 5871POPC   NC313931   1.944  19.034   9.453
 5871POPC   PO413932   2.018  19.027   9.153
 5871POPC   GL113933   1.964  19.027   8.853
 5871POPC   GL213934   2.073  19.104   8.853
 5871POPC   C1A13935   1.977  19.092   8.553
 5871POPC   D2A13936   1.977  19.078   8.253
 5871POPC   C3A13937   1.975  19.089   7.953
 5871POPC   C4A13938   2.038  19.031   7.653
 5871POPC   C1B13939   2.208  19.136   8.553
 5871POPC   C2B13940   2.273  19.082   8.253
 5871POPC   C3B13941   2.232  19.109   7.953
 5871POPC   C4B13942   2.209  19.088   7.653
 5872POPC   NC313943   8.964  41.556   9.453
 5872POPC   PO413944   9.012  41.577   9.153
 5872POPC   GL113945   8.958  41.574   8.853
 5872POPC   GL213946   9.082  41.419   8.853
 5872POPC   C1A13947   8.998  41.509   8.553
 5872POPC   D2A13948   9.012  41.519   8.253
 5872POPC   C3A13949   8.941  41.530   7.953
 5872POPC   C4A13950   9.012  41.538   7.653
 5872POPC   C1B13951   9.151  41.405   8.553
 5872POPC   C2B13952   9.130  41.385   8.253
 5872POPC   C3B13953   9.168  41.345   7.953
 5872POPC   C4B13954   9.096  41.383   7.653
 5873POPC   NC313955  31.520  14.375   9.453
 5873POPC   PO413956  31.466  14.411   9.153
 5873POPC   GL113957  31.456  14.438   8.853
 5873POPC   GL213958  31.596  14.391   8.853
 5873POPC   C1A13959  31.519  14.372   8.553
 5873POPC   D2A13960  31.484  14.441   8.253
 5873POPC   C3A13961  31.512  14.423   7.953
 5873POPC   C4A13962  31.435  14.372   7.653
 5873POPC   C1B13963  31.711  14.317   8.553
 5873POPC   C2B13964  31.651  14.240   8.253
 5873POPC   C3B13965  31.684  14.277   7.953
 5873POPC   C4B13966  31.648  14.279   7.653
 5874POPC   NC313967   7.462  29.148   9.453
 5874POPC   PO413968   7.452  29.128   9.153
 5874POPC   GL113969   7.384  29.170   8.853
 5874POPC   GL213970   7.529  29.126   8.853
 5874POPC   C1A13971   7.406  29.153   8.553
 5874POPC   D2A13972   7.382  29.098   8.253
 5874POPC   C3A13973   7.457  29.145   7.953
 5874POPC   C4A13974   7.452  29.103   7.653
 5874POPC   C1B13975   7.666  29.007   8.553
 5874POPC   C2B13976   7.656  28.992   8.253
 5874POPC   C3B13977   7.609  29.016   7.953
 5874POPC   C4B13978   7.675  29.008   7.653
 5875POPC   NC313979  22.906  10.558   9.453
 5875POPC   PO413980  22.898  10.529   9.153
 5875POPC   GL113981  22.901  10.507   8.853
 5875POPC   GL213982  22.895  10.385   8.853
 5875POPC   C1A13983  22.981  10.498   8.553
 5875POPC   D2A13984  22.979  10.568   8.253
 5875POPC   C3A13985  22.953  10.516   7.953
 5875POPC   C4A13986  22.973  10.557   7.653
 5875POPC   C1B13987  22.959  10.297   8.553
 5875POPC   C2B13988  22.899  10.314   8.253
 5875POPC   C3B13989  22.929  10.251   7.953
 5875POPC   C4B13990  22.912  10.277   7.653
 5876POPC   NC313991  35.334   6.652   9.453
 5876POPC   PO413992  35.314   6.660   9.153
 5876POPC   GL113993  35.381   6.682   8.853
 5876POPC   GL213994  35.444   6.555   8.853
 5876POPC   C1A13995  35.361   6.656   8.553
 5876POPC   D2A13996  35.323   6.646   8.253
 5876POPC   C3A13997  35.336   6.675   7.953
 5876POPC   C4A13998  35.313   6.674   7.653
 5876POPC   C1B13999  35.463   6.428   8.553
 5876POPC   C2B14000  35.421   6.375   8.253
 5876POPC   C3B14001  35.485   6.450   7.953
 5876POPC   C4B14002  35.458   6.392   7.653
 5877POPC   NC314003   3.513  26.820   9.453
 5877POPC   PO414004   3.515  26.800   9.153
 5877POPC   GL114005   3.589  26.790   8.853
 5877POPC   GL214006   3.504  26.732   8.853
 5877POPC   C1A14007   3.578  26.845   8.553
 5877POPC   D2A14008   3.508  26.862   8.253
 5877POPC   C3A14009   3.566  26.832   7.953
 5877POPC   C4A14010   3.588  26.861   7.653
 5877POPC   C1B14011   3.414  26.666   8.553
 5877POPC   C2B14012   3.416  26.582   8.253
 5877POPC   C3B14013   3.421  26.661   7.953
 5877POPC   C4B14014   3.376  26.636   7.653
 5878POPC   NC314015  29.948  35.320   9.453
 5878POPC   PO414016  29.929  35.370   9.153
 5878POPC   GL114017  29.948  35.382   8.853
 5878POPC   GL214018  29.906  35.471   8.853
 5878POPC   C1A14019  29.883  35.366   8.553
 5878POPC   D2A14020  29.963  35.375   8.253
 5878POPC   C3A14021  29.968  35.321   7.953
 5878POPC   C4A14022  29.927  35.382   7.653
 5878POPC   C1B14023  29.866  35.593   8.553
 5878POPC   C2B14024  29.860  35.578   8.253
 5878POPC   C3B14025  29.859  35.597   7.953
 5878POPC   C4B14026  29.782  35.608   7.653
 5879POPC   NC314027  36.087  19.874   9.453
 5879POPC   PO414028  36.154  19.792   9.153
 5879POPC   GL114029  36.084  19.800   8.853
 5879POPC   GL214030  36.158  19.687   8.853
 5879POPC   C1A14031  36.109  19.861   8.553
 5879POPC   D2A14032  36.150  19.805   8.253
 5879POPC   C3A14033  36.119  19.786   7.953
 5879POPC   C4A14034  36.122  19.856   7.653
 5879POPC   C1B14035  36.158  19.569   8.553
 5879POPC   C2B14036  36.174  19.622   8.253
 5879POPC   C3B14037  36.226  19.607   7.953
 5879POPC   C4B14038  36.202  19.636   7.653
 5880POPC   NC314039  25.995  22.909   9.453
 5880POPC   PO414040  26.000  22.921   9.153
 5880POPC   GL114041  26.009  22.902   8.853
 5880POPC   GL214042  25.953  22.976   8.853
 5880POPC   C1A14043  26.024  22.947   8.553
 5880POPC   D2A14044  26.009  22.917   8.253
 5880POPC   C3A14045  26.045  22.928   7.953
 5880POPC   C4A14046  26.082  22.934   7.653
 5880POPC   C1B14047  25.842  22.995   8.553
 5880POPC   C2B14048  25.788  23.037   8.253
 5880POPC   C3B14049  25.809  22.987   7.953
 5880POPC   C4B14050  25.806  23.047   7.653
 5881POPC   NC314051   1.242  21.415   9.453
 5881POPC   PO414052   1.259  21.374   9.153
 5881POPC   GL114053   1.243  21.368   8.853
 5881POPC   GL214054   1.087  21.291   8.853
 5881POPC   C1A14055   1.216  21.338   8.553
 5881POPC   D2A14056   1.184  21.375   8.253
 5881POPC   C3A14057   1.167  21.419   7.953
 5881POPC   C4A14058   1.236  21.363   7.653
 5881POPC   C1B14059   1.029  21.297   8.553
 5881POPC   C2B14060   1.034  21.294   8.253
 5881POPC   C3B14061   1.000  21.251   7.953
 5881POPC   C4B14062   1.023  21.206   7.653
 5882POPC   NC314063  34.614  12.839   9.453
 5882POPC   PO414064  34.614  12.835   9.153
 5882POPC   GL114065  34.594  12.804   8.853
 5882POPC   GL214066  34.704  12.894   8.853
 5882POPC   C1A14067  34.600  12.875   8.553
 5882POPC   D2A14068  34.556  12.877   8.253
 5882POPC   C3A14069  34.563  12.860   7.953
 5882POPC   C4A14070  34.572  12.873   7.653
 5882POPC   C1B14071  34.828  12.902   8.553
 5882POPC   C2B14072  34.857  12.904   8.253
 5882POPC   C3B14073  34.851  12.928   7.953
 5882POPC   C4B14074  34.832  12.937   7.653
 5883POPC   NC314075  13.647  33.830   9.453
 5883POPC   PO414076  13.633  33.760   9.153
 5883POPC   GL114077  13.630  33.789   8.853
 5883POPC   GL214078  13.582  33.921   8.853
 5883POPC   C1A14079  13.586  33.774   8.553
 5883POPC   D2A14080  13.625  33.787   8.253
 5883POPC   C3A14081  13.661  33.782   7.953
 5883POPC   C4A14082  13.673  33.769   7.653
 5883POPC   C1B14083  13.409  33.940   8.553
 5883POPC   C2B14084  13.405  34.018   8.253
 5883POPC   C3B14085  13.457  33.986   7.953
 5883POPC   C4B14086  13.410  33.929   7.653
 5884POPC   NC314087  10.566  32.991   9.453
 5884POPC   PO414088  10.484  33.049   9.153
 5884POPC   GL114089  10.532  33.065   8.853
 5884POPC   GL214090  10.482  32.879   8.853
 5884POPC   C1A14091  10.526  32.983   8.553
 5884POPC   D2A14092  10.537  33.061   8.253
 5884POPC   C3A14093  10.502  33.007   7.953
 5884POPC   C4A14094  10.493  33.021   7.653
 5884POPC   C1B14095  10.343  32.810   8.553
 5884POPC   C2B14096  10.364  32.858   8.253
 5884POPC   C3B14097  10.333  32.877   7.953
 5884POPC   C4B14098  10.398  32.819   7.653
 5885POPC   NC314099  32.267  16.705   9.453
 5885POPC   PO414100  32.225  16.779   9.153
 5885POPC   GL114101  32.273  16.737   8.853
 5885POPC   GL214102  32.367  16.647   8.853
 5885POPC   C1A14103  32.294  16.736   8.553
 5885POPC   D2A14104  32.247  16.771   8.253
 5885POPC   C3A14105  32.208  16.713   7.953
 5885POPC   C4A14106  32.247  16.729   7.653
 5885POPC   C1B14107  32.365  16.501   8.553
 5885POPC   C2B14108  32.432  16.529   8.253
 5885POPC   C3B14109  32.415  16.577   7.953
 5885POPC   C4B14110  32.413  16.497   7.653
 5886POPC   NC314111  44.677   3.583   9.453
 5886POPC   PO414112  44.631   3.526   9.153
 5886POPC   GL114113  44.633   3.579   8.853
 5886POPC   GL214114  44.524   3.643   8.853
 5886POPC   C1A14115  44.686   3.562   8.553
 5886POPC   D2A14116  44.693   3.541   8.253
 5886POPC   C3A14117  44.646   3.509   7.953
 5886POPC   C4A14118  44.647   3.539   7.653
 5886POPC   C1B14119  44.469   3.651   8.553
 5886POPC   C2B14120  44.419   3.652   8.253
 5886POPC   C3B14121  44.393   3.690   7.953
 5886POPC   C4B14122  44.476   3.703   7.653
 5887POPC   NC314123  33.031   2.806   9.453
 5887POPC   PO414124  33.002   2.726   9.153
 5887POPC   GL114125  33.015   2.777   8.853
 5887POPC   GL214126  33.101   2.633   8.853
 5887POPC   C1A14127  33.039   2.799   8.553
 5887POPC   D2A14128  33.057   2.727   8.253
 5887POPC   C3A14129  33.044   2.743   7.953
 5887POPC   C4A14130  32.987   2.725   7.653
 5887POPC   C1B14131  33.143   2.561   8.553
 5887POPC   C2B14132  33.134   2.518   8.253
 5887POPC   C3B14133  33.164   2.500   7.953
 5887POPC   C4B14134  33.134   2.594   7.653
 5888POPC   NC314135  39.963  39.192   9.453
 5888POPC   PO414136  39.967  39.203   9.153
 5888POPC   GL114137  40.028  39.242   8.853
 5888POPC   GL214138  40.043  39.115   8.853
 5888POPC   C1A14139  40.041  39.274   8.553
 5888POPC   D2A14140  40.006  39.199   8.253
 5888POPC   C3A14141  40.038  39.206   7.953
 5888POPC   C4A14142  39.997  39.211   7.653
 5888POPC   C1B14143  40.112  39.043   8.553
 5888POPC   C2B14144  40.162  39.068   8.253
 5888POPC   C3B14145  40.175  39.037   7.953
 5888POPC   C4B14146  40.106  39.007   7.653
 5889POPC   NC314147  35.376  16.003   9.453
 5889POPC   PO414148  35.318  15.984   9.153
 5889POPC   GL114149  35.400  15.942   8.853
 5889POPC   GL214150  35.437  16.010   8.853
 5889POPC   C1A14151  35.355  15.936   8.553
 5889POPC   D2A14152  35.400  15.994   8.253
 5889POPC   C3A14153  35.330  15.969   7.953
 5889POPC   C4A14154  35.400  15.963   7.653
 5889POPC   C1B14155  35.622  16.027   8.553
 5889POPC   C2B14156  35.569  15.982   8.253
 5889POPC   C3B14157  35.576  15.961   7.953
 5889POPC   C4B14158  35.580  16.016   7.653
 5890POPC   NC314159  13.617  10.479   9.453
 5890POPC   PO414160  13.636  10.504   9.153
 5890POPC   GL114161  13.657  10.486   8.853
 5890POPC   GL214162  13.759  10.500   8.853
 5890POPC   C1A14163  13.601  10.515   8.553
 5890POPC   D2A14164  13.634  10.477   8.253
 5890POPC   C3A14165  13.636  10.510   7.953
 5890POPC   C4A14166  13.617  10.486   7.653
 5890POPC   C1B14167  13.830  10.529   8.553
 5890POPC   C2B14168  13.920  10.570   8.253
 5890POPC   C3B14169  13.853  10.547   7.953
 5890POPC   C4B14170  13.840  10.579   7.653
 5891POPC   NC314171   5.885   9.766   9.453
 5891POPC   PO414172   5.842   9.726   9.153
 5891POPC   GL114173   5.902   9.749   8.853
 5891POPC   GL214174   5.925   9.642   8.853
 5891POPC   C1A14175   5.895   9.791   8.553
 5891POPC   D2A14176   5.829   9.774   8.253
 5891POPC   C3A14177   5.831   9.726   7.953
 5891POPC   C4A14178   5.865   9.728   7.653
 5891POPC   C1B14179   5.976   9.553   8.553
 5891POPC   C2B14180   6.053   9.534   8.253
 5891POPC   C3B14181   6.013   9.581   7.953
 5891POPC   C4B14182   6.023   9.527   7.653
 5892POPC   NC314183   7.424   4.337   9.453
 5892POPC   PO414184   7.452   4.299   9.153
 5892POPC   GL114185   7.389   4.310   8.853
 5892POPC   GL214186   7.275   4.227   8.853
 5892POPC   C1A14187   7.393   4.328   8.553
 5892POPC   D2A14188   7.447   4.350   8.253
 5892POPC   C3A14189   7.442   4.303   7.953
 5892POPC   C4A14190   7.417   4.354   7.653
 5892POPC   C1B14191   7.226   4.221   8.553
 5892POPC   C2B14192   7.239   4.142   8.253
 5892POPC   C3B14193   7.183   4.196   7.953
 5892POPC   C4B14194   7.246   4.159   7.653
 5893POPC   NC314195  43.130  16.736   9.453
 5893POPC   PO414196  43.150  16.748   9.153
 5893POPC   GL114197  43.085  16.775   8.853
 5893POPC   GL214198  43.187  16.770   8.853
 5893POPC   C1A14199  43.140  16.750   8.553
 5893POPC   D2A14200  43.077  16.746   8.253
 5893POPC   C3A14201  43.070  16.743   7.953
 5893POPC   C4A14202  43.095  16.773   7.653
 5893POPC   C1B14203  43.337  16.708   8.553
 5893POPC   C2B14204  43.342  16.678   8.253
 5893POPC   C3B14205  43.392  16.749   7.953
 5893POPC   C4B14206  43.331  16.696   7.653
 5894POPC   NC314207   0.417  25.219   9.453
 5894POPC   PO414208   0.391  25.226   9.153
 5894POPC   GL114209   0.454  25.217   8.853
 5894POPC   GL214210   0.556  25.339   8.853
 5894POPC   C1A14211   0.419  25.219   8.553
 5894POPC   D2A14212   0.408  25.298   8.253
 5894POPC   C3A14213   0.456  25.243   7.953
 5894POPC   C4A14214   0.467  25.275   7.653
 5894POPC   C1B14215   0.645  25.408   8.553
 5894POPC   C2B14216   0.567  25.453   8.253
 5894POPC   C3B14217   0.648  25.450   7.953
 5894POPC   C4B14218   0.611  25.481   7.653
 5895POPC   NC314219  23.753  12.101   9.453
 5895POPC   PO414220  23.733  12.029   9.153
 5895POPC   GL114221  23.734  12.060   8.853
 5895POPC   GL214222  23.729  12.203   8.853
 5895POPC   C1A14223  23.723  12.103   8.553
 5895POPC   D2A14224  23.755  12.097   8.253
 5895POPC   C3A14225  23.692  12.116   7.953
 5895POPC   C4A14226  23.733  12.060   7.653
 5895POPC   C1B14227  23.619  12.285   8.553
 5895POPC   C2B14228  23.695  12.352   8.253
 5895POPC   C3B14229  23.684  12.285   7.953
 5895POPC   C4B14230  23.673  12.366   7.653
 5896POPC   NC314231  41.510  27.633   9.453
 5896POPC   PO414232  41.570  27.591   9.153
 5896POPC   GL114233  41.584  27.595   8.853
 5896POPC   GL214234  41.612  27.645   8.853
 5896POPC   C1A14235  41.514  27.589   8.553
 5896POPC   D2A14236  41.571  27.625   8.253
 5896POPC   C3A14237  41.559  27.601   7.953
 5896POPC   C4A14238  41.532  27.566   7.653
 5896POPC   C1B14239  41.758  27.732   8.553
 5896POPC   C2B14240  41.705  27.775   8.253
 5896POPC   C3B14241  41.684  27.785   7.953
 5896POPC   C4B14242  41.740  27.797   7.653
 5897POPC   NC314243  22.136  43.883   9.453
 5897POPC   PO414244  22.124  43.892   9.153
 5897POPC   GL114245  22.146  43.896   8.853
 5897POPC   GL214246  22.142  44.012   8.853
 5897POPC   C1A14247  22.210  43.874   8.553
 5897POPC   D2A14248  22.171  43.844   8.253
 5897POPC   C3A14249  22.170  43.933   7.953
 5897POPC   C4A14250  22.162  43.853   7.653
 5897POPC   C1B14251  22.104  44.140   8.553
 5897POPC   C2B14252  22.086  44.113   8.253
 5897POPC   C3B14253  22.156  44.119   7.953
 5897POPC   C4B14254  22.114  44.113   7.653
 5898POPC   NC314255  24.472  43.890   9.453
 5898POPC   PO414256  24.522  43.856   9.153
 5898POPC   GL114257  24.486  43.854   8.853
 5898POPC   GL214258  24.341  43.929   8.853
 5898POPC   C1A14259  24.517  43.936   8.553
 5898POPC   D2A14260  24.534  43.917   8.253
 5898POPC   C3A14261  24.455  43.894   7.953
 5898POPC   C4A14262  24.524  43.837   7.653
 5898POPC   C1B14263  24.301  43.954   8.553
 5898POPC   C2B14264  24.290  44.031   8.253
 5898POPC   C3B14265  24.288  43.958   7.953
 5898POPC   C4B14266  24.219  43.980   7.653
 5899POPC   NC314267  29.173  22.191   9.453
 5899POPC   PO414268  29.158  22.176   9.153
 5899POPC   GL114269  29.144  22.123   8.853
 5899POPC   GL214270  29.020  22.081   8.853
 5899POPC   C1A14271  29.154  22.185   8.553
 5899POPC   D2A14272  29.161  22.196   8.253
 5899POPC   C3A14273  29.176  22.171   7.953
 5899POPC   C4A14274  29.153  22.193   7.653
 5899POPC   C1B14275  28.922  22.057   8.553
 5899POPC   C2B14276  28.867  22.064   8.253
 5899POPC   C3B14277  28.895  22.134   7.953
 5899POPC   C4B14278  28.939  22.050   7.653
 5900POPC   NC314279  41.570  22.149   9.453
 5900POPC   PO414280  41.559  22.194   9.153
 5900POPC   GL114281  41.513  22.176   8.853
 5900POPC   GL214282  41.412  22.202   8.853
 5900POPC   C1A14283  41.526  22.181   8.553
 5900POPC   D2A14284  41.533  22.130   8.253
 5900POPC   C3A14285  41.560  22.156   7.953
 5900POPC   C4A14286  41.518  22.166   7.653
 5900POPC   C1B14287  41.318  22.266   8.553
 5900POPC   C2B14288  41.338  22.225   8.253
 5900POPC   C3B14289  41.336  22.235   7.953
 5900POPC   C4B14290  41.306  22.203   7.653
 5901POPC   NC314291  26.773  22.901   9.453
 5901POPC   PO414292  26.828  22.909   9.153
 5901POPC   GL114293  26.791  22.897   8.853
 5901POPC   GL214294  26.920  22.867   8.853
 5901POPC   C1A14295  26.816  22.959   8.553
 5901POPC   D2A14296  26.782  22.978   8.253
 5901POPC   C3A14297  26.802  22.935   7.953
 5901POPC   C4A14298  26.791  22.913   7.653
 5901POPC   C1B14299  27.021  22.883   8.553
 5901POPC   C2B14300  27.036  22.851   8.253
 5901POPC   C3B14301  27.066  22.908   7.953
 5901POPC   C4B14302  27.095  22.884   7.653
 5902POPC   NC314303  41.509  15.935   9.453
 5902POPC   PO414304  41.572  15.963   9.153
 5902POPC   GL114305  41.587  15.940   8.853
 5902POPC   GL214306  41.507  16.067   8.853
 5902POPC   C1A14307  41.566  15.972   8.553
 5902POPC   D2A14308  41.529  15.957   8.253
 5902POPC   C3A14309  41.565  15.952   7.953
 5902POPC   C4A14310  41.532  15.985   7.653
 5902POPC   C1B14311  41.342  16.124   8.553
 5902POPC   C2B14312  41.336  16.118   8.253
 5902POPC   C3B14313  41.362  16.164   7.953
 5902POPC   C4B14314  41.394  16.139   7.653
 5903POPC   NC314315  22.130   3.536   9.453
 5903POPC   PO414316  22.153   3.528   9.153
 5903POPC   GL114317  22.203   3.561   8.853
 5903POPC   GL214318  22.179   3.651   8.853
 5903POPC   C1A14319  22.192   3.581   8.553
 5903POPC   D2A14320  22.146   3.586   8.253
 5903POPC   C3A14321  22.143   3.545   7.953
 5903POPC   C4A14322  22.203   3.557   7.653
 5903POPC   C1B14323  22.318   3.788   8.553
 5903POPC   C2B14324  22.269   3.729   8.253
 5903POPC   C3B14325  22.285   3.763   7.953
 5903POPC   C4B14326  22.304   3.764   7.653
 5904POPC   NC314327  19.871  27.570   9.453
 5904POPC   PO414328  19.856  27.572   9.153
 5904POPC   GL114329  19.854  27.561   8.853
 5904POPC   GL214330  19.804  27.710   8.853
 5904POPC   C1A14331  19.809  27.574   8.553
 5904POPC   D2A14332  19.799  27.573   8.253
 5904POPC   C3A14333  19.839  27.552   7.953
 5904POPC   C4A14334  19.846  27.628   7.653
 5904POPC   C1B14335  19.863  27.845   8.553
 5904POPC   C2B14336  19.832  27.805   8.253
 5904POPC   C3B14337  19.790  27.793   7.953
 5904POPC   C4B14338  19.806  27.878   7.653
 5905POPC   NC314339  10.518  22.182   9.453
 5905POPC   PO414340  10.523  22.134   9.153
 5905POPC   GL114341  10.482  22.174   8.853
 5905POPC   GL214342  10.354  22.202   8.853
 5905POPC   C1A14343  10.475  22.171   8.553
 5905POPC   D2A14344  10.531  22.176   8.253
 5905POPC   C3A14345  10.514  22.133   7.953
 5905POPC   C4A14346  10.563  22.169   7.653
 5905POPC   C1B14347  10.264  22.216   8.553
 5905POPC   C2B14348  10.281  22.192   8.253
 5905POPC   C3B14349  10.288  22.178   7.953
 5905POPC   C4B14350  10.259  22.202   7.653
 5906POPC   NC314351  44.634  23.745   9.453
 5906POPC   PO414352  44.682  23.732   9.153
 5906POPC   GL114353  44.685  23.744   8.853
 5906POPC   GL214354  44.747  23.739   8.853
 5906POPC   C1A14355  44.696  23.746   8.553
 5906POPC   D2A14356  44.703  23.689   8.253
 5906POPC   C3A14357  44.615  23.756   7.953
 5906POPC   C4A14358  44.698  23.665   7.653
 5906POPC   C1B14359  44.885  23.799   8.553
 5906POPC   C2B14360  44.883  23.812   8.253
 5906POPC   C3B14361  44.891  23.785   7.953
 5906POPC   C4B14362  44.932  23.844   7.653
 5907POPC   NC314363  21.432   7.375   9.453
 5907POPC   PO414364  21.398   7.454   9.153
 5907POPC   GL114365  21.337   7.419   8.853
 5907POPC   GL214366  21.417   7.563   8.853
 5907POPC   C1A14367  21.356   7.404   8.553
 5907POPC   D2A14368  21.409   7.447   8.253
 5907POPC   C3A14369  21.388   7.408   7.953
 5907POPC   C4A14370  21.398   7.415   7.653
 5907POPC   C1B14371  21.446   7.645   8.553
 5907POPC   C2B14372  21.445   7.625   8.253
 5907POPC   C3B14373  21.429   7.649   7.953
 5907POPC   C4B14374  21.438   7.664   7.653
 5908POPC   NC314375  39.208   4.272   9.453
 5908POPC   PO414376  39.197   4.333   9.153
 5908POPC   GL114377  39.255   4.352   8.853
 5908POPC   GL214378  39.255   4.371   8.853
 5908POPC   C1A14379  39.261   4.293   8.553
 5908POPC   D2A14380  39.277   4.278   8.253
 5908POPC   C3A14381  39.196   4.298   7.953
 5908POPC   C4A14382  39.237   4.322   7.653
 5908POPC   C1B14383  39.360   4.552   8.553
 5908POPC   C2B14384  39.366   4.499   8.253
 5908POPC   C3B14385  39.338   4.490   7.953
 5908POPC   C4B14386  39.327   4.509   7.653
 5909POPC   NC314387  27.595  15.214   9.453
 5909POPC   PO414388  27.627  15.137   9.153
 5909POPC   GL114389  27.632  15.139   8.853
 5909POPC   GL214390  27.452  15.103   8.853
 5909POPC   C1A14391  27.638  15.195   8.553
 5909POPC   D2A14392  27.589  15.136   8.253
 5909POPC   C3A14393  27.586  15.143   7.953
 5909POPC   C4A14394  27.558  15.155   7.653
 5909POPC   C1B14395  27.429  14.996   8.553
 5909POPC   C2B14396  27.408  15.024   8.253
 5909POPC   C3B14397  27.366  15.019   7.953
 5909POPC   C4B14398  27.350  15.009   7.653
 5910POPC   NC314399  28.326  16.745   9.453
 5910POPC   PO414400  28.340  16.690   9.153
 5910POPC   GL114401  28.347  16.771   8.853
 5910POPC   GL214402  28.457  16.626   8.853
 5910POPC   C1A14403  28.340  16.707   8.553
 5910POPC   D2A14404  28.377  16.696   8.253
 5910POPC   C3A14405  28.339  16.739   7.953
 5910POPC   C4A14406  28.404  16.690   7.653
 5910POPC   C1B14407  28.457  16.498   8.553
 5910POPC   C2B14408  28.479  16.528   8.253
 5910POPC   C3B14409  28.460  16.502   7.953
 5910POPC   C4B14410  28.421  16.522   7.653
 5911POPC   NC314411  35.390  18.235   9.453
 5911POPC   PO414412  35.348  18.253   9.153
 5911POPC   GL114413  35.388  18.250   8.853
 5911POPC   GL214414  35.312  18.422   8.853
 5911POPC   C1A14415  35.336  18.287   8.553
 5911POPC   D2A14416  35.344  18.253   8.253
 5911POPC   C3A14417  35.362  18.247   7.953
 5911POPC   C4A14418  35.348  18.309   7.653
 5911POPC   C1B14419  35.399  18.521   8.553
 5911POPC   C2B14420  35.328  18.575   8.253
 5911POPC   C3B14421  35.396  18.556   7.953
 5911POPC   C4B14422  35.367  18.532   7.653
 5912POPC   NC314423  27.592  37.698   9.453
 5912POPC   PO414424  27.584  37.680   9.153
 5912POPC   GL114425  27.608  37.689   8.853
 5912POPC   GL214426  27.582  37.783   8.853
 5912POPC   C1A14427  27.627  37.655   8.553
 5912POPC   D2A14428  27.590  37.722   8.253
 5912POPC   C3A14429  27.575  37.664   7.953
 5912POPC   C4A14430  27.557  37.636   7.653
 5912POPC   C1B14431  27.628  37.960   8.553
 5912POPC   C2B14432  27.676  37.943   8.253
 5912POPC   C3B14433  27.664  37.889   7.953
 5912POPC   C4B14434  27.630  37.910   7.653
 5913POPC   NC314435  43.090   6.652   9.453
 5913POPC   PO414436  43.133   6.613   9.153
 5913POPC   GL114437  43.082   6.655   8.853
 5913POPC   GL214438  43.094   6.533   8.853
 5913POPC   C1A14439  43.062   6.684   8.553
 5913POPC   D2A14440  43.143   6.620   8.253
 5913POPC   C3A14441  43.076   6.618   7.953
 5913POPC   C4A14442  43.140   6.603   7.653
 5913POPC   C1B14443  43.079   6.427   8.553
 5913POPC   C2B14444  43.105   6.399   8.253
 5913POPC   C3B14445  43.093   6.373   7.953
 5913POPC   C4B14446  43.074   6.366   7.653
 5914POPC   NC314447  43.103  32.983   9.453
 5914POPC   PO414448  43.125  33.059   9.153
 5914POPC   GL114449  43.069  32.991   8.853
 5914POPC   GL214450  43.047  33.152   8.853
 5914POPC   C1A14451  43.099  33.038   8.553
 5914POPC   D2A14452  43.098  33.072   8.253
 5914POPC   C3A14453  43.096  32.980   7.953
 5914POPC   C4A14454  43.092  33.009   7.653
 5914POPC   C1B14455  42.922  33.209   8.553
 5914POPC   C2B14456  42.884  33.178   8.253
 5914POPC   C3B14457  42.973  33.244   7.953
 5914POPC   C4B14458  42.907  33.207   7.653
 5915POPC   NC314459  26.087   0.425   9.453
 5915POPC   PO414460  26.016   0.401   9.153
 5915POPC   GL114461  26.052   0.443   8.853
 5915POPC   GL214462  25.996   0.544   8.853
 5915POPC   C1A14463  26.085   0.415   8.553
 5915POPC   D2A14464  26.046   0.412   8.253
 5915POPC   C3A14465  26.015   0.454   7.953
 5915POPC   C4A14466  26.076   0.464   7.653
 5915POPC   C1B14467  25.992   0.710   8.553
 5915POPC   C2B14468  25.937   0.703   8.253
 5915POPC   C3B14469  25.916   0.630   7.953
 5915POPC   C4B14470  25.951   0.713   7.653
 5916POPC   NC314471  42.354  35.311   9.453
 5916POPC   PO414472  42.337  35.381   9.153
 5916POPC   GL114473  42.292  35.370   8.853
 5916POPC   GL214474  42.192  35.351   8.853
 5916POPC   C1A14475  42.331  35.326   8.553
 5916POPC   D2A14476  42.373  35.346   8.253
 5916POPC   C3A14477  42.377  35.316   7.953
 5916POPC   C4A14478  42.345  35.340   7.653
 5916POPC   C1B14479  42.143  35.435   8.553
 5916POPC   C2B14480  42.077  35.419   8.253
 5916POPC   C3B14481  42.047  35.398   7.953
 5916POPC   C4B14482  42.106  35.383   7.653
 5917POPC   NC314483  19.800  17.474   9.453
 5917POPC   PO414484  19.791  17.474   9.153
 5917POPC   GL114485  19.808  17.530   8.853
 5917POPC   GL214486  19.961  17.609   8.853
 5917POPC   C1A14487  19.834  17.467   8.553
 5917POPC   D2A14488  19.809  17.468   8.253
 5917POPC   C3A14489  19.859  17.475   7.953
 5917POPC   C4A14490  19.848  17.547   7.653
 5917POPC   C1B14491  20.005  17.657   8.553
 5917POPC   C2B14492  20.029  17.651   8.253
 5917POPC   C3B14493  19.976  17.711   7.953
 5917POPC   C4B14494  19.996  17.661   7.653
 5918POPC   NC314495  10.569  30.662   9.453
 5918POPC   PO414496  10.496  30.647   9.153
 5918POPC   GL114497  10.480  30.698   8.853
 5918POPC   GL214498  10.681  30.714   8.853
 5918POPC   C1A14499  10.525  30.739   8.553
 5918POPC   D2A14500  10.477  30.655   8.253
 5918POPC   C3A14501  10.523  30.714   7.953
 5918POPC   C4A14502  10.534  30.691   7.653
 5918POPC   C1B14503  10.811  30.633   8.553
 5918POPC   C2B14504  10.803  30.710   8.253
 5918POPC   C3B14505  10.724  30.688   7.953
 5918POPC   C4B14506  10.789  30.673   7.653
 5919POPC   NC314507  19.786  35.341   9.453
 5919POPC   PO414508  19.882  35.336   9.153
 5919POPC   GL114509  19.795  35.367   8.853
 5919POPC   GL214510  19.964  35.218   8.853
 5919POPC   C1A14511  19.829  35.371   8.553
 5919POPC   D2A14512  19.840  35.316   8.253
 5919POPC   C3A14513  19.832  35.384   7.953
 5919POPC   C4A14514  19.807  35.398   7.653
 5919POPC   C1B14515  19.990  35.151   8.553
 5919POPC   C2B14516  19.991  35.153   8.253
 5919POPC   C3B14517  20.041  35.121   7.953
 5919POPC   C4B14518  19.972  35.185   7.653
 5920POPC   NC314519  22.138   8.238   9.453
 5920POPC   PO414520  22.163   8.193   9.153
 5920POPC   GL114521  22.118   8.170   8.853
 5920POPC   GL214522  22.083   8.069   8.853
 5920POPC   C1A14523  22.169   8.161   8.553
 5920POPC   D2A14524  22.196   8.205   8.253
 5920POPC   C3A14525  22.167   8.206   7.953
 5920POPC   C4A14526  22.148   8.157   7.653
 5920POPC   C1B14527  22.061   7.991   8.553
 5920POPC   C2B14528  22.040   8.025   8.253
 5920POPC   C3B14529  22.041   7.990   7.953
 5920POPC   C4B14530  22.003   7.960   7.653
 5921POPC   NC314531  41.608  10.551   9.453
 5921POPC   PO414532  41.589  10.568   9.153
 5921POPC   GL114533  41.584  10.520   8.853
 5921POPC   GL214534  41.388  10.511   8.853
 5921POPC   C1A14535  41.573  10.505   8.553
 5921POPC   D2A14536  41.583  10.498   8.253
 5921POPC   C3A14537  41.578  10.482   7.953
 5921POPC   C4A14538  41.535  10.480   7.653
 5921POPC   C1B14539  41.281  10.480   8.553
 5921POPC   C2B14540  41.361  10.475   8.253
 5921POPC   C3B14541  41.287  10.481   7.953
 5921POPC   C4B14542  41.311  10.515   7.653
 5922POPC   NC314543   9.723   2.005   9.453
 5922POPC   PO414544   9.759   1.957   9.153
 5922POPC   GL114545   9.720   2.032   8.853
 5922POPC   GL214546   9.698   2.073   8.853
 5922POPC   C1A14547   9.725   1.941   8.553
 5922POPC   D2A14548   9.743   1.952   8.253
 5922POPC   C3A14549   9.752   1.967   7.953
 5922POPC   C4A14550   9.754   1.998   7.653
 5922POPC   C1B14551   9.717   2.283   8.553
 5922POPC   C2B14552   9.719   2.220   8.253
 5922POPC   C3B14553   9.710   2.277   7.953
 5922POPC   C4B14554   9.733   2.238   7.653
 5923POPC   NC314555  41.579  39.267   9.453
 5923POPC   PO414556  41.535  39.219   9.153
 5923POPC   GL114557  41.539  39.233   8.853
 5923POPC   GL214558  41.475  39.241   8.853
 5923POPC   C1A14559  41.599  39.273   8.553
 5923POPC   D2A14560  41.579  39.224   8.253
 5923POPC   C3A14561  41.517  39.220   7.953
 5923POPC   C4A14562  41.569  39.228   7.653
 5923POPC   C1B14563  41.313  39.189   8.553
 5923POPC   C2B14564  41.302  39.251   8.253
 5923POPC   C3B14565  41.350  39.204   7.953
 5923POPC   C4B14566  41.320  39.187   7.653
 5924POPC   NC314567  32.212  18.256   9.453
 5924POPC   PO414568  32.273  18.331   9.153
 5924POPC   GL114569  32.222  18.300   8.853
 5924POPC   GL214570  32.085  18.358   8.853
 5924POPC   C1A14571  32.212  18.310   8.553
 5924POPC   D2A14572  32.294  18.249   8.253
 5924POPC   C3A14573  32.250  18.316   7.953
 5924POPC   C4A14574  32.295  18.303   7.653
 5924POPC   C1B14575  32.018  18.373   8.553
 5924POPC   C2B14576  32.058  18.378   8.253
 5924POPC   C3B14577  31.981  18.413   7.953
 5924POPC   C4B14578  31.984  18.388   7.653
 5925POPC   NC314579  32.990  16.724   9.453
 5925POPC   PO414580  32.995  16.772   9.153
 5925POPC   GL114581  33.021  16.713   8.853
 5925POPC   GL214582  33.104  16.817   8.853
 5925POPC   C1A14583  33.019  16.745   8.553
 5925POPC   D2A14584  33.034  16.712   8.253
 5925POPC   C3A14585  33.055  16.694   7.953
 5925POPC   C4A14586  33.007  16.774   7.653
 5925POPC   C1B14587  33.197  16.886   8.553
 5925POPC   C2B14588  33.203  16.913   8.253
 5925POPC   C3B14589  33.206  16.920   7.953
 5925POPC   C4B14590  33.225  16.882   7.653
 5926POPC   NC314591   0.433  24.470   9.453
 5926POPC   PO414592   0.401  24.451   9.153
 5926POPC   GL114593   0.415  24.513   8.853
 5926POPC   GL214594   0.398  24.321   8.853
 5926POPC   C1A14595   0.457  24.489   8.553
 5926POPC   D2A14596   0.483  24.489   8.253
 5926POPC   C3A14597   0.478  24.497   7.953
 5926POPC   C4A14598   0.479  24.459   7.653
 5926POPC   C1B14599   0.452  24.258   8.553
 5926POPC   C2B14600   0.442  24.203   8.253
 5926POPC   C3B14601   0.444  24.285   7.953
 5926POPC   C4B14602   0.460  24.199   7.653
 5927POPC   NC314603  31.476  30.717   9.453
 5927POPC   PO414604  31.425  30.668   9.153
 5927POPC   GL114605  31.486  30.722   8.853
 5927POPC   GL214606  31.368  30.756   8.853
 5927POPC   C1A14607  31.500  30.661   8.553
 5927POPC   D2A14608  31.490  30.720   8.253
 5927POPC   C3A14609  31.508  30.722   7.953
 5927POPC   C4A14610  31.473  30.738   7.653
 5927POPC   C1B14611  31.228  30.845   8.553
 5927POPC   C2B14612  31.235  30.848   8.253
 5927POPC   C3B14613  31.242  30.786   7.953
 5927POPC   C4B14614  31.224  30.832   7.653
 5928POPC   NC314615  15.958  29.156   9.453
 5928POPC   PO414616  15.908  29.181   9.153
 5928POPC   GL114617  15.915  29.193   8.853
 5928POPC   GL214618  15.999  29.033   8.853
 5928POPC   C1A14619  15.926  29.101   8.553
 5928POPC   D2A14620  15.956  29.165   8.253
 5928POPC   C3A14621  15.996  29.121   7.953
 5928POPC   C4A14622  15.978  29.160   7.653
 5928POPC   C1B14623  16.146  28.993   8.553
 5928POPC   C2B14624  16.137  28.970   8.253
 5928POPC   C3B14625  16.146  28.934   7.953
 5928POPC   C4B14626  16.116  28.907   7.653
 5929POPC   NC314627   1.185   8.174   9.453
 5929POPC   PO414628   1.198   8.151   9.153
 5929POPC   GL114629   1.226   8.187   8.853
 5929POPC   GL214630   1.079   8.160   8.853
 5929POPC   C1A14631   1.167   8.241   8.553
 5929POPC   D2A14632   1.187   8.234   8.253
 5929POPC   C3A14633   1.219   8.204   7.953
 5929POPC   C4A14634   1.165   8.177   7.653
 5929POPC   C1B14635   1.018   8.018   8.553
 5929POPC   C2B14636   1.053   8.061   8.253
 5929POPC   C3B14637   1.011   8.009   7.953
 5929POPC   C4B14638   1.045   8.036   7.653
 5930POPC   NC314639  40.776  19.873   9.453
 5930POPC   PO414640  40.743  19.835   9.153
 5930POPC   GL114641  40.805  19.882   8.853
 5930POPC   GL214642  40.766  19.730   8.853
 5930POPC   C1A14643  40.743  19.818   8.553
 5930POPC   D2A14644  40.785  19.874   8.253
 5930POPC   C3A14645  40.802  19.837   7.953
 5930POPC   C4A14646  40.796  19.814   7.653
 5930POPC   C1B14647  40.631  19.589   8.553
 5930POPC   C2B14648  40.624  19.597   8.253
 5930POPC   C3B14649  40.609  19.631   7.953
 5930POPC   C4B14650  40.660  19.665   7.653
 5931POPC   NC314651   2.784  38.406   9.453
 5931POPC   PO414652   2.731  38.429   9.153
 5931POPC   GL114653   2.731  38.493   8.853
 5931POPC   GL214654   2.896  38.448   8.853
 5931POPC   C1A14655   2.765  38.475   8.553
 5931POPC   D2A14656   2.799  38.415   8.253
 5931POPC   C3A14657   2.731  38.480   7.953
 5931POPC   C4A14658   2.808  38.476   7.653
 5931POPC   C1B14659   2.955  38.359   8.553
 5931POPC   C2B14660   3.048  38.377   8.253
 5931POPC   C3B14661   3.018  38.414   7.953
 5931POPC   C4B14662   3.039  38.341   7.653
 5932POPC   NC314663  34.539  19.855   9.453
 5932POPC   PO414664  34.602  19.841   9.153
 5932POPC   GL114665  34.579  19.858   8.853
 5932POPC   GL214666  34.646  19.676   8.853
 5932POPC   C1A14667  34.595  19.879   8.553
 5932POPC   D2A14668  34.613  19.852   8.253
 5932POPC   C3A14669  34.598  19.801   7.953
 5932POPC   C4A14670  34.549  19.875   7.653
 5932POPC   C1B14671  34.637  19.632   8.553
 5932POPC   C2B14672  34.672  19.630   8.253
 5932POPC   C3B14673  34.729  19.564   7.953
 5932POPC   C4B14674  34.674  19.645   7.653
 5933POPC   NC314675  18.261  21.392   9.453
 5933POPC   PO414676  18.310  21.399   9.153
 5933POPC   GL114677  18.257  21.347   8.853
 5933POPC   GL214678  18.194  21.387   8.853
 5933POPC   C1A14679  18.309  21.429   8.553
 5933POPC   D2A14680  18.287  21.338   8.253
 5933POPC   C3A14681  18.331  21.426   7.953
 5933POPC   C4A14682  18.323  21.345   7.653
 5933POPC   C1B14683  17.993  21.439   8.553
 5933POPC   C2B14684  17.991  21.401   8.253
 5933POPC   C3B14685  18.069  21.450   7.953
 5933POPC   C4B14686  17.992  21.400   7.653
 5934POPC   NC314687  43.887   8.230   9.453
 5934POPC   PO414688  43.852   8.161   9.153
 5934POPC   GL114689  43.871   8.206   8.853
 5934POPC   GL214690  43.982   8.202   8.853
 5934POPC   C1A14691  43.935   8.244   8.553
 5934POPC   D2A14692  43.931   8.215   8.253
 5934POPC   C3A14693  43.909   8.164   7.953
 5934POPC   C4A14694  43.897   8.213   7.653
 5934POPC   C1B14695  44.135   8.137   8.553
 5934POPC   C2B14696  44.159   8.181   8.253
 5934POPC   C3B14697  44.119   8.108   7.953
 5934POPC   C4B14698  44.096   8.097   7.653
 5935POPC   NC314699  28.383  12.844   9.453
 5935POPC   PO414700  28.415  12.823   9.153
 5935POPC   GL114701  28.341  12.811   8.853
 5935POPC   GL214702  28.281  12.757   8.853
 5935POPC   C1A14703  28.369  12.881   8.553
 5935POPC   D2A14704  28.362  12.843   8.253
 5935POPC   C3A14705  28.354  12.890   7.953
 5935POPC   C4A14706  28.340  12.857   7.653
 5935POPC   C1B14707  28.117  12.759   8.553
 5935POPC   C2B14708  28.103  12.736   8.253
 5935POPC   C3B14709  28.145  12.743   7.953
 5935POPC   C4B14710  28.131  12.753   7.653
 5936POPC   NC314711   9.750  11.265   9.453
 5936POPC   PO414712   9.743  11.333   9.153
 5936POPC   GL114713   9.704  11.267   8.853
 5936POPC   GL214714   9.854  11.175   8.853
 5936POPC   C1A14715   9.747  11.266   8.553
 5936POPC   D2A14716   9.771  11.344   8.253
 5936POPC   C3A14717   9.776  11.254   7.953
 5936POPC   C4A14718   9.761  11.326   7.653
 5936POPC   C1B14719   9.932  11.158   8.553
 5936POPC   C2B14720   9.890  11.118   8.253
 5936POPC   C3B14721   9.928  11.091   7.953
 5936POPC   C4B14722   9.929  11.131   7.653
 5937POPC   NC314723  13.623  32.262   9.453
 5937POPC   PO414724  13.587  32.290   9.153
 5937POPC   GL114725  13.625  32.284   8.853
 5937POPC   GL214726  13.599  32.126   8.853
 5937POPC   C1A14727  13.636  32.246   8.553
 5937POPC   D2A14728  13.638  32.280   8.253
 5937POPC   C3A14729  13.582  32.270   7.953
 5937POPC   C4A14730  13.663  32.272   7.653
 5937POPC   C1B14731  13.424  32.077   8.553
 5937POPC   C2B14732  13.518  32.037   8.253
 5937POPC   C3B14733  13.519  32.045   7.953
 5937POPC   C4B14734  13.422  32.062   7.653
 5938POPC   NC314735   8.945  31.443   9.453
 5938POPC   PO414736   8.976  31.427   9.153
 5938POPC   GL114737   8.997  31.472   8.853
 5938POPC   GL214738   9.025  31.397   8.853
 5938POPC   C1A14739   9.016  31.488   8.553
 5938POPC   D2A14740   8.925  31.473   8.253
 5938POPC   C3A14741   8.985  31.465   7.953
 5938POPC   C4A14742   8.976  31.496   7.653
 5938POPC   C1B14743   9.094  31.270   8.553
 5938POPC   C2B14744   9.159  31.251   8.253
 5938POPC   C3B14745   9.172  31.261   7.953
 5938POPC   C4B14746   9.172  31.323   7.653
 5939POPC   NC314747   2.747  19.823   9.453
 5939POPC   PO414748   2.791  19.858   9.153
 5939POPC   GL114749   2.802  19.824   8.853
 5939POPC   GL214750   2.726  19.956   8.853
 5939POPC   C1A14751   2.736  19.822   8.553
 5939POPC   D2A14752   2.742  19.795   8.253
 5939POPC   C3A14753   2.716  19.831   7.953
 5939POPC   C4A14754   2.722  19.850   7.653
 5939POPC   C1B14755   2.697  20.077   8.553
 5939POPC   C2B14756   2.667  20.039   8.253
 5939POPC   C3B14757   2.708  20.068   7.953
 5939POPC   C4B14758   2.711  20.077   7.653
 5940POPC   NC314759  33.012  43.867   9.453
 5940POPC   PO414760  33.024  43.848   9.153
 5940POPC   GL114761  32.975  43.894   8.853
 5940POPC   GL214762  33.054  44.034   8.853
 5940POPC   C1A14763  33.043  43.883   8.553
 5940POPC   D2A14764  33.019  43.887   8.253
 5940POPC   C3A14765  33.059  43.854   7.953
 5940POPC   C4A14766  32.991  43.885   7.653
 5940POPC   C1B14767  33.047  44.142   8.553
 5940POPC   C2B14768  33.016  44.118   8.253
 5940POPC   C3B14769  33.051  44.176   7.953
 5940POPC   C4B14770  33.009  44.179   7.653
 5941POPC   NC314771  19.077  33.062   9.453
 5941POPC   PO414772  19.036  33.054   9.153
 5941POPC   GL114773  19.089  33.029   8.853
 5941POPC   GL214774  19.120  33.106   8.853
 5941POPC   C1A14775  19.087  33.032   8.553
 5941POPC   D2A14776  19.055  33.050   8.253
 5941POPC   C3A14777  19.075  33.003   7.953
 5941POPC   C4A14778  19.038  33.031   7.653
 5941POPC   C1B14779  19.107  33.250   8.553
 5941POPC   C2B14780  19.090  33.239   8.253
 5941POPC   C3B14781  19.039  33.280   7.953
 5941POPC   C4B14782  19.055  33.315   7.653
 5942POPC   NC314783   9.730   6.678   9.453
 5942POPC   PO414784   9.744   6.606   9.153
 5942POPC   GL114785   9.752   6.614   8.853
 5942POPC   GL214786   9.905   6.671   8.853
 5942POPC   C1A14787   9.789   6.686   8.553
 5942POPC   D2A14788   9.747   6.638   8.253
 5942POPC   C3A14789   9.726   6.621   7.953
 5942POPC   C4A14790   9.740   6.596   7.653
 5942POPC   C1B14791  10.017   6.768   8.553
 5942POPC   C2B14792   9.965   6.720   8.253
 5942POPC   C3B14793  10.014   6.729   7.953
 5942POPC   C4B14794   9.960   6.768   7.653
 5943POPC   NC314795  37.655  28.415   9.453
 5943POPC   PO414796  37.686  28.392   9.153
 5943POPC   GL114797  37.689  28.333   8.853
 5943POPC   GL214798  37.585  28.356   8.853
 5943POPC   C1A14799  37.670  28.358   8.553
 5943POPC   D2A14800  37.709  28.360   8.253
 5943POPC   C3A14801  37.664  28.411   7.953
 5943POPC   C4A14802  37.685  28.387   7.653
 5943POPC   C1B14803  37.480  28.267   8.553
 5943POPC   C2B14804  37.489  28.277   8.253
 5943POPC   C3B14805  37.423  28.306   7.953
 5943POPC   C4B14806  37.461  28.308   7.653
 5944POPC   NC314807   5.892  40.747   9.453
 5944POPC   PO414808   5.838  40.809   9.153
 5944POPC   GL114809   5.867  40.765   8.853
 5944POPC   GL214810   5.817  40.929   8.853
 5944POPC   C1A14811   5.844  40.773   8.553
 5944POPC   D2A14812   5.842  40.739   8.253
 5944POPC   C3A14813   5.918  40.813   7.953
 5944POPC   C4A14814   5.823  40.824   7.653
 5944POPC   C1B14815   5.799  41.029   8.553
 5944POPC   C2B14816   5.738  41.057   8.253
 5944POPC   C3B14817   5.718  40.966   7.953
 5944POPC   C4B14818   5.791  41.012   7.653
 5945POPC   NC314819   7.433   5.828   9.453
 5945POPC   PO414820   7.463   5.858   9.153
 5945POPC   GL114821   7.462   5.910   8.853
 5945POPC   GL214822   7.371   5.814   8.853
 5945POPC   C1A14823   7.442   5.908   8.553
 5945POPC   D2A14824   7.391   5.851   8.253
 5945POPC   C3A14825   7.377   5.848   7.953
 5945POPC   C4A14826   7.375   5.898   7.653
 5945POPC   C1B14827   7.235   5.674   8.553
 5945POPC   C2B14828   7.246   5.684   8.253
 5945POPC   C3B14829   7.297   5.642   7.953
 5945POPC   C4B14830   7.262   5.636   7.653
 5946POPC   NC314831   5.077  39.191   9.453
 5946POPC   PO414832   5.077  39.220   9.153
 5946POPC   GL114833   5.081  39.222   8.853
 5946POPC   GL214834   4.990  39.110   8.853
 5946POPC   C1A14835   5.097  39.195   8.553
 5946POPC   D2A14836   5.101  39.233   8.253
 5946POPC   C3A14837   5.102  39.248   7.953
 5946POPC   C4A14838   5.055  39.248   7.653
 5946POPC   C1B14839   4.932  39.016   8.553
 5946POPC   C2B14840   4.959  38.989   8.253
 5946POPC   C3B14841   5.007  39.041   7.953
 5946POPC   C4B14842   4.996  39.046   7.653
 5947POPC   NC314843  13.619  37.700   9.453
 5947POPC   PO414844  13.591  37.655   9.153
 5947POPC   GL114845  13.581  37.653   8.853
 5947POPC   GL214846  13.539  37.605   8.853
 5947POPC   C1A14847  13.667  37.721   8.553
 5947POPC   D2A14848  13.601  37.636   8.253
 5947POPC   C3A14849  13.608  37.654   7.953
 5947POPC   C4A14850  13.668  37.701   7.653
 5947POPC   C1B14851  13.375  37.566   8.553
 5947POPC   C2B14852  13.391  37.538   8.253
 5947POPC   C3B14853  13.402  37.615   7.953
 5947POPC   C4B14854  13.396  37.557   7.653
 5948POPC   NC314855   9.793  34.622   9.453
 5948POPC   PO414856   9.703  34.534   9.153
 5948POPC   GL114857   9.732  34.581   8.853
 5948POPC   GL214858   9.781  34.404   8.853
 5948POPC   C1A14859   9.719  34.616   8.553
 5948POPC   D2A14860   9.708  34.575   8.253
 5948POPC   C3A14861   9.794  34.553   7.953
 5948POPC   C4A14862   9.728  34.594   7.653
 5948POPC   C1B14863   9.792  34.355   8.553
 5948POPC   C2B14864   9.771  34.341   8.253
 5948POPC   C3B14865   9.782  34.361   7.953
 5948POPC   C4B14866   9.738  34.279   7.653
 5949POPC   NC314867  30.716  32.246   9.453
 5949POPC   PO414868  30.654  32.281   9.153
 5949POPC   GL114869  30.674  32.288   8.853
 5949POPC   GL214870  30.652  32.337   8.853
 5949POPC   C1A14871  30.666  32.207   8.553
 5949POPC   D2A14872  30.663  32.256   8.253
 5949POPC   C3A14873  30.688  32.287   7.953
 5949POPC   C4A14874  30.676  32.280   7.653
 5949POPC   C1B14875  30.575  32.399   8.553
 5949POPC   C2B14876  30.570  32.422   8.253
 5949POPC   C3B14877  30.537  32.425   7.953
 5949POPC   C4B14878  30.545  32.482   7.653
 5950POPC   NC314879   4.356  28.320   9.453
 5950POPC   PO414880   4.348  28.412   9.153
 5950POPC   GL114881   4.334  28.389   8.853
 5950POPC   GL214882   4.400  28.306   8.853
 5950POPC   C1A14883   4.282  28.330   8.553
 5950POPC   D2A14884   4.322  28.373   8.253
 5950POPC   C3A14885   4.291  28.352   7.953
 5950POPC   C4A14886   4.353  28.375   7.653
 5950POPC   C1B14887   4.556  28.235   8.553
 5950POPC   C2B14888   4.477  28.199   8.253
 5950POPC   C3B14889   4.474  28.244   7.953
 5950POPC   C4B14890   4.544  28.175   7.653
 5951POPC   NC314891  34.544   1.248   9.453
 5951POPC   PO414892  34.618   1.192   9.153
 5951POPC   GL114893  34.581   1.196   8.853
 5951POPC   GL214894  34.430   1.153   8.853
 5951POPC   C1A14895  34.554   1.253   8.553
 5951POPC   D2A14896  34.614   1.228   8.253
 5951POPC   C3A14897  34.602   1.211   7.953
 5951POPC   C4A14898  34.576   1.168   7.653
 5951POPC   C1B14899  34.375   1.114   8.553
 5951POPC   C2B14900  34.348   1.175   8.253
 5951POPC   C3B14901  34.375   1.139   7.953
 5951POPC   C4B14902  34.359   1.165   7.653
 5952POPC   NC314903   5.143  11.335   9.453
 5952POPC   PO414904   5.050  11.341   9.153
 5952POPC   GL114905   5.098  11.291   8.853
 5952POPC   GL214906   5.033  11.413   8.853
 5952POPC   C1A14907   5.088  11.281   8.553
 5952POPC   D2A14908   5.070  11.274   8.253
 5952POPC   C3A14909   5.049  11.288   7.953
 5952POPC   C4A14910   5.095  11.337   7.653
 5952POPC   C1B14911   4.954  11.511   8.553
 5952POPC   C2B14912   4.922  11.474   8.253
 5952POPC   C3B14913   4.921  11.497   7.953
 5952POPC   C4B14914   4.978  11.539   7.653
 5953POPC   NC314915   9.705  36.117   9.453
 5953POPC   PO414916   9.766  36.098   9.153
 5953POPC   GL114917   9.764  36.078   8.853
 5953POPC   GL214918   9.585  36.142   8.853
 5953POPC   C1A14919   9.701  36.129   8.553
 5953POPC   D2A14920   9.755  36.094   8.253
 5953POPC   C3A14921   9.759  36.167   7.953
 5953POPC   C4A14922   9.753  36.101   7.653
 5953POPC   C1B14923   9.543  36.086   8.553
 5953POPC   C2B14924   9.457  36.060   8.253
 5953POPC   C3B14925   9.511  36.081   7.953
 5953POPC   C4B14926   9.472  36.020   7.653
 5954POPC   NC314927  16.759   6.657   9.453
 5954POPC   PO414928  16.692   6.673   9.153
 5954POPC   GL114929  16.687   6.647   8.853
 5954POPC   GL214930  16.746   6.727   8.853
 5954POPC   C1A14931  16.746   6.624   8.553
 5954POPC   D2A14932  16.691   6.666   8.253
 5954POPC   C3A14933  16.687   6.649   7.953
 5954POPC   C4A14934  16.734   6.663   7.653
 5954POPC   C1B14935  16.630   6.865   8.553
 5954POPC   C2B14936  16.650   6.866   8.253
 5954POPC   C3B14937  16.632   6.858   7.953
 5954POPC   C4B14938  16.716   6.910   7.653
 5955POPC   NC314939  24.453  12.811   9.453
 5955POPC   PO414940  24.447  12.861   9.153
 5955POPC   GL114941  24.465  12.844   8.853
 5955POPC   GL214942  24.518  12.727   8.853
 5955POPC   C1A14943  24.491  12.879   8.553
 5955POPC   D2A14944  24.470  12.845   8.253
 5955POPC   C3A14945  24.473  12.860   7.953
 5955POPC   C4A14946  24.459  12.857   7.653
 5955POPC   C1B14947  24.442  12.622   8.553
 5955POPC   C2B14948  24.521  12.576   8.253
 5955POPC   C3B14949  24.505  12.632   7.953
 5955POPC   C4B14950  24.509  12.624   7.653
 5956POPC   NC314951  30.713  16.691   9.453
 5956POPC   PO414952  30.730  16.744   9.153
 5956POPC   GL114953  30.674  16.764   8.853
 5956POPC   GL214954  30.604  16.677   8.853
 5956POPC   C1A14955  30.685  16.695   8.553
 5956POPC   D2A14956  30.648  16.756   8.253
 5956POPC   C3A14957  30.667  16.698   7.953
 5956POPC   C4A14958  30.670  16.760   7.653
 5956POPC   C1B14959  30.495  16.698   8.553
 5956POPC   C2B14960  30.461  16.680   8.253
 5956POPC   C3B14961  30.433  16.627   7.953
 5956POPC   C4B14962  30.454  16.700   7.653
 5957POPC   NC314963  24.487  22.895   9.453
 5957POPC   PO414964  24.441  22.909   9.153
 5957POPC   GL114965  24.505  22.966   8.853
 5957POPC   GL214966  24.603  23.059   8.853
 5957POPC   C1A14967  24.506  22.915   8.553
 5957POPC   D2A14968  24.538  22.932   8.253
 5957POPC   C3A14969  24.514  22.930   7.953
 5957POPC   C4A14970  24.469  22.902   7.653
 5957POPC   C1B14971  24.618  23.069   8.553
 5957POPC   C2B14972  24.623  23.148   8.253
 5957POPC   C3B14973  24.696  23.128   7.953
 5957POPC   C4B14974  24.703  23.075   7.653
 5958POPC   NC314975  14.409   8.937   9.453
 5958POPC   PO414976  14.377   9.011   9.153
 5958POPC   GL114977  14.373   9.013   8.853
 5958POPC   GL214978  14.316   9.039   8.853
 5958POPC   C1A14979  14.450   8.947   8.553
 5958POPC   D2A14980  14.356   9.013   8.253
 5958POPC   C3A14981  14.443   8.979   7.953
 5958POPC   C4A14982  14.432   8.988   7.653
 5958POPC   C1B14983  14.313   9.190   8.553
 5958POPC   C2B14984  14.291   9.245   8.253
 5958POPC   C3B14985  14.318   9.222   7.953
 5958POPC   C4B14986  14.340   9.238   7.653
 5959POPC   NC314987  41.520  17.539   9.453
 5959POPC   PO414988  41.575  17.495   9.153
 5959POPC   GL114989  41.518  17.459   8.853
 5959POPC   GL214990  41.663  17.453   8.853
 5959POPC   C1A14991  41.517  17.551   8.553
 5959POPC   D2A14992  41.540  17.553   8.253
 5959POPC   C3A14993  41.551  17.465   7.953
 5959POPC   C4A14994  41.517  17.478   7.653
 5959POPC   C1B14995  41.826  17.470   8.553
 5959POPC   C2B14996  41.791  17.474   8.253
 5959POPC   C3B14997  41.760  17.410   7.953
 5959POPC   C4B14998  41.796  17.479   7.653
 5960POPC   NC314999  40.041  17.502   9.453
 5960POPC   PO415000  40.038  17.464   9.153
 5960POPC   GL115001  40.049  17.534   8.853
 5960POPC   GL215002  39.908  17.570   8.853
 5960POPC   C1A15003  39.997  17.505   8.553
 5960POPC   D2A15004  40.001  17.475   8.253
 5960POPC   C3A15005  39.989  17.465   7.953
 5960POPC   C4A15006  40.033  17.503   7.653
 5960POPC   C1B15007  39.854  17.752   8.553
 5960POPC   C2B15008  39.894  17.744   8.253
 5960POPC   C3B15009  39.894  17.727   7.953
 5960POPC   C4B15010  39.882  17.732   7.653
 5961POPC   NC315011  30.703  12.895   9.453
 5961POPC   PO415012  30.725  12.855   9.153
 5961POPC   GL115013  30.720  12.853   8.853
 5961POPC   GL215014  30.629  12.756   8.853
 5961POPC   C1A15015  30.731  12.823   8.553
 5961POPC   D2A15016  30.728  12.808   8.253
 5961POPC   C3A15017  30.718  12.814   7.953
 5961POPC   C4A15018  30.690  12.858   7.653
 5961POPC   C1B15019  30.475  12.783   8.553
 5961POPC   C2B15020  30.515  12.778   8.253
 5961POPC   C3B15021  30.449  12.747   7.953
 5961POPC   C4B15022  30.505  12.737   7.653
 5962POPC   NC315023  29.120  39.237   9.453
 5962POPC   PO415024  29.107  39.196   9.153
 5962POPC   GL115025  29.098  39.254   8.853
 5962POPC   GL215026  29.049  39.346   8.853
 5962POPC   C1A15027  29.154  39.206   8.553
 5962POPC   D2A15028  29.134  39.272   8.253
 5962POPC   C3A15029  29.137  39.201   7.953
 5962POPC   C4A15030  29.134  39.270   7.653
 5962POPC   C1B15031  29.001  39.485   8.553
 5962POPC   C2B15032  28.996  39.424   8.253
 5962POPC   C3B15033  29.042  39.461   7.953
 5962POPC   C4B15034  29.055  39.448   7.653
 5963POPC   NC315035  25.247  40.784   9.453
 5963POPC   PO415036  25.292  40.733   9.153
 5963POPC   GL115037  25.219  40.733   8.853
 5963POPC   GL215038  25.330  40.744   8.853
 5963POPC   C1A15039  25.230  40.754   8.553
 5963POPC   D2A15040  25.311  40.749   8.253
 5963POPC   C3A15041  25.269  40.734   7.953
 5963POPC   C4A15042  25.290  40.779   7.653
 5963POPC   C1B15043  25.410  40.652   8.553
 5963POPC   C2B15044  25.404  40.603   8.253
 5963POPC   C3B15045  25.453  40.638   7.953
 5963POPC   C4B15046  25.425  40.650   7.653
 5964POPC   NC315047  29.887  43.147   9.453
 5964POPC   PO415048  29.906  43.082   9.153
 5964POPC   GL115049  29.960  43.105   8.853
 5964POPC   GL215050  30.020  43.088   8.853
 5964POPC   C1A15051  29.964  43.115   8.553
 5964POPC   D2A15052  29.962  43.114   8.253
 5964POPC   C3A15053  29.936  43.111   7.953
 5964POPC   C4A15054  29.904  43.145   7.653
 5964POPC   C1B15055  30.195  43.120   8.553
 5964POPC   C2B15056  30.140  43.145   8.253
 5964POPC   C3B15057  30.182  43.166   7.953
 5964POPC   C4B15058  30.135  43.166   7.653
 5965POPC   NC315059  39.255  35.352   9.453
 5965POPC   PO415060  39.273  35.351   9.153
 5965POPC   GL115061  39.221  35.369   8.853
 5965POPC   GL215062  39.163  35.425   8.853
 5965POPC   C1A15063  39.219  35.309   8.553
 5965POPC   D2A15064  39.238  35.340   8.253
 5965POPC   C3A15065  39.186  35.374   7.953
 5965POPC   C4A15066  39.196  35.362   7.653
 5965POPC   C1B15067  39.082  35.486   8.553
 5965POPC   C2B15068  39.009  35.539   8.253
 5965POPC   C3B15069  39.046  35.567   7.953
 5965POPC   C4B15070  39.099  35.532   7.653
 5966POPC   NC315071  42.288  22.147   9.453
 5966POPC   PO415072  42.288  22.177   9.153
 5966POPC   GL115073  42.320  22.207   8.853
 5966POPC   GL215074  42.299  22.022   8.853
 5966POPC   C1A15075  42.317  22.204   8.553
 5966POPC   D2A15076  42.333  22.192   8.253
 5966POPC   C3A15077  42.370  22.181   7.953
 5966POPC   C4A15078  42.328  22.123   7.653
 5966POPC   C1B15079  42.300  21.871   8.553
 5966POPC   C2B15080  42.271  21.879   8.253
 5966POPC   C3B15081  42.254  21.905   7.953
 5966POPC   C4B15082  42.250  21.872   7.653
 5967POPC   NC315083   8.167  43.111   9.453
 5967POPC   PO415084   8.226  43.107   9.153
 5967POPC   GL115085   8.147  43.095   8.853
 5967POPC   GL215086   8.307  43.054   8.853
 5967POPC   C1A15087   8.237  43.077   8.553
 5967POPC   D2A15088   8.186  43.072   8.253
 5967POPC   C3A15089   8.195  43.100   7.953
 5967POPC   C4A15090   8.235  43.076   7.653
 5967POPC   C1B15091   8.355  42.929   8.553
 5967POPC   C2B15092   8.343  42.906   8.253
 5967POPC   C3B15093   8.334  42.907   7.953
 5967POPC   C4B15094   8.398  42.955   7.653
 5968POPC   NC315095  38.429  43.132   9.453
 5968POPC   PO415096  38.432  43.117   9.153
 5968POPC   GL115097  38.472  43.125   8.853
 5968POPC   GL215098  38.487  42.984   8.853
 5968POPC   C1A15099  38.494  43.087   8.553
 5968POPC   D2A15100  38.474  43.079   8.253
 5968POPC   C3A15101  38.481  43.151   7.953
 5968POPC   C4A15102  38.410  43.104   7.653
 5968POPC   C1B15103  38.613  42.860   8.553
 5968POPC   C2B15104  38.609  42.931   8.253
 5968POPC   C3B15105  38.556  42.888   7.953
 5968POPC   C4B15106  38.536  42.902   7.653
 5969POPC   NC315107   7.440   7.401   9.453
 5969POPC   PO415108   7.454   7.384   9.153
 5969POPC   GL115109   7.408   7.411   8.853
 5969POPC   GL215110   7.497   7.294   8.853
 5969POPC   C1A15111   7.453   7.379   8.553
 5969POPC   D2A15112   7.415   7.433   8.253
 5969POPC   C3A15113   7.431   7.403   7.953
 5969POPC   C4A15114   7.399   7.399   7.653
 5969POPC   C1B15115   7.505   7.178   8.553
 5969POPC   C2B15116   7.552   7.172   8.253
 5969POPC   C3B15117   7.552   7.210   7.953
 5969POPC   C4B15118   7.523   7.188   7.653
 5970POPC   NC315119  37.662  25.235   9.453
 5970POPC   PO415120  37.706  25.287   9.153
 5970POPC   GL115121  37.632  25.299   8.853
 5970POPC   GL215122  37.839  25.308   8.853
 5970POPC   C1A15123  37.696  25.245   8.553
 5970POPC   D2A15124  37.714  25.300   8.253
 5970POPC   C3A15125  37.652  25.222   7.953
 5970POPC   C4A15126  37.650  25.256   7.653
 5970POPC   C1B15127  37.941  25.324   8.553
 5970POPC   C2B15128  37.933  25.352   8.253
 5970POPC   C3B15129  37.935  25.327   7.953
 5970POPC   C4B15130  37.879  25.366   7.653
 5971POPC   NC315131  29.103  40.001   9.453
 5971POPC   PO415132  29.115  39.978   9.153
 5971POPC   GL115133  29.157  40.029   8.853
 5971POPC   GL215134  29.032  39.968   8.853
 5971POPC   C1A15135  29.146  40.003   8.553
 5971POPC   D2A15136  29.108  39.977   8.253
 5971POPC   C3A15137  29.115  40.037   7.953
 5971POPC   C4A15138  29.149  39.982   7.653
 5971POPC   C1B15139  28.870  40.013   8.553
 5971POPC   C2B15140  28.919  40.002   8.253
 5971POPC   C3B15141  28.888  39.980   7.953
 5971POPC   C4B15142  28.857  40.036   7.653
 5972POPC   NC315143  15.975  30.735   9.453
 5972POPC   PO415144  15.948  30.663   9.153
 5972POPC   GL115145  15.987  30.677   8.853
 5972POPC   GL215146  16.077  30.585   8.853
 5972POPC   C1A15147  15.923  30.734   8.553
 5972POPC   D2A15148  15.972  30.667   8.253
 5972POPC   C3A15149  15.980  30.699   7.953
 5972POPC   C4A15150  15.976  30.706   7.653
 5972POPC   C1B15151  16.053  30.495   8.553
 5972POPC   C2B15152  16.147  30.529   8.253
 5972POPC   C3B15153  16.054  30.538   7.953
 5972POPC   C4B15154  16.095  30.542   7.653
 5973POPC   NC315155  30.716  42.290   9.453
 5973POPC   PO415156  30.692  42.307   9.153
 5973POPC   GL115157  30.728  42.291   8.853
 5973POPC   GL215158  30.797  42.432   8.853
 5973POPC   C1A15159  30.679  42.351   8.553
 5973POPC   D2A15160  30.724  42.362   8.253
 5973POPC   C3A15161  30.660  42.301   7.953
 5973POPC   C4A15162  30.704  42.335   7.653
 5973POPC   C1B15163  30.917  42.558   8.553
 5973POPC   C2B15164  30.887  42.522   8.253
 5973POPC   C3B15165  30.864  42.547   7.953
 5973POPC   C4B15166  30.847  42.512   7.653
 5974POPC   NC315167  21.357  10.567   9.453
 5974POPC   PO415168  21.416  10.531   9.153
 5974POPC   GL115169  21.342  10.559   8.853
 5974POPC   GL215170  21.355  10.654   8.853
 5974POPC   C1A15171  21.359  10.566   8.553
 5974POPC   D2A15172  21.358  10.536   8.253
 5974POPC   C3A15173  21.428  10.527   7.953
 5974POPC   C4A15174  21.356  10.565   7.653
 5974POPC   C1B15175  21.249  10.791   8.553
 5974POPC   C2B15176  21.301  10.777   8.253
 5974POPC   C3B15177  21.273  10.774   7.953
 5974POPC   C4B15178  21.237  10.714   7.653
 5975POPC   NC315179  44.631  15.914   9.453
 5975POPC   PO415180  44.706  15.976   9.153
 5975POPC   GL115181  44.671  16.003   8.853
 5975POPC   GL215182  44.545  15.839   8.853
 5975POPC   C1A15183  44.676  16.001   8.553
 5975POPC   D2A15184  44.654  15.916   8.253
 5975POPC   C3A15185  44.701  15.927   7.953
 5975POPC   C4A15186  44.707  15.967   7.653
 5975POPC   C1B15187  44.424  15.821   8.553
 5975POPC   C2B15188  44.509  15.774   8.253
 5975POPC   C3B15189  44.447  15.812   7.953
 5975POPC   C4B15190  44.505  15.825   7.653
 5976POPC   NC315191  43.156   3.544   9.453
 5976POPC   PO415192  43.092   3.509   9.153
 5976POPC   GL115193  43.125   3.522   8.853
 5976POPC   GL215194  43.118   3.427   8.853
 5976POPC   C1A15195  43.105   3.565   8.553
 5976POPC   D2A15196  43.120   3.535   8.253
 5976POPC   C3A15197  43.073   3.503   7.953
 5976POPC   C4A15198  43.139   3.559   7.653
 5976POPC   C1B15199  43.040   3.339   8.553
 5976POPC   C2B15200  43.015   3.332   8.253
 5976POPC   C3B15201  43.058   3.284   7.953
 5976POPC   C4B15202  43.056   3.324   7.653
 5977POPC   NC315203  30.663  27.564   9.453
 5977POPC   PO415204  30.704  27.599   9.153
 5977POPC   GL115205  30.734  27.625   8.853
 5977POPC   GL215206  30.776  27.659   8.853
 5977POPC   C1A15207  30.739  27.564   8.553
 5977POPC   D2A15208  30.736  27.610   8.253
 5977POPC   C3A15209  30.660  27.614   7.953
 5977POPC   C4A15210  30.708  27.561   7.653
 5977POPC   C1B15211  30.957  27.655   8.553
 5977POPC   C2B15212  30.984  27.617   8.253
 5977POPC   C3B15213  30.890  27.648   7.953
 5977POPC   C4B15214  30.926  27.659   7.653
 5978POPC   NC315215  40.029  34.555   9.453
 5978POPC   PO415216  40.033  34.541   9.153
 5978POPC   GL115217  40.009  34.585   8.853
 5978POPC   GL215218  40.032  34.706   8.853
 5978POPC   C1A15219  40.045  34.543   8.553
 5978POPC   D2A15220  39.965  34.545   8.253
 5978POPC   C3A15221  40.044  34.539   7.953
 5978POPC   C4A15222  40.036  34.599   7.653
 5978POPC   C1B15223  39.975  34.839   8.553
 5978POPC   C2B15224  40.001  34.816   8.253
 5978POPC   C3B15225  39.987  34.789   7.953
 5978POPC   C4B15226  39.946  34.796   7.653
 5979POPC   NC315227  27.605  29.187   9.453
 5979POPC   PO415228  27.592  29.119   9.153
 5979POPC   GL115229  27.555  29.110   8.853
 5979POPC   GL215230  27.692  29.127   8.853
 5979POPC   C1A15231  27.585  29.175   8.553
 5979POPC   D2A15232  27.607  29.183   8.253
 5979POPC   C3A15233  27.614  29.175   7.953
 5979POPC   C4A15234  27.616  29.145   7.653
 5979POPC   C1B15235  27.813  29.112   8.553
 5979POPC   C2B15236  27.860  29.157   8.253
 5979POPC   C3B15237  27.841  29.193   7.953
 5979POPC   C4B15238  27.886  29.182   7.653
 5980POPC   NC315239   4.321  13.597   9.453
 5980POPC   PO415240   4.277  13.645   9.153
 5980POPC   GL115241   4.335  13.669   8.853
 5980POPC   GL215242   4.311  13.705   8.853
 5980POPC   C1A15243   4.294  13.603   8.553
 5980POPC   D2A15244   4.295  13.675   8.253
 5980POPC   C3A15245   4.350  13.659   7.953
 5980POPC   C4A15246   4.271  13.660   7.653
 5980POPC   C1B15247   4.338  13.907   8.553
 5980POPC   C2B15248   4.323  13.915   8.253
 5980POPC   C3B15249   4.311  13.833   7.953
 5980POPC   C4B15250   4.272  13.866   7.653
 5981POPC   NC315251   5.824  24.452   9.453
 5981POPC   PO415252   5.901  24.504   9.153
 5981POPC   GL115253   5.897  24.493   8.853
 5981POPC   GL215254   5.803  24.361   8.853
 5981POPC   C1A15255   5.838  24.483   8.553
 5981POPC   D2A15256   5.831  24.460   8.253
 5981POPC   C3A15257   5.895  24.479   7.953
 5981POPC   C4A15258   5.865  24.455   7.653
 5981POPC   C1B15259   5.766  24.227   8.553
 5981POPC   C2B15260   5.761  24.257   8.253
 5981POPC   C3B15261   5.812  24.246   7.953
 5981POPC   C4B15262   5.811  24.299   7.653
 5982POPC   NC315263   6.646  31.508   9.453
 5982POPC   PO415264   6.632  31.439   9.153
 5982POPC   GL115265   6.649  31.445   8.853
 5982POPC   GL215266   6.657  31.547   8.853
 5982POPC   C1A15267   6.654  31.488   8.553
 5982POPC   D2A15268   6.620  31.490   8.253
 5982POPC   C3A15269   6.628  31.468   7.953
 5982POPC   C4A15270   6.679  31.461   7.653
 5982POPC   C1B15271   6.684  31.664   8.553
 5982POPC   C2B15272   6.720  31.703   8.253
 5982POPC   C3B15273   6.780  31.684   7.953
 5982POPC   C4B15274   6.699  31.675   7.653
 5983POPC   NC315275  11.282  16.704   9.453
 5983POPC   PO415276  11.291  16.758   9.153
 5983POPC   GL115277  11.321  16.746   8.853
 5983POPC   GL215278  11.224  16.723   8.853
 5983POPC   C1A15279  11.332  16.764   8.553
 5983POPC   D2A15280  11.271  16.701   8.253
 5983POPC   C3A15281  11.281  16.777   7.953
 5983POPC   C4A15282  11.300  16.751   7.653
 5983POPC   C1B15283  11.039  16.714   8.553
 5983POPC   C2B15284  11.086  16.715   8.253
 5983POPC   C3B15285  11.021  16.717   7.953
 5983POPC   C4B15286  11.004  16.687   7.653
 5984POPC   NC315287  22.182  25.315   9.453
 5984POPC   PO415288  22.194  25.265   9.153
 5984POPC   GL115289  22.141  25.288   8.853
 5984POPC   GL215290  22.098  25.163   8.853
 5984POPC   C1A15291  22.143  25.297   8.553
 5984POPC   D2A15292  22.160  25.312   8.253
 5984POPC   C3A15293  22.205  25.216   7.953
 5984POPC   C4A15294  22.118  25.306   7.653
 5984POPC   C1B15295  22.085  25.052   8.553
 5984POPC   C2B15296  22.024  25.025   8.253
 5984POPC   C3B15297  22.049  25.012   7.953
 5984POPC   C4B15298  22.061  25.095   7.653
 5985POPC   NC315299  32.288  40.754   9.453
 5985POPC   PO415300  32.248  40.769   9.153
 5985POPC   GL115301  32.208  40.771   8.853
 5985POPC   GL215302  32.212  40.867   8.853
 5985POPC   C1A15303  32.208  40.832   8.553
 5985POPC   D2A15304  32.288  40.780   8.253
 5985POPC   C3A15305  32.249  40.756   7.953
 5985POPC   C4A15306  32.277  40.765   7.653
 5985POPC   C1B15307  32.093  41.018   8.553
 5985POPC   C2B15308  32.103  41.003   8.253
 5985POPC   C3B15309  32.137  41.003   7.953
 5985POPC   C4B15310  32.172  41.011   7.653
 5986POPC   NC315311  16.685  19.057   9.453
 5986POPC   PO415312  16.774  19.090   9.153
 5986POPC   GL115313  16.727  19.103   8.853
 5986POPC   GL215314  16.608  19.149   8.853
 5986POPC   C1A15315  16.741  19.065   8.553
 5986POPC   D2A15316  16.759  19.023   8.253
 5986POPC   C3A15317  16.723  19.041   7.953
 5986POPC   C4A15318  16.726  19.018   7.653
 5986POPC   C1B15319  16.511  19.136   8.553
 5986POPC   C2B15320  16.519  19.138   8.253
 5986POPC   C3B15321  16.496  19.142   7.953
 5986POPC   C4B15322  16.540  19.165   7.653
 5987POPC   NC315323  40.767  32.233   9.453
 5987POPC   PO415324  40.757  32.248   9.153
 5987POPC   GL115325  40.755  32.273   8.853
 5987POPC   GL215326  40.861  32.096   8.853
 5987POPC   C1A15327  40.778  32.253   8.553
 5987POPC   D2A15328  40.785  32.240   8.253
 5987POPC   C3A15329  40.752  32.234   7.953
 5987POPC   C4A15330  40.790  32.243   7.653
 5987POPC   C1B15331  40.884  32.014   8.553
 5987POPC   C2B15332  40.860  32.009   8.253
 5987POPC   C3B15333  40.851  32.003   7.953
 5987POPC   C4B15334  40.824  32.013   7.653
 5988POPC   NC315335   5.838   5.136   9.453
 5988POPC   PO415336   5.866   5.051   9.153
 5988POPC   GL115337   5.842   5.102   8.853
 5988POPC   GL215338   5.992   5.152   8.853
 5988POPC   C1A15339   5.898   5.141   8.553
 5988POPC   D2A15340   5.898   5.083   8.253
 5988POPC   C3A15341   5.840   5.082   7.953
 5988POPC   C4A15342   5.862   5.086   7.653
 5988POPC   C1B15343   6.057   5.299   8.553
 5988POPC   C2B15344   6.041   5.306   8.253
 5988POPC   C3B15345   5.994   5.316   7.953
 5988POPC   C4B15346   6.044   5.263   7.653
 5989POPC   NC315347  33.003  37.689   9.453
 5989POPC   PO415348  32.979  37.722   9.153
 5989POPC   GL115349  32.990  37.668   8.853
 5989POPC   GL215350  32.934  37.631   8.853
 5989POPC   C1A15351  33.051  37.723   8.553
 5989POPC   D2A15352  32.978  37.670   8.253
 5989POPC   C3A15353  32.976  37.704   7.953
 5989POPC   C4A15354  33.024  37.649   7.653
 5989POPC   C1B15355  32.763  37.583   8.553
 5989POPC   C2B15356  32.791  37.616   8.253
 5989POPC   C3B15357  32.771  37.635   7.953
 5989POPC   C4B15358  32.778  37.568   7.653
 5990POPC   NC315359  29.131  31.504   9.453
 5990POPC   PO415360  29.159  31.493   9.153
 5990POPC   GL115361  29.159  31.436   8.853
 5990POPC   GL215362  29.256  31.464   8.853
 5990POPC   C1A15363  29.146  31.494   8.553
 5990POPC   D2A15364  29.161  31.427   8.253
 5990POPC   C3A15365  29.177  31.441   7.953
 5990POPC   C4A15366  29.133  31.518   7.653
 5990POPC   C1B15367  29.383  31.505   8.553
 5990POPC   C2B15368  29.390  31.549   8.253
 5990POPC   C3B15369  29.384  31.526   7.953
 5990POPC   C4B15370  29.357  31.560   7.653
 5991POPC   NC315371  11.301  19.049   9.453
 5991POPC   PO415372  11.268  19.044   9.153
 5991POPC   GL115373  11.322  19.033   8.853
 5991POPC   GL215374  11.179  19.062   8.853
 5991POPC   C1A15375  11.272  19.051   8.553
 5991POPC   D2A15376  11.321  19.076   8.253
 5991POPC   C3A15377  11.263  19.070   7.953
 5991POPC   C4A15378  11.347  19.088   7.653
 5991POPC   C1B15379  11.030  19.046   8.553
 5991POPC   C2B15380  11.018  19.026   8.253
 5991POPC   C3B15381  11.072  19.043   7.953
 5991POPC   C4B15382  11.062  19.063   7.653
 5992POPC   NC315383  13.642  14.405   9.453
 5992POPC   PO415384  13.608  14.447   9.153
 5992POPC   GL115385  13.602  14.440   8.853
 5992POPC   GL215386  13.590  14.302   8.853
 5992POPC   C1A15387  13.640  14.396   8.553
 5992POPC   D2A15388  13.641  14.418   8.253
 5992POPC   C3A15389  13.621  14.360   7.953
 5992POPC   C4A15390  13.620  14.371   7.653
 5992POPC   C1B15391  13.532  14.204   8.553
 5992POPC   C2B15392  13.624  14.128   8.253
 5992POPC   C3B15393  13.567  14.142   7.953
 5992POPC   C4B15394  13.542  14.165   7.653
 5993POPC   NC315395  14.418  44.637   9.453
 5993POPC   PO415396  14.393  44.638   9.153
 5993POPC   GL115397  14.401  44.616   8.853
 5993POPC   GL215398  14.336  44.822   8.853
 5993POPC   C1A15399  14.359  44.707   8.553
 5993POPC   D2A15400  14.437  44.696   8.253
 5993POPC   C3A15401  14.450  44.616   7.953
 5993POPC   C4A15402  14.368  44.696   7.653
 5993POPC   C1B15403  14.383  44.924   8.553
 5993POPC   C2B15404  14.391  44.885   8.253
 5993POPC   C3B15405  14.354  44.944   7.953
 5993POPC   C4B15406  14.332  44.914   7.653
 5994POPC   NC315407  10.550  15.156   9.453
 5994POPC   PO415408  10.572  15.169   9.153
 5994POPC   GL115409  10.538  15.172   8.853
 5994POPC   GL215410  10.671  15.161   8.853
 5994POPC   C1A15411  10.503  15.157   8.553
 5994POPC   D2A15412  10.520  15.194   8.253
 5994POPC   C3A15413  10.503  15.215   7.953
 5994POPC   C4A15414  10.546  15.171   7.653
 5994POPC   C1B15415  10.814  15.175   8.553
 5994POPC   C2B15416  10.809  15.172   8.253
 5994POPC   C3B15417  10.817  15.201   7.953
 5994POPC   C4B15418  10.762  15.240   7.653
 5995POPC   NC315419  36.139   2.027   9.453
 5995POPC   PO415420  36.177   2.000   9.153
 5995POPC   GL115421  36.097   2.024   8.853
 5995POPC   GL215422  36.135   1.832   8.853
 5995POPC   C1A15423  36.106   1.979   8.553
 5995POPC   D2A15424  36.080   2.006   8.253
 5995POPC   C3A15425  36.132   1.958   7.953
 5995POPC   C4A15426  36.145   1.981   7.653
 5995POPC   C1B15427  36.246   1.802   8.553
 5995POPC   C2B15428  36.216   1.802   8.253
 5995POPC   C3B15429  36.198   1.806   7.953
 5995POPC   C4B15430  36.280   1.770   7.653
 5996POPC   NC315431  33.760   8.187   9.453
 5996POPC   PO415432  33.790   8.170   9.153
 5996POPC   GL115433  33.789   8.210   8.853
 5996POPC   GL215434  33.723   8.279   8.853
 5996POPC   C1A15435  33.794   8.221   8.553
 5996POPC   D2A15436  33.769   8.224   8.253
 5996POPC   C3A15437  33.790   8.159   7.953
 5996POPC   C4A15438  33.791   8.169   7.653
 5996POPC   C1B15439  33.614   8.282   8.553
 5996POPC   C2B15440  33.529   8.300   8.253
 5996POPC   C3B15441  33.574   8.271   7.953
 5996POPC   C4B15442  33.562   8.308   7.653
 5997POPC   NC315443  36.104  26.817   9.453
 5997POPC   PO415444  36.172  26.781   9.153
 5997POPC   GL115445  36.120  26.814   8.853
 5997POPC   GL215446  35.991  26.867   8.853
 5997POPC   C1A15447  36.154  26.832   8.553
 5997POPC   D2A15448  36.161  26.831   8.253
 5997POPC   C3A15449  36.161  26.846   7.953
 5997POPC   C4A15450  36.169  26.814   7.653
 5997POPC   C1B15451  35.901  26.853   8.553
 5997POPC   C2B15452  35.880  26.824   8.253
 5997POPC   C3B15453  35.846  26.876   7.953
 5997POPC   C4B15454  35.900  26.891   7.653
 5998POPC   NC315455  15.189  36.871   9.453
 5998POPC   PO415456  15.212  36.947   9.153
 5998POPC   GL115457  15.166  36.865   8.853
 5998POPC   GL215458  15.144  36.984   8.853
 5998POPC   C1A15459  15.171  36.920   8.553
 5998POPC   D2A15460  15.182  36.874   8.253
 5998POPC   C3A15461  15.192  36.894   7.953
 5998POPC   C4A15462  15.140  36.864   7.653
 5998POPC   C1B15463  15.095  37.138   8.553
 5998POPC   C2B15464  15.072  37.125   8.253
 5998POPC   C3B15465  15.165  37.146   7.953
 5998POPC   C4B15466  15.123  37.169   7.653
 5999POPC   NC315467  26.836  14.373   9.453
 5999POPC   PO415468  26.802  14.399   9.153
 5999POPC   GL115469  26.866  14.427   8.853
 5999POPC   GL215470  26.719  14.405   8.853
 5999POPC   C1A15471  26.861  14.412   8.553
 5999POPC   D2A15472  26.841  14.423   8.253
 5999POPC   C3A15473  26.862  14.385   7.953
 5999POPC   C4A15474  26.811  14.401   7.653
 5999POPC   C1B15475  26.567  14.517   8.553
 5999POPC   C2B15476  26.555  14.436   8.253
 5999POPC   C3B15477  26.595  14.438   7.953
 5999POPC   C4B15478  26.574  14.488   7.653
 6000POPC   NC315479  27.572  39.239   9.453
 6000POPC   PO415480  27.600  39.263   9.153
 6000POPC   GL115481  27.619  39.210   8.853
 6000POPC   GL215482  27.697  39.268   8.853
 6000POPC   C1A15483  27.544  39.203   8.553
 6000POPC   D2A15484  27.629  39.235   8.253
 6000POPC   C3A15485  27.556  39.207   7.953
 6000POPC   C4A15486  27.581  39.271   7.653
 6000POPC   C1B15487  27.842  39.229   8.553
 6000POPC   C2B15488  27.811  39.182   8.253
 6000POPC   C3B15489  27.813  39.266   7.953
 6000POPC   C4B15490  27.813  39.217   7.653
 6001POPC   NC315491  12.855  14.362   9.453
 6001POPC   PO415492  12.842  14.436   9.153
 6001POPC   GL115493  12.866  14.410   8.853
 6001POPC   GL215494  12.840  14.310   8.853
 6001POPC   C1A15495  12.898  14.373   8.553
 6001POPC   D2A15496  12.902  14.386   8.253
 6001POPC   C3A15497  12.803  14.430   7.953
 6001POPC   C4A15498  12.813  14.412   7.653
 6001POPC   C1B15499  12.722  14.165   8.553
 6001POPC   C2B15500  12.697  14.163   8.253
 6001POPC   C3B15501  12.740  14.144   7.953
 6001POPC   C4B15502  12.769  14.222   7.653
 6002POPC   NC315503  15.981  27.624   9.453
 6002POPC   PO415504  15.969  27.587   9.153
 6002POPC   GL115505  15.982  27.639   8.853
 6002POPC   GL215506  16.028  27.550   8.853
 6002POPC   C1A15507  16.005  27.545   8.553
 6002POPC   D2A15508  15.974  27.599   8.253
 6002POPC   C3A15509  15.924  27.546   7.953
 6002POPC   C4A15510  15.946  27.563   7.653
 6002POPC   C1B15511  16.120  27.410   8.553
 6002POPC   C2B15512  16.137  27.368   8.253
 6002POPC   C3B15513  16.160  27.438   7.953
 6002POPC   C4B15514  16.099  27.393   7.653
 6003POPC   NC315515  31.504  43.868   9.453
 6003POPC   PO415516  31.517  43.872   9.153
 6003POPC   GL115517  31.481  43.852   8.853
 6003POPC   GL215518  31.413  43.786   8.853
 6003POPC   C1A15519  31.459  43.842   8.553
 6003POPC   D2A15520  31.498  43.933   8.253
 6003POPC   C3A15521  31.440  43.872   7.953
 6003POPC   C4A15522  31.506  43.909   7.653
 6003POPC   C1B15523  31.472  43.597   8.553
 6003POPC   C2B15524  31.426  43.646   8.253
 6003POPC   C3B15525  31.422  43.631   7.953
 6003POPC   C4B15526  31.406  43.637   7.653
 6004POPC   NC315527  32.254  20.628   9.453
 6004POPC   PO415528  32.203  20.631   9.153
 6004POPC   GL115529  32.236  20.635   8.853
 6004POPC   GL215530  32.320  20.554   8.853
 6004POPC   C1A15531  32.268  20.655   8.553
 6004POPC   D2A15532  32.210  20.571   8.253
 6004POPC   C3A15533  32.220  20.641   7.953
 6004POPC   C4A15534  32.236  20.615   7.653
 6004POPC   C1B15535  32.414  20.420   8.553
 6004POPC   C2B15536  32.396  20.381   8.253
 6004POPC   C3B15537  32.448  20.401   7.953
 6004POPC   C4B15538  32.351  20.366   7.653
 6005POPC   NC315539  17.528   0.469   9.453
 6005POPC   PO415540  17.550   0.437   9.153
 6005POPC   GL115541  17.459   0.457   8.853
 6005POPC   GL215542  17.666   0.393   8.853
 6005POPC   C1A15543  17.467   0.427   8.553
 6005POPC   D2A15544  17.463   0.406   8.253
 6005POPC   C3A15545  17.471   0.478   7.953
 6005POPC   C4A15546  17.536   0.412   7.653
 6005POPC   C1B15547  17.781   0.456   8.553
 6005POPC   C2B15548  17.709   0.386   8.253
 6005POPC   C3B15549  17.763   0.449   7.953
 6005POPC   C4B15550  17.708   0.384   7.653
 6006POPC   NC315551   0.478  15.184   9.453
 6006POPC   PO415552   0.423  15.138   9.153
 6006POPC   GL115553   0.395  15.165   8.853
 6006POPC   GL215554   0.565  15.239   8.853
 6006POPC   C1A15555   0.424  15.161   8.553
 6006POPC   D2A15556   0.483  15.201   8.253
 6006POPC   C3A15557   0.417  15.226   7.953
 6006POPC   C4A15558   0.415  15.165   7.653
 6006POPC   C1B15559   0.710  15.229   8.553
 6006POPC   C2B15560   0.677  15.203   8.253
 6006POPC   C3B15561   0.672  15.186   7.953
 6006POPC   C4B15562   0.660  15.227   7.653
 6007POPC   NC315563  13.671  38.446   9.453
 6007POPC   PO415564  13.613  38.455   9.153
 6007POPC   GL115565  13.670  38.450   8.853
 6007POPC   GL215566  13.628  38.561   8.853
 6007POPC   C1A15567  13.669  38.406   8.553
 6007POPC   D2A15568  13.624  38.427   8.253
 6007POPC   C3A15569  13.662  38.411   7.953
 6007POPC   C4A15570  13.620  38.485   7.653
 6007POPC   C1B15571  13.609  38.733   8.553
 6007POPC   C2B15572  13.605  38.721   8.253
 6007POPC   C3B15573  13.556  38.694   7.953
 6007POPC   C4B15574  13.574  38.676   7.653
 6008POPC   NC315575  22.128   2.030   9.453
 6008POPC   PO415576  22.153   2.002   9.153
 6008POPC   GL115577  22.157   1.960   8.853
 6008POPC   GL215578  22.083   1.932   8.853
 6008POPC   C1A15579  22.116   1.944   8.553
 6008POPC   D2A15580  22.209   1.942   8.253
 6008POPC   C3A15581  22.172   2.035   7.953
 6008POPC   C4A15582  22.205   2.034   7.653
 6008POPC   C1B15583  22.007   1.878   8.553
 6008POPC   C2B15584  21.934   1.789   8.253
 6008POPC   C3B15585  22.001   1.854   7.953
 6008POPC   C4B15586  21.920   1.793   7.653
 6009POPC   NC315587   7.404   9.722   9.453
 6009POPC   PO415588   7.442   9.746   9.153
 6009POPC   GL115589   7.455   9.705   8.853
 6009POPC   GL215590   7.316   9.780   8.853
 6009POPC   C1A15591   7.374   9.791   8.553
 6009POPC   D2A15592   7.375   9.769   8.253
 6009POPC   C3A15593   7.437   9.743   7.953
 6009POPC   C4A15594   7.411   9.764   7.653
 6009POPC   C1B15595   7.199   9.721   8.553
 6009POPC   C2B15596   7.185   9.709   8.253
 6009POPC   C3B15597   7.160   9.694   7.953
 6009POPC   C4B15598   7.192   9.699   7.653
 6010POPC   NC315599  17.500  11.264   9.453
 6010POPC   PO415600  17.466  11.302   9.153
 6010POPC   GL115601  17.515  11.344   8.853
 6010POPC   GL215602  17.404  11.340   8.853
 6010POPC   C1A15603  17.461  11.318   8.553
 6010POPC   D2A15604  17.511  11.306   8.253
 6010POPC   C3A15605  17.492  11.258   7.953
 6010POPC   C4A15606  17.494  11.282   7.653
 6010POPC   C1B15607  17.227  11.307   8.553
 6010POPC   C2B15608  17.264  11.311   8.253
 6010POPC   C3B15609  17.228  11.249   7.953
 6010POPC   C4B15610  17.221  11.316   7.653
 6011POPC   NC315611  19.020  21.359   9.453
 6011POPC   PO415612  19.049  21.426   9.153
 6011POPC   GL115613  19.018  21.339   8.853
 6011POPC   GL215614  18.951  21.426   8.853
 6011POPC   C1A15615  19.081  21.370   8.553
 6011POPC   D2A15616  19.063  21.365   8.253
 6011POPC   C3A15617  19.068  21.357   7.953
 6011POPC   C4A15618  19.027  21.406   7.653
 6011POPC   C1B15619  18.773  21.441   8.553
 6011POPC   C2B15620  18.828  21.480   8.253
 6011POPC   C3B15621  18.781  21.469   7.953
 6011POPC   C4B15622  18.832  21.443   7.653
 6012POPC   NC315623  42.290  43.848   9.453
 6012POPC   PO415624  42.286  43.905   9.153
 6012POPC   GL115625  42.346  43.865   8.853
 6012POPC   GL215626  42.379  44.018   8.853
 6012POPC   C1A15627  42.355  43.901   8.553
 6012POPC   D2A15628  42.292  43.922   8.253
 6012POPC   C3A15629  42.377  43.848   7.953
 6012POPC   C4A15630  42.317  43.932   7.653
 6012POPC   C1B15631  42.475  44.115   8.553
 6012POPC   C2B15632  42.495  44.057   8.253
 6012POPC   C3B15633  42.490  44.110   7.953
 6012POPC   C4B15634  42.441  44.103   7.653
 6013POPC   NC315635  37.682  22.186   9.453
 6013POPC   PO415636  37.717  22.187   9.153
 6013POPC   GL115637  37.650  22.199   8.853
 6013POPC   GL215638  37.522  22.242   8.853
 6013POPC   C1A15639  37.688  22.150   8.553
 6013POPC   D2A15640  37.653  22.153   8.253
 6013POPC   C3A15641  37.654  22.212   7.953
 6013POPC   C4A15642  37.635  22.172   7.653
 6013POPC   C1B15643  37.450  22.320   8.553
 6013POPC   C2B15644  37.432  22.296   8.253
 6013POPC   C3B15645  37.429  22.300   7.953
 6013POPC   C4B15646  37.495  22.335   7.653
 6014POPC   NC315647  44.655  44.623   9.453
 6014POPC   PO415648  44.646  44.680   9.153
 6014POPC   GL115649  44.700  44.675   8.853
 6014POPC   GL215650  44.627  44.572   8.853
 6014POPC   C1A15651  44.641  44.693   8.553
 6014POPC   D2A15652  44.641  44.705   8.253
 6014POPC   C3A15653  44.628  44.706   7.953
 6014POPC   C4A15654  44.642  44.673   7.653
 6014POPC   C1B15655  44.501  44.444   8.553
 6014POPC   C2B15656  44.510  44.395   8.253
 6014POPC   C3B15657  44.559  44.484   7.953
 6014POPC   C4B15658  44.503  44.406   7.653
 6015POPC   NC315659   4.273  22.915   9.453
 6015POPC   PO415660   4.359  22.952   9.153
 6015POPC   GL115661   4.366  22.987   8.853
 6015POPC   GL215662   4.366  22.783   8.853
 6015POPC   C1A15663   4.296  22.900   8.553
 6015POPC   D2A15664   4.286  22.914   8.253
 6015POPC   C3A15665   4.306  22.940   7.953
 6015POPC   C4A15666   4.268  22.892   7.653
 6015POPC   C1B15667   4.341  22.662   8.553
 6015POPC   C2B15668   4.374  22.653   8.253
 6015POPC   C3B15669   4.409  22.663   7.953
 6015POPC   C4B15670   4.388  22.736   7.653
 6016POPC   NC315671  10.533  24.529   9.453
 6016POPC   PO415672  10.496  24.521   9.153
 6016POPC   GL115673  10.482  24.509   8.853
 6016POPC   GL215674  10.658  24.494   8.853
 6016POPC   C1A15675  10.480  24.471   8.553
 6016POPC   D2A15676  10.511  24.474   8.253
 6016POPC   C3A15677  10.566  24.507   7.953
 6016POPC   C4A15678  10.493  24.444   7.653
 6016POPC   C1B15679  10.734  24.575   8.553
 6016POPC   C2B15680  10.743  24.579   8.253
 6016POPC   C3B15681  10.764  24.578   7.953
 6016POPC   C4B15682  10.752  24.557   7.653
 6017POPC   NC315683  22.919   2.028   9.453
 6017POPC   PO415684  22.958   1.955   9.153
 6017POPC   GL115685  22.922   2.024   8.853
 6017POPC   GL215686  23.088   1.998   8.853
 6017POPC   C1A15687  22.974   2.025   8.553
 6017POPC   D2A15688  22.942   1.976   8.253
 6017POPC   C3A15689  22.945   1.973   7.953
 6017POPC   C4A15690  22.896   1.958   7.653
 6017POPC   C1B15691  23.214   1.931   8.553
 6017POPC   C2B15692  23.172   1.953   8.253
 6017POPC   C3B15693  23.198   1.892   7.953
 6017POPC   C4B15694  23.165   1.964   7.653
 6018POPC   NC315695  36.110  16.710   9.453
 6018POPC   PO415696  36.163  16.693   9.153
 6018POPC   GL115697  36.103  16.779   8.853
 6018POPC   GL215698  36.195  16.570   8.853
 6018POPC   C1A15699  36.091  16.750   8.553
 6018POPC   D2A15700  36.148  16.704   8.253
 6018POPC   C3A15701  36.115  16.771   7.953
 6018POPC   C4A15702  36.147  16.761   7.653
 6018POPC   C1B15703  36.161  16.494   8.553
 6018POPC   C2B15704  36.214  16.451   8.253
 6018POPC   C3B15705  36.213  16.465   7.953
 6018POPC   C4B15706  36.155  16.541   7.653
 6019POPC   NC315707  26.855  15.936   9.453
 6019POPC   PO415708  26.775  15.986   9.153
 6019POPC   GL115709  26.843  15.912   8.853
 6019POPC   GL215710  26.749  15.915   8.853
 6019POPC   C1A15711  26.851  15.918   8.553
 6019POPC   D2A15712  26.842  15.925   8.253
 6019POPC   C3A15713  26.823  15.925   7.953
 6019POPC   C4A15714  26.832  15.999   7.653
 6019POPC   C1B15715  26.577  15.784   8.553
 6019POPC   C2B15716  26.558  15.851   8.253
 6019POPC   C3B15717  26.599  15.821   7.953
 6019POPC   C4B15718  26.576  15.802   7.653
 6020POPC   NC315719  27.602   1.239   9.453
 6020POPC   PO415720  27.605   1.234   9.153
 6020POPC   GL115721  27.600   1.200   8.853
 6020POPC   GL215722  27.649   1.327   8.853
 6020POPC   C1A15723  27.630   1.219   8.553
 6020POPC   D2A15724  27.570   1.245   8.253
 6020POPC   C3A15725  27.558   1.170   7.953
 6020POPC   C4A15726  27.642   1.209   7.653
 6020POPC   C1B15727  27.836   1.377   8.553
 6020POPC   C2B15728  27.785   1.358   8.253
 6020POPC   C3B15729  27.783   1.386   7.953
 6020POPC   C4B15730  27.788   1.315   7.653
 6021POPC   NC315731   7.411  29.938   9.453
 6021POPC   PO415732   7.466  29.879   9.153
 6021POPC   GL115733   7.449  29.964   8.853
 6021POPC   GL215734   7.305  29.929   8.853
 6021POPC   C1A15735   7.419  29.948   8.553
 6021POPC   D2A15736   7.430  29.882   8.253
 6021POPC   C3A15737   7.439  29.911   7.953
 6021POPC   C4A15738   7.410  29.892   7.653
 6021POPC   C1B15739   7.131  29.844   8.553
 6021POPC   C2B15740   7.200  29.901   8.253
 6021POPC   C3B15741   7.201  29.817   7.953
 6021POPC   C4B15742   7.150  29.883   7.653
 6022POPC   NC315743  41.593  26.809   9.453
 6022POPC   PO415744  41.574  26.830   9.153
 6022POPC   GL115745  41.542  26.840   8.853
 6022POPC   GL215746  41.411  26.809   8.853
 6022POPC   C1A15747  41.576  26.864   8.553
 6022POPC   D2A15748  41.605  26.798   8.253
 6022POPC   C3A15749  41.524  26.846   7.953
 6022POPC   C4A15750  41.585  26.767   7.653
 6022POPC   C1B15751  41.300  26.825   8.553
 6022POPC   C2B15752  41.323  26.790   8.253
 6022POPC   C3B15753  41.354  26.796   7.953
 6022POPC   C4B15754  41.270  26.809   7.653
 6023POPC   NC315755   8.227  41.600   9.453
 6023POPC   PO415756   8.215  41.510   9.153
 6023POPC   GL115757   8.167  41.556   8.853
 6023POPC   GL215758   8.135  41.433   8.853
 6023POPC   C1A15759   8.190  41.517   8.553
 6023POPC   D2A15760   8.159  41.558   8.253
 6023POPC   C3A15761   8.157  41.584   7.953
 6023POPC   C4A15762   8.208  41.529   7.653
 6023POPC   C1B15763   8.024  41.297   8.553
 6023POPC   C2B15764   8.029  41.306   8.253
 6023POPC   C3B15765   8.019  41.331   7.953
 6023POPC   C4B15766   8.048  41.388   7.653
 6024POPC   NC315767  33.026  26.800   9.453
 6024POPC   PO415768  33.021  26.867   9.153
 6024POPC   GL115769  33.050  26.803   8.853
 6024POPC   GL215770  32.965  26.696   8.853
 6024POPC   C1A15771  33.050  26.856   8.553
 6024POPC   D2A15772  33.033  26.822   8.253
 6024POPC   C3A15773  33.001  26.813   7.953
 6024POPC   C4A15774  33.065  26.851   7.653
 6024POPC   C1B15775  32.929  26.599   8.553
 6024POPC   C2B15776  32.862  26.569   8.253
 6024POPC   C3B15777  32.922  26.569   7.953
 6024POPC   C4B15778  32.928  26.621   7.653
 6025POPC   NC315779  13.608  15.963   9.453
 6025POPC   PO415780  13.584  15.995   9.153
 6025POPC   GL115781  13.638  15.936   8.853
 6025POPC   GL215782  13.589  15.845   8.853
 6025POPC   C1A15783  13.625  15.915   8.553
 6025POPC   D2A15784  13.645  15.955   8.253
 6025POPC   C3A15785  13.628  15.999   7.953
 6025POPC   C4A15786  13.633  15.942   7.653
 6025POPC   C1B15787  13.582  15.702   8.553
 6025POPC   C2B15788  13.574  15.688   8.253
 6025POPC   C3B15789  13.566  15.662   7.953
 6025POPC   C4B15790  13.590  15.680   7.653
 6026POPC   NC315791  33.073  22.932   9.453
 6026POPC   PO415792  33.004  22.956   9.153
 6026POPC   GL115793  33.003  22.910   8.853
 6026POPC   GL215794  33.162  23.035   8.853
 6026POPC   C1A15795  33.009  22.889   8.553
 6026POPC   D2A15796  33.059  22.982   8.253
 6026POPC   C3A15797  32.997  22.889   7.953
 6026POPC   C4A15798  33.003  22.963   7.653
 6026POPC   C1B15799  33.239  23.093   8.553
 6026POPC   C2B15800  33.233  23.136   8.253
 6026POPC   C3B15801  33.251  23.148   7.953
 6026POPC   C4B15802  33.232  23.095   7.653
 6027POPC   NC315803  35.340   1.228   9.453
 6027POPC   PO415804  35.304   1.174   9.153
 6027POPC   GL115805  35.328   1.192   8.853
 6027POPC   GL215806  35.521   1.168   8.853
 6027POPC   C1A15807  35.374   1.195   8.553
 6027POPC   D2A15808  35.319   1.224   8.253
 6027POPC   C3A15809  35.309   1.170   7.953
 6027POPC   C4A15810  35.364   1.263   7.653
 6027POPC   C1B15811  35.555   1.173   8.553
 6027POPC   C2B15812  35.593   1.214   8.253
 6027POPC   C3B15813  35.632   1.195   7.953
 6027POPC   C4B15814  35.587   1.192   7.653
 6028POPC   NC315815  39.274  44.710   9.453
 6028POPC   PO415816  39.225  44.690   9.153
 6028POPC   GL115817  39.204  44.684   8.853
 6028POPC   GL215818  39.372  44.559   8.853
 6028POPC   C1A15819  39.202  44.679   8.553
 6028POPC   D2A15820  39.259  44.651   8.253
 6028POPC   C3A15821  39.221  44.651   7.953
 6028POPC   C4A15822  39.250  44.687   7.653
 6028POPC   C1B15823  39.480  44.550   8.553
 6028POPC   C2B15824  39.389  44.556   8.253
 6028POPC   C3B15825  39.455  44.497   7.953
 6028POPC   C4B15826  39.461  44.533   7.653
 6029POPC   NC315827  33.827  43.143   9.453
 6029POPC   PO415828  33.768  43.082   9.153
 6029POPC   GL115829  33.804  43.066   8.853
 6029POPC   GL215830  33.726  43.186   8.853
 6029POPC   C1A15831  33.760  43.101   8.553
 6029POPC   D2A15832  33.761  43.113   8.253
 6029POPC   C3A15833  33.774  43.116   7.953
 6029POPC   C4A15834  33.765  43.155   7.653
 6029POPC   C1B15835  33.740  43.327   8.553
 6029POPC   C2B15836  33.717  43.340   8.253
 6029POPC   C3B15837  33.793  43.381   7.953
 6029POPC   C4B15838  33.794  43.359   7.653
 6030POPC   NC315839  41.599  44.704   9.453
 6030POPC   PO415840  41.580  44.623   9.153
 6030POPC   GL115841  41.576  44.664   8.853
 6030POPC   GL215842  41.685  44.677   8.853
 6030POPC   C1A15843  41.554  44.683   8.553
 6030POPC   D2A15844  41.549  44.652   8.253
 6030POPC   C3A15845  41.511  44.695   7.953
 6030POPC   C4A15846  41.548  44.691   7.653
 6030POPC   C1B15847  41.783  44.752   8.553
 6030POPC   C2B15848  41.808  44.680   8.253
 6030POPC   C3B15849  41.831  44.759   7.953
 6030POPC   C4B15850  41.798  44.725   7.653
 6031POPC   NC315851   0.462   4.270   9.453
 6031POPC   PO415852   0.409   4.347   9.153
 6031POPC   GL115853   0.484   4.318   8.853
 6031POPC   GL215854   0.538   4.374   8.853
 6031POPC   C1A15855   0.445   4.316   8.553
 6031POPC   D2A15856   0.394   4.347   8.253
 6031POPC   C3A15857   0.451   4.357   7.953
 6031POPC   C4A15858   0.404   4.361   7.653
 6031POPC   C1B15859   0.574   4.470   8.553
 6031POPC   C2B15860   0.642   4.461   8.253
 6031POPC   C3B15861   0.649   4.495   7.953
 6031POPC   C4B15862   0.617   4.548   7.653
 6032POPC   NC315863  42.313  32.259   9.453
 6032POPC   PO415864  42.328  32.239   9.153
 6032POPC   GL115865  42.346  32.244   8.853
 6032POPC   GL215866  42.177  32.277   8.853
 6032POPC   C1A15867  42.366  32.240   8.553
 6032POPC   D2A15868  42.326  32.205   8.253
 6032POPC   C3A15869  42.340  32.231   7.953
 6032POPC   C4A15870  42.357  32.254   7.653
 6032POPC   C1B15871  42.136  32.335   8.553
 6032POPC   C2B15872  42.095  32.406   8.253
 6032POPC   C3B15873  42.079  32.394   7.953
 6032POPC   C4B15874  42.144  32.392   7.653
 6033POPC   NC315875   9.796  35.315   9.453
 6033POPC   PO415876   9.767  35.325   9.153
 6033POPC   GL115877   9.798  35.357   8.853
 6033POPC   GL215878   9.675  35.220   8.853
 6033POPC   C1A15879   9.747  35.346   8.553
 6033POPC   D2A15880   9.792  35.324   8.253
 6033POPC   C3A15881   9.705  35.365   7.953
 6033POPC   C4A15882   9.721  35.335   7.653
 6033POPC   C1B15883   9.596  35.097   8.553
 6033POPC   C2B15884   9.608  35.163   8.253
 6033POPC   C3B15885   9.633  35.095   7.953
 6033POPC   C4B15886   9.656  35.104   7.653
 6034POPC   NC315887  33.828   5.127   9.453
 6034POPC   PO415888  33.835   5.091   9.153
 6034POPC   GL115889  33.752   5.045   8.853
 6034POPC   GL215890  33.856   4.925   8.853
 6034POPC   C1A15891  33.822   5.087   8.553
 6034POPC   D2A15892  33.834   5.104   8.253
 6034POPC   C3A15893  33.796   5.099   7.953
 6034POPC   C4A15894  33.846   5.061   7.653
 6034POPC   C1B15895  33.851   4.866   8.553
 6034POPC   C2B15896  33.843   4.803   8.253
 6034POPC   C3B15897  33.863   4.878   7.953
 6034POPC   C4B15898  33.857   4.868   7.653
 6035POPC   NC315899   9.776  28.375   9.453
 6035POPC   PO415900   9.790  28.325   9.153
 6035POPC   GL115901   9.732  28.396   8.853
 6035POPC   GL215902   9.653  28.236   8.853
 6035POPC   C1A15903   9.705  28.381   8.553
 6035POPC   D2A15904   9.773  28.348   8.253
 6035POPC   C3A15905   9.757  28.412   7.953
 6035POPC   C4A15906   9.762  28.341   7.653
 6035POPC   C1B15907   9.596  28.168   8.553
 6035POPC   C2B15908   9.618  28.159   8.253
 6035POPC   C3B15909   9.546  28.227   7.953
 6035POPC   C4B15910   9.528  28.238   7.653
 6036POPC   NC315911  20.646  32.980   9.453
 6036POPC   PO415912  20.564  33.016   9.153
 6036POPC   GL115913  20.598  32.979   8.853
 6036POPC   GL215914  20.688  32.945   8.853
 6036POPC   C1A15915  20.630  33.011   8.553
 6036POPC   D2A15916  20.577  33.049   8.253
 6036POPC   C3A15917  20.568  33.005   7.953
 6036POPC   C4A15918  20.616  33.040   7.653
 6036POPC   C1B15919  20.666  32.797   8.553
 6036POPC   C2B15920  20.714  32.785   8.253
 6036POPC   C3B15921  20.706  32.742   7.953
 6036POPC   C4B15922  20.680  32.773   7.653
 6037POPC   NC315923   3.495  11.287   9.453
 6037POPC   PO415924   3.542  11.330   9.153
 6037POPC   GL115925   3.533  11.253   8.853
 6037POPC   GL215926   3.511  11.202   8.853
 6037POPC   C1A15927   3.544  11.342   8.553
 6037POPC   D2A15928   3.561  11.299   8.253
 6037POPC   C3A15929   3.544  11.308   7.953
 6037POPC   C4A15930   3.581  11.313   7.653
 6037POPC   C1B15931   3.485  11.073   8.553
 6037POPC   C2B15932   3.512  11.011   8.253
 6037POPC   C3B15933   3.475  11.080   7.953
 6037POPC   C4B15934   3.485  11.102   7.653
 6038POPC   NC315935  10.534  43.903   9.453
 6038POPC   PO415936  10.551  43.904   9.153
 6038POPC   GL115937  10.507  43.888   8.853
 6038POPC   GL215938  10.452  43.964   8.853
 6038POPC   C1A15939  10.550  43.896   8.553
 6038POPC   D2A15940  10.480  43.886   8.253
 6038POPC   C3A15941  10.482  43.862   7.953
 6038POPC   C4A15942  10.554  43.892   7.653
 6038POPC   C1B15943  10.317  43.978   8.553
 6038POPC   C2B15944  10.334  43.997   8.253
 6038POPC   C3B15945  10.363  44.008   7.953
 6038POPC   C4B15946  10.266  43.990   7.653
 6039POPC   NC315947   9.738  43.067   9.453
 6039POPC   PO415948   9.739  43.146   9.153
 6039POPC   GL115949   9.768  43.126   8.853
 6039POPC   GL215950   9.795  43.244   8.853
 6039POPC   C1A15951   9.782  43.126   8.553
 6039POPC   D2A15952   9.700  43.061   8.253
 6039POPC   C3A15953   9.716  43.122   7.953
 6039POPC   C4A15954   9.778  43.079   7.653
 6039POPC   C1B15955   9.833  43.366   8.553
 6039POPC   C2B15956   9.795  43.321   8.253
 6039POPC   C3B15957   9.819  43.384   7.953
 6039POPC   C4B15958   9.799  43.359   7.653
 6040POPC   NC315959   1.193   5.869   9.453
 6040POPC   PO415960   1.210   5.886   9.153
 6040POPC   GL115961   1.177   5.889   8.853
 6040POPC   GL215962   1.047   5.856   8.853
 6040POPC   C1A15963   1.209   5.841   8.553
 6040POPC   D2A15964   1.218   5.853   8.253
 6040POPC   C3A15965   1.170   5.863   7.953
 6040POPC   C4A15966   1.208   5.846   7.653
 6040POPC   C1B15967   0.925   5.858   8.553
 6040POPC   C2B15968   0.929   5.839   8.253
 6040POPC   C3B15969   1.016   5.860   7.953
 6040POPC   C4B15970   1.006   5.860   7.653
 6041POPC   NC315971  22.910  35.395   9.453
 6041POPC   PO415972  22.898  35.354   9.153
 6041POPC   GL115973  22.895  35.385   8.853
 6041POPC   GL215974  22.845  35.267   8.853
 6041POPC   C1A15975  22.987  35.355   8.553
 6041POPC   D2A15976  22.917  35.321   8.253
 6041POPC   C3A15977  22.965  35.396   7.953
 6041POPC   C4A15978  22.944  35.389   7.653
 6041POPC   C1B15979  22.709  35.154   8.553
 6041POPC   C2B15980  22.759  35.163   8.253
 6041POPC   C3B15981  22.755  35.211   7.953
 6041POPC   C4B15982  22.718  35.183   7.653
 6042POPC   NC315983  12.806  42.340   9.453
 6042POPC   PO415984  12.840  42.288   9.153
 6042POPC   GL115985  12.865  42.337   8.853
 6042POPC   GL215986  12.858  42.179   8.853
 6042POPC   C1A15987  12.844  42.343   8.553
 6042POPC   D2A15988  12.854  42.292   8.253
 6042POPC   C3A15989  12.832  42.384   7.953
 6042POPC   C4A15990  12.817  42.302   7.653
 6042POPC   C1B15991  12.868  42.128   8.553
 6042POPC   C2B15992  12.879  42.066   8.253
 6042POPC   C3B15993  12.804  42.048   7.953
 6042POPC   C4B15994  12.880  42.060   7.653
 6043POPC   NC315995  22.187   8.987   9.453
 6043POPC   PO415996  22.112   8.949   9.153
 6043POPC   GL115997  22.160   8.993   8.853
 6043POPC   GL215998  22.123   8.858   8.853
 6043POPC   C1A15999  22.154   8.995   8.553
 6043POPC   D2A16000  22.112   8.958   8.253
 6043POPC   C3A16001  22.146   8.936   7.953
 6043POPC   C4A16002  22.171   8.994   7.653
 6043POPC   C1B16003  22.147   8.764   8.553
 6043POPC   C2B16004  22.148   8.767   8.253
 6043POPC   C3B16005  22.096   8.758   7.953
 6043POPC   C4B16006  22.156   8.741   7.653
 6044POPC   NC316007   2.796  29.897   9.453
 6044POPC   PO416008   2.748  29.883   9.153
 6044POPC   GL116009   2.779  29.922   8.853
 6044POPC   GL216010   2.618  30.001   8.853
 6044POPC   C1A16011   2.728  29.930   8.553
 6044POPC   D2A16012   2.719  29.938   8.253
 6044POPC   C3A16013   2.812  29.934   7.953
 6044POPC   C4A16014   2.793  29.952   7.653
 6044POPC   C1B16015   2.529  30.014   8.553
 6044POPC   C2B16016   2.496  29.995   8.253
 6044POPC   C3B16017   2.549  30.044   7.953
 6044POPC   C4B16018   2.487  29.965   7.653
 6045POPC   NC316019  15.914  36.902   9.453
 6045POPC   PO416020  15.907  36.952   9.153
 6045POPC   GL116021  15.933  36.937   8.853
 6045POPC   GL216022  15.879  36.921   8.853
 6045POPC   C1A16023  15.944  36.923   8.553
 6045POPC   D2A16024  15.921  36.875   8.253
 6045POPC   C3A16025  15.910  36.896   7.953
 6045POPC   C4A16026  16.003  36.935   7.653
 6045POPC   C1B16027  15.728  36.833   8.553
 6045POPC   C2B16028  15.689  36.845   8.253
 6045POPC   C3B16029  15.675  36.911   7.953
 6045POPC   C4B16030  15.701  36.883   7.653
 6046POPC   NC316031  38.465  11.276   9.453
 6046POPC   PO416032  38.405  11.263   9.153
 6046POPC   GL116033  38.486  11.255   8.853
 6046POPC   GL216034  38.376  11.296   8.853
 6046POPC   C1A16035  38.492  11.291   8.553
 6046POPC   D2A16036  38.439  11.341   8.253
 6046POPC   C3A16037  38.503  11.275   7.953
 6046POPC   C4A16038  38.441  11.340   7.653
 6046POPC   C1B16039  38.236  11.366   8.553
 6046POPC   C2B16040  38.266  11.389   8.253
 6046POPC   C3B16041  38.186  11.373   7.953
 6046POPC   C4B16042  38.215  11.330   7.653
 6047POPC   NC316043  43.150  19.876   9.453
 6047POPC   PO416044  43.108  19.849   9.153
 6047POPC   GL116045  43.063  19.822   8.853
 6047POPC   GL216046  43.167  19.910   8.853
 6047POPC   C1A16047  43.135  19.824   8.553
 6047POPC   D2A16048  43.099  19.883   8.253
 6047POPC   C3A16049  43.094  19.883   7.953
 6047POPC   C4A16050  43.077  19.866   7.653
 6047POPC   C1B16051  43.205  20.016   8.553
 6047POPC   C2B16052  43.250  20.089   8.253
 6047POPC   C3B16053  43.267  20.004   7.953
 6047POPC   C4B16054  43.201  20.083   7.653
 6048POPC   NC316055  29.916   3.587   9.453
 6048POPC   PO416056  29.905   3.528   9.153
 6048POPC   GL116057  29.878   3.505   8.853
 6048POPC   GL216058  29.822   3.594   8.853
 6048POPC   C1A16059  29.888   3.505   8.553
 6048POPC   D2A16060  29.888   3.583   8.253
 6048POPC   C3A16061  29.951   3.588   7.953
 6048POPC   C4A16062  29.904   3.562   7.653
 6048POPC   C1B16063  29.748   3.705   8.553
 6048POPC   C2B16064  29.712   3.719   8.253
 6048POPC   C3B16065  29.795   3.758   7.953
 6048POPC   C4B16066  29.782   3.739   7.653
 6049POPC   NC316067  25.301   1.972   9.453
 6049POPC   PO416068  25.219   1.992   9.153
 6049POPC   GL116069  25.299   1.981   8.853
 6049POPC   GL216070  25.370   2.055   8.853
 6049POPC   C1A16071  25.281   2.011   8.553
 6049POPC   D2A16072  25.246   1.979   8.253
 6049POPC   C3A16073  25.308   1.952   7.953
 6049POPC   C4A16074  25.239   1.954   7.653
 6049POPC   C1B16075  25.394   2.177   8.553
 6049POPC   C2B16076  25.403   2.166   8.253
 6049POPC   C3B16077  25.463   2.125   7.953
 6049POPC   C4B16078  25.475   2.126   7.653
 6050POPC   NC316079  22.949   5.122   9.453
 6050POPC   PO416080  22.980   5.107   9.153
 6050POPC   GL116081  22.931   5.064   8.853
 6050POPC   GL216082  22.892   5.019   8.853
 6050POPC   C1A16083  22.968   5.063   8.553
 6050POPC   D2A16084  22.898   5.055   8.253
 6050POPC   C3A16085  22.963   5.065   7.953
 6050POPC   C4A16086  22.981   5.044   7.653
 6050POPC   C1B16087  22.777   4.945   8.553
 6050POPC   C2B16088  22.791   4.891   8.253
 6050POPC   C3B16089  22.834   4.877   7.953
 6050POPC   C4B16090  22.831   4.875   7.653
 6051POPC   NC316091   6.638  25.249   9.453
 6051POPC   PO416092   6.633  25.315   9.153
 6051POPC   GL116093   6.649  25.299   8.853
 6051POPC   GL216094   6.633  25.396   8.853
 6051POPC   C1A16095   6.644  25.258   8.553
 6051POPC   D2A16096   6.631  25.243   8.253
 6051POPC   C3A16097   6.679  25.225   7.953
 6051POPC   C4A16098   6.625  25.222   7.653
 6051POPC   C1B16099   6.593  25.500   8.553
 6051POPC   C2B16100   6.598  25.495   8.253
 6051POPC   C3B16101   6.604  25.501   7.953
 6051POPC   C4B16102   6.575  25.518   7.653
 6052POPC   NC316103  13.634  36.922   9.453
 6052POPC   PO416104  13.651  36.888   9.153
 6052POPC   GL116105  13.654  36.916   8.853
 6052POPC   GL216106  13.757  36.842   8.853
 6052POPC   C1A16107  13.602  36.913   8.553
 6052POPC   D2A16108  13.589  36.885   8.253
 6052POPC   C3A16109  13.608  36.892   7.953
 6052POPC   C4A16110  13.628  36.886   7.653
 6052POPC   C1B16111  13.856  36.821   8.553
 6052POPC   C2B16112  13.856  36.843   8.253
 6052POPC   C3B16113  13.822  36.826   7.953
 6052POPC   C4B16114  13.881  36.835   7.653
 6053POPC   NC316115  34.594  34.581   9.453
 6053POPC   PO416116  34.575  34.545   9.153
 6053POPC   GL116117  34.526  34.579   8.853
 6053POPC   GL216118  34.583  34.721   8.853
 6053POPC   C1A16119  34.533  34.622   8.553
 6053POPC   D2A16120  34.545  34.608   8.253
 6053POPC   C3A16121  34.530  34.619   7.953
 6053POPC   C4A16122  34.593  34.545   7.653
 6053POPC   C1B16123  34.669  34.867   8.553
 6053POPC   C2B16124  34.679  34.829   8.253
 6053POPC   C3B16125  34.592  34.842   7.953
 6053POPC   C4B16126  34.649  34.792   7.653
 6054POPC   NC316127  12.089  32.263   9.453
 6054POPC   PO416128  12.073  32.236   9.153
 6054POPC   GL116129  12.060  32.199   8.853
 6054POPC   GL216130  12.145  32.391   8.853
 6054POPC   C1A16131  12.046  32.255   8.553
 6054POPC   D2A16132  12.092  32.238   8.253
 6054POPC   C3A16133  12.031  32.242   7.953
 6054POPC   C4A16134  12.051  32.282   7.653
 6054POPC   C1B16135  12.090  32.445   8.553
 6054POPC   C2B16136  12.160  32.511   8.253
 6054POPC   C3B16137  12.129  32.536   7.953
 6054POPC   C4B16138  12.099  32.524   7.653
 6055POPC   NC316139  31.485  12.830   9.453
 6055POPC   PO416140  31.470  12.818   9.153
 6055POPC   GL116141  31.470  12.803   8.853
 6055POPC   GL216142  31.588  12.968   8.853
 6055POPC   C1A16143  31.449  12.896   8.553
 6055POPC   D2A16144  31.444  12.807   8.253
 6055POPC   C3A16145  31.444  12.831   7.953
 6055POPC   C4A16146  31.438  12.884   7.653
 6055POPC   C1B16147  31.610  13.041   8.553
 6055POPC   C2B16148  31.673  13.055   8.253
 6055POPC   C3B16149  31.620  13.097   7.953
 6055POPC   C4B16150  31.651  13.041   7.653
 6056POPC   NC316151  16.701  39.962   9.453
 6056POPC   PO416152  16.781  40.044   9.153
 6056POPC   GL116153  16.699  40.033   8.853
 6056POPC   GL216154  16.610  40.080   8.853
 6056POPC   C1A16155  16.724  39.962   8.553
 6056POPC   D2A16156  16.726  39.981   8.253
 6056POPC   C3A16157  16.690  40.018   7.953
 6056POPC   C4A16158  16.768  40.051   7.653
 6056POPC   C1B16159  16.511  40.067   8.553
 6056POPC   C2B16160  16.494  40.051   8.253
 6056POPC   C3B16161  16.501  40.066   7.953
 6056POPC   C4B16162  16.517  40.064   7.653
 6057POPC   NC316163   8.163  37.646   9.453
 6057POPC   PO416164   8.175  37.649   9.153
 6057POPC   GL116165   8.210  37.698   8.853
 6057POPC   GL216166   8.298  37.811   8.853
 6057POPC   C1A16167   8.154  37.691   8.553
 6057POPC   D2A16168   8.208  37.640   8.253
 6057POPC   C3A16169   8.154  37.685   7.953
 6057POPC   C4A16170   8.234  37.722   7.653
 6057POPC   C1B16171   8.290  37.876   8.553
 6057POPC   C2B16172   8.316  37.921   8.253
 6057POPC   C3B16173   8.341  37.872   7.953
 6057POPC   C4B16174   8.272  37.906   7.653
 6058POPC   NC316175  31.427  34.530   9.453
 6058POPC   PO416176  31.450  34.564   9.153
 6058POPC   GL116177  31.484  34.597   8.853
 6058POPC   GL216178  31.487  34.456   8.853
 6058POPC   C1A16179  31.449  34.578   8.553
 6058POPC   D2A16180  31.424  34.534   8.253
 6058POPC   C3A16181  31.493  34.566   7.953
 6058POPC   C4A16182  31.521  34.550   7.653
 6058POPC   C1B16183  31.540  34.351   8.553
 6058POPC   C2B16184  31.529  34.355   8.253
 6058POPC   C3B16185  31.570  34.378   7.953
 6058POPC   C4B16186  31.561  34.346   7.653
 6059POPC   NC316187  15.183  44.670   9.453
 6059POPC   PO416188  15.224  44.614   9.153
 6059POPC   GL116189  15.135  44.696   8.853
 6059POPC   GL216190  15.148  44.766   8.853
 6059POPC   C1A16191  15.166  44.634   8.553
 6059POPC   D2A16192  15.165  44.674   8.253
 6059POPC   C3A16193  15.185  44.664   7.953
 6059POPC   C4A16194  15.181  44.620   7.653
 6059POPC   C1B16195  15.081  44.897   8.553
 6059POPC   C2B16196  15.046  44.907   8.253
 6059POPC   C3B16197  15.117  44.891   7.953
 6059POPC   C4B16198  15.062  44.929   7.653
 6060POPC   NC316199   1.263  10.542   9.453
 6060POPC   PO416200   1.228  10.565   9.153
 6060POPC   GL116201   1.220  10.475   8.853
 6060POPC   GL216202   1.194  10.404   8.853
 6060POPC   C1A16203   1.234  10.571   8.553
 6060POPC   D2A16204   1.168  10.532   8.253
 6060POPC   C3A16205   1.254  10.534   7.953
 6060POPC   C4A16206   1.177  10.570   7.653
 6060POPC   C1B16207   1.202  10.316   8.553
 6060POPC   C2B16208   1.163  10.320   8.253
 6060POPC   C3B16209   1.154  10.311   7.953
 6060POPC   C4B16210   1.146  10.239   7.653
 6061POPC   NC316211   3.520  22.917   9.453
 6061POPC   PO416212   3.553  22.940   9.153
 6061POPC   GL116213   3.570  22.960   8.853
 6061POPC   GL216214   3.588  22.799   8.853
 6061POPC   C1A16215   3.508  22.895   8.553
 6061POPC   D2A16216   3.541  22.958   8.253
 6061POPC   C3A16217   3.552  22.987   7.953
 6061POPC   C4A16218   3.500  22.975   7.653
 6061POPC   C1B16219   3.632  22.733   8.553
 6061POPC   C2B16220   3.675  22.695   8.253
 6061POPC   C3B16221   3.676  22.688   7.953
 6061POPC   C4B16222   3.710  22.715   7.653
 6062POPC   NC316223   9.002   5.086   9.453
 6062POPC   PO416224   8.992   5.103   9.153
 6062POPC   GL116225   8.997   5.132   8.853
 6062POPC   GL216226   8.888   4.993   8.853
 6062POPC   C1A16227   8.986   5.053   8.553
 6062POPC   D2A16228   8.947   5.083   8.253
 6062POPC   C3A16229   8.952   5.117   7.953
 6062POPC   C4A16230   8.931   5.127   7.653
 6062POPC   C1B16231   8.781   4.974   8.553
 6062POPC   C2B16232   8.727   4.951   8.253
 6062POPC   C3B16233   8.723   4.910   7.953
 6062POPC   C4B16234   8.773   4.988   7.653
 6063POPC   NC316235  16.756  29.919   9.453
 6063POPC   PO416236  16.708  29.886   9.153
 6063POPC   GL116237  16.774  29.915   8.853
 6063POPC   GL216238  16.646  29.906   8.853
 6063POPC   C1A16239  16.743  29.944   8.553
 6063POPC   D2A16240  16.753  29.944   8.253
 6063POPC   C3A16241  16.682  29.956   7.953
 6063POPC   C4A16242  16.771  29.967   7.653
 6063POPC   C1B16243  16.522  29.769   8.553
 6063POPC   C2B16244  16.498  29.827   8.253
 6063POPC   C3B16245  16.471  29.858   7.953
 6063POPC   C4B16246  16.531  29.847   7.653
 6064POPC   NC316247  43.127  30.706   9.453
 6064POPC   PO416248  43.103  30.647   9.153
 6064POPC   GL116249  43.068  30.717   8.853
 6064POPC   GL216250  43.141  30.805   8.853
 6064POPC   C1A16251  43.102  30.684   8.553
 6064POPC   D2A16252  43.084  30.739   8.253
 6064POPC   C3A16253  43.142  30.660   7.953
 6064POPC   C4A16254  43.074  30.696   7.653
 6064POPC   C1B16255  43.143  30.940   8.553
 6064POPC   C2B16256  43.121  30.942   8.253
 6064POPC   C3B16257  43.141  30.931   7.953
 6064POPC   C4B16258  43.139  30.964   7.653
 6065POPC   NC316259   2.721   2.792   9.453
 6065POPC   PO416260   2.723   2.807   9.153
 6065POPC   GL116261   2.720   2.746   8.853
 6065POPC   GL216262   2.717   2.695   8.853
 6065POPC   C1A16263   2.786   2.771   8.553
 6065POPC   D2A16264   2.722   2.811   8.253
 6065POPC   C3A16265   2.752   2.731   7.953
 6065POPC   C4A16266   2.755   2.756   7.653
 6065POPC   C1B16267   2.628   2.605   8.553
 6065POPC   C2B16268   2.615   2.587   8.253
 6065POPC   C3B16269   2.625   2.549   7.953
 6065POPC   C4B16270   2.643   2.572   7.653
 6066POPC   NC316271   6.648   4.342   9.453
 6066POPC   PO416272   6.616   4.312   9.153
 6066POPC   GL116273   6.640   4.350   8.853
 6066POPC   GL216274   6.731   4.293   8.853
 6066POPC   C1A16275   6.612   4.282   8.553
 6066POPC   D2A16276   6.670   4.360   8.253
 6066POPC   C3A16277   6.642   4.327   7.953
 6066POPC   C4A16278   6.649   4.294   7.653
 6066POPC   C1B16279   6.848   4.344   8.553
 6066POPC   C2B16280   6.911   4.394   8.253
 6066POPC   C3B16281   6.861   4.390   7.953
 6066POPC   C4B16282   6.851   4.327   7.653
 6067POPC   NC316283  34.604  36.879   9.453
 6067POPC   PO416284  34.534  36.874   9.153
 6067POPC   GL116285  34.530  36.872   8.853
 6067POPC   GL216286  34.420  36.903   8.853
 6067POPC   C1A16287  34.538  36.858   8.553
 6067POPC   D2A16288  34.533  36.946   8.253
 6067POPC   C3A16289  34.550  36.916   7.953
 6067POPC   C4A16290  34.563  36.855   7.653
 6067POPC   C1B16291  34.331  36.853   8.553
 6067POPC   C2B16292  34.369  36.821   8.253
 6067POPC   C3B16293  34.362  36.892   7.953
 6067POPC   C4B16294  34.348  36.874   7.653
 6068POPC   NC316295  12.071  12.084   9.453
 6068POPC   PO416296  12.033  12.115   9.153
 6068POPC   GL116297  12.114  12.053   8.853
 6068POPC   GL216298  12.002  11.991   8.853
 6068POPC   C1A16299  12.111  12.115   8.553
 6068POPC   D2A16300  12.076  12.105   8.253
 6068POPC   C3A16301  12.034  12.110   7.953
 6068POPC   C4A16302  12.102  12.037   7.653
 6068POPC   C1B16303  11.966  11.824   8.553
 6068POPC   C2B16304  11.950  11.808   8.253
 6068POPC   C3B16305  12.014  11.790   7.953
 6068POPC   C4B16306  11.957  11.802   7.653
 6069POPC   NC316307  14.428  11.298   9.453
 6069POPC   PO416308  14.421  11.291   9.153
 6069POPC   GL116309  14.451  11.326   8.853
 6069POPC   GL216310  14.344  11.441   8.853
 6069POPC   C1A16311  14.434  11.283   8.553
 6069POPC   D2A16312  14.427  11.308   8.253
 6069POPC   C3A16313  14.415  11.269   7.953
 6069POPC   C4A16314  14.359  11.341   7.653
 6069POPC   C1B16315  14.318  11.521   8.553
 6069POPC   C2B16316  14.333  11.553   8.253
 6069POPC   C3B16317  14.324  11.526   7.953
 6069POPC   C4B16318  14.370  11.518   7.653
 6070POPC   NC316319  39.239  43.917   9.453
 6070POPC   PO416320  39.244  43.906   9.153
 6070POPC   GL116321  39.223  43.889   8.853
 6070POPC   GL216322  39.339  43.867   8.853
 6070POPC   C1A16323  39.225  43.922   8.553
 6070POPC   D2A16324  39.275  43.873   8.253
 6070POPC   C3A16325  39.211  43.917   7.953
 6070POPC   C4A16326  39.195  43.845   7.653
 6070POPC   C1B16327  39.467  43.846   8.553
 6070POPC   C2B16328  39.489  43.808   8.253
 6070POPC   C3B16329  39.444  43.897   7.953
 6070POPC   C4B16330  39.464  43.802   7.653
 6071POPC   NC316331  27.569  40.737   9.453
 6071POPC   PO416332  27.581  40.777   9.153
 6071POPC   GL116333  27.568  40.811   8.853
 6071POPC   GL216334  27.553  40.702   8.853
 6071POPC   C1A16335  27.575  40.807   8.553
 6071POPC   D2A16336  27.567  40.769   8.253
 6071POPC   C3A16337  27.545  40.823   7.953
 6071POPC   C4A16338  27.594  40.749   7.653
 6071POPC   C1B16339  27.491  40.541   8.553
 6071POPC   C2B16340  27.503  40.561   8.253
 6071POPC   C3B16341  27.508  40.528   7.953
 6071POPC   C4B16342  27.547  40.583   7.653
 6072POPC   NC316343   8.982   9.702   9.453
 6072POPC   PO416344   9.004   9.766   9.153
 6072POPC   GL116345   9.018   9.740   8.853
 6072POPC   GL216346   8.943   9.592   8.853
 6072POPC   C1A16347   8.941   9.728   8.553
 6072POPC   D2A16348   8.994   9.770   8.253
 6072POPC   C3A16349   9.008   9.789   7.953
 6072POPC   C4A16350   8.943   9.721   7.653
 6072POPC   C1B16351   9.018   9.538   8.553
 6072POPC   C2B16352   8.962   9.505   8.253
 6072POPC   C3B16353   8.925   9.469   7.953
 6072POPC   C4B16354   8.993   9.494   7.653
 6073POPC   NC316355  36.131  11.350   9.453
 6073POPC   PO416356  36.152  11.268   9.153
 6073POPC   GL116357  36.177  11.297   8.853
 6073POPC   GL216358  36.193  11.325   8.853
 6073POPC   C1A16359  36.138  11.320   8.553
 6073POPC   D2A16360  36.102  11.330   8.253
 6073POPC   C3A16361  36.135  11.275   7.953
 6073POPC   C4A16362  36.114  11.256   7.653
 6073POPC   C1B16363  36.370  11.426   8.553
 6073POPC   C2B16364  36.312  11.435   8.253
 6073POPC   C3B16365  36.375  11.387   7.953
 6073POPC   C4B16366  36.318  11.397   7.653
 6074POPC   NC316367  43.906  21.380   9.453
 6074POPC   PO416368  43.912  21.387   9.153
 6074POPC   GL116369  43.883  21.372   8.853
 6074POPC   GL216370  43.853  21.463   8.853
 6074POPC   C1A16371  43.895  21.415   8.553
 6074POPC   D2A16372  43.924  21.416   8.253
 6074POPC   C3A16373  43.876  21.366   7.953
 6074POPC   C4A16374  43.926  21.434   7.653
 6074POPC   C1B16375  43.841  21.665   8.553
 6074POPC   C2B16376  43.835  21.592   8.253
 6074POPC   C3B16377  43.902  21.679   7.953
 6074POPC   C4B16378  43.816  21.675   7.653
 6075POPC   NC316379   6.677   0.397   9.453
 6075POPC   PO416380   6.598   0.388   9.153
 6075POPC   GL116381   6.646   0.472   8.853
 6075POPC   GL216382   6.604   0.583   8.853
 6075POPC   C1A16383   6.669   0.454   8.553
 6075POPC   D2A16384   6.656   0.479   8.253
 6075POPC   C3A16385   6.650   0.457   7.953
 6075POPC   C4A16386   6.642   0.452   7.653
 6075POPC   C1B16387   6.508   0.655   8.553
 6075POPC   C2B16388   6.510   0.607   8.253
 6075POPC   C3B16389   6.491   0.681   7.953
 6075POPC   C4B16390   6.477   0.620   7.653
 6076POPC   NC316391   8.996  37.658   9.453
 6076POPC   PO416392   8.963  37.645   9.153
 6076POPC   GL116393   8.950  37.719   8.853
 6076POPC   GL216394   9.129  37.652   8.853
 6076POPC   C1A16395   8.973  37.681   8.553
 6076POPC   D2A16396   8.994  37.645   8.253
 6076POPC   C3A16397   9.004  37.693   7.953
 6076POPC   C4A16398   9.002  37.647   7.653
 6076POPC   C1B16399   9.225  37.510   8.553
 6076POPC   C2B16400   9.183  37.598   8.253
 6076POPC   C3B16401   9.150  37.558   7.953
 6076POPC   C4B16402   9.225  37.575   7.653
 6077POPC   NC316403  39.268   8.968   9.453
 6077POPC   PO416404  39.200   8.973   9.153
 6077POPC   GL116405  39.192   8.952   8.853
 6077POPC   GL216406  39.311   9.089   8.853
 6077POPC   C1A16407  39.252   8.938   8.553
 6077POPC   D2A16408  39.210   8.955   8.253
 6077POPC   C3A16409  39.221   9.002   7.953
 6077POPC   C4A16410  39.229   9.009   7.653
 6077POPC   C1B16411  39.296   9.224   8.553
 6077POPC   C2B16412  39.370   9.213   8.253
 6077POPC   C3B16413  39.283   9.193   7.953
 6077POPC   C4B16414  39.285   9.183   7.653
 6078POPC   NC316415  10.511  10.511   9.453
 6078POPC   PO416416  10.565  10.542   9.153
 6078POPC   GL116417  10.557  10.494   8.853
 6078POPC   GL216418  10.661  10.534   8.853
 6078POPC   C1A16419  10.478  10.500   8.553
 6078POPC   D2A16420  10.553  10.529   8.253
 6078POPC   C3A16421  10.553  10.539   7.953
 6078POPC   C4A16422  10.524  10.482   7.653
 6078POPC   C1B16423  10.792  10.641   8.553
 6078POPC   C2B16424  10.797  10.654   8.253
 6078POPC   C3B16425  10.708  10.588   7.953
 6078POPC   C4B16426  10.735  10.658   7.653
 6079POPC   NC316427  35.322  26.798   9.453
 6079POPC   PO416428  35.333  26.855   9.153
 6079POPC   GL116429  35.386  26.816   8.853
 6079POPC   GL216430  35.240  26.690   8.853
 6079POPC   C1A16431  35.332  26.773   8.553
 6079POPC   D2A16432  35.355  26.798   8.253
 6079POPC   C3A16433  35.369  26.852   7.953
 6079POPC   C4A16434  35.399  26.862   7.653
 6079POPC   C1B16435  35.205  26.681   8.553
 6079POPC   C2B16436  35.217  26.665   8.253
 6079POPC   C3B16437  35.184  26.665   7.953
 6079POPC   C4B16438  35.125  26.643   7.653
 6080POPC   NC316439  39.989  19.021   9.453
 6080POPC   PO416440  39.973  19.068   9.153
 6080POPC   GL116441  40.018  19.103   8.853
 6080POPC   GL216442  40.023  19.140   8.853
 6080POPC   C1A16443  39.965  19.072   8.553
 6080POPC   D2A16444  39.969  19.042   8.253
 6080POPC   C3A16445  39.971  19.068   7.953
 6080POPC   C4A16446  39.975  19.065   7.653
 6080POPC   C1B16447  39.933  19.322   8.553
 6080POPC   C2B16448  39.965  19.290   8.253
 6080POPC   C3B16449  39.979  19.294   7.953
 6080POPC   C4B16450  39.990  19.289   7.653
 6081POPC   NC316451  19.098  22.126   9.453
 6081POPC   PO416452  19.012  22.116   9.153
 6081POPC   GL116453  19.017  22.196   8.853
 6081POPC   GL216454  19.036  22.226   8.853
 6081POPC   C1A16455  19.094  22.196   8.553
 6081POPC   D2A16456  19.058  22.122   8.253
 6081POPC   C3A16457  19.076  22.168   7.953
 6081POPC   C4A16458  19.038  22.212   7.653
 6081POPC   C1B16459  18.916  22.334   8.553
 6081POPC   C2B16460  18.969  22.404   8.253
 6081POPC   C3B16461  18.935  22.344   7.953
 6081POPC   C4B16462  18.961  22.347   7.653
 6082POPC   NC316463  40.048   7.394   9.453
 6082POPC   PO416464  39.965   7.415   9.153
 6082POPC   GL116465  40.045   7.371   8.853
 6082POPC   GL216466  40.161   7.464   8.853
 6082POPC   C1A16467  39.964   7.385   8.553
 6082POPC   D2A16468  40.050   7.396   8.253
 6082POPC   C3A16469  40.006   7.404   7.953
 6082POPC   C4A16470  40.042   7.373   7.653
 6082POPC   C1B16471  40.284   7.469   8.553
 6082POPC   C2B16472  40.250   7.470   8.253
 6082POPC   C3B16473  40.253   7.482   7.953
 6082POPC   C4B16474  40.279   7.451   7.653
 6083POPC   NC316475  11.276  40.753   9.453
 6083POPC   PO416476  11.308  40.830   9.153
 6083POPC   GL116477  11.321  40.809   8.853
 6083POPC   GL216478  11.380  40.669   8.853
 6083POPC   C1A16479  11.337  40.797   8.553
 6083POPC   D2A16480  11.294  40.773   8.253
 6083POPC   C3A16481  11.296  40.793   7.953
 6083POPC   C4A16482  11.287  40.828   7.653
 6083POPC   C1B16483  11.400  40.509   8.553
 6083POPC   C2B16484  11.417  40.524   8.253
 6083POPC   C3B16485  11.443  40.550   7.953
 6083POPC   C4B16486  11.422  40.605   7.653
 6084POPC   NC316487  15.206  43.898   9.453
 6084POPC   PO416488  15.175  43.931   9.153
 6084POPC   GL116489  15.143  43.908   8.853
 6084POPC   GL216490  15.215  43.771   8.853
 6084POPC   C1A16491  15.174  43.851   8.553
 6084POPC   D2A16492  15.185  43.851   8.253
 6084POPC   C3A16493  15.185  43.856   7.953
 6084POPC   C4A16494  15.165  43.909   7.653
 6084POPC   C1B16495  15.304  43.673   8.553
 6084POPC   C2B16496  15.351  43.734   8.253
 6084POPC   C3B16497  15.307  43.718   7.953
 6084POPC   C4B16498  15.339  43.696   7.653
 6085POPC   NC316499  22.196  27.641   9.453
 6085POPC   PO416500  22.158  27.580   9.153
 6085POPC   GL116501  22.171  27.598   8.853
 6085POPC   GL216502  22.318  27.561   8.853
 6085POPC   C1A16503  22.178  27.616   8.553
 6085POPC   D2A16504  22.154  27.596   8.253
 6085POPC   C3A16505  22.209  27.606   7.953
 6085POPC   C4A16506  22.189  27.630   7.653
 6085POPC   C1B16507  22.421  27.512   8.553
 6085POPC   C2B16508  22.391  27.496   8.253
 6085POPC   C3B16509  22.421  27.485   7.953
 6085POPC   C4B16510  22.418  27.441   7.653
 6086POPC   NC316511  28.404  25.239   9.453
 6086POPC   PO416512  28.321  25.253   9.153
 6086POPC   GL116513  28.342  25.252   8.853
 6086POPC   GL216514  28.526  25.368   8.853
 6086POPC   C1A16515  28.404  25.302   8.553
 6086POPC   D2A16516  28.403  25.262   8.253
 6086POPC   C3A16517  28.325  25.302   7.953
 6086POPC   C4A16518  28.387  25.217   7.653
 6086POPC   C1B16519  28.554  25.349   8.553
 6086POPC   C2B16520  28.615  25.418   8.253
 6086POPC   C3B16521  28.567  25.368   7.953
 6086POPC   C4B16522  28.570  25.378   7.653
 6087POPC   NC316523  36.097   1.261   9.453
 6087POPC   PO416524  36.139   1.195   9.153
 6087POPC   GL116525  36.160   1.183   8.853
 6087POPC   GL216526  36.049   1.289   8.853
 6087POPC   C1A16527  36.103   1.182   8.553
 6087POPC   D2A16528  36.103   1.216   8.253
 6087POPC   C3A16529  36.160   1.201   7.953
 6087POPC   C4A16530  36.134   1.250   7.653
 6087POPC   C1B16531  35.933   1.305   8.553
 6087POPC   C2B16532  35.875   1.362   8.253
 6087POPC   C3B16533  35.856   1.316   7.953
 6087POPC   C4B16534  35.940   1.330   7.653
 6088POPC   NC316535   9.781  19.858   9.453
 6088POPC   PO416536   9.787  19.858   9.153
 6088POPC   GL116537   9.707  19.840   8.853
 6088POPC   GL216538   9.774  19.738   8.853
 6088POPC   C1A16539   9.707  19.856   8.553
 6088POPC   D2A16540   9.751  19.800   8.253
 6088POPC   C3A16541   9.746  19.803   7.953
 6088POPC   C4A16542   9.716  19.801   7.653
 6088POPC   C1B16543   9.770  19.571   8.553
 6088POPC   C2B16544   9.773  19.630   8.253
 6088POPC   C3B16545   9.723  19.578   7.953
 6088POPC   C4B16546   9.750  19.610   7.653
 6089POPC   NC316547  28.355  29.191   9.453
 6089POPC   PO416548  28.336  29.182   9.153
 6089POPC   GL116549  28.403  29.131   8.853
 6089POPC   GL216550  28.404  29.204   8.853
 6089POPC   C1A16551  28.322  29.131   8.553
 6089POPC   D2A16552  28.408  29.144   8.253
 6089POPC   C3A16553  28.324  29.143   7.953
 6089POPC   C4A16554  28.330  29.136   7.653
 6089POPC   C1B16555  28.547  29.305   8.553
 6089POPC   C2B16556  28.467  29.363   8.253
 6089POPC   C3B16557  28.528  29.345   7.953
 6089POPC   C4B16558  28.470  29.322   7.653
 6090POPC   NC316559  22.134   5.866   9.453
 6090POPC   PO416560  22.144   5.902   9.153
 6090POPC   GL116561  22.172   5.870   8.853
 6090POPC   GL216562  22.073   5.795   8.853
 6090POPC   C1A16563  22.168   5.838   8.553
 6090POPC   D2A16564  22.119   5.851   8.253
 6090POPC   C3A16565  22.208   5.912   7.953
 6090POPC   C4A16566  22.176   5.841   7.653
 6090POPC   C1B16567  21.954   5.807   8.553
 6090POPC   C2B16568  21.960   5.793   8.253
 6090POPC   C3B16569  21.901   5.774   7.953
 6090POPC   C4B16570  21.921   5.740   7.653
 6091POPC   NC316571   2.036  31.482   9.453
 6091POPC   PO416572   2.033  31.516   9.153
 6091POPC   GL116573   1.951  31.490   8.853
 6091POPC   GL216574   2.086  31.437   8.853
 6091POPC   C1A16575   1.947  31.435   8.553
 6091POPC   D2A16576   1.949  31.490   8.253
 6091POPC   C3A16577   1.997  31.517   7.953
 6091POPC   C4A16578   1.996  31.491   7.653
 6091POPC   C1B16579   2.192  31.437   8.553
 6091POPC   C2B16580   2.212  31.429   8.253
 6091POPC   C3B16581   2.194  31.456   7.953
 6091POPC   C4B16582   2.194  31.417   7.653
 6092POPC   NC316583  26.032  38.505   9.453
 6092POPC   PO416584  26.077  38.443   9.153
 6092POPC   GL116585  25.995  38.407   8.853
 6092POPC   GL216586  25.944  38.458   8.853
 6092POPC   C1A16587  25.997  38.498   8.553
 6092POPC   D2A16588  26.056  38.440   8.253
 6092POPC   C3A16589  26.081  38.445   7.953
 6092POPC   C4A16590  26.046  38.501   7.653
 6092POPC   C1B16591  25.822  38.446   8.553
 6092POPC   C2B16592  25.768  38.468   8.253
 6092POPC   C3B16593  25.763  38.437   7.953
 6092POPC   C4B16594  25.802  38.447   7.653
 6093POPC   NC316595   7.452  43.157   9.453
 6093POPC   PO416596   7.382  43.132   9.153
 6093POPC   GL116597   7.445  43.137   8.853
 6093POPC   GL216598   7.479  43.018   8.853
 6093POPC   C1A16599   7.437  43.106   8.553
 6093POPC   D2A16600   7.411  43.136   8.253
 6093POPC   C3A16601   7.388  43.110   7.953
 6093POPC   C4A16602   7.454  43.134   7.653
 6093POPC   C1B16603   7.600  42.928   8.553
 6093POPC   C2B16604   7.611  43.004   8.253
 6093POPC   C3B16605   7.603  42.988   7.953
 6093POPC   C4B16606   7.594  42.956   7.653
 6094POPC   NC316607  22.941  26.067   9.453
 6094POPC   PO416608  22.920  26.082   9.153
 6094POPC   GL116609  22.938  26.013   8.853
 6094POPC   GL216610  22.884  26.130   8.853
 6094POPC   C1A16611  22.943  26.086   8.553
 6094POPC   D2A16612  22.930  26.080   8.253
 6094POPC   C3A16613  22.919  26.039   7.953
 6094POPC   C4A16614  22.986  25.994   7.653
 6094POPC   C1B16615  22.697  26.207   8.553
 6094POPC   C2B16616  22.695  26.211   8.253
 6094POPC   C3B16617  22.698  26.157   7.953
 6094POPC   C4B16618  22.753  26.227   7.653
 6095POPC   NC316619   1.949   0.444   9.453
 6095POPC   PO416620   1.970   0.395   9.153
 6095POPC   GL116621   1.966   0.403   8.853
 6095POPC   GL216622   1.980   0.319   8.853
 6095POPC   C1A16623   1.947   0.451   8.553
 6095POPC   D2A16624   1.992   0.404   8.253
 6095POPC   C3A16625   2.034   0.481   7.953
 6095POPC   C4A16626   1.975   0.452   7.653
 6095POPC   C1B16627   1.868   0.182   8.553
 6095POPC   C2B16628   1.853   0.186   8.253
 6095POPC   C3B16629   1.919   0.220   7.953
 6095POPC   C4B16630   1.832   0.228   7.653
 6096POPC   NC316631   2.006  30.740   9.453
 6096POPC   PO416632   1.952  30.681   9.153
 6096POPC   GL116633   2.031  30.656   8.853
 6096POPC   GL216634   1.946  30.565   8.853
 6096POPC   C1A16635   2.005  30.647   8.553
 6096POPC   D2A16636   1.973  30.650   8.253
 6096POPC   C3A16637   2.032  30.721   7.953
 6096POPC   C4A16638   1.950  30.704   7.653
 6096POPC   C1B16639   1.868  30.537   8.553
 6096POPC   C2B16640   1.788  30.530   8.253
 6096POPC   C3B16641   1.811  30.500   7.953
 6096POPC   C4B16642   1.784  30.538   7.653
 6097POPC   NC316643  16.773   0.405   9.453
 6097POPC   PO416644  16.747   0.399   9.153
 6097POPC   GL116645  16.753   0.423   8.853
 6097POPC   GL216646  16.865   0.560   8.853
 6097POPC   C1A16647  16.743   0.448   8.553
 6097POPC   D2A16648  16.702   0.476   8.253
 6097POPC   C3A16649  16.778   0.486   7.953
 6097POPC   C4A16650  16.695   0.442   7.653
 6097POPC   C1B16651  16.872   0.585   8.553
 6097POPC   C2B16652  16.897   0.635   8.253
 6097POPC   C3B16653  16.920   0.637   7.953
 6097POPC   C4B16654  16.880   0.617   7.653
 6098POPC   NC316655  20.640  44.623   9.453
 6098POPC   PO416656  20.606  44.675   9.153
 6098POPC   GL116657  20.605  44.676   8.853
 6098POPC   GL216658  20.746  44.678   8.853
 6098POPC   C1A16659  20.650  44.656   8.553
 6098POPC   D2A16660  20.581  44.710   8.253
 6098POPC   C3A16661  20.585  44.681   7.953
 6098POPC   C4A16662  20.591  44.705   7.653
 6098POPC   C1B16663  20.902  44.724   8.553
 6098POPC   C2B16664  20.829  44.667   8.253
 6098POPC   C3B16665  20.854  44.765   7.953
 6098POPC   C4B16666  20.844  44.731   7.653
 6099POPC   NC316667   5.895  19.084   9.453
 6099POPC   PO416668   5.825  19.079   9.153
 6099POPC   GL116669   5.914  19.032   8.853
 6099POPC   GL216670   5.809  18.944   8.853
 6099POPC   C1A16671   5.841  19.075   8.553
 6099POPC   D2A16672   5.914  19.056   8.253
 6099POPC   C3A16673   5.856  19.027   7.953
 6099POPC   C4A16674   5.899  19.037   7.653
 6099POPC   C1B16675   5.717  18.844   8.553
 6099POPC   C2B16676   5.788  18.816   8.253
 6099POPC   C3B16677   5.707  18.813   7.953
 6099POPC   C4B16678   5.712  18.844   7.653
 6100POPC   NC316679  15.953  43.867   9.453
 6100POPC   PO416680  15.968  43.848   9.153
 6100POPC   GL116681  15.960  43.866   8.853
 6100POPC   GL216682  16.100  43.983   8.853
 6100POPC   C1A16683  15.967  43.903   8.553
 6100POPC   D2A16684  15.941  43.848   8.253
 6100POPC   C3A16685  15.943  43.845   7.953
 6100POPC   C4A16686  15.997  43.922   7.653
 6100POPC   C1B16687  16.106  44.076   8.553
 6100POPC   C2B16688  16.195  44.018   8.253
 6100POPC   C3B16689  16.155  44.082   7.953
 6100POPC   C4B16690  16.194  44.025   7.653
 6101POPC   NC316691  23.756  36.109   9.453
 6101POPC   PO416692  23.702  36.133   9.153
 6101POPC   GL116693  23.669  36.136   8.853
 6101POPC   GL216694  23.611  36.049   8.853
 6101POPC   C1A16695  23.729  36.080   8.553
 6101POPC   D2A16696  23.682  36.162   8.253
 6101POPC   C3A16697  23.754  36.111   7.953
 6101POPC   C4A16698  23.687  36.107   7.653
 6101POPC   C1B16699  23.557  36.009   8.553
 6101POPC   C2B16700  23.552  35.971   8.253
 6101POPC   C3B16701  23.558  35.966   7.953
 6101POPC   C4B16702  23.542  36.010   7.653
 6102POPC   NC316703   5.848  26.793   9.453
 6102POPC   PO416704   5.880  26.800   9.153
 6102POPC   GL116705   5.875  26.818   8.853
 6102POPC   GL216706   6.026  26.798   8.853
 6102POPC   C1A16707   5.875  26.791   8.553
 6102POPC   D2A16708   5.879  26.805   8.253
 6102POPC   C3A16709   5.891  26.779   7.953
 6102POPC   C4A16710   5.861  26.815   7.653
 6102POPC   C1B16711   6.108  26.682   8.553
 6102POPC   C2B16712   6.066  26.681   8.253
 6102POPC   C3B16713   6.062  26.754   7.953
 6102POPC   C4B16714   6.139  26.714   7.653
 6103POPC   NC316715  30.676  40.027   9.453
 6103POPC   PO416716  30.679  40.041   9.153
 6103POPC   GL116717  30.717  40.055   8.853
 6103POPC   GL216718  30.641  39.847   8.853
 6103POPC   C1A16719  30.678  40.009   8.553
 6103POPC   D2A16720  30.740  40.034   8.253
 6103POPC   C3A16721  30.661  40.018   7.953
 6103POPC   C4A16722  30.739  40.042   7.653
 6103POPC   C1B16723  30.686  39.737   8.553
 6103POPC   C2B16724  30.613  39.746   8.253
 6103POPC   C3B16725  30.692  39.797   7.953
 6103POPC   C4B16726  30.602  39.740   7.653
 6104POPC   NC316727  37.685   4.301   9.453
 6104POPC   PO416728  37.644   4.332   9.153
 6104POPC   GL116729  37.715   4.323   8.853
 6104POPC   GL216730  37.740   4.440   8.853
 6104POPC   C1A16731  37.683   4.364   8.553
 6104POPC   D2A16732  37.630   4.269   8.253
 6104POPC   C3A16733  37.659   4.331   7.953
 6104POPC   C4A16734  37.724   4.324   7.653
 6104POPC   C1B16735  37.768   4.588   8.553
 6104POPC   C2B16736  37.722   4.512   8.253
 6104POPC   C3B16737  37.744   4.553   7.953
 6104POPC   C4B16738  37.757   4.528   7.653
 6105POPC   NC316739   8.989   3.560   9.453
 6105POPC   PO416740   9.022   3.496   9.153
 6105POPC   GL116741   8.962   3.532   8.853
 6105POPC   GL216742   8.880   3.642   8.853
 6105POPC   C1A16743   8.942   3.528   8.553
 6105POPC   D2A16744   8.963   3.533   8.253
 6105POPC   C3A16745   9.003   3.513   7.953
 6105POPC   C4A16746   9.014   3.589   7.653
 6105POPC   C1B16747   8.839   3.691   8.553
 6105POPC   C2B16748   8.840   3.732   8.253
 6105POPC   C3B16749   8.849   3.719   7.953
 6105POPC   C4B16750   8.776   3.773   7.653
 6106POPC   NC316751   5.115  39.986   9.453
 6106POPC   PO416752   5.123  40.045   9.153
 6106POPC   GL116753   5.121  39.957   8.853
 6106POPC   GL216754   5.202  40.005   8.853
 6106POPC   C1A16755   5.111  40.005   8.553
 6106POPC   D2A16756   5.113  39.996   8.253
 6106POPC   C3A16757   5.123  39.975   7.953
 6106POPC   C4A16758   5.135  40.032   7.653
 6106POPC   C1B16759   5.292  40.134   8.553
 6106POPC   C2B16760   5.307  40.052   8.253
 6106POPC   C3B16761   5.309  40.112   7.953
 6106POPC   C4B16762   5.286  40.100   7.653
 6107POPC   NC316763  34.605   5.904   9.453
 6107POPC   PO416764  34.544   5.825   9.153
 6107POPC   GL116765  34.553   5.821   8.853
 6107POPC   GL216766  34.613   5.752   8.853
 6107POPC   C1A16767  34.619   5.829   8.553
 6107POPC   D2A16768  34.533   5.847   8.253
 6107POPC   C3A16769  34.577   5.862   7.953
 6107POPC   C4A16770  34.618   5.919   7.653
 6107POPC   C1B16771  34.658   5.650   8.553
 6107POPC   C2B16772  34.646   5.657   8.253
 6107POPC   C3B16773  34.720   5.645   7.953
 6107POPC   C4B16774  34.666   5.657   7.653
 6108POPC   NC316775  41.561  21.370   9.453
 6108POPC   PO416776  41.601  21.407   9.153
 6108POPC   GL116777  41.604  21.361   8.853
 6108POPC   GL216778  41.455  21.509   8.853
 6108POPC   C1A16779  41.567  21.408   8.553
 6108POPC   D2A16780  41.562  21.359   8.253
 6108POPC   C3A16781  41.575  21.359   7.953
 6108POPC   C4A16782  41.604  21.435   7.653
 6108POPC   C1B16783  41.381  21.527   8.553
 6108POPC   C2B16784  41.411  21.546   8.253
 6108POPC   C3B16785  41.437  21.589   7.953
 6108POPC   C4B16786  41.411  21.526   7.653
 6109POPC   NC316787   1.259   7.388   9.453
 6109POPC   PO416788   1.187   7.383   9.153
 6109POPC   GL116789   1.207   7.396   8.853
 6109POPC   GL216790   1.363   7.316   8.853
 6109POPC   C1A16791   1.197   7.463   8.553
 6109POPC   D2A16792   1.197   7.386   8.253
 6109POPC   C3A16793   1.232   7.395   7.953
 6109POPC   C4A16794   1.231   7.387   7.653
 6109POPC   C1B16795   1.440   7.338   8.553
 6109POPC   C2B16796   1.411   7.353   8.253
 6109POPC   C3B16797   1.446   7.290   7.953
 6109POPC   C4B16798   1.436   7.310   7.653
 6110POPC   NC316799  31.452  21.360   9.453
 6110POPC   PO416800  31.464  21.431   9.153
 6110POPC   GL116801  31.462  21.379   8.853
 6110POPC   GL216802  31.478  21.534   8.853
 6110POPC   C1A16803  31.463  21.414   8.553
 6110POPC   D2A16804  31.492  21.408   8.253
 6110POPC   C3A16805  31.437  21.420   7.953
 6110POPC   C4A16806  31.474  21.375   7.653
 6110POPC   C1B16807  31.376  21.628   8.553
 6110POPC   C2B16808  31.451  21.635   8.253
 6110POPC   C3B16809  31.386  21.611   7.953
 6110POPC   C4B16810  31.375  21.638   7.653
 6111POPC   NC316811   7.404   8.944   9.453
 6111POPC   PO416812   7.463   9.005   9.153
 6111POPC   GL116813   7.410   8.986   8.853
 6111POPC   GL216814   7.286   8.892   8.853
 6111POPC   C1A16815   7.424   9.001   8.553
 6111POPC   D2A16816   7.420   9.007   8.253
 6111POPC   C3A16817   7.430   8.942   7.953
 6111POPC   C4A16818   7.397   8.996   7.653
 6111POPC   C1B16819   7.221   8.829   8.553
 6111POPC   C2B16820   7.247   8.804   8.253
 6111POPC   C3B16821   7.235   8.858   7.953
 6111POPC   C4B16822   7.192   8.801   7.653
 6112POPC   NC316823  33.025   8.206   9.453
 6112POPC   PO416824  33.008   8.192   9.153
 6112POPC   GL116825  33.048   8.222   8.853
 6112POPC   GL216826  33.130   8.135   8.853
 6112POPC   C1A16827  33.043   8.194   8.553
 6112POPC   D2A16828  33.057   8.214   8.253
 6112POPC   C3A16829  33.038   8.242   7.953
 6112POPC   C4A16830  33.058   8.218   7.653
 6112POPC   C1B16831  33.206   8.098   8.553
 6112POPC   C2B16832  33.223   8.141   8.253
 6112POPC   C3B16833  33.207   8.119   7.953
 6112POPC   C4B16834  33.237   8.070   7.653
 6113POPC   NC316835   8.190  13.649   9.453
 6113POPC   PO416836   8.162  13.613   9.153
 6113POPC   GL116837   8.153  13.594   8.853
 6113POPC   GL216838   8.042  13.666   8.853
 6113POPC   C1A16839   8.208  13.674   8.553
 6113POPC   D2A16840   8.225  13.617   8.253
 6113POPC   C3A16841   8.191  13.639   7.953
 6113POPC   C4A16842   8.213  13.667   7.653
 6113POPC   C1B16843   7.942  13.729   8.553
 6113POPC   C2B16844   8.000  13.720   8.253
 6113POPC   C3B16845   7.965  13.696   7.953
 6113POPC   C4B16846   7.994  13.713   7.653
 6114POPC   NC316847   4.341  12.838   9.453
 6114POPC   PO416848   4.311  12.894   9.153
 6114POPC   GL116849   4.351  12.875   8.853
 6114POPC   GL216850   4.305  12.990   8.853
 6114POPC   C1A16851   4.359  12.855   8.553
 6114POPC   D2A16852   4.282  12.807   8.253
 6114POPC   C3A16853   4.315  12.846   7.953
 6114POPC   C4A16854   4.270  12.872   7.653
 6114POPC   C1B16855   4.243  13.111   8.553
 6114POPC   C2B16856   4.236  13.117   8.253
 6114POPC   C3B16857   4.231  13.081   7.953
 6114POPC   C4B16858   4.285  13.050   7.653
 6115POPC   NC316859   2.770  42.365   9.453
 6115POPC   PO416860   2.724  42.304   9.153
 6115POPC   GL116861   2.753  42.308   8.853
 6115POPC   GL216862   2.762  42.238   8.853
 6115POPC   C1A16863   2.754  42.309   8.553
 6115POPC   D2A16864   2.745  42.324   8.253
 6115POPC   C3A16865   2.730  42.379   7.953
 6115POPC   C4A16866   2.777  42.351   7.653
 6115POPC   C1B16867   2.744  42.079   8.553
 6115POPC   C2B16868   2.787  42.113   8.253
 6115POPC   C3B16869   2.778  42.051   7.953
 6115POPC   C4B16870   2.792  42.072   7.653
 6116POPC   NC316871  43.904  41.547   9.453
 6116POPC   PO416872  43.849  41.558   9.153
 6116POPC   GL116873  43.910  41.528   8.853
 6116POPC   GL216874  43.927  41.644   8.853
 6116POPC   C1A16875  43.876  41.573   8.553
 6116POPC   D2A16876  43.898  41.606   8.253
 6116POPC   C3A16877  43.880  41.598   7.953
 6116POPC   C4A16878  43.898  41.580   7.653
 6116POPC   C1B16879  44.110  41.733   8.553
 6116POPC   C2B16880  44.089  41.764   8.253
 6116POPC   C3B16881  44.041  41.725   7.953
 6116POPC   C4B16882  44.031  41.693   7.653
 6117POPC   NC316883   9.013  32.236   9.453
 6117POPC   PO416884   9.005  32.231   9.153
 6117POPC   GL116885   8.924  32.206   8.853
 6117POPC   GL216886   9.060  32.346   8.853
 6117POPC   C1A16887   8.965  32.288   8.553
 6117POPC   D2A16888   8.960  32.278   8.253
 6117POPC   C3A16889   8.946  32.294   7.953
 6117POPC   C4A16890   8.975  32.234   7.653
 6117POPC   C1B16891   9.145  32.444   8.553
 6117POPC   C2B16892   9.130  32.487   8.253
 6117POPC   C3B16893   9.136  32.426   7.953
 6117POPC   C4B16894   9.086  32.472   7.653
 6118POPC   NC316895  41.520  33.008   9.453
 6118POPC   PO416896  41.594  33.046   9.153
 6118POPC   GL116897  41.511  33.004   8.853
 6118POPC   GL216898  41.699  33.020   8.853
 6118POPC   C1A16899  41.534  33.019   8.553
 6118POPC   D2A16900  41.556  32.988   8.253
 6118POPC   C3A16901  41.539  33.032   7.953
 6118POPC   C4A16902  41.606  32.985   7.653
 6118POPC   C1B16903  41.773  33.059   8.553
 6118POPC   C2B16904  41.787  33.064   8.253
 6118POPC   C3B16905  41.789  33.110   7.953
 6118POPC   C4B16906  41.767  33.096   7.653
 6119POPC   NC316907  13.638  33.067   9.453
 6119POPC   PO416908  13.609  32.995   9.153
 6119POPC   GL116909  13.582  33.003   8.853
 6119POPC   GL216910  13.546  33.159   8.853
 6119POPC   C1A16911  13.635  33.035   8.553
 6119POPC   D2A16912  13.631  33.006   8.253
 6119POPC   C3A16913  13.626  33.057   7.953
 6119POPC   C4A16914  13.649  32.997   7.653
 6119POPC   C1B16915  13.544  33.293   8.553
 6119POPC   C2B16916  13.533  33.268   8.253
 6119POPC   C3B16917  13.580  33.270   7.953
 6119POPC   C4B16918  13.518  33.232   7.653
 6120POPC   NC316919  42.297  29.927   9.453
 6120POPC   PO416920  42.354  29.957   9.153
 6120POPC   GL116921  42.309  29.905   8.853
 6120POPC   GL216922  42.185  29.896   8.853
 6120POPC   C1A16923  42.347  29.969   8.553
 6120POPC   D2A16924  42.343  29.893   8.253
 6120POPC   C3A16925  42.319  29.917   7.953
 6120POPC   C4A16926  42.314  29.903   7.653
 6120POPC   C1B16927  42.061  29.976   8.553
 6120POPC   C2B16928  42.134  29.927   8.253
 6120POPC   C3B16929  42.054  29.989   7.953
 6120POPC   C4B16930  42.084  29.959   7.653
 6121POPC   NC316931  11.252  18.260   9.453
 6121POPC   PO416932  11.328  18.284   9.153
 6121POPC   GL116933  11.288  18.287   8.853
 6121POPC   GL216934  11.378  18.234   8.853
 6121POPC   C1A16935  11.293  18.271   8.553
 6121POPC   D2A16936  11.284  18.252   8.253
 6121POPC   C3A16937  11.268  18.272   7.953
 6121POPC   C4A16938  11.349  18.251   7.653
 6121POPC   C1B16939  11.525  18.210   8.553
 6121POPC   C2B16940  11.499  18.210   8.253
 6121POPC   C3B16941  11.507  18.225   7.953
 6121POPC   C4B16942  11.540  18.225   7.653
 6122POPC   NC316943   2.748  37.688   9.453
 6122POPC   PO416944   2.736  37.688   9.153
 6122POPC   GL116945   2.731  37.684   8.853
 6122POPC   GL216946   2.758  37.850   8.853
 6122POPC   C1A16947   2.764  37.698   8.553
 6122POPC   D2A16948   2.764  37.690   8.253
 6122POPC   C3A16949   2.760  37.671   7.953
 6122POPC   C4A16950   2.794  37.661   7.653
 6122POPC   C1B16951   2.677  37.962   8.553
 6122POPC   C2B16952   2.700  37.957   8.253
 6122POPC   C3B16953   2.774  37.899   7.953
 6122POPC   C4B16954   2.738  37.924   7.653
 6123POPC   NC316955  42.350  36.935   9.453
 6123POPC   PO416956  42.361  36.885   9.153
 6123POPC   GL116957  42.336  36.870   8.853
 6123POPC   GL216958  42.286  37.066   8.853
 6123POPC   C1A16959  42.381  36.946   8.553
 6123POPC   D2A16960  42.325  36.952   8.253
 6123POPC   C3A16961  42.346  36.874   7.953
 6123POPC   C4A16962  42.305  36.943   7.653
 6123POPC   C1B16963  42.293  37.157   8.553
 6123POPC   C2B16964  42.289  37.115   8.253
 6123POPC   C3B16965  42.245  37.110   7.953
 6123POPC   C4B16966  42.322  37.114   7.653
 6124POPC   NC316967   1.970  15.219   9.453
 6124POPC   PO416968   2.030  15.212   9.153
 6124POPC   GL116969   1.947  15.148   8.853
 6124POPC   GL216970   2.094  15.250   8.853
 6124POPC   C1A16971   1.959  15.174   8.553
 6124POPC   D2A16972   1.972  15.156   8.253
 6124POPC   C3A16973   2.002  15.203   7.953
 6124POPC   C4A16974   2.000  15.185   7.653
 6124POPC   C1B16975   2.233  15.310   8.553
 6124POPC   C2B16976   2.219  15.234   8.253
 6124POPC   C3B16977   2.258  15.319   7.953
 6124POPC   C4B16978   2.229  15.298   7.653
 6125POPC   NC316979  19.067  24.473   9.453
 6125POPC   PO416980  19.097  24.450   9.153
 6125POPC   GL116981  19.052  24.527   8.853
 6125POPC   GL216982  19.208  24.416   8.853
 6125POPC   C1A16983  19.045  24.456   8.553
 6125POPC   D2A16984  19.100  24.524   8.253
 6125POPC   C3A16985  19.017  24.514   7.953
 6125POPC   C4A16986  19.071  24.455   7.653
 6125POPC   C1B16987  19.275  24.405   8.553
 6125POPC   C2B16988  19.315  24.433   8.253
 6125POPC   C3B16989  19.279  24.392   7.953
 6125POPC   C4B16990  19.334  24.348   7.653
 6126POPC   NC316991  12.040   4.361   9.453
 6126POPC   PO416992  12.055   4.349   9.153
 6126POPC   GL116993  12.080   4.330   8.853
 6126POPC   GL216994  12.158   4.290   8.853
 6126POPC   C1A16995  12.081   4.351   8.553
 6126POPC   D2A16996  12.084   4.356   8.253
 6126POPC   C3A16997  12.123   4.281   7.953
 6126POPC   C4A16998  12.032   4.303   7.653
 6126POPC   C1B16999  12.304   4.244   8.553
 6126POPC   C2B17000  12.300   4.252   8.253
 6126POPC   C3B17001  12.332   4.255   7.953
 6126POPC   C4B17002  12.294   4.243   7.653
 6127POPC   NC317003  21.343  13.675   9.453
 6127POPC   PO417004  21.431  13.603   9.153
 6127POPC   GL117005  21.350  13.584   8.853
 6127POPC   GL217006  21.401  13.457   8.853
 6127POPC   C1A17007  21.430  13.651   8.553
 6127POPC   D2A17008  21.407  13.610   8.253
 6127POPC   C3A17009  21.350  13.660   7.953
 6127POPC   C4A17010  21.341  13.630   7.653
 6127POPC   C1B17011  21.440  13.372   8.553
 6127POPC   C2B17012  21.414  13.347   8.253
 6127POPC   C3B17013  21.420  13.396   7.953
 6127POPC   C4B17014  21.438  13.387   7.653
 6128POPC   NC317015  19.087  17.496   9.453
 6128POPC   PO417016  19.055  17.533   9.153
 6128POPC   GL117017  19.066  17.483   8.853
 6128POPC   GL217018  18.974  17.660   8.853
 6128POPC   C1A17019  19.073  17.463   8.553
 6128POPC   D2A17020  19.076  17.476   8.253
 6128POPC   C3A17021  19.030  17.457   7.953
 6128POPC   C4A17022  19.102  17.466   7.653
 6128POPC   C1B17023  18.973  17.684   8.553
 6128POPC   C2B17024  18.923  17.718   8.253
 6128POPC   C3B17025  18.937  17.703   7.953
 6128POPC   C4B17026  18.978  17.695   7.653
 6129POPC   NC317027  34.609  39.972   9.453
 6129POPC   PO417028  34.611  40.043   9.153
 6129POPC   GL117029  34.590  40.050   8.853
 6129POPC   GL217030  34.498  39.989   8.853
 6129POPC   C1A17031  34.619  40.044   8.553
 6129POPC   D2A17032  34.624  39.971   8.253
 6129POPC   C3A17033  34.543  40.013   7.953
 6129POPC   C4A17034  34.575  40.008   7.653
 6129POPC   C1B17035  34.321  39.902   8.553
 6129POPC   C2B17036  34.356  39.924   8.253
 6129POPC   C3B17037  34.351  39.954   7.953
 6129POPC   C4B17038  34.397  39.874   7.653
 6130POPC   NC317039  36.151   8.986   9.453
 6130POPC   PO417040  36.141   8.926   9.153
 6130POPC   GL117041  36.083   8.975   8.853
 6130POPC   GL217042  36.026   8.924   8.853
 6130POPC   C1A17043  36.156   8.948   8.553
 6130POPC   D2A17044  36.131   8.925   8.253
 6130POPC   C3A17045  36.165   8.929   7.953
 6130POPC   C4A17046  36.114   8.981   7.653
 6130POPC   C1B17047  35.875   8.840   8.553
 6130POPC   C2B17048  35.906   8.826   8.253
 6130POPC   C3B17049  35.867   8.868   7.953
 6130POPC   C4B17050  35.897   8.878   7.653
 6131POPC   NC317051  21.357  26.001   9.453
 6131POPC   PO417052  21.351  26.033   9.153
 6131POPC   GL117053  21.425  26.050   8.853
 6131POPC   GL217054  21.487  26.111   8.853
 6131POPC   C1A17055  21.435  26.016   8.553
 6131POPC   D2A17056  21.375  26.077   8.253
 6131POPC   C3A17057  21.346  26.051   7.953
 6131POPC   C4A17058  21.406  26.012   7.653
 6131POPC   C1B17059  21.620  26.210   8.553
 6131POPC   C2B17060  21.540  26.227   8.253
 6131POPC   C3B17061  21.630  26.237   7.953
 6131POPC   C4B17062  21.629  26.243   7.653
 6132POPC   NC317063  15.951   0.411   9.453
 6132POPC   PO417064  15.948   0.399   9.153
 6132POPC   GL117065  15.941   0.427   8.853
 6132POPC   GL217066  15.904   0.502   8.853
 6132POPC   C1A17067  15.938   0.444   8.553
 6132POPC   D2A17068  15.992   0.439   8.253
 6132POPC   C3A17069  15.924   0.455   7.953
 6132POPC   C4A17070  15.972   0.439   7.653
 6132POPC   C1B17071  15.833   0.622   8.553
 6132POPC   C2B17072  15.891   0.677   8.253
 6132POPC   C3B17073  15.897   0.689   7.953
 6132POPC   C4B17074  15.814   0.692   7.653
 6133POPC   NC317075  16.757  33.070   9.453
 6133POPC   PO417076  16.718  33.013   9.153
 6133POPC   GL117077  16.771  33.061   8.853
 6133POPC   GL217078  16.701  32.935   8.853
 6133POPC   C1A17079  16.708  32.982   8.553
 6133POPC   D2A17080  16.777  33.040   8.253
 6133POPC   C3A17081  16.748  33.067   7.953
 6133POPC   C4A17082  16.768  33.033   7.653
 6133POPC   C1B17083  16.613  32.760   8.553
 6133POPC   C2B17084  16.662  32.839   8.253
 6133POPC   C3B17085  16.630  32.776   7.953
 6133POPC   C4B17086  16.627  32.761   7.653
 6134POPC   NC317087  18.317  31.487   9.453
 6134POPC   PO417088  18.318  31.513   9.153
 6134POPC   GL117089  18.276  31.464   8.853
 6134POPC   GL217090  18.341  31.355   8.853
 6134POPC   C1A17091  18.308  31.453   8.553
 6134POPC   D2A17092  18.309  31.433   8.253
 6134POPC   C3A17093  18.280  31.484   7.953
 6134POPC   C4A17094  18.325  31.467   7.653
 6134POPC   C1B17095  18.358  31.180   8.553
 6134POPC   C2B17096  18.323  31.213   8.253
 6134POPC   C3B17097  18.289  31.177   7.953
 6134POPC   C4B17098  18.303  31.176   7.653
 6135POPC   NC317099  25.282  11.348   9.453
 6135POPC   PO417100  25.251  11.294   9.153
 6135POPC   GL117101  25.289  11.300   8.853
 6135POPC   GL217102  25.197  11.438   8.853
 6135POPC   C1A17103  25.261  11.288   8.553
 6135POPC   D2A17104  25.250  11.326   8.253
 6135POPC   C3A17105  25.301  11.263   7.953
 6135POPC   C4A17106  25.275  11.314   7.653
 6135POPC   C1B17107  25.207  11.493   8.553
 6135POPC   C2B17108  25.217  11.561   8.253
 6135POPC   C3B17109  25.231  11.534   7.953
 6135POPC   C4B17110  25.222  11.569   7.653
 6136POPC   NC317111  31.485  40.035   9.453
 6136POPC   PO417112  31.478  40.049   9.153
 6136POPC   GL117113  31.512  39.991   8.853
 6136POPC   GL217114  31.394  39.868   8.853
 6136POPC   C1A17115  31.437  39.960   8.553
 6136POPC   D2A17116  31.458  40.004   8.253
 6136POPC   C3A17117  31.510  39.983   7.953
 6136POPC   C4A17118  31.513  40.050   7.653
 6136POPC   C1B17119  31.343  39.752   8.553
 6136POPC   C2B17120  31.367  39.785   8.253
 6136POPC   C3B17121  31.369  39.819   7.953
 6136POPC   C4B17122  31.314  39.826   7.653
 6137POPC   NC317123  29.960  16.758   9.453
 6137POPC   PO417124  29.893  16.721   9.153
 6137POPC   GL117125  29.912  16.762   8.853
 6137POPC   GL217126  29.807  16.879   8.853
 6137POPC   C1A17127  29.916  16.722   8.553
 6137POPC   D2A17128  29.875  16.732   8.253
 6137POPC   C3A17129  29.939  16.684   7.953
 6137POPC   C4A17130  29.903  16.687   7.653
 6137POPC   C1B17131  29.801  16.921   8.553
 6137POPC   C2B17132  29.810  16.955   8.253
 6137POPC   C3B17133  29.747  16.911   7.953
 6137POPC   C4B17134  29.782  16.950   7.653
 6138POPC   NC317135  29.939  24.489   9.453
 6138POPC   PO417136  29.952  24.473   9.153
 6138POPC   GL117137  29.895  24.525   8.853
 6138POPC   GL217138  29.786  24.468   8.853
 6138POPC   C1A17139  29.930  24.492   8.553
 6138POPC   D2A17140  29.894  24.457   8.253
 6138POPC   C3A17141  29.959  24.502   7.953
 6138POPC   C4A17142  29.932  24.534   7.653
 6138POPC   C1B17143  29.703  24.413   8.553
 6138POPC   C2B17144  29.651  24.409   8.253
 6138POPC   C3B17145  29.653  24.445   7.953
 6138POPC   C4B17146  29.661  24.368   7.653
 6139POPC   NC317147  29.126  26.833   9.453
 6139POPC   PO417148  29.185  26.812   9.153
 6139POPC   GL117149  29.188  26.776   8.853
 6139POPC   GL217150  29.222  26.963   8.853
 6139POPC   C1A17151  29.189  26.777   8.553
 6139POPC   D2A17152  29.142  26.771   8.253
 6139POPC   C3A17153  29.154  26.770   7.953
 6139POPC   C4A17154  29.140  26.829   7.653
 6139POPC   C1B17155  29.257  26.979   8.553
 6139POPC   C2B17156  29.281  27.053   8.253
 6139POPC   C3B17157  29.250  26.990   7.953
 6139POPC   C4B17158  29.252  26.996   7.653
 6140POPC   NC317159   3.494   6.607   9.453
 6140POPC   PO417160   3.582   6.628   9.153
 6140POPC   GL117161   3.578   6.603   8.853
 6140POPC   GL217162   3.639   6.696   8.853
 6140POPC   C1A17163   3.559   6.615   8.553
 6140POPC   D2A17164   3.561   6.641   8.253
 6140POPC   C3A17165   3.549   6.681   7.953
 6140POPC   C4A17166   3.503   6.596   7.653
 6140POPC   C1B17167   3.732   6.799   8.553
 6140POPC   C2B17168   3.761   6.800   8.253
 6140POPC   C3B17169   3.756   6.849   7.953
 6140POPC   C4B17170   3.693   6.845   7.653
 6141POPC   NC317171  41.565  43.132   9.453
 6141POPC   PO417172  41.560  43.122   9.153
 6141POPC   GL117173  41.522  43.108   8.853
 6141POPC   GL217174  41.661  43.133   8.853
 6141POPC   C1A17175  41.600  43.086   8.553
 6141POPC   D2A17176  41.587  43.098   8.253
 6141POPC   C3A17177  41.521  43.082   7.953
 6141POPC   C4A17178  41.527  43.145   7.653
 6141POPC   C1B17179  41.805  43.100   8.553
 6141POPC   C2B17180  41.786  43.054   8.253
 6141POPC   C3B17181  41.813  43.076   7.953
 6141POPC   C4B17182  41.775  43.039   7.653
 6142POPC   NC317183   5.094  31.513   9.453
 6142POPC   PO417184   5.122  31.449   9.153
 6142POPC   GL117185   5.049  31.459   8.853
 6142POPC   GL217186   5.114  31.305   8.853
 6142POPC   C1A17187   5.102  31.491   8.553
 6142POPC   D2A17188   5.066  31.488   8.253
 6142POPC   C3A17189   5.071  31.500   7.953
 6142POPC   C4A17190   5.102  31.512   7.653
 6142POPC   C1B17191   5.155  31.183   8.553
 6142POPC   C2B17192   5.128  31.236   8.253
 6142POPC   C3B17193   5.091  31.238   7.953
 6142POPC   C4B17194   5.136  31.208   7.653
 6143POPC   NC317195  37.694  44.653   9.453
 6143POPC   PO417196  37.702  44.710   9.153
 6143POPC   GL117197  37.693  44.632   8.853
 6143POPC   GL217198  37.638  44.776   8.853
 6143POPC   C1A17199  37.716  44.692   8.553
 6143POPC   D2A17200  37.649  44.706   8.253
 6143POPC   C3A17201  37.692  44.647   7.953
 6143POPC   C4A17202  37.707  44.705   7.653
 6143POPC   C1B17203  37.626  44.897   8.553
 6143POPC   C2B17204  37.689  44.925   8.253
 6143POPC   C3B17205  37.669  44.873   7.953
 6143POPC   C4B17206  37.596  44.914   7.653
 6144POPC   NC317207  35.369   7.444   9.453
 6144POPC   PO417208  35.323   7.375   9.153
 6144POPC   GL117209  35.320   7.419   8.853
 6144POPC   GL217210  35.417   7.496   8.853
 6144POPC   C1A17211  35.396   7.444   8.553
 6144POPC   D2A17212  35.395   7.401   8.253
 6144POPC   C3A17213  35.335   7.402   7.953
 6144POPC   C4A17214  35.357   7.423   7.653
 6144POPC   C1B17215  35.553   7.530   8.553
 6144POPC   C2B17216  35.579   7.557   8.253
 6144POPC   C3B17217  35.549   7.523   7.953
 6144POPC   C4B17218  35.608   7.569   7.653
 6145POPC   NC317219  19.843  42.350   9.453
 6145POPC   PO417220  19.878  42.317   9.153
 6145POPC   GL117221  19.879  42.374   8.853
 6145POPC   GL217222  19.952  42.302   8.853
 6145POPC   C1A17223  19.842  42.300   8.553
 6145POPC   D2A17224  19.802  42.286   8.253
 6145POPC   C3A17225  19.864  42.357   7.953
 6145POPC   C4A17226  19.825  42.349   7.653
 6145POPC   C1B17227  20.104  42.244   8.553
 6145POPC   C2B17228  20.044  42.213   8.253
 6145POPC   C3B17229  20.115  42.259   7.953
 6145POPC   C4B17230  20.113  42.214   7.653
 6146POPC   NC317231  25.219   1.243   9.453
 6146POPC   PO417232  25.272   1.210   9.153
 6146POPC   GL117233  25.262   1.175   8.853
 6146POPC   GL217234  25.169   1.245   8.853
 6146POPC   C1A17235  25.305   1.210   8.553
 6146POPC   D2A17236  25.285   1.221   8.253
 6146POPC   C3A17237  25.226   1.219   7.953
 6146POPC   C4A17238  25.218   1.254   7.653
 6146POPC   C1B17239  25.047   1.374   8.553
 6146POPC   C2B17240  25.037   1.383   8.253
 6146POPC   C3B17241  25.074   1.375   7.953
 6146POPC   C4B17242  25.001   1.330   7.653
 6147POPC   NC317243  12.848  40.827   9.453
 6147POPC   PO417244  12.884  40.814   9.153
 6147POPC   GL117245  12.839  40.766   8.853
 6147POPC   GL217246  12.721  40.698   8.853
 6147POPC   C1A17247  12.803  40.769   8.553
 6147POPC   D2A17248  12.841  40.761   8.253
 6147POPC   C3A17249  12.850  40.789   7.953
 6147POPC   C4A17250  12.808  40.786   7.653
 6147POPC   C1B17251  12.616  40.698   8.553
 6147POPC   C2B17252  12.626  40.740   8.253
 6147POPC   C3B17253  12.607  40.663   7.953
 6147POPC   C4B17254  12.641  40.655   7.653
 6148POPC   NC317255   0.462  22.975   9.453
 6148POPC   PO417256   0.454  22.900   9.153
 6148POPC   GL117257   0.467  22.976   8.853
 6148POPC   GL217258   0.268  22.912   8.853
 6148POPC   C1A17259   0.416  22.895   8.553
 6148POPC   D2A17260   0.418  22.900   8.253
 6148POPC   C3A17261   0.404  22.964   7.953
 6148POPC   C4A17262   0.443  22.937   7.653
 6148POPC   C1B17263   0.227  22.885   8.553
 6148POPC   C2B17264   0.210  22.911   8.253
 6148POPC   C3B17265   0.222  22.889   7.953
 6148POPC   C4B17266   0.189  22.901   7.653
 6149POPC   NC317267   2.770  12.085   9.453
 6149POPC   PO417268   2.782  12.083   9.153
 6149POPC   GL117269   2.757  12.074   8.853
 6149POPC   GL217270   2.774  12.238   8.853
 6149POPC   C1A17271   2.801  12.028   8.553
 6149POPC   D2A17272   2.735  12.074   8.253
 6149POPC   C3A17273   2.769  12.103   7.953
 6149POPC   C4A17274   2.815  12.075   7.653
 6149POPC   C1B17275   2.888  12.279   8.553
 6149POPC   C2B17276   2.875  12.351   8.253
 6149POPC   C3B17277   2.837  12.331   7.953
 6149POPC   C4B17278   2.870  12.338   7.653
 6150POPC   NC317279  27.605  35.381   9.453
 6150POPC   PO417280  27.616  35.378   9.153
 6150POPC   GL117281  27.599  35.346   8.853
 6150POPC   GL217282  27.534  35.461   8.853
 6150POPC   C1A17283  27.602  35.395   8.553
 6150POPC   D2A17284  27.568  35.337   8.253
 6150POPC   C3A17285  27.610  35.367   7.953
 6150POPC   C4A17286  27.586  35.366   7.653
 6150POPC   C1B17287  27.477  35.549   8.553
 6150POPC   C2B17288  27.487  35.616   8.253
 6150POPC   C3B17289  27.489  35.597   7.953
 6150POPC   C4B17290  27.450  35.620   7.653
 6151POPC   NC317291  11.258  33.760   9.453
 6151POPC   PO417292  11.280  33.785   9.153
 6151POPC   GL117293  11.319  33.781   8.853
 6151POPC   GL217294  11.363  33.951   8.853
 6151POPC   C1A17295  11.266  33.768   8.553
 6151POPC   D2A17296  11.298  33.803   8.253
 6151POPC   C3A17297  11.301  33.847   7.953
 6151POPC   C4A17298  11.295  33.812   7.653
 6151POPC   C1B17299  11.402  34.092   8.553
 6151POPC   C2B17300  11.377  34.024   8.253
 6151POPC   C3B17301  11.374  34.066   7.953
 6151POPC   C4B17302  11.315  34.084   7.653
 6152POPC   NC317303  43.094  38.446   9.453
 6152POPC   PO417304  43.147  38.499   9.153
 6152POPC   GL117305  43.080  38.461   8.853
 6152POPC   GL217306  42.953  38.440   8.853
 6152POPC   C1A17307  43.086  38.407   8.553
 6152POPC   D2A17308  43.064  38.424   8.253
 6152POPC   C3A17309  43.067  38.473   7.953
 6152POPC   C4A17310  43.063  38.484   7.653
 6152POPC   C1B17311  42.835  38.459   8.553
 6152POPC   C2B17312  42.819  38.458   8.253
 6152POPC   C3B17313  42.869  38.511   7.953
 6152POPC   C4B17314  42.857  38.452   7.653
 6153POPC   NC317315  43.128  10.500   9.453
 6153POPC   PO417316  43.104  10.500   9.153
 6153POPC   GL117317  43.064  10.495   8.853
 6153POPC   GL217318  43.148  10.417   8.853
 6153POPC   C1A17319  43.126  10.515   8.553
 6153POPC   D2A17320  43.129  10.509   8.253
 6153POPC   C3A17321  43.106  10.554   7.953
 6153POPC   C4A17322  43.125  10.539   7.653
 6153POPC   C1B17323  43.207  10.342   8.553
 6153POPC   C2B17324  43.213  10.270   8.253
 6153POPC   C3B17325  43.293  10.319   7.953
 6153POPC   C4B17326  43.216  10.313   7.653
 6154POPC   NC317327  26.069  37.648   9.453
 6154POPC   PO417328  25.995  37.713   9.153
 6154POPC   GL117329  26.069  37.663   8.853
 6154POPC   GL217330  26.139  37.723   8.853
 6154POPC   C1A17331  26.003  37.643   8.553
 6154POPC   D2A17332  26.084  37.686   8.253
 6154POPC   C3A17333  26.031  37.637   7.953
 6154POPC   C4A17334  26.016  37.708   7.653
 6154POPC   C1B17335  26.242  37.642   8.553
 6154POPC   C2B17336  26.281  37.722   8.253
 6154POPC   C3B17337  26.247  37.669   7.953
 6154POPC   C4B17338  26.264  37.625   7.653
 6155POPC   NC317339   1.240  30.739   9.453
 6155POPC   PO417340   1.167  30.726   9.153
 6155POPC   GL117341   1.219  30.730   8.853
 6155POPC   GL217342   1.368  30.661   8.853
 6155POPC   C1A17343   1.258  30.688   8.553
 6155POPC   D2A17344   1.180  30.675   8.253
 6155POPC   C3A17345   1.173  30.680   7.953
 6155POPC   C4A17346   1.240  30.667   7.653
 6155POPC   C1B17347   1.455  30.692   8.553
 6155POPC   C2B17348   1.494  30.632   8.253
 6155POPC   C3B17349   1.489  30.687   7.953
 6155POPC   C4B17350   1.460  30.677   7.653
 6156POPC   NC317351  37.687   5.084   9.453
 6156POPC   PO417352  37.672   5.103   9.153
 6156POPC   GL117353  37.653   5.081   8.853
 6156POPC   GL217354  37.550   5.207   8.853
 6156POPC   C1A17355  37.697   5.073   8.553
 6156POPC   D2A17356  37.655   5.065   8.253
 6156POPC   C3A17357  37.722   5.135   7.953
 6156POPC   C4A17358  37.659   5.074   7.653
 6156POPC   C1B17359  37.503   5.212   8.553
 6156POPC   C2B17360  37.435   5.278   8.253
 6156POPC   C3B17361  37.508   5.227   7.953
 6156POPC   C4B17362  37.462   5.286   7.653
 6157POPC   NC317363  32.242   0.391   9.453
 6157POPC   PO417364  32.274   0.406   9.153
 6157POPC   GL117365  32.221   0.462   8.853
 6157POPC   GL217366  32.309   0.540   8.853
 6157POPC   C1A17367  32.260   0.440   8.553
 6157POPC   D2A17368  32.254   0.417   8.253
 6157POPC   C3A17369  32.244   0.425   7.953
 6157POPC   C4A17370  32.286   0.432   7.653
 6157POPC   C1B17371  32.376   0.629   8.553
 6157POPC   C2B17372  32.364   0.612   8.253
 6157POPC   C3B17373  32.405   0.641   7.953
 6157POPC   C4B17374  32.418   0.634   7.653
 6158POPC   NC317375  43.919  44.683   9.453
 6158POPC   PO417376  43.901  44.707   9.153
 6158POPC   GL117377  43.860  44.658   8.853
 6158POPC   GL217378  43.961  44.640   8.853
 6158POPC   C1A17379  43.858  44.636   8.553
 6158POPC   D2A17380  43.868  44.674   8.253
 6158POPC   C3A17381  43.906  44.710   7.953
 6158POPC   C4A17382  43.876  44.676   7.653
 6158POPC   C1B17383  44.103  44.697   8.553
 6158POPC   C2B17384  44.093  44.656   8.253
 6158POPC   C3B17385  44.141  44.705   7.953
 6158POPC   C4B17386  44.158  44.649   7.653
 6159POPC   NC317387  38.496   9.747   9.453
 6159POPC   PO417388  38.444   9.760   9.153
 6159POPC   GL117389  38.476   9.733   8.853
 6159POPC   GL217390  38.360   9.671   8.853
 6159POPC   C1A17391  38.423   9.743   8.553
 6159POPC   D2A17392  38.455   9.731   8.253
 6159POPC   C3A17393  38.484   9.719   7.953
 6159POPC   C4A17394  38.413   9.727   7.653
 6159POPC   C1B17395  38.259   9.601   8.553
 6159POPC   C2B17396  38.250   9.611   8.253
 6159POPC   C3B17397  38.302   9.541   7.953
 6159POPC   C4B17398  38.296   9.595   7.653
 6160POPC   NC317399  36.876  25.284   9.453
 6160POPC   PO417400  36.952  25.229   9.153
 6160POPC   GL117401  36.870  25.238   8.853
 6160POPC   GL217402  36.889  25.139   8.853
 6160POPC   C1A17403  36.857  25.312   8.553
 6160POPC   D2A17404  36.951  25.297   8.253
 6160POPC   C3A17405  36.891  25.230   7.953
 6160POPC   C4A17406  36.854  25.315   7.653
 6160POPC   C1B17407  36.830  24.974   8.553
 6160POPC   C2B17408  36.833  25.023   8.253
 6160POPC   C3B17409  36.821  25.012   7.953
 6160POPC   C4B17410  36.862  24.979   7.653
 6161POPC   NC317411  12.031  33.000   9.453
 6161POPC   PO417412  12.026  33.071   9.153
 6161POPC   GL117413  12.088  33.039   8.853
 6161POPC   GL217414  12.169  32.969   8.853
 6161POPC   C1A17415  12.071  33.054   8.553
 6161POPC   D2A17416  12.034  33.051   8.253
 6161POPC   C3A17417  12.069  33.065   7.953
 6161POPC   C4A17418  12.081  33.037   7.653
 6161POPC   C1B17419  12.176  32.860   8.553
 6161POPC   C2B17420  12.167  32.831   8.253
 6161POPC   C3B17421  12.218  32.863   7.953
 6161POPC   C4B17422  12.243  32.842   7.653
 6162POPC   NC317423  29.113  21.365   9.453
 6162POPC   PO417424  29.183  21.356   9.153
 6162POPC   GL117425  29.118  21.389   8.853
 6162POPC   GL217426  29.045  21.428   8.853
 6162POPC   C1A17427  29.125  21.347   8.553
 6162POPC   D2A17428  29.139  21.430   8.253
 6162POPC   C3A17429  29.139  21.435   7.953
 6162POPC   C4A17430  29.111  21.387   7.653
 6162POPC   C1B17431  28.913  21.511   8.553
 6162POPC   C2B17432  28.940  21.569   8.253
 6162POPC   C3B17433  28.921  21.603   7.953
 6162POPC   C4B17434  28.911  21.573   7.653
 6163POPC   NC317435  43.126  36.881   9.453
 6163POPC   PO417436  43.129  36.912   9.153
 6163POPC   GL117437  43.153  36.929   8.853
 6163POPC   GL217438  43.143  36.996   8.853
 6163POPC   C1A17439  43.066  36.882   8.553
 6163POPC   D2A17440  43.124  36.938   8.253
 6163POPC   C3A17441  43.091  36.885   7.953
 6163POPC   C4A17442  43.132  36.904   7.653
 6163POPC   C1B17443  43.128  37.192   8.553
 6163POPC   C2B17444  43.138  37.135   8.253
 6163POPC   C3B17445  43.171  37.127   7.953
 6163POPC   C4B17446  43.121  37.193   7.653
 6164POPC   NC317447   9.750  40.769   9.453
 6164POPC   PO417448   9.750  40.788   9.153
 6164POPC   GL117449   9.711  40.788   8.853
 6164POPC   GL217450   9.819  40.901   8.853
 6164POPC   C1A17451   9.748  40.743   8.553
 6164POPC   D2A17452   9.703  40.826   8.253
 6164POPC   C3A17453   9.721  40.809   7.953
 6164POPC   C4A17454   9.719  40.774   7.653
 6164POPC   C1B17455   9.932  40.956   8.553
 6164POPC   C2B17456   9.988  40.968   8.253
 6164POPC   C3B17457   9.988  40.976   7.953
 6164POPC   C4B17458   9.902  40.966   7.653
 6165POPC   NC317459   5.073   8.929   9.453
 6165POPC   PO417460   5.082   9.017   9.153
 6165POPC   GL117461   5.064   8.997   8.853
 6165POPC   GL217462   5.200   8.943   8.853
 6165POPC   C1A17463   5.059   8.995   8.553
 6165POPC   D2A17464   5.052   9.019   8.253
 6165POPC   C3A17465   5.053   8.984   7.953
 6165POPC   C4A17466   5.075   8.943   7.653
 6165POPC   C1B17467   5.332   8.940   8.553
 6165POPC   C2B17468   5.373   8.918   8.253
 6165POPC   C3B17469   5.372   8.938   7.953
 6165POPC   C4B17470   5.375   8.903   7.653
 6166POPC   NC317471   1.197  32.236   9.453
 6166POPC   PO417472   1.249  32.278   9.153
 6166POPC   GL117473   1.236  32.252   8.853
 6166POPC   GL217474   1.340  32.308   8.853
 6166POPC   C1A17475   1.208  32.234   8.553
 6166POPC   D2A17476   1.182  32.240   8.253
 6166POPC   C3A17477   1.202  32.214   7.953
 6166POPC   C4A17478   1.215  32.205   7.653
 6166POPC   C1B17479   1.489  32.292   8.553
 6166POPC   C2B17480   1.438  32.283   8.253
 6166POPC   C3B17481   1.453  32.292   7.953
 6166POPC   C4B17482   1.433  32.354   7.653
 6167POPC   NC317483  22.164  34.532   9.453
 6167POPC   PO417484  22.211  34.547   9.153
 6167POPC   GL117485  22.115  34.624   8.853
 6167POPC   GL217486  22.198  34.487   8.853
 6167POPC   C1A17487  22.145  34.570   8.553
 6167POPC   D2A17488  22.183  34.588   8.253
 6167POPC   C3A17489  22.166  34.575   7.953
 6167POPC   C4A17490  22.207  34.549   7.653
 6167POPC   C1B17491  22.314  34.336   8.553
 6167POPC   C2B17492  22.323  34.413   8.253
 6167POPC   C3B17493  22.312  34.417   7.953
 6167POPC   C4B17494  22.257  34.352   7.653
 6168POPC   NC317495   8.164   8.964   9.453
 6168POPC   PO417496   8.169   8.997   9.153
 6168POPC   GL117497   8.216   8.924   8.853
 6168POPC   GL217498   8.120   9.037   8.853
 6168POPC   C1A17499   8.211   9.019   8.553
 6168POPC   D2A17500   8.172   9.010   8.253
 6168POPC   C3A17501   8.224   8.925   7.953
 6168POPC   C4A17502   8.197   8.951   7.653
 6168POPC   C1B17503   8.061   9.202   8.553
 6168POPC   C2B17504   8.124   9.150   8.253
 6168POPC   C3B17505   8.112   9.239   7.953
 6168POPC   C4B17506   8.062   9.170   7.653
 6169POPC   NC317507  33.033  14.415   9.453
 6169POPC   PO417508  33.069  14.407   9.153
 6169POPC   GL117509  33.061  14.405   8.853
 6169POPC   GL217510  32.998  14.323   8.853
 6169POPC   C1A17511  33.036  14.394   8.553
 6169POPC   D2A17512  33.031  14.399   8.253
 6169POPC   C3A17513  33.064  14.446   7.953
 6169POPC   C4A17514  33.057  14.433   7.653
 6169POPC   C1B17515  32.895  14.216   8.553
 6169POPC   C2B17516  32.897  14.229   8.253
 6169POPC   C3B17517  32.919  14.148   7.953
 6169POPC   C4B17518  32.952  14.207   7.653
 6170POPC   NC317519  40.787  42.314   9.453
 6170POPC   PO417520  40.824  42.377   9.153
 6170POPC   GL117521  40.743  42.328   8.853
 6170POPC   GL217522  40.886  42.260   8.853
 6170POPC   C1A17523  40.802  42.298   8.553
 6170POPC   D2A17524  40.748  42.362   8.253
 6170POPC   C3A17525  40.761  42.292   7.953
 6170POPC   C4A17526  40.833  42.287   7.653
 6170POPC   C1B17527  40.997  42.265   8.553
 6170POPC   C2B17528  40.969  42.276   8.253
 6170POPC   C3B17529  41.036  42.252   7.953
 6170POPC   C4B17530  41.007  42.212   7.653
 6171POPC   NC317531  15.912  42.382   9.453
 6171POPC   PO417532  15.959  42.354   9.153
 6171POPC   GL117533  15.918  42.348   8.853
 6171POPC   GL217534  15.867  42.395   8.853
 6171POPC   C1A17535  16.004  42.303   8.553
 6171POPC   D2A17536  15.997  42.297   8.253
 6171POPC   C3A17537  15.991  42.289   7.953
 6171POPC   C4A17538  15.912  42.324   7.653
 6171POPC   C1B17539  15.734  42.330   8.553
 6171POPC   C2B17540  15.672  42.385   8.253
 6171POPC   C3B17541  15.665  42.383   7.953
 6171POPC   C4B17542  15.729  42.333   7.653
 6172POPC   NC317543  24.520  24.475   9.453
 6172POPC   PO417544  24.454  24.481   9.153
 6172POPC   GL117545  24.471  24.474   8.853
 6172POPC   GL217546  24.429  24.566   8.853
 6172POPC   C1A17547  24.457  24.458   8.553
 6172POPC   D2A17548  24.531  24.483   8.253
 6172POPC   C3A17549  24.455  24.539   7.953
 6172POPC   C4A17550  24.463  24.528   7.653
 6172POPC   C1B17551  24.333  24.655   8.553
 6172POPC   C2B17552  24.250  24.627   8.253
 6172POPC   C3B17553  24.309  24.631   7.953
 6172POPC   C4B17554  24.333  24.618   7.653
 6173POPC   NC317555  12.088   0.459   9.453
 6173POPC   PO417556  12.079   0.447   9.153
 6173POPC   GL117557  12.057   0.428   8.853
 6173POPC   GL217558  12.078   0.606   8.853
 6173POPC   C1A17559  12.060   0.396   8.553
 6173POPC   D2A17560  12.036   0.476   8.253
 6173POPC   C3A17561  12.082   0.428   7.953
 6173POPC   C4A17562  12.084   0.434   7.653
 6173POPC   C1B17563  12.056   0.646   8.553
 6173POPC   C2B17564  12.013   0.695   8.253
 6173POPC   C3B17565  11.997   0.716   7.953
 6173POPC   C4B17566  12.041   0.657   7.653
 6174POPC   NC317567  12.033  21.343   9.453
 6174POPC   PO417568  12.074  21.387   9.153
 6174POPC   GL117569  12.087  21.389   8.853
 6174POPC   GL217570  12.025  21.338   8.853
 6174POPC   C1A17571  12.042  21.395   8.553
 6174POPC   D2A17572  12.054  21.372   8.253
 6174POPC   C3A17573  12.123  21.382   7.953
 6174POPC   C4A17574  12.067  21.351   7.653
 6174POPC   C1B17575  11.857  21.233   8.553
 6174POPC   C2B17576  11.919  21.178   8.253
 6174POPC   C3B17577  11.889  21.215   7.953
 6174POPC   C4B17578  11.856  21.248   7.653
 6175POPC   NC317579  39.963   8.230   9.453
 6175POPC   PO417580  39.994   8.229   9.153
 6175POPC   GL117581  39.962   8.202   8.853
 6175POPC   GL217582  40.145   8.218   8.853
 6175POPC   C1A17583  39.969   8.235   8.553
 6175POPC   D2A17584  39.972   8.204   8.253
 6175POPC   C3A17585  40.056   8.188   7.953
 6175POPC   C4A17586  40.053   8.187   7.653
 6175POPC   C1B17587  40.222   8.346   8.553
 6175POPC   C2B17588  40.232   8.313   8.253
 6175POPC   C3B17589  40.166   8.369   7.953
 6175POPC   C4B17590  40.193   8.312   7.653
 6176POPC   NC317591  33.009  11.297   9.453
 6176POPC   PO417592  32.988  11.344   9.153
 6176POPC   GL117593  33.034  11.272   8.853
 6176POPC   GL217594  32.946  11.383   8.853
 6176POPC   C1A17595  33.022  11.326   8.553
 6176POPC   D2A17596  32.983  11.252   8.253
 6176POPC   C3A17597  33.068  11.278   7.953
 6176POPC   C4A17598  32.983  11.284   7.653
 6176POPC   C1B17599  32.817  11.440   8.553
 6176POPC   C2B17600  32.766  11.440   8.253
 6176POPC   C3B17601  32.776  11.420   7.953
 6176POPC   C4B17602  32.800  11.395   7.653
 6177POPC   NC317603  15.975   9.771   9.453
 6177POPC   PO417604  15.951   9.758   9.153
 6177POPC   GL117605  16.000   9.742   8.853
 6177POPC   GL217606  15.886   9.673   8.853
 6177POPC   C1A17607  15.949   9.789   8.553
 6177POPC   D2A17608  15.977   9.733   8.253
 6177POPC   C3A17609  15.924   9.733   7.953
 6177POPC   C4A17610  15.955   9.767   7.653
 6177POPC   C1B17611  15.838   9.593   8.553
 6177POPC   C2B17612  15.833   9.574   8.253
 6177POPC   C3B17613  15.823   9.562   7.953
 6177POPC   C4B17614  15.776   9.512   7.653
 6178POPC   NC317615  40.039  25.290   9.453
 6178POPC   PO417616  39.993  25.311   9.153
 6178POPC   GL117617  40.011  25.288   8.853
 6178POPC   GL217618  40.076  25.381   8.853
 6178POPC   C1A17619  39.982  25.240   8.553
 6178POPC   D2A17620  39.981  25.271   8.253
 6178POPC   C3A17621  40.050  25.263   7.953
 6178POPC   C4A17622  39.994  25.257   7.653
 6178POPC   C1B17623  40.184  25.439   8.553
 6178POPC   C2B17624  40.093  25.486   8.253
 6178POPC   C3B17625  40.155  25.503   7.953
 6178POPC   C4B17626  40.099  25.522   7.653
 6179POPC   NC317627   4.338  31.503   9.453
 6179POPC   PO417628   4.288  31.487   9.153
 6179POPC   GL117629   4.312  31.520   8.853
 6179POPC   GL217630   4.392  31.455   8.853
 6179POPC   C1A17631   4.360  31.506   8.553
 6179POPC   D2A17632   4.281  31.461   8.253
 6179POPC   C3A17633   4.307  31.443   7.953
 6179POPC   C4A17634   4.290  31.472   7.653
 6179POPC   C1B17635   4.552  31.491   8.553
 6179POPC   C2B17636   4.611  31.556   8.253
 6179POPC   C3B17637   4.519  31.492   7.953
 6179POPC   C4B17638   4.553  31.492   7.653
 6180POPC   NC317639  17.494  20.625   9.453
 6180POPC   PO417640  17.494  20.567   9.153
 6180POPC   GL117641  17.508  20.563   8.853
 6180POPC   GL217642  17.459  20.508   8.853
 6180POPC   C1A17643  17.510  20.619   8.553
 6180POPC   D2A17644  17.535  20.611   8.253
 6180POPC   C3A17645  17.539  20.629   7.953
 6180POPC   C4A17646  17.520  20.604   7.653
 6180POPC   C1B17647  17.287  20.461   8.553
 6180POPC   C2B17648  17.283  20.466   8.253
 6180POPC   C3B17649  17.316  20.418   7.953
 6180POPC   C4B17650  17.314  20.433   7.653
 6181POPC   NC317651  17.470  36.880   9.453
 6181POPC   PO417652  17.521  36.877   9.153
 6181POPC   GL117653  17.555  36.927   8.853
 6181POPC   GL217654  17.479  36.762   8.853
 6181POPC   C1A17655  17.527  36.896   8.553
 6181POPC   D2A17656  17.530  36.941   8.253
 6181POPC   C3A17657  17.516  36.952   7.953
 6181POPC   C4A17658  17.463  36.936   7.653
 6181POPC   C1B17659  17.341  36.749   8.553
 6181POPC   C2B17660  17.343  36.683   8.253
 6181POPC   C3B17661  17.354  36.685   7.953
 6181POPC   C4B17662  17.353  36.734   7.653
 6182POPC   NC317663  42.287  21.346   9.453
 6182POPC   PO417664  42.342  21.351   9.153
 6182POPC   GL117665  42.338  21.375   8.853
 6182POPC   GL217666  42.193  21.421   8.853
 6182POPC   C1A17667  42.334  21.383   8.553
 6182POPC   D2A17668  42.301  21.427   8.253
 6182POPC   C3A17669  42.372  21.392   7.953
 6182POPC   C4A17670  42.304  21.404   7.653
 6182POPC   C1B17671  42.098  21.507   8.553
 6182POPC   C2B17672  42.166  21.545   8.253
 6182POPC   C3B17673  42.128  21.560   7.953
 6182POPC   C4B17674  42.138  21.486   7.653
 6183POPC   NC317675  39.963   0.404   9.453
 6183POPC   PO417676  39.982   0.393   9.153
 6183POPC   GL117677  40.038   0.455   8.853
 6183POPC   GL217678  40.167   0.452   8.853
 6183POPC   C1A17679  40.047   0.463   8.553
 6183POPC   D2A17680  39.963   0.410   8.253
 6183POPC   C3A17681  40.028   0.426   7.953
 6183POPC   C4A17682  39.964   0.400   7.653
 6183POPC   C1B17683  40.283   0.525   8.553
 6183POPC   C2B17684  40.237   0.541   8.253
 6183POPC   C3B17685  40.229   0.482   7.953
 6183POPC   C4B17686  40.225   0.521   7.653
 6184POPC   NC317687   2.735  43.124   9.453
 6184POPC   PO417688   2.781  43.096   9.153
 6184POPC   GL117689   2.802  43.130   8.853
 6184POPC   GL217690   2.651  43.150   8.853
 6184POPC   C1A17691   2.797  43.141   8.553
 6184POPC   D2A17692   2.718  43.114   8.253
 6184POPC   C3A17693   2.764  43.103   7.953
 6184POPC   C4A17694   2.803  43.089   7.653
 6184POPC   C1B17695   2.570  43.330   8.553
 6184POPC   C2B17696   2.580  43.312   8.253
 6184POPC   C3B17697   2.601  43.258   7.953
 6184POPC   C4B17698   2.597  43.256   7.653
 6185POPC   NC317699  36.937  26.865   9.453
 6185POPC   PO417700  36.894  26.773   9.153
 6185POPC   GL117701  36.911  26.775   8.853
 6185POPC   GL217702  36.804  26.882   8.853
 6185POPC   C1A17703  36.872  26.795   8.553
 6185POPC   D2A17704  36.869  26.769   8.253
 6185POPC   C3A17705  36.945  26.812   7.953
 6185POPC   C4A17706  36.905  26.798   7.653
 6185POPC   C1B17707  36.807  27.057   8.553
 6185POPC   C2B17708  36.746  27.011   8.253
 6185POPC   C3B17709  36.785  27.043   7.953
 6185POPC   C4B17710  36.802  27.046   7.653
 6186POPC   NC317711  16.777   8.190   9.453
 6186POPC   PO417712  16.692   8.243   9.153
 6186POPC   GL117713  16.757   8.188   8.853
 6186POPC   GL217714  16.899   8.224   8.853
 6186POPC   C1A17715  16.686   8.153   8.553
 6186POPC   D2A17716  16.767   8.239   8.253
 6186POPC   C3A17717  16.731   8.198   7.953
 6186POPC   C4A17718  16.729   8.186   7.653
 6186POPC   C1B17719  16.949   8.124   8.553
 6186POPC   C2B17720  16.944   8.128   8.253
 6186POPC   C3B17721  16.939   8.175   7.953
 6186POPC   C4B17722  16.950   8.185   7.653
 6187POPC   NC317723  27.552  18.332   9.453
 6187POPC   PO417724  27.594  18.259   9.153
 6187POPC   GL117725  27.565  18.237   8.853
 6187POPC   GL217726  27.645  18.388   8.853
 6187POPC   C1A17727  27.627  18.265   8.553
 6187POPC   D2A17728  27.619  18.277   8.253
 6187POPC   C3A17729  27.612  18.317   7.953
 6187POPC   C4A17730  27.568  18.263   7.653
 6187POPC   C1B17731  27.742  18.473   8.553
 6187POPC   C2B17732  27.747  18.526   8.253
 6187POPC   C3B17733  27.741  18.439   7.953
 6187POPC   C4B17734  27.730  18.500   7.653
 6188POPC   NC317735  29.172  12.841   9.453
 6188POPC   PO417736  29.154  12.864   9.153
 6188POPC   GL117737  29.168  12.829   8.853
 6188POPC   GL217738  29.108  12.997   8.853
 6188POPC   C1A17739  29.143  12.858   8.553
 6188POPC   D2A17740  29.165  12.829   8.253
 6188POPC   C3A17741  29.148  12.810   7.953
 6188POPC   C4A17742  29.149  12.893   7.653
 6188POPC   C1B17743  28.998  13.076   8.553
 6188POPC   C2B17744  29.003  13.075   8.253
 6188POPC   C3B17745  29.039  13.042   7.953
 6188POPC   C4B17746  28.958  13.074   7.653
 6189POPC   NC317747  21.343  22.901   9.453
 6189POPC   PO417748  21.340  22.971   9.153
 6189POPC   GL117749  21.353  22.916   8.853
 6189POPC   GL217750  21.269  23.049   8.853
 6189POPC   C1A17751  21.401  22.951   8.553
 6189POPC   D2A17752  21.417  22.915   8.253
 6189POPC   C3A17753  21.403  22.973   7.953
 6189POPC   C4A17754  21.424  22.937   7.653
 6189POPC   C1B17755  21.234  23.076   8.553
 6189POPC   C2B17756  21.163  23.113   8.253
 6189POPC   C3B17757  21.219  23.121   7.953
 6189POPC   C4B17758  21.217  23.130   7.653
 6190POPC   NC317759  44.670  22.209   9.453
 6190POPC   PO417760  44.630  22.124   9.153
 6190POPC   GL117761  44.617  22.174   8.853
 6190POPC   GL217762  44.598  22.045   8.853
 6190POPC   C1A17763  44.651  22.122   8.553
 6190POPC   D2A17764  44.623  22.118   8.253
 6190POPC   C3A17765  44.655  22.195   7.953
 6190POPC   C4A17766  44.687  22.127   7.653
 6190POPC   C1B17767  44.507  22.030   8.553
 6190POPC   C2B17768  44.501  21.966   8.253
 6190POPC   C3B17769  44.476  22.019   7.953
 6190POPC   C4B17770  44.430  21.986   7.653
 6191POPC   NC317771   5.094   7.376   9.453
 6191POPC   PO417772   5.073   7.415   9.153
 6191POPC   GL117773   5.067   7.458   8.853
 6191POPC   GL217774   5.209   7.324   8.853
 6191POPC   C1A17775   5.078   7.399   8.553
 6191POPC   D2A17776   5.081   7.464   8.253
 6191POPC   C3A17777   5.075   7.395   7.953
 6191POPC   C4A17778   5.082   7.439   7.653
 6191POPC   C1B17779   5.281   7.193   8.553
 6191POPC   C2B17780   5.228   7.272   8.253
 6191POPC   C3B17781   5.237   7.230   7.953
 6191POPC   C4B17782   5.201   7.233   7.653
 6192POPC   NC317783  25.264   8.222   9.453
 6192POPC   PO417784  25.249   8.191   9.153
 6192POPC   GL117785  25.233   8.153   8.853
 6192POPC   GL217786  25.208   8.248   8.853
 6192POPC   C1A17787  25.278   8.180   8.553
 6192POPC   D2A17788  25.292   8.200   8.253
 6192POPC   C3A17789  25.226   8.194   7.953
 6192POPC   C4A17790  25.298   8.246   7.653
 6192POPC   C1B17791  25.024   8.384   8.553
 6192POPC   C2B17792  25.104   8.314   8.253
 6192POPC   C3B17793  25.104   8.339   7.953
 6192POPC   C4B17794  25.093   8.368   7.653
 6193POPC   NC317795  25.236  12.829   9.453
 6193POPC   PO417796  25.254  12.813   9.153
 6193POPC   GL117797  25.312  12.859   8.853
 6193POPC   GL217798  25.304  12.758   8.853
 6193POPC   C1A17799  25.240  12.870   8.553
 6193POPC   D2A17800  25.225  12.899   8.253
 6193POPC   C3A17801  25.248  12.876   7.953
 6193POPC   C4A17802  25.272  12.808   7.653
 6193POPC   C1B17803  25.295  12.605   8.553
 6193POPC   C2B17804  25.285  12.592   8.253
 6193POPC   C3B17805  25.359  12.655   7.953
 6193POPC   C4B17806  25.344  12.570   7.653
 6194POPC   NC317807   5.885  11.268   9.453
 6194POPC   PO417808   5.828  11.265   9.153
 6194POPC   GL117809   5.887  11.321   8.853
 6194POPC   GL217810   5.978  11.390   8.853
 6194POPC   C1A17811   5.893  11.273   8.553
 6194POPC   D2A17812   5.854  11.292   8.253
 6194POPC   C3A17813   5.850  11.272   7.953
 6194POPC   C4A17814   5.851  11.299   7.653
 6194POPC   C1B17815   5.974  11.512   8.553
 6194POPC   C2B17816   6.040  11.485   8.253
 6194POPC   C3B17817   6.020  11.503   7.953
 6194POPC   C4B17818   5.964  11.497   7.653
 6195POPC   NC317819   5.071  26.783   9.453
 6195POPC   PO417820   5.070  26.780   9.153
 6195POPC   GL117821   5.088  26.832   8.853
 6195POPC   GL217822   5.075  26.666   8.853
 6195POPC   C1A17823   5.053  26.816   8.553
 6195POPC   D2A17824   5.084  26.823   8.253
 6195POPC   C3A17825   5.058  26.865   7.953
 6195POPC   C4A17826   5.095  26.819   7.653
 6195POPC   C1B17827   5.077  26.538   8.553
 6195POPC   C2B17828   5.102  26.545   8.253
 6195POPC   C3B17829   5.044  26.565   7.953
 6195POPC   C4B17830   5.114  26.547   7.653
 6196POPC   NC317831  19.868  30.656   9.453
 6196POPC   PO417832  19.810  30.696   9.153
 6196POPC   GL117833  19.831  30.653   8.853
 6196POPC   GL217834  19.726  30.697   8.853
 6196POPC   C1A17835  19.854  30.715   8.553
 6196POPC   D2A17836  19.830  30.675   8.253
 6196POPC   C3A17837  19.826  30.684   7.953
 6196POPC   C4A17838  19.849  30.664   7.653
 6196POPC   C1B17839  19.578  30.592   8.553
 6196POPC   C2B17840  19.557  30.636   8.253
 6196POPC   C3B17841  19.553  30.590   7.953
 6196POPC   C4B17842  19.573  30.639   7.653
 6197POPC   NC317843  15.229  28.322   9.453
 6197POPC   PO417844  15.138  28.339   9.153
 6197POPC   GL117845  15.194  28.336   8.853
 6197POPC   GL217846  15.227  28.268   8.853
 6197POPC   C1A17847  15.167  28.413   8.553
 6197POPC   D2A17848  15.217  28.332   8.253
 6197POPC   C3A17849  15.155  28.381   7.953
 6197POPC   C4A17850  15.167  28.357   7.653
 6197POPC   C1B17851  15.299  28.161   8.553
 6197POPC   C2B17852  15.263  28.187   8.253
 6197POPC   C3B17853  15.286  28.133   7.953
 6197POPC   C4B17854  15.266  28.170   7.653
 6198POPC   NC317855  31.431  15.190   9.453
 6198POPC   PO417856  31.460  15.204   9.153
 6198POPC   GL117857  31.423  15.138   8.853
 6198POPC   GL217858  31.385  15.263   8.853
 6198POPC   C1A17859  31.500  15.134   8.553
 6198POPC   D2A17860  31.479  15.214   8.253
 6198POPC   C3A17861  31.477  15.201   7.953
 6198POPC   C4A17862  31.505  15.193   7.653
 6198POPC   C1B17863  31.257  15.231   8.553
 6198POPC   C2B17864  31.261  15.247   8.253
 6198POPC   C3B17865  31.244  15.301   7.953
 6198POPC   C4B17866  31.220  15.310   7.653
 6199POPC   NC317867  11.268   3.556   9.453
 6199POPC   PO417868  11.253   3.533   9.153
 6199POPC   GL117869  11.256   3.561   8.853
 6199POPC   GL217870  11.379   3.686   8.853
 6199POPC   C1A17871  11.314   3.503   8.553
 6199POPC   D2A17872  11.312   3.514   8.253
 6199POPC   C3A17873  11.277   3.552   7.953
 6199POPC   C4A17874  11.294   3.505   7.653
 6199POPC   C1B17875  11.439   3.749   8.553
 6199POPC   C2B17876  11.400   3.797   8.253
 6199POPC   C3B17877  11.482   3.722   7.953
 6199POPC   C4B17878  11.460   3.713   7.653
 6200POPC   NC317879  43.919  43.845   9.453
 6200POPC   PO417880  43.921  43.880   9.153
 6200POPC   GL117881  43.934  43.894   8.853
 6200POPC   GL217882  43.880  43.745   8.853
 6200POPC   C1A17883  43.878  43.853   8.553
 6200POPC   D2A17884  43.936  43.935   8.253
 6200POPC   C3A17885  43.864  43.843   7.953
 6200POPC   C4A17886  43.915  43.856   7.653
 6200POPC   C1B17887  43.836  43.670   8.553
 6200POPC   C2B17888  43.833  43.652   8.253
 6200POPC   C3B17889  43.832  43.673   7.953
 6200POPC   C4B17890  43.865  43.618   7.653
 6201POPC   NC317891  27.546  14.356   9.453
 6201POPC   PO417892  27.571  14.444   9.153
 6201POPC   GL117893  27.558  14.374   8.853
 6201POPC   GL217894  27.557  14.321   8.853
 6201POPC   C1A17895  27.590  14.411   8.553
 6201POPC   D2A17896  27.572  14.396   8.253
 6201POPC   C3A17897  27.568  14.403   7.953
 6201POPC   C4A17898  27.549  14.355   7.653
 6201POPC   C1B17899  27.530  14.142   8.553
 6201POPC   C2B17900  27.459  14.142   8.253
 6201POPC   C3B17901  27.519  14.134   7.953
 6201POPC   C4B17902  27.491  14.134   7.653
 6202POPC   NC317903  43.934   9.729   9.453
 6202POPC   PO417904  43.933   9.718   9.153
 6202POPC   GL117905  43.893   9.768   8.853
 6202POPC   GL217906  43.973   9.875   8.853
 6202POPC   C1A17907  43.917   9.728   8.553
 6202POPC   D2A17908  43.888   9.699   8.253
 6202POPC   C3A17909  43.922   9.772   7.953
 6202POPC   C4A17910  43.935   9.771   7.653
 6202POPC   C1B17911  44.019   9.921   8.553
 6202POPC   C2B17912  44.056   9.938   8.253
 6202POPC   C3B17913  44.007   9.917   7.953
 6202POPC   C4B17914  44.093   9.983   7.653
 6203POPC   NC317915  37.652   1.992   9.453
 6203POPC   PO417916  37.701   1.950   9.153
 6203POPC   GL117917  37.696   1.985   8.853
 6203POPC   GL217918  37.733   1.915   8.853
 6203POPC   C1A17919  37.672   2.003   8.553
 6203POPC   D2A17920  37.662   2.036   8.253
 6203POPC   C3A17921  37.703   2.001   7.953
 6203POPC   C4A17922  37.724   2.000   7.653
 6203POPC   C1B17923  37.817   1.748   8.553
 6203POPC   C2B17924  37.800   1.760   8.253
 6203POPC   C3B17925  37.800   1.834   7.953
 6203POPC   C4B17926  37.820   1.769   7.653
 6204POPC   NC317927  17.477  37.647   9.453
 6204POPC   PO417928  17.480  37.636   9.153
 6204POPC   GL117929  17.482  37.638   8.853
 6204POPC   GL217930  17.641  37.732   8.853
 6204POPC   C1A17931  17.508  37.638   8.553
 6204POPC   D2A17932  17.468  37.673   8.253
 6204POPC   C3A17933  17.477  37.651   7.953
 6204POPC   C4A17934  17.523  37.658   7.653
 6204POPC   C1B17935  17.735  37.822   8.553
 6204POPC   C2B17936  17.696  37.835   8.253
 6204POPC   C3B17937  17.732  37.831   7.953
 6204POPC   C4B17938  17.711  37.869   7.653
 6205POPC   NC317939  36.860   9.020   9.453
 6205POPC   PO417940  36.865   8.964   9.153
 6205POPC   GL117941  36.889   8.982   8.853
 6205POPC   GL217942  36.838   9.042   8.853
 6205POPC   C1A17943  36.906   8.991   8.553
 6205POPC   D2A17944  36.857   8.955   8.253
 6205POPC   C3A17945  36.866   8.976   7.953
 6205POPC   C4A17946  36.888   9.003   7.653
 6205POPC   C1B17947  36.770   9.181   8.553
 6205POPC   C2B17948  36.703   9.119   8.253
 6205POPC   C3B17949  36.697   9.122   7.953
 6205POPC   C4B17950  36.746   9.207   7.653
 6206POPC   NC317951   3.546   3.551   9.453
 6206POPC   PO417952   3.540   3.499   9.153
 6206POPC   GL117953   3.526   3.492   8.853
 6206POPC   GL217954   3.594   3.649   8.853
 6206POPC   C1A17955   3.513   3.528   8.553
 6206POPC   D2A17956   3.571   3.510   8.253
 6206POPC   C3A17957   3.562   3.562   7.953
 6206POPC   C4A17958   3.569   3.568   7.653
 6206POPC   C1B17959   3.707   3.742   8.553
 6206POPC   C2B17960   3.716   3.721   8.253
 6206POPC   C3B17961   3.678   3.727   7.953
 6206POPC   C4B17962   3.719   3.748   7.653
 6207POPC   NC317963  40.823   0.417   9.453
 6207POPC   PO417964  40.812   0.396   9.153
 6207POPC   GL117965  40.743   0.442   8.853
 6207POPC   GL217966  40.945   0.435   8.853
 6207POPC   C1A17967  40.814   0.472   8.553
 6207POPC   D2A17968  40.769   0.463   8.253
 6207POPC   C3A17969  40.811   0.483   7.953
 6207POPC   C4A17970  40.788   0.395   7.653
 6207POPC   C1B17971  41.064   0.432   8.553
 6207POPC   C2B17972  40.984   0.457   8.253
 6207POPC   C3B17973  41.019   0.449   7.953
 6207POPC   C4B17974  41.057   0.441   7.653
 6208POPC   NC317975  12.837  37.718   9.453
 6208POPC   PO417976  12.803  37.692   9.153
 6208POPC   GL117977  12.816  37.690   8.853
 6208POPC   GL217978  12.925  37.611   8.853
 6208POPC   C1A17979  12.815  37.632   8.553
 6208POPC   D2A17980  12.859  37.689   8.253
 6208POPC   C3A17981  12.875  37.666   7.953
 6208POPC   C4A17982  12.810  37.722   7.653
 6208POPC   C1B17983  13.034  37.573   8.553
 6208POPC   C2B17984  13.042  37.563   8.253
 6208POPC   C3B17985  13.073  37.533   7.953
 6208POPC   C4B17986  13.003  37.495   7.653
 6209POPC   NC317987  10.507  32.267   9.453
 6209POPC   PO417988  10.556  32.259   9.153
 6209POPC   GL117989  10.486  32.284   8.853
 6209POPC   GL217990  10.419  32.268   8.853
 6209POPC   C1A17991  10.512  32.233   8.553
 6209POPC   D2A17992  10.559  32.252   8.253
 6209POPC   C3A17993  10.526  32.218   7.953
 6209POPC   C4A17994  10.516  32.261   7.653
 6209POPC   C1B17995  10.239  32.182   8.553
 6209POPC   C2B17996  10.249  32.224   8.253
 6209POPC   C3B17997  10.273  32.183   7.953
 6209POPC   C4B17998  10.234  32.258   7.653
 6210POPC   NC317999   5.835   8.981   9.453
 6210POPC   PO418000   5.868   8.979   9.153
 6210POPC   GL118001   5.871   8.962   8.853
 6210POPC   GL218002   5.973   9.052   8.853
 6210POPC   C1A18003   5.886   9.011   8.553
 6210POPC   D2A18004   5.846   8.934   8.253
 6210POPC   C3A18005   5.900   9.019   7.953
 6210POPC   C4A18006   5.822   8.967   7.653
 6210POPC   C1B18007   6.004   9.168   8.553
 6210POPC   C2B18008   6.039   9.189   8.253
 6210POPC   C3B18009   6.002   9.132   7.953
 6210POPC   C4B18010   5.978   9.221   7.653
 6211POPC   NC318011  39.264  33.022   9.453
 6211POPC   PO418012  39.240  33.061   9.153
 6211POPC   GL118013  39.237  33.018   8.853
 6211POPC   GL218014  39.252  32.863   8.853
 6211POPC   C1A18015  39.267  33.015   8.553
 6211POPC   D2A18016  39.259  33.064   8.253
 6211POPC   C3A18017  39.201  33.013   7.953
 6211POPC   C4A18018  39.186  32.987   7.653
 6211POPC   C1B18019  39.244  32.739   8.553
 6211POPC   C2B18020  39.260  32.772   8.253
 6211POPC   C3B18021  39.255  32.810   7.953
 6211POPC   C4B18022  39.216  32.824   7.653
 6212POPC   NC318023   8.149  28.347   9.453
 6212POPC   PO418024   8.211  28.322   9.153
 6212POPC   GL118025   8.204  28.364   8.853
 6212POPC   GL218026   8.323  28.351   8.853
 6212POPC   C1A18027   8.151  28.330   8.553
 6212POPC   D2A18028   8.189  28.364   8.253
 6212POPC   C3A18029   8.223  28.400   7.953
 6212POPC   C4A18030   8.222  28.343   7.653
 6212POPC   C1B18031   8.483  28.418   8.553
 6212POPC   C2B18032   8.456  28.331   8.253
 6212POPC   C3B18033   8.441  28.410   7.953
 6212POPC   C4B18034   8.487  28.376   7.653
 6213POPC   NC318035   8.205  11.335   9.453
 6213POPC   PO418036   8.155  11.324   9.153
 6213POPC   GL118037   8.239  11.285   8.853
 6213POPC   GL218038   8.120  11.439   8.853
 6213POPC   C1A18039   8.167  11.272   8.553
 6213POPC   D2A18040   8.159  11.302   8.253
 6213POPC   C3A18041   8.200  11.328   7.953
 6213POPC   C4A18042   8.208  11.324   7.653
 6213POPC   C1B18043   8.074  11.502   8.553
 6213POPC   C2B18044   8.066  11.534   8.253
 6213POPC   C3B18045   8.102  11.579   7.953
 6213POPC   C4B18046   8.132  11.491   7.653
 6214POPC   NC318047   8.149  32.283   9.453
 6214POPC   PO418048   8.186  32.268   9.153
 6214POPC   GL118049   8.149  32.263   8.853
 6214POPC   GL218050   8.132  32.150   8.853
 6214POPC   C1A18051   8.160  32.212   8.553
 6214POPC   D2A18052   8.213  32.267   8.253
 6214POPC   C3A18053   8.186  32.267   7.953
 6214POPC   C4A18054   8.226  32.225   7.653
 6214POPC   C1B18055   8.093  32.027   8.553
 6214POPC   C2B18056   8.154  32.054   8.253
 6214POPC   C3B18057   8.070  31.967   7.953
 6214POPC   C4B18058   8.112  31.973   7.653
 6215POPC   NC318059   0.448  26.042   9.453
 6215POPC   PO418060   0.421  25.999   9.153
 6215POPC   GL118061   0.409  26.029   8.853
 6215POPC   GL218062   0.514  26.127   8.853
 6215POPC   C1A18063   0.390  25.995   8.553
 6215POPC   D2A18064   0.436  26.033   8.253
 6215POPC   C3A18065   0.434  26.082   7.953
 6215POPC   C4A18066   0.461  26.022   7.653
 6215POPC   C1B18067   0.558  26.222   8.553
 6215POPC   C2B18068   0.553  26.316   8.253
 6215POPC   C3B18069   0.568  26.249   7.953
 6215POPC   C4B18070   0.536  26.321   7.653
 6216POPC   NC318071  43.913  19.835   9.453
 6216POPC   PO418072  43.867  19.863   9.153
 6216POPC   GL118073  43.841  19.793   8.853
 6216POPC   GL218074  43.812  19.780   8.853
 6216POPC   C1A18075  43.840  19.813   8.553
 6216POPC   D2A18076  43.908  19.799   8.253
 6216POPC   C3A18077  43.860  19.872   7.953
 6216POPC   C4A18078  43.894  19.824   7.653
 6216POPC   C1B18079  43.672  19.833   8.553
 6216POPC   C2B18080  43.668  19.757   8.253
 6216POPC   C3B18081  43.662  19.780   7.953
 6216POPC   C4B18082  43.689  19.837   7.653
 6217POPC   NC318083  16.702  33.817   9.453
 6217POPC   PO418084  16.741  33.794   9.153
 6217POPC   GL118085  16.688  33.795   8.853
 6217POPC   GL218086  16.685  33.671   8.853
 6217POPC   C1A18087  16.719  33.820   8.553
 6217POPC   D2A18088  16.719  33.842   8.253
 6217POPC   C3A18089  16.764  33.757   7.953
 6217POPC   C4A18090  16.768  33.771   7.653
 6217POPC   C1B18091  16.566  33.616   8.553
 6217POPC   C2B18092  16.601  33.598   8.253
 6217POPC   C3B18093  16.541  33.597   7.953
 6217POPC   C4B18094  16.570  33.593   7.653
 6218POPC   NC318095   0.415   5.909   9.453
 6218POPC   PO418096   0.398   5.915   9.153
 6218POPC   GL118097   0.470   5.861   8.853
 6218POPC   GL218098   0.364   5.831   8.853
 6218POPC   C1A18099   0.391   5.906   8.553
 6218POPC   D2A18100   0.430   5.868   8.253
 6218POPC   C3A18101   0.480   5.829   7.953
 6218POPC   C4A18102   0.474   5.871   7.653
 6218POPC   C1B18103   0.203   5.730   8.553
 6218POPC   C2B18104   0.267   5.689   8.253
 6218POPC   C3B18105   0.203   5.707   7.953
 6218POPC   C4B18106   0.253   5.717   7.653
 6219POPC   NC318107  23.722  42.368   9.453
 6219POPC   PO418108  23.752  42.293   9.153
 6219POPC   GL118109  23.692  42.287   8.853
 6219POPC   GL218110  23.805  42.392   8.853
 6219POPC   C1A18111  23.741  42.290   8.553
 6219POPC   D2A18112  23.711  42.383   8.253
 6219POPC   C3A18113  23.720  42.289   7.953
 6219POPC   C4A18114  23.703  42.360   7.653
 6219POPC   C1B18115  23.952  42.437   8.553
 6219POPC   C2B18116  23.964  42.512   8.253
 6219POPC   C3B18117  23.946  42.448   7.953
 6219POPC   C4B18118  23.924  42.450   7.653
 6220POPC   NC318119  33.816   1.203   9.453
 6220POPC   PO418120  33.842   1.209   9.153
 6220POPC   GL118121  33.832   1.177   8.853
 6220POPC   GL218122  33.911   1.178   8.853
 6220POPC   C1A18123  33.759   1.205   8.553
 6220POPC   D2A18124  33.759   1.174   8.253
 6220POPC   C3A18125  33.790   1.187   7.953
 6220POPC   C4A18126  33.790   1.213   7.653
 6220POPC   C1B18127  34.058   1.122   8.553
 6220POPC   C2B18128  33.964   1.076   8.253
 6220POPC   C3B18129  34.024   1.114   7.953
 6220POPC   C4B18130  34.012   1.047   7.653
 6221POPC   NC318131  40.745  24.504   9.453
 6221POPC   PO418132  40.740  24.467   9.153
 6221POPC   GL118133  40.785  24.528   8.853
 6221POPC   GL218134  40.805  24.638   8.853
 6221POPC   C1A18135  40.793  24.526   8.553
 6221POPC   D2A18136  40.773  24.511   8.253
 6221POPC   C3A18137  40.789  24.503   7.953
 6221POPC   C4A18138  40.747  24.458   7.653
 6221POPC   C1B18139  40.801  24.744   8.553
 6221POPC   C2B18140  40.783  24.690   8.253
 6221POPC   C3B18141  40.754  24.753   7.953
 6221POPC   C4B18142  40.813  24.752   7.653
 6222POPC   NC318143  29.131   2.011   9.453
 6222POPC   PO418144  29.146   1.988   9.153
 6222POPC   GL118145  29.150   1.982   8.853
 6222POPC   GL218146  29.229   2.057   8.853
 6222POPC   C1A18147  29.144   1.961   8.553
 6222POPC   D2A18148  29.195   1.999   8.253
 6222POPC   C3A18149  29.149   1.991   7.953
 6222POPC   C4A18150  29.098   2.028   7.653
 6222POPC   C1B18151  29.400   2.118   8.553
 6222POPC   C2B18152  29.394   2.123   8.253
 6222POPC   C3B18153  29.330   2.153   7.953
 6222POPC   C4B18154  29.392   2.166   7.653
 6223POPC   NC318155  27.597  25.295   9.453
 6223POPC   PO418156  27.574  25.233   9.153
 6223POPC   GL118157  27.622  25.245   8.853
 6223POPC   GL218158  27.535  25.329   8.853
 6223POPC   C1A18159  27.613  25.310   8.553
 6223POPC   D2A18160  27.560  25.228   8.253
 6223POPC   C3A18161  27.612  25.307   7.953
 6223POPC   C4A18162  27.638  25.258   7.653
 6223POPC   C1B18163  27.486  25.486   8.553
 6223POPC   C2B18164  27.444  25.464   8.253
 6223POPC   C3B18165  27.489  25.516   7.953
 6223POPC   C4B18166  27.476  25.523   7.653
 6224POPC   NC318167  16.704  39.245   9.453
 6224POPC   PO418168  16.722  39.246   9.153
 6224POPC   GL118169  16.718  39.277   8.853
 6224POPC   GL218170  16.751  39.089   8.853
 6224POPC   C1A18171  16.693  39.243   8.553
 6224POPC   D2A18172  16.765  39.241   8.253
 6224POPC   C3A18173  16.766  39.257   7.953
 6224POPC   C4A18174  16.769  39.225   7.653
 6224POPC   C1B18175  16.720  38.944   8.553
 6224POPC   C2B18176  16.689  39.010   8.253
 6224POPC   C3B18177  16.728  39.009   7.953
 6224POPC   C4B18178  16.701  38.953   7.653
 6225POPC   NC318179  24.464  44.675   9.453
 6225POPC   PO418180  24.464  44.695   9.153
 6225POPC   GL118181  24.518  44.629   8.853
 6225POPC   GL218182  24.599  44.662   8.853
 6225POPC   C1A18183  24.536  44.677   8.553
 6225POPC   D2A18184  24.472  44.655   8.253
 6225POPC   C3A18185  24.514  44.622   7.953
 6225POPC   C4A18186  24.506  44.680   7.653
 6225POPC   C1B18187  24.713  44.609   8.553
 6225POPC   C2B18188  24.735  44.588   8.253
 6225POPC   C3B18189  24.755  44.614   7.953
 6225POPC   C4B18190  24.771  44.649   7.653
 6226POPC   NC318191  29.879  32.259   9.453
 6226POPC   PO418192  29.890  32.206   9.153
 6226POPC   GL118193  29.945  32.214   8.853
 6226POPC   GL218194  29.840  32.399   8.853
 6226POPC   C1A18195  29.900  32.242   8.553
 6226POPC   D2A18196  29.904  32.226   8.253
 6226POPC   C3A18197  29.960  32.278   7.953
 6226POPC   C4A18198  29.876  32.294   7.653
 6226POPC   C1B18199  29.770  32.447   8.553
 6226POPC   C2B18200  29.776  32.439   8.253
 6226POPC   C3B18201  29.769  32.464   7.953
 6226POPC   C4B18202  29.773  32.513   7.653
 6227POPC   NC318203  26.773  19.091   9.453
 6227POPC   PO418204  26.824  19.104   9.153
 6227POPC   GL118205  26.775  19.012   8.853
 6227POPC   GL218206  26.820  18.951   8.853
 6227POPC   C1A18207  26.857  19.022   8.553
 6227POPC   D2A18208  26.811  19.011   8.253
 6227POPC   C3A18209  26.795  19.015   7.953
 6227POPC   C4A18210  26.847  19.020   7.653
 6227POPC   C1B18211  26.716  18.826   8.553
 6227POPC   C2B18212  26.711  18.776   8.253
 6227POPC   C3B18213  26.750  18.789   7.953
 6227POPC   C4B18214  26.777  18.834   7.653
 6228POPC   NC318215  41.595  18.282   9.453
 6228POPC   PO418216  41.533  18.269   9.153
 6228POPC   GL118217  41.555  18.320   8.853
 6228POPC   GL218218  41.452  18.169   8.853
 6228POPC   C1A18219  41.588  18.241   8.553
 6228POPC   D2A18220  41.607  18.281   8.253
 6228POPC   C3A18221  41.596  18.268   7.953
 6228POPC   C4A18222  41.512  18.318   7.653
 6228POPC   C1B18223  41.396  18.078   8.553
 6228POPC   C2B18224  41.476  18.034   8.253
 6228POPC   C3B18225  41.396  18.055   7.953
 6228POPC   C4B18226  41.491  18.012   7.653
 6229POPC   NC318227  30.722  34.586   9.453
 6229POPC   PO418228  30.741  34.536   9.153
 6229POPC   GL118229  30.698  34.569   8.853
 6229POPC   GL218230  30.602  34.623   8.853
 6229POPC   C1A18231  30.678  34.556   8.553
 6229POPC   D2A18232  30.653  34.609   8.253
 6229POPC   C3A18233  30.706  34.573   7.953
 6229POPC   C4A18234  30.677  34.611   7.653
 6229POPC   C1B18235  30.434  34.689   8.553
 6229POPC   C2B18236  30.510  34.717   8.253
 6229POPC   C3B18237  30.491  34.708   7.953
 6229POPC   C4B18238  30.500  34.668   7.653
 6230POPC   NC318239   1.995   4.354   9.453
 6230POPC   PO418240   1.981   4.313   9.153
 6230POPC   GL118241   1.980   4.323   8.853
 6230POPC   GL218242   2.057   4.245   8.853
 6230POPC   C1A18243   1.943   4.285   8.553
 6230POPC   D2A18244   2.019   4.302   8.253
 6230POPC   C3A18245   1.946   4.290   7.953
 6230POPC   C4A18246   2.008   4.346   7.653
 6230POPC   C1B18247   2.210   4.177   8.553
 6230POPC   C2B18248   2.242   4.145   8.253
 6230POPC   C3B18249   2.193   4.208   7.953
 6230POPC   C4B18250   2.200   4.156   7.653
 6231POPC   NC318251   6.629   1.194   9.453
 6231POPC   PO418252   6.678   1.167   9.153
 6231POPC   GL118253   6.693   1.182   8.853
 6231POPC   GL218254   6.574   1.338   8.853
 6231POPC   C1A18255   6.616   1.224   8.553
 6231POPC   D2A18256   6.667   1.182   8.253
 6231POPC   C3A18257   6.621   1.173   7.953
 6231POPC   C4A18258   6.611   1.188   7.653
 6231POPC   C1B18259   6.538   1.439   8.553
 6231POPC   C2B18260   6.591   1.476   8.253
 6231POPC   C3B18261   6.555   1.452   7.953
 6231POPC   C4B18262   6.595   1.453   7.653
 6232POPC   NC318263  42.359  24.446   9.453
 6232POPC   PO418264  42.360  24.481   9.153
 6232POPC   GL118265  42.342  24.503   8.853
 6232POPC   GL218266  42.243  24.548   8.853
 6232POPC   C1A18267  42.316  24.476   8.553
 6232POPC   D2A18268  42.336  24.515   8.253
 6232POPC   C3A18269  42.342  24.518   7.953
 6232POPC   C4A18270  42.343  24.481   7.653
 6232POPC   C1B18271  42.125  24.525   8.553
 6232POPC   C2B18272  42.061  24.525   8.253
 6232POPC   C3B18273  42.064  24.593   7.953
 6232POPC   C4B18274  42.077  24.563   7.653
 6233POPC   NC318275  15.199  39.989   9.453
 6233POPC   PO418276  15.181  40.003   9.153
 6233POPC   GL118277  15.165  40.048   8.853
 6233POPC   GL218278  15.061  39.984   8.853
 6233POPC   C1A18279  15.221  39.960   8.553
 6233POPC   D2A18280  15.162  39.972   8.253
 6233POPC   C3A18281  15.228  40.017   7.953
 6233POPC   C4A18282  15.171  39.987   7.653
 6233POPC   C1B18283  14.912  40.005   8.553
 6233POPC   C2B18284  14.900  39.956   8.253
 6233POPC   C3B18285  14.897  39.920   7.953
 6233POPC   C4B18286  14.898  39.934   7.653
 6234POPC   NC318287  30.712   0.400   9.453
 6234POPC   PO418288  30.740   0.396   9.153
 6234POPC   GL118289  30.690   0.400   8.853
 6234POPC   GL218290  30.729   0.515   8.853
 6234POPC   C1A18291  30.670   0.422   8.553
 6234POPC   D2A18292  30.722   0.471   8.253
 6234POPC   C3A18293  30.692   0.430   7.953
 6234POPC   C4A18294  30.670   0.435   7.653
 6234POPC   C1B18295  30.700   0.708   8.553
 6234POPC   C2B18296  30.697   0.677   8.253
 6234POPC   C3B18297  30.692   0.690   7.953
 6234POPC   C4B18298  30.734   0.715   7.653
 6235POPC   NC318299  44.639  19.800   9.453
 6235POPC   PO418300  44.635  19.867   9.153
 6235POPC   GL118301  44.644  19.821   8.853
 6235POPC   GL218302  44.651  19.931   8.853
 6235POPC   C1A18303  44.651  19.837   8.553
 6235POPC   D2A18304  44.702  19.795   8.253
 6235POPC   C3A18305  44.679  19.875   7.953
 6235POPC   C4A18306  44.615  19.839   7.653
 6235POPC   C1B18307  44.619  20.085   8.553
 6235POPC   C2B18308  44.637  20.076   8.253
 6235POPC   C3B18309  44.549  20.044   7.953
 6235POPC   C4B18310  44.544  20.034   7.653
 6236POPC   NC318311  26.826  27.642   9.453
 6236POPC   PO418312  26.865  27.603   9.153
 6236POPC   GL118313  26.813  27.580   8.853
 6236POPC   GL218314  26.739  27.706   8.853
 6236POPC   C1A18315  26.773  27.595   8.553
 6236POPC   D2A18316  26.780  27.593   8.253
 6236POPC   C3A18317  26.822  27.595   7.953
 6236POPC   C4A18318  26.840  27.589   7.653
 6236POPC   C1B18319  26.677  27.805   8.553
 6236POPC   C2B18320  26.640  27.805   8.253
 6236POPC   C3B18321  26.659  27.775   7.953
 6236POPC   C4B18322  26.681  27.824   7.653
 6237POPC   NC318323   1.987  44.708   9.453
 6237POPC   PO418324   2.013  44.639   9.153
 6237POPC   GL118325   2.035  44.676   8.853
 6237POPC   GL218326   2.051  44.755   8.853
 6237POPC   C1A18327   1.964  44.697   8.553
 6237POPC   D2A18328   1.946  44.621   8.253
 6237POPC   C3A18329   1.971  44.670   7.953
 6237POPC   C4A18330   2.019  44.709   7.653
 6237POPC   C1B18331   2.178  44.873   8.553
 6237POPC   C2B18332   2.132  44.833   8.253
 6237POPC   C3B18333   2.219  44.851   7.953
 6237POPC   C4B18334   2.136  44.833   7.653
 6238POPC   NC318335  29.114  35.321   9.453
 6238POPC   PO418336  29.158  35.360   9.153
 6238POPC   GL118337  29.132  35.361   8.853
 6238POPC   GL218338  29.284  35.383   8.853
 6238POPC   C1A18339  29.117  35.339   8.553
 6238POPC   D2A18340  29.130  35.340   8.253
 6238POPC   C3A18341  29.137  35.327   7.953
 6238POPC   C4A18342  29.184  35.372   7.653
 6238POPC   C1B18343  29.361  35.374   8.553
 6238POPC   C2B18344  29.400  35.374   8.253
 6238POPC   C3B18345  29.368  35.383   7.953
 6238POPC   C4B18346  29.372  35.372   7.653
 6239POPC   NC318347  19.788  33.785   9.453
 6239POPC   PO418348  19.806  33.806   9.153
 6239POPC   GL118349  19.849  33.826   8.853
 6239POPC   GL218350  19.845  33.963   8.853
 6239POPC   C1A18351  19.849  33.757   8.553
 6239POPC   D2A18352  19.844  33.808   8.253
 6239POPC   C3A18353  19.826  33.825   7.953
 6239POPC   C4A18354  19.866  33.798   7.653
 6239POPC   C1B18355  19.861  34.004   8.553
 6239POPC   C2B18356  19.895  34.033   8.253
 6239POPC   C3B18357  19.861  34.073   7.953
 6239POPC   C4B18358  19.877  33.994   7.653
 6240POPC   NC318359  12.871  43.905   9.453
 6240POPC   PO418360  12.829  43.884   9.153
 6240POPC   GL118361  12.825  43.888   8.853
 6240POPC   GL218362  12.946  44.005   8.853
 6240POPC   C1A18363  12.886  43.861   8.553
 6240POPC   D2A18364  12.885  43.926   8.253
 6240POPC   C3A18365  12.840  43.848   7.953
 6240POPC   C4A18366  12.866  43.918   7.653
 6240POPC   C1B18367  13.042  44.040   8.553
 6240POPC   C2B18368  13.014  44.085   8.253
 6240POPC   C3B18369  13.014  44.051   7.953
 6240POPC   C4B18370  12.991  44.060   7.653
 6241POPC   NC318371  43.864   2.000   9.453
 6241POPC   PO418372  43.877   2.011   9.153
 6241POPC   GL118373  43.933   1.982   8.853
 6241POPC   GL218374  43.828   2.048   8.853
 6241POPC   C1A18375  43.879   1.957   8.553
 6241POPC   D2A18376  43.934   2.027   8.253
 6241POPC   C3A18377  43.884   1.992   7.953
 6241POPC   C4A18378  43.917   2.020   7.653
 6241POPC   C1B18379  43.685   2.123   8.553
 6241POPC   C2B18380  43.742   2.127   8.253
 6241POPC   C3B18381  43.738   2.114   7.953
 6241POPC   C4B18382  43.737   2.105   7.653
 6242POPC   NC318383   5.096  44.662   9.453
 6242POPC   PO418384   5.095  44.679   9.153
 6242POPC   GL118385   5.071  44.661   8.853
 6242POPC   GL218386   5.220  44.589   8.853
 6242POPC   C1A18387   5.108  44.675   8.553
 6242POPC   D2A18388   5.082  44.660   8.253
 6242POPC   C3A18389   5.101  44.670   7.953
 6242POPC   C4A18390   5.135  44.711   7.653
 6242POPC   C1B18391   5.354  44.575   8.553
 6242POPC   C2B18392   5.332  44.620   8.253
 6242POPC   C3B18393   5.362  44.610   7.953
 6242POPC   C4B18394   5.358  44.633   7.653
 6243POPC   NC318395  26.058  14.418   9.453
 6243POPC   PO418396  25.995  14.378   9.153
 6243POPC   GL118397  26.064  14.418   8.853
 6243POPC   GL218398  25.987  14.258   8.853
 6243POPC   C1A18399  26.076  14.426   8.553
 6243POPC   D2A18400  26.074  14.437   8.253
 6243POPC   C3A18401  26.018  14.383   7.953
 6243POPC   C4A18402  26.009  14.367   7.653
 6243POPC   C1B18403  25.968  14.122   8.553
 6243POPC   C2B18404  26.008  14.118   8.253
 6243POPC   C3B18405  26.006  14.186   7.953
 6243POPC   C4B18406  25.972  14.121   7.653
 6244POPC   NC318407  29.898  41.558   9.453
 6244POPC   PO418408  29.885  41.509   9.153
 6244POPC   GL118409  29.900  41.529   8.853
 6244POPC   GL218410  29.767  41.522   8.853
 6244POPC   C1A18411  29.881  41.597   8.553
 6244POPC   D2A18412  29.964  41.576   8.253
 6244POPC   C3A18413  29.937  41.592   7.953
 6244POPC   C4A18414  29.917  41.597   7.653
 6244POPC   C1B18415  29.710  41.400   8.553
 6244POPC   C2B18416  29.694  41.436   8.253
 6244POPC   C3B18417  29.752  41.404   7.953
 6244POPC   C4B18418  29.732  41.421   7.653
 6245POPC   NC318419  25.293   4.343   9.453
 6245POPC   PO418420  25.283   4.355   9.153
 6245POPC   GL118421  25.310   4.330   8.853
 6245POPC   GL218422  25.196   4.229   8.853
 6245POPC   C1A18423  25.309   4.357   8.553
 6245POPC   D2A18424  25.277   4.336   8.253
 6245POPC   C3A18425  25.310   4.307   7.953
 6245POPC   C4A18426  25.271   4.340   7.653
 6245POPC   C1B18427  25.080   4.150   8.553
 6245POPC   C2B18428  25.083   4.154   8.253
 6245POPC   C3B18429  25.094   4.176   7.953
 6245POPC   C4B18430  25.061   4.191   7.653
 6246POPC   NC318431  33.819  26.796   9.453
 6246POPC   PO418432  33.835  26.864   9.153
 6246POPC   GL118433  33.757  26.830   8.853
 6246POPC   GL218434  33.766  26.669   8.853
 6246POPC   C1A18435  33.820  26.792   8.553
 6246POPC   D2A18436  33.819  26.773   8.253
 6246POPC   C3A18437  33.771  26.789   7.953
 6246POPC   C4A18438  33.786  26.836   7.653
 6246POPC   C1B18439  33.772  26.567   8.553
 6246POPC   C2B18440  33.770  26.574   8.253
 6246POPC   C3B18441  33.757  26.609   7.953
 6246POPC   C4B18442  33.768  26.543   7.653
 6247POPC   NC318443  34.606  18.258   9.453
 6247POPC   PO418444  34.568  18.259   9.153
 6247POPC   GL118445  34.562  18.331   8.853
 6247POPC   GL218446  34.598  18.128   8.853
 6247POPC   C1A18447  34.562  18.273   8.553
 6247POPC   D2A18448  34.578  18.243   8.253
 6247POPC   C3A18449  34.606  18.320   7.953
 6247POPC   C4A18450  34.592  18.332   7.653
 6247POPC   C1B18451  34.723  18.104   8.553
 6247POPC   C2B18452  34.708  18.095   8.253
 6247POPC   C3B18453  34.719  18.049   7.953
 6247POPC   C4B18454  34.713  18.082   7.653
 6248POPC   NC318455  38.428  36.143   9.453
 6248POPC   PO418456  38.470  36.081   9.153
 6248POPC   GL118457  38.432  36.107   8.853
 6248POPC   GL218458  38.557  36.142   8.853
 6248POPC   C1A18459  38.447  36.096   8.553
 6248POPC   D2A18460  38.475  36.085   8.253
 6248POPC   C3A18461  38.451  36.080   7.953
 6248POPC   C4A18462  38.418  36.172   7.653
 6248POPC   C1B18463  38.748  36.059   8.553
 6248POPC   C2B18464  38.739  36.143   8.253
 6248POPC   C3B18465  38.687  36.100   7.953
 6248POPC   C4B18466  38.706  36.046   7.653
 6249POPC   NC318467  37.664   8.959   9.453
 6249POPC   PO418468  37.653   8.999   9.153
 6249POPC   GL118469  37.718   9.003   8.853
 6249POPC   GL218470  37.715   8.881   8.853
 6249POPC   C1A18471  37.702   8.946   8.553
 6249POPC   D2A18472  37.644   8.940   8.253
 6249POPC   C3A18473  37.727   8.953   7.953
 6249POPC   C4A18474  37.644   8.933   7.653
 6249POPC   C1B18475  37.702   8.720   8.553
 6249POPC   C2B18476  37.694   8.679   8.253
 6249POPC   C3B18477  37.741   8.765   7.953
 6249POPC   C4B18478  37.741   8.761   7.653
 6250POPC   NC318479  29.140  18.300   9.453
 6250POPC   PO418480  29.117  18.255   9.153
 6250POPC   GL118481  29.147  18.262   8.853
 6250POPC   GL218482  29.015  18.237   8.853
 6250POPC   C1A18483  29.180  18.310   8.553
 6250POPC   D2A18484  29.134  18.235   8.253
 6250POPC   C3A18485  29.164  18.308   7.953
 6250POPC   C4A18486  29.145  18.297   7.653
 6250POPC   C1B18487  28.888  18.213   8.553
 6250POPC   C2B18488  28.898  18.237   8.253
 6250POPC   C3B18489  28.899  18.204   7.953
 6250POPC   C4B18490  28.872  18.191   7.653
 6251POPC   NC318491   1.179  44.682   9.453
 6251POPC   PO418492   1.210  44.625   9.153
 6251POPC   GL118493   1.229  44.654   8.853
 6251POPC   GL218494   1.387  44.641   8.853
 6251POPC   C1A18495   1.220  44.678   8.553
 6251POPC   D2A18496   1.175  44.626   8.253
 6251POPC   C3A18497   1.215  44.621   7.953
 6251POPC   C4A18498   1.175  44.679   7.653
 6251POPC   C1B18499   1.499  44.687   8.553
 6251POPC   C2B18500   1.418  44.675   8.253
 6251POPC   C3B18501   1.463  44.688   7.953
 6251POPC   C4B18502   1.485  44.634   7.653
 6252POPC   NC318503  16.766  44.699   9.453
 6252POPC   PO418504  16.764  44.618   9.153
 6252POPC   GL118505  16.735  44.615   8.853
 6252POPC   GL218506  16.590  44.707   8.853
 6252POPC   C1A18507  16.732  44.653   8.553
 6252POPC   D2A18508  16.750  44.702   8.253
 6252POPC   C3A18509  16.764  44.687   7.953
 6252POPC   C4A18510  16.753  44.636   7.653
 6252POPC   C1B18511  16.550  44.773   8.553
 6252POPC   C2B18512  16.522  44.788   8.253
 6252POPC   C3B18513  16.505  44.746   7.953
 6252POPC   C4B18514  16.539  44.755   7.653
 6253POPC   NC318515   2.733  24.451   9.453
 6253POPC   PO418516   2.769  24.448   9.153
 6253POPC   GL118517   2.747  24.473   8.853
 6253POPC   GL218518   2.855  24.426   8.853
 6253POPC   C1A18519   2.798  24.498   8.553
 6253POPC   D2A18520   2.757  24.485   8.253
 6253POPC   C3A18521   2.800  24.495   7.953
 6253POPC   C4A18522   2.784  24.467   7.653
 6253POPC   C1B18523   2.978  24.428   8.553
 6253POPC   C2B18524   2.966  24.407   8.253
 6253POPC   C3B18525   3.046  24.371   7.953
 6253POPC   C4B18526   3.017  24.360   7.653
 6254POPC   NC318527  25.245  10.500   9.453
 6254POPC   PO418528  25.309  10.505   9.153
 6254POPC   GL118529  25.294  10.511   8.853
 6254POPC   GL218530  25.161  10.572   8.853
 6254POPC   C1A18531  25.224  10.567   8.553
 6254POPC   D2A18532  25.231  10.560   8.253
 6254POPC   C3A18533  25.226  10.479   7.953
 6254POPC   C4A18534  25.221  10.509   7.653
 6254POPC   C1B18535  25.084  10.764   8.553
 6254POPC   C2B18536  25.085  10.705   8.253
 6254POPC   C3B18537  25.121  10.669   7.953
 6254POPC   C4B18538  25.153  10.681   7.653
 6255POPC   NC318539  25.241  22.981   9.453
 6255POPC   PO418540  25.288  22.922   9.153
 6255POPC   GL118541  25.299  22.900   8.853
 6255POPC   GL218542  25.177  22.834   8.853
 6255POPC   C1A18543  25.294  22.908   8.553
 6255POPC   D2A18544  25.278  22.895   8.253
 6255POPC   C3A18545  25.264  22.900   7.953
 6255POPC   C4A18546  25.308  22.977   7.653
 6255POPC   C1B18547  25.057  22.742   8.553
 6255POPC   C2B18548  25.108  22.766   8.253
 6255POPC   C3B18549  25.043  22.773   7.953
 6255POPC   C4B18550  25.065  22.772   7.653
 6256POPC   NC318551  34.550  15.208   9.453
 6256POPC   PO418552  34.560  15.193   9.153
 6256POPC   GL118553  34.603  15.169   8.853
 6256POPC   GL218554  34.654  15.262   8.853
 6256POPC   C1A18555  34.543  15.171   8.553
 6256POPC   D2A18556  34.610  15.194   8.253
 6256POPC   C3A18557  34.614  15.143   7.953
 6256POPC   C4A18558  34.572  15.200   7.653
 6256POPC   C1B18559  34.734  15.405   8.553
 6256POPC   C2B18560  34.683  15.336   8.253
 6256POPC   C3B18561  34.730  15.378   7.953
 6256POPC   C4B18562  34.757  15.366   7.653
 6257POPC   NC318563  21.391  28.414   9.453
 6257POPC   PO418564  21.411  28.353   9.153
 6257POPC   GL118565  21.394  28.382   8.853
 6257POPC   GL218566  21.535  28.385   8.853
 6257POPC   C1A18567  21.369  28.327   8.553
 6257POPC   D2A18568  21.393  28.377   8.253
 6257POPC   C3A18569  21.372  28.352   7.953
 6257POPC   C4A18570  21.360  28.413   7.653
 6257POPC   C1B18571  21.652  28.443   8.553
 6257POPC   C2B18572  21.661  28.461   8.253
 6257POPC   C3B18573  21.651  28.450   7.953
 6257POPC   C4B18574  21.583  28.472   7.653
 6258POPC   NC318575  40.046   1.167   9.453
 6258POPC   PO418576  40.015   1.202   9.153
 6258POPC   GL118577  40.027   1.181   8.853
 6258POPC   GL218578  40.049   1.324   8.853
 6258POPC   C1A18579  39.983   1.201   8.553
 6258POPC   D2A18580  39.975   1.207   8.253
 6258POPC   C3A18581  40.020   1.188   7.953
 6258POPC   C4A18582  40.054   1.190   7.653
 6258POPC   C1B18583  39.988   1.487   8.553
 6258POPC   C2B18584  40.018   1.421   8.253
 6258POPC   C3B18585  40.066   1.491   7.953
 6258POPC   C4B18586  40.008   1.499   7.653
 6259POPC   NC318587   9.715   0.391   9.453
 6259POPC   PO418588   9.787   0.454   9.153
 6259POPC   GL118589   9.741   0.424   8.853
 6259POPC   GL218590   9.872   0.310   8.853
 6259POPC   C1A18591   9.781   0.428   8.553
 6259POPC   D2A18592   9.769   0.412   8.253
 6259POPC   C3A18593   9.796   0.446   7.953
 6259POPC   C4A18594   9.792   0.480   7.653
 6259POPC   C1B18595   9.927   0.295   8.553
 6259POPC   C2B18596   9.918   0.288   8.253
 6259POPC   C3B18597   9.896   0.289   7.953
 6259POPC   C4B18598   9.880   0.294   7.653
 6260POPC   NC318599   7.404   8.185   9.453
 6260POPC   PO418600   7.456   8.151   9.153
 6260POPC   GL118601   7.469   8.221   8.853
 6260POPC   GL218602   7.381   8.030   8.853
 6260POPC   C1A18603   7.448   8.188   8.553
 6260POPC   D2A18604   7.375   8.223   8.253
 6260POPC   C3A18605   7.392   8.239   7.953
 6260POPC   C4A18606   7.406   8.184   7.653
 6260POPC   C1B18607   7.374   8.003   8.553
 6260POPC   C2B18608   7.334   7.941   8.253
 6260POPC   C3B18609   7.379   7.930   7.953
 6260POPC   C4B18610   7.333   7.943   7.653
 6261POPC   NC318611  17.463  19.795   9.453
 6261POPC   PO418612  17.518  19.849   9.153
 6261POPC   GL118613  17.473  19.853   8.853
 6261POPC   GL218614  17.590  19.907   8.853
 6261POPC   C1A18615  17.514  19.791   8.553
 6261POPC   D2A18616  17.474  19.788   8.253
 6261POPC   C3A18617  17.540  19.829   7.953
 6261POPC   C4A18618  17.555  19.829   7.653
 6261POPC   C1B18619  17.723  19.934   8.553
 6261POPC   C2B18620  17.724  19.941   8.253
 6261POPC   C3B18621  17.763  19.895   7.953
 6261POPC   C4B18622  17.690  19.911   7.653
 6262POPC   NC318623  42.354  33.029   9.453
 6262POPC   PO418624  42.328  32.983   9.153
 6262POPC   GL118625  42.322  33.006   8.853
 6262POPC   GL218626  42.240  33.015   8.853
 6262POPC   C1A18627  42.364  33.021   8.553
 6262POPC   D2A18628  42.344  33.072   8.253
 6262POPC   C3A18629  42.327  33.031   7.953
 6262POPC   C4A18630  42.319  33.017   7.653
 6262POPC   C1B18631  42.108  33.021   8.553
 6262POPC   C2B18632  42.109  33.020   8.253
 6262POPC   C3B18633  42.116  32.994   7.953
 6262POPC   C4B18634  42.087  32.978   7.653
 6263POPC   NC318635  12.114   9.713   9.453
 6263POPC   PO418636  12.033   9.776   9.153
 6263POPC   GL118637  12.053   9.744   8.853
 6263POPC   GL218638  12.206   9.780   8.853
 6263POPC   C1A18639  12.045   9.768   8.553
 6263POPC   D2A18640  12.073   9.784   8.253
 6263POPC   C3A18641  12.070   9.709   7.953
 6263POPC   C4A18642  12.064   9.725   7.653
 6263POPC   C1B18643  12.280   9.859   8.553
 6263POPC   C2B18644  12.324   9.849   8.253
 6263POPC   C3B18645  12.256   9.854   7.953
 6263POPC   C4B18646  12.298   9.918   7.653
 6264POPC   NC318647  38.425  43.880   9.453
 6264POPC   PO418648  38.438  43.838   9.153
 6264POPC   GL118649  38.443  43.880   8.853
 6264POPC   GL218650  38.318  43.805   8.853
 6264POPC   C1A18651  38.465  43.934   8.553
 6264POPC   D2A18652  38.458  43.867   8.253
 6264POPC   C3A18653  38.410  43.931   7.953
 6264POPC   C4A18654  38.500  43.928   7.653
 6264POPC   C1B18655  38.287  43.768   8.553
 6264POPC   C2B18656  38.236  43.783   8.253
 6264POPC   C3B18657  38.240  43.737   7.953
 6264POPC   C4B18658  38.243  43.770   7.653
 6265POPC   NC318659  18.234  32.997   9.453
 6265POPC   PO418660  18.254  32.985   9.153
 6265POPC   GL118661  18.242  33.033   8.853
 6265POPC   GL218662  18.233  33.089   8.853
 6265POPC   C1A18663  18.323  33.022   8.553
 6265POPC   D2A18664  18.245  33.056   8.253
 6265POPC   C3A18665  18.312  33.055   7.953
 6265POPC   C4A18666  18.300  33.027   7.653
 6265POPC   C1B18667  18.157  33.237   8.553
 6265POPC   C2B18668  18.109  33.260   8.253
 6265POPC   C3B18669  18.100  33.197   7.953
 6265POPC   C4B18670  18.153  33.253   7.653
 6266POPC   NC318671  43.910  12.887   9.453
 6266POPC   PO418672  43.841  12.889   9.153
 6266POPC   GL118673  43.889  12.803   8.853
 6266POPC   GL218674  43.819  12.818   8.853
 6266POPC   C1A18675  43.918  12.811   8.553
 6266POPC   D2A18676  43.896  12.824   8.253
 6266POPC   C3A18677  43.847  12.896   7.953
 6266POPC   C4A18678  43.839  12.805   7.653
 6266POPC   C1B18679  43.701  12.677   8.553
 6266POPC   C2B18680  43.630  12.693   8.253
 6266POPC   C3B18681  43.624  12.672   7.953
 6266POPC   C4B18682  43.637  12.720   7.653
 6267POPC   NC318683  22.906  21.418   9.453
 6267POPC   PO418684  22.914  21.343   9.153
 6267POPC   GL118685  22.982  21.392   8.853
 6267POPC   GL218686  22.844  21.410   8.853
 6267POPC   C1A18687  22.922  21.387   8.553
 6267POPC   D2A18688  22.941  21.429   8.253
 6267POPC   C3A18689  22.933  21.422   7.953
 6267POPC   C4A18690  22.970  21.339   7.653
 6267POPC   C1B18691  22.716  21.348   8.553
 6267POPC   C2B18692  22.736  21.395   8.253
 6267POPC   C3B18693  22.658  21.439   7.953
 6267POPC   C4B18694  22.658  21.376   7.653
 6268POPC   NC318695  36.892  23.703   9.453
 6268POPC   PO418696  36.898  23.725   9.153
 6268POPC   GL118697  36.858  23.671   8.853
 6268POPC   GL218698  36.782  23.623   8.853
 6268POPC   C1A18699  36.950  23.740   8.553
 6268POPC   D2A18700  36.920  23.740   8.253
 6268POPC   C3A18701  36.880  23.703   7.953
 6268POPC   C4A18702  36.880  23.758   7.653
 6268POPC   C1B18703  36.694  23.581   8.553
 6268POPC   C2B18704  36.739  23.551   8.253
 6268POPC   C3B18705  36.660  23.562   7.953
 6268POPC   C4B18706  36.688  23.563   7.653
 6269POPC   NC318707  27.582  36.165   9.453
 6269POPC   PO418708  27.600  36.157   9.153
 6269POPC   GL118709  27.603  36.129   8.853
 6269POPC   GL218710  27.544  36.013   8.853
 6269POPC   C1A18711  27.559  36.082   8.553
 6269POPC   D2A18712  27.572  36.126   8.253
 6269POPC   C3A18713  27.583  36.089   7.953
 6269POPC   C4A18714  27.555  36.138   7.653
 6269POPC   C1B18715  27.440  35.953   8.553
 6269POPC   C2B18716  27.406  35.986   8.253
 6269POPC   C3B18717  27.382  35.995   7.953
 6269POPC   C4B18718  27.409  35.958   7.653
 6270POPC   NC318719  43.869   0.447   9.453
 6270POPC   PO418720  43.913   0.483   9.153
 6270POPC   GL118721  43.885   0.402   8.853
 6270POPC   GL218722  43.910   0.562   8.853
 6270POPC   C1A18723  43.862   0.473   8.553
 6270POPC   D2A18724  43.866   0.485   8.253
 6270POPC   C3A18725  43.929   0.466   7.953
 6270POPC   C4A18726  43.888   0.430   7.653
 6270POPC   C1B18727  43.932   0.727   8.553
 6270POPC   C2B18728  43.961   0.735   8.253
 6270POPC   C3B18729  43.969   0.670   7.953
 6270POPC   C4B18730  43.959   0.717   7.653
 6271POPC   NC318731  20.633   1.181   9.453
 6271POPC   PO418732  20.617   1.194   9.153
 6271POPC   GL118733  20.575   1.168   8.853
 6271POPC   GL218734  20.738   1.147   8.853
 6271POPC   C1A18735  20.580   1.176   8.553
 6271POPC   D2A18736  20.565   1.178   8.253
 6271POPC   C3A18737  20.611   1.238   7.953
 6271POPC   C4A18738  20.576   1.255   7.653
 6271POPC   C1B18739  20.837   1.158   8.553
 6271POPC   C2B18740  20.817   1.178   8.253
 6271POPC   C3B18741  20.848   1.148   7.953
 6271POPC   C4B18742  20.810   1.141   7.653
 6272POPC   NC318743   5.127  12.870   9.453
 6272POPC   PO418744   5.110  12.814   9.153
 6272POPC   GL118745   5.089  12.818   8.853
 6272POPC   GL218746   5.052  13.014   8.853
 6272POPC   C1A18747   5.083  12.879   8.553
 6272POPC   D2A18748   5.122  12.802   8.253
 6272POPC   C3A18749   5.095  12.889   7.953
 6272POPC   C4A18750   5.059  12.844   7.653
 6272POPC   C1B18751   4.992  13.078   8.553
 6272POPC   C2B18752   5.007  13.131   8.253
 6272POPC   C3B18753   4.965  13.130   7.953
 6272POPC   C4B18754   4.965  13.039   7.653
 6273POPC   NC318755  19.837  21.415   9.453
 6273POPC   PO418756  19.881  21.377   9.153
 6273POPC   GL118757  19.870  21.393   8.853
 6273POPC   GL218758  19.691  21.371   8.853
 6273POPC   C1A18759  19.859  21.413   8.553
 6273POPC   D2A18760  19.853  21.338   8.253
 6273POPC   C3A18761  19.810  21.391   7.953
 6273POPC   C4A18762  19.859  21.351   7.653
 6273POPC   C1B18763  19.627  21.463   8.553
 6273POPC   C2B18764  19.622  21.491   8.253
 6273POPC   C3B18765  19.577  21.497   7.953
 6273POPC   C4B18766  19.596  21.407   7.653
 6274POPC   NC318767  40.794  12.123   9.453
 6274POPC   PO418768  40.806  12.125   9.153
 6274POPC   GL118769  40.756  12.079   8.853
 6274POPC   GL218770  40.895  12.163   8.853
 6274POPC   C1A18771  40.745  12.058   8.553
 6274POPC   D2A18772  40.764  12.084   8.253
 6274POPC   C3A18773  40.802  12.044   7.953
 6274POPC   C4A18774  40.738  12.050   7.653
 6274POPC   C1B18775  40.912  12.227   8.553
 6274POPC   C2B18776  40.987  12.308   8.253
 6274POPC   C3B18777  40.917  12.257   7.953
 6274POPC   C4B18778  40.902  12.302   7.653
 6275POPC   NC318779  22.919   9.766   9.453
 6275POPC   PO418780  22.974   9.777   9.153
 6275POPC   GL118781  22.970   9.731   8.853
 6275POPC   GL218782  22.897   9.863   8.853
 6275POPC   C1A18783  22.982   9.705   8.553
 6275POPC   D2A18784  22.892   9.701   8.253
 6275POPC   C3A18785  22.980   9.714   7.953
 6275POPC   C4A18786  22.898   9.724   7.653
 6275POPC   C1B18787  22.762  10.005   8.553
 6275POPC   C2B18788  22.818   9.986   8.253
 6275POPC   C3B18789  22.828   9.921   7.953
 6275POPC   C4B18790  22.802   9.971   7.653
 6276POPC   NC318791  10.511  19.874   9.453
 6276POPC   PO418792  10.506  19.837   9.153
 6276POPC   GL118793  10.573  19.818   8.853
 6276POPC   GL218794  10.404  19.813   8.853
 6276POPC   C1A18795  10.506  19.831   8.553
 6276POPC   D2A18796  10.480  19.797   8.253
 6276POPC   C3A18797  10.534  19.870   7.953
 6276POPC   C4A18798  10.559  19.843   7.653
 6276POPC   C1B18799  10.242  19.750   8.553
 6276POPC   C2B18800  10.249  19.740   8.253
 6276POPC   C3B18801  10.310  19.702   7.953
 6276POPC   C4B18802  10.254  19.756   7.653
 6277POPC   NC318803  21.360   4.283   9.453
 6277POPC   PO418804  21.423   4.299   9.153
 6277POPC   GL118805  21.376   4.272   8.853
 6277POPC   GL218806  21.285   4.381   8.853
 6277POPC   C1A18807  21.414   4.272   8.553
 6277POPC   D2A18808  21.357   4.292   8.253
 6277POPC   C3A18809  21.351   4.289   7.953
 6277POPC   C4A18810  21.344   4.311   7.653
 6277POPC   C1B18811  21.138   4.467   8.553
 6277POPC   C2B18812  21.201   4.410   8.253
 6277POPC   C3B18813  21.185   4.496   7.953
 6277POPC   C4B18814  21.212   4.485   7.653
 6278POPC   NC318815  16.756   9.007   9.453
 6278POPC   PO418816  16.711   8.946   9.153
 6278POPC   GL118817  16.710   8.957   8.853
 6278POPC   GL218818  16.842   9.097   8.853
 6278POPC   C1A18819  16.703   8.928   8.553
 6278POPC   D2A18820  16.736   8.948   8.253
 6278POPC   C3A18821  16.706   8.994   7.953
 6278POPC   C4A18822  16.725   9.008   7.653
 6278POPC   C1B18823  16.973   9.074   8.553
 6278POPC   C2B18824  16.888   9.106   8.253
 6278POPC   C3B18825  16.907   9.128   7.953
 6278POPC   C4B18826  16.946   9.151   7.653
 6279POPC   NC318827   9.717   1.225   9.453
 6279POPC   PO418828   9.751   1.180   9.153
 6279POPC   GL118829   9.726   1.180   8.853
 6279POPC   GL218830   9.685   1.270   8.853
 6279POPC   C1A18831   9.765   1.188   8.553
 6279POPC   D2A18832   9.719   1.237   8.253
 6279POPC   C3A18833   9.717   1.165   7.953
 6279POPC   C4A18834   9.754   1.209   7.653
 6279POPC   C1B18835   9.542   1.444   8.553
 6279POPC   C2B18836   9.558   1.392   8.253
 6279POPC   C3B18837   9.622   1.430   7.953
 6279POPC   C4B18838   9.547   1.419   7.653
 6280POPC   NC318839   9.751  10.485   9.453
 6280POPC   PO418840   9.739  10.475   9.153
 6280POPC   GL118841   9.712  10.543   8.853
 6280POPC   GL218842   9.883  10.456   8.853
 6280POPC   C1A18843   9.703  10.567   8.553
 6280POPC   D2A18844   9.787  10.487   8.253
 6280POPC   C3A18845   9.705  10.513   7.953
 6280POPC   C4A18846   9.740  10.565   7.653
 6280POPC   C1B18847  10.007  10.425   8.553
 6280POPC   C2B18848   9.938  10.464   8.253
 6280POPC   C3B18849   9.969  10.457   7.953
 6280POPC   C4B18850   9.958  10.463   7.653
 6281POPC   NC318851  29.141  38.448   9.453
 6281POPC   PO418852  29.119  38.413   9.153
 6281POPC   GL118853  29.139  38.474   8.853
 6281POPC   GL218854  29.041  38.535   8.853
 6281POPC   C1A18855  29.178  38.414   8.553
 6281POPC   D2A18856  29.123  38.408   8.253
 6281POPC   C3A18857  29.192  38.413   7.953
 6281POPC   C4A18858  29.192  38.482   7.653
 6281POPC   C1B18859  28.978  38.620   8.553
 6281POPC   C2B18860  28.987  38.679   8.253
 6281POPC   C3B18861  28.963  38.672   7.953
 6281POPC   C4B18862  29.017  38.647   7.653
 6282POPC   NC318863   5.085  36.141   9.453
 6282POPC   PO418864   5.142  36.148   9.153
 6282POPC   GL118865   5.128  36.129   8.853
 6282POPC   GL218866   5.107  36.231   8.853
 6282POPC   C1A18867   5.077  36.177   8.553
 6282POPC   D2A18868   5.100  36.169   8.253
 6282POPC   C3A18869   5.074  36.164   7.953
 6282POPC   C4A18870   5.118  36.160   7.653
 6282POPC   C1B18871   5.172  36.363   8.553
 6282POPC   C2B18872   5.199  36.395   8.253
 6282POPC   C3B18873   5.185  36.378   7.953
 6282POPC   C4B18874   5.136  36.357   7.653
 6283POPC   NC318875  34.618   5.059   9.453
 6283POPC   PO418876  34.528   5.131   9.153
 6283POPC   GL118877  34.552   5.103   8.853
 6283POPC   GL218878  34.458   5.199   8.853
 6283POPC   C1A18879  34.579   5.114   8.553
 6283POPC   D2A18880  34.610   5.072   8.253
 6283POPC   C3A18881  34.593   5.074   7.953
 6283POPC   C4A18882  34.547   5.048   7.653
 6283POPC   C1B18883  34.411   5.306   8.553
 6283POPC   C2B18884  34.390   5.321   8.253
 6283POPC   C3B18885  34.399   5.273   7.953
 6283POPC   C4B18886  34.410   5.231   7.653
 6284POPC   NC318887  27.556  10.537   9.453
 6284POPC   PO418888  27.588  10.503   9.153
 6284POPC   GL118889  27.588  10.503   8.853
 6284POPC   GL218890  27.739  10.440   8.853
 6284POPC   C1A18891  27.613  10.567   8.553
 6284POPC   D2A18892  27.637  10.570   8.253
 6284POPC   C3A18893  27.630  10.557   7.953
 6284POPC   C4A18894  27.578  10.552   7.653
 6284POPC   C1B18895  27.808  10.389   8.553
 6284POPC   C2B18896  27.866  10.469   8.253
 6284POPC   C3B18897  27.859  10.466   7.953
 6284POPC   C4B18898  27.821  10.474   7.653
 6285POPC   NC318899  19.097   0.415   9.453
 6285POPC   PO418900  19.076   0.419   9.153
 6285POPC   GL118901  19.048   0.440   8.853
 6285POPC   GL218902  19.216   0.395   8.853
 6285POPC   C1A18903  19.065   0.459   8.553
 6285POPC   D2A18904  19.098   0.458   8.253
 6285POPC   C3A18905  19.029   0.403   7.953
 6285POPC   C4A18906  19.060   0.415   7.653
 6285POPC   C1B18907  19.305   0.467   8.553
 6285POPC   C2B18908  19.301   0.466   8.253
 6285POPC   C3B18909  19.275   0.468   7.953
 6285POPC   C4B18910  19.325   0.409   7.653
 6286POPC   NC318911  39.238  43.093   9.453
 6286POPC   PO418912  39.200  43.109   9.153
 6286POPC   GL118913  39.272  43.099   8.853
 6286POPC   GL218914  39.172  43.189   8.853
 6286POPC   C1A18915  39.281  43.061   8.553
 6286POPC   D2A18916  39.256  43.117   8.253
 6286POPC   C3A18917  39.263  43.083   7.953
 6286POPC   C4A18918  39.252  43.127   7.653
 6286POPC   C1B18919  39.074  43.322   8.553
 6286POPC   C2B18920  39.056  43.337   8.253
 6286POPC   C3B18921  39.051  43.291   7.953
 6286POPC   C4B18922  39.096  43.306   7.653
 6287POPC   NC318923  10.567  40.754   9.453
 6287POPC   PO418924  10.560  40.809   9.153
 6287POPC   GL118925  10.491  40.737   8.853
 6287POPC   GL218926  10.612  40.673   8.853
 6287POPC   C1A18927  10.494  40.797   8.553
 6287POPC   D2A18928  10.528  40.818   8.253
 6287POPC   C3A18929  10.476  40.743   7.953
 6287POPC   C4A18930  10.519  40.825   7.653
 6287POPC   C1B18931  10.614  40.539   8.553
 6287POPC   C2B18932  10.602  40.523   8.253
 6287POPC   C3B18933  10.645  40.522   7.953
 6287POPC   C4B18934  10.589  40.589   7.653
 6288POPC   NC318935  43.901  10.529   9.453
 6288POPC   PO418936  43.934  10.558   9.153
 6288POPC   GL118937  43.906  10.536   8.853
 6288POPC   GL218938  43.814  10.411   8.853
 6288POPC   C1A18939  43.865  10.574   8.553
 6288POPC   D2A18940  43.905  10.531   8.253
 6288POPC   C3A18941  43.899  10.502   7.953
 6288POPC   C4A18942  43.901  10.512   7.653
 6288POPC   C1B18943  43.731  10.359   8.553
 6288POPC   C2B18944  43.726  10.366   8.253
 6288POPC   C3B18945  43.735  10.334   7.953
 6288POPC   C4B18946  43.722  10.320   7.653
 6289POPC   NC318947  28.336  36.151   9.453
 6289POPC   PO418948  28.400  36.153   9.153
 6289POPC   GL118949  28.345  36.132   8.853
 6289POPC   GL218950  28.381  36.243   8.853
 6289POPC   C1A18951  28.344  36.138   8.553
 6289POPC   D2A18952  28.404  36.150   8.253
 6289POPC   C3A18953  28.358  36.111   7.953
 6289POPC   C4A18954  28.361  36.143   7.653
 6289POPC   C1B18955  28.309  36.361   8.553
 6289POPC   C2B18956  28.310  36.355   8.253
 6289POPC   C3B18957  28.346  36.374   7.953
 6289POPC   C4B18958  28.392  36.341   7.653
 6290POPC   NC318959  21.391  30.697   9.453
 6290POPC   PO418960  21.411  30.676   9.153
 6290POPC   GL118961  21.392  30.647   8.853
 6290POPC   GL218962  21.418  30.628   8.853
 6290POPC   C1A18963  21.425  30.711   8.553
 6290POPC   D2A18964  21.371  30.673   8.253
 6290POPC   C3A18965  21.355  30.676   7.953
 6290POPC   C4A18966  21.399  30.741   7.653
 6290POPC   C1B18967  21.540  30.473   8.553
 6290POPC   C2B18968  21.506  30.482   8.253
 6290POPC   C3B18969  21.478  30.492   7.953
 6290POPC   C4B18970  21.547  30.499   7.653
 6291POPC   NC318971  32.260  34.581   9.453
 6291POPC   PO418972  32.284  34.603   9.153
 6291POPC   GL118973  32.289  34.538   8.853
 6291POPC   GL218974  32.223  34.701   8.853
 6291POPC   C1A18975  32.265  34.543   8.553
 6291POPC   D2A18976  32.228  34.573   8.253
 6291POPC   C3A18977  32.230  34.617   7.953
 6291POPC   C4A18978  32.203  34.536   7.653
 6291POPC   C1B18979  32.144  34.801   8.553
 6291POPC   C2B18980  32.163  34.851   8.253
 6291POPC   C3B18981  32.155  34.860   7.953
 6291POPC   C4B18982  32.138  34.844   7.653
 6292POPC   NC318983  12.082   8.226   9.453
 6292POPC   PO418984  12.052   8.225   9.153
 6292POPC   GL118985  12.068   8.207   8.853
 6292POPC   GL218986  12.208   8.203   8.853
 6292POPC   C1A18987  12.079   8.188   8.553
 6292POPC   D2A18988  12.031   8.232   8.253
 6292POPC   C3A18989  12.047   8.204   7.953
 6292POPC   C4A18990  12.112   8.212   7.653
 6292POPC   C1B18991  12.284   8.135   8.553
 6292POPC   C2B18992  12.355   8.176   8.253
 6292POPC   C3B18993  12.330   8.103   7.953
 6292POPC   C4B18994  12.271   8.144   7.653
 6293POPC   NC318995  26.036   9.771   9.453
 6293POPC   PO418996  26.025   9.778   9.153
 6293POPC   GL118997  26.039   9.780   8.853
 6293POPC   GL218998  25.917   9.695   8.853
 6293POPC   C1A18999  26.066   9.710   8.553
 6293POPC   D2A19000  26.073   9.717   8.253
 6293POPC   C3A19001  26.025   9.720   7.953
 6293POPC   C4A19002  26.081   9.786   7.653
 6293POPC   C1B19003  25.793   9.662   8.553
 6293POPC   C2B19004  25.815   9.645   8.253
 6293POPC   C3B19005  25.837   9.619   7.953
 6293POPC   C4B19006  25.798   9.617   7.653
 6294POPC   NC319007  36.163  20.570   9.453
 6294POPC   PO419008  36.163  20.627   9.153
 6294POPC   GL119009  36.168  20.651   8.853
 6294POPC   GL219010  36.058  20.449   8.853
 6294POPC   C1A19011  36.124  20.610   8.553
 6294POPC   D2A19012  36.114  20.619   8.253
 6294POPC   C3A19013  36.081  20.637   7.953
 6294POPC   C4A19014  36.134  20.656   7.653
 6294POPC   C1B19015  36.031  20.423   8.553
 6294POPC   C2B19016  35.981  20.393   8.253
 6294POPC   C3B19017  36.067  20.413   7.953
 6294POPC   C4B19018  36.032  20.351   7.653
 6295POPC   NC319019  10.533   8.166   9.453
 6295POPC   PO419020  10.488   8.148   9.153
 6295POPC   GL119021  10.558   8.183   8.853
 6295POPC   GL219022  10.604   8.112   8.853
 6295POPC   C1A19023  10.550   8.223   8.553
 6295POPC   D2A19024  10.545   8.162   8.253
 6295POPC   C3A19025  10.537   8.176   7.953
 6295POPC   C4A19026  10.501   8.218   7.653
 6295POPC   C1B19027  10.764   8.082   8.553
 6295POPC   C2B19028  10.704   7.998   8.253
 6295POPC   C3B19029  10.722   8.052   7.953
 6295POPC   C4B19030  10.679   8.036   7.653
 6296POPC   NC319031  27.595  33.022   9.453
 6296POPC   PO419032  27.597  33.066   9.153
 6296POPC   GL119033  27.578  32.975   8.853
 6296POPC   GL219034  27.709  32.928   8.853
 6296POPC   C1A19035  27.610  33.005   8.553
 6296POPC   D2A19036  27.617  33.046   8.253
 6296POPC   C3A19037  27.549  33.067   7.953
 6296POPC   C4A19038  27.569  33.013   7.653
 6296POPC   C1B19039  27.745  32.800   8.553
 6296POPC   C2B19040  27.783  32.814   8.253
 6296POPC   C3B19041  27.716  32.865   7.953
 6296POPC   C4B19042  27.735  32.822   7.653
 6297POPC   NC319043   5.894  29.929   9.453
 6297POPC   PO419044   5.830  29.937   9.153
 6297POPC   GL119045   5.899  29.895   8.853
 6297POPC   GL219046   5.981  29.833   8.853
 6297POPC   C1A19047   5.865  29.891   8.553
 6297POPC   D2A19048   5.828  29.929   8.253
 6297POPC   C3A19049   5.904  29.871   7.953
 6297POPC   C4A19050   5.830  29.880   7.653
 6297POPC   C1B19051   5.976  29.706   8.553
 6297POPC   C2B19052   6.027  29.702   8.253
 6297POPC   C3B19053   5.965  29.743   7.953
 6297POPC   C4B19054   5.979  29.756   7.653
 6298POPC   NC319055   2.815  34.536   9.453
 6298POPC   PO419056   2.739  34.566   9.153
 6298POPC   GL119057   2.801  34.597   8.853
 6298POPC   GL219058   2.663  34.661   8.853
 6298POPC   C1A19059   2.809  34.566   8.553
 6298POPC   D2A19060   2.739  34.598   8.253
 6298POPC   C3A19061   2.753  34.615   7.953
 6298POPC   C4A19062   2.737  34.625   7.653
 6298POPC   C1B19063   2.546  34.727   8.553
 6298POPC   C2B19064   2.553  34.763   8.253
 6298POPC   C3B19065   2.612  34.731   7.953
 6298POPC   C4B19066   2.553  34.762   7.653
 6299POPC   NC319067  10.519  44.671   9.453
 6299POPC   PO419068  10.533  44.693   9.153
 6299POPC   GL119069  10.483  44.613   8.853
 6299POPC   GL219070  10.564  44.803   8.853
 6299POPC   C1A19071  10.508  44.670   8.553
 6299POPC   D2A19072  10.560  44.671   8.253
 6299POPC   C3A19073  10.505  44.671   7.953
 6299POPC   C4A19074  10.493  44.652   7.653
 6299POPC   C1B19075  10.519  44.892   8.553
 6299POPC   C2B19076  10.517  44.898   8.253
 6299POPC   C3B19077  10.554  44.867   7.953
 6299POPC   C4B19078  10.479  44.879   7.653
 6300POPC   NC319079  32.293  36.109   9.453
 6300POPC   PO419080  32.286  36.157   9.153
 6300POPC   GL119081  32.248  36.170   8.853
 6300POPC   GL219082  32.148  36.260   8.853
 6300POPC   C1A19083  32.292  36.135   8.553
 6300POPC   D2A19084  32.291  36.119   8.253
 6300POPC   C3A19085  32.246  36.116   7.953
 6300POPC   C4A19086  32.258  36.149   7.653
 6300POPC   C1B19087  32.139  36.296   8.553
 6300POPC   C2B19088  32.060  36.363   8.253
 6300POPC   C3B19089  32.077  36.291   7.953
 6300POPC   C4B19090  32.130  36.297   7.653
 6301POPC   NC319091  31.515  32.205   9.453
 6301POPC   PO419092  31.521  32.227   9.153
 6301POPC   GL119093  31.499  32.213   8.853
 6301POPC   GL219094  31.598  32.250   8.853
 6301POPC   C1A19095  31.445  32.266   8.553
 6301POPC   D2A19096  31.471  32.217   8.253
 6301POPC   C3A19097  31.428  32.208   7.953
 6301POPC   C4A19098  31.518  32.216   7.653
 6301POPC   C1B19099  31.734  32.207   8.553
 6301POPC   C2B19100  31.725  32.253   8.253
 6301POPC   C3B19101  31.685  32.183   7.953
 6301POPC   C4B19102  31.709  32.231   7.653
 6302POPC   NC319103  31.435  16.700   9.453
 6302POPC   PO419104  31.513  16.713   9.153
 6302POPC   GL119105  31.432  16.717   8.853
 6302POPC   GL219106  31.426  16.845   8.853
 6302POPC   C1A19107  31.481  16.693   8.553
 6302POPC   D2A19108  31.494  16.730   8.253
 6302POPC   C3A19109  31.518  16.771   7.953
 6302POPC   C4A19110  31.426  16.741   7.653
 6302POPC   C1B19111  31.452  16.931   8.553
 6302POPC   C2B19112  31.406  17.020   8.253
 6302POPC   C3B19113  31.406  17.006   7.953
 6302POPC   C4B19114  31.423  16.961   7.653
 6303POPC   NC319115  36.117   9.777   9.453
 6303POPC   PO419116  36.135   9.713   9.153
 6303POPC   GL119117  36.087   9.699   8.853
 6303POPC   GL219118  36.196   9.627   8.853
 6303POPC   C1A19119  36.106   9.727   8.553
 6303POPC   D2A19120  36.092   9.783   8.253
 6303POPC   C3A19121  36.125   9.732   7.953
 6303POPC   C4A19122  36.177   9.797   7.653
 6303POPC   C1B19123  36.344   9.616   8.553
 6303POPC   C2B19124  36.307   9.614   8.253
 6303POPC   C3B19125  36.303   9.545   7.953
 6303POPC   C4B19126  36.283   9.583   7.653
 6304POPC   NC319127  12.090  14.401   9.453
 6304POPC   PO419128  12.119  14.397   9.153
 6304POPC   GL119129  12.103  14.438   8.853
 6304POPC   GL219130  12.217  14.334   8.853
 6304POPC   C1A19131  12.126  14.441   8.553
 6304POPC   D2A19132  12.038  14.374   8.253
 6304POPC   C3A19133  12.056  14.402   7.953
 6304POPC   C4A19134  12.096  14.373   7.653
 6304POPC   C1B19135  12.340  14.248   8.553
 6304POPC   C2B19136  12.305  14.275   8.253
 6304POPC   C3B19137  12.252  14.302   7.953
 6304POPC   C4B19138  12.305  14.268   7.653
 6305POPC   NC319139  12.072  10.487   9.453
 6305POPC   PO419140  12.121  10.500   9.153
 6305POPC   GL119141  12.042  10.527   8.853
 6305POPC   GL219142  12.187  10.572   8.853
 6305POPC   C1A19143  12.083  10.481   8.553
 6305POPC   D2A19144  12.079  10.553   8.253
 6305POPC   C3A19145  12.041  10.570   7.953
 6305POPC   C4A19146  12.043  10.502   7.653
 6305POPC   C1B19147  12.311  10.710   8.553
 6305POPC   C2B19148  12.233  10.654   8.253
 6305POPC   C3B19149  12.302  10.661   7.953
 6305POPC   C4B19150  12.267  10.692   7.653
 6306POPC   NC319151  28.338  26.826   9.453
 6306POPC   PO419152  28.349  26.841   9.153
 6306POPC   GL119153  28.380  26.864   8.853
 6306POPC   GL219154  28.482  26.798   8.853
 6306POPC   C1A19155  28.333  26.851   8.553
 6306POPC   D2A19156  28.392  26.814   8.253
 6306POPC   C3A19157  28.394  26.833   7.953
 6306POPC   C4A19158  28.379  26.823   7.653
 6306POPC   C1B19159  28.615  26.788   8.553
 6306POPC   C2B19160  28.603  26.807   8.253
 6306POPC   C3B19161  28.657  26.867   7.953
 6306POPC   C4B19162  28.624  26.781   7.653
 6307POPC   NC319163  36.942   9.745   9.453
 6307POPC   PO419164  36.911   9.782   9.153
 6307POPC   GL119165  36.882   9.701   8.853
 6307POPC   GL219166  37.021   9.679   8.853
 6307POPC   C1A19167  36.923   9.707   8.553
 6307POPC   D2A19168  36.923   9.752   8.253
 6307POPC   C3A19169  36.914   9.730   7.953
 6307POPC   C4A19170  36.859   9.761   7.653
 6307POPC   C1B19171  37.182   9.686   8.553
 6307POPC   C2B19172  37.111   9.675   8.253
 6307POPC   C3B19173  37.147   9.707   7.953
 6307POPC   C4B19174  37.189   9.715   7.653
 6308POPC   NC319175  41.558  34.622   9.453
 6308POPC   PO419176  41.518  34.540   9.153
 6308POPC   GL119177  41.588  34.620   8.853
 6308POPC   GL219178  41.488  34.636   8.853
 6308POPC   C1A19179  41.599  34.552   8.553
 6308POPC   D2A19180  41.540  34.611   8.253
 6308POPC   C3A19181  41.554  34.626   7.953
 6308POPC   C4A19182  41.535  34.556   7.653
 6308POPC   C1B19183  41.331  34.718   8.553
 6308POPC   C2B19184  41.340  34.715   8.253
 6308POPC   C3B19185  41.347  34.699   7.953
 6308POPC   C4B19186  41.398  34.754   7.653
 6309POPC   NC319187  40.784   5.826   9.453
 6309POPC   PO419188  40.799   5.823   9.153
 6309POPC   GL119189  40.832   5.839   8.853
 6309POPC   GL219190  40.768   5.784   8.853
 6309POPC   C1A19191  40.758   5.824   8.553
 6309POPC   D2A19192  40.767   5.823   8.253
 6309POPC   C3A19193  40.769   5.864   7.953
 6309POPC   C4A19194  40.752   5.866   7.653
 6309POPC   C1B19195  40.833   5.598   8.553
 6309POPC   C2B19196  40.768   5.629   8.253
 6309POPC   C3B19197  40.777   5.576   7.953
 6309POPC   C4B19198  40.782   5.627   7.653
 6310POPC   NC319199  19.833  31.512   9.453
 6310POPC   PO419200  19.854  31.486   9.153
 6310POPC   GL119201  19.827  31.520   8.853
 6310POPC   GL219202  19.926  31.449   8.853
 6310POPC   C1A19203  19.800  31.503   8.553
 6310POPC   D2A19204  19.827  31.469   8.253
 6310POPC   C3A19205  19.811  31.449   7.953
 6310POPC   C4A19206  19.881  31.428   7.653
 6310POPC   C1B19207  20.045  31.434   8.553
 6310POPC   C2B19208  20.106  31.464   8.253
 6310POPC   C3B19209  20.053  31.522   7.953
 6310POPC   C4B19210  20.104  31.501   7.653
 6311POPC   NC319211  21.369  12.899   9.453
 6311POPC   PO419212  21.347  12.854   9.153
 6311POPC   GL119213  21.366  12.894   8.853
 6311POPC   GL219214  21.365  12.765   8.853
 6311POPC   C1A19215  21.435  12.863   8.553
 6311POPC   D2A19216  21.401  12.828   8.253
 6311POPC   C3A19217  21.384  12.863   7.953
 6311POPC   C4A19218  21.361  12.846   7.653
 6311POPC   C1B19219  21.456  12.566   8.553
 6311POPC   C2B19220  21.423  12.604   8.253
 6311POPC   C3B19221  21.464  12.649   7.953
 6311POPC   C4B19222  21.469  12.604   7.653
 6312POPC   NC319223  13.633  41.602   9.453
 6312POPC   PO419224  13.674  41.571   9.153
 6312POPC   GL119225  13.671  41.594   8.853
 6312POPC   GL219226  13.603  41.648   8.853
 6312POPC   C1A19227  13.643  41.567   8.553
 6312POPC   D2A19228  13.647  41.527   8.253
 6312POPC   C3A19229  13.625  41.591   7.953
 6312POPC   C4A19230  13.669  41.564   7.653
 6312POPC   C1B19231  13.574  41.832   8.553
 6312POPC   C2B19232  13.541  41.833   8.253
 6312POPC   C3B19233  13.558  41.819   7.953
 6312POPC   C4B19234  13.551  41.793   7.653
 6313POPC   NC319235  40.767  13.672   9.453
 6313POPC   PO419236  40.797  13.589   9.153
 6313POPC   GL119237  40.805  13.602   8.853
 6313POPC   GL219238  40.649  13.637   8.853
 6313POPC   C1A19239  40.750  13.660   8.553
 6313POPC   D2A19240  40.776  13.660   8.253
 6313POPC   C3A19241  40.824  13.635   7.953
 6313POPC   C4A19242  40.802  13.585   7.653
 6313POPC   C1B19243  40.521  13.739   8.553
 6313POPC   C2B19244  40.580  13.740   8.253
 6313POPC   C3B19245  40.535  13.745   7.953
 6313POPC   C4B19246  40.587  13.720   7.653
 6314POPC   NC319247   4.359   0.437   9.453
 6314POPC   PO419248   4.278   0.418   9.153
 6314POPC   GL119249   4.323   0.443   8.853
 6314POPC   GL219250   4.279   0.269   8.853
 6314POPC   C1A19251   4.296   0.398   8.553
 6314POPC   D2A19252   4.342   0.408   8.253
 6314POPC   C3A19253   4.337   0.425   7.953
 6314POPC   C4A19254   4.323   0.460   7.653
 6314POPC   C1B19255   4.310   0.173   8.553
 6314POPC   C2B19256   4.318   0.206   8.253
 6314POPC   C3B19257   4.325   0.215   7.953
 6314POPC   C4B19258   4.272   0.197   7.653
 6315POPC   NC319259   8.199  24.488   9.453
 6315POPC   PO419260   8.204  24.450   9.153
 6315POPC   GL119261   8.174  24.510   8.853
 6315POPC   GL219262   8.244  24.594   8.853
 6315POPC   C1A19263   8.231  24.465   8.553
 6315POPC   D2A19264   8.226  24.450   8.253
 6315POPC   C3A19265   8.227  24.530   7.953
 6315POPC   C4A19266   8.217  24.459   7.653
 6315POPC   C1B19267   8.428  24.626   8.553
 6315POPC   C2B19268   8.370  24.675   8.253
 6315POPC   C3B19269   8.386  24.701   7.953
 6315POPC   C4B19270   8.376  24.669   7.653
 6316POPC   NC319271  19.855  36.149   9.453
 6316POPC   PO419272  19.834  36.144   9.153
 6316POPC   GL119273  19.836  36.126   8.853
 6316POPC   GL219274  19.726  36.200   8.853
 6316POPC   C1A19275  19.858  36.115   8.553
 6316POPC   D2A19276  19.845  36.093   8.253
 6316POPC   C3A19277  19.824  36.104   7.953
 6316POPC   C4A19278  19.851  36.100   7.653
 6316POPC   C1B19279  19.559  36.256   8.553
 6316POPC   C2B19280  19.638  36.197   8.253
 6316POPC   C3B19281  19.585  36.210   7.953
 6316POPC   C4B19282  19.636  36.213   7.653
 6317POPC   NC319283  29.960  18.273   9.453
 6317POPC   PO419284  29.961  18.319   9.153
 6317POPC   GL119285  29.928  18.313   8.853
 6317POPC   GL219286  29.817  18.212   8.853
 6317POPC   C1A19287  29.937  18.233   8.553
 6317POPC   D2A19288  29.912  18.285   8.253
 6317POPC   C3A19289  29.957  18.245   7.953
 6317POPC   C4A19290  29.929  18.307   7.653
 6317POPC   C1B19291  29.788  18.083   8.553
 6317POPC   C2B19292  29.725  18.084   8.253
 6317POPC   C3B19293  29.761  18.118   7.953
 6317POPC   C4B19294  29.749  18.076   7.653
 6318POPC   NC319295  34.615  36.138   9.453
 6318POPC   PO419296  34.571  36.118   9.153
 6318POPC   GL119297  34.563  36.142   8.853
 6318POPC   GL219298  34.495  36.094   8.853
 6318POPC   C1A19299  34.585  36.157   8.553
 6318POPC   D2A19300  34.592  36.112   8.253
 6318POPC   C3A19301  34.539  36.102   7.953
 6318POPC   C4A19302  34.560  36.096   7.653
 6318POPC   C1B19303  34.315  36.125   8.553
 6318POPC   C2B19304  34.358  36.165   8.253
 6318POPC   C3B19305  34.321  36.134   7.953
 6318POPC   C4B19306  34.361  36.154   7.653
 6319POPC   NC319307  29.936  26.806   9.453
 6319POPC   PO419308  29.909  26.839   9.153
 6319POPC   GL119309  29.929  26.821   8.853
 6319POPC   GL219310  29.806  26.799   8.853
 6319POPC   C1A19311  29.921  26.828   8.553
 6319POPC   D2A19312  29.964  26.810   8.253
 6319POPC   C3A19313  29.968  26.787   7.953
 6319POPC   C4A19314  29.956  26.807   7.653
 6319POPC   C1B19315  29.687  26.758   8.553
 6319POPC   C2B19316  29.659  26.801   8.253
 6319POPC   C3B19317  29.646  26.832   7.953
 6319POPC   C4B19318  29.647  26.796   7.653
 6320POPC   NC319319  26.033  16.780   9.453
 6320POPC   PO419320  26.016  16.756   9.153
 6320POPC   GL119321  26.039  16.777   8.853
 6320POPC   GL219322  26.001  16.853   8.853
 6320POPC   C1A19323  26.009  16.768   8.553
 6320POPC   D2A19324  26.015  16.691   8.253
 6320POPC   C3A19325  26.086  16.740   7.953
 6320POPC   C4A19326  26.047  16.730   7.653
 6320POPC   C1B19327  26.054  16.937   8.553
 6320POPC   C2B19328  26.051  17.015   8.253
 6320POPC   C3B19329  25.986  17.014   7.953
 6320POPC   C4B19330  26.008  16.991   7.653
 6321POPC   NC319331  40.830  34.542   9.453
 6321POPC   PO419332  40.767  34.544   9.153
 6321POPC   GL119333  40.775  34.566   8.853
 6321POPC   GL219334  40.688  34.459   8.853
 6321POPC   C1A19335  40.807  34.576   8.553
 6321POPC   D2A19336  40.832  34.539   8.253
 6321POPC   C3A19337  40.796  34.537   7.953
 6321POPC   C4A19338  40.820  34.603   7.653
 6321POPC   C1B19339  40.627  34.340   8.553
 6321POPC   C2B19340  40.675  34.419   8.253
 6321POPC   C3B19341  40.625  34.387   7.953
 6321POPC   C4B19342  40.617  34.370   7.653
 6322POPC   NC319343   6.635  24.465   9.453
 6322POPC   PO419344   6.660  24.487   9.153
 6322POPC   GL119345   6.661  24.461   8.853
 6322POPC   GL219346   6.783  24.506   8.853
 6322POPC   C1A19347   6.615  24.528   8.553
 6322POPC   D2A19348   6.651  24.535   8.253
 6322POPC   C3A19349   6.633  24.463   7.953
 6322POPC   C4A19350   6.600  24.479   7.653
 6322POPC   C1B19351   6.830  24.602   8.553
 6322POPC   C2B19352   6.829  24.574   8.253
 6322POPC   C3B19353   6.831  24.620   7.953
 6322POPC   C4B19354   6.909  24.602   7.653
 6323POPC   NC319355   3.496  36.926   9.453
 6323POPC   PO419356   3.506  36.932   9.153
 6323POPC   GL119357   3.528  36.949   8.853
 6323POPC   GL219358   3.481  36.804   8.853
 6323POPC   C1A19359   3.522  36.885   8.553
 6323POPC   D2A19360   3.522  36.942   8.253
 6323POPC   C3A19361   3.555  36.866   7.953
 6323POPC   C4A19362   3.554  36.858   7.653
 6323POPC   C1B19363   3.414  36.662   8.553
 6323POPC   C2B19364   3.428  36.748   8.253
 6323POPC   C3B19365   3.419  36.735   7.953
 6323POPC   C4B19366   3.434  36.718   7.653
 6324POPC   NC319367  19.083  34.574   9.453
 6324POPC   PO419368  19.092  34.599   9.153
 6324POPC   GL119369  19.042  34.563   8.853
 6324POPC   GL219370  19.099  34.472   8.853
 6324POPC   C1A19371  19.047  34.561   8.553
 6324POPC   D2A19372  19.025  34.535   8.253
 6324POPC   C3A19373  19.085  34.571   7.953
 6324POPC   C4A19374  19.082  34.554   7.653
 6324POPC   C1B19375  19.171  34.402   8.553
 6324POPC   C2B19376  19.233  34.338   8.253
 6324POPC   C3B19377  19.200  34.422   7.953
 6324POPC   C4B19378  19.190  34.421   7.653
 6325POPC   NC319379   1.235   6.649   9.453
 6325POPC   PO419380   1.171   6.597   9.153
 6325POPC   GL119381   1.200   6.654   8.853
 6325POPC   GL219382   1.067   6.707   8.853
 6325POPC   C1A19383   1.255   6.616   8.553
 6325POPC   D2A19384   1.249   6.680   8.253
 6325POPC   C3A19385   1.201   6.627   7.953
 6325POPC   C4A19386   1.239   6.666   7.653
 6325POPC   C1B19387   0.986   6.794   8.553
 6325POPC   C2B19388   0.945   6.766   8.253
 6325POPC   C3B19389   1.030   6.788   7.953
 6325POPC   C4B19390   0.942   6.727   7.653
 6326POPC   NC319391  22.894  12.058   9.453
 6326POPC   PO419392  22.962  12.112   9.153
 6326POPC   GL119393  22.944  12.087   8.853
 6326POPC   GL219394  22.796  12.122   8.853
 6326POPC   C1A19395  22.959  12.110   8.553
 6326POPC   D2A19396  22.956  12.085   8.253
 6326POPC   C3A19397  22.958  12.064   7.953
 6326POPC   C4A19398  22.961  12.031   7.653
 6326POPC   C1B19399  22.705  12.152   8.553
 6326POPC   C2B19400  22.758  12.165   8.253
 6326POPC   C3B19401  22.699  12.148   7.953
 6326POPC   C4B19402  22.749  12.191   7.653
 6327POPC   NC319403  36.930   3.548   9.453
 6327POPC   PO419404  36.870   3.539   9.153
 6327POPC   GL119405  36.928   3.525   8.853
 6327POPC   GL219406  37.031   3.447   8.853
 6327POPC   C1A19407  36.879   3.524   8.553
 6327POPC   D2A19408  36.922   3.515   8.253
 6327POPC   C3A19409  36.945   3.536   7.953
 6327POPC   C4A19410  36.942   3.542   7.653
 6327POPC   C1B19411  37.077   3.444   8.553
 6327POPC   C2B19412  37.158   3.384   8.253
 6327POPC   C3B19413  37.147   3.453   7.953
 6327POPC   C4B19414  37.113   3.426   7.653
 6328POPC   NC319415  40.751  27.550   9.453
 6328POPC   PO419416  40.820  27.616   9.153
 6328POPC   GL119417  40.792  27.579   8.853
 6328POPC   GL219418  40.782  27.456   8.853
 6328POPC   C1A19419  40.764  27.622   8.553
 6328POPC   D2A19420  40.745  27.587   8.253
 6328POPC   C3A19421  40.749  27.559   7.953
 6328POPC   C4A19422  40.733  27.601   7.653
 6328POPC   C1B19423  40.712  27.338   8.553
 6328POPC   C2B19424  40.706  27.390   8.253
 6328POPC   C3B19425  40.754  27.353   7.953
 6328POPC   C4B19426  40.739  27.321   7.653
 6329POPC   NC319427  40.742  44.691   9.453
 6329POPC   PO419428  40.793  44.677   9.153
 6329POPC   GL119429  40.802  44.634   8.853
 6329POPC   GL219430  40.771  44.501   8.853
 6329POPC   C1A19431  40.802  44.638   8.553
 6329POPC   D2A19432  40.780  44.690   8.253
 6329POPC   C3A19433  40.736  44.659   7.953
 6329POPC   C4A19434  40.777  44.710   7.653
 6329POPC   C1B19435  40.715  44.373   8.553
 6329POPC   C2B19436  40.762  44.425   8.253
 6329POPC   C3B19437  40.781  44.388   7.953
 6329POPC   C4B19438  40.747  44.367   7.653
 6330POPC   NC319439  28.319  38.494   9.453
 6330POPC   PO419440  28.412  38.440   9.153
 6330POPC   GL119441  28.384  38.475   8.853
 6330POPC   GL219442  28.473  38.505   8.853
 6330POPC   C1A19443  28.348  38.434   8.553
 6330POPC   D2A19444  28.384  38.444   8.253
 6330POPC   C3A19445  28.330  38.412   7.953
 6330POPC   C4A19446  28.361  38.440   7.653
 6330POPC   C1B19447  28.617  38.543   8.553
 6330POPC   C2B19448  28.645  38.562   8.253
 6330POPC   C3B19449  28.621  38.526   7.953
 6330POPC   C4B19450  28.644  38.488   7.653
 6331POPC   NC319451  17.511  42.296   9.453
 6331POPC   PO419452  17.542  42.327   9.153
 6331POPC   GL119453  17.485  42.352   8.853
 6331POPC   GL219454  17.425  42.221   8.853
 6331POPC   C1A19455  17.532  42.342   8.553
 6331POPC   D2A19456  17.519  42.291   8.253
 6331POPC   C3A19457  17.487  42.325   7.953
 6331POPC   C4A19458  17.552  42.374   7.653
 6331POPC   C1B19459  17.358  42.142   8.553
 6331POPC   C2B19460  17.378  42.125   8.253
 6331POPC   C3B19461  17.348  42.107   7.953
 6331POPC   C4B19462  17.334  42.151   7.653
 6332POPC   NC319463  19.054   4.309   9.453
 6332POPC   PO419464  19.067   4.357   9.153
 6332POPC   GL119465  19.096   4.302   8.853
 6332POPC   GL219466  19.198   4.378   8.853
 6332POPC   C1A19467  19.013   4.344   8.553
 6332POPC   D2A19468  19.091   4.307   8.253
 6332POPC   C3A19469  19.105   4.277   7.953
 6332POPC   C4A19470  19.050   4.302   7.653
 6332POPC   C1B19471  19.225   4.422   8.553
 6332POPC   C2B19472  19.293   4.491   8.253
 6332POPC   C3B19473  19.261   4.407   7.953
 6332POPC   C4B19474  19.295   4.448   7.653
 6333POPC   NC319475  26.776  24.517   9.453
 6333POPC   PO419476  26.829  24.491   9.153
 6333POPC   GL119477  26.803  24.467   8.853
 6333POPC   GL219478  26.906  24.596   8.853
 6333POPC   C1A19479  26.814  24.473   8.553
 6333POPC   D2A19480  26.799  24.530   8.253
 6333POPC   C3A19481  26.782  24.479   7.953
 6333POPC   C4A19482  26.780  24.442   7.653
 6333POPC   C1B19483  27.016  24.637   8.553
 6333POPC   C2B19484  27.018  24.647   8.253
 6333POPC   C3B19485  27.044  24.686   7.953
 6333POPC   C4B19486  26.988  24.642   7.653
 6334POPC   NC319487  33.753  15.944   9.453
 6334POPC   PO419488  33.808  15.993   9.153
 6334POPC   GL119489  33.810  15.959   8.853
 6334POPC   GL219490  33.794  15.839   8.853
 6334POPC   C1A19491  33.838  15.981   8.553
 6334POPC   D2A19492  33.842  15.919   8.253
 6334POPC   C3A19493  33.784  15.943   7.953
 6334POPC   C4A19494  33.822  15.922   7.653
 6334POPC   C1B19495  33.707  15.674   8.553
 6334POPC   C2B19496  33.681  15.699   8.253
 6334POPC   C3B19497  33.675  15.724   7.953
 6334POPC   C4B19498  33.765  15.708   7.653
 6335POPC   NC319499  29.915  15.134   9.453
 6335POPC   PO419500  29.923  15.134   9.153
 6335POPC   GL119501  29.902  15.139   8.853
 6335POPC   GL219502  30.050  15.197   8.853
 6335POPC   C1A19503  29.910  15.165   8.553
 6335POPC   D2A19504  29.911  15.199   8.253
 6335POPC   C3A19505  29.953  15.204   7.953
 6335POPC   C4A19506  29.950  15.163   7.653
 6335POPC   C1B19507  30.155  15.151   8.553
 6335POPC   C2B19508  30.142  15.188   8.253
 6335POPC   C3B19509  30.180  15.230   7.953
 6335POPC   C4B19510  30.208  15.143   7.653
 6336POPC   NC319511   8.948  12.860   9.453
 6336POPC   PO419512   8.925  12.823   9.153
 6336POPC   GL119513   8.989  12.840   8.853
 6336POPC   GL219514   8.974  12.693   8.853
 6336POPC   C1A19515   9.009  12.892   8.553
 6336POPC   D2A19516   8.977  12.844   8.253
 6336POPC   C3A19517   8.976  12.870   7.953
 6336POPC   C4A19518   8.963  12.890   7.653
 6336POPC   C1B19519   8.943  12.608   8.553
 6336POPC   C2B19520   9.020  12.640   8.253
 6336POPC   C3B19521   9.002  12.582   7.953
 6336POPC   C4B19522   9.010  12.559   7.653
 6337POPC   NC319523  12.039  19.018   9.453
 6337POPC   PO419524  12.102  19.050   9.153
 6337POPC   GL119525  12.074  19.016   8.853
 6337POPC   GL219526  12.076  18.904   8.853
 6337POPC   C1A19527  12.121  19.066   8.553
 6337POPC   D2A19528  12.031  19.027   8.253
 6337POPC   C3A19529  12.075  19.028   7.953
 6337POPC   C4A19530  12.123  19.096   7.653
 6337POPC   C1B19531  12.059  18.779   8.553
 6337POPC   C2B19532  12.083  18.796   8.253
 6337POPC   C3B19533  12.044  18.831   7.953
 6337POPC   C4B19534  12.068  18.768   7.653
 6338POPC   NC319535  26.019  26.860   9.453
 6338POPC   PO419536  26.025  26.824   9.153
 6338POPC   GL119537  26.089  26.785   8.853
 6338POPC   GL219538  26.123  26.696   8.853
 6338POPC   C1A19539  26.029  26.848   8.553
 6338POPC   D2A19540  26.035  26.775   8.253
 6338POPC   C3A19541  26.074  26.816   7.953
 6338POPC   C4A19542  26.030  26.854   7.653
 6338POPC   C1B19543  26.239  26.633   8.553
 6338POPC   C2B19544  26.168  26.592   8.253
 6338POPC   C3B19545  26.219  26.610   7.953
 6338POPC   C4B19546  26.220  26.616   7.653
 6339POPC   NC319547  34.541  10.571   9.453
 6339POPC   PO419548  34.547  10.491   9.153
 6339POPC   GL119549  34.625  10.479   8.853
 6339POPC   GL219550  34.572  10.427   8.853
 6339POPC   C1A19551  34.542  10.568   8.553
 6339POPC   D2A19552  34.618  10.487   8.253
 6339POPC   C3A19553  34.570  10.568   7.953
 6339POPC   C4A19554  34.593  10.546   7.653
 6339POPC   C1B19555  34.573  10.302   8.553
 6339POPC   C2B19556  34.624  10.266   8.253
 6339POPC   C3B19557  34.563  10.240   7.953
 6339POPC   C4B19558  34.538  10.246   7.653
 6340POPC   NC319559  34.613  42.363   9.453
 6340POPC   PO419560  34.530  42.297   9.153
 6340POPC   GL119561  34.541  42.370   8.853
 6340POPC   GL219562  34.517  42.242   8.853
 6340POPC   C1A19563  34.612  42.306   8.553
 6340POPC   D2A19564  34.589  42.313   8.253
 6340POPC   C3A19565  34.533  42.362   7.953
 6340POPC   C4A19566  34.541  42.375   7.653
 6340POPC   C1B19567  34.450  42.117   8.553
 6340POPC   C2B19568  34.449  42.137   8.253
 6340POPC   C3B19569  34.462  42.105   7.953
 6340POPC   C4B19570  34.448  42.064   7.653
 6341POPC   NC319571  14.411  31.512   9.453
 6341POPC   PO419572  14.376  31.462   9.153
 6341POPC   GL119573  14.358  31.496   8.853
 6341POPC   GL219574  14.492  31.483   8.853
 6341POPC   C1A19575  14.395  31.491   8.553
 6341POPC   D2A19576  14.379  31.484   8.253
 6341POPC   C3A19577  14.403  31.500   7.953
 6341POPC   C4A19578  14.434  31.471   7.653
 6341POPC   C1B19579  14.673  31.552   8.553
 6341POPC   C2B19580  14.676  31.609   8.253
 6341POPC   C3B19581  14.664  31.569   7.953
 6341POPC   C4B19582  14.624  31.618   7.653
 6342POPC   NC319583   0.417  26.840   9.453
 6342POPC   PO419584   0.413  26.848   9.153
 6342POPC   GL119585   0.435  26.775   8.853
 6342POPC   GL219586   0.514  26.890   8.853
 6342POPC   C1A19587   0.407  26.798   8.553
 6342POPC   D2A19588   0.454  26.848   8.253
 6342POPC   C3A19589   0.396  26.865   7.953
 6342POPC   C4A19590   0.445  26.867   7.653
 6342POPC   C1B19591   0.648  26.931   8.553
 6342POPC   C2B19592   0.687  26.891   8.253
 6342POPC   C3B19593   0.642  26.883   7.953
 6342POPC   C4B19594   0.682  26.946   7.653
 6343POPC   NC319595  41.557   1.954   9.453
 6343POPC   PO419596  41.570   1.980   9.153
 6343POPC   GL119597  41.586   1.980   8.853
 6343POPC   GL219598  41.692   1.984   8.853
 6343POPC   C1A19599  41.597   1.973   8.553
 6343POPC   D2A19600  41.584   1.994   8.253
 6343POPC   C3A19601  41.511   2.017   7.953
 6343POPC   C4A19602  41.521   1.956   7.653
 6343POPC   C1B19603  41.784   1.922   8.553
 6343POPC   C2B19604  41.824   1.912   8.253
 6343POPC   C3B19605  41.785   1.935   7.953
 6343POPC   C4B19606  41.823   1.861   7.653
 6344POPC   NC319607  33.008   4.319   9.453
 6344POPC   PO419608  33.003   4.273   9.153
 6344POPC   GL119609  33.072   4.357   8.853
 6344POPC   GL219610  33.175   4.273   8.853
 6344POPC   C1A19611  33.071   4.268   8.553
 6344POPC   D2A19612  32.993   4.283   8.253
 6344POPC   C3A19613  33.002   4.273   7.953
 6344POPC   C4A19614  33.061   4.356   7.653
 6344POPC   C1B19615  33.257   4.185   8.553
 6344POPC   C2B19616  33.282   4.199   8.253
 6344POPC   C3B19617  33.261   4.184   7.953
 6344POPC   C4B19618  33.228   4.162   7.653
 6345POPC   NC319619  36.909   0.467   9.453
 6345POPC   PO419620  36.931   0.403   9.153
 6345POPC   GL119621  36.912   0.422   8.853
 6345POPC   GL219622  36.937   0.530   8.853
 6345POPC   C1A19623  36.902   0.428   8.553
 6345POPC   D2A19624  36.884   0.460   8.253
 6345POPC   C3A19625  36.894   0.396   7.953
 6345POPC   C4A19626  36.878   0.438   7.653
 6345POPC   C1B19627  36.915   0.667   8.553
 6345POPC   C2B19628  36.891   0.689   8.253
 6345POPC   C3B19629  36.898   0.645   7.953
 6345POPC   C4B19630  36.942   0.724   7.653
 6346POPC   NC319631  28.385  13.642   9.453
 6346POPC   PO419632  28.411  13.661   9.153
 6346POPC   GL119633  28.328  13.615   8.853
 6346POPC   GL219634  28.292  13.665   8.853
 6346POPC   C1A19635  28.333  13.599   8.553
 6346POPC   D2A19636  28.346  13.618   8.253
 6346POPC   C3A19637  28.372  13.659   7.953
 6346POPC   C4A19638  28.333  13.598   7.653
 6346POPC   C1B19639  28.136  13.732   8.553
 6346POPC   C2B19640  28.128  13.733   8.253
 6346POPC   C3B19641  28.115  13.697   7.953
 6346POPC   C4B19642  28.172  13.674   7.653
 6347POPC   NC319643  37.715  14.372   9.453
 6347POPC   PO419644  37.700  14.369   9.153
 6347POPC   GL119645  37.654  14.411   8.853
 6347POPC   GL219646  37.622  14.478   8.853
 6347POPC   C1A19647  37.692  14.408   8.553
 6347POPC   D2A19648  37.726  14.395   8.253
 6347POPC   C3A19649  37.673  14.368   7.953
 6347POPC   C4A19650  37.657  14.404   7.653
 6347POPC   C1B19651  37.585  14.685   8.553
 6347POPC   C2B19652  37.583  14.633   8.253
 6347POPC   C3B19653  37.608  14.608   7.953
 6347POPC   C4B19654  37.618  14.654   7.653
 6348POPC   NC319655   7.448  38.416   9.453
 6348POPC   PO419656   7.425  38.419   9.153
 6348POPC   GL119657   7.468  38.498   8.853
 6348POPC   GL219658   7.326  38.548   8.853
 6348POPC   C1A19659   7.420  38.467   8.553
 6348POPC   D2A19660   7.420  38.473   8.253
 6348POPC   C3A19661   7.435  38.494   7.953
 6348POPC   C4A19662   7.419  38.449   7.653
 6348POPC   C1B19663   7.203  38.632   8.553
 6348POPC   C2B19664   7.232  38.594   8.253
 6348POPC   C3B19665   7.207  38.581   7.953
 6348POPC   C4B19666   7.224  38.591   7.653
 6349POPC   NC319667   0.435  41.509   9.453
 6349POPC   PO419668   0.440  41.526   9.153
 6349POPC   GL119669   0.419  41.538   8.853
 6349POPC   GL219670   0.362  41.457   8.853
 6349POPC   C1A19671   0.480  41.561   8.553
 6349POPC   D2A19672   0.390  41.551   8.253
 6349POPC   C3A19673   0.414  41.586   7.953
 6349POPC   C4A19674   0.427  41.529   7.653
 6349POPC   C1B19675   0.273  41.388   8.553
 6349POPC   C2B19676   0.233  41.402   8.253
 6349POPC   C3B19677   0.237  41.434   7.953
 6349POPC   C4B19678   0.250  41.385   7.653
 6350POPC   NC319679  29.168   4.348   9.453
 6350POPC   PO419680  29.160   4.311   9.153
 6350POPC   GL119681  29.146   4.294   8.853
 6350POPC   GL219682  29.284   4.267   8.853
 6350POPC   C1A19683  29.107   4.366   8.553
 6350POPC   D2A19684  29.140   4.317   8.253
 6350POPC   C3A19685  29.107   4.342   7.953
 6350POPC   C4A19686  29.111   4.277   7.653
 6350POPC   C1B19687  29.376   4.170   8.553
 6350POPC   C2B19688  29.310   4.127   8.253
 6350POPC   C3B19689  29.356   4.178   7.953
 6350POPC   C4B19690  29.302   4.128   7.653
 6351POPC   NC319691  21.433   8.188   9.453
 6351POPC   PO419692  21.389   8.197   9.153
 6351POPC   GL119693  21.435   8.187   8.853
 6351POPC   GL219694  21.497   8.149   8.853
 6351POPC   C1A19695  21.367   8.242   8.553
 6351POPC   D2A19696  21.418   8.230   8.253
 6351POPC   C3A19697  21.403   8.150   7.953
 6351POPC   C4A19698  21.380   8.220   7.653
 6351POPC   C1B19699  21.611   8.203   8.553
 6351POPC   C2B19700  21.609   8.148   8.253
 6351POPC   C3B19701  21.614   8.173   7.953
 6351POPC   C4B19702  21.673   8.121   7.653
 6352POPC   NC319703   2.764   3.562   9.453
 6352POPC   PO419704   2.813   3.506   9.153
 6352POPC   GL119705   2.720   3.570   8.853
 6352POPC   GL219706   2.717   3.411   8.853
 6352POPC   C1A19707   2.762   3.545   8.553
 6352POPC   D2A19708   2.787   3.511   8.253
 6352POPC   C3A19709   2.779   3.584   7.953
 6352POPC   C4A19710   2.774   3.552   7.653
 6352POPC   C1B19711   2.568   3.364   8.553
 6352POPC   C2B19712   2.552   3.333   8.253
 6352POPC   C3B19713   2.592   3.352   7.953
 6352POPC   C4B19714   2.593   3.330   7.653
 6353POPC   NC319715  36.923   1.264   9.453
 6353POPC   PO419716  36.890   1.261   9.153
 6353POPC   GL119717  36.873   1.179   8.853
 6353POPC   GL219718  36.814   1.293   8.853
 6353POPC   C1A19719  36.902   1.215   8.553
 6353POPC   D2A19720  36.859   1.230   8.253
 6353POPC   C3A19721  36.903   1.257   7.953
 6353POPC   C4A19722  36.855   1.247   7.653
 6353POPC   C1B19723  36.754   1.339   8.553
 6353POPC   C2B19724  36.712   1.316   8.253
 6353POPC   C3B19725  36.751   1.346   7.953
 6353POPC   C4B19726  36.659   1.376   7.653
 6354POPC   NC319727  29.120  15.172   9.453
 6354POPC   PO419728  29.096  15.157   9.153
 6354POPC   GL119729  29.140  15.182   8.853
 6354POPC   GL219730  29.201  15.273   8.853
 6354POPC   C1A19731  29.097  15.139   8.553
 6354POPC   D2A19732  29.115  15.199   8.253
 6354POPC   C3A19733  29.110  15.144   7.953
 6354POPC   C4A19734  29.188  15.193   7.653
 6354POPC   C1B19735  29.246  15.420   8.553
 6354POPC   C2B19736  29.225  15.428   8.253
 6354POPC   C3B19737  29.247  15.383   7.953
 6354POPC   C4B19738  29.209  15.385   7.653
 6355POPC   NC319739  22.944  12.880   9.453
 6355POPC   PO419740  22.894  12.861   9.153
 6355POPC   GL119741  22.955  12.890   8.853
 6355POPC   GL219742  22.811  12.904   8.853
 6355POPC   C1A19743  22.912  12.840   8.553
 6355POPC   D2A19744  22.913  12.832   8.253
 6355POPC   C3A19745  22.934  12.879   7.953
 6355POPC   C4A19746  22.984  12.852   7.653
 6355POPC   C1B19747  22.691  13.009   8.553
 6355POPC   C2B19748  22.746  13.003   8.253
 6355POPC   C3B19749  22.758  12.957   7.953
 6355POPC   C4B19750  22.703  12.969   7.653
 6356POPC   NC319751  37.671  24.521   9.453
 6356POPC   PO419752  37.635  24.525   9.153
 6356POPC   GL119753  37.635  24.520   8.853
 6356POPC   GL219754  37.705  24.613   8.853
 6356POPC   C1A19755  37.717  24.463   8.553
 6356POPC   D2A19756  37.697  24.501   8.253
 6356POPC   C3A19757  37.659  24.496   7.953
 6356POPC   C4A19758  37.723  24.465   7.653
 6356POPC   C1B19759  37.875  24.688   8.553
 6356POPC   C2B19760  37.854  24.706   8.253
 6356POPC   C3B19761  37.875  24.726   7.953
 6356POPC   C4B19762  37.849  24.651   7.653
 6357POPC   NC319763  15.972   8.958   9.453
 6357POPC   PO419764  15.998   8.988   9.153
 6357POPC   GL119765  16.002   8.976   8.853
 6357POPC   GL219766  16.015   9.132   8.853
 6357POPC   C1A19767  15.975   8.963   8.553
 6357POPC   D2A19768  15.929   8.929   8.253
 6357POPC   C3A19769  15.935   8.923   7.953
 6357POPC   C4A19770  15.966   8.950   7.653
 6357POPC   C1B19771  16.054   9.247   8.553
 6357POPC   C2B19772  16.017   9.264   8.253
 6357POPC   C3B19773  16.043   9.243   7.953
 6357POPC   C4B19774  16.023   9.247   7.653
 6358POPC   NC319775  12.059   7.418   9.453
 6358POPC   PO419776  12.096   7.443   9.153
 6358POPC   GL119777  12.048   7.419   8.853
 6358POPC   GL219778  11.982   7.498   8.853
 6358POPC   C1A19779  12.048   7.418   8.553
 6358POPC   D2A19780  12.050   7.417   8.253
 6358POPC   C3A19781  12.036   7.419   7.953
 6358POPC   C4A19782  12.114   7.437   7.653
 6358POPC   C1B19783  11.874   7.532   8.553
 6358POPC   C2B19784  11.879   7.603   8.253
 6358POPC   C3B19785  11.858   7.583   7.953
 6358POPC   C4B19786  11.842   7.627   7.653
 6359POPC   NC319787   6.669  12.096   9.453
 6359POPC   PO419788   6.615  12.065   9.153
 6359POPC   GL119789   6.630  12.054   8.853
 6359POPC   GL219790   6.491  12.144   8.853
 6359POPC   C1A19791   6.635  12.027   8.553
 6359POPC   D2A19792   6.655  12.046   8.253
 6359POPC   C3A19793   6.634  12.029   7.953
 6359POPC   C4A19794   6.614  12.087   7.653
 6359POPC   C1B19795   6.415  12.164   8.553
 6359POPC   C2B19796   6.360  12.175   8.253
 6359POPC   C3B19797   6.391  12.105   7.953
 6359POPC   C4B19798   6.370  12.141   7.653
 6360POPC   NC319799  32.249   3.555   9.453
 6360POPC   PO419800  32.282   3.560   9.153
 6360POPC   GL119801  32.245   3.542   8.853
 6360POPC   GL219802  32.379   3.558   8.853
 6360POPC   C1A19803  32.237   3.569   8.553
 6360POPC   D2A19804  32.297   3.566   8.253
 6360POPC   C3A19805  32.293   3.545   7.953
 6360POPC   C4A19806  32.256   3.517   7.653
 6360POPC   C1B19807  32.503   3.526   8.553
 6360POPC   C2B19808  32.539   3.610   8.253
 6360POPC   C3B19809  32.459   3.517   7.953
 6360POPC   C4B19810  32.533   3.561   7.653
 6361POPC   NC319811  40.826   4.330   9.453
 6361POPC   PO419812  40.769   4.295   9.153
 6361POPC   GL119813  40.766   4.293   8.853
 6361POPC   GL219814  40.655   4.187   8.853
 6361POPC   C1A19815  40.802   4.319   8.553
 6361POPC   D2A19816  40.805   4.302   8.253
 6361POPC   C3A19817  40.738   4.271   7.953
 6361POPC   C4A19818  40.829   4.336   7.653
 6361POPC   C1B19819  40.613   4.187   8.553
 6361POPC   C2B19820  40.554   4.122   8.253
 6361POPC   C3B19821  40.549   4.172   7.953
 6361POPC   C4B19822  40.574   4.115   7.653
 6362POPC   NC319823  14.437  17.506   9.453
 6362POPC   PO419824  14.403  17.460   9.153
 6362POPC   GL119825  14.406  17.549   8.853
 6362POPC   GL219826  14.541  17.500   8.853
 6362POPC   C1A19827  14.415  17.547   8.553
 6362POPC   D2A19828  14.417  17.484   8.253
 6362POPC   C3A19829  14.354  17.529   7.953
 6362POPC   C4A19830  14.389  17.482   7.653
 6362POPC   C1B19831  14.634  17.467   8.553
 6362POPC   C2B19832  14.632  17.425   8.253
 6362POPC   C3B19833  14.644  17.478   7.953
 6362POPC   C4B19834  14.679  17.499   7.653
 6363POPC   NC319835   6.653  39.978   9.453
 6363POPC   PO419836   6.679  40.056   9.153
 6363POPC   GL119837   6.660  39.957   8.853
 6363POPC   GL219838   6.806  39.996   8.853
 6363POPC   C1A19839   6.651  40.042   8.553
 6363POPC   D2A19840   6.665  39.996   8.253
 6363POPC   C3A19841   6.612  40.010   7.953
 6363POPC   C4A19842   6.625  40.043   7.653
 6363POPC   C1B19843   6.917  40.051   8.553
 6363POPC   C2B19844   6.900  40.043   8.253
 6363POPC   C3B19845   6.842  40.088   7.953
 6363POPC   C4B19846   6.865  40.086   7.653
 6364POPC   NC319847  39.247  17.503   9.453
 6364POPC   PO419848  39.280  17.518   9.153
 6364POPC   GL119849  39.217  17.531   8.853
 6364POPC   GL219850  39.157  17.348   8.853
 6364POPC   C1A19851  39.234  17.538   8.553
 6364POPC   D2A19852  39.274  17.538   8.253
 6364POPC   C3A19853  39.241  17.551   7.953
 6364POPC   C4A19854  39.248  17.549   7.653
 6364POPC   C1B19855  39.180  17.244   8.553
 6364POPC   C2B19856  39.143  17.232   8.253
 6364POPC   C3B19857  39.153  17.225   7.953
 6364POPC   C4B19858  39.184  17.288   7.653
 6365POPC   NC319859  34.543  22.148   9.453
 6365POPC   PO419860  34.553  22.186   9.153
 6365POPC   GL119861  34.537  22.179   8.853
 6365POPC   GL219862  34.735  22.218   8.853
 6365POPC   C1A19863  34.539  22.166   8.553
 6365POPC   D2A19864  34.572  22.184   8.253
 6365POPC   C3A19865  34.615  22.170   7.953
 6365POPC   C4A19866  34.580  22.168   7.653
 6365POPC   C1B19867  34.814  22.196   8.553
 6365POPC   C2B19868  34.874  22.189   8.253
 6365POPC   C3B19869  34.787  22.213   7.953
 6365POPC   C4B19870  34.869  22.235   7.653
 6366POPC   NC319871  34.598  23.752   9.453
 6366POPC   PO419872  34.553  23.727   9.153
 6366POPC   GL119873  34.575  23.753   8.853
 6366POPC   GL219874  34.664  23.634   8.853
 6366POPC   C1A19875  34.615  23.728   8.553
 6366POPC   D2A19876  34.526  23.754   8.253
 6366POPC   C3A19877  34.529  23.699   7.953
 6366POPC   C4A19878  34.577  23.714   7.653
 6366POPC   C1B19879  34.781  23.619   8.553
 6366POPC   C2B19880  34.817  23.639   8.253
 6366POPC   C3B19881  34.790  23.621   7.953
 6366POPC   C4B19882  34.824  23.621   7.653
 6367POPC   NC319883  16.004  43.124   9.453
 6367POPC   PO419884  15.980  43.096   9.153
 6367POPC   GL119885  15.924  43.108   8.853
 6367POPC   GL219886  15.809  43.106   8.853
 6367POPC   C1A19887  15.980  43.149   8.553
 6367POPC   D2A19888  15.935  43.150   8.253
 6367POPC   C3A19889  15.990  43.127   7.953
 6367POPC   C4A19890  15.928  43.112   7.653
 6367POPC   C1B19891  15.659  43.022   8.553
 6367POPC   C2B19892  15.684  43.037   8.253
 6367POPC   C3B19893  15.735  43.108   7.953
 6367POPC   C4B19894  15.664  43.116   7.653
 6368POPC   NC319895  35.307   4.354   9.453
 6368POPC   PO419896  35.306   4.365   9.153
 6368POPC   GL119897  35.329   4.364   8.853
 6368POPC   GL219898  35.323   4.420   8.853
 6368POPC   C1A19899  35.400   4.334   8.553
 6368POPC   D2A19900  35.401   4.269   8.253
 6368POPC   C3A19901  35.372   4.349   7.953
 6368POPC   C4A19902  35.345   4.332   7.653
 6368POPC   C1B19903  35.229   4.495   8.553
 6368POPC   C2B19904  35.285   4.543   8.253
 6368POPC   C3B19905  35.211   4.553   7.953
 6368POPC   C4B19906  35.284   4.532   7.653
 6369POPC   NC319907  40.792   8.199   9.453
 6369POPC   PO419908  40.762   8.192   9.153
 6369POPC   GL119909  40.782   8.206   8.853
 6369POPC   GL219910  40.677   8.109   8.853
 6369POPC   C1A19911  40.833   8.183   8.553
 6369POPC   D2A19912  40.796   8.221   8.253
 6369POPC   C3A19913  40.819   8.210   7.953
 6369POPC   C4A19914  40.795   8.167   7.653
 6369POPC   C1B19915  40.606   8.046   8.553
 6369POPC   C2B19916  40.525   8.026   8.253
 6369POPC   C3B19917  40.583   8.075   7.953
 6369POPC   C4B19918  40.522   8.051   7.653
 6370POPC   NC319919  12.889  28.413   9.453
 6370POPC   PO419920  12.898  28.376   9.153
 6370POPC   GL119921  12.811  28.412   8.853
 6370POPC   GL219922  12.921  28.469   8.853
 6370POPC   C1A19923  12.875  28.366   8.553
 6370POPC   D2A19924  12.883  28.366   8.253
 6370POPC   C3A19925  12.829  28.333   7.953
 6370POPC   C4A19926  12.897  28.409   7.653
 6370POPC   C1B19927  13.049  28.539   8.553
 6370POPC   C2B19928  13.009  28.516   8.253
 6370POPC   C3B19929  13.007  28.546   7.953
 6370POPC   C4B19930  13.015  28.584   7.653
 6371POPC   NC319931  43.842  13.592   9.453
 6371POPC   PO419932  43.884  13.662   9.153
 6371POPC   GL119933  43.883  13.604   8.853
 6371POPC   GL219934  43.853  13.765   8.853
 6371POPC   C1A19935  43.900  13.640   8.553
 6371POPC   D2A19936  43.875  13.651   8.253
 6371POPC   C3A19937  43.907  13.629   7.953
 6371POPC   C4A19938  43.857  13.642   7.653
 6371POPC   C1B19939  43.742  13.867   8.553
 6371POPC   C2B19940  43.722  13.805   8.253
 6371POPC   C3B19941  43.773  13.811   7.953
 6371POPC   C4B19942  43.801  13.843   7.653
 6372POPC   NC319943  19.052   2.781   9.453
 6372POPC   PO419944  19.032   2.755   9.153
 6372POPC   GL119945  19.038   2.768   8.853
 6372POPC   GL219946  19.016   2.606   8.853
 6372POPC   C1A19947  19.079   2.742   8.553
 6372POPC   D2A19948  19.035   2.753   8.253
 6372POPC   C3A19949  19.082   2.813   7.953
 6372POPC   C4A19950  19.092   2.770   7.653
 6372POPC   C1B19951  19.029   2.559   8.553
 6372POPC   C2B19952  19.020   2.495   8.253
 6372POPC   C3B19953  18.992   2.506   7.953
 6372POPC   C4B19954  19.046   2.540   7.653
 6373POPC   NC319955   1.250  39.964   9.453
 6373POPC   PO419956   1.217  39.991   9.153
 6373POPC   GL119957   1.165  39.960   8.853
 6373POPC   GL219958   1.254  39.839   8.853
 6373POPC   C1A19959   1.201  40.009   8.553
 6373POPC   D2A19960   1.256  39.990   8.253
 6373POPC   C3A19961   1.206  39.968   7.953
 6373POPC   C4A19962   1.176  40.053   7.653
 6373POPC   C1B19963   1.192  39.754   8.553
 6373POPC   C2B19964   1.264  39.774   8.253
 6373POPC   C3B19965   1.224  39.730   7.953
 6373POPC   C4B19966   1.189  39.726   7.653
 6374POPC   NC319967  15.917  33.008   9.453
 6374POPC   PO419968  15.992  33.062   9.153
 6374POPC   GL119969  15.914  33.026   8.853
 6374POPC   GL219970  15.943  32.952   8.853
 6374POPC   C1A19971  15.946  33.069   8.553
 6374POPC   D2A19972  15.928  33.074   8.253
 6374POPC   C3A19973  15.937  33.019   7.953
 6374POPC   C4A19974  16.003  33.039   7.653
 6374POPC   C1B19975  15.845  32.794   8.553
 6374POPC   C2B19976  15.863  32.767   8.253
 6374POPC   C3B19977  15.891  32.789   7.953
 6374POPC   C4B19978  15.912  32.763   7.653
 6375POPC   NC319979  10.540   3.584   9.453
 6375POPC   PO419980  10.547   3.533   9.153
 6375POPC   GL119981  10.493   3.557   8.853
 6375POPC   GL219982  10.633   3.479   8.853
 6375POPC   C1A19983  10.567   3.514   8.553
 6375POPC   D2A19984  10.524   3.543   8.253
 6375POPC   C3A19985  10.486   3.546   7.953
 6375POPC   C4A19986  10.523   3.521   7.653
 6375POPC   C1B19987  10.648   3.371   8.553
 6375POPC   C2B19988  10.643   3.333   8.253
 6375POPC   C3B19989  10.612   3.306   7.953
 6375POPC   C4B19990  10.668   3.372   7.653
 6376POPC   NC319991  43.898   3.554   9.453
 6376POPC   PO419992  43.909   3.573   9.153
 6376POPC   GL119993  43.869   3.552   8.853
 6376POPC   GL219994  43.745   3.492   8.853
 6376POPC   C1A19995  43.933   3.533   8.553
 6376POPC   D2A19996  43.837   3.493   8.253
 6376POPC   C3A19997  43.926   3.563   7.953
 6376POPC   C4A19998  43.895   3.578   7.653
 6376POPC   C1B19999  43.622   3.460   8.553
 6376POPC   C2B20000  43.628   3.534   8.253
 6376POPC   C3B20001  43.607   3.476   7.953
 6376POPC   C4B20002  43.664   3.487   7.653
 6377POPC   NC320003  17.465   1.171   9.453
 6377POPC   PO420004  17.506   1.228   9.153
 6377POPC   GL120005  17.517   1.238   8.853
 6377POPC   GL220006  17.485   1.365   8.853
 6377POPC   C1A20007  17.466   1.233   8.553
 6377POPC   D2A20008  17.470   1.213   8.253
 6377POPC   C3A20009  17.516   1.214   7.953
 6377POPC   C4A20010  17.471   1.215   7.653
 6377POPC   C1B20011  17.495   1.478   8.553
 6377POPC   C2B20012  17.505   1.472   8.253
 6377POPC   C3B20013  17.533   1.503   7.953
 6377POPC   C4B20014  17.515   1.424   7.653
 6378POPC   NC320015  40.039  42.303   9.453
 6378POPC   PO420016  40.049  42.323   9.153
 6378POPC   GL120017  40.000  42.380   8.853
 6378POPC   GL220018  39.899  42.266   8.853
 6378POPC   C1A20019  40.026  42.362   8.553
 6378POPC   D2A20020  39.993  42.314   8.253
 6378POPC   C3A20021  40.041  42.342   7.953
 6378POPC   C4A20022  39.960  42.304   7.653
 6378POPC   C1B20023  39.764  42.294   8.553
 6378POPC   C2B20024  39.784  42.244   8.253
 6378POPC   C3B20025  39.757  42.329   7.953
 6378POPC   C4B20026  39.726  42.301   7.653
 6379POPC   NC320027  15.166  20.593   9.453
 6379POPC   PO420028  15.208  20.627   9.153
 6379POPC   GL120029  15.166  20.602   8.853
 6379POPC   GL220030  15.290  20.718   8.853
 6379POPC   C1A20031  15.187  20.577   8.553
 6379POPC   D2A20032  15.200  20.586   8.253
 6379POPC   C3A20033  15.172  20.583   7.953
 6379POPC   C4A20034  15.223  20.616   7.653
 6379POPC   C1B20035  15.377  20.754   8.553
 6379POPC   C2B20036  15.351  20.757   8.253
 6379POPC   C3B20037  15.362  20.832   7.953
 6379POPC   C4B20038  15.346  20.819   7.653
 6380POPC   NC320039  32.277  43.867   9.453
 6380POPC   PO420040  32.203  43.869   9.153
 6380POPC   GL120041  32.296  43.855   8.853
 6380POPC   GL220042  32.098  43.891   8.853
 6380POPC   C1A20043  32.288  43.871   8.553
 6380POPC   D2A20044  32.247  43.915   8.253
 6380POPC   C3A20045  32.212  43.906   7.953
 6380POPC   C4A20046  32.293  43.858   7.653
 6380POPC   C1B20047  32.040  43.892   8.553
 6380POPC   C2B20048  31.993  43.913   8.253
 6380POPC   C3B20049  31.992  43.873   7.953
 6380POPC   C4B20050  32.003  43.921   7.653
 6381POPC   NC320051  35.365   2.005   9.453
 6381POPC   PO420052  35.324   2.030   9.153
 6381POPC   GL120053  35.341   1.976   8.853
 6381POPC   GL220054  35.314   2.130   8.853
 6381POPC   C1A20055  35.345   1.987   8.553
 6381POPC   D2A20056  35.375   1.947   8.253
 6381POPC   C3A20057  35.321   1.952   7.953
 6381POPC   C4A20058  35.310   1.990   7.653
 6381POPC   C1B20059  35.174   2.144   8.553
 6381POPC   C2B20060  35.172   2.191   8.253
 6381POPC   C3B20061  35.176   2.229   7.953
 6381POPC   C4B20062  35.251   2.219   7.653
 6382POPC   NC320063  38.454  25.284   9.453
 6382POPC   PO420064  38.468  25.297   9.153
 6382POPC   GL120065  38.425  25.237   8.853
 6382POPC   GL220066  38.549  25.372   8.853
 6382POPC   C1A20067  38.468  25.303   8.553
 6382POPC   D2A20068  38.411  25.300   8.253
 6382POPC   C3A20069  38.483  25.262   7.953
 6382POPC   C4A20070  38.427  25.286   7.653
 6382POPC   C1B20071  38.638  25.371   8.553
 6382POPC   C2B20072  38.612  25.457   8.253
 6382POPC   C3B20073  38.673  25.419   7.953
 6382POPC   C4B20074  38.705  25.384   7.653
 6383POPC   NC320075  36.143   7.430   9.453
 6383POPC   PO420076  36.148   7.387   9.153
 6383POPC   GL120077  36.093   7.458   8.853
 6383POPC   GL220078  36.196   7.534   8.853
 6383POPC   C1A20079  36.138   7.455   8.553
 6383POPC   D2A20080  36.127   7.417   8.253
 6383POPC   C3A20081  36.161   7.438   7.953
 6383POPC   C4A20082  36.154   7.431   7.653
 6383POPC   C1B20083  36.284   7.524   8.553
 6383POPC   C2B20084  36.360   7.539   8.253
 6383POPC   C3B20085  36.335   7.550   7.953
 6383POPC   C4B20086  36.352   7.616   7.653
 6384POPC   NC320087  36.947  16.731   9.453
 6384POPC   PO420088  36.880  16.772   9.153
 6384POPC   GL120089  36.943  16.734   8.853
 6384POPC   GL220090  36.790  16.797   8.853
 6384POPC   C1A20091  36.911  16.687   8.553
 6384POPC   D2A20092  36.912  16.744   8.253
 6384POPC   C3A20093  36.906  16.710   7.953
 6384POPC   C4A20094  36.944  16.693   7.653
 6384POPC   C1B20095  36.721  16.912   8.553
 6384POPC   C2B20096  36.766  16.896   8.253
 6384POPC   C3B20097  36.800  16.967   7.953
 6384POPC   C4B20098  36.764  16.914   7.653
 6385POPC   NC320099   0.403  19.794   9.453
 6385POPC   PO420100   0.400  19.849   9.153
 6385POPC   GL120101   0.445  19.815   8.853
 6385POPC   GL220102   0.464  19.920   8.853
 6385POPC   C1A20103   0.388  19.823   8.553
 6385POPC   D2A20104   0.420  19.799   8.253
 6385POPC   C3A20105   0.438  19.848   7.953
 6385POPC   C4A20106   0.484  19.856   7.653
 6385POPC   C1B20107   0.555  20.050   8.553
 6385POPC   C2B20108   0.568  20.063   8.253
 6385POPC   C3B20109   0.513  20.043   7.953
 6385POPC   C4B20110   0.575  20.086   7.653
 6386POPC   NC320111  26.003  36.913   9.453
 6386POPC   PO420112  26.041  36.915   9.153
 6386POPC   GL120113  25.998  36.921   8.853
 6386POPC   GL220114  26.061  37.045   8.853
 6386POPC   C1A20115  25.998  36.906   8.553
 6386POPC   D2A20116  26.014  36.911   8.253
 6386POPC   C3A20117  26.054  36.901   7.953
 6386POPC   C4A20118  26.064  36.912   7.653
 6386POPC   C1B20119  26.077  37.128   8.553
 6386POPC   C2B20120  26.016  37.125   8.253
 6386POPC   C3B20121  26.025  37.188   7.953
 6386POPC   C4B20122  26.044  37.160   7.653
 6387POPC   NC320123  25.308  25.242   9.453
 6387POPC   PO420124  25.306  25.226   9.153
 6387POPC   GL120125  25.302  25.228   8.853
 6387POPC   GL220126  25.372  25.187   8.853
 6387POPC   C1A20127  25.255  25.285   8.553
 6387POPC   D2A20128  25.234  25.305   8.253
 6387POPC   C3A20129  25.304  25.270   7.953
 6387POPC   C4A20130  25.270  25.255   7.653
 6387POPC   C1B20131  25.414  25.158   8.553
 6387POPC   C2B20132  25.435  25.128   8.253
 6387POPC   C3B20133  25.424  25.070   7.953
 6387POPC   C4B20134  25.500  25.142   7.653
 6388POPC   NC320135   6.603  10.546   9.453
 6388POPC   PO420136   6.681  10.508   9.153
 6388POPC   GL120137   6.669  10.556   8.853
 6388POPC   GL220138   6.733  10.571   8.853
 6388POPC   C1A20139   6.680  10.556   8.553
 6388POPC   D2A20140   6.668  10.556   8.253
 6388POPC   C3A20141   6.670  10.478   7.953
 6388POPC   C4A20142   6.636  10.508   7.653
 6388POPC   C1B20143   6.896  10.549   8.553
 6388POPC   C2B20144   6.892  10.606   8.253
 6388POPC   C3B20145   6.926  10.634   7.953
 6388POPC   C4B20146   6.895  10.583   7.653
 6389POPC   NC320147   9.713  19.033   9.453
 6389POPC   PO420148   9.700  19.062   9.153
 6389POPC   GL120149   9.709  19.040   8.853
 6389POPC   GL220150   9.635  18.982   8.853
 6389POPC   C1A20151   9.737  19.081   8.553
 6389POPC   D2A20152   9.770  19.035   8.253
 6389POPC   C3A20153   9.786  19.099   7.953
 6389POPC   C4A20154   9.776  19.033   7.653
 6389POPC   C1B20155   9.557  18.868   8.553
 6389POPC   C2B20156   9.552  18.917   8.253
 6389POPC   C3B20157   9.631  18.914   7.953
 6389POPC   C4B20158   9.538  18.827   7.653
 6390POPC   NC320159   9.737  24.540   9.453
 6390POPC   PO420160   9.758  24.520   9.153
 6390POPC   GL120161   9.779  24.534   8.853
 6390POPC   GL220162   9.786  24.340   8.853
 6390POPC   C1A20163   9.753  24.518   8.553
 6390POPC   D2A20164   9.754  24.483   8.253
 6390POPC   C3A20165   9.769  24.449   7.953
 6390POPC   C4A20166   9.798  24.486   7.653
 6390POPC   C1B20167   9.772  24.253   8.553
 6390POPC   C2B20168   9.715  24.259   8.253
 6390POPC   C3B20169   9.738  24.190   7.953
 6390POPC   C4B20170   9.781  24.247   7.653
 6391POPC   NC320171  36.854   8.158   9.453
 6391POPC   PO420172  36.916   8.166   9.153
 6391POPC   GL120173  36.950   8.160   8.853
 6391POPC   GL220174  36.734   8.213   8.853
 6391POPC   C1A20175  36.902   8.157   8.553
 6391POPC   D2A20176  36.941   8.220   8.253
 6391POPC   C3A20177  36.859   8.169   7.953
 6391POPC   C4A20178  36.945   8.236   7.653
 6391POPC   C1B20179  36.605   8.181   8.553
 6391POPC   C2B20180  36.691   8.201   8.253
 6391POPC   C3B20181  36.696   8.220   7.953
 6391POPC   C4B20182  36.607   8.220   7.653
 6392POPC   NC320183   6.642  35.390   9.453
 6392POPC   PO420184   6.606  35.312   9.153
 6392POPC   GL120185   6.674  35.396   8.853
 6392POPC   GL220186   6.691  35.441   8.853
 6392POPC   C1A20187   6.673  35.391   8.553
 6392POPC   D2A20188   6.615  35.395   8.253
 6392POPC   C3A20189   6.667  35.341   7.953
 6392POPC   C4A20190   6.648  35.383   7.653
 6392POPC   C1B20191   6.665  35.613   8.553
 6392POPC   C2B20192   6.639  35.558   8.253
 6392POPC   C3B20193   6.672  35.569   7.953
 6392POPC   C4B20194   6.684  35.616   7.653
 6393POPC   NC320195   5.847   1.239   9.453
 6393POPC   PO420196   5.857   1.165   9.153
 6393POPC   GL120197   5.868   1.172   8.853
 6393POPC   GL220198   5.926   1.127   8.853
 6393POPC   C1A20199   5.908   1.240   8.553
 6393POPC   D2A20200   5.826   1.206   8.253
 6393POPC   C3A20201   5.905   1.179   7.953
 6393POPC   C4A20202   5.890   1.229   7.653
 6393POPC   C1B20203   5.949   1.015   8.553
 6393POPC   C2B20204   6.013   0.967   8.253
 6393POPC   C3B20205   5.949   1.040   7.953
 6393POPC   C4B20206   6.015   1.029   7.653
 6394POPC   NC320207  12.849  16.701   9.453
 6394POPC   PO420208  12.823  16.773   9.153
 6394POPC   GL120209  12.856  16.765   8.853
 6394POPC   GL220210  12.750  16.711   8.853
 6394POPC   C1A20211  12.851  16.729   8.553
 6394POPC   D2A20212  12.881  16.746   8.253
 6394POPC   C3A20213  12.805  16.725   7.953
 6394POPC   C4A20214  12.838  16.732   7.653
 6394POPC   C1B20215  12.623  16.801   8.553
 6394POPC   C2B20216  12.565  16.757   8.253
 6394POPC   C3B20217  12.613  16.800   7.953
 6394POPC   C4B20218  12.588  16.719   7.653
 6395POPC   NC320219  43.910  14.400   9.453
 6395POPC   PO420220  43.862  14.396   9.153
 6395POPC   GL120221  43.863  14.411   8.853
 6395POPC   GL220222  43.789  14.337   8.853
 6395POPC   C1A20223  43.927  14.451   8.553
 6395POPC   D2A20224  43.924  14.399   8.253
 6395POPC   C3A20225  43.872  14.375   7.953
 6395POPC   C4A20226  43.897  14.354   7.653
 6395POPC   C1B20227  43.663  14.280   8.553
 6395POPC   C2B20228  43.731  14.200   8.253
 6395POPC   C3B20229  43.722  14.212   7.953
 6395POPC   C4B20230  43.699  14.256   7.653
 6396POPC   NC320231  21.339  32.987   9.453
 6396POPC   PO420232  21.348  33.058   9.153
 6396POPC   GL120233  21.432  33.018   8.853
 6396POPC   GL220234  21.497  33.108   8.853
 6396POPC   C1A20235  21.432  33.054   8.553
 6396POPC   D2A20236  21.401  33.049   8.253
 6396POPC   C3A20237  21.417  33.003   7.953
 6396POPC   C4A20238  21.344  33.053   7.653
 6396POPC   C1B20239  21.540  33.208   8.553
 6396POPC   C2B20240  21.551  33.189   8.253
 6396POPC   C3B20241  21.602  33.208   7.953
 6396POPC   C4B20242  21.580  33.191   7.653
 6397POPC   NC320243  25.266  15.965   9.453
 6397POPC   PO420244  25.286  15.908   9.153
 6397POPC   GL120245  25.228  15.979   8.853
 6397POPC   GL220246  25.335  15.822   8.853
 6397POPC   C1A20247  25.230  15.929   8.553
 6397POPC   D2A20248  25.219  15.915   8.253
 6397POPC   C3A20249  25.283  15.912   7.953
 6397POPC   C4A20250  25.269  15.940   7.653
 6397POPC   C1B20251  25.328  15.702   8.553
 6397POPC   C2B20252  25.326  15.667   8.253
 6397POPC   C3B20253  25.367  15.730   7.953
 6397POPC   C4B20254  25.294  15.745   7.653
 6398POPC   NC320255  33.761  16.694   9.453
 6398POPC   PO420256  33.773  16.746   9.153
 6398POPC   GL120257  33.817  16.766   8.853
 6398POPC   GL220258  33.826  16.833   8.853
 6398POPC   C1A20259  33.773  16.754   8.553
 6398POPC   D2A20260  33.811  16.769   8.253
 6398POPC   C3A20261  33.785  16.754   7.953
 6398POPC   C4A20262  33.784  16.716   7.653
 6398POPC   C1B20263  33.868  17.016   8.553
 6398POPC   C2B20264  33.922  16.947   8.253
 6398POPC   C3B20265  33.840  16.957   7.953
 6398POPC   C4B20266  33.844  16.971   7.653
 6399POPC   NC320267  13.665  11.263   9.453
 6399POPC   PO420268  13.656  11.332   9.153
 6399POPC   GL120269  13.630  11.347   8.853
 6399POPC   GL220270  13.703  11.157   8.853
 6399POPC   C1A20271  13.632  11.317   8.553
 6399POPC   D2A20272  13.581  11.265   8.253
 6399POPC   C3A20273  13.630  11.340   7.953
 6399POPC   C4A20274  13.674  11.279   7.653
 6399POPC   C1B20275  13.732  11.120   8.553
 6399POPC   C2B20276  13.775  11.077   8.253
 6399POPC   C3B20277  13.720  11.114   7.953
 6399POPC   C4B20278  13.760  11.048   7.653
 6400POPC   NC320279   4.364  30.686   9.453
 6400POPC   PO420280   4.349  30.684   9.153
 6400POPC   GL120281   4.308  30.651   8.853
 6400POPC   GL220282   4.396  30.674   8.853
 6400POPC   C1A20283   4.298  30.697   8.553
 6400POPC   D2A20284   4.316  30.731   8.253
 6400POPC   C3A20285   4.331  30.678   7.953
 6400POPC   C4A20286   4.349  30.711   7.653
 6400POPC   C1B20287   4.525  30.711   8.553
 6400POPC   C2B20288   4.564  30.771   8.253
 6400POPC   C3B20289   4.522  30.768   7.953
 6400POPC   C4B20290   4.589  30.780   7.653
 6401POPC   NC320291   9.788  16.700   9.453
 6401POPC   PO420292   9.777  16.716   9.153
 6401POPC   GL120293   9.782  16.744   8.853
 6401POPC   GL220294   9.613  16.806   8.853
 6401POPC   C1A20295   9.746  16.725   8.553
 6401POPC   D2A20296   9.748  16.744   8.253
 6401POPC   C3A20297   9.734  16.693   7.953
 6401POPC   C4A20298   9.714  16.751   7.653
 6401POPC   C1B20299   9.524  16.849   8.553
 6401POPC   C2B20300   9.596  16.880   8.253
 6401POPC   C3B20301   9.589  16.935   7.953
 6401POPC   C4B20302   9.593  16.847   7.653
 6402POPC   NC320303   2.743  28.352   9.453
 6402POPC   PO420304   2.802  28.411   9.153
 6402POPC   GL120305   2.719  28.358   8.853
 6402POPC   GL220306   2.754  28.469   8.853
 6402POPC   C1A20307   2.723  28.364   8.553
 6402POPC   D2A20308   2.756  28.383   8.253
 6402POPC   C3A20309   2.774  28.411   7.953
 6402POPC   C4A20310   2.782  28.389   7.653
 6402POPC   C1B20311   2.852  28.594   8.553
 6402POPC   C2B20312   2.764  28.638   8.253
 6402POPC   C3B20313   2.753  28.615   7.953
 6402POPC   C4B20314   2.756  28.621   7.653
 6403POPC   NC320315   8.956  28.367   9.453
 6403POPC   PO420316   8.932  28.404   9.153
 6403POPC   GL120317   9.021  28.360   8.853
 6403POPC   GL220318   9.070  28.478   8.853
 6403POPC   C1A20319   9.017  28.371   8.553
 6403POPC   D2A20320   9.021  28.400   8.253
 6403POPC   C3A20321   8.964  28.379   7.953
 6403POPC   C4A20322   8.952  28.357   7.653
 6403POPC   C1B20323   9.209  28.517   8.553
 6403POPC   C2B20324   9.149  28.456   8.253
 6403POPC   C3B20325   9.188  28.502   7.953
 6403POPC   C4B20326   9.177  28.489   7.653
 6404POPC   NC320327  11.252   8.176   9.453
 6404POPC   PO420328  11.344   8.242   9.153
 6404POPC   GL120329  11.252   8.189   8.853
 6404POPC   GL220330  11.388   8.120   8.853
 6404POPC   C1A20331  11.295   8.200   8.553
 6404POPC   D2A20332  11.307   8.213   8.253
 6404POPC   C3A20333  11.312   8.186   7.953
 6404POPC   C4A20334  11.314   8.225   7.653
 6404POPC   C1B20335  11.496   8.042   8.553
 6404POPC   C2B20336  11.528   8.024   8.253
 6404POPC   C3B20337  11.474   7.999   7.953
 6404POPC   C4B20338  11.520   8.055   7.653
 6405POPC   NC320339   8.977  24.472   9.453
 6405POPC   PO420340   8.944  24.515   9.153
 6405POPC   GL120341   8.957  24.523   8.853
 6405POPC   GL220342   9.065  24.536   8.853
 6405POPC   C1A20343   9.020  24.538   8.553
 6405POPC   D2A20344   8.951  24.517   8.253
 6405POPC   C3A20345   8.989  24.491   7.953
 6405POPC   C4A20346   9.011  24.452   7.653
 6405POPC   C1B20347   9.218  24.531   8.553
 6405POPC   C2B20348   9.235  24.518   8.253
 6405POPC   C3B20349   9.230  24.520   7.953
 6405POPC   C4B20350   9.175  24.584   7.653
 6406POPC   NC320351   0.482  21.414   9.453
 6406POPC   PO420352   0.402  21.390   9.153
 6406POPC   GL120353   0.483  21.429   8.853
 6406POPC   GL220354   0.320  21.502   8.853
 6406POPC   C1A20355   0.465  21.339   8.553
 6406POPC   D2A20356   0.419  21.376   8.253
 6406POPC   C3A20357   0.446  21.403   7.953
 6406POPC   C4A20358   0.412  21.369   7.653
 6406POPC   C1B20359   0.216  21.501   8.553
 6406POPC   C2B20360   0.230  21.533   8.253
 6406POPC   C3B20361   0.274  21.506   7.953
 6406POPC   C4B20362   0.196  21.563   7.653
 6407POPC   NC320363   4.278  20.571   9.453
 6407POPC   PO420364   4.284  20.584   9.153
 6407POPC   GL120365   4.326  20.613   8.853
 6407POPC   GL220366   4.374  20.474   8.853
 6407POPC   C1A20367   4.352  20.649   8.553
 6407POPC   D2A20368   4.357  20.567   8.253
 6407POPC   C3A20369   4.359  20.589   7.953
 6407POPC   C4A20370   4.341  20.656   7.653
 6407POPC   C1B20371   4.484  20.363   8.553
 6407POPC   C2B20372   4.446  20.399   8.253
 6407POPC   C3B20373   4.502  20.454   7.953
 6407POPC   C4B20374   4.459  20.452   7.653
 6408POPC   NC320375   5.114  19.865   9.453
 6408POPC   PO420376   5.058  19.796   9.153
 6408POPC   GL120377   5.074  19.841   8.853
 6408POPC   GL220378   5.146  19.921   8.853
 6408POPC   C1A20379   5.140  19.875   8.553
 6408POPC   D2A20380   5.100  19.870   8.253
 6408POPC   C3A20381   5.119  19.832   7.953
 6408POPC   C4A20382   5.109  19.877   7.653
 6408POPC   C1B20383   5.147  20.094   8.553
 6408POPC   C2B20384   5.133  20.057   8.253
 6408POPC   C3B20385   5.164  20.058   7.953
 6408POPC   C4B20386   5.111  20.090   7.653
 6409POPC   NC320387  38.446   8.208   9.453
 6409POPC   PO420388  38.485   8.166   9.153
 6409POPC   GL120389  38.445   8.239   8.853
 6409POPC   GL220390  38.500   8.324   8.853
 6409POPC   C1A20391  38.444   8.192   8.553
 6409POPC   D2A20392  38.480   8.169   8.253
 6409POPC   C3A20393  38.504   8.147   7.953
 6409POPC   C4A20394  38.472   8.147   7.653
 6409POPC   C1B20395  38.497   8.487   8.553
 6409POPC   C2B20396  38.484   8.484   8.253
 6409POPC   C3B20397  38.492   8.463   7.953
 6409POPC   C4B20398  38.423   8.476   7.653
 6410POPC   NC320399  16.742  34.593   9.453
 6410POPC   PO420400  16.718  34.565   9.153
 6410POPC   GL120401  16.758  34.548   8.853
 6410POPC   GL220402  16.610  34.677   8.853
 6410POPC   C1A20403  16.729  34.533   8.553
 6410POPC   D2A20404  16.713  34.606   8.253
 6410POPC   C3A20405  16.725  34.540   7.953
 6410POPC   C4A20406  16.716  34.560   7.653
 6410POPC   C1B20407  16.552  34.731   8.553
 6410POPC   C2B20408  16.610  34.783   8.253
 6410POPC   C3B20409  16.576  34.816   7.953
 6410POPC   C4B20410  16.631  34.802   7.653
 6411POPC   NC320411  35.303   9.796   9.453
 6411POPC   PO420412  35.384   9.763   9.153
 6411POPC   GL120413  35.321   9.717   8.853
 6411POPC   GL220414  35.507   9.749   8.853
 6411POPC   C1A20415  35.393   9.715   8.553
 6411POPC   D2A20416  35.315   9.731   8.253
 6411POPC   C3A20417  35.318   9.776   7.953
 6411POPC   C4A20418  35.308   9.715   7.653
 6411POPC   C1B20419  35.595   9.758   8.553
 6411POPC   C2B20420  35.613   9.734   8.253
 6411POPC   C3B20421  35.600   9.787   7.953
 6411POPC   C4B20422  35.574   9.755   7.653
 6412POPC   NC320423  19.855  32.976   9.453
 6412POPC   PO420424  19.799  32.976   9.153
 6412POPC   GL120425  19.856  33.034   8.853
 6412POPC   GL220426  19.920  32.967   8.853
 6412POPC   C1A20427  19.805  32.980   8.553
 6412POPC   D2A20428  19.786  33.038   8.253
 6412POPC   C3A20429  19.808  33.019   7.953
 6412POPC   C4A20430  19.819  33.034   7.653
 6412POPC   C1B20431  20.043  32.955   8.553
 6412POPC   C2B20432  20.055  32.980   8.253
 6412POPC   C3B20433  20.096  32.949   7.953
 6412POPC   C4B20434  20.102  32.913   7.653
 6413POPC   NC320435  29.887  33.787   9.453
 6413POPC   PO420436  29.893  33.847   9.153
 6413POPC   GL120437  29.923  33.789   8.853
 6413POPC   GL220438  29.802  33.870   8.853
 6413POPC   C1A20439  29.941  33.765   8.553
 6413POPC   D2A20440  29.923  33.839   8.253
 6413POPC   C3A20441  29.894  33.833   7.953
 6413POPC   C4A20442  29.936  33.755   7.653
 6413POPC   C1B20443  29.765  33.936   8.553
 6413POPC   C2B20444  29.696  34.006   8.253
 6413POPC   C3B20445  29.718  34.015   7.953
 6413POPC   C4B20446  29.723  33.962   7.653
 6414POPC   NC320447  40.746  29.192   9.453
 6414POPC   PO420448  40.747  29.147   9.153
 6414POPC   GL120449  40.804  29.192   8.853
 6414POPC   GL220450  40.758  28.973   8.853
 6414POPC   C1A20451  40.819  29.167   8.553
 6414POPC   D2A20452  40.785  29.095   8.253
 6414POPC   C3A20453  40.787  29.164   7.953
 6414POPC   C4A20454  40.804  29.161   7.653
 6414POPC   C1B20455  40.735  28.944   8.553
 6414POPC   C2B20456  40.782  28.887   8.253
 6414POPC   C3B20457  40.722  28.930   7.953
 6414POPC   C4B20458  40.714  28.853   7.653
 6415POPC   NC320459  10.555   4.352   9.453
 6415POPC   PO420460  10.529   4.349   9.153
 6415POPC   GL120461  10.532   4.328   8.853
 6415POPC   GL220462  10.446   4.416   8.853
 6415POPC   C1A20463  10.478   4.316   8.553
 6415POPC   D2A20464  10.504   4.326   8.253
 6415POPC   C3A20465  10.548   4.330   7.953
 6415POPC   C4A20466  10.496   4.292   7.653
 6415POPC   C1B20467  10.416   4.523   8.553
 6415POPC   C2B20468  10.447   4.531   8.253
 6415POPC   C3B20469  10.355   4.564   7.953
 6415POPC   C4B20470  10.361   4.555   7.653
 6416POPC   NC320471  20.644  22.189   9.453
 6416POPC   PO420472  20.606  22.130   9.153
 6416POPC   GL120473  20.564  22.164   8.853
 6416POPC   GL220474  20.713  22.223   8.853
 6416POPC   C1A20475  20.622  22.142   8.553
 6416POPC   D2A20476  20.616  22.139   8.253
 6416POPC   C3A20477  20.587  22.120   7.953
 6416POPC   C4A20478  20.642  22.209   7.653
 6416POPC   C1B20479  20.845  22.290   8.553
 6416POPC   C2B20480  20.828  22.252   8.253
 6416POPC   C3B20481  20.839  22.275   7.953
 6416POPC   C4B20482  20.853  22.208   7.653
 6417POPC   NC320483  40.777  19.010   9.453
 6417POPC   PO420484  40.811  19.035   9.153
 6417POPC   GL120485  40.816  19.037   8.853
 6417POPC   GL220486  40.860  18.940   8.853
 6417POPC   C1A20487  40.740  19.018   8.553
 6417POPC   D2A20488  40.784  19.099   8.253
 6417POPC   C3A20489  40.799  19.083   7.953
 6417POPC   C4A20490  40.780  19.088   7.653
 6417POPC   C1B20491  40.908  18.826   8.553
 6417POPC   C2B20492  40.918  18.859   8.253
 6417POPC   C3B20493  40.873  18.873   7.953
 6417POPC   C4B20494  40.899  18.841   7.653
 6418POPC   NC320495   5.877  23.750   9.453
 6418POPC   PO420496   5.852  23.748   9.153
 6418POPC   GL120497   5.828  23.733   8.853
 6418POPC   GL220498   5.983  23.702   8.853
 6418POPC   C1A20499   5.915  23.717   8.553
 6418POPC   D2A20500   5.911  23.689   8.253
 6418POPC   C3A20501   5.863  23.729   7.953
 6418POPC   C4A20502   5.918  23.754   7.653
 6418POPC   C1B20503   6.109  23.757   8.553
 6418POPC   C2B20504   6.112  23.718   8.253
 6418POPC   C3B20505   6.085  23.706   7.953
 6418POPC   C4B20506   6.072  23.725   7.653
 6419POPC   NC320507  19.847  20.571   9.453
 6419POPC   PO420508  19.793  20.632   9.153
 6419POPC   GL120509  19.852  20.645   8.853
 6419POPC   GL220510  19.842  20.727   8.853
 6419POPC   C1A20511  19.794  20.615   8.553
 6419POPC   D2A20512  19.866  20.649   8.253
 6419POPC   C3A20513  19.875  20.638   7.953
 6419POPC   C4A20514  19.805  20.579   7.653
 6419POPC   C1B20515  19.869  20.844   8.553
 6419POPC   C2B20516  19.886  20.909   8.253
 6419POPC   C3B20517  19.867  20.858   7.953
 6419POPC   C4B20518  19.845  20.886   7.653
 6420POPC   NC320519  40.026  14.416   9.453
 6420POPC   PO420520  40.020  14.354   9.153
 6420POPC   GL120521  39.995  14.414   8.853
 6420POPC   GL220522  40.166  14.337   8.853
 6420POPC   C1A20523  39.982  14.443   8.553
 6420POPC   D2A20524  40.057  14.355   8.253
 6420POPC   C3A20525  39.985  14.380   7.953
 6420POPC   C4A20526  40.013  14.443   7.653
 6420POPC   C1B20527  40.233  14.323   8.553
 6420POPC   C2B20528  40.273  14.271   8.253
 6420POPC   C3B20529  40.267  14.308   7.953
 6420POPC   C4B20530  40.264  14.328   7.653
 6421POPC   NC320531  16.755  40.808   9.453
 6421POPC   PO420532  16.777  40.760   9.153
 6421POPC   GL120533  16.732  40.808   8.853
 6421POPC   GL220534  16.607  40.695   8.853
 6421POPC   C1A20535  16.760  40.792   8.553
 6421POPC   D2A20536  16.752  40.736   8.253
 6421POPC   C3A20537  16.718  40.812   7.953
 6421POPC   C4A20538  16.735  40.800   7.653
 6421POPC   C1B20539  16.500  40.706   8.553
 6421POPC   C2B20540  16.559  40.666   8.253
 6421POPC   C3B20541  16.509  40.687   7.953
 6421POPC   C4B20542  16.536  40.618   7.653
 6422POPC   NC320543  19.049   8.214   9.453
 6422POPC   PO420544  19.054   8.223   9.153
 6422POPC   GL120545  19.026   8.147   8.853
 6422POPC   GL220546  19.174   8.128   8.853
 6422POPC   C1A20547  19.104   8.223   8.553
 6422POPC   D2A20548  19.059   8.147   8.253
 6422POPC   C3A20549  19.015   8.219   7.953
 6422POPC   C4A20550  19.060   8.203   7.653
 6422POPC   C1B20551  19.323   8.143   8.553
 6422POPC   C2B20552  19.333   8.080   8.253
 6422POPC   C3B20553  19.259   8.089   7.953
 6422POPC   C4B20554  19.244   8.054   7.653
 6423POPC   NC320555  44.664   7.401   9.453
 6423POPC   PO420556  44.616   7.422   9.153
 6423POPC   GL120557  44.681   7.372   8.853
 6423POPC   GL220558  44.762   7.386   8.853
 6423POPC   C1A20559  44.695   7.407   8.553
 6423POPC   D2A20560  44.701   7.462   8.253
 6423POPC   C3A20561  44.667   7.423   7.953
 6423POPC   C4A20562  44.630   7.405   7.653
 6423POPC   C1B20563  44.946   7.330   8.553
 6423POPC   C2B20564  44.926   7.416   8.253
 6423POPC   C3B20565  44.917   7.362   7.953
 6423POPC   C4B20566  44.913   7.377   7.653
 6424POPC   NC320567   7.451  34.575   9.453
 6424POPC   PO420568   7.389  34.576   9.153
 6424POPC   GL120569   7.377  34.621   8.853
 6424POPC   GL220570   7.273  34.516   8.853
 6424POPC   C1A20571   7.467  34.577   8.553
 6424POPC   D2A20572   7.394  34.608   8.253
 6424POPC   C3A20573   7.372  34.572   7.953
 6424POPC   C4A20574   7.443  34.556   7.653
 6424POPC   C1B20575   7.226  34.518   8.553
 6424POPC   C2B20576   7.184  34.507   8.253
 6424POPC   C3B20577   7.181  34.493   7.953
 6424POPC   C4B20578   7.215  34.486   7.653
 6425POPC   NC320579  36.145  14.434   9.453
 6425POPC   PO420580  36.092  14.360   9.153
 6425POPC   GL120581  36.100  14.399   8.853
 6425POPC   GL220582  36.097  14.309   8.853
 6425POPC   C1A20583  36.123  14.384   8.553
 6425POPC   D2A20584  36.165  14.412   8.253
 6425POPC   C3A20585  36.176  14.399   7.953
 6425POPC   C4A20586  36.104  14.403   7.653
 6425POPC   C1B20587  36.134  14.112   8.553
 6425POPC   C2B20588  36.097  14.173   8.253
 6425POPC   C3B20589  36.101  14.204   7.953
 6425POPC   C4B20590  36.059  14.171   7.653
 6426POPC   NC320591  25.315   8.982   9.453
 6426POPC   PO420592  25.278   8.931   9.153
 6426POPC   GL120593  25.216   8.997   8.853
 6426POPC   GL220594  25.219   8.874   8.853
 6426POPC   C1A20595  25.292   8.985   8.553
 6426POPC   D2A20596  25.251   8.930   8.253
 6426POPC   C3A20597  25.233   9.015   7.953
 6426POPC   C4A20598  25.219   8.984   7.653
 6426POPC   C1B20599  25.065   8.781   8.553
 6426POPC   C2B20600  25.083   8.805   8.253
 6426POPC   C3B20601  25.100   8.790   7.953
 6426POPC   C4B20602  25.079   8.769   7.653
 6427POPC   NC320603  28.347  15.953   9.453
 6427POPC   PO420604  28.349  15.927   9.153
 6427POPC   GL120605  28.343  15.931   8.853
 6427POPC   GL220606  28.347  15.823   8.853
 6427POPC   C1A20607  28.373  15.950   8.553
 6427POPC   D2A20608  28.338  15.937   8.253
 6427POPC   C3A20609  28.392  15.919   7.953
 6427POPC   C4A20610  28.374  15.937   7.653
 6427POPC   C1B20611  28.349  15.692   8.553
 6427POPC   C2B20612  28.344  15.677   8.253
 6427POPC   C3B20613  28.377  15.674   7.953
 6427POPC   C4B20614  28.434  15.724   7.653
 6428POPC   NC320615  15.963  33.759   9.453
 6428POPC   PO420616  15.989  33.797   9.153
 6428POPC   GL120617  15.922  33.833   8.853
 6428POPC   GL220618  15.886  33.630   8.853
 6428POPC   C1A20619  15.912  33.819   8.553
 6428POPC   D2A20620  15.953  33.781   8.253
 6428POPC   C3A20621  15.953  33.773   7.953
 6428POPC   C4A20622  15.964  33.809   7.653
 6428POPC   C1B20623  15.928  33.570   8.553
 6428POPC   C2B20624  15.903  33.557   8.253
 6428POPC   C3B20625  15.939  33.512   7.953
 6428POPC   C4B20626  15.921  33.602   7.653
 6429POPC   NC320627  24.465   6.678   9.453
 6429POPC   PO420628  24.452   6.663   9.153
 6429POPC   GL120629  24.443   6.640   8.853
 6429POPC   GL220630  24.449   6.808   8.853
 6429POPC   C1A20631  24.498   6.625   8.553
 6429POPC   D2A20632  24.454   6.648   8.253
 6429POPC   C3A20633  24.462   6.645   7.953
 6429POPC   C4A20634  24.512   6.624   7.653
 6429POPC   C1B20635  24.430   6.939   8.553
 6429POPC   C2B20636  24.507   6.890   8.253
 6429POPC   C3B20637  24.476   6.908   7.953
 6429POPC   C4B20638  24.516   6.935   7.653
 6430POPC   NC320639   8.987  11.328   9.453
 6430POPC   PO420640   8.943  11.319   9.153
 6430POPC   GL120641   9.008  11.314   8.853
 6430POPC   GL220642   9.036  11.378   8.853
 6430POPC   C1A20643   8.935  11.302   8.553
 6430POPC   D2A20644   8.971  11.280   8.253
 6430POPC   C3A20645   8.990  11.260   7.953
 6430POPC   C4A20646   8.990  11.254   7.653
 6430POPC   C1B20647   9.064  11.555   8.553
 6430POPC   C2B20648   9.081  11.494   8.253
 6430POPC   C3B20649   9.097  11.521   7.953
 6430POPC   C4B20650   9.052  11.525   7.653
 6431POPC   NC320651  42.293  15.181   9.453
 6431POPC   PO420652  42.326  15.145   9.153
 6431POPC   GL120653  42.311  15.179   8.853
 6431POPC   GL220654  42.187  15.150   8.853
 6431POPC   C1A20655  42.333  15.227   8.553
 6431POPC   D2A20656  42.337  15.199   8.253
 6431POPC   C3A20657  42.344  15.226   7.953
 6431POPC   C4A20658  42.336  15.210   7.653
 6431POPC   C1B20659  42.175  15.076   8.553
 6431POPC   C2B20660  42.165  14.990   8.253
 6431POPC   C3B20661  42.138  15.020   7.953
 6431POPC   C4B20662  42.095  15.079   7.653
 6432POPC   NC320663  43.115  44.688   9.453
 6432POPC   PO420664  43.154  44.709   9.153
 6432POPC   GL120665  43.071  44.616   8.853
 6432POPC   GL220666  43.271  44.718   8.853
 6432POPC   C1A20667  43.110  44.625   8.553
 6432POPC   D2A20668  43.152  44.623   8.253
 6432POPC   C3A20669  43.118  44.668   7.953
 6432POPC   C4A20670  43.119  44.622   7.653
 6432POPC   C1B20671  43.318  44.736   8.553
 6432POPC   C2B20672  43.310  44.743   8.253
 6432POPC   C3B20673  43.398  44.670   7.953
 6432POPC   C4B20674  43.315  44.651   7.653
 6433POPC   NC320675   0.391  40.048   9.453
 6433POPC   PO420676   0.398  39.959   9.153
 6433POPC   GL120677   0.461  40.027   8.853
 6433POPC   GL220678   0.307  40.008   8.853
 6433POPC   C1A20679   0.454  40.028   8.553
 6433POPC   D2A20680   0.441  39.968   8.253
 6433POPC   C3A20681   0.402  39.992   7.953
 6433POPC   C4A20682   0.413  40.017   7.653
 6433POPC   C1B20683   0.236  40.010   8.553
 6433POPC   C2B20684   0.140  39.978   8.253
 6433POPC   C3B20685   0.238  40.026   7.953
 6433POPC   C4B20686   0.149  39.994   7.653
 6434POPC   NC320687   3.540   5.091   9.453
 6434POPC   PO420688   3.520   5.100   9.153
 6434POPC   GL120689   3.584   5.054   8.853
 6434POPC   GL220690   3.671   5.041   8.853
 6434POPC   C1A20691   3.524   5.130   8.553
 6434POPC   D2A20692   3.589   5.098   8.253
 6434POPC   C3A20693   3.533   5.107   7.953
 6434POPC   C4A20694   3.546   5.129   7.653
 6434POPC   C1B20695   3.776   4.924   8.553
 6434POPC   C2B20696   3.706   4.945   8.253
 6434POPC   C3B20697   3.705   4.896   7.953
 6434POPC   C4B20698   3.754   4.884   7.653
 6435POPC   NC320699  19.794   8.988   9.453
 6435POPC   PO420700  19.824   8.952   9.153
 6435POPC   GL120701  19.880   8.993   8.853
 6435POPC   GL220702  19.917   8.895   8.853
 6435POPC   C1A20703  19.861   9.006   8.553
 6435POPC   D2A20704  19.814   8.993   8.253
 6435POPC   C3A20705  19.806   8.957   7.953
 6435POPC   C4A20706  19.853   9.002   7.653
 6435POPC   C1B20707  20.021   8.790   8.553
 6435POPC   C2B20708  20.039   8.778   8.253
 6435POPC   C3B20709  20.045   8.770   7.953
 6435POPC   C4B20710  20.010   8.776   7.653
 6436POPC   NC320711  43.866  15.182   9.453
 6436POPC   PO420712  43.934  15.199   9.153
 6436POPC   GL120713  43.923  15.160   8.853
 6436POPC   GL220714  43.990  15.096   8.853
 6436POPC   C1A20715  43.894  15.153   8.553
 6436POPC   D2A20716  43.917  15.227   8.253
 6436POPC   C3A20717  43.930  15.146   7.953
 6436POPC   C4A20718  43.920  15.151   7.653
 6436POPC   C1B20719  43.977  14.940   8.553
 6436POPC   C2B20720  44.013  14.950   8.253
 6436POPC   C3B20721  43.968  15.010   7.953
 6436POPC   C4B20722  43.987  15.005   7.653
 6437POPC   NC320723  31.479  26.052   9.453
 6437POPC   PO420724  31.436  26.068   9.153
 6437POPC   GL120725  31.429  26.039   8.853
 6437POPC   GL220726  31.560  26.146   8.853
 6437POPC   C1A20727  31.472  26.029   8.553
 6437POPC   D2A20728  31.506  26.090   8.253
 6437POPC   C3A20729  31.496  26.028   7.953
 6437POPC   C4A20730  31.512  26.015   7.653
 6437POPC   C1B20731  31.681  26.223   8.553
 6437POPC   C2B20732  31.619  26.186   8.253
 6437POPC   C3B20733  31.647  26.271   7.953
 6437POPC   C4B20734  31.595  26.195   7.653
 6438POPC   NC320735   9.733  27.584   9.453
 6438POPC   PO420736   9.757  27.630   9.153
 6438POPC   GL120737   9.770  27.635   8.853
 6438POPC   GL220738   9.880  27.586   8.853
 6438POPC   C1A20739   9.797  27.584   8.553
 6438POPC   D2A20740   9.765  27.604   8.253
 6438POPC   C3A20741   9.733  27.570   7.953
 6438POPC   C4A20742   9.739  27.552   7.653
 6438POPC   C1B20743   9.950  27.586   8.553
 6438POPC   C2B20744  10.030  27.599   8.253
 6438POPC   C3B20745   9.976  27.623   7.953
 6438POPC   C4B20746  10.044  27.586   7.653
 6439POPC   NC320747   7.405   1.941   9.453
 6439POPC   PO420748   7.463   2.016   9.153
 6439POPC   GL120749   7.405   1.957   8.853
 6439POPC   GL220750   7.294   2.056   8.853
 6439POPC   C1A20751   7.408   1.974   8.553
 6439POPC   D2A20752   7.379   2.004   8.253
 6439POPC   C3A20753   7.463   1.946   7.953
 6439POPC   C4A20754   7.410   2.011   7.653
 6439POPC   C1B20755   7.270   2.175   8.553
 6439POPC   C2B20756   7.184   2.143   8.253
 6439POPC   C3B20757   7.251   2.111   7.953
 6439POPC   C4B20758   7.180   2.110   7.653
 6440POPC   NC320759  19.101  44.693   9.453
 6440POPC   PO420760  19.036  44.675   9.153
 6440POPC   GL120761  19.032  44.631   8.853
 6440POPC   GL220762  19.142  44.562   8.853
 6440POPC   C1A20763  19.014  44.615   8.553
 6440POPC   D2A20764  19.084  44.627   8.253
 6440POPC   C3A20765  19.108  44.617   7.953
 6440POPC   C4A20766  19.024  44.629   7.653
 6440POPC   C1B20767  19.235  44.475   8.553
 6440POPC   C2B20768  19.198  44.509   8.253
 6440POPC   C3B20769  19.258  44.423   7.953
 6440POPC   C4B20770  19.241  44.417   7.653
 6441POPC   NC320771   0.421  36.104   9.453
 6441POPC   PO420772   0.483  36.145   9.153
 6441POPC   GL120773   0.453  36.103   8.853
 6441POPC   GL220774   0.450  36.015   8.853
 6441POPC   C1A20775   0.455  36.175   8.553
 6441POPC   D2A20776   0.411  36.105   8.253
 6441POPC   C3A20777   0.477  36.155   7.953
 6441POPC   C4A20778   0.417  36.154   7.653
 6441POPC   C1B20779   0.469  35.861   8.553
 6441POPC   C2B20780   0.467  35.921   8.253
 6441POPC   C3B20781   0.484  35.922   7.953
 6441POPC   C4B20782   0.494  35.867   7.653
 6442POPC   NC320783  38.433  26.055   9.453
 6442POPC   PO420784  38.428  26.054   9.153
 6442POPC   GL120785  38.412  25.992   8.853
 6442POPC   GL220786  38.520  26.125   8.853
 6442POPC   C1A20787  38.421  26.013   8.553
 6442POPC   D2A20788  38.475  26.021   8.253
 6442POPC   C3A20789  38.441  26.011   7.953
 6442POPC   C4A20790  38.407  26.043   7.653
 6442POPC   C1B20791  38.663  26.229   8.553
 6442POPC   C2B20792  38.615  26.161   8.253
 6442POPC   C3B20793  38.654  26.190   7.953
 6442POPC   C4B20794  38.643  26.216   7.653
 6443POPC   NC320795  13.666  19.805   9.453
 6443POPC   PO420796  13.618  19.875   9.153
 6443POPC   GL120797  13.659  19.824   8.853
 6443POPC   GL220798  13.662  19.902   8.853
 6443POPC   C1A20799  13.596  19.873   8.553
 6443POPC   D2A20800  13.665  19.845   8.253
 6443POPC   C3A20801  13.589  19.863   7.953
 6443POPC   C4A20802  13.648  19.873   7.653
 6443POPC   C1B20803  13.785  20.028   8.553
 6443POPC   C2B20804  13.730  20.056   8.253
 6443POPC   C3B20805  13.816  20.007   7.953
 6443POPC   C4B20806  13.741  20.079   7.653
 6444POPC   NC320807  19.017  29.123   9.453
 6444POPC   PO420808  19.046  29.141   9.153
 6444POPC   GL120809  19.094  29.179   8.853
 6444POPC   GL220810  18.975  29.188   8.853
 6444POPC   C1A20811  19.090  29.193   8.553
 6444POPC   D2A20812  19.020  29.189   8.253
 6444POPC   C3A20813  19.086  29.165   7.953
 6444POPC   C4A20814  19.097  29.138   7.653
 6444POPC   C1B20815  18.840  29.312   8.553
 6444POPC   C2B20816  18.897  29.321   8.253
 6444POPC   C3B20817  18.846  29.330   7.953
 6444POPC   C4B20818  18.869  29.304   7.653
 6445POPC   NC320819   1.974  34.575   9.453
 6445POPC   PO420820   1.974  34.595   9.153
 6445POPC   GL120821   1.979  34.623   8.853
 6445POPC   GL220822   2.139  34.622   8.853
 6445POPC   C1A20823   1.971  34.598   8.553
 6445POPC   D2A20824   2.035  34.580   8.253
 6445POPC   C3A20825   1.971  34.602   7.953
 6445POPC   C4A20826   2.016  34.620   7.653
 6445POPC   C1B20827   2.220  34.616   8.553
 6445POPC   C2B20828   2.196  34.634   8.253
 6445POPC   C3B20829   2.257  34.610   7.953
 6445POPC   C4B20830   2.199  34.655   7.653
 6446POPC   NC320831  12.097  11.269   9.453
 6446POPC   PO420832  12.082  11.269   9.153
 6446POPC   GL120833  12.041  11.328   8.853
 6446POPC   GL220834  12.189  11.331   8.853
 6446POPC   C1A20835  12.124  11.325   8.553
 6446POPC   D2A20836  12.081  11.316   8.253
 6446POPC   C3A20837  12.042  11.292   7.953
 6446POPC   C4A20838  12.118  11.272   7.653
 6446POPC   C1B20839  12.268  11.374   8.553
 6446POPC   C2B20840  12.279  11.419   8.253
 6446POPC   C3B20841  12.314  11.434   7.953
 6446POPC   C4B20842  12.297  11.407   7.653
 6447POPC   NC320843   7.431  42.295   9.453
 6447POPC   PO420844   7.461  42.315   9.153
 6447POPC   GL120845   7.457  42.324   8.853
 6447POPC   GL220846   7.458  42.482   8.853
 6447POPC   C1A20847   7.415  42.324   8.553
 6447POPC   D2A20848   7.420  42.361   8.253
 6447POPC   C3A20849   7.389  42.309   7.953
 6447POPC   C4A20850   7.378  42.321   7.653
 6447POPC   C1B20851   7.575  42.520   8.553
 6447POPC   C2B20852   7.562  42.567   8.253
 6447POPC   C3B20853   7.529  42.547   7.953
 6447POPC   C4B20854   7.527  42.586   7.653
 6448POPC   NC320855  41.594  16.774   9.453
 6448POPC   PO420856  41.583  16.752   9.153
 6448POPC   GL120857  41.544  16.694   8.853
 6448POPC   GL220858  41.487  16.698   8.853
 6448POPC   C1A20859  41.577  16.741   8.553
 6448POPC   D2A20860  41.549  16.726   8.253
 6448POPC   C3A20861  41.604  16.779   7.953
 6448POPC   C4A20862  41.579  16.752   7.653
 6448POPC   C1B20863  41.353  16.581   8.553
 6448POPC   C2B20864  41.402  16.578   8.253
 6448POPC   C3B20865  41.354  16.575   7.953
 6448POPC   C4B20866  41.364  16.590   7.653
 6449POPC   NC320867   0.435  16.702   9.453
 6449POPC   PO420868   0.388  16.720   9.153
 6449POPC   GL120869   0.422  16.744   8.853
 6449POPC   GL220870   0.318  16.733   8.853
 6449POPC   C1A20871   0.437  16.748   8.553
 6449POPC   D2A20872   0.464  16.719   8.253
 6449POPC   C3A20873   0.432  16.770   7.953
 6449POPC   C4A20874   0.466  16.743   7.653
 6449POPC   C1B20875   0.149  16.766   8.553
 6449POPC   C2B20876   0.196  16.790   8.253
 6449POPC   C3B20877   0.187  16.751   7.953
 6449POPC   C4B20878   0.244  16.770   7.653
 6450POPC   NC320879  23.719   8.970   9.453
 6450POPC   PO420880  23.751   8.998   9.153
 6450POPC   GL120881  23.703   8.941   8.853
 6450POPC   GL220882  23.792   9.111   8.853
 6450POPC   C1A20883  23.712   8.978   8.553
 6450POPC   D2A20884  23.739   8.984   8.253
 6450POPC   C3A20885  23.712   8.971   7.953
 6450POPC   C4A20886  23.713   8.944   7.653
 6450POPC   C1B20887  23.919   9.191   8.553
 6450POPC   C2B20888  23.847   9.130   8.253
 6450POPC   C3B20889  23.898   9.121   7.953
 6450POPC   C4B20890  23.883   9.121   7.653
 6451POPC   NC320891   7.392  40.749   9.453
 6451POPC   PO420892   7.379  40.802   9.153
 6451POPC   GL120893   7.392  40.786   8.853
 6451POPC   GL220894   7.492  40.739   8.853
 6451POPC   C1A20895   7.398  40.809   8.553
 6451POPC   D2A20896   7.412  40.740   8.253
 6451POPC   C3A20897   7.428  40.763   7.953
 6451POPC   C4A20898   7.412  40.788   7.653
 6451POPC   C1B20899   7.557  40.615   8.553
 6451POPC   C2B20900   7.604  40.571   8.253
 6451POPC   C3B20901   7.631  40.568   7.953
 6451POPC   C4B20902   7.616  40.561   7.653
 6452POPC   NC320903   4.270  36.159   9.453
 6452POPC   PO420904   4.348  36.128   9.153
 6452POPC   GL120905   4.296  36.142   8.853
 6452POPC   GL220906   4.221  36.165   8.853
 6452POPC   C1A20907   4.325  36.100   8.553
 6452POPC   D2A20908   4.343  36.166   8.253
 6452POPC   C3A20909   4.291  36.160   7.953
 6452POPC   C4A20910   4.284  36.115   7.653
 6452POPC   C1B20911   4.153  36.341   8.553
 6452POPC   C2B20912   4.180  36.322   8.253
 6452POPC   C3B20913   4.114  36.306   7.953
 6452POPC   C4B20914   4.110  36.295   7.653
 6453POPC   NC320915   2.013   8.978   9.453
 6453POPC   PO420916   1.948   8.934   9.153
 6453POPC   GL120917   1.991   8.938   8.853
 6453POPC   GL220918   1.946   9.086   8.853
 6453POPC   C1A20919   1.993   8.964   8.553
 6453POPC   D2A20920   1.980   8.977   8.253
 6453POPC   C3A20921   1.977   8.987   7.953
 6453POPC   C4A20922   1.972   8.929   7.653
 6453POPC   C1B20923   1.923   9.213   8.553
 6453POPC   C2B20924   1.980   9.255   8.253
 6453POPC   C3B20925   1.969   9.252   7.953
 6453POPC   C4B20926   1.940   9.186   7.653
 6454POPC   NC320927  31.505  39.279   9.453
 6454POPC   PO420928  31.457  39.271   9.153
 6454POPC   GL120929  31.508  39.201   8.853
 6454POPC   GL220930  31.444  39.180   8.853
 6454POPC   C1A20931  31.518  39.194   8.553
 6454POPC   D2A20932  31.500  39.192   8.253
 6454POPC   C3A20933  31.450  39.251   7.953
 6454POPC   C4A20934  31.442  39.229   7.653
 6454POPC   C1B20935  31.342  39.069   8.553
 6454POPC   C2B20936  31.332  39.051   8.253
 6454POPC   C3B20937  31.280  38.994   7.953
 6454POPC   C4B20938  31.367  39.061   7.653
 6455POPC   NC320939  19.839  44.655   9.453
 6455POPC   PO420940  19.873  44.703   9.153
 6455POPC   GL120941  19.862  44.695   8.853
 6455POPC   GL220942  19.978  44.557   8.853
 6455POPC   C1A20943  19.840  44.651   8.553
 6455POPC   D2A20944  19.817  44.663   8.253
 6455POPC   C3A20945  19.791  44.619   7.953
 6455POPC   C4A20946  19.822  44.700   7.653
 6455POPC   C1B20947  20.024  44.564   8.553
 6455POPC   C2B20948  20.009  44.556   8.253
 6455POPC   C3B20949  20.067  44.518   7.953
 6455POPC   C4B20950  20.103  44.541   7.653
 6456POPC   NC320951  25.260  36.167   9.453
 6456POPC   PO420952  25.235  36.152   9.153
 6456POPC   GL120953  25.247  36.169   8.853
 6456POPC   GL220954  25.272  36.257   8.853
 6456POPC   C1A20955  25.266  36.080   8.553
 6456POPC   D2A20956  25.302  36.116   8.253
 6456POPC   C3A20957  25.278  36.106   7.953
 6456POPC   C4A20958  25.292  36.160   7.653
 6456POPC   C1B20959  25.242  36.368   8.553
 6456POPC   C2B20960  25.157  36.368   8.253
 6456POPC   C3B20961  25.225  36.336   7.953
 6456POPC   C4B20962  25.176  36.398   7.653
 6457POPC   NC320963  11.325  44.661   9.453
 6457POPC   PO420964  11.338  44.692   9.153
 6457POPC   GL120965  11.280  44.652   8.853
 6457POPC   GL220966  11.284  44.826   8.853
 6457POPC   C1A20967  11.313  44.636   8.553
 6457POPC   D2A20968  11.258  44.688   8.253
 6457POPC   C3A20969  11.287  44.658   7.953
 6457POPC   C4A20970  11.303  44.640   7.653
 6457POPC   C1B20971  11.343  44.939   8.553
 6457POPC   C2B20972  11.337  44.880   8.253
 6457POPC   C3B20973  11.259  44.959   7.953
 6457POPC   C4B20974  11.320  44.937   7.653
 6458POPC   NC320975  41.597  39.973   9.453
 6458POPC   PO420976  41.527  39.970   9.153
 6458POPC   GL120977  41.526  40.037   8.853
 6458POPC   GL220978  41.451  39.979   8.853
 6458POPC   C1A20979  41.557  39.963   8.553
 6458POPC   D2A20980  41.532  40.034   8.253
 6458POPC   C3A20981  41.604  39.975   7.953
 6458POPC   C4A20982  41.525  40.038   7.653
 6458POPC   C1B20983  41.268  40.038   8.553
 6458POPC   C2B20984  41.321  40.036   8.253
 6458POPC   C3B20985  41.344  40.030   7.953
 6458POPC   C4B20986  41.313  40.017   7.653
 6459POPC   NC320987  22.912  33.801   9.453
 6459POPC   PO420988  22.904  33.812   9.153
 6459POPC   GL120989  22.958  33.829   8.853
 6459POPC   GL220990  23.063  33.848   8.853
 6459POPC   C1A20991  22.956  33.758   8.553
 6459POPC   D2A20992  22.941  33.824   8.253
 6459POPC   C3A20993  22.909  33.786   7.953
 6459POPC   C4A20994  22.977  33.780   7.653
 6459POPC   C1B20995  23.136  33.897   8.553
 6459POPC   C2B20996  23.198  33.899   8.253
 6459POPC   C3B20997  23.174  33.841   7.953
 6459POPC   C4B20998  23.219  33.859   7.653
 6460POPC   NC320999  20.593   9.770   9.453
 6460POPC   PO421000  20.578   9.746   9.153
 6460POPC   GL121001  20.629   9.739   8.853
 6460POPC   GL221002  20.635   9.633   8.853
 6460POPC   C1A21003  20.643   9.788   8.553
 6460POPC   D2A21004  20.615   9.749   8.253
 6460POPC   C3A21005  20.591   9.720   7.953
 6460POPC   C4A21006  20.602   9.739   7.653
 6460POPC   C1B21007  20.600   9.451   8.553
 6460POPC   C2B21008  20.623   9.513   8.253
 6460POPC   C3B21009  20.612   9.466   7.953
 6460POPC   C4B21010  20.559   9.518   7.653
 6461POPC   NC321011  25.277  27.589   9.453
 6461POPC   PO421012  25.278  27.591   9.153
 6461POPC   GL121013  25.301  27.617   8.853
 6461POPC   GL221014  25.179  27.548   8.853
 6461POPC   C1A21015  25.301  27.586   8.553
 6461POPC   D2A21016  25.226  27.608   8.253
 6461POPC   C3A21017  25.263  27.610   7.953
 6461POPC   C4A21018  25.285  27.600   7.653
 6461POPC   C1B21019  25.064  27.508   8.553
 6461POPC   C2B21020  25.007  27.555   8.253
 6461POPC   C3B21021  24.996  27.532   7.953
 6461POPC   C4B21022  25.035  27.535   7.653
 6462POPC   NC321023  26.087   1.955   9.453
 6462POPC   PO421024  26.050   2.022   9.153
 6462POPC   GL121025  26.088   2.019   8.853
 6462POPC   GL221026  25.961   1.905   8.853
 6462POPC   C1A21027  25.998   1.966   8.553
 6462POPC   D2A21028  26.026   1.958   8.253
 6462POPC   C3A21029  26.016   1.952   7.953
 6462POPC   C4A21030  26.054   1.967   7.653
 6462POPC   C1B21031  25.888   1.739   8.553
 6462POPC   C2B21032  25.894   1.772   8.253
 6462POPC   C3B21033  25.867   1.787   7.953
 6462POPC   C4B21034  25.943   1.789   7.653
 6463POPC   NC321035  28.415  20.588   9.453
 6463POPC   PO421036  28.355  20.598   9.153
 6463POPC   GL121037  28.378  20.570   8.853
 6463POPC   GL221038  28.309  20.520   8.853
 6463POPC   C1A21039  28.405  20.639   8.553
 6463POPC   D2A21040  28.333  20.648   8.253
 6463POPC   C3A21041  28.361  20.602   7.953
 6463POPC   C4A21042  28.373  20.655   7.653
 6463POPC   C1B21043  28.324  20.404   8.553
 6463POPC   C2B21044  28.282  20.367   8.253
 6463POPC   C3B21045  28.242  20.406   7.953
 6463POPC   C4B21046  28.297  20.352   7.653
 6464POPC   NC321047  26.051  12.051   9.453
 6464POPC   PO421048  26.003  12.047   9.153
 6464POPC   GL121049  26.020  12.092   8.853
 6464POPC   GL221050  26.118  12.167   8.853
 6464POPC   C1A21051  26.064  12.043   8.553
 6464POPC   D2A21052  26.076  12.051   8.253
 6464POPC   C3A21053  26.081  12.036   7.953
 6464POPC   C4A21054  25.997  12.100   7.653
 6464POPC   C1B21055  26.304  12.187   8.553
 6464POPC   C2B21056  26.281  12.117   8.253
 6464POPC   C3B21057  26.266  12.191   7.953
 6464POPC   C4B21058  26.276  12.213   7.653
 6465POPC   NC321059  29.912  21.408   9.453
 6465POPC   PO421060  29.902  21.357   9.153
 6465POPC   GL121061  29.932  21.404   8.853
 6465POPC   GL221062  30.023  21.355   8.853
 6465POPC   C1A21063  29.925  21.399   8.553
 6465POPC   D2A21064  29.947  21.358   8.253
 6465POPC   C3A21065  29.934  21.429   7.953
 6465POPC   C4A21066  29.963  21.360   7.653
 6465POPC   C1B21067  30.174  21.331   8.553
 6465POPC   C2B21068  30.120  21.257   8.253
 6465POPC   C3B21069  30.181  21.349   7.953
 6465POPC   C4B21070  30.156  21.317   7.653
 6466POPC   NC321071  20.565   4.329   9.453
 6466POPC   PO421072  20.569   4.366   9.153
 6466POPC   GL121073  20.636   4.270   8.853
 6466POPC   GL221074  20.691   4.444   8.853
 6466POPC   C1A21075  20.579   4.315   8.553
 6466POPC   D2A21076  20.584   4.301   8.253
 6466POPC   C3A21077  20.579   4.323   7.953
 6466POPC   C4A21078  20.597   4.363   7.653
 6466POPC   C1B21079  20.816   4.510   8.553
 6466POPC   C2B21080  20.748   4.487   8.253
 6466POPC   C3B21081  20.782   4.450   7.953
 6466POPC   C4B21082  20.744   4.512   7.653
 6467POPC   NC321083  44.654  12.851   9.453
 6467POPC   PO421084  44.620  12.857   9.153
 6467POPC   GL121085  44.622  12.849   8.853
 6467POPC   GL221086  44.788  12.832   8.853
 6467POPC   C1A21087  44.659  12.835   8.553
 6467POPC   D2A21088  44.627  12.879   8.253
 6467POPC   C3A21089  44.643  12.849   7.953
 6467POPC   C4A21090  44.655  12.811   7.653
 6467POPC   C1B21091  44.905  12.882   8.553
 6467POPC   C2B21092  44.933  12.891   8.253
 6467POPC   C3B21093  44.892  12.934   7.953
 6467POPC   C4B21094  44.858  12.922   7.653
 6468POPC   NC321095  30.737  39.278   9.453
 6468POPC   PO421096  30.738  39.256   9.153
 6468POPC   GL121097  30.690  39.238   8.853
 6468POPC   GL221098  30.637  39.317   8.853
 6468POPC   C1A21099  30.694  39.264   8.553
 6468POPC   D2A21100  30.703  39.260   8.253
 6468POPC   C3A21101  30.692  39.269   7.953
 6468POPC   C4A21102  30.670  39.235   7.653
 6468POPC   C1B21103  30.601  39.425   8.553
 6468POPC   C2B21104  30.634  39.442   8.253
 6468POPC   C3B21105  30.661  39.443   7.953
 6468POPC   C4B21106  30.649  39.471   7.653
 6469POPC   NC321107  10.507  18.277   9.453
 6469POPC   PO421108  10.489  18.236   9.153
 6469POPC   GL121109  10.487  18.314   8.853
 6469POPC   GL221110  10.491  18.414   8.853
 6469POPC   C1A21111  10.546  18.251   8.553
 6469POPC   D2A21112  10.477  18.329   8.253
 6469POPC   C3A21113  10.548  18.254   7.953
 6469POPC   C4A21114  10.486  18.309   7.653
 6469POPC   C1B21115  10.499  18.550   8.553
 6469POPC   C2B21116  10.512  18.476   8.253
 6469POPC   C3B21117  10.480  18.516   7.953
 6469POPC   C4B21118  10.492  18.539   7.653
 6470POPC   NC321119  40.832   3.509   9.453
 6470POPC   PO421120  40.748   3.529   9.153
 6470POPC   GL121121  40.823   3.564   8.853
 6470POPC   GL221122  40.714   3.615   8.853
 6470POPC   C1A21123  40.760   3.591   8.553
 6470POPC   D2A21124  40.800   3.538   8.253
 6470POPC   C3A21125  40.804   3.529   7.953
 6470POPC   C4A21126  40.795   3.571   7.653
 6470POPC   C1B21127  40.575   3.699   8.553
 6470POPC   C2B21128  40.576   3.669   8.253
 6470POPC   C3B21129  40.591   3.667   7.953
 6470POPC   C4B21130  40.570   3.671   7.653
 6471POPC   NC321131  19.088  23.719   9.453
 6471POPC   PO421132  19.084  23.740   9.153
 6471POPC   GL121133  19.102  23.686   8.853
 6471POPC   GL221134  18.955  23.597   8.853
 6471POPC   C1A21135  19.014  23.734   8.553
 6471POPC   D2A21136  19.039  23.760   8.253
 6471POPC   C3A21137  19.045  23.757   7.953
 6471POPC   C4A21138  19.058  23.731   7.653
 6471POPC   C1B21139  18.906  23.570   8.553
 6471POPC   C2B21140  18.877  23.565   8.253
 6471POPC   C3B21141  18.910  23.546   7.953
 6471POPC   C4B21142  18.936  23.566   7.653
 6472POPC   NC321143  42.287  25.225   9.453
 6472POPC   PO421144  42.382  25.259   9.153
 6472POPC   GL121145  42.307  25.262   8.853
 6472POPC   GL221146  42.213  25.208   8.853
 6472POPC   C1A21147  42.382  25.287   8.553
 6472POPC   D2A21148  42.369  25.254   8.253
 6472POPC   C3A21149  42.354  25.230   7.953
 6472POPC   C4A21150  42.314  25.310   7.653
 6472POPC   C1B21151  42.146  25.173   8.553
 6472POPC   C2B21152  42.136  25.179   8.253
 6472POPC   C3B21153  42.110  25.211   7.953
 6472POPC   C4B21154  42.144  25.156   7.653
 6473POPC   NC321155  18.318  36.103   9.453
 6473POPC   PO421156  18.233  36.142   9.153
 6473POPC   GL121157  18.258  36.088   8.853
 6473POPC   GL221158  18.351  36.234   8.853
 6473POPC   C1A21159  18.309  36.137   8.553
 6473POPC   D2A21160  18.296  36.106   8.253
 6473POPC   C3A21161  18.236  36.147   7.953
 6473POPC   C4A21162  18.238  36.105   7.653
 6473POPC   C1B21163  18.306  36.422   8.553
 6473POPC   C2B21164  18.331  36.384   8.253
 6473POPC   C3B21165  18.359  36.333   7.953
 6473POPC   C4B21166  18.313  36.339   7.653
 6474POPC   NC321167   9.719  43.899   9.453
 6474POPC   PO421168   9.758  43.925   9.153
 6474POPC   GL121169   9.774  43.855   8.853
 6474POPC   GL221170   9.734  43.718   8.853
 6474POPC   C1A21171   9.775  43.872   8.553
 6474POPC   D2A21172   9.723  43.876   8.253
 6474POPC   C3A21173   9.776  43.920   7.953
 6474POPC   C4A21174   9.751  43.891   7.653
 6474POPC   C1B21175   9.730  43.671   8.553
 6474POPC   C2B21176   9.706  43.595   8.253
 6474POPC   C3B21177   9.742  43.660   7.953
 6474POPC   C4B21178   9.676  43.600   7.653
 6475POPC   NC321179   1.978   7.441   9.453
 6475POPC   PO421180   1.972   7.428   9.153
 6475POPC   GL121181   2.010   7.433   8.853
 6475POPC   GL221182   2.140   7.436   8.853
 6475POPC   C1A21183   1.966   7.438   8.553
 6475POPC   D2A21184   1.968   7.439   8.253
 6475POPC   C3A21185   1.976   7.432   7.953
 6475POPC   C4A21186   2.004   7.424   7.653
 6475POPC   C1B21187   2.203   7.403   8.553
 6475POPC   C2B21188   2.262   7.415   8.253
 6475POPC   C3B21189   2.278   7.440   7.953
 6475POPC   C4B21190   2.262   7.435   7.653
 6476POPC   NC321191   1.236  40.775   9.453
 6476POPC   PO421192   1.230  40.777   9.153
 6476POPC   GL121193   1.250  40.817   8.853
 6476POPC   GL221194   1.230  40.927   8.853
 6476POPC   C1A21195   1.195  40.831   8.553
 6476POPC   D2A21196   1.251  40.772   8.253
 6476POPC   C3A21197   1.192  40.813   7.953
 6476POPC   C4A21198   1.253  40.811   7.653
 6476POPC   C1B21199   1.180  40.989   8.553
 6476POPC   C2B21200   1.181  40.993   8.253
 6476POPC   C3B21201   1.213  41.047   7.953
 6476POPC   C4B21202   1.235  40.998   7.653
 6477POPC   NC321203  32.222  41.598   9.453
 6477POPC   PO421204  32.294  41.514   9.153
 6477POPC   GL121205  32.229  41.530   8.853
 6477POPC   GL221206  32.113  41.604   8.853
 6477POPC   C1A21207  32.208  41.572   8.553
 6477POPC   D2A21208  32.274  41.574   8.253
 6477POPC   C3A21209  32.296  41.601   7.953
 6477POPC   C4A21210  32.238  41.583   7.653
 6477POPC   C1B21211  32.097  41.758   8.553
 6477POPC   C2B21212  32.066  41.773   8.253
 6477POPC   C3B21213  32.057  41.780   7.953
 6477POPC   C4B21214  32.091  41.693   7.653
 6478POPC   NC321215  42.328  12.830   9.453
 6478POPC   PO421216  42.312  12.892   9.153
 6478POPC   GL121217  42.375  12.871   8.853
 6478POPC   GL221218  42.456  12.846   8.853
 6478POPC   C1A21219  42.340  12.888   8.553
 6478POPC   D2A21220  42.350  12.841   8.253
 6478POPC   C3A21221  42.327  12.864   7.953
 6478POPC   C4A21222  42.298  12.835   7.653
 6478POPC   C1B21223  42.564  12.822   8.553
 6478POPC   C2B21224  42.599  12.854   8.253
 6478POPC   C3B21225  42.618  12.811   7.953
 6478POPC   C4B21226  42.603  12.848   7.653
 6479POPC   NC321227  10.523  43.141   9.453
 6479POPC   PO421228  10.572  43.151   9.153
 6479POPC   GL121229  10.563  43.082   8.853
 6479POPC   GL221230  10.406  43.137   8.853
 6479POPC   C1A21231  10.497  43.077   8.553
 6479POPC   D2A21232  10.510  43.145   8.253
 6479POPC   C3A21233  10.547  43.158   7.953
 6479POPC   C4A21234  10.507  43.082   7.653
 6479POPC   C1B21235  10.294  43.132   8.553
 6479POPC   C2B21236  10.228  43.132   8.253
 6479POPC   C3B21237  10.228  43.156   7.953
 6479POPC   C4B21238  10.320  43.174   7.653
 6480POPC   NC321239   4.317  41.554   9.453
 6480POPC   PO421240   4.327  41.574   9.153
 6480POPC   GL121241   4.311  41.548   8.853
 6480POPC   GL221242   4.225  41.559   8.853
 6480POPC   C1A21243   4.276  41.518   8.553
 6480POPC   D2A21244   4.359  41.575   8.253
 6480POPC   C3A21245   4.338  41.545   7.953
 6480POPC   C4A21246   4.358  41.535   7.653
 6480POPC   C1B21247   4.078  41.435   8.553
 6480POPC   C2B21248   4.089  41.436   8.253
 6480POPC   C3B21249   4.033  41.454   7.953
 6480POPC   C4B21250   4.072  41.440   7.653
 6481POPC   NC321251  43.074  35.385   9.453
 6481POPC   PO421252  43.156  35.361   9.153
 6481POPC   GL121253  43.104  35.330   8.853
 6481POPC   GL221254  43.272  35.299   8.853
 6481POPC   C1A21255  43.125  35.302   8.553
 6481POPC   D2A21256  43.100  35.343   8.253
 6481POPC   C3A21257  43.104  35.302   7.953
 6481POPC   C4A21258  43.078  35.304   7.653
 6481POPC   C1B21259  43.365  35.293   8.553
 6481POPC   C2B21260  43.338  35.369   8.253
 6481POPC   C3B21261  43.346  35.335   7.953
 6481POPC   C4B21262  43.379  35.359   7.653
 6482POPC   NC321263  29.880  36.890   9.453
 6482POPC   PO421264  29.938  36.917   9.153
 6482POPC   GL121265  29.923  36.871   8.853
 6482POPC   GL221266  29.812  37.013   8.853
 6482POPC   C1A21267  29.880  36.881   8.553
 6482POPC   D2A21268  29.900  36.888   8.253
 6482POPC   C3A21269  29.931  36.896   7.953
 6482POPC   C4A21270  29.938  36.872   7.653
 6482POPC   C1B21271  29.800  37.056   8.553
 6482POPC   C2B21272  29.739  37.082   8.253
 6482POPC   C3B21273  29.728  37.080   7.953
 6482POPC   C4B21274  29.756  37.068   7.653
 6483POPC   NC321275  43.154  29.175   9.453
 6483POPC   PO421276  43.135  29.143   9.153
 6483POPC   GL121277  43.096  29.183   8.853
 6483POPC   GL221278  43.039  29.297   8.853
 6483POPC   C1A21279  43.073  29.164   8.553
 6483POPC   D2A21280  43.139  29.187   8.253
 6483POPC   C3A21281  43.128  29.181   7.953
 6483POPC   C4A21282  43.138  29.186   7.653
 6483POPC   C1B21283  42.942  29.333   8.553
 6483POPC   C2B21284  42.961  29.323   8.253
 6483POPC   C3B21285  42.987  29.352   7.953
 6483POPC   C4B21286  43.014  29.323   7.653
 6484POPC   NC321287   8.940  38.440   9.453
 6484POPC   PO421288   8.976  38.460   9.153
 6484POPC   GL121289   9.014  38.417   8.853
 6484POPC   GL221290   9.071  38.435   8.853
 6484POPC   C1A21291   8.925  38.444   8.553
 6484POPC   D2A21292   9.009  38.410   8.253
 6484POPC   C3A21293   8.957  38.415   7.953
 6484POPC   C4A21294   8.946  38.430   7.653
 6484POPC   C1B21295   9.214  38.530   8.553
 6484POPC   C2B21296   9.197  38.537   8.253
 6484POPC   C3B21297   9.205  38.464   7.953
 6484POPC   C4B21298   9.171  38.465   7.653
 6485POPC   NC321299   1.942  23.690   9.453
 6485POPC   PO421300   1.960  23.762   9.153
 6485POPC   GL121301   1.975  23.686   8.853
 6485POPC   GL221302   1.883  23.658   8.853
 6485POPC   C1A21303   1.997  23.761   8.553
 6485POPC   D2A21304   1.961  23.692   8.253
 6485POPC   C3A21305   1.972  23.696   7.953
 6485POPC   C4A21306   1.954  23.719   7.653
 6485POPC   C1B21307   1.825  23.543   8.553
 6485POPC   C2B21308   1.819  23.462   8.253
 6485POPC   C3B21309   1.825  23.535   7.953
 6485POPC   C4B21310   1.883  23.466   7.653
 6486POPC   NC321311  18.328  43.121   9.453
 6486POPC   PO421312  18.266  43.077   9.153
 6486POPC   GL121313  18.330  43.135   8.853
 6486POPC   GL221314  18.360  43.239   8.853
 6486POPC   C1A21315  18.265  43.146   8.553
 6486POPC   D2A21316  18.276  43.128   8.253
 6486POPC   C3A21317  18.307  43.079   7.953
 6486POPC   C4A21318  18.239  43.076   7.653
 6486POPC   C1B21319  18.387  43.375   8.553
 6486POPC   C2B21320  18.378  43.313   8.253
 6486POPC   C3B21321  18.317  43.368   7.953
 6486POPC   C4B21322  18.365  43.356   7.653
 6487POPC   NC321323  13.597  19.084   9.453
 6487POPC   PO421324  13.609  19.103   9.153
 6487POPC   GL121325  13.584  19.026   8.853
 6487POPC   GL221326  13.743  19.000   8.853
 6487POPC   C1A21327  13.651  19.108   8.553
 6487POPC   D2A21328  13.664  19.039   8.253
 6487POPC   C3A21329  13.657  19.022   7.953
 6487POPC   C4A21330  13.631  19.065   7.653
 6487POPC   C1B21331  13.881  18.961   8.553
 6487POPC   C2B21332  13.813  18.924   8.253
 6487POPC   C3B21333  13.790  18.966   7.953
 6487POPC   C4B21334  13.793  18.893   7.653
 6488POPC   NC321335  15.199  18.318   9.453
 6488POPC   PO421336  15.180  18.312   9.153
 6488POPC   GL121337  15.182  18.315   8.853
 6488POPC   GL221338  15.097  18.428   8.853
 6488POPC   C1A21339  15.199  18.285   8.553
 6488POPC   D2A21340  15.188  18.276   8.253
 6488POPC   C3A21341  15.153  18.256   7.953
 6488POPC   C4A21342  15.149  18.248   7.653
 6488POPC   C1B21343  15.082  18.450   8.553
 6488POPC   C2B21344  15.024  18.482   8.253
 6488POPC   C3B21345  15.084  18.548   7.953
 6488POPC   C4B21346  15.024  18.464   7.653
 6489POPC   NC321347  22.916  42.358   9.453
 6489POPC   PO421348  22.971  42.324   9.153
 6489POPC   GL121349  22.901  42.369   8.853
 6489POPC   GL221350  23.041  42.320   8.853
 6489POPC   C1A21351  22.908  42.307   8.553
 6489POPC   D2A21352  22.923  42.384   8.253
 6489POPC   C3A21353  22.914  42.367   7.953
 6489POPC   C4A21354  22.905  42.343   7.653
 6489POPC   C1B21355  23.204  42.368   8.553
 6489POPC   C2B21356  23.185  42.310   8.253
 6489POPC   C3B21357  23.224  42.311   7.953
 6489POPC   C4B21358  23.194  42.318   7.653
 6490POPC   NC321359   5.134   9.715   9.453
 6490POPC   PO421360   5.100   9.781   9.153
 6490POPC   GL121361   5.107   9.770   8.853
 6490POPC   GL221362   5.125   9.887   8.853
 6490POPC   C1A21363   5.101   9.778   8.553
 6490POPC   D2A21364   5.141   9.755   8.253
 6490POPC   C3A21365   5.120   9.755   7.953
 6490POPC   C4A21366   5.073   9.776   7.653
 6490POPC   C1B21367   5.148  10.037   8.553
 6490POPC   C2B21368   5.142  10.002   8.253
 6490POPC   C3B21369   5.119   9.954   7.953
 6490POPC   C4B21370   5.185   9.947   7.653
 6491POPC   NC321371  11.311  29.182   9.453
 6491POPC   PO421372  11.286  29.180   9.153
 6491POPC   GL121373  11.292  29.134   8.853
 6491POPC   GL221374  11.351  29.054   8.853
 6491POPC   C1A21375  11.340  29.120   8.553
 6491POPC   D2A21376  11.331  29.121   8.253
 6491POPC   C3A21377  11.294  29.132   7.953
 6491POPC   C4A21378  11.254  29.109   7.653
 6491POPC   C1B21379  11.366  28.910   8.553
 6491POPC   C2B21380  11.322  28.923   8.253
 6491POPC   C3B21381  11.297  28.888   7.953
 6491POPC   C4B21382  11.356  28.914   7.653
 6492POPC   NC321383   5.134  21.414   9.453
 6492POPC   PO421384   5.139  21.364   9.153
 6492POPC   GL121385   5.077  21.417   8.853
 6492POPC   GL221386   5.214  21.488   8.853
 6492POPC   C1A21387   5.059  21.387   8.553
 6492POPC   D2A21388   5.073  21.350   8.253
 6492POPC   C3A21389   5.073  21.351   7.953
 6492POPC   C4A21390   5.062  21.415   7.653
 6492POPC   C1B21391   5.306  21.550   8.553
 6492POPC   C2B21392   5.311  21.499   8.253
 6492POPC   C3B21393   5.273  21.564   7.953
 6492POPC   C4B21394   5.252  21.569   7.653
 6493POPC   NC321395  18.302  22.199   9.453
 6493POPC   PO421396  18.279  22.119   9.153
 6493POPC   GL121397  18.290  22.165   8.853
 6493POPC   GL221398  18.203  22.102   8.853
 6493POPC   C1A21399  18.255  22.146   8.553
 6493POPC   D2A21400  18.244  22.130   8.253
 6493POPC   C3A21401  18.317  22.133   7.953
 6493POPC   C4A21402  18.247  22.142   7.653
 6493POPC   C1B21403  18.070  22.139   8.553
 6493POPC   C2B21404  18.058  22.143   8.253
 6493POPC   C3B21405  18.065  22.126   7.953
 6493POPC   C4B21406  18.043  22.059   7.653
 6494POPC   NC321407  44.636  26.780   9.453
 6494POPC   PO421408  44.639  26.832   9.153
 6494POPC   GL121409  44.696  26.824   8.853
 6494POPC   GL221410  44.598  26.905   8.853
 6494POPC   C1A21411  44.709  26.809   8.553
 6494POPC   D2A21412  44.631  26.797   8.253
 6494POPC   C3A21413  44.662  26.852   7.953
 6494POPC   C4A21414  44.647  26.796   7.653
 6494POPC   C1B21415  44.627  27.021   8.553
 6494POPC   C2B21416  44.590  27.022   8.253
 6494POPC   C3B21417  44.630  27.057   7.953
 6494POPC   C4B21418  44.624  27.052   7.653
 6495POPC   NC321419   5.838  12.836   9.453
 6495POPC   PO421420   5.917  12.839   9.153
 6495POPC   GL121421   5.831  12.866   8.853
 6495POPC   GL221422   5.985  12.769   8.853
 6495POPC   C1A21423   5.904  12.821   8.553
 6495POPC   D2A21424   5.865  12.850   8.253
 6495POPC   C3A21425   5.911  12.832   7.953
 6495POPC   C4A21426   5.835  12.804   7.653
 6495POPC   C1B21427   6.013  12.703   8.553
 6495POPC   C2B21428   6.064  12.716   8.253
 6495POPC   C3B21429   6.071  12.635   7.953
 6495POPC   C4B21430   6.075  12.677   7.653
 6496POPC   NC321431   0.428  14.361   9.453
 6496POPC   PO421432   0.429  14.442   9.153
 6496POPC   GL121433   0.449  14.399   8.853
 6496POPC   GL221434   0.508  14.314   8.853
 6496POPC   C1A21435   0.412  14.376   8.553
 6496POPC   D2A21436   0.388  14.419   8.253
 6496POPC   C3A21437   0.480  14.366   7.953
 6496POPC   C4A21438   0.437  14.362   7.653
 6496POPC   C1B21439   0.529  14.231   8.553
 6496POPC   C2B21440   0.540  14.177   8.253
 6496POPC   C3B21441   0.573  14.146   7.953
 6496POPC   C4B21442   0.517  14.225   7.653
 6497POPC   NC321443  22.950  41.586   9.453
 6497POPC   PO421444  22.955  41.517   9.153
 6497POPC   GL121445  22.899  41.575   8.853
 6497POPC   GL221446  22.962  41.422   8.853
 6497POPC   C1A21447  22.889  41.524   8.553
 6497POPC   D2A21448  22.938  41.553   8.253
 6497POPC   C3A21449  22.920  41.541   7.953
 6497POPC   C4A21450  22.981  41.572   7.653
 6497POPC   C1B21451  22.962  41.327   8.553
 6497POPC   C2B21452  22.960  41.279   8.253
 6497POPC   C3B21453  22.966  41.348   7.953
 6497POPC   C4B21454  22.966  41.332   7.653
 6498POPC   NC321455  43.068   5.899   9.453
 6498POPC   PO421456  43.128   5.895   9.153
 6498POPC   GL121457  43.065   5.831   8.853
 6498POPC   GL221458  43.250   5.958   8.853
 6498POPC   C1A21459  43.068   5.857   8.553
 6498POPC   D2A21460  43.086   5.840   8.253
 6498POPC   C3A21461  43.071   5.893   7.953
 6498POPC   C4A21462  43.126   5.838   7.653
 6498POPC   C1B21463  43.302   6.039   8.553
 6498POPC   C2B21464  43.365   5.966   8.253
 6498POPC   C3B21465  43.303   5.958   7.953
 6498POPC   C4B21466  43.284   6.025   7.653
 6499POPC   NC321467   5.104   2.716   9.453
 6499POPC   PO421468   5.123   2.795   9.153
 6499POPC   GL121469   5.107   2.747   8.853
 6499POPC   GL221470   5.240   2.689   8.853
 6499POPC   C1A21471   5.105   2.815   8.553
 6499POPC   D2A21472   5.105   2.750   8.253
 6499POPC   C3A21473   5.113   2.812   7.953
 6499POPC   C4A21474   5.061   2.726   7.653
 6499POPC   C1B21475   5.341   2.592   8.553
 6499POPC   C2B21476   5.331   2.626   8.253
 6499POPC   C3B21477   5.292   2.686   7.953
 6499POPC   C4B21478   5.334   2.628   7.653
 6500POPC   NC321479  36.119  36.092   9.453
 6500POPC   PO421480  36.131  36.093   9.153
 6500POPC   GL121481  36.087  36.132   8.853
 6500POPC   GL221482  36.047  36.083   8.853
 6500POPC   C1A21483  36.118  36.096   8.553
 6500POPC   D2A21484  36.170  36.147   8.253
 6500POPC   C3A21485  36.150  36.132   7.953
 6500POPC   C4A21486  36.137  36.142   7.653
 6500POPC   C1B21487  35.932  36.068   8.553
 6500POPC   C2B21488  35.850  36.065   8.253
 6500POPC   C3B21489  35.854  36.079   7.953
 6500POPC   C4B21490  35.934  36.049   7.653
 6501POPC   NC321491  11.302   4.281   9.453
 6501POPC   PO421492  11.322   4.319   9.153
 6501POPC   GL121493  11.317   4.341   8.853
 6501POPC   GL221494  11.335   4.175   8.853
 6501POPC   C1A21495  11.265   4.365   8.553
 6501POPC   D2A21496  11.258   4.284   8.253
 6501POPC   C3A21497  11.303   4.283   7.953
 6501POPC   C4A21498  11.297   4.315   7.653
 6501POPC   C1B21499  11.381   4.059   8.553
 6501POPC   C2B21500  11.418   4.074   8.253
 6501POPC   C3B21501  11.403   4.078   7.953
 6501POPC   C4B21502  11.438   4.152   7.653
 6502POPC   NC321503  33.842  26.079   9.453
 6502POPC   PO421504  33.779  26.009   9.153
 6502POPC   GL121505  33.769  26.001   8.853
 6502POPC   GL221506  33.733  25.898   8.853
 6502POPC   C1A21507  33.754  26.080   8.553
 6502POPC   D2A21508  33.841  26.014   8.253
 6502POPC   C3A21509  33.842  26.024   7.953
 6502POPC   C4A21510  33.845  26.019   7.653
 6502POPC   C1B21511  33.677  25.788   8.553
 6502POPC   C2B21512  33.696  25.793   8.253
 6502POPC   C3B21513  33.691  25.860   7.953
 6502POPC   C4B21514  33.658  25.808   7.653
 6503POPC   NC321515   1.974  25.258   9.453
 6503POPC   PO421516   1.942  25.263   9.153
 6503POPC   GL121517   1.946  25.233   8.853
 6503POPC   GL221518   2.049  25.361   8.853
 6503POPC   C1A21519   1.999  25.278   8.553
 6503POPC   D2A21520   2.015  25.305   8.253
 6503POPC   C3A21521   1.994  25.311   7.953
 6503POPC   C4A21522   2.029  25.289   7.653
 6503POPC   C1B21523   2.034  25.531   8.553
 6503POPC   C2B21524   2.042  25.487   8.253
 6503POPC   C3B21525   1.976  25.564   7.953
 6503POPC   C4B21526   2.032  25.478   7.653
 6504POPC   NC321527  31.440  38.420   9.453
 6504POPC   PO421528  31.516  38.440   9.153
 6504POPC   GL121529  31.503  38.453   8.853
 6504POPC   GL221530  31.358  38.463   8.853
 6504POPC   C1A21531  31.469  38.480   8.553
 6504POPC   D2A21532  31.451  38.497   8.253
 6504POPC   C3A21533  31.465  38.413   7.953
 6504POPC   C4A21534  31.495  38.501   7.653
 6504POPC   C1B21535  31.211  38.457   8.553
 6504POPC   C2B21536  31.242  38.528   8.253
 6504POPC   C3B21537  31.217  38.492   7.953
 6504POPC   C4B21538  31.215  38.441   7.653
 6505POPC   NC321539  27.555  40.053   9.453
 6505POPC   PO421540  27.561  39.994   9.153
 6505POPC   GL121541  27.585  40.020   8.853
 6505POPC   GL221542  27.656  39.898   8.853
 6505POPC   C1A21543  27.549  40.027   8.553
 6505POPC   D2A21544  27.630  40.030   8.253
 6505POPC   C3A21545  27.573  40.029   7.953
 6505POPC   C4A21546  27.587  39.979   7.653
 6505POPC   C1B21547  27.672  39.747   8.553
 6505POPC   C2B21548  27.686  39.768   8.253
 6505POPC   C3B21549  27.690  39.775   7.953
 6505POPC   C4B21550  27.646  39.811   7.653
 6506POPC   NC321551  35.373  19.068   9.453
 6506POPC   PO421552  35.313  19.099   9.153
 6506POPC   GL121553  35.305  19.052   8.853
 6506POPC   GL221554  35.215  19.152   8.853
 6506POPC   C1A21555  35.339  19.026   8.553
 6506POPC   D2A21556  35.315  19.047   8.253
 6506POPC   C3A21557  35.397  19.089   7.953
 6506POPC   C4A21558  35.344  19.054   7.653
 6506POPC   C1B21559  35.127  19.225   8.553
 6506POPC   C2B21560  35.109  19.181   8.253
 6506POPC   C3B21561  35.179  19.223   7.953
 6506POPC   C4B21562  35.124  19.224   7.653
 6507POPC   NC321563  44.684  42.382   9.453
 6507POPC   PO421564  44.691  42.370   9.153
 6507POPC   GL121565  44.628  42.285   8.853
 6507POPC   GL221566  44.561  42.364   8.853
 6507POPC   C1A21567  44.662  42.322   8.553
 6507POPC   D2A21568  44.632  42.363   8.253
 6507POPC   C3A21569  44.614  42.292   7.953
 6507POPC   C4A21570  44.614  42.378   7.653
 6507POPC   C1B21571  44.445  42.358   8.553
 6507POPC   C2B21572  44.442  42.301   8.253
 6507POPC   C3B21573  44.437  42.331   7.953
 6507POPC   C4B21574  44.372  42.280   7.653
 6508POPC   NC321575  40.055  43.088   9.453
 6508POPC   PO421576  40.045  43.076   9.153
 6508POPC   GL121577  40.002  43.153   8.853
 6508POPC   GL221578  39.917  43.237   8.853
 6508POPC   C1A21579  40.004  43.139   8.553
 6508POPC   D2A21580  40.014  43.101   8.253
 6508POPC   C3A21581  40.047  43.081   7.953
 6508POPC   C4A21582  40.054  43.098   7.653
 6508POPC   C1B21583  39.972  43.348   8.553
 6508POPC   C2B21584  39.964  43.300   8.253
 6508POPC   C3B21585  39.966  43.361   7.953
 6508POPC   C4B21586  39.970  43.334   7.653
 6509POPC   NC321587  31.483  40.759   9.453
 6509POPC   PO421588  31.460  40.817   9.153
 6509POPC   GL121589  31.495  40.817   8.853
 6509POPC   GL221590  31.602  40.791   8.853
 6509POPC   C1A21591  31.461  40.736   8.553
 6509POPC   D2A21592  31.448  40.782   8.253
 6509POPC   C3A21593  31.454  40.804   7.953
 6509POPC   C4A21594  31.516  40.804   7.653
 6509POPC   C1B21595  31.765  40.759   8.553
 6509POPC   C2B21596  31.737  40.774   8.253
 6509POPC   C3B21597  31.717  40.817   7.953
 6509POPC   C4B21598  31.723  40.830   7.653
 6510POPC   NC321599  43.118  42.291   9.453
 6510POPC   PO421600  43.087  42.356   9.153
 6510POPC   GL121601  43.107  42.335   8.853
 6510POPC   GL221602  43.004  42.187   8.853
 6510POPC   C1A21603  43.122  42.361   8.553
 6510POPC   D2A21604  43.149  42.338   8.253
 6510POPC   C3A21605  43.087  42.307   7.953
 6510POPC   C4A21606  43.065  42.373   7.653
 6510POPC   C1B21607  43.019  42.094   8.553
 6510POPC   C2B21608  42.981  42.125   8.253
 6510POPC   C3B21609  42.976  42.098   7.953
 6510POPC   C4B21610  42.945  42.095   7.653
 6511POPC   NC321611  41.562  43.837   9.453
 6511POPC   PO421612  41.554  43.917   9.153
 6511POPC   GL121613  41.593  43.874   8.853
 6511POPC   GL221614  41.677  43.856   8.853
 6511POPC   C1A21615  41.579  43.889   8.553
 6511POPC   D2A21616  41.520  43.906   8.253
 6511POPC   C3A21617  41.525  43.898   7.953
 6511POPC   C4A21618  41.563  43.851   7.653
 6511POPC   C1B21619  41.848  43.885   8.553
 6511POPC   C2B21620  41.804  43.837   8.253
 6511POPC   C3B21621  41.811  43.829   7.953
 6511POPC   C4B21622  41.756  43.792   7.653
 6512POPC   NC321623  19.881   3.567   9.453
 6512POPC   PO421624  19.787   3.499   9.153
 6512POPC   GL121625  19.824   3.581   8.853
 6512POPC   GL221626  19.883   3.391   8.853
 6512POPC   C1A21627  19.872   3.557   8.553
 6512POPC   D2A21628  19.849   3.555   8.253
 6512POPC   C3A21629  19.822   3.498   7.953
 6512POPC   C4A21630  19.800   3.522   7.653
 6512POPC   C1B21631  19.874   3.248   8.553
 6512POPC   C2B21632  19.826   3.333   8.253
 6512POPC   C3B21633  19.894   3.275   7.953
 6512POPC   C4B21634  19.846   3.266   7.653
 6513POPC   NC321635   8.931   1.176   9.453
 6513POPC   PO421636   8.997   1.180   9.153
 6513POPC   GL121637   9.007   1.203   8.853
 6513POPC   GL221638   9.071   1.287   8.853
 6513POPC   C1A21639   8.957   1.184   8.553
 6513POPC   D2A21640   8.936   1.206   8.253
 6513POPC   C3A21641   8.991   1.212   7.953
 6513POPC   C4A21642   8.985   1.164   7.653
 6513POPC   C1B21643   9.101   1.418   8.553
 6513POPC   C2B21644   9.077   1.400   8.253
 6513POPC   C3B21645   9.157   1.472   7.953
 6513POPC   C4B21646   9.060   1.374   7.653
 6514POPC   NC321647  35.332   5.096   9.453
 6514POPC   PO421648  35.355   5.105   9.153
 6514POPC   GL121649  35.396   5.067   8.853
 6514POPC   GL221650  35.320   5.197   8.853
 6514POPC   C1A21651  35.339   5.095   8.553
 6514POPC   D2A21652  35.370   5.115   8.253
 6514POPC   C3A21653  35.373   5.089   7.953
 6514POPC   C4A21654  35.304   5.062   7.653
 6514POPC   C1B21655  35.282   5.349   8.553
 6514POPC   C2B21656  35.300   5.291   8.253
 6514POPC   C3B21657  35.319   5.374   7.953
 6514POPC   C4B21658  35.268   5.371   7.653
 6515POPC   NC321659   4.313   3.538   9.453
 6515POPC   PO421660   4.324   3.526   9.153
 6515POPC   GL121661   4.313   3.560   8.853
 6515POPC   GL221662   4.223   3.660   8.853
 6515POPC   C1A21663   4.323   3.524   8.553
 6515POPC   D2A21664   4.347   3.538   8.253
 6515POPC   C3A21665   4.350   3.538   7.953
 6515POPC   C4A21666   4.287   3.560   7.653
 6515POPC   C1B21667   4.201   3.760   8.553
 6515POPC   C2B21668   4.235   3.817   8.253
 6515POPC   C3B21669   4.186   3.804   7.953
 6515POPC   C4B21670   4.166   3.783   7.653
 6516POPC   NC321671  31.486   1.991   9.453
 6516POPC   PO421672  31.496   1.949   9.153
 6516POPC   GL121673  31.470   1.955   8.853
 6516POPC   GL221674  31.599   2.074   8.853
 6516POPC   C1A21675  31.461   2.007   8.553
 6516POPC   D2A21676  31.494   2.008   8.253
 6516POPC   C3A21677  31.441   1.963   7.953
 6516POPC   C4A21678  31.427   1.955   7.653
 6516POPC   C1B21679  31.701   2.025   8.553
 6516POPC   C2B21680  31.732   2.071   8.253
 6516POPC   C3B21681  31.747   2.026   7.953
 6516POPC   C4B21682  31.743   2.028   7.653
 6517POPC   NC321683   5.852  39.195   9.453
 6517POPC   PO421684   5.864  39.260   9.153
 6517POPC   GL121685   5.860  39.201   8.853
 6517POPC   GL221686   5.964  39.166   8.853
 6517POPC   C1A21687   5.830  39.182   8.553
 6517POPC   D2A21688   5.883  39.268   8.253
 6517POPC   C3A21689   5.907  39.261   7.953
 6517POPC   C4A21690   5.885  39.215   7.653
 6517POPC   C1B21691   6.055  39.008   8.553
 6517POPC   C2B21692   5.973  39.022   8.253
 6517POPC   C3B21693   6.047  39.080   7.953
 6517POPC   C4B21694   5.996  39.028   7.653
 6518POPC   NC321695  29.140  14.390   9.453
 6518POPC   PO421696  29.164  14.438   9.153
 6518POPC   GL121697  29.134  14.358   8.853
 6518POPC   GL221698  28.985  14.346   8.853
 6518POPC   C1A21699  29.102  14.445   8.553
 6518POPC   D2A21700  29.162  14.419   8.253
 6518POPC   C3A21701  29.134  14.404   7.953
 6518POPC   C4A21702  29.172  14.388   7.653
 6518POPC   C1B21703  28.856  14.401   8.553
 6518POPC   C2B21704  28.874  14.401   8.253
 6518POPC   C3B21705  28.905  14.328   7.953
 6518POPC   C4B21706  28.911  14.381   7.653
 6519POPC   NC321707  18.296  44.712   9.453
 6519POPC   PO421708  18.268  44.691   9.153
 6519POPC   GL121709  18.263  44.673   8.853
 6519POPC   GL221710  18.388  44.629   8.853
 6519POPC   C1A21711  18.244  44.687   8.553
 6519POPC   D2A21712  18.314  44.705   8.253
 6519POPC   C3A21713  18.271  44.698   7.953
 6519POPC   C4A21714  18.270  44.642   7.653
 6519POPC   C1B21715  18.505  44.512   8.553
 6519POPC   C2B21716  18.477  44.541   8.253
 6519POPC   C3B21717  18.459  44.562   7.953
 6519POPC   C4B21718  18.468  44.545   7.653
 6520POPC   NC321719  31.455  27.640   9.453
 6520POPC   PO421720  31.495  27.569   9.153
 6520POPC   GL121721  31.472  27.591   8.853
 6520POPC   GL221722  31.607  27.538   8.853
 6520POPC   C1A21723  31.452  27.562   8.553
 6520POPC   D2A21724  31.433  27.591   8.253
 6520POPC   C3A21725  31.431  27.582   7.953
 6520POPC   C4A21726  31.464  27.580   7.653
 6520POPC   C1B21727  31.724  27.554   8.553
 6520POPC   C2B21728  31.738  27.560   8.253
 6520POPC   C3B21729  31.698  27.600   7.953
 6520POPC   C4B21730  31.712  27.582   7.653
 6521POPC   NC321731   8.980  34.549   9.453
 6521POPC   PO421732   9.015  34.552   9.153
 6521POPC   GL121733   8.981  34.541   8.853
 6521POPC   GL221734   9.038  34.484   8.853
 6521POPC   C1A21735   9.019  34.531   8.553
 6521POPC   D2A21736   9.011  34.556   8.253
 6521POPC   C3A21737   9.021  34.618   7.953
 6521POPC   C4A21738   8.972  34.539   7.653
 6521POPC   C1B21739   9.130  34.405   8.553
 6521POPC   C2B21740   9.126  34.386   8.253
 6521POPC   C3B21741   9.094  34.401   7.953
 6521POPC   C4B21742   9.085  34.405   7.653
 6522POPC   NC321743  25.227  15.184   9.453
 6522POPC   PO421744  25.250  15.155   9.153
 6522POPC   GL121745  25.238  15.218   8.853
 6522POPC   GL221746  25.204  15.257   8.853
 6522POPC   C1A21747  25.219  15.133   8.553
 6522POPC   D2A21748  25.271  15.169   8.253
 6522POPC   C3A21749  25.277  15.206   7.953
 6522POPC   C4A21750  25.252  15.164   7.653
 6522POPC   C1B21751  25.199  15.460   8.553
 6522POPC   C2B21752  25.174  15.469   8.253
 6522POPC   C3B21753  25.224  15.410   7.953
 6522POPC   C4B21754  25.205  15.374   7.653
 6523POPC   NC321755   1.206  14.354   9.453
 6523POPC   PO421756   1.218  14.382   9.153
 6523POPC   GL121757   1.166  14.393   8.853
 6523POPC   GL221758   1.089  14.416   8.853
 6523POPC   C1A21759   1.173  14.418   8.553
 6523POPC   D2A21760   1.223  14.392   8.253
 6523POPC   C3A21761   1.172  14.360   7.953
 6523POPC   C4A21762   1.255  14.398   7.653
 6523POPC   C1B21763   1.016  14.440   8.553
 6523POPC   C2B21764   0.952  14.425   8.253
 6523POPC   C3B21765   0.990  14.497   7.953
 6523POPC   C4B21766   0.936  14.432   7.653
 6524POPC   NC321767  12.083   1.952   9.453
 6524POPC   PO421768  12.073   1.945   9.153
 6524POPC   GL121769  12.122   2.037   8.853
 6524POPC   GL221770  12.035   2.109   8.853
 6524POPC   C1A21771  12.070   1.965   8.553
 6524POPC   D2A21772  12.102   1.967   8.253
 6524POPC   C3A21773  12.060   2.026   7.953
 6524POPC   C4A21774  12.107   2.006   7.653
 6524POPC   C1B21775  11.948   2.211   8.553
 6524POPC   C2B21776  11.938   2.172   8.253
 6524POPC   C3B21777  11.922   2.225   7.953
 6524POPC   C4B21778  11.962   2.187   7.653
 6525POPC   NC321779  11.266  26.010   9.453
 6525POPC   PO421780  11.302  26.061   9.153
 6525POPC   GL121781  11.260  26.058   8.853
 6525POPC   GL221782  11.317  26.166   8.853
 6525POPC   C1A21783  11.339  26.051   8.553
 6525POPC   D2A21784  11.256  26.053   8.253
 6525POPC   C3A21785  11.326  26.035   7.953
 6525POPC   C4A21786  11.266  26.082   7.653
 6525POPC   C1B21787  11.255  26.338   8.553
 6525POPC   C2B21788  11.280  26.281   8.253
 6525POPC   C3B21789  11.282  26.307   7.953
 6525POPC   C4B21790  11.266  26.335   7.653
 6526POPC   NC321791  16.681   9.768   9.453
 6526POPC   PO421792  16.694   9.728   9.153
 6526POPC   GL121793  16.712   9.767   8.853
 6526POPC   GL221794  16.881   9.660   8.853
 6526POPC   C1A21795  16.694   9.706   8.553
 6526POPC   D2A21796  16.729   9.766   8.253
 6526POPC   C3A21797  16.724   9.756   7.953
 6526POPC   C4A21798  16.728   9.729   7.653
 6526POPC   C1B21799  16.976   9.617   8.553
 6526POPC   C2B21800  16.912   9.635   8.253
 6526POPC   C3B21801  16.992   9.641   7.953
 6526POPC   C4B21802  16.996   9.602   7.653
 6527POPC   NC321803   8.929  23.741   9.453
 6527POPC   PO421804   8.938  23.695   9.153
 6527POPC   GL121805   8.929  23.665   8.853
 6527POPC   GL221806   8.935  23.607   8.853
 6527POPC   C1A21807   8.993  23.703   8.553
 6527POPC   D2A21808   9.005  23.685   8.253
 6527POPC   C3A21809   9.013  23.681   7.953
 6527POPC   C4A21810   9.014  23.700   7.653
 6527POPC   C1B21811   8.924  23.486   8.553
 6527POPC   C2B21812   8.972  23.480   8.253
 6527POPC   C3B21813   8.913  23.507   7.953
 6527POPC   C4B21814   8.944  23.489   7.653
 6528POPC   NC321815  31.465  41.560   9.453
 6528POPC   PO421816  31.439  41.513   9.153
 6528POPC   GL121817  31.445  41.590   8.853
 6528POPC   GL221818  31.339  41.609   8.853
 6528POPC   C1A21819  31.482  41.527   8.553
 6528POPC   D2A21820  31.503  41.600   8.253
 6528POPC   C3A21821  31.518  41.540   7.953
 6528POPC   C4A21822  31.498  41.547   7.653
 6528POPC   C1B21823  31.294  41.687   8.553
 6528POPC   C2B21824  31.249  41.693   8.253
 6528POPC   C3B21825  31.259  41.708   7.953
 6528POPC   C4B21826  31.308  41.720   7.653
 6529POPC   NC321827   1.204  37.639   9.453
 6529POPC   PO421828   1.225  37.679   9.153
 6529POPC   GL121829   1.228  37.683   8.853
 6529POPC   GL221830   1.141  37.516   8.853
 6529POPC   C1A21831   1.173  37.663   8.553
 6529POPC   D2A21832   1.264  37.685   8.253
 6529POPC   C3A21833   1.171  37.695   7.953
 6529POPC   C4A21834   1.241  37.644   7.653
 6529POPC   C1B21835   1.115  37.466   8.553
 6529POPC   C2B21836   1.108  37.391   8.253
 6529POPC   C3B21837   1.182  37.431   7.953
 6529POPC   C4B21838   1.196  37.482   7.653
 6530POPC   NC321839  39.984  36.947   9.453
 6530POPC   PO421840  40.026  36.876   9.153
 6530POPC   GL121841  39.980  36.872   8.853
 6530POPC   GL221842  40.170  36.876   8.853
 6530POPC   C1A21843  39.994  36.913   8.553
 6530POPC   D2A21844  39.965  36.927   8.253
 6530POPC   C3A21845  39.958  36.925   7.953
 6530POPC   C4A21846  40.048  36.875   7.653
 6530POPC   C1B21847  40.230  36.861   8.553
 6530POPC   C2B21848  40.210  36.808   8.253
 6530POPC   C3B21849  40.243  36.844   7.953
 6530POPC   C4B21850  40.257  36.869   7.653
 6531POPC   NC321851  26.790  29.910   9.453
 6531POPC   PO421852  26.816  29.968   9.153
 6531POPC   GL121853  26.852  29.948   8.853
 6531POPC   GL221854  26.659  30.003   8.853
 6531POPC   C1A21855  26.849  29.902   8.553
 6531POPC   D2A21856  26.850  29.893   8.253
 6531POPC   C3A21857  26.843  29.902   7.953
 6531POPC   C4A21858  26.847  29.923   7.653
 6531POPC   C1B21859  26.645  29.993   8.553
 6531POPC   C2B21860  26.635  30.069   8.253
 6531POPC   C3B21861  26.572  30.015   7.953
 6531POPC   C4B21862  26.626  30.012   7.653
 6532POPC   NC321863   3.551  34.609   9.453
 6532POPC   PO421864   3.495  34.616   9.153
 6532POPC   GL121865   3.587  34.619   8.853
 6532POPC   GL221866   3.465  34.556   8.853
 6532POPC   C1A21867   3.584  34.589   8.553
 6532POPC   D2A21868   3.576  34.534   8.253
 6532POPC   C3A21869   3.522  34.607   7.953
 6532POPC   C4A21870   3.557  34.550   7.653
 6532POPC   C1B21871   3.349  34.434   8.553
 6532POPC   C2B21872   3.285  34.394   8.253
 6532POPC   C3B21873   3.303  34.466   7.953
 6532POPC   C4B21874   3.311  34.488   7.653
 6533POPC   NC321875  35.305   8.929   9.453
 6533POPC   PO421876  35.352   8.927   9.153
 6533POPC   GL121877  35.320   8.978   8.853
 6533POPC   GL221878  35.295   9.002   8.853
 6533POPC   C1A21879  35.382   8.981   8.553
 6533POPC   D2A21880  35.359   8.949   8.253
 6533POPC   C3A21881  35.390   8.962   7.953
 6533POPC   C4A21882  35.370   8.989   7.653
 6533POPC   C1B21883  35.145   9.148   8.553
 6533POPC   C2B21884  35.130   9.148   8.253
 6533POPC   C3B21885  35.146   9.117   7.953
 6533POPC   C4B21886  35.190   9.147   7.653
 6534POPC   NC321887  19.836  43.875   9.453
 6534POPC   PO421888  19.856  43.891   9.153
 6534POPC   GL121889  19.816  43.903   8.853
 6534POPC   GL221890  19.882  43.764   8.853
 6534POPC   C1A21891  19.874  43.901   8.553
 6534POPC   D2A21892  19.864  43.912   8.253
 6534POPC   C3A21893  19.817  43.872   7.953
 6534POPC   C4A21894  19.883  43.894   7.653
 6534POPC   C1B21895  19.991  43.692   8.553
 6534POPC   C2B21896  19.930  43.661   8.253
 6534POPC   C3B21897  19.964  43.693   7.953
 6534POPC   C4B21898  19.998  43.693   7.653
 6535POPC   NC321899  15.133  35.390   9.453
 6535POPC   PO421900  15.212  35.324   9.153
 6535POPC   GL121901  15.132  35.318   8.853
 6535POPC   GL221902  15.252  35.483   8.853
 6535POPC   C1A21903  15.129  35.318   8.553
 6535POPC   D2A21904  15.192  35.304   8.253
 6535POPC   C3A21905  15.145  35.303   7.953
 6535POPC   C4A21906  15.147  35.359   7.653
 6535POPC   C1B21907  15.290  35.525   8.553
 6535POPC   C2B21908  15.307  35.582   8.253
 6535POPC   C3B21909  15.327  35.526   7.953
 6535POPC   C4B21910  15.283  35.595   7.653
 6536POPC   NC321911  23.700  35.348   9.453
 6536POPC   PO421912  23.682  35.348   9.153
 6536POPC   GL121913  23.737  35.312   8.853
 6536POPC   GL221914  23.777  35.257   8.853
 6536POPC   C1A21915  23.720  35.384   8.553
 6536POPC   D2A21916  23.755  35.397   8.253
 6536POPC   C3A21917  23.668  35.371   7.953
 6536POPC   C4A21918  23.762  35.341   7.653
 6536POPC   C1B21919  23.758  35.110   8.553
 6536POPC   C2B21920  23.790  35.097   8.253
 6536POPC   C3B21921  23.723  35.056   7.953
 6536POPC   C4B21922  23.715  35.106   7.653
 6537POPC   NC321923  13.637   8.226   9.453
 6537POPC   PO421924  13.662   8.246   9.153
 6537POPC   GL121925  13.645   8.168   8.853
 6537POPC   GL221926  13.604   8.033   8.853
 6537POPC   C1A21927  13.656   8.213   8.553
 6537POPC   D2A21928  13.628   8.200   8.253
 6537POPC   C3A21929  13.637   8.185   7.953
 6537POPC   C4A21930  13.611   8.157   7.653
 6537POPC   C1B21931  13.525   7.964   8.553
 6537POPC   C2B21932  13.554   7.981   8.253
 6537POPC   C3B21933  13.547   7.984   7.953
 6537POPC   C4B21934  13.509   7.927   7.653
 6538POPC   NC321935  20.619  35.325   9.453
 6538POPC   PO421936  20.580  35.388   9.153
 6538POPC   GL121937  20.598  35.344   8.853
 6538POPC   GL221938  20.592  35.450   8.853
 6538POPC   C1A21939  20.615  35.357   8.553
 6538POPC   D2A21940  20.649  35.385   8.253
 6538POPC   C3A21941  20.598  35.325   7.953
 6538POPC   C4A21942  20.640  35.376   7.653
 6538POPC   C1B21943  20.669  35.610   8.553
 6538POPC   C2B21944  20.624  35.637   8.253
 6538POPC   C3B21945  20.645  35.638   7.953
 6538POPC   C4B21946  20.614  35.602   7.653
 6539POPC   NC321947  43.121  17.464   9.453
 6539POPC   PO421948  43.124  17.550   9.153
 6539POPC   GL121949  43.123  17.517   8.853
 6539POPC   GL221950  43.170  17.624   8.853
 6539POPC   C1A21951  43.141  17.461   8.553
 6539POPC   D2A21952  43.140  17.528   8.253
 6539POPC   C3A21953  43.077  17.511   7.953
 6539POPC   C4A21954  43.088  17.534   7.653
 6539POPC   C1B21955  43.365  17.687   8.553
 6539POPC   C2B21956  43.317  17.692   8.253
 6539POPC   C3B21957  43.341  17.600   7.953
 6539POPC   C4B21958  43.274  17.623   7.653
 6540POPC   NC321959  21.397  11.291   9.453
 6540POPC   PO421960  21.362  11.256   9.153
 6540POPC   GL121961  21.399  11.320   8.853
 6540POPC   GL221962  21.488  11.155   8.853
 6540POPC   C1A21963  21.347  11.330   8.553
 6540POPC   D2A21964  21.338  11.286   8.253
 6540POPC   C3A21965  21.382  11.289   7.953
 6540POPC   C4A21966  21.337  11.285   7.653
 6540POPC   C1B21967  21.487  11.044   8.553
 6540POPC   C2B21968  21.494  11.140   8.253
 6540POPC   C3B21969  21.551  11.058   7.953
 6540POPC   C4B21970  21.525  11.086   7.653
 6541POPC   NC321971   0.391  33.796   9.453
 6541POPC   PO421972   0.462  33.758   9.153
 6541POPC   GL121973   0.400  33.799   8.853
 6541POPC   GL221974   0.574  33.766   8.853
 6541POPC   C1A21975   0.408  33.779   8.553
 6541POPC   D2A21976   0.479  33.781   8.253
 6541POPC   C3A21977   0.434  33.781   7.953
 6541POPC   C4A21978   0.429  33.794   7.653
 6541POPC   C1B21979   0.643  33.641   8.553
 6541POPC   C2B21980   0.656  33.729   8.253
 6541POPC   C3B21981   0.664  33.685   7.953
 6541POPC   C4B21982   0.610  33.651   7.653
 6542POPC   NC321983  14.393   6.647   9.453
 6542POPC   PO421984  14.428   6.682   9.153
 6542POPC   GL121985  14.453   6.612   8.853
 6542POPC   GL221986  14.384   6.789   8.853
 6542POPC   C1A21987  14.404   6.640   8.553
 6542POPC   D2A21988  14.449   6.684   8.253
 6542POPC   C3A21989  14.377   6.635   7.953
 6542POPC   C4A21990  14.452   6.617   7.653
 6542POPC   C1B21991  14.295   6.905   8.553
 6542POPC   C2B21992  14.266   6.827   8.253
 6542POPC   C3B21993  14.264   6.853   7.953
 6542POPC   C4B21994  14.325   6.889   7.653
 6543POPC   NC321995  19.819   5.824   9.453
 6543POPC   PO421996  19.796   5.895   9.153
 6543POPC   GL121997  19.836   5.893   8.853
 6543POPC   GL221998  19.957   5.975   8.853
 6543POPC   C1A21999  19.851   5.832   8.553
 6543POPC   D2A22000  19.824   5.869   8.253
 6543POPC   C3A22001  19.799   5.860   7.953
 6543POPC   C4A22002  19.874   5.878   7.653
 6543POPC   C1B22003  20.017   6.007   8.553
 6543POPC   C2B22004  20.088   5.993   8.253
 6543POPC   C3B22005  20.013   5.980   7.953
 6543POPC   C4B22006  20.036   5.986   7.653
 6544POPC   NC322007   4.313  25.269   9.453
 6544POPC   PO422008   4.275  25.231   9.153
 6544POPC   GL122009   4.279  25.302   8.853
 6544POPC   GL222010   4.408  25.148   8.853
 6544POPC   C1A22011   4.328  25.313   8.553
 6544POPC   D2A22012   4.272  25.264   8.253
 6544POPC   C3A22013   4.293  25.224   7.953
 6544POPC   C4A22014   4.292  25.309   7.653
 6544POPC   C1B22015   4.533  25.120   8.553
 6544POPC   C2B22016   4.546  25.124   8.253
 6544POPC   C3B22017   4.498  25.132   7.953
 6544POPC   C4B22018   4.479  25.086   7.653
 6545POPC   NC322019  15.162  42.334   9.453
 6545POPC   PO422020  15.147  42.344   9.153
 6545POPC   GL122021  15.181  42.336   8.853
 6545POPC   GL222022  15.123  42.253   8.853
 6545POPC   C1A22023  15.228  42.318   8.553
 6545POPC   D2A22024  15.213  42.347   8.253
 6545POPC   C3A22025  15.164  42.372   7.953
 6545POPC   C4A22026  15.224  42.301   7.653
 6545POPC   C1B22027  14.999  42.150   8.553
 6545POPC   C2B22028  15.019  42.223   8.253
 6545POPC   C3B22029  15.001  42.142   7.953
 6545POPC   C4B22030  14.937  42.136   7.653
 6546POPC   NC322031  30.702  13.590   9.453
 6546POPC   PO422032  30.742  13.586   9.153
 6546POPC   GL122033  30.706  13.657   8.853
 6546POPC   GL222034  30.782  13.737   8.853
 6546POPC   C1A22035  30.708  13.649   8.553
 6546POPC   D2A22036  30.689  13.662   8.253
 6546POPC   C3A22037  30.657  13.614   7.953
 6546POPC   C4A22038  30.701  13.589   7.653
 6546POPC   C1B22039  30.802  13.815   8.553
 6546POPC   C2B22040  30.808  13.889   8.253
 6546POPC   C3B22041  30.820  13.848   7.953
 6546POPC   C4B22042  30.839  13.843   7.653
 6547POPC   NC322043  29.937   1.983   9.453
 6547POPC   PO422044  29.952   1.951   9.153
 6547POPC   GL122045  29.956   2.022   8.853
 6547POPC   GL222046  30.049   2.007   8.853
 6547POPC   C1A22047  29.878   2.031   8.553
 6547POPC   D2A22048  29.880   1.995   8.253
 6547POPC   C3A22049  29.901   1.972   7.953
 6547POPC   C4A22050  29.940   1.990   7.653
 6547POPC   C1B22051  30.205   1.922   8.553
 6547POPC   C2B22052  30.212   1.952   8.253
 6547POPC   C3B22053  30.117   1.934   7.953
 6547POPC   C4B22054  30.168   1.961   7.653
 6548POPC   NC322055   7.417  32.278   9.453
 6548POPC   PO422056   7.420  32.289   9.153
 6548POPC   GL122057   7.388  32.214   8.853
 6548POPC   GL222058   7.372  32.377   8.853
 6548POPC   C1A22059   7.377  32.202   8.553
 6548POPC   D2A22060   7.419  32.287   8.253
 6548POPC   C3A22061   7.450  32.201   7.953
 6548POPC   C4A22062   7.464  32.203   7.653
 6548POPC   C1B22063   7.364  32.502   8.553
 6548POPC   C2B22064   7.429  32.523   8.253
 6548POPC   C3B22065   7.354  32.516   7.953
 6548POPC   C4B22066   7.368  32.459   7.653
 6549POPC   NC322067  26.864  13.646   9.453
 6549POPC   PO422068  26.815  13.618   9.153
 6549POPC   GL122069  26.769  13.643   8.853
 6549POPC   GL222070  26.955  13.618   8.853
 6549POPC   C1A22071  26.776  13.585   8.553
 6549POPC   D2A22072  26.806  13.604   8.253
 6549POPC   C3A22073  26.819  13.662   7.953
 6549POPC   C4A22074  26.814  13.637   7.653
 6549POPC   C1B22075  27.024  13.534   8.553
 6549POPC   C2B22076  27.074  13.570   8.253
 6549POPC   C3B22077  27.028  13.516   7.953
 6549POPC   C4B22078  27.083  13.539   7.653
 6550POPC   NC322079   1.236  32.978   9.453
 6550POPC   PO422080   1.254  33.066   9.153
 6550POPC   GL122081   1.238  33.017   8.853
 6550POPC   GL222082   1.123  32.958   8.853
 6550POPC   C1A22083   1.195  33.074   8.553
 6550POPC   D2A22084   1.178  32.976   8.253
 6550POPC   C3A22085   1.219  33.020   7.953
 6550POPC   C4A22086   1.263  32.985   7.653
 6550POPC   C1B22087   0.968  33.035   8.553
 6550POPC   C2B22088   0.998  33.028   8.253
 6550POPC   C3B22089   1.008  32.970   7.953
 6550POPC   C4B22090   0.992  33.017   7.653
 6551POPC   NC322091  12.071  19.830   9.453
 6551POPC   PO422092  12.056  19.871   9.153
 6551POPC   GL122093  12.075  19.845   8.853
 6551POPC   GL222094  11.944  19.764   8.853
 6551POPC   C1A22095  12.071  19.851   8.553
 6551POPC   D2A22096  12.103  19.823   8.253
 6551POPC   C3A22097  12.111  19.844   7.953
 6551POPC   C4A22098  12.119  19.862   7.653
 6551POPC   C1B22099  11.897  19.699   8.553
 6551POPC   C2B22100  11.881  19.685   8.253
 6551POPC   C3B22101  11.930  19.702   7.953
 6551POPC   C4B22102  11.843  19.648   7.653
 6552POPC   NC322103  22.915   3.565   9.453
 6552POPC   PO422104  22.941   3.542   9.153
 6552POPC   GL122105  22.973   3.565   8.853
 6552POPC   GL222106  22.825   3.507   8.853
 6552POPC   C1A22107  22.911   3.524   8.553
 6552POPC   D2A22108  22.936   3.536   8.253
 6552POPC   C3A22109  22.942   3.522   7.953
 6552POPC   C4A22110  22.954   3.526   7.653
 6552POPC   C1B22111  22.677   3.532   8.553
 6552POPC   C2B22112  22.654   3.536   8.253
 6552POPC   C3B22113  22.653   3.490   7.953
 6552POPC   C4B22114  22.675   3.540   7.653
 6553POPC   NC322115  40.826   1.236   9.453
 6553POPC   PO422116  40.800   1.189   9.153
 6553POPC   GL122117  40.765   1.239   8.853
 6553POPC   GL222118  40.871   1.206   8.853
 6553POPC   C1A22119  40.800   1.224   8.553
 6553POPC   D2A22120  40.752   1.259   8.253
 6553POPC   C3A22121  40.785   1.236   7.953
 6553POPC   C4A22122  40.784   1.245   7.653
 6553POPC   C1B22123  41.018   1.160   8.553
 6553POPC   C2B22124  40.972   1.147   8.253
 6553POPC   C3B22125  40.997   1.162   7.953
 6553POPC   C4B22126  40.998   1.126   7.653
 6554POPC   NC322127  19.793   8.209   9.453
 6554POPC   PO422128  19.879   8.221   9.153
 6554POPC   GL122129  19.802   8.179   8.853
 6554POPC   GL222130  19.751   8.244   8.853
 6554POPC   C1A22131  19.816   8.175   8.553
 6554POPC   D2A22132  19.831   8.231   8.253
 6554POPC   C3A22133  19.859   8.227   7.953
 6554POPC   C4A22134  19.867   8.173   7.653
 6554POPC   C1B22135  19.600   8.225   8.553
 6554POPC   C2B22136  19.543   8.287   8.253
 6554POPC   C3B22137  19.559   8.293   7.953
 6554POPC   C4B22138  19.556   8.209   7.653
 6555POPC   NC322139  26.053  29.905   9.453
 6555POPC   PO422140  26.077  29.923   9.153
 6555POPC   GL122141  26.077  29.899   8.853
 6555POPC   GL222142  26.028  30.085   8.853
 6555POPC   C1A22143  26.055  29.937   8.553
 6555POPC   D2A22144  26.002  29.921   8.253
 6555POPC   C3A22145  25.996  29.931   7.953
 6555POPC   C4A22146  26.006  29.885   7.653
 6555POPC   C1B22147  26.009  30.193   8.553
 6555POPC   C2B22148  26.043  30.208   8.253
 6555POPC   C3B22149  26.057  30.133   7.953
 6555POPC   C4B22150  26.057  30.211   7.653
 6556POPC   NC322151  29.121  20.652   9.453
 6556POPC   PO422152  29.113  20.652   9.153
 6556POPC   GL122153  29.107  20.573   8.853
 6556POPC   GL222154  29.218  20.609   8.853
 6556POPC   C1A22155  29.160  20.566   8.553
 6556POPC   D2A22156  29.170  20.644   8.253
 6556POPC   C3A22157  29.190  20.653   7.953
 6556POPC   C4A22158  29.106  20.610   7.653
 6556POPC   C1B22159  29.354  20.543   8.553
 6556POPC   C2B22160  29.360  20.516   8.253
 6556POPC   C3B22161  29.374  20.561   7.953
 6556POPC   C4B22162  29.338  20.515   7.653
 6557POPC   NC322163   5.831  43.134   9.453
 6557POPC   PO422164   5.833  43.067   9.153
 6557POPC   GL122165   5.864  43.143   8.853
 6557POPC   GL222166   5.911  43.064   8.853
 6557POPC   C1A22167   5.915  43.146   8.553
 6557POPC   D2A22168   5.839  43.121   8.253
 6557POPC   C3A22169   5.915  43.098   7.953
 6557POPC   C4A22170   5.856  43.075   7.653
 6557POPC   C1B22171   6.064  42.935   8.553
 6557POPC   C2B22172   6.084  42.944   8.253
 6557POPC   C3B22173   6.028  42.893   7.953
 6557POPC   C4B22174   6.035  42.894   7.653
 6558POPC   NC322175   3.496  10.481   9.453
 6558POPC   PO422176   3.497  10.496   9.153
 6558POPC   GL122177   3.540  10.521   8.853
 6558POPC   GL222178   3.665  10.527   8.853
 6558POPC   C1A22179   3.575  10.553   8.553
 6558POPC   D2A22180   3.566  10.511   8.253
 6558POPC   C3A22181   3.583  10.572   7.953
 6558POPC   C4A22182   3.528  10.539   7.653
 6558POPC   C1B22183   3.770  10.620   8.553
 6558POPC   C2B22184   3.761  10.575   8.253
 6558POPC   C3B22185   3.829  10.621   7.953
 6558POPC   C4B22186   3.768  10.617   7.653
 6559POPC   NC322187  34.576  21.415   9.453
 6559POPC   PO422188  34.620  21.430   9.153
 6559POPC   GL122189  34.542  21.434   8.853
 6559POPC   GL222190  34.618  21.541   8.853
 6559POPC   C1A22191  34.585  21.372   8.553
 6559POPC   D2A22192  34.569  21.381   8.253
 6559POPC   C3A22193  34.581  21.350   7.953
 6559POPC   C4A22194  34.531  21.343   7.653
 6559POPC   C1B22195  34.586  21.680   8.553
 6559POPC   C2B22196  34.616  21.601   8.253
 6559POPC   C3B22197  34.576  21.671   7.953
 6559POPC   C4B22198  34.633  21.666   7.653
 6560POPC   NC322199   9.775   2.753   9.453
 6560POPC   PO422200   9.794   2.719   9.153
 6560POPC   GL122201   9.718   2.719   8.853
 6560POPC   GL222202   9.674   2.741   8.853
 6560POPC   C1A22203   9.700   2.756   8.553
 6560POPC   D2A22204   9.781   2.756   8.253
 6560POPC   C3A22205   9.752   2.734   7.953
 6560POPC   C4A22206   9.761   2.798   7.653
 6560POPC   C1B22207   9.494   2.724   8.553
 6560POPC   C2B22208   9.459   2.659   8.253
 6560POPC   C3B22209   9.507   2.671   7.953
 6560POPC   C4B22210   9.533   2.686   7.653
 6561POPC   NC322211  30.678  29.139   9.453
 6561POPC   PO422212  30.741  29.104   9.153
 6561POPC   GL122213  30.725  29.173   8.853
 6561POPC   GL222214  30.812  29.109   8.853
 6561POPC   C1A22215  30.746  29.097   8.553
 6561POPC   D2A22216  30.705  29.135   8.253
 6561POPC   C3A22217  30.657  29.145   7.953
 6561POPC   C4A22218  30.703  29.139   7.653
 6561POPC   C1B22219  30.918  29.044   8.553
 6561POPC   C2B22220  30.921  29.013   8.253
 6561POPC   C3B22221  30.953  29.054   7.953
 6561POPC   C4B22222  30.963  29.049   7.653
 6562POPC   NC322223  15.996  28.347   9.453
 6562POPC   PO422224  15.945  28.353   9.153
 6562POPC   GL122225  15.977  28.365   8.853
 6562POPC   GL222226  16.047  28.485   8.853
 6562POPC   C1A22227  15.993  28.337   8.553
 6562POPC   D2A22228  15.949  28.398   8.253
 6562POPC   C3A22229  15.977  28.358   7.953
 6562POPC   C4A22230  15.965  28.379   7.653
 6562POPC   C1B22231  16.126  28.538   8.553
 6562POPC   C2B22232  16.121  28.547   8.253
 6562POPC   C3B22233  16.160  28.474   7.953
 6562POPC   C4B22234  16.121  28.475   7.653
 6563POPC   NC322235   5.877  34.611   9.453
 6563POPC   PO422236   5.875  34.567   9.153
 6563POPC   GL122237   5.823  34.582   8.853
 6563POPC   GL222238   5.729  34.568   8.853
 6563POPC   C1A22239   5.829  34.592   8.553
 6563POPC   D2A22240   5.836  34.572   8.253
 6563POPC   C3A22241   5.878  34.576   7.953
 6563POPC   C4A22242   5.866  34.542   7.653
 6563POPC   C1B22243   5.577  34.621   8.553
 6563POPC   C2B22244   5.657  34.595   8.253
 6563POPC   C3B22245   5.638  34.558   7.953
 6563POPC   C4B22246   5.655  34.543   7.653
 6564POPC   NC322247   1.214  18.306   9.453
 6564POPC   PO422248   1.165  18.318   9.153
 6564POPC   GL122249   1.209  18.259   8.853
 6564POPC   GL222250   1.066  18.335   8.853
 6564POPC   C1A22251   1.185  18.307   8.553
 6564POPC   D2A22252   1.187  18.247   8.253
 6564POPC   C3A22253   1.262  18.263   7.953
 6564POPC   C4A22254   1.218  18.289   7.653
 6564POPC   C1B22255   0.970  18.342   8.553
 6564POPC   C2B22256   0.941  18.339   8.253
 6564POPC   C3B22257   0.978  18.297   7.953
 6564POPC   C4B22258   1.009  18.278   7.653
 6565POPC   NC322259  17.538  43.864   9.453
 6565POPC   PO422260  17.465  43.915   9.153
 6565POPC   GL122261  17.517  43.844   8.853
 6565POPC   GL222262  17.604  43.833   8.853
 6565POPC   C1A22263  17.461  43.932   8.553
 6565POPC   D2A22264  17.470  43.838   8.253
 6565POPC   C3A22265  17.504  43.881   7.953
 6565POPC   C4A22266  17.541  43.930   7.653
 6565POPC   C1B22267  17.796  43.853   8.553
 6565POPC   C2B22268  17.741  43.802   8.253
 6565POPC   C3B22269  17.740  43.823   7.953
 6565POPC   C4B22270  17.772  43.881   7.653
 6566POPC   NC322271  40.032  27.547   9.453
 6566POPC   PO422272  40.015  27.609   9.153
 6566POPC   GL122273  40.037  27.621   8.853
 6566POPC   GL222274  40.059  27.629   8.853
 6566POPC   C1A22275  40.036  27.615   8.553
 6566POPC   D2A22276  39.968  27.627   8.253
 6566POPC   C3A22277  40.044  27.557   7.953
 6566POPC   C4A22278  39.994  27.604   7.653
 6566POPC   C1B22279  40.156  27.790   8.553
 6566POPC   C2B22280  40.174  27.760   8.253
 6566POPC   C3B22281  40.154  27.713   7.953
 6566POPC   C4B22282  40.242  27.739   7.653
 6567POPC   NC322283  32.993  40.028   9.453
 6567POPC   PO422284  33.016  40.002   9.153
 6567POPC   GL122285  33.036  39.996   8.853
 6567POPC   GL222286  32.985  39.893   8.853
 6567POPC   C1A22287  32.985  39.977   8.553
 6567POPC   D2A22288  33.049  40.007   8.253
 6567POPC   C3A22289  32.987  40.012   7.953
 6567POPC   C4A22290  32.999  40.053   7.653
 6567POPC   C1B22291  32.941  39.755   8.553
 6567POPC   C2B22292  32.894  39.779   8.253
 6567POPC   C3B22293  32.946  39.778   7.953
 6567POPC   C4B22294  32.894  39.807   7.653
 6568POPC   NC322295  39.249  34.600   9.453
 6568POPC   PO422296  39.241  34.577   9.153
 6568POPC   GL122297  39.204  34.613   8.853
 6568POPC   GL222298  39.223  34.443   8.853
 6568POPC   C1A22299  39.198  34.579   8.553
 6568POPC   D2A22300  39.271  34.586   8.253
 6568POPC   C3A22301  39.191  34.577   7.953
 6568POPC   C4A22302  39.220  34.528   7.653
 6568POPC   C1B22303  39.276  34.351   8.553
 6568POPC   C2B22304  39.216  34.319   8.253
 6568POPC   C3B22305  39.251  34.347   7.953
 6568POPC   C4B22306  39.273  34.323   7.653
 6569POPC   NC322307   0.474  22.173   9.453
 6569POPC   PO422308   0.414  22.143   9.153
 6569POPC   GL122309   0.482  22.207   8.853
 6569POPC   GL222310   0.512  22.269   8.853
 6569POPC   C1A22311   0.448  22.127   8.553
 6569POPC   D2A22312   0.459  22.114   8.253
 6569POPC   C3A22313   0.433  22.114   7.953
 6569POPC   C4A22314   0.392  22.187   7.653
 6569POPC   C1B22315   0.497  22.418   8.553
 6569POPC   C2B22316   0.569  22.408   8.253
 6569POPC   C3B22317   0.502  22.391   7.953
 6569POPC   C4B22318   0.486  22.354   7.653
 6570POPC   NC322319  22.174  24.500   9.453
 6570POPC   PO422320  22.183  24.441   9.153
 6570POPC   GL122321  22.136  24.523   8.853
 6570POPC   GL222322  22.046  24.456   8.853
 6570POPC   C1A22323  22.148  24.495   8.553
 6570POPC   D2A22324  22.203  24.456   8.253
 6570POPC   C3A22325  22.172  24.533   7.953
 6570POPC   C4A22326  22.200  24.531   7.653
 6570POPC   C1B22327  21.894  24.452   8.553
 6570POPC   C2B22328  21.938  24.453   8.253
 6570POPC   C3B22329  21.893  24.507   7.953
 6570POPC   C4B22330  21.900  24.516   7.653
 6571POPC   NC322331   1.973  38.498   9.453
 6571POPC   PO422332   2.003  38.493   9.153
 6571POPC   GL122333   1.968  38.478   8.853
 6571POPC   GL222334   2.069  38.515   8.853
 6571POPC   C1A22335   1.959  38.490   8.553
 6571POPC   D2A22336   2.029  38.488   8.253
 6571POPC   C3A22337   1.986  38.486   7.953
 6571POPC   C4A22338   1.992  38.410   7.653
 6571POPC   C1B22339   2.207  38.498   8.553
 6571POPC   C2B22340   2.216  38.526   8.253
 6571POPC   C3B22341   2.206  38.538   7.953
 6571POPC   C4B22342   2.183  38.527   7.653
 6572POPC   NC322343  15.189  37.681   9.453
 6572POPC   PO422344  15.193  37.650   9.153
 6572POPC   GL122345  15.162  37.665   8.853
 6572POPC   GL222346  15.087  37.657   8.853
 6572POPC   C1A22347  15.156  37.690   8.553
 6572POPC   D2A22348  15.142  37.652   8.253
 6572POPC   C3A22349  15.155  37.721   7.953
 6572POPC   C4A22350  15.210  37.711   7.653
 6572POPC   C1B22351  14.881  37.725   8.553
 6572POPC   C2B22352  14.880  37.638   8.253
 6572POPC   C3B22353  14.934  37.653   7.953
 6572POPC   C4B22354  14.966  37.704   7.653
 6573POPC   NC322355   7.451  14.388   9.453
 6573POPC   PO422356   7.443  14.422   9.153
 6573POPC   GL122357   7.433  14.417   8.853
 6573POPC   GL222358   7.397  14.511   8.853
 6573POPC   C1A22359   7.440  14.413   8.553
 6573POPC   D2A22360   7.374  14.359   8.253
 6573POPC   C3A22361   7.395  14.360   7.953
 6573POPC   C4A22362   7.390  14.435   7.653
 6573POPC   C1B22363   7.316  14.582   8.553
 6573POPC   C2B22364   7.289  14.631   8.253
 6573POPC   C3B22365   7.247  14.585   7.953
 6573POPC   C4B22366   7.256  14.637   7.653
 6574POPC   NC322367  23.689   8.188   9.453
 6574POPC   PO422368  23.721   8.208   9.153
 6574POPC   GL122369  23.733   8.156   8.853
 6574POPC   GL222370  23.554   8.113   8.853
 6574POPC   C1A22371  23.685   8.189   8.553
 6574POPC   D2A22372  23.711   8.211   8.253
 6574POPC   C3A22373  23.671   8.236   7.953
 6574POPC   C4A22374  23.684   8.151   7.653
 6574POPC   C1B22375  23.485   8.134   8.553
 6574POPC   C2B22376  23.429   8.155   8.253
 6574POPC   C3B22377  23.490   8.142   7.953
 6574POPC   C4B22378  23.524   8.091   7.653
 6575POPC   NC322379  44.671  11.287   9.453
 6575POPC   PO422380  44.712  11.331   9.153
 6575POPC   GL122381  44.683  11.268   8.853
 6575POPC   GL222382  44.788  11.348   8.853
 6575POPC   C1A22383  44.699  11.310   8.553
 6575POPC   D2A22384  44.701  11.252   8.253
 6575POPC   C3A22385  44.661  11.305   7.953
 6575POPC   C4A22386  44.695  11.336   7.653
 6575POPC   C1B22387  44.848  11.440   8.553
 6575POPC   C2B22388  44.880  11.365   8.253
 6575POPC   C3B22389  44.915  11.344   7.953
 6575POPC   C4B22390  44.898  11.354   7.653
 6576POPC   NC322391  40.737  22.939   9.453
 6576POPC   PO422392  40.815  22.948   9.153
 6576POPC   GL122393  40.766  22.940   8.853
 6576POPC   GL222394  40.796  22.860   8.853
 6576POPC   C1A22395  40.790  22.903   8.553
 6576POPC   D2A22396  40.772  22.904   8.253
 6576POPC   C3A22397  40.771  22.891   7.953
 6576POPC   C4A22398  40.812  22.972   7.653
 6576POPC   C1B22399  40.860  22.648   8.553
 6576POPC   C2B22400  40.852  22.736   8.253
 6576POPC   C3B22401  40.875  22.693   7.953
 6576POPC   C4B22402  40.819  22.689   7.653
 6577POPC   NC322403   7.449  13.647   9.453
 6577POPC   PO422404   7.465  13.594   9.153
 6577POPC   GL122405   7.394  13.639   8.853
 6577POPC   GL222406   7.306  13.582   8.853
 6577POPC   C1A22407   7.378  13.621   8.553
 6577POPC   D2A22408   7.450  13.665   8.253
 6577POPC   C3A22409   7.454  13.672   7.953
 6577POPC   C4A22410   7.401  13.652   7.653
 6577POPC   C1B22411   7.244  13.474   8.553
 6577POPC   C2B22412   7.258  13.428   8.253
 6577POPC   C3B22413   7.255  13.465   7.953
 6577POPC   C4B22414   7.241  13.440   7.653
 6578POPC   NC322415  22.889   0.463   9.453
 6578POPC   PO422416  22.924   0.422   9.153
 6578POPC   GL122417  22.910   0.407   8.853
 6578POPC   GL222418  22.915   0.523   8.853
 6578POPC   C1A22419  22.935   0.425   8.553
 6578POPC   D2A22420  22.893   0.392   8.253
 6578POPC   C3A22421  22.972   0.402   7.953
 6578POPC   C4A22422  22.966   0.419   7.653
 6578POPC   C1B22423  22.972   0.722   8.553
 6578POPC   C2B22424  22.893   0.700   8.253
 6578POPC   C3B22425  22.906   0.697   7.953
 6578POPC   C4B22426  22.877   0.675   7.653
 6579POPC   NC322427  28.413  22.919   9.453
 6579POPC   PO422428  28.375  22.926   9.153
 6579POPC   GL122429  28.338  22.899   8.853
 6579POPC   GL222430  28.344  23.097   8.853
 6579POPC   C1A22431  28.372  22.967   8.553
 6579POPC   D2A22432  28.370  22.901   8.253
 6579POPC   C3A22433  28.369  22.963   7.953
 6579POPC   C4A22434  28.325  22.926   7.653
 6579POPC   C1B22435  28.308  23.234   8.553
 6579POPC   C2B22436  28.364  23.208   8.253
 6579POPC   C3B22437  28.327  23.233   7.953
 6579POPC   C4B22438  28.316  23.185   7.653
 6580POPC   NC322439  24.448   2.025   9.453
 6580POPC   PO422440  24.519   1.978   9.153
 6580POPC   GL122441  24.505   1.976   8.853
 6580POPC   GL222442  24.650   1.962   8.853
 6580POPC   C1A22443  24.470   2.018   8.553
 6580POPC   D2A22444  24.462   1.970   8.253
 6580POPC   C3A22445  24.448   2.036   7.953
 6580POPC   C4A22446  24.485   2.016   7.653
 6580POPC   C1B22447  24.784   2.014   8.553
 6580POPC   C2B22448  24.737   1.971   8.253
 6580POPC   C3B22449  24.786   1.973   7.953
 6580POPC   C4B22450  24.702   1.990   7.653
 6581POPC   NC322451  38.456   5.915   9.453
 6581POPC   PO422452  38.481   5.859   9.153
 6581POPC   GL122453  38.480   5.878   8.853
 6581POPC   GL222454  38.419   5.771   8.853
 6581POPC   C1A22455  38.440   5.880   8.553
 6581POPC   D2A22456  38.420   5.878   8.253
 6581POPC   C3A22457  38.480   5.847   7.953
 6581POPC   C4A22458  38.495   5.879   7.653
 6581POPC   C1B22459  38.331   5.689   8.553
 6581POPC   C2B22460  38.333   5.664   8.253
 6581POPC   C3B22461  38.370   5.669   7.953
 6581POPC   C4B22462  38.294   5.687   7.653
 6582POPC   NC322463  26.800  35.399   9.453
 6582POPC   PO422464  26.790  35.392   9.153
 6582POPC   GL122465  26.814  35.357   8.853
 6582POPC   GL222466  26.982  35.317   8.853
 6582POPC   C1A22467  26.834  35.366   8.553
 6582POPC   D2A22468  26.847  35.356   8.253
 6582POPC   C3A22469  26.834  35.346   7.953
 6582POPC   C4A22470  26.814  35.349   7.653
 6582POPC   C1B22471  27.032  35.363   8.553
 6582POPC   C2B22472  27.081  35.294   8.253
 6582POPC   C3B22473  27.050  35.370   7.953
 6582POPC   C4B22474  27.031  35.351   7.653
 6583POPC   NC322475  13.591  31.468   9.453
 6583POPC   PO422476  13.673  31.456   9.153
 6583POPC   GL122477  13.583  31.522   8.853
 6583POPC   GL222478  13.469  31.515   8.853
 6583POPC   C1A22479  13.671  31.435   8.553
 6583POPC   D2A22480  13.671  31.457   8.253
 6583POPC   C3A22481  13.619  31.507   7.953
 6583POPC   C4A22482  13.655  31.460   7.653
 6583POPC   C1B22483  13.394  31.430   8.553
 6583POPC   C2B22484  13.379  31.503   8.253
 6583POPC   C3B22485  13.362  31.494   7.953
 6583POPC   C4B22486  13.424  31.506   7.653
 6584POPC   NC322487  32.279  22.148   9.453
 6584POPC   PO422488  32.233  22.180   9.153
 6584POPC   GL122489  32.246  22.193   8.853
 6584POPC   GL222490  32.337  22.176   8.853
 6584POPC   C1A22491  32.256  22.139   8.553
 6584POPC   D2A22492  32.267  22.178   8.253
 6584POPC   C3A22493  32.273  22.133   7.953
 6584POPC   C4A22494  32.284  22.201   7.653
 6584POPC   C1B22495  32.461  22.252   8.553
 6584POPC   C2B22496  32.458  22.324   8.253
 6584POPC   C3B22497  32.510  22.326   7.953
 6584POPC   C4B22498  32.425  22.327   7.653
 6585POPC   NC322499  26.811   1.962   9.453
 6585POPC   PO422500  26.855   2.034   9.153
 6585POPC   GL122501  26.839   2.039   8.853
 6585POPC   GL222502  26.806   2.114   8.853
 6585POPC   C1A22503  26.780   1.961   8.553
 6585POPC   D2A22504  26.803   2.030   8.253
 6585POPC   C3A22505  26.863   1.995   7.953
 6585POPC   C4A22506  26.785   2.036   7.653
 6585POPC   C1B22507  26.845   2.223   8.553
 6585POPC   C2B22508  26.910   2.261   8.253
 6585POPC   C3B22509  26.859   2.221   7.953
 6585POPC   C4B22510  26.882   2.230   7.653
 6586POPC   NC322511  41.539   7.373   9.453
 6586POPC   PO422512  41.588   7.379   9.153
 6586POPC   GL122513  41.575   7.380   8.853
 6586POPC   GL222514  41.678   7.430   8.853
 6586POPC   C1A22515  41.533   7.433   8.553
 6586POPC   D2A22516  41.598   7.459   8.253
 6586POPC   C3A22517  41.580   7.395   7.953
 6586POPC   C4A22518  41.567   7.441   7.653
 6586POPC   C1B22519  41.851   7.392   8.553
 6586POPC   C2B22520  41.795   7.349   8.253
 6586POPC   C3B22521  41.819   7.345   7.953
 6586POPC   C4B22522  41.784   7.368   7.653
 6587POPC   NC322523   4.309   1.257   9.453
 6587POPC   PO422524   4.269   1.243   9.153
 6587POPC   GL122525   4.357   1.239   8.853
 6587POPC   GL222526   4.280   1.318   8.853
 6587POPC   C1A22527   4.330   1.216   8.553
 6587POPC   D2A22528   4.332   1.173   8.253
 6587POPC   C3A22529   4.310   1.211   7.953
 6587POPC   C4A22530   4.343   1.191   7.653
 6587POPC   C1B22531   4.191   1.480   8.553
 6587POPC   C2B22532   4.189   1.476   8.253
 6587POPC   C3B22533   4.227   1.440   7.953
 6587POPC   C4B22534   4.204   1.437   7.653
 6588POPC   NC322535  31.493  11.266   9.453
 6588POPC   PO422536  31.426  11.293   9.153
 6588POPC   GL122537  31.472  11.268   8.853
 6588POPC   GL222538  31.622  11.378   8.853
 6588POPC   C1A22539  31.516  11.264   8.553
 6588POPC   D2A22540  31.423  11.255   8.253
 6588POPC   C3A22541  31.501  11.345   7.953
 6588POPC   C4A22542  31.515  11.319   7.653
 6588POPC   C1B22543  31.682  11.454   8.553
 6588POPC   C2B22544  31.679  11.395   8.253
 6588POPC   C3B22545  31.740  11.405   7.953
 6588POPC   C4B22546  31.690  11.436   7.653
 6589POPC   NC322547  22.178  22.932   9.453
 6589POPC   PO422548  22.140  22.969   9.153
 6589POPC   GL122549  22.127  22.974   8.853
 6589POPC   GL222550  22.236  22.845   8.853
 6589POPC   C1A22551  22.138  22.918   8.553
 6589POPC   D2A22552  22.124  22.953   8.253
 6589POPC   C3A22553  22.116  22.916   7.953
 6589POPC   C4A22554  22.141  22.953   7.653
 6589POPC   C1B22555  22.353  22.776   8.553
 6589POPC   C2B22556  22.343  22.821   8.253
 6589POPC   C3B22557  22.411  22.828   7.953
 6589POPC   C4B22558  22.387  22.773   7.653
 6590POPC   NC322559   9.753  39.992   9.453
 6590POPC   PO422560   9.775  39.979   9.153
 6590POPC   GL122561   9.775  40.048   8.853
 6590POPC   GL222562   9.854  39.982   8.853
 6590POPC   C1A22563   9.700  40.023   8.553
 6590POPC   D2A22564   9.760  40.026   8.253
 6590POPC   C3A22565   9.725  40.012   7.953
 6590POPC   C4A22566   9.787  40.007   7.653
 6590POPC   C1B22567   9.992  40.036   8.553
 6590POPC   C2B22568   9.991  39.994   8.253
 6590POPC   C3B22569  10.023  40.069   7.953
 6590POPC   C4B22570  10.004  40.013   7.653
 6591POPC   NC322571  26.820  10.549   9.453
 6591POPC   PO422572  26.771  10.512   9.153
 6591POPC   GL122573  26.776  10.565   8.853
 6591POPC   GL222574  26.689  10.435   8.853
 6591POPC   C1A22575  26.774  10.553   8.553
 6591POPC   D2A22576  26.841  10.566   8.253
 6591POPC   C3A22577  26.815  10.543   7.953
 6591POPC   C4A22578  26.783  10.516   7.653
 6591POPC   C1B22579  26.585  10.339   8.553
 6591POPC   C2B22580  26.638  10.361   8.253
 6591POPC   C3B22581  26.583  10.360   7.953
 6591POPC   C4B22582  26.658  10.375   7.653
 6592POPC   NC322583  41.596  13.612   9.453
 6592POPC   PO422584  41.597  13.586   9.153
 6592POPC   GL122585  41.575  13.640   8.853
 6592POPC   GL222586  41.454  13.749   8.853
 6592POPC   C1A22587  41.607  13.626   8.553
 6592POPC   D2A22588  41.540  13.676   8.253
 6592POPC   C3A22589  41.539  13.615   7.953
 6592POPC   C4A22590  41.557  13.604   7.653
 6592POPC   C1B22591  41.400  13.799   8.553
 6592POPC   C2B22592  41.373  13.839   8.253
 6592POPC   C3B22593  41.394  13.842   7.953
 6592POPC   C4B22594  41.352  13.830   7.653
 6593POPC   NC322595  44.664  32.234   9.453
 6593POPC   PO422596  44.640  32.227   9.153
 6593POPC   GL122597  44.666  32.201   8.853
 6593POPC   GL222598  44.765  32.188   8.853
 6593POPC   C1A22599  44.708  32.270   8.553
 6593POPC   D2A22600  44.655  32.234   8.253
 6593POPC   C3A22601  44.671  32.234   7.953
 6593POPC   C4A22602  44.614  32.231   7.653
 6593POPC   C1B22603  44.895  32.149   8.553
 6593POPC   C2B22604  44.843  32.158   8.253
 6593POPC   C3B22605  44.874  32.093   7.953
 6593POPC   C4B22606  44.838  32.156   7.653
 6594POPC   NC322607   4.325   5.072   9.453
 6594POPC   PO422608   4.289   5.083   9.153
 6594POPC   GL122609   4.341   5.072   8.853
 6594POPC   GL222610   4.237   5.009   8.853
 6594POPC   C1A22611   4.277   5.125   8.553
 6594POPC   D2A22612   4.301   5.085   8.253
 6594POPC   C3A22613   4.276   5.075   7.953
 6594POPC   C4A22614   4.284   5.102   7.653
 6594POPC   C1B22615   4.046   4.978   8.553
 6594POPC   C2B22616   4.092   4.976   8.253
 6594POPC   C3B22617   4.104   5.014   7.953
 6594POPC   C4B22618   4.074   5.053   7.653
 6595POPC   NC322619   5.111  33.010   9.453
 6595POPC   PO422620   5.068  33.016   9.153
 6595POPC   GL122621   5.064  32.978   8.853
 6595POPC   GL222622   5.002  33.004   8.853
 6595POPC   C1A22623   5.133  33.000   8.553
 6595POPC   D2A22624   5.136  33.029   8.253
 6595POPC   C3A22625   5.061  33.009   7.953
 6595POPC   C4A22626   5.132  33.062   7.653
 6595POPC   C1B22627   4.868  33.053   8.553
 6595POPC   C2B22628   4.878  33.099   8.253
 6595POPC   C3B22629   4.824  33.104   7.953
 6595POPC   C4B22630   4.824  33.091   7.653
 6596POPC   NC322631  30.687  12.116   9.453
 6596POPC   PO422632  30.710  12.066   9.153
 6596POPC   GL122633  30.663  12.065   8.853
 6596POPC   GL222634  30.606  12.060   8.853
 6596POPC   C1A22635  30.647  12.073   8.553
 6596POPC   D2A22636  30.670  12.064   8.253
 6596POPC   C3A22637  30.706  12.039   7.953
 6596POPC   C4A22638  30.680  12.108   7.653
 6596POPC   C1B22639  30.469  12.027   8.553
 6596POPC   C2B22640  30.413  12.032   8.253
 6596POPC   C3B22641  30.421  12.016   7.953
 6596POPC   C4B22642  30.467  12.030   7.653
 6597POPC   NC322643  25.276  33.003   9.453
 6597POPC   PO422644  25.216  33.019   9.153
 6597POPC   GL122645  25.242  32.996   8.853
 6597POPC   GL222646  25.369  33.011   8.853
 6597POPC   C1A22647  25.217  32.980   8.553
 6597POPC   D2A22648  25.312  32.975   8.253
 6597POPC   C3A22649  25.242  33.016   7.953
 6597POPC   C4A22650  25.302  33.051   7.653
 6597POPC   C1B22651  25.437  32.924   8.553
 6597POPC   C2B22652  25.471  32.890   8.253
 6597POPC   C3B22653  25.476  32.906   7.953
 6597POPC   C4B22654  25.530  32.909   7.653
 6598POPC   NC322655  31.466  19.047   9.453
 6598POPC   PO422656  31.482  19.097   9.153
 6598POPC   GL122657  31.487  19.077   8.853
 6598POPC   GL222658  31.500  18.946   8.853
 6598POPC   C1A22659  31.514  19.029   8.553
 6598POPC   D2A22660  31.515  19.015   8.253
 6598POPC   C3A22661  31.441  19.050   7.953
 6598POPC   C4A22662  31.456  19.058   7.653
 6598POPC   C1B22663  31.622  18.846   8.553
 6598POPC   C2B22664  31.567  18.853   8.253
 6598POPC   C3B22665  31.542  18.844   7.953
 6598POPC   C4B22666  31.558  18.884   7.653
 6599POPC   NC322667   9.749  42.374   9.453
 6599POPC   PO422668   9.713  42.371   9.153
 6599POPC   GL122669   9.776  42.312   8.853
 6599POPC   GL222670   9.826  42.376   8.853
 6599POPC   C1A22671   9.767  42.326   8.553
 6599POPC   D2A22672   9.728  42.307   8.253
 6599POPC   C3A22673   9.738  42.330   7.953
 6599POPC   C4A22674   9.750  42.332   7.653
 6599POPC   C1B22675   9.929  42.458   8.553
 6599POPC   C2B22676   9.944  42.479   8.253
 6599POPC   C3B22677  10.024  42.483   7.953
 6599POPC   C4B22678   9.969  42.453   7.653
 6600POPC   NC322679  42.342  16.706   9.453
 6600POPC   PO422680  42.331  16.711   9.153
 6600POPC   GL122681  42.308  16.684   8.853
 6600POPC   GL222682  42.476  16.819   8.853
 6600POPC   C1A22683  42.318  16.767   8.553
 6600POPC   D2A22684  42.374  16.713   8.253
 6600POPC   C3A22685  42.344  16.760   7.953
 6600POPC   C4A22686  42.327  16.762   7.653
 6600POPC   C1B22687  42.478  16.909   8.553
 6600POPC   C2B22688  42.566  16.906   8.253
 6600POPC   C3B22689  42.568  16.877   7.953
 6600POPC   C4B22690  42.512  16.925   7.653
 6601POPC   NC322691   3.516  24.505   9.453
 6601POPC   PO422692   3.567  24.513   9.153
 6601POPC   GL122693   3.543  24.448   8.853
 6601POPC   GL222694   3.607  24.398   8.853
 6601POPC   C1A22695   3.530  24.530   8.553
 6601POPC   D2A22696   3.554  24.529   8.253
 6601POPC   C3A22697   3.581  24.444   7.953
 6601POPC   C4A22698   3.576  24.537   7.653
 6601POPC   C1B22699   3.815  24.364   8.553
 6601POPC   C2B22700   3.740  24.382   8.253
 6601POPC   C3B22701   3.814  24.373   7.953
 6601POPC   C4B22702   3.782  24.361   7.653
 6602POPC   NC322703  30.655   1.216   9.453
 6602POPC   PO422704  30.737   1.176   9.153
 6602POPC   GL122705  30.657   1.244   8.853
 6602POPC   GL222706  30.581   1.284   8.853
 6602POPC   C1A22707  30.720   1.200   8.553
 6602POPC   D2A22708  30.723   1.250   8.253
 6602POPC   C3A22709  30.746   1.179   7.953
 6602POPC   C4A22710  30.741   1.173   7.653
 6602POPC   C1B22711  30.478   1.406   8.553
 6602POPC   C2B22712  30.502   1.356   8.253
 6602POPC   C3B22713  30.507   1.341   7.953
 6602POPC   C4B22714  30.467   1.358   7.653
 6603POPC   NC322715   8.965   2.789   9.453
 6603POPC   PO422716   8.930   2.805   9.153
 6603POPC   GL122717   8.986   2.802   8.853
 6603POPC   GL222718   9.113   2.757   8.853
 6603POPC   C1A22719   8.935   2.805   8.553
 6603POPC   D2A22720   8.985   2.736   8.253
 6603POPC   C3A22721   8.953   2.767   7.953
 6603POPC   C4A22722   8.965   2.722   7.653
 6603POPC   C1B22723   9.269   2.722   8.553
 6603POPC   C2B22724   9.208   2.797   8.253
 6603POPC   C3B22725   9.222   2.755   7.953
 6603POPC   C4B22726   9.244   2.732   7.653
 6604POPC   NC322727   1.202   4.365   9.453
 6604POPC   PO422728   1.172   4.291   9.153
 6604POPC   GL122729   1.189   4.360   8.853
 6604POPC   GL222730   1.116   4.300   8.853
 6604POPC   C1A22731   1.249   4.307   8.553
 6604POPC   D2A22732   1.201   4.354   8.253
 6604POPC   C3A22733   1.230   4.268   7.953
 6604POPC   C4A22734   1.196   4.304   7.653
 6604POPC   C1B22735   1.020   4.230   8.553
 6604POPC   C2B22736   1.007   4.198   8.253
 6604POPC   C3B22737   0.952   4.255   7.953
 6604POPC   C4B22738   0.988   4.207   7.653
 6605POPC   NC322739  24.500   8.229   9.453
 6605POPC   PO422740  24.505   8.242   9.153
 6605POPC   GL122741  24.451   8.204   8.853
 6605POPC   GL222742  24.408   8.129   8.853
 6605POPC   C1A22743  24.477   8.240   8.553
 6605POPC   D2A22744  24.479   8.187   8.253
 6605POPC   C3A22745  24.534   8.177   7.953
 6605POPC   C4A22746  24.458   8.201   7.653
 6605POPC   C1B22747  24.274   8.120   8.553
 6605POPC   C2B22748  24.248   8.108   8.253
 6605POPC   C3B22749  24.280   8.131   7.953
 6605POPC   C4B22750  24.217   8.041   7.653
 6606POPC   NC322751   2.771   5.877   9.453
 6606POPC   PO422752   2.743   5.822   9.153
 6606POPC   GL122753   2.718   5.911   8.853
 6606POPC   GL222754   2.843   5.960   8.853
 6606POPC   C1A22755   2.736   5.896   8.553
 6606POPC   D2A22756   2.726   5.906   8.253
 6606POPC   C3A22757   2.756   5.911   7.953
 6606POPC   C4A22758   2.805   5.859   7.653
 6606POPC   C1B22759   2.847   6.094   8.553
 6606POPC   C2B22760   2.910   6.128   8.253
 6606POPC   C3B22761   2.878   6.052   7.953
 6606POPC   C4B22762   2.873   6.061   7.653
 6607POPC   NC322763  35.373  35.379   9.453
 6607POPC   PO422764  35.303  35.383   9.153
 6607POPC   GL122765  35.320  35.336   8.853
 6607POPC   GL222766  35.451  35.296   8.853
 6607POPC   C1A22767  35.367  35.340   8.553
 6607POPC   D2A22768  35.305  35.385   8.253
 6607POPC   C3A22769  35.364  35.364   7.953
 6607POPC   C4A22770  35.370  35.375   7.653
 6607POPC   C1B22771  35.575  35.198   8.553
 6607POPC   C2B22772  35.592  35.209   8.253
 6607POPC   C3B22773  35.589  35.225   7.953
 6607POPC   C4B22774  35.530  35.237   7.653
 6608POPC   NC322775  41.515  42.363   9.453
 6608POPC   PO422776  41.532  42.322   9.153
 6608POPC   GL122777  41.602  42.325   8.853
 6608POPC   GL222778  41.630  42.487   8.853
 6608POPC   C1A22779  41.598  42.301   8.553
 6608POPC   D2A22780  41.535  42.310   8.253
 6608POPC   C3A22781  41.567  42.378   7.953
 6608POPC   C4A22782  41.589  42.364   7.653
 6608POPC   C1B22783  41.636  42.553   8.553
 6608POPC   C2B22784  41.595  42.617   8.253
 6608POPC   C3B22785  41.615  42.606   7.953
 6608POPC   C4B22786  41.596  42.586   7.653
 6609POPC   NC322787   3.547  33.036   9.453
 6609POPC   PO422788   3.518  32.996   9.153
 6609POPC   GL122789   3.512  33.063   8.853
 6609POPC   GL222790   3.612  32.917   8.853
 6609POPC   C1A22791   3.561  33.012   8.553
 6609POPC   D2A22792   3.519  32.987   8.253
 6609POPC   C3A22793   3.523  33.010   7.953
 6609POPC   C4A22794   3.495  33.052   7.653
 6609POPC   C1B22795   3.751  32.905   8.553
 6609POPC   C2B22796   3.692  32.839   8.253
 6609POPC   C3B22797   3.762  32.864   7.953
 6609POPC   C4B22798   3.771  32.908   7.653
 6610POPC   NC322799   7.431  36.925   9.453
 6610POPC   PO422800   7.460  36.855   9.153
 6610POPC   GL122801   7.415  36.931   8.853
 6610POPC   GL222802   7.367  37.061   8.853
 6610POPC   C1A22803   7.394  36.914   8.553
 6610POPC   D2A22804   7.401  36.937   8.253
 6610POPC   C3A22805   7.413  36.925   7.953
 6610POPC   C4A22806   7.460  36.937   7.653
 6610POPC   C1B22807   7.353  37.086   8.553
 6610POPC   C2B22808   7.285  37.082   8.253
 6610POPC   C3B22809   7.350  37.087   7.953
 6610POPC   C4B22810   7.329  37.083   7.653
 6611POPC   NC322811  27.635  28.407   9.453
 6611POPC   PO422812  27.619  28.418   9.153
 6611POPC   GL122813  27.642  28.327   8.853
 6611POPC   GL222814  27.523  28.258   8.853
 6611POPC   C1A22815  27.584  28.343   8.553
 6611POPC   D2A22816  27.635  28.404   8.253
 6611POPC   C3A22817  27.586  28.369   7.953
 6611POPC   C4A22818  27.602  28.370   7.653
 6611POPC   C1B22819  27.505  28.152   8.553
 6611POPC   C2B22820  27.509  28.105   8.253
 6611POPC   C3B22821  27.582  28.147   7.953
 6611POPC   C4B22822  27.513  28.137   7.653
 6612POPC   NC322823  39.274   0.479   9.453
 6612POPC   PO422824  39.241   0.402   9.153
 6612POPC   GL122825  39.228   0.406   8.853
 6612POPC   GL222826  39.272   0.565   8.853
 6612POPC   C1A22827  39.225   0.485   8.553
 6612POPC   D2A22828  39.238   0.453   8.253
 6612POPC   C3A22829  39.276   0.453   7.953
 6612POPC   C4A22830  39.222   0.431   7.653
 6612POPC   C1B22831  39.419   0.624   8.553
 6612POPC   C2B22832  39.364   0.606   8.253
 6612POPC   C3B22833  39.386   0.600   7.953
 6612POPC   C4B22834  39.370   0.646   7.653
 6613POPC   NC322835  11.348   1.202   9.453
 6613POPC   PO422836  11.282   1.226   9.153
 6613POPC   GL122837  11.345   1.262   8.853
 6613POPC   GL222838  11.240   1.287   8.853
 6613POPC   C1A22839  11.282   1.260   8.553
 6613POPC   D2A22840  11.295   1.258   8.253
 6613POPC   C3A22841  11.319   1.179   7.953
 6613POPC   C4A22842  11.323   1.221   7.653
 6613POPC   C1B22843  11.123   1.401   8.553
 6613POPC   C2B22844  11.123   1.388   8.253
 6613POPC   C3B22845  11.137   1.438   7.953
 6613POPC   C4B22846  11.146   1.378   7.653
 6614POPC   NC322847   3.576  25.307   9.453
 6614POPC   PO422848   3.508  25.226   9.153
 6614POPC   GL122849   3.518  25.289   8.853
 6614POPC   GL222850   3.649  25.355   8.853
 6614POPC   C1A22851   3.556  25.264   8.553
 6614POPC   D2A22852   3.529  25.242   8.253
 6614POPC   C3A22853   3.549  25.275   7.953
 6614POPC   C4A22854   3.566  25.240   7.653
 6614POPC   C1B22855   3.759  25.365   8.553
 6614POPC   C2B22856   3.791  25.406   8.253
 6614POPC   C3B22857   3.711  25.365   7.953
 6614POPC   C4B22858   3.776  25.373   7.653
 6615POPC   NC322859  33.751  44.674   9.453
 6615POPC   PO422860  33.813  44.660   9.153
 6615POPC   GL122861  33.793  44.662   8.853
 6615POPC   GL222862  33.900  44.797   8.853
 6615POPC   C1A22863  33.756  44.701   8.553
 6615POPC   D2A22864  33.806  44.632   8.253
 6615POPC   C3A22865  33.792  44.636   7.953
 6615POPC   C4A22866  33.758  44.687   7.653
 6615POPC   C1B22867  33.976  44.847   8.553
 6615POPC   C2B22868  33.991  44.896   8.253
 6615POPC   C3B22869  33.969  44.851   7.953
 6615POPC   C4B22870  33.991  44.856   7.653
 6616POPC   NC322871  19.828   4.281   9.453
 6616POPC   PO422872  19.877   4.357   9.153
 6616POPC   GL122873  19.795   4.301   8.853
 6616POPC   GL222874  19.744   4.474   8.853
 6616POPC   C1A22875  19.815   4.342   8.553
 6616POPC   D2A22876  19.847   4.363   8.253
 6616POPC   C3A22877  19.868   4.335   7.953
 6616POPC   C4A22878  19.855   4.339   7.653
 6616POPC   C1B22879  19.692   4.572   8.553
 6616POPC   C2B22880  19.705   4.522   8.253
 6616POPC   C3B22881  19.686   4.519   7.953
 6616POPC   C4B22882  19.718   4.539   7.653
 6617POPC   NC322883  26.045  19.054   9.453
 6617POPC   PO422884  26.051  19.020   9.153
 6617POPC   GL122885  25.996  19.016   8.853
 6617POPC   GL222886  25.883  19.078   8.853
 6617POPC   C1A22887  26.090  19.078   8.553
 6617POPC   D2A22888  26.045  19.010   8.253
 6617POPC   C3A22889  26.001  19.037   7.953
 6617POPC   C4A22890  25.998  19.056   7.653
 6617POPC   C1B22891  25.764  19.171   8.553
 6617POPC   C2B22892  25.762  19.132   8.253
 6617POPC   C3B22893  25.840  19.086   7.953
 6617POPC   C4B22894  25.792  19.154   7.653
 6618POPC   NC322895  22.975  24.456   9.453
 6618POPC   PO422896  22.950  24.454   9.153
 6618POPC   GL122897  22.893  24.507   8.853
 6618POPC   GL222898  23.073  24.488   8.853
 6618POPC   C1A22899  22.913  24.472   8.553
 6618POPC   D2A22900  22.891  24.464   8.253
 6618POPC   C3A22901  22.897  24.525   7.953
 6618POPC   C4A22902  22.944  24.474   7.653
 6618POPC   C1B22903  23.225  24.443   8.553
 6618POPC   C2B22904  23.173  24.455   8.253
 6618POPC   C3B22905  23.191  24.363   7.953
 6618POPC   C4B22906  23.144  24.414   7.653
 6619POPC   NC322907  38.499  16.752   9.453
 6619POPC   PO422908  38.493  16.743   9.153
 6619POPC   GL122909  38.487  16.765   8.853
 6619POPC   GL222910  38.569  16.691   8.853
 6619POPC   C1A22911  38.463  16.756   8.553
 6619POPC   D2A22912  38.487  16.681   8.253
 6619POPC   C3A22913  38.442  16.736   7.953
 6619POPC   C4A22914  38.476  16.692   7.653
 6619POPC   C1B22915  38.686  16.534   8.553
 6619POPC   C2B22916  38.612  16.611   8.253
 6619POPC   C3B22917  38.686  16.534   7.953
 6619POPC   C4B22918  38.669  16.602   7.653
 6620POPC   NC322919   9.766  13.651   9.453
 6620POPC   PO422920   9.754  13.672   9.153
 6620POPC   GL122921   9.742  13.631   8.853
 6620POPC   GL222922   9.649  13.468   8.853
 6620POPC   C1A22923   9.748  13.596   8.553
 6620POPC   D2A22924   9.796  13.617   8.253
 6620POPC   C3A22925   9.762  13.602   7.953
 6620POPC   C4A22926   9.763  13.660   7.653
 6620POPC   C1B22927   9.661  13.416   8.553
 6620POPC   C2B22928   9.606  13.379   8.253
 6620POPC   C3B22929   9.654  13.426   7.953
 6620POPC   C4B22930   9.664  13.445   7.653
 6621POPC   NC322931  40.832  10.516   9.453
 6621POPC   PO422932  40.792  10.548   9.153
 6621POPC   GL122933  40.809  10.518   8.853
 6621POPC   GL222934  40.614  10.578   8.853
 6621POPC   C1A22935  40.800  10.562   8.553
 6621POPC   D2A22936  40.764  10.509   8.253
 6621POPC   C3A22937  40.824  10.482   7.953
 6621POPC   C4A22938  40.743  10.487   7.653
 6621POPC   C1B22939  40.573  10.548   8.553
 6621POPC   C2B22940  40.530  10.571   8.253
 6621POPC   C3B22941  40.572  10.555   7.953
 6621POPC   C4B22942  40.540  10.497   7.653
 6622POPC   NC322943   8.184  42.332   9.453
 6622POPC   PO422944   8.240  42.338   9.153
 6622POPC   GL122945   8.215  42.356   8.853
 6622POPC   GL222946   8.291  42.440   8.853
 6622POPC   C1A22947   8.182  42.314   8.553
 6622POPC   D2A22948   8.186  42.380   8.253
 6622POPC   C3A22949   8.227  42.328   7.953
 6622POPC   C4A22950   8.178  42.317   7.653
 6622POPC   C1B22951   8.348  42.556   8.553
 6622POPC   C2B22952   8.287  42.548   8.253
 6622POPC   C3B22953   8.259  42.527   7.953
 6622POPC   C4B22954   8.305  42.569   7.653
 6623POPC   NC322955   8.205  26.023   9.453
 6623POPC   PO422956   8.235  25.997   9.153
 6623POPC   GL122957   8.236  26.079   8.853
 6623POPC   GL222958   8.290  26.041   8.853
 6623POPC   C1A22959   8.202  26.038   8.553
 6623POPC   D2A22960   8.215  26.009   8.253
 6623POPC   C3A22961   8.189  26.027   7.953
 6623POPC   C4A22962   8.193  26.023   7.653
 6623POPC   C1B22963   8.475  25.998   8.553
 6623POPC   C2B22964   8.486  25.976   8.253
 6623POPC   C3B22965   8.421  26.058   7.953
 6623POPC   C4B22966   8.420  26.006   7.653
 6624POPC   NC322967  44.613  37.677   9.453
 6624POPC   PO422968  44.700  37.707   9.153
 6624POPC   GL122969  44.696  37.656   8.853
 6624POPC   GL222970  44.620  37.725   8.853
 6624POPC   C1A22971  44.642  37.716   8.553
 6624POPC   D2A22972  44.647  37.690   8.253
 6624POPC   C3A22973  44.640  37.636   7.953
 6624POPC   C4A22974  44.618  37.725   7.653
 6624POPC   C1B22975  44.444  37.838   8.553
 6624POPC   C2B22976  44.478  37.827   8.253
 6624POPC   C3B22977  44.457  37.892   7.953
 6624POPC   C4B22978  44.476  37.862   7.653
 6625POPC   NC322979  12.846   7.413   9.453
 6625POPC   PO422980  12.807   7.413   9.153
 6625POPC   GL122981  12.838   7.380   8.853
 6625POPC   GL222982  12.745   7.469   8.853
 6625POPC   C1A22983  12.822   7.371   8.553
 6625POPC   D2A22984  12.863   7.388   8.253
 6625POPC   C3A22985  12.858   7.426   7.953
 6625POPC   C4A22986  12.862   7.425   7.653
 6625POPC   C1B22987  12.600   7.524   8.553
 6625POPC   C2B22988  12.680   7.593   8.253
 6625POPC   C3B22989  12.669   7.546   7.953
 6625POPC   C4B22990  12.593   7.563   7.653
 6626POPC   NC322991  12.848  36.854   9.453
 6626POPC   PO422992  12.877  36.890   9.153
 6626POPC   GL122993  12.803  36.868   8.853
 6626POPC   GL222994  12.921  37.060   8.853
 6626POPC   C1A22995  12.860  36.943   8.553
 6626POPC   D2A22996  12.875  36.856   8.253
 6626POPC   C3A22997  12.867  36.915   7.953
 6626POPC   C4A22998  12.826  36.875   7.653
 6626POPC   C1B22999  12.848  37.169   8.553
 6626POPC   C2B23000  12.902  37.183   8.253
 6626POPC   C3B23001  12.917  37.176   7.953
 6626POPC   C4B23002  12.937  37.165   7.653
 6627POPC   NC323003  13.617  40.749   9.453
 6627POPC   PO423004  13.644  40.813   9.153
 6627POPC   GL123005  13.634  40.773   8.853
 6627POPC   GL223006  13.719  40.712   8.853
 6627POPC   C1A23007  13.636  40.746   8.553
 6627POPC   D2A23008  13.583  40.793   8.253
 6627POPC   C3A23009  13.647  40.758   7.953
 6627POPC   C4A23010  13.589  40.829   7.653
 6627POPC   C1B23011  13.886  40.677   8.553
 6627POPC   C2B23012  13.790  40.669   8.253
 6627POPC   C3B23013  13.790  40.611   7.953
 6627POPC   C4B23014  13.887  40.646   7.653
 6628POPC   NC323015  43.904  26.068   9.453
 6628POPC   PO423016  43.881  26.053   9.153
 6628POPC   GL123017  43.868  26.021   8.853
 6628POPC   GL223018  43.882  25.969   8.853
 6628POPC   C1A23019  43.885  25.997   8.553
 6628POPC   D2A23020  43.877  26.041   8.253
 6628POPC   C3A23021  43.849  25.993   7.953
 6628POPC   C4A23022  43.877  25.997   7.653
 6628POPC   C1B23023  44.000  25.762   8.553
 6628POPC   C2B23024  43.979  25.764   8.253
 6628POPC   C3B23025  44.014  25.795   7.953
 6628POPC   C4B23026  43.923  25.763   7.653
 6629POPC   NC323027  33.821  39.224   9.453
 6629POPC   PO423028  33.799  39.262   9.153
 6629POPC   GL123029  33.791  39.194   8.853
 6629POPC   GL223030  33.877  39.179   8.853
 6629POPC   C1A23031  33.817  39.263   8.553
 6629POPC   D2A23032  33.763  39.191   8.253
 6629POPC   C3A23033  33.821  39.195   7.953
 6629POPC   C4A23034  33.841  39.239   7.653
 6629POPC   C1B23035  33.952  39.107   8.553
 6629POPC   C2B23036  33.979  39.053   8.253
 6629POPC   C3B23037  33.972  39.072   7.953
 6629POPC   C4B23038  34.040  39.095   7.653
 6630POPC   NC323039  29.103  16.764   9.453
 6630POPC   PO423040  29.095  16.768   9.153
 6630POPC   GL123041  29.117  16.697   8.853
 6630POPC   GL223042  29.307  16.795   8.853
 6630POPC   C1A23043  29.154  16.714   8.553
 6630POPC   D2A23044  29.182  16.766   8.253
 6630POPC   C3A23045  29.142  16.690   7.953
 6630POPC   C4A23046  29.186  16.704   7.653
 6630POPC   C1B23047  29.409  16.847   8.553
 6630POPC   C2B23048  29.378  16.865   8.253
 6630POPC   C3B23049  29.369  16.855   7.953
 6630POPC   C4B23050  29.365  16.777   7.653
 6631POPC   NC323051  37.675  13.651   9.453
 6631POPC   PO423052  37.686  13.586   9.153
 6631POPC   GL123053  37.726  13.604   8.853
 6631POPC   GL223054  37.593  13.522   8.853
 6631POPC   C1A23055  37.641  13.636   8.553
 6631POPC   D2A23056  37.701  13.657   8.253
 6631POPC   C3A23057  37.679  13.590   7.953
 6631POPC   C4A23058  37.675  13.625   7.653
 6631POPC   C1B23059  37.514  13.392   8.553
 6631POPC   C2B23060  37.493  13.470   8.253
 6631POPC   C3B23061  37.568  13.427   7.953
 6631POPC   C4B23062  37.553  13.408   7.653
 6632POPC   NC323063  42.330  43.091   9.453
 6632POPC   PO423064  42.330  43.084   9.153
 6632POPC   GL123065  42.286  43.130   8.853
 6632POPC   GL223066  42.374  43.018   8.853
 6632POPC   C1A23067  42.306  43.080   8.553
 6632POPC   D2A23068  42.364  43.136   8.253
 6632POPC   C3A23069  42.338  43.127   7.953
 6632POPC   C4A23070  42.355  43.156   7.653
 6632POPC   C1B23071  42.474  42.939   8.553
 6632POPC   C2B23072  42.432  42.908   8.253
 6632POPC   C3B23073  42.505  42.856   7.953
 6632POPC   C4B23074  42.451  42.913   7.653
 6633POPC   NC323075   2.788  15.927   9.453
 6633POPC   PO423076   2.794  15.960   9.153
 6633POPC   GL123077   2.812  15.919   8.853
 6633POPC   GL223078   2.662  15.955   8.853
 6633POPC   C1A23079   2.724  15.910   8.553
 6633POPC   D2A23080   2.809  15.995   8.253
 6633POPC   C3A23081   2.733  15.969   7.953
 6633POPC   C4A23082   2.761  15.952   7.653
 6633POPC   C1B23083   2.554  15.933   8.553
 6633POPC   C2B23084   2.477  15.967   8.253
 6633POPC   C3B23085   2.507  15.989   7.953
 6633POPC   C4B23086   2.478  15.937   7.653
 6634POPC   NC323087  37.723  43.898   9.453
 6634POPC   PO423088  37.701  43.923   9.153
 6634POPC   GL123089  37.707  43.894   8.853
 6634POPC   GL223090  37.529  43.959   8.853
 6634POPC   C1A23091  37.666  43.932   8.553
 6634POPC   D2A23092  37.685  43.934   8.253
 6634POPC   C3A23093  37.657  43.921   7.953
 6634POPC   C4A23094  37.727  43.864   7.653
 6634POPC   C1B23095  37.440  44.001   8.553
 6634POPC   C2B23096  37.431  43.993   8.253
 6634POPC   C3B23097  37.504  44.021   7.953
 6634POPC   C4B23098  37.425  43.978   7.653
 6635POPC   NC323099  29.965  29.137   9.453
 6635POPC   PO423100  29.956  29.186   9.153
 6635POPC   GL123101  29.889  29.125   8.853
 6635POPC   GL223102  29.992  29.164   8.853
 6635POPC   C1A23103  29.912  29.126   8.553
 6635POPC   D2A23104  29.920  29.180   8.253
 6635POPC   C3A23105  29.954  29.168   7.953
 6635POPC   C4A23106  29.899  29.156   7.653
 6635POPC   C1B23107  30.098  29.234   8.553
 6635POPC   C2B23108  30.136  29.286   8.253
 6635POPC   C3B23109  30.120  29.306   7.953
 6635POPC   C4B23110  30.180  29.241   7.653
 6636POPC   NC323111   0.462  12.046   9.453
 6636POPC   PO423112   0.450  12.076   9.153
 6636POPC   GL123113   0.478  12.079   8.853
 6636POPC   GL223114   0.463  11.985   8.853
 6636POPC   C1A23115   0.453  12.095   8.553
 6636POPC   D2A23116   0.433  12.101   8.253
 6636POPC   C3A23117   0.418  12.117   7.953
 6636POPC   C4A23118   0.461  12.093   7.653
 6636POPC   C1B23119   0.465  11.813   8.553
 6636POPC   C2B23120   0.461  11.846   8.253
 6636POPC   C3B23121   0.476  11.859   7.953
 6636POPC   C4B23122   0.420  11.839   7.653
 6637POPC   NC323123  12.072  40.795   9.453
 6637POPC   PO423124  12.089  40.807   9.153
 6637POPC   GL123125  12.110  40.786   8.853
 6637POPC   GL223126  11.919  40.848   8.853
 6637POPC   C1A23127  12.060  40.811   8.553
 6637POPC   D2A23128  12.048  40.744   8.253
 6637POPC   C3A23129  12.095  40.812   7.953
 6637POPC   C4A23130  12.114  40.735   7.653
 6637POPC   C1B23131  11.877  40.841   8.553
 6637POPC   C2B23132  11.842  40.819   8.253
 6637POPC   C3B23133  11.820  40.845   7.953
 6637POPC   C4B23134  11.799  40.865   7.653
 6638POPC   NC323135   9.719   5.074   9.453
 6638POPC   PO423136   9.726   5.106   9.153
 6638POPC   GL123137   9.762   5.124   8.853
 6638POPC   GL223138   9.651   5.125   8.853
 6638POPC   C1A23139   9.774   5.112   8.553
 6638POPC   D2A23140   9.737   5.063   8.253
 6638POPC   C3A23141   9.709   5.090   7.953
 6638POPC   C4A23142   9.740   5.103   7.653
 6638POPC   C1B23143   9.482   5.116   8.553
 6638POPC   C2B23144   9.515   5.128   8.253
 6638POPC   C3B23145   9.509   5.141   7.953
 6638POPC   C4B23146   9.512   5.114   7.653
 6639POPC   NC323147  33.005  34.564   9.453
 6639POPC   PO423148  33.028  34.544   9.153
 6639POPC   GL123149  33.054  34.528   8.853
 6639POPC   GL223150  33.107  34.617   8.853
 6639POPC   C1A23151  33.022  34.582   8.553
 6639POPC   D2A23152  33.052  34.612   8.253
 6639POPC   C3A23153  33.021  34.531   7.953
 6639POPC   C4A23154  33.032  34.561   7.653
 6639POPC   C1B23155  33.192  34.788   8.553
 6639POPC   C2B23156  33.179  34.753   8.253
 6639POPC   C3B23157  33.211  34.709   7.953
 6639POPC   C4B23158  33.256  34.724   7.653
 6640POPC   NC323159  44.712   8.168   9.453
 6640POPC   PO423160  44.695   8.209   9.153
 6640POPC   GL123161  44.680   8.215   8.853
 6640POPC   GL223162  44.720   8.353   8.853
 6640POPC   C1A23163  44.692   8.186   8.553
 6640POPC   D2A23164  44.672   8.226   8.253
 6640POPC   C3A23165  44.621   8.241   7.953
 6640POPC   C4A23166  44.632   8.246   7.653
 6640POPC   C1B23167  44.776   8.396   8.553
 6640POPC   C2B23168  44.743   8.405   8.253
 6640POPC   C3B23169  44.770   8.382   7.953
 6640POPC   C4B23170  44.760   8.401   7.653
 6641POPC   NC323171  34.547   7.382   9.453
 6641POPC   PO423172  34.594   7.450   9.153
 6641POPC   GL123173  34.615   7.397   8.853
 6641POPC   GL223174  34.709   7.407   8.853
 6641POPC   C1A23175  34.582   7.435   8.553
 6641POPC   D2A23176  34.583   7.389   8.253
 6641POPC   C3A23177  34.616   7.428   7.953
 6641POPC   C4A23178  34.616   7.444   7.653
 6641POPC   C1B23179  34.840   7.279   8.553
 6641POPC   C2B23180  34.815   7.308   8.253
 6641POPC   C3B23181  34.845   7.303   7.953
 6641POPC   C4B23182  34.767   7.305   7.653
 6642POPC   NC323183  18.297  19.023   9.453
 6642POPC   PO423184  18.268  19.076   9.153
 6642POPC   GL123185  18.267  19.062   8.853
 6642POPC   GL223186  18.382  19.119   8.853
 6642POPC   C1A23187  18.283  19.039   8.553
 6642POPC   D2A23188  18.308  19.079   8.253
 6642POPC   C3A23189  18.253  19.063   7.953
 6642POPC   C4A23190  18.300  19.076   7.653
 6642POPC   C1B23191  18.537  19.034   8.553
 6642POPC   C2B23192  18.551  19.110   8.253
 6642POPC   C3B23193  18.515  19.062   7.953
 6642POPC   C4B23194  18.549  19.073   7.653
 6643POPC   NC323195  40.003  18.329   9.453
 6643POPC   PO423196  40.000  18.291   9.153
 6643POPC   GL123197  40.010  18.305   8.853
 6643POPC   GL223198  40.018  18.455   8.853
 6643POPC   C1A23199  39.980  18.289   8.553
 6643POPC   D2A23200  39.965  18.249   8.253
 6643POPC   C3A23201  40.041  18.322   7.953
 6643POPC   C4A23202  40.042  18.268   7.653
 6643POPC   C1B23203  40.009  18.518   8.553
 6643POPC   C2B23204  39.978  18.512   8.253
 6643POPC   C3B23205  39.979  18.524   7.953
 6643POPC   C4B23206  39.931  18.508   7.653
 6644POPC   NC323207  40.739  39.204   9.453
 6644POPC   PO423208  40.791  39.201   9.153
 6644POPC   GL123209  40.737  39.272   8.853
 6644POPC   GL223210  40.898  39.355   8.853
 6644POPC   C1A23211  40.827  39.232   8.553
 6644POPC   D2A23212  40.751  39.222   8.253
 6644POPC   C3A23213  40.760  39.188   7.953
 6644POPC   C4A23214  40.798  39.186   7.653
 6644POPC   C1B23215  40.952  39.390   8.553
 6644POPC   C2B23216  40.949  39.455   8.253
 6644POPC   C3B23217  40.901  39.465   7.953
 6644POPC   C4B23218  40.919  39.463   7.653
 6645POPC   NC323219   4.345  44.639   9.453
 6645POPC   PO423220   4.284  44.665   9.153
 6645POPC   GL123221   4.338  44.655   8.853
 6645POPC   GL223222   4.213  44.613   8.853
 6645POPC   C1A23223   4.292  44.653   8.553
 6645POPC   D2A23224   4.317  44.627   8.253
 6645POPC   C3A23225   4.343  44.648   7.953
 6645POPC   C4A23226   4.317  44.619   7.653
 6645POPC   C1B23227   4.070  44.489   8.553
 6645POPC   C2B23228   4.115  44.510   8.253
 6645POPC   C3B23229   4.149  44.567   7.953
 6645POPC   C4B23230   4.137  44.518   7.653
 6646POPC   NC323231  29.906  11.302   9.453
 6646POPC   PO423232  29.932  11.305   9.153
 6646POPC   GL123233  29.876  11.326   8.853
 6646POPC   GL223234  29.845  11.363   8.853
 6646POPC   C1A23235  29.912  11.321   8.553
 6646POPC   D2A23236  29.951  11.309   8.253
 6646POPC   C3A23237  29.885  11.291   7.953
 6646POPC   C4A23238  29.873  11.252   7.653
 6646POPC   C1B23239  29.707  11.311   8.553
 6646POPC   C2B23240  29.666  11.351   8.253
 6646POPC   C3B23241  29.715  11.338   7.953
 6646POPC   C4B23242  29.648  11.358   7.653
 6647POPC   NC323243  18.250   6.630   9.453
 6647POPC   PO423244  18.318   6.691   9.153
 6647POPC   GL123245  18.246   6.667   8.853
 6647POPC   GL223246  18.170   6.624   8.853
 6647POPC   C1A23247  18.249   6.628   8.553
 6647POPC   D2A23248  18.288   6.672   8.253
 6647POPC   C3A23249  18.326   6.611   7.953
 6647POPC   C4A23250  18.325   6.675   7.653
 6647POPC   C1B23251  18.071   6.644   8.553
 6647POPC   C2B23252  18.076   6.592   8.253
 6647POPC   C3B23253  18.022   6.614   7.953
 6647POPC   C4B23254  18.066   6.623   7.653
 6648POPC   NC323255  42.350  38.502   9.453
 6648POPC   PO423256  42.313  38.442   9.153
 6648POPC   GL123257  42.370  38.501   8.853
 6648POPC   GL223258  42.327  38.619   8.853
 6648POPC   C1A23259  42.308  38.405   8.553
 6648POPC   D2A23260  42.296  38.408   8.253
 6648POPC   C3A23261  42.291  38.494   7.953
 6648POPC   C4A23262  42.306  38.471   7.653
 6648POPC   C1B23263  42.387  38.660   8.553
 6648POPC   C2B23264  42.352  38.729   8.253
 6648POPC   C3B23265  42.381  38.712   7.953
 6648POPC   C4B23266  42.366  38.704   7.653
 6649POPC   NC323267  27.595  17.479   9.453
 6649POPC   PO423268  27.547  17.482   9.153
 6649POPC   GL123269  27.581  17.546   8.853
 6649POPC   GL223270  27.641  17.394   8.853
 6649POPC   C1A23271  27.545  17.483   8.553
 6649POPC   D2A23272  27.551  17.541   8.253
 6649POPC   C3A23273  27.545  17.551   7.953
 6649POPC   C4A23274  27.574  17.458   7.653
 6649POPC   C1B23275  27.706  17.319   8.553
 6649POPC   C2B23276  27.625  17.268   8.253
 6649POPC   C3B23277  27.629  17.311   7.953
 6649POPC   C4B23278  27.704  17.229   7.653
 6650POPC   NC323279  32.244   4.274   9.453
 6650POPC   PO423280  32.290   4.344   9.153
 6650POPC   GL123281  32.274   4.279   8.853
 6650POPC   GL223282  32.313   4.459   8.853
 6650POPC   C1A23283  32.274   4.323   8.553
 6650POPC   D2A23284  32.270   4.312   8.253
 6650POPC   C3A23285  32.213   4.366   7.953
 6650POPC   C4A23286  32.262   4.341   7.653
 6650POPC   C1B23287  32.347   4.561   8.553
 6650POPC   C2B23288  32.368   4.510   8.253
 6650POPC   C3B23289  32.340   4.524   7.953
 6650POPC   C4B23290  32.338   4.496   7.653
 6651POPC   NC323291  15.938  19.090   9.453
 6651POPC   PO423292  15.920  19.042   9.153
 6651POPC   GL123293  15.910  19.065   8.853
 6651POPC   GL223294  15.895  19.167   8.853
 6651POPC   C1A23295  15.948  19.051   8.553
 6651POPC   D2A23296  15.986  19.043   8.253
 6651POPC   C3A23297  15.917  19.053   7.953
 6651POPC   C4A23298  15.972  19.104   7.653
 6651POPC   C1B23299  15.706  19.228   8.553
 6651POPC   C2B23300  15.757  19.218   8.253
 6651POPC   C3B23301  15.756  19.249   7.953
 6651POPC   C4B23302  15.755  19.183   7.653
 6652POPC   NC323303  36.089  42.326   9.453
 6652POPC   PO423304  36.095  42.367   9.153
 6652POPC   GL123305  36.162  42.344   8.853
 6652POPC   GL223306  36.098  42.397   8.853
 6652POPC   C1A23307  36.147  42.288   8.553
 6652POPC   D2A23308  36.174  42.353   8.253
 6652POPC   C3A23309  36.146  42.302   7.953
 6652POPC   C4A23310  36.117  42.367   7.653
 6652POPC   C1B23311  35.985  42.581   8.553
 6652POPC   C2B23312  35.971  42.565   8.253
 6652POPC   C3B23313  35.967  42.582   7.953
 6652POPC   C4B23314  36.015  42.491   7.653
 6653POPC   NC323315  39.191  16.762   9.453
 6653POPC   PO423316  39.254  16.730   9.153
 6653POPC   GL123317  39.191  16.685   8.853
 6653POPC   GL223318  39.308  16.754   8.853
 6653POPC   C1A23319  39.204  16.775   8.553
 6653POPC   D2A23320  39.266  16.699   8.253
 6653POPC   C3A23321  39.226  16.722   7.953
 6653POPC   C4A23322  39.235  16.742   7.653
 6653POPC   C1B23323  39.459  16.914   8.553
 6653POPC   C2B23324  39.453  16.900   8.253
 6653POPC   C3B23325  39.462  16.854   7.953
 6653POPC   C4B23326  39.469  16.912   7.653
 6654POPC   NC323327  38.430  19.011   9.453
 6654POPC   PO423328  38.482  19.066   9.153
 6654POPC   GL123329  38.422  19.105   8.853
 6654POPC   GL223330  38.465  19.225   8.853
 6654POPC   C1A23331  38.457  19.086   8.553
 6654POPC   D2A23332  38.501  19.075   8.253
 6654POPC   C3A23333  38.411  19.061   7.953
 6654POPC   C4A23334  38.489  19.105   7.653
 6654POPC   C1B23335  38.547  19.281   8.553
 6654POPC   C2B23336  38.504  19.284   8.253
 6654POPC   C3B23337  38.479  19.348   7.953
 6654POPC   C4B23338  38.502  19.316   7.653
 6655POPC   NC323339  21.393   5.071   9.453
 6655POPC   PO423340  21.372   5.113   9.153
 6655POPC   GL123341  21.381   5.134   8.853
 6655POPC   GL223342  21.543   5.098   8.853
 6655POPC   C1A23343  21.381   5.098   8.553
 6655POPC   D2A23344  21.395   5.100   8.253
 6655POPC   C3A23345  21.343   5.079   7.953
 6655POPC   C4A23346  21.402   5.129   7.653
 6655POPC   C1B23347  21.667   5.087   8.553
 6655POPC   C2B23348  21.664   5.059   8.253
 6655POPC   C3B23349  21.658   5.022   7.953
 6655POPC   C4B23350  21.680   5.050   7.653
 6656POPC   NC323351   9.003  43.064   9.453
 6656POPC   PO423352   8.946  43.157   9.153
 6656POPC   GL123353   9.017  43.069   8.853
 6656POPC   GL223354   9.062  43.062   8.853
 6656POPC   C1A23355   8.941  43.114   8.553
 6656POPC   D2A23356   8.994  43.121   8.253
 6656POPC   C3A23357   8.925  43.100   7.953
 6656POPC   C4A23358   8.932  43.084   7.653
 6656POPC   C1B23359   9.214  42.972   8.553
 6656POPC   C2B23360   9.152  42.951   8.253
 6656POPC   C3B23361   9.202  43.005   7.953
 6656POPC   C4B23362   9.193  42.993   7.653
 6657POPC   NC323363  44.653  35.324   9.453
 6657POPC   PO423364  44.697  35.377   9.153
 6657POPC   GL123365  44.635  35.327   8.853
 6657POPC   GL223366  44.589  35.478   8.853
 6657POPC   C1A23367  44.708  35.386   8.553
 6657POPC   D2A23368  44.686  35.355   8.253
 6657POPC   C3A23369  44.686  35.348   7.953
 6657POPC   C4A23370  44.647  35.331   7.653
 6657POPC   C1B23371  44.506  35.619   8.553
 6657POPC   C2B23372  44.503  35.537   8.253
 6657POPC   C3B23373  44.556  35.611   7.953
 6657POPC   C4B23374  44.525  35.581   7.653
 6658POPC   NC323375   4.364  33.787   9.453
 6658POPC   PO423376   4.362  33.838   9.153
 6658POPC   GL123377   4.292  33.790   8.853
 6658POPC   GL223378   4.352  33.959   8.853
 6658POPC   C1A23379   4.346  33.779   8.553
 6658POPC   D2A23380   4.335  33.773   8.253
 6658POPC   C3A23381   4.274  33.785   7.953
 6658POPC   C4A23382   4.362  33.813   7.653
 6658POPC   C1B23383   4.411  33.974   8.553
 6658POPC   C2B23384   4.419  33.974   8.253
 6658POPC   C3B23385   4.451  34.020   7.953
 6658POPC   C4B23386   4.447  33.980   7.653
 6659POPC   NC323387  32.254  32.246   9.453
 6659POPC   PO423388  32.258  32.225   9.153
 6659POPC   GL123389  32.220  32.217   8.853
 6659POPC   GL223390  32.153  32.249   8.853
 6659POPC   C1A23391  32.281  32.290   8.553
 6659POPC   D2A23392  32.270  32.290   8.253
 6659POPC   C3A23393  32.291  32.270   7.953
 6659POPC   C4A23394  32.284  32.242   7.653
 6659POPC   C1B23395  32.044  32.366   8.553
 6659POPC   C2B23396  32.004  32.394   8.253
 6659POPC   C3B23397  31.989  32.303   7.953
 6659POPC   C4B23398  31.970  32.324   7.653
 6660POPC   NC323399  33.045   0.390   9.453
 6660POPC   PO423400  33.006   0.402   9.153
 6660POPC   GL123401  33.064   0.407   8.853
 6660POPC   GL223402  32.892   0.474   8.853
 6660POPC   C1A23403  32.988   0.465   8.553
 6660POPC   D2A23404  33.009   0.406   8.253
 6660POPC   C3A23405  32.987   0.410   7.953
 6660POPC   C4A23406  32.991   0.478   7.653
 6660POPC   C1B23407  32.756   0.461   8.553
 6660POPC   C2B23408  32.826   0.496   8.253
 6660POPC   C3B23409  32.776   0.448   7.953
 6660POPC   C4B23410  32.744   0.459   7.653
 6661POPC   NC323411  26.867  33.047   9.453
 6661POPC   PO423412  26.827  33.030   9.153
 6661POPC   GL123413  26.799  32.983   8.853
 6661POPC   GL223414  26.924  33.026   8.853
 6661POPC   C1A23415  26.788  32.995   8.553
 6661POPC   D2A23416  26.831  33.011   8.253
 6661POPC   C3A23417  26.837  33.028   7.953
 6661POPC   C4A23418  26.861  32.992   7.653
 6661POPC   C1B23419  27.059  32.950   8.553
 6661POPC   C2B23420  27.073  32.961   8.253
 6661POPC   C3B23421  27.055  32.945   7.953
 6661POPC   C4B23422  27.096  32.935   7.653
 6662POPC   NC323423  15.207  29.885   9.453
 6662POPC   PO423424  15.217  29.895   9.153
 6662POPC   GL123425  15.210  29.944   8.853
 6662POPC   GL223426  15.280  29.835   8.853
 6662POPC   C1A23427  15.209  29.933   8.553
 6662POPC   D2A23428  15.178  29.903   8.253
 6662POPC   C3A23429  15.132  29.963   7.953
 6662POPC   C4A23430  15.176  29.906   7.653
 6662POPC   C1B23431  15.263  29.665   8.553
 6662POPC   C2B23432  15.263  29.737   8.253
 6662POPC   C3B23433  15.277  29.722   7.953
 6662POPC   C4B23434  15.263  29.681   7.653
 6663POPC   NC323435  43.150   1.953   9.453
 6663POPC   PO423436  43.134   1.965   9.153
 6663POPC   GL123437  43.071   1.958   8.853
 6663POPC   GL223438  43.211   2.044   8.853
 6663POPC   C1A23439  43.079   2.034   8.553
 6663POPC   D2A23440  43.075   1.988   8.253
 6663POPC   C3A23441  43.122   2.018   7.953
 6663POPC   C4A23442  43.072   1.970   7.653
 6663POPC   C1B23443  43.289   2.205   8.553
 6663POPC   C2B23444  43.228   2.211   8.253
 6663POPC   C3B23445  43.249   2.154   7.953
 6663POPC   C4B23446  43.208   2.204   7.653
 6664POPC   NC323447  28.334   8.155   9.453
 6664POPC   PO423448  28.352   8.193   9.153
 6664POPC   GL123449  28.399   8.199   8.853
 6664POPC   GL223450  28.345   8.117   8.853
 6664POPC   C1A23451  28.345   8.215   8.553
 6664POPC   D2A23452  28.405   8.208   8.253
 6664POPC   C3A23453  28.323   8.147   7.953
 6664POPC   C4A23454  28.368   8.214   7.653
 6664POPC   C1B23455  28.339   7.955   8.553
 6664POPC   C2B23456  28.325   7.979   8.253
 6664POPC   C3B23457  28.274   7.996   7.953
 6664POPC   C4B23458  28.362   7.929   7.653
 6665POPC   NC323459   5.847  43.847   9.453
 6665POPC   PO423460   5.904  43.887   9.153
 6665POPC   GL123461   5.846  43.874   8.853
 6665POPC   GL223462   5.965  43.904   8.853
 6665POPC   C1A23463   5.874  43.869   8.553
 6665POPC   D2A23464   5.916  43.887   8.253
 6665POPC   C3A23465   5.853  43.913   7.953
 6665POPC   C4A23466   5.836  43.881   7.653
 6665POPC   C1B23467   6.088  43.911   8.553
 6665POPC   C2B23468   6.127  43.917   8.253
 6665POPC   C3B23469   6.089  43.950   7.953
 6665POPC   C4B23470   6.064  43.928   7.653
 6666POPC   NC323471  30.722  24.462   9.453
 6666POPC   PO423472  30.730  24.531   9.153
 6666POPC   GL123473  30.706  24.539   8.853
 6666POPC   GL223474  30.654  24.644   8.853
 6666POPC   C1A23475  30.740  24.449   8.553
 6666POPC   D2A23476  30.675  24.512   8.253
 6666POPC   C3A23477  30.684  24.449   7.953
 6666POPC   C4A23478  30.730  24.442   7.653
 6666POPC   C1B23479  30.617  24.678   8.553
 6666POPC   C2B23480  30.548  24.737   8.253
 6666POPC   C3B23481  30.636  24.711   7.953
 6666POPC   C4B23482  30.618  24.749   7.653
 6667POPC   NC323483  22.914   6.676   9.453
 6667POPC   PO423484  22.977   6.675   9.153
 6667POPC   GL123485  22.910   6.688   8.853
 6667POPC   GL223486  22.850   6.751   8.853
 6667POPC   C1A23487  22.914   6.613   8.553
 6667POPC   D2A23488  22.935   6.628   8.253
 6667POPC   C3A23489  22.952   6.610   7.953
 6667POPC   C4A23490  22.955   6.660   7.653
 6667POPC   C1B23491  22.707   6.846   8.553
 6667POPC   C2B23492  22.771   6.827   8.253
 6667POPC   C3B23493  22.750   6.845   7.953
 6667POPC   C4B23494  22.725   6.814   7.653
 6668POPC   NC323495  43.841  23.716   9.453
 6668POPC   PO423496  43.921  23.712   9.153
 6668POPC   GL123497  43.870  23.695   8.853
 6668POPC   GL223498  43.954  23.552   8.853
 6668POPC   C1A23499  43.930  23.751   8.553
 6668POPC   D2A23500  43.859  23.749   8.253
 6668POPC   C3A23501  43.926  23.750   7.953
 6668POPC   C4A23502  43.864  23.716   7.653
 6668POPC   C1B23503  43.959  23.432   8.553
 6668POPC   C2B23504  43.942  23.459   8.253
 6668POPC   C3B23505  43.999  23.492   7.953
 6668POPC   C4B23506  44.014  23.528   7.653
 6669POPC   NC323507  14.402  39.192   9.453
 6669POPC   PO423508  14.408  39.266   9.153
 6669POPC   GL123509  14.422  39.188   8.853
 6669POPC   GL223510  14.426  39.087   8.853
 6669POPC   C1A23511  14.380  39.224   8.553
 6669POPC   D2A23512  14.391  39.240   8.253
 6669POPC   C3A23513  14.356  39.217   7.953
 6669POPC   C4A23514  14.364  39.237   7.653
 6669POPC   C1B23515  14.435  38.963   8.553
 6669POPC   C2B23516  14.424  39.034   8.253
 6669POPC   C3B23517  14.416  38.980   7.953
 6669POPC   C4B23518  14.441  39.018   7.653
 6670POPC   NC323519   2.770  35.317   9.453
 6670POPC   PO423520   2.744  35.304   9.153
 6670POPC   GL123521   2.725  35.313   8.853
 6670POPC   GL223522   2.614  35.321   8.853
 6670POPC   C1A23523   2.778  35.371   8.553
 6670POPC   D2A23524   2.751  35.358   8.253
 6670POPC   C3A23525   2.734  35.362   7.953
 6670POPC   C4A23526   2.800  35.393   7.653
 6670POPC   C1B23527   2.495  35.259   8.553
 6670POPC   C2B23528   2.535  35.276   8.253
 6670POPC   C3B23529   2.498  35.238   7.953
 6670POPC   C4B23530   2.509  35.246   7.653
 6671POPC   NC323531  25.309  23.726   9.453
 6671POPC   PO423532  25.262  23.696   9.153
 6671POPC   GL123533  25.310  23.699   8.853
 6671POPC   GL223534  25.376  23.739   8.853
 6671POPC   C1A23535  25.217  23.742   8.553
 6671POPC   D2A23536  25.262  23.680   8.253
 6671POPC   C3A23537  25.264  23.714   7.953
 6671POPC   C4A23538  25.292  23.691   7.653
 6671POPC   C1B23539  25.518  23.736   8.553
 6671POPC   C2B23540  25.502  23.740   8.253
 6671POPC   C3B23541  25.556  23.655   7.953
 6671POPC   C4B23542  25.521  23.650   7.653
 6672POPC   NC323543  29.141  12.032   9.453
 6672POPC   PO423544  29.113  12.070   9.153
 6672POPC   GL123545  29.175  12.119   8.853
 6672POPC   GL223546  29.172  12.172   8.853
 6672POPC   C1A23547  29.157  12.047   8.553
 6672POPC   D2A23548  29.118  12.060   8.253
 6672POPC   C3A23549  29.102  12.124   7.953
 6672POPC   C4A23550  29.131  12.074   7.653
 6672POPC   C1B23551  29.243  12.338   8.553
 6672POPC   C2B23552  29.154  12.281   8.253
 6672POPC   C3B23553  29.225  12.331   7.953
 6672POPC   C4B23554  29.216  12.358   7.653
 6673POPC   NC323555  33.834   3.506   9.453
 6673POPC   PO423556  33.774   3.540   9.153
 6673POPC   GL123557  33.831   3.497   8.853
 6673POPC   GL223558  33.785   3.379   8.853
 6673POPC   C1A23559  33.779   3.507   8.553
 6673POPC   D2A23560  33.837   3.566   8.253
 6673POPC   C3A23561  33.774   3.568   7.953
 6673POPC   C4A23562  33.784   3.496   7.653
 6673POPC   C1B23563  33.815   3.253   8.553
 6673POPC   C2B23564  33.875   3.277   8.253
 6673POPC   C3B23565  33.839   3.330   7.953
 6673POPC   C4B23566  33.832   3.260   7.653
 6674POPC   NC323567  20.597   5.124   9.453
 6674POPC   PO423568  20.648   5.052   9.153
 6674POPC   GL123569  20.618   5.053   8.853
 6674POPC   GL223570  20.487   5.135   8.853
 6674POPC   C1A23571  20.568   5.060   8.553
 6674POPC   D2A23572  20.564   5.045   8.253
 6674POPC   C3A23573  20.609   5.081   7.953
 6674POPC   C4A23574  20.563   5.135   7.653
 6674POPC   C1B23575  20.393   5.228   8.553
 6674POPC   C2B23576  20.420   5.234   8.253
 6674POPC   C3B23577  20.462   5.262   7.953
 6674POPC   C4B23578  20.411   5.314   7.653
 6675POPC   NC323579  27.626  41.576   9.453
 6675POPC   PO423580  27.543  41.548   9.153
 6675POPC   GL123581  27.613  41.548   8.853
 6675POPC   GL223582  27.472  41.424   8.853
 6675POPC   C1A23583  27.577  41.518   8.553
 6675POPC   D2A23584  27.601  41.518   8.253
 6675POPC   C3A23585  27.596  41.545   7.953
 6675POPC   C4A23586  27.642  41.544   7.653
 6675POPC   C1B23587  27.467  41.364   8.553
 6675POPC   C2B23588  27.407  41.332   8.253
 6675POPC   C3B23589  27.420  41.421   7.953
 6675POPC   C4B23590  27.403  41.354   7.653
 6676POPC   NC323591   0.428  35.329   9.453
 6676POPC   PO423592   0.469  35.359   9.153
 6676POPC   GL123593   0.454  35.316   8.853
 6676POPC   GL223594   0.301  35.327   8.853
 6676POPC   C1A23595   0.441  35.310   8.553
 6676POPC   D2A23596   0.418  35.324   8.253
 6676POPC   C3A23597   0.457  35.311   7.953
 6676POPC   C4A23598   0.457  35.383   7.653
 6676POPC   C1B23599   0.207  35.250   8.553
 6676POPC   C2B23600   0.238  35.288   8.253
 6676POPC   C3B23601   0.202  35.207   7.953
 6676POPC   C4B23602   0.159  35.292   7.653
 6677POPC   NC323603   5.064   5.867   9.453
 6677POPC   PO423604   5.056   5.835   9.153
 6677POPC   GL123605   5.067   5.889   8.853
 6677POPC   GL223606   5.186   5.865   8.853
 6677POPC   C1A23607   5.123   5.885   8.553
 6677POPC   D2A23608   5.087   5.832   8.253
 6677POPC   C3A23609   5.099   5.894   7.953
 6677POPC   C4A23610   5.068   5.914   7.653
 6677POPC   C1B23611   5.382   5.844   8.553
 6677POPC   C2B23612   5.372   5.829   8.253
 6677POPC   C3B23613   5.387   5.913   7.953
 6677POPC   C4B23614   5.312   5.916   7.653
 6678POPC   NC323615  19.088  43.872   9.453
 6678POPC   PO423616  19.097  43.933   9.153
 6678POPC   GL123617  19.079  43.930   8.853
 6678POPC   GL223618  18.951  43.787   8.853
 6678POPC   C1A23619  19.084  43.877   8.553
 6678POPC   D2A23620  19.080  43.906   8.253
 6678POPC   C3A23621  19.035  43.896   7.953
 6678POPC   C4A23622  19.063  43.847   7.653
 6678POPC   C1B23623  18.862  43.802   8.553
 6678POPC   C2B23624  18.873  43.718   8.253
 6678POPC   C3B23625  18.886  43.787   7.953
 6678POPC   C4B23626  18.844  43.725   7.653
 6679POPC   NC323627  30.674  14.402   9.453
 6679POPC   PO423628  30.706  14.397   9.153
 6679POPC   GL123629  30.669  14.374   8.853
 6679POPC   GL223630  30.791  14.330   8.853
 6679POPC   C1A23631  30.658  14.444   8.553
 6679POPC   D2A23632  30.729  14.383   8.253
 6679POPC   C3A23633  30.673  14.412   7.953
 6679POPC   C4A23634  30.702  14.392   7.653
 6679POPC   C1B23635  30.818  14.175   8.553
 6679POPC   C2B23636  30.824  14.167   8.253
 6679POPC   C3B23637  30.767  14.178   7.953
 6679POPC   C4B23638  30.765  14.198   7.653
 6680POPC   NC323639  38.445  44.709   9.453
 6680POPC   PO423640  38.499  44.697   9.153
 6680POPC   GL123641  38.405  44.676   8.853
 6680POPC   GL223642  38.371  44.596   8.853
 6680POPC   C1A23643  38.436  44.633   8.553
 6680POPC   D2A23644  38.484  44.692   8.253
 6680POPC   C3A23645  38.444  44.698   7.953
 6680POPC   C4A23646  38.462  44.683   7.653
 6680POPC   C1B23647  38.316  44.451   8.553
 6680POPC   C2B23648  38.283  44.472   8.253
 6680POPC   C3B23649  38.267  44.525   7.953
 6680POPC   C4B23650  38.327  44.529   7.653
 6681POPC   NC323651  39.200   7.468   9.453
 6681POPC   PO423652  39.215   7.408   9.153
 6681POPC   GL123653  39.193   7.398   8.853
 6681POPC   GL223654  39.136   7.435   8.853
 6681POPC   C1A23655  39.237   7.437   8.553
 6681POPC   D2A23656  39.230   7.460   8.253
 6681POPC   C3A23657  39.245   7.442   7.953
 6681POPC   C4A23658  39.201   7.378   7.653
 6681POPC   C1B23659  38.965   7.447   8.553
 6681POPC   C2B23660  38.944   7.410   8.253
 6681POPC   C3B23661  38.954   7.418   7.953
 6681POPC   C4B23662  38.980   7.398   7.653
 6682POPC   NC323663  42.349   8.927   9.453
 6682POPC   PO423664  42.344   8.925   9.153
 6682POPC   GL123665  42.376   8.925   8.853
 6682POPC   GL223666  42.482   8.944   8.853
 6682POPC   C1A23667  42.327   8.954   8.553
 6682POPC   D2A23668  42.372   8.975   8.253
 6682POPC   C3A23669  42.346   8.996   7.953
 6682POPC   C4A23670  42.288   8.950   7.653
 6682POPC   C1B23671  42.575   9.031   8.553
 6682POPC   C2B23672  42.621   8.980   8.253
 6682POPC   C3B23673  42.583   8.978   7.953
 6682POPC   C4B23674  42.633   8.964   7.653
 6683POPC   NC323675  43.848  25.219   9.453
 6683POPC   PO423676  43.879  25.302   9.153
 6683POPC   GL123677  43.875  25.246   8.853
 6683POPC   GL223678  43.862  25.353   8.853
 6683POPC   C1A23679  43.876  25.220   8.553
 6683POPC   D2A23680  43.921  25.272   8.253
 6683POPC   C3A23681  43.935  25.222   7.953
 6683POPC   C4A23682  43.882  25.275   7.653
 6683POPC   C1B23683  43.899  25.499   8.553
 6683POPC   C2B23684  43.915  25.539   8.253
 6683POPC   C3B23685  43.847  25.546   7.953
 6683POPC   C4B23686  43.850  25.532   7.653
 6684POPC   NC323687  20.623  15.945   9.453
 6684POPC   PO423688  20.570  15.989   9.153
 6684POPC   GL123689  20.590  15.925   8.853
 6684POPC   GL223690  20.587  16.027   8.853
 6684POPC   C1A23691  20.643  15.908   8.553
 6684POPC   D2A23692  20.565  15.974   8.253
 6684POPC   C3A23693  20.644  15.923   7.953
 6684POPC   C4A23694  20.568  15.945   7.653
 6684POPC   C1B23695  20.531  16.172   8.553
 6684POPC   C2B23696  20.489  16.225   8.253
 6684POPC   C3B23697  20.500  16.154   7.953
 6684POPC   C4B23698  20.504  16.180   7.653
 6685POPC   NC323699   9.774  41.598   9.453
 6685POPC   PO423700   9.777  41.568   9.153
 6685POPC   GL123701   9.765  41.591   8.853
 6685POPC   GL223702   9.699  41.673   8.853
 6685POPC   C1A23703   9.714  41.511   8.553
 6685POPC   D2A23704   9.778  41.596   8.253
 6685POPC   C3A23705   9.761  41.578   7.953
 6685POPC   C4A23706   9.782  41.556   7.653
 6685POPC   C1B23707   9.686  41.807   8.553
 6685POPC   C2B23708   9.680  41.808   8.253
 6685POPC   C3B23709   9.697  41.817   7.953
 6685POPC   C4B23710   9.617  41.792   7.653
 6686POPC   NC323711  39.185  20.582   9.453
 6686POPC   PO423712  39.186  20.578   9.153
 6686POPC   GL123713  39.222  20.622   8.853
 6686POPC   GL223714  39.264  20.528   8.853
 6686POPC   C1A23715  39.210  20.563   8.553
 6686POPC   D2A23716  39.243  20.633   8.253
 6686POPC   C3A23717  39.238  20.619   7.953
 6686POPC   C4A23718  39.231  20.574   7.653
 6686POPC   C1B23719  39.369  20.446   8.553
 6686POPC   C2B23720  39.394  20.421   8.253
 6686POPC   C3B23721  39.382  20.393   7.953
 6686POPC   C4B23722  39.377  20.409   7.653
 6687POPC   NC323723  15.924  37.660   9.453
 6687POPC   PO423724  15.965  37.706   9.153
 6687POPC   GL123725  15.936  37.636   8.853
 6687POPC   GL223726  15.858  37.732   8.853
 6687POPC   C1A23727  15.963  37.697   8.553
 6687POPC   D2A23728  15.944  37.690   8.253
 6687POPC   C3A23729  15.944  37.695   7.953
 6687POPC   C4A23730  15.909  37.679   7.653
 6687POPC   C1B23731  15.719  37.788   8.553
 6687POPC   C2B23732  15.697  37.858   8.253
 6687POPC   C3B23733  15.698  37.824   7.953
 6687POPC   C4B23734  15.723  37.812   7.653
 6688POPC   NC323735  19.061  27.577   9.453
 6688POPC   PO423736  19.020  27.624   9.153
 6688POPC   GL123737  19.086  27.571   8.853
 6688POPC   GL223738  19.020  27.517   8.853
 6688POPC   C1A23739  19.010  27.623   8.553
 6688POPC   D2A23740  19.104  27.550   8.253
 6688POPC   C3A23741  19.088  27.604   7.953
 6688POPC   C4A23742  19.025  27.549   7.653
 6688POPC   C1B23743  18.963  27.372   8.553
 6688POPC   C2B23744  18.984  27.388   8.253
 6688POPC   C3B23745  18.943  27.335   7.953
 6688POPC   C4B23746  18.910  27.422   7.653
 6689POPC   NC323747  29.953  29.966   9.453
 6689POPC   PO423748  29.911  29.895   9.153
 6689POPC   GL123749  29.941  29.922   8.853
 6689POPC   GL223750  30.035  29.782   8.853
 6689POPC   C1A23751  29.928  29.965   8.553
 6689POPC   D2A23752  29.940  29.927   8.253
 6689POPC   C3A23753  29.957  29.948   7.953
 6689POPC   C4A23754  29.935  29.901   7.653
 6689POPC   C1B23755  30.088  29.765   8.553
 6689POPC   C2B23756  30.122  29.728   8.253
 6689POPC   C3B23757  30.060  29.733   7.953
 6689POPC   C4B23758  30.119  29.750   7.653
 6690POPC   NC323759  42.318  27.549   9.453
 6690POPC   PO423760  42.299  27.572   9.153
 6690POPC   GL123761  42.339  27.605   8.853
 6690POPC   GL223762  42.369  27.429   8.853
 6690POPC   C1A23763  42.355  27.628   8.553
 6690POPC   D2A23764  42.364  27.631   8.253
 6690POPC   C3A23765  42.378  27.570   7.953
 6690POPC   C4A23766  42.300  27.597   7.653
 6690POPC   C1B23767  42.384  27.390   8.553
 6690POPC   C2B23768  42.389  27.371   8.253
 6690POPC   C3B23769  42.366  27.370   7.953
 6690POPC   C4B23770  42.329  27.300   7.653
 6691POPC   NC323771  44.682  22.968   9.453
 6691POPC   PO423772  44.638  22.924   9.153
 6691POPC   GL123773  44.707  22.968   8.853
 6691POPC   GL223774  44.633  22.798   8.853
 6691POPC   C1A23775  44.651  22.955   8.553
 6691POPC   D2A23776  44.619  22.941   8.253
 6691POPC   C3A23777  44.612  22.986   7.953
 6691POPC   C4A23778  44.708  22.917   7.653
 6691POPC   C1B23779  44.699  22.664   8.553
 6691POPC   C2B23780  44.653  22.726   8.253
 6691POPC   C3B23781  44.666  22.737   7.953
 6691POPC   C4B23782  44.668  22.670   7.653
 6692POPC   NC323783  26.799   2.750   9.453
 6692POPC   PO423784  26.820   2.751   9.153
 6692POPC   GL123785  26.830   2.785   8.853
 6692POPC   GL223786  26.734   2.684   8.853
 6692POPC   C1A23787  26.829   2.804   8.553
 6692POPC   D2A23788  26.809   2.719   8.253
 6692POPC   C3A23789  26.861   2.794   7.953
 6692POPC   C4A23790  26.804   2.740   7.653
 6692POPC   C1B23791  26.575   2.678   8.553
 6692POPC   C2B23792  26.592   2.645   8.253
 6692POPC   C3B23793  26.618   2.670   7.953
 6692POPC   C4B23794  26.648   2.607   7.653
 6693POPC   NC323795  38.430  15.166   9.453
 6693POPC   PO423796  38.430  15.135   9.153
 6693POPC   GL123797  38.410  15.134   8.853
 6693POPC   GL223798  38.327  15.138   8.853
 6693POPC   C1A23799  38.426  15.217   8.553
 6693POPC   D2A23800  38.464  15.178   8.253
 6693POPC   C3A23801  38.413  15.132   7.953
 6693POPC   C4A23802  38.468  15.191   7.653
 6693POPC   C1B23803  38.264  15.034   8.553
 6693POPC   C2B23804  38.302  15.011   8.253
 6693POPC   C3B23805  38.231  15.029   7.953
 6693POPC   C4B23806  38.300  15.052   7.653
 6694POPC   NC323807  43.097  29.914   9.453
 6694POPC   PO423808  43.138  29.898   9.153
 6694POPC   GL123809  43.085  29.934   8.853
 6694POPC   GL223810  43.253  29.885   8.853
 6694POPC   C1A23811  43.155  29.905   8.553
 6694POPC   D2A23812  43.071  29.970   8.253
 6694POPC   C3A23813  43.114  29.920   7.953
 6694POPC   C4A23814  43.096  29.951   7.653
 6694POPC   C1B23815  43.320  29.889   8.553
 6694POPC   C2B23816  43.385  29.872   8.253
 6694POPC   C3B23817  43.354  29.818   7.953
 6694POPC   C4B23818  43.380  29.814   7.653
 6695POPC   NC323819  24.508  16.714   9.453
 6695POPC   PO423820  24.443  16.775   9.153
 6695POPC   GL123821  24.453  16.713   8.853
 6695POPC   GL223822  24.370  16.700   8.853
 6695POPC   C1A23823  24.528  16.722   8.553
 6695POPC   D2A23824  24.519  16.691   8.253
 6695POPC   C3A23825  24.490  16.718   7.953
 6695POPC   C4A23826  24.519  16.707   7.653
 6695POPC   C1B23827  24.209  16.614   8.553
 6695POPC   C2B23828  24.267  16.595   8.253
 6695POPC   C3B23829  24.228  16.599   7.953
 6695POPC   C4B23830  24.210  16.619   7.653
 6696POPC   NC323831  11.332  26.779   9.453
 6696POPC   PO423832  11.314  26.786   9.153
 6696POPC   GL123833  11.313  26.812   8.853
 6696POPC   GL223834  11.304  26.936   8.853
 6696POPC   C1A23835  11.346  26.774   8.553
 6696POPC   D2A23836  11.334  26.815   8.253
 6696POPC   C3A23837  11.348  26.785   7.953
 6696POPC   C4A23838  11.256  26.836   7.653
 6696POPC   C1B23839  11.378  27.070   8.553
 6696POPC   C2B23840  11.364  27.092   8.253
 6696POPC   C3B23841  11.361  27.023   7.953
 6696POPC   C4B23842  11.396  27.029   7.653
 6697POPC   NC323843  20.647  27.603   9.453
 6697POPC   PO423844  20.578  27.584   9.153
 6697POPC   GL123845  20.647  27.605   8.853
 6697POPC   GL223846  20.453  27.569   8.853
 6697POPC   C1A23847  20.632  27.609   8.553
 6697POPC   D2A23848  20.593  27.632   8.253
 6697POPC   C3A23849  20.639  27.579   7.953
 6697POPC   C4A23850  20.654  27.565   7.653
 6697POPC   C1B23851  20.427  27.518   8.553
 6697POPC   C2B23852  20.365  27.430   8.253
 6697POPC   C3B23853  20.354  27.451   7.953
 6697POPC   C4B23854  20.371  27.494   7.653
 6698POPC   NC323855  26.074  25.314   9.453
 6698POPC   PO423856  25.997  25.273   9.153
 6698POPC   GL123857  26.059  25.260   8.853
 6698POPC   GL223858  26.125  25.378   8.853
 6698POPC   C1A23859  26.009  25.301   8.553
 6698POPC   D2A23860  25.996  25.223   8.253
 6698POPC   C3A23861  25.994  25.237   7.953
 6698POPC   C4A23862  25.998  25.233   7.653
 6698POPC   C1B23863  26.154  25.464   8.553
 6698POPC   C2B23864  26.203  25.500   8.253
 6698POPC   C3B23865  26.180  25.493   7.953
 6698POPC   C4B23866  26.220  25.479   7.653
 6699POPC   NC323867  39.187  28.395   9.453
 6699POPC   PO423868  39.273  28.353   9.153
 6699POPC   GL123869  39.233  28.384   8.853
 6699POPC   GL223870  39.142  28.337   8.853
 6699POPC   C1A23871  39.204  28.376   8.553
 6699POPC   D2A23872  39.225  28.406   8.253
 6699POPC   C3A23873  39.185  28.364   7.953
 6699POPC   C4A23874  39.260  28.339   7.653
 6699POPC   C1B23875  39.004  28.200   8.553
 6699POPC   C2B23876  39.006  28.169   8.253
 6699POPC   C3B23877  39.009  28.175   7.953
 6699POPC   C4B23878  39.081  28.194   7.653
 6700POPC   NC323879  42.311   4.280   9.453
 6700POPC   PO423880  42.310   4.365   9.153
 6700POPC   GL123881  42.321   4.310   8.853
 6700POPC   GL223882  42.309   4.463   8.853
 6700POPC   C1A23883  42.337   4.346   8.553
 6700POPC   D2A23884  42.346   4.331   8.253
 6700POPC   C3A23885  42.366   4.354   7.953
 6700POPC   C4A23886  42.326   4.353   7.653
 6700POPC   C1B23887  42.274   4.554   8.553
 6700POPC   C2B23888  42.291   4.522   8.253
 6700POPC   C3B23889  42.310   4.560   7.953
 6700POPC   C4B23890  42.334   4.567   7.653
 6701POPC   NC323891   9.018  13.641   9.453
 6701POPC   PO423892   8.956  13.675   9.153
 6701POPC   GL123893   8.945  13.587   8.853
 6701POPC   GL223894   9.060  13.704   8.853
 6701POPC   C1A23895   8.990  13.660   8.553
 6701POPC   D2A23896   9.007  13.655   8.253
 6701POPC   C3A23897   9.015  13.593   7.953
 6701POPC   C4A23898   8.946  13.609   7.653
 6701POPC   C1B23899   9.165  13.705   8.553
 6701POPC   C2B23900   9.203  13.722   8.253
 6701POPC   C3B23901   9.202  13.740   7.953
 6701POPC   C4B23902   9.173  13.701   7.653
 6702POPC   NC323903  32.985   9.728   9.453
 6702POPC   PO423904  32.994   9.761   9.153
 6702POPC   GL123905  33.069   9.738   8.853
 6702POPC   GL223906  33.065   9.854   8.853
 6702POPC   C1A23907  33.058   9.781   8.553
 6702POPC   D2A23908  33.040   9.758   8.253
 6702POPC   C3A23909  32.998   9.758   7.953
 6702POPC   C4A23910  33.039   9.754   7.653
 6702POPC   C1B23911  33.206   9.905   8.553
 6702POPC   C2B23912  33.193   9.930   8.253
 6702POPC   C3B23913  33.197   9.961   7.953
 6702POPC   C4B23914  33.209   9.954   7.653
 6703POPC   NC323915  29.102  40.780   9.453
 6703POPC   PO423916  29.155  40.741   9.153
 6703POPC   GL123917  29.102  40.742   8.853
 6703POPC   GL223918  29.088  40.892   8.853
 6703POPC   C1A23919  29.131  40.785   8.553
 6703POPC   D2A23920  29.171  40.828   8.253
 6703POPC   C3A23921  29.143  40.831   7.953
 6703POPC   C4A23922  29.161  40.801   7.653
 6703POPC   C1B23923  29.135  40.991   8.553
 6703POPC   C2B23924  29.139  41.051   8.253
 6703POPC   C3B23925  29.144  41.014   7.953
 6703POPC   C4B23926  29.159  41.072   7.653
 6704POPC   NC323927  10.543   2.776   9.453
 6704POPC   PO423928  10.495   2.797   9.153
 6704POPC   GL123929  10.488   2.742   8.853
 6704POPC   GL223930  10.594   2.630   8.853
 6704POPC   C1A23931  10.552   2.781   8.553
 6704POPC   D2A23932  10.495   2.779   8.253
 6704POPC   C3A23933  10.480   2.781   7.953
 6704POPC   C4A23934  10.522   2.733   7.653
 6704POPC   C1B23935  10.642   2.600   8.553
 6704POPC   C2B23936  10.703   2.523   8.253
 6704POPC   C3B23937  10.687   2.557   7.953
 6704POPC   C4B23938  10.705   2.570   7.653
 6705POPC   NC323939  12.111  30.718   9.453
 6705POPC   PO423940  12.103  30.653   9.153
 6705POPC   GL123941  12.045  30.667   8.853
 6705POPC   GL223942  12.098  30.583   8.853
 6705POPC   C1A23943  12.084  30.647   8.553
 6705POPC   D2A23944  12.049  30.722   8.253
 6705POPC   C3A23945  12.047  30.736   7.953
 6705POPC   C4A23946  12.110  30.714   7.653
 6705POPC   C1B23947  12.137  30.418   8.553
 6705POPC   C2B23948  12.191  30.454   8.253
 6705POPC   C3B23949  12.110  30.498   7.953
 6705POPC   C4B23950  12.192  30.437   7.653
 6706POPC   NC323951  26.798  15.204   9.453
 6706POPC   PO423952  26.857  15.170   9.153
 6706POPC   GL123953  26.775  15.171   8.853
 6706POPC   GL223954  26.958  15.128   8.853
 6706POPC   C1A23955  26.839  15.164   8.553
 6706POPC   D2A23956  26.810  15.220   8.253
 6706POPC   C3A23957  26.770  15.207   7.953
 6706POPC   C4A23958  26.857  15.222   7.653
 6706POPC   C1B23959  27.088  15.150   8.553
 6706POPC   C2B23960  27.053  15.076   8.253
 6706POPC   C3B23961  27.028  15.146   7.953
 6706POPC   C4B23962  27.041  15.127   7.653
 6707POPC   NC323963  38.437  18.333   9.453
 6707POPC   PO423964  38.500  18.246   9.153
 6707POPC   GL123965  38.483  18.259   8.853
 6707POPC   GL223966  38.558  18.206   8.853
 6707POPC   C1A23967  38.455  18.323   8.553
 6707POPC   D2A23968  38.438  18.248   8.253
 6707POPC   C3A23969  38.418  18.297   7.953
 6707POPC   C4A23970  38.483  18.280   7.653
 6707POPC   C1B23971  38.713  18.203   8.553
 6707POPC   C2B23972  38.645  18.177   8.253
 6707POPC   C3B23973  38.694  18.153   7.953
 6707POPC   C4B23974  38.643  18.222   7.653
 6708POPC   NC323975   3.502  19.793   9.453
 6708POPC   PO423976   3.586  19.802   9.153
 6708POPC   GL123977   3.522  19.851   8.853
 6708POPC   GL223978   3.554  20.004   8.853
 6708POPC   C1A23979   3.535  19.827   8.553
 6708POPC   D2A23980   3.537  19.826   8.253
 6708POPC   C3A23981   3.571  19.851   7.953
 6708POPC   C4A23982   3.540  19.852   7.653
 6708POPC   C1B23983   3.539  20.103   8.553
 6708POPC   C2B23984   3.468  20.128   8.253
 6708POPC   C3B23985   3.509  20.051   7.953
 6708POPC   C4B23986   3.516  20.038   7.653
 6709POPC   NC323987  13.669   1.212   9.453
 6709POPC   PO423988  13.629   1.212   9.153
 6709POPC   GL123989  13.615   1.234   8.853
 6709POPC   GL223990  13.606   1.108   8.853
 6709POPC   C1A23991  13.580   1.177   8.553
 6709POPC   D2A23992  13.616   1.198   8.253
 6709POPC   C3A23993  13.581   1.258   7.953
 6709POPC   C4A23994  13.657   1.196   7.653
 6709POPC   C1B23995  13.494   1.005   8.553
 6709POPC   C2B23996  13.554   1.009   8.253
 6709POPC   C3B23997  13.564   0.970   7.953
 6709POPC   C4B23998  13.483   0.955   7.653
 6710POPC   NC323999  42.338   3.519   9.453
 6710POPC   PO424000  42.359   3.556   9.153
 6710POPC   GL124001  42.321   3.523   8.853
 6710POPC   GL224002  42.262   3.512   8.853
 6710POPC   C1A24003  42.311   3.531   8.553
 6710POPC   D2A24004  42.288   3.516   8.253
 6710POPC   C3A24005  42.339   3.525   7.953
 6710POPC   C4A24006  42.371   3.527   7.653
 6710POPC   C1B24007  42.152   3.422   8.553
 6710POPC   C2B24008  42.097   3.467   8.253
 6710POPC   C3B24009  42.082   3.468   7.953
 6710POPC   C4B24010  42.142   3.457   7.653
 6711POPC   NC324011   9.748  14.374   9.453
 6711POPC   PO424012   9.785  14.393   9.153
 6711POPC   GL124013   9.786  14.428   8.853
 6711POPC   GL224014   9.765  14.549   8.853
 6711POPC   C1A24015   9.716  14.447   8.553
 6711POPC   D2A24016   9.730  14.416   8.253
 6711POPC   C3A24017   9.761  14.452   7.953
 6711POPC   C4A24018   9.737  14.386   7.653
 6711POPC   C1B24019   9.840  14.647   8.553
 6711POPC   C2B24020   9.872  14.636   8.253
 6711POPC   C3B24021   9.818  14.681   7.953
 6711POPC   C4B24022   9.837  14.613   7.653
 6712POPC   NC324023  30.709   9.732   9.453
 6712POPC   PO424024  30.741   9.719   9.153
 6712POPC   GL124025  30.661   9.735   8.853
 6712POPC   GL224026  30.770   9.648   8.853
 6712POPC   C1A24027  30.739   9.729   8.553
 6712POPC   D2A24028  30.722   9.761   8.253
 6712POPC   C3A24029  30.672   9.792   7.953
 6712POPC   C4A24030  30.737   9.731   7.653
 6712POPC   C1B24031  30.804   9.507   8.553
 6712POPC   C2B24032  30.763   9.567   8.253
 6712POPC   C3B24033  30.751   9.529   7.953
 6712POPC   C4B24034  30.766   9.525   7.653
 6713POPC   NC324035  39.224  26.050   9.453
 6713POPC   PO424036  39.271  26.050   9.153
 6713POPC   GL124037  39.277  26.039   8.853
 6713POPC   GL224038  39.154  26.093   8.853
 6713POPC   C1A24039  39.261  25.999   8.553
 6713POPC   D2A24040  39.198  26.000   8.253
 6713POPC   C3A24041  39.279  26.066   7.953
 6713POPC   C4A24042  39.229  26.045   7.653
 6713POPC   C1B24043  39.023  26.051   8.553
 6713POPC   C2B24044  39.011  26.053   8.253
 6713POPC   C3B24045  38.990  26.059   7.953
 6713POPC   C4B24046  38.950  26.043   7.653
 6714POPC   NC324047  17.502  39.231   9.453
 6714POPC   PO424048  17.554  39.275   9.153
 6714POPC   GL124049  17.530  39.270   8.853
 6714POPC   GL224050  17.642  39.343   8.853
 6714POPC   C1A24051  17.493  39.258   8.553
 6714POPC   D2A24052  17.502  39.239   8.253
 6714POPC   C3A24053  17.515  39.207   7.953
 6714POPC   C4A24054  17.532  39.184   7.653
 6714POPC   C1B24055  17.665  39.361   8.553
 6714POPC   C2B24056  17.682  39.353   8.253
 6714POPC   C3B24057  17.732  39.355   7.953
 6714POPC   C4B24058  17.738  39.399   7.653
 6715POPC   NC324059  19.051  28.329   9.453
 6715POPC   PO424060  19.091  28.367   9.153
 6715POPC   GL124061  19.097  28.395   8.853
 6715POPC   GL224062  18.930  28.479   8.853
 6715POPC   C1A24063  19.029  28.387   8.553
 6715POPC   D2A24064  19.068  28.329   8.253
 6715POPC   C3A24065  19.072  28.360   7.953
 6715POPC   C4A24066  19.046  28.334   7.653
 6715POPC   C1B24067  18.823  28.504   8.553
 6715POPC   C2B24068  18.819  28.524   8.253
 6715POPC   C3B24069  18.822  28.509   7.953
 6715POPC   C4B24070  18.840  28.547   7.653
 6716POPC   NC324071  26.088  42.294   9.453
 6716POPC   PO424072  26.046  42.316   9.153
 6716POPC   GL124073  26.011  42.285   8.853
 6716POPC   GL224074  25.945  42.363   8.853
 6716POPC   C1A24075  26.007  42.381   8.553
 6716POPC   D2A24076  26.059  42.299   8.253
 6716POPC   C3A24077  26.020  42.297   7.953
 6716POPC   C4A24078  26.083  42.301   7.653
 6716POPC   C1B24079  25.800  42.375   8.553
 6716POPC   C2B24080  25.837  42.385   8.253
 6716POPC   C3B24081  25.782  42.395   7.953
 6716POPC   C4B24082  25.792  42.442   7.653
 6717POPC   NC324083  43.086  32.267   9.453
 6717POPC   PO424084  43.108  32.202   9.153
 6717POPC   GL124085  43.109  32.207   8.853
 6717POPC   GL224086  43.282  32.208   8.853
 6717POPC   C1A24087  43.079  32.270   8.553
 6717POPC   D2A24088  43.116  32.252   8.253
 6717POPC   C3A24089  43.116  32.265   7.953
 6717POPC   C4A24090  43.107  32.263   7.653
 6717POPC   C1B24091  43.322  32.193   8.553
 6717POPC   C2B24092  43.370  32.255   8.253
 6717POPC   C3B24093  43.333  32.244   7.953
 6717POPC   C4B24094  43.410  32.246   7.653
 6718POPC   NC324095  29.112   1.187   9.453
 6718POPC   PO424096  29.188   1.189   9.153
 6718POPC   GL124097  29.159   1.212   8.853
 6718POPC   GL224098  29.183   1.329   8.853
 6718POPC   C1A24099  29.145   1.249   8.553
 6718POPC   D2A24100  29.137   1.169   8.253
 6718POPC   C3A24101  29.142   1.222   7.953
 6718POPC   C4A24102  29.191   1.183   7.653
 6718POPC   C1B24103  29.265   1.422   8.553
 6718POPC   C2B24104  29.221   1.435   8.253
 6718POPC   C3B24105  29.233   1.455   7.953
 6718POPC   C4B24106  29.207   1.397   7.653
 6719POPC   NC324107  39.281   2.778   9.453
 6719POPC   PO424108  39.273   2.792   9.153
 6719POPC   GL124109  39.250   2.763   8.853
 6719POPC   GL224110  39.368   2.782   8.853
 6719POPC   C1A24111  39.186   2.778   8.553
 6719POPC   D2A24112  39.205   2.788   8.253
 6719POPC   C3A24113  39.187   2.788   7.953
 6719POPC   C4A24114  39.245   2.760   7.653
 6719POPC   C1B24115  39.434   2.770   8.553
 6719POPC   C2B24116  39.437   2.839   8.253
 6719POPC   C3B24117  39.441   2.756   7.953
 6719POPC   C4B24118  39.505   2.811   7.653
 6720POPC   NC324119  26.065  40.030   9.453
 6720POPC   PO424120  26.020  40.024   9.153
 6720POPC   GL124121  26.046  39.976   8.853
 6720POPC   GL224122  25.900  39.925   8.853
 6720POPC   C1A24123  26.082  39.964   8.553
 6720POPC   D2A24124  25.997  39.991   8.253
 6720POPC   C3A24125  26.033  40.034   7.953
 6720POPC   C4A24126  26.042  39.991   7.653
 6720POPC   C1B24127  25.811  39.824   8.553
 6720POPC   C2B24128  25.847  39.901   8.253
 6720POPC   C3B24129  25.816  39.886   7.953
 6720POPC   C4B24130  25.786  39.841   7.653
 6721POPC   NC324131  23.762  22.926   9.453
 6721POPC   PO424132  23.716  22.953   9.153
 6721POPC   GL124133  23.753  22.925   8.853
 6721POPC   GL224134  23.788  22.824   8.853
 6721POPC   C1A24135  23.670  22.902   8.553
 6721POPC   D2A24136  23.673  22.977   8.253
 6721POPC   C3A24137  23.758  22.965   7.953
 6721POPC   C4A24138  23.680  22.974   7.653
 6721POPC   C1B24139  23.872  22.824   8.553
 6721POPC   C2B24140  23.944  22.799   8.253
 6721POPC   C3B24141  23.912  22.755   7.953
 6721POPC   C4B24142  23.871  22.735   7.653
 6722POPC   NC324143  36.930  11.276   9.453
 6722POPC   PO424144  36.932  11.268   9.153
 6722POPC   GL124145  36.883  11.339   8.853
 6722POPC   GL224146  36.862  11.413   8.853
 6722POPC   C1A24147  36.912  11.340   8.553
 6722POPC   D2A24148  36.918  11.263   8.253
 6722POPC   C3A24149  36.919  11.315   7.953
 6722POPC   C4A24150  36.917  11.296   7.653
 6722POPC   C1B24151  36.866  11.504   8.553
 6722POPC   C2B24152  36.838  11.501   8.253
 6722POPC   C3B24153  36.797  11.517   7.953
 6722POPC   C4B24154  36.798  11.519   7.653
 6723POPC   NC324155  16.738  38.409   9.453
 6723POPC   PO424156  16.687  38.503   9.153
 6723POPC   GL124157  16.733  38.409   8.853
 6723POPC   GL224158  16.674  38.554   8.853
 6723POPC   C1A24159  16.728  38.414   8.553
 6723POPC   D2A24160  16.688  38.420   8.253
 6723POPC   C3A24161  16.734  38.432   7.953
 6723POPC   C4A24162  16.700  38.495   7.653
 6723POPC   C1B24163  16.679  38.681   8.553
 6723POPC   C2B24164  16.635  38.721   8.253
 6723POPC   C3B24165  16.698  38.686   7.953
 6723POPC   C4B24166  16.684  38.667   7.653
 6724POPC   NC324167  21.362   6.618   9.453
 6724POPC   PO424168  21.338   6.694   9.153
 6724POPC   GL124169  21.397   6.684   8.853
 6724POPC   GL224170  21.304   6.619   8.853
 6724POPC   C1A24171  21.384   6.689   8.553
 6724POPC   D2A24172  21.417   6.681   8.253
 6724POPC   C3A24173  21.364   6.682   7.953
 6724POPC   C4A24174  21.366   6.618   7.653
 6724POPC   C1B24175  21.160   6.526   8.553
 6724POPC   C2B24176  21.168   6.536   8.253
 6724POPC   C3B24177  21.211   6.525   7.953
 6724POPC   C4B24178  21.218   6.544   7.653
 6725POPC   NC324179  13.642  43.869   9.453
 6725POPC   PO424180  13.625  43.897   9.153
 6725POPC   GL124181  13.670  43.901   8.853
 6725POPC   GL224182  13.748  43.830   8.853
 6725POPC   C1A24183  13.647  43.917   8.553
 6725POPC   D2A24184  13.657  43.848   8.253
 6725POPC   C3A24185  13.636  43.847   7.953
 6725POPC   C4A24186  13.675  43.880   7.653
 6725POPC   C1B24187  13.779  43.675   8.553
 6725POPC   C2B24188  13.826  43.680   8.253
 6725POPC   C3B24189  13.809  43.730   7.953
 6725POPC   C4B24190  13.854  43.730   7.653
 6726POPC   NC324191   0.399   6.646   9.453
 6726POPC   PO424192   0.416   6.638   9.153
 6726POPC   GL124193   0.471   6.680   8.853
 6726POPC   GL224194   0.306   6.590   8.853
 6726POPC   C1A24195   0.396   6.685   8.553
 6726POPC   D2A24196   0.436   6.623   8.253
 6726POPC   C3A24197   0.393   6.615   7.953
 6726POPC   C4A24198   0.402   6.675   7.653
 6726POPC   C1B24199   0.189   6.563   8.553
 6726POPC   C2B24200   0.194   6.566   8.253
 6726POPC   C3B24201   0.182   6.540   7.953
 6726POPC   C4B24202   0.156   6.567   7.653
 6727POPC   NC324203   8.175  43.857   9.453
 6727POPC   PO424204   8.190  43.852   9.153
 6727POPC   GL124205   8.158  43.869   8.853
 6727POPC   GL224206   8.269  43.960   8.853
 6727POPC   C1A24207   8.209  43.922   8.553
 6727POPC   D2A24208   8.181  43.893   8.253
 6727POPC   C3A24209   8.226  43.866   7.953
 6727POPC   C4A24210   8.147  43.872   7.653
 6727POPC   C1B24211   8.404  44.088   8.553
 6727POPC   C2B24212   8.392  44.025   8.253
 6727POPC   C3B24213   8.408  44.073   7.953
 6727POPC   C4B24214   8.371  44.022   7.653
 6728POPC   NC324215   3.518  40.056   9.453
 6728POPC   PO424216   3.516  40.049   9.153
 6728POPC   GL124217   3.506  40.026   8.853
 6728POPC   GL224218   3.449  40.059   8.853
 6728POPC   C1A24219   3.504  40.004   8.553
 6728POPC   D2A24220   3.520  40.056   8.253
 6728POPC   C3A24221   3.519  40.049   7.953
 6728POPC   C4A24222   3.572  40.045   7.653
 6728POPC   C1B24223   3.326  40.149   8.553
 6728POPC   C2B24224   3.404  40.236   8.253
 6728POPC   C3B24225   3.371  40.222   7.953
 6728POPC   C4B24226   3.377  40.229   7.653
 6729POPC   NC324227  39.198  11.277   9.453
 6729POPC   PO424228  39.236  11.255   9.153
 6729POPC   GL124229  39.195  11.265   8.853
 6729POPC   GL224230  39.081  11.248   8.853
 6729POPC   C1A24231  39.190  11.310   8.553
 6729POPC   D2A24232  39.273  11.256   8.253
 6729POPC   C3A24233  39.216  11.321   7.953
 6729POPC   C4A24234  39.213  11.292   7.653
 6729POPC   C1B24235  38.941  11.286   8.553
 6729POPC   C2B24236  39.025  11.338   8.253
 6729POPC   C3B24237  38.981  11.287   7.953
 6729POPC   C4B24238  38.959  11.284   7.653
 6730POPC   NC324239   1.958  41.564   9.453
 6730POPC   PO424240   1.941  41.530   9.153
 6730POPC   GL124241   1.967  41.601   8.853
 6730POPC   GL224242   1.958  41.416   8.853
 6730POPC   C1A24243   1.987  41.522   8.553
 6730POPC   D2A24244   1.979  41.590   8.253
 6730POPC   C3A24245   1.991  41.591   7.953
 6730POPC   C4A24246   2.027  41.528   7.653
 6730POPC   C1B24247   1.857  41.305   8.553
 6730POPC   C2B24248   1.832  41.310   8.253
 6730POPC   C3B24249   1.836  41.324   7.953
 6730POPC   C4B24250   1.877  41.325   7.653
 6731POPC   NC324251  28.338  30.663   9.453
 6731POPC   PO424252  28.376  30.672   9.153
 6731POPC   GL124253  28.393  30.713   8.853
 6731POPC   GL224254  28.258  30.752   8.853
 6731POPC   C1A24255  28.383  30.657   8.553
 6731POPC   D2A24256  28.324  30.672   8.253
 6731POPC   C3A24257  28.377  30.685   7.953
 6731POPC   C4A24258  28.353  30.676   7.653
 6731POPC   C1B24259  28.128  30.722   8.553
 6731POPC   C2B24260  28.130  30.743   8.253
 6731POPC   C3B24261  28.130  30.736   7.953
 6731POPC   C4B24262  28.074  30.694   7.653
 6732POPC   NC324263  43.069  40.763   9.453
 6732POPC   PO424264  43.092  40.780   9.153
 6732POPC   GL124265  43.140  40.785   8.853
 6732POPC   GL224266  43.029  40.839   8.853
 6732POPC   C1A24267  43.144  40.822   8.553
 6732POPC   D2A24268  43.104  40.743   8.253
 6732POPC   C3A24269  43.061  40.765   7.953
 6732POPC   C4A24270  43.127  40.827   7.653
 6732POPC   C1B24271  42.881  40.872   8.553
 6732POPC   C2B24272  42.890  40.876   8.253
 6732POPC   C3B24273  42.900  40.861   7.953
 6732POPC   C4B24274  42.931  40.887   7.653
 6733POPC   NC324275  26.018   3.578   9.453
 6733POPC   PO424276  25.998   3.569   9.153
 6733POPC   GL124277  26.060   3.493   8.853
 6733POPC   GL224278  25.881   3.550   8.853
 6733POPC   C1A24279  26.089   3.577   8.553
 6733POPC   D2A24280  26.074   3.495   8.253
 6733POPC   C3A24281  26.068   3.573   7.953
 6733POPC   C4A24282  26.091   3.533   7.653
 6733POPC   C1B24283  25.804   3.646   8.553
 6733POPC   C2B24284  25.759   3.642   8.253
 6733POPC   C3B24285  25.777   3.655   7.953
 6733POPC   C4B24286  25.779   3.665   7.653
 6734POPC   NC324287  15.159  34.604   9.453
 6734POPC   PO424288  15.194  34.573   9.153
 6734POPC   GL124289  15.177  34.607   8.853
 6734POPC   GL224290  15.327  34.577   8.853
 6734POPC   C1A24291  15.144  34.602   8.553
 6734POPC   D2A24292  15.199  34.533   8.253
 6734POPC   C3A24293  15.147  34.624   7.953
 6734POPC   C4A24294  15.147  34.574   7.653
 6734POPC   C1B24295  15.470  34.617   8.553
 6734POPC   C2B24296  15.430  34.575   8.253
 6734POPC   C3B24297  15.456  34.638   7.953
 6734POPC   C4B24298  15.396  34.593   7.653
 6735POPC   NC324299   0.435  10.545   9.453
 6735POPC   PO424300   0.400  10.556   9.153
 6735POPC   GL124301   0.434  10.503   8.853
 6735POPC   GL224302   0.399  10.400   8.853
 6735POPC   C1A24303   0.479  10.535   8.553
 6735POPC   D2A24304   0.436  10.492   8.253
 6735POPC   C3A24305   0.478  10.557   7.953
 6735POPC   C4A24306   0.411  10.492   7.653
 6735POPC   C1B24307   0.320  10.286   8.553
 6735POPC   C2B24308   0.305  10.297   8.253
 6735POPC   C3B24309   0.247  10.330   7.953
 6735POPC   C4B24310   0.286  10.319   7.653
 6736POPC   NC324311  18.237   1.264   9.453
 6736POPC   PO424312  18.279   1.183   9.153
 6736POPC   GL124313  18.243   1.255   8.853
 6736POPC   GL224314  18.339   1.261   8.853
 6736POPC   C1A24315  18.242   1.180   8.553
 6736POPC   D2A24316  18.322   1.224   8.253
 6736POPC   C3A24317  18.249   1.193   7.953
 6736POPC   C4A24318  18.329   1.261   7.653
 6736POPC   C1B24319  18.541   1.350   8.553
 6736POPC   C2B24320  18.536   1.308   8.253
 6736POPC   C3B24321  18.505   1.317   7.953
 6736POPC   C4B24322  18.526   1.362   7.653
 6737POPC   NC324323  14.406  32.283   9.453
 6737POPC   PO424324  14.415  32.268   9.153
 6737POPC   GL124325  14.439  32.281   8.853
 6737POPC   GL224326  14.283  32.310   8.853
 6737POPC   C1A24327  14.442  32.227   8.553
 6737POPC   D2A24328  14.430  32.271   8.253
 6737POPC   C3A24329  14.369  32.229   7.953
 6737POPC   C4A24330  14.375  32.216   7.653
 6737POPC   C1B24331  14.232  32.427   8.553
 6737POPC   C2B24332  14.146  32.364   8.253
 6737POPC   C3B24333  14.200  32.398   7.953
 6737POPC   C4B24334  14.228  32.338   7.653
 6738POPC   NC324335   8.201  36.119   9.453
 6738POPC   PO424336   8.224  36.161   9.153
 6738POPC   GL124337   8.175  36.130   8.853
 6738POPC   GL224338   8.152  36.257   8.853
 6738POPC   C1A24339   8.222  36.110   8.553
 6738POPC   D2A24340   8.164  36.158   8.253
 6738POPC   C3A24341   8.232  36.082   7.953
 6738POPC   C4A24342   8.208  36.152   7.653
 6738POPC   C1B24343   8.058  36.349   8.553
 6738POPC   C2B24344   8.129  36.409   8.253
 6738POPC   C3B24345   8.138  36.382   7.953
 6738POPC   C4B24346   8.119  36.328   7.653
 6739POPC   NC324347  39.991  43.903   9.453
 6739POPC   PO424348  40.049  43.871   9.153
 6739POPC   GL124349  40.040  43.904   8.853
 6739POPC   GL224350  40.040  44.018   8.853
 6739POPC   C1A24351  40.054  43.928   8.553
 6739POPC   D2A24352  40.008  43.853   8.253
 6739POPC   C3A24353  39.969  43.933   7.953
 6739POPC   C4A24354  40.047  43.916   7.653
 6739POPC   C1B24355  40.024  44.136   8.553
 6739POPC   C2B24356  40.011  44.135   8.253
 6739POPC   C3B24357  40.036  44.179   7.953
 6739POPC   C4B24358  40.026  44.092   7.653
 6740POPC   NC324359  33.032  44.657   9.453
 6740POPC   PO424360  33.037  44.636   9.153
 6740POPC   GL124361  33.021  44.639   8.853
 6740POPC   GL224362  33.193  44.687   8.853
 6740POPC   C1A24363  33.041  44.649   8.553
 6740POPC   D2A24364  33.000  44.682   8.253
 6740POPC   C3A24365  33.034  44.703   7.953
 6740POPC   C4A24366  33.066  44.678   7.653
 6740POPC   C1B24367  33.226  44.751   8.553
 6740POPC   C2B24368  33.291  44.728   8.253
 6740POPC   C3B24369  33.285  44.677   7.953
 6740POPC   C4B24370  33.276  44.661   7.653
 6741POPC   NC324371  13.588   7.444   9.453
 6741POPC   PO424372  13.659   7.403   9.153
 6741POPC   GL124373  13.660   7.398   8.853
 6741POPC   GL224374  13.590   7.557   8.853
 6741POPC   C1A24375  13.639   7.410   8.553
 6741POPC   D2A24376  13.652   7.463   8.253
 6741POPC   C3A24377  13.624   7.393   7.953
 6741POPC   C4A24378  13.673   7.422   7.653
 6741POPC   C1B24379  13.612   7.682   8.553
 6741POPC   C2B24380  13.625   7.679   8.253
 6741POPC   C3B24381  13.627   7.629   7.953
 6741POPC   C4B24382  13.615   7.695   7.653
 6742POPC   NC324383  20.643  10.548   9.453
 6742POPC   PO424384  20.588  10.488   9.153
 6742POPC   GL124385  20.639  10.514   8.853
 6742POPC   GL224386  20.444  10.534   8.853
 6742POPC   C1A24387  20.649  10.542   8.553
 6742POPC   D2A24388  20.616  10.501   8.253
 6742POPC   C3A24389  20.564  10.507   7.953
 6742POPC   C4A24390  20.607  10.478   7.653
 6742POPC   C1B24391  20.326  10.572   8.553
 6742POPC   C2B24392  20.399  10.555   8.253
 6742POPC   C3B24393  20.366  10.554   7.953
 6742POPC   C4B24394  20.319  10.541   7.653
 6743POPC   NC324395  12.056  42.378   9.453
 6743POPC   PO424396  12.055  42.370   9.153
 6743POPC   GL124397  12.093  42.349   8.853
 6743POPC   GL224398  12.080  42.420   8.853
 6743POPC   C1A24399  12.073  42.357   8.553
 6743POPC   D2A24400  12.066  42.356   8.253
 6743POPC   C3A24401  12.031  42.341   7.953
 6743POPC   C4A24402  12.106  42.350   7.653
 6743POPC   C1B24403  12.047  42.576   8.553
 6743POPC   C2B24404  11.977  42.558   8.253
 6743POPC   C3B24405  12.013  42.551   7.953
 6743POPC   C4B24406  12.051  42.544   7.653
 6744POPC   NC324407  44.623  19.033   9.453
 6744POPC   PO424408  44.677  19.010   9.153
 6744POPC   GL124409  44.694  19.071   8.853
 6744POPC   GL224410  44.787  19.095   8.853
 6744POPC   C1A24411  44.696  19.025   8.553
 6744POPC   D2A24412  44.670  19.078   8.253
 6744POPC   C3A24413  44.648  19.031   7.953
 6744POPC   C4A24414  44.627  19.061   7.653
 6744POPC   C1B24415  44.857  19.195   8.553
 6744POPC   C2B24416  44.869  19.170   8.253
 6744POPC   C3B24417  44.904  19.145   7.953
 6744POPC   C4B24418  44.906  19.171   7.653
 6745POPC   NC324419   4.298  40.773   9.453
 6745POPC   PO424420   4.360  40.733   9.153
 6745POPC   GL124421   4.333  40.818   8.853
 6745POPC   GL224422   4.377  40.940   8.853
 6745POPC   C1A24423   4.346  40.761   8.553
 6745POPC   D2A24424   4.331  40.784   8.253
 6745POPC   C3A24425   4.324  40.784   7.953
 6745POPC   C4A24426   4.357  40.830   7.653
 6745POPC   C1B24427   4.435  41.034   8.553
 6745POPC   C2B24428   4.399  40.951   8.253
 6745POPC   C3B24429   4.391  40.974   7.953
 6745POPC   C4B24430   4.417  40.996   7.653
 6746POPC   NC324431   5.109  36.940   9.453
 6746POPC   PO424432   5.120  36.899   9.153
 6746POPC   GL124433   5.079  36.862   8.853
 6746POPC   GL224434   5.192  36.868   8.853
 6746POPC   C1A24435   5.123  36.943   8.553
 6746POPC   D2A24436   5.143  36.878   8.253
 6746POPC   C3A24437   5.057  36.914   7.953
 6746POPC   C4A24438   5.129  36.942   7.653
 6746POPC   C1B24439   5.287  36.802   8.553
 6746POPC   C2B24440   5.281  36.761   8.253
 6746POPC   C3B24441   5.315  36.789   7.953
 6746POPC   C4B24442   5.353  36.804   7.653
 6747POPC   NC324443  31.447   5.873   9.453
 6747POPC   PO424444  31.476   5.838   9.153
 6747POPC   GL124445  31.477   5.884   8.853
 6747POPC   GL224446  31.493   5.707   8.853
 6747POPC   C1A24447  31.423   5.885   8.553
 6747POPC   D2A24448  31.423   5.825   8.253
 6747POPC   C3A24449  31.446   5.823   7.953
 6747POPC   C4A24450  31.457   5.908   7.653
 6747POPC   C1B24451  31.492   5.635   8.553
 6747POPC   C2B24452  31.514   5.663   8.253
 6747POPC   C3B24453  31.564   5.578   7.953
 6747POPC   C4B24454  31.511   5.638   7.653
 6748POPC   NC324455   3.512   2.781   9.453
 6748POPC   PO424456   3.576   2.720   9.153
 6748POPC   GL124457   3.562   2.803   8.853
 6748POPC   GL224458   3.493   2.669   8.853
 6748POPC   C1A24459   3.539   2.813   8.553
 6748POPC   D2A24460   3.566   2.717   8.253
 6748POPC   C3A24461   3.558   2.783   7.953
 6748POPC   C4A24462   3.590   2.737   7.653
 6748POPC   C1B24463   3.414   2.519   8.553
 6748POPC   C2B24464   3.394   2.569   8.253
 6748POPC   C3B24465   3.454   2.579   7.953
 6748POPC   C4B24466   3.406   2.502   7.653
 6749POPC   NC324467   4.336   2.017   9.453
 6749POPC   PO424468   4.345   1.980   9.153
 6749POPC   GL124469   4.270   1.952   8.853
 6749POPC   GL224470   4.414   2.069   8.853
 6749POPC   C1A24471   4.286   2.034   8.553
 6749POPC   D2A24472   4.268   1.970   8.253
 6749POPC   C3A24473   4.352   2.009   7.953
 6749POPC   C4A24474   4.337   2.011   7.653
 6749POPC   C1B24475   4.566   2.097   8.553
 6749POPC   C2B24476   4.591   2.104   8.253
 6749POPC   C3B24477   4.503   2.098   7.953
 6749POPC   C4B24478   4.543   2.130   7.653
 6750POPC   NC324479  31.477  17.520   9.453
 6750POPC   PO424480  31.497  17.551   9.153
 6750POPC   GL124481  31.470  17.481   8.853
 6750POPC   GL224482  31.578  17.470   8.853
 6750POPC   C1A24483  31.455  17.481   8.553
 6750POPC   D2A24484  31.469  17.474   8.253
 6750POPC   C3A24485  31.518  17.468   7.953
 6750POPC   C4A24486  31.435  17.537   7.653
 6750POPC   C1B24487  31.686  17.516   8.553
 6750POPC   C2B24488  31.752  17.485   8.253
 6750POPC   C3B24489  31.729  17.496   7.953
 6750POPC   C4B24490  31.760  17.547   7.653
 6751POPC   NC324491  28.381  10.518   9.453
 6751POPC   PO424492  28.387  10.517   9.153
 6751POPC   GL124493  28.340  10.573   8.853
 6751POPC   GL224494  28.523  10.590   8.853
 6751POPC   C1A24495  28.412  10.521   8.553
 6751POPC   D2A24496  28.372  10.507   8.253
 6751POPC   C3A24497  28.404  10.544   7.953
 6751POPC   C4A24498  28.359  10.503   7.653
 6751POPC   C1B24499  28.622  10.666   8.553
 6751POPC   C2B24500  28.584  10.686   8.253
 6751POPC   C3B24501  28.608  10.598   7.953
 6751POPC   C4B24502  28.545  10.655   7.653
 6752POPC   NC324503  22.187  36.941   9.453
 6752POPC   PO424504  22.125  36.925   9.153
 6752POPC   GL124505  22.120  36.904   8.853
 6752POPC   GL224506  22.078  36.884   8.853
 6752POPC   C1A24507  22.191  36.868   8.553
 6752POPC   D2A24508  22.191  36.878   8.253
 6752POPC   C3A24509  22.167  36.928   7.953
 6752POPC   C4A24510  22.134  36.862   7.653
 6752POPC   C1B24511  21.935  36.917   8.553
 6752POPC   C2B24512  21.960  36.874   8.253
 6752POPC   C3B24513  21.950  36.919   7.953
 6752POPC   C4B24514  21.899  36.959   7.653
 6753POPC   NC324515  43.117  31.478   9.453
 6753POPC   PO424516  43.084  31.458   9.153
 6753POPC   GL124517  43.112  31.486   8.853
 6753POPC   GL224518  43.193  31.404   8.853
 6753POPC   C1A24519  43.084  31.459   8.553
 6753POPC   D2A24520  43.095  31.498   8.253
 6753POPC   C3A24521  43.128  31.462   7.953
 6753POPC   C4A24522  43.063  31.462   7.653
 6753POPC   C1B24523  43.361  31.365   8.553
 6753POPC   C2B24524  43.299  31.336   8.253
 6753POPC   C3B24525  43.392  31.427   7.953
 6753POPC   C4B24526  43.323  31.411   7.653
 6754POPC   NC324527  14.452   8.221   9.453
 6754POPC   PO424528  14.415   8.166   9.153
 6754POPC   GL124529  14.418   8.160   8.853
 6754POPC   GL224530  14.521   8.204   8.853
 6754POPC   C1A24531  14.376   8.241   8.553
 6754POPC   D2A24532  14.394   8.239   8.253
 6754POPC   C3A24533  14.383   8.164   7.953
 6754POPC   C4A24534  14.403   8.182   7.653
 6754POPC   C1B24535  14.664   8.258   8.553
 6754POPC   C2B24536  14.686   8.261   8.253
 6754POPC   C3B24537  14.670   8.248   7.953
 6754POPC   C4B24538  14.620   8.293   7.653
 6755POPC   NC324539  43.137   5.131   9.453
 6755POPC   PO424540  43.126   5.061   9.153
 6755POPC   GL124541  43.084   5.123   8.853
 6755POPC   GL224542  43.031   5.147   8.853
 6755POPC   C1A24543  43.158   5.085   8.553
 6755POPC   D2A24544  43.076   5.123   8.253
 6755POPC   C3A24545  43.135   5.103   7.953
 6755POPC   C4A24546  43.063   5.049   7.653
 6755POPC   C1B24547  42.910   5.155   8.553
 6755POPC   C2B24548  42.870   5.155   8.253
 6755POPC   C3B24549  42.891   5.142   7.953
 6755POPC   C4B24550  42.908   5.140   7.653
 6756POPC   NC324551  32.981  33.837   9.453
 6756POPC   PO424552  33.014  33.831   9.153
 6756POPC   GL124553  32.985  33.831   8.853
 6756POPC   GL224554  33.007  33.889   8.853
 6756POPC   C1A24555  33.030  33.787   8.553
 6756POPC   D2A24556  33.001  33.809   8.253
 6756POPC   C3A24557  33.040  33.822   7.953
 6756POPC   C4A24558  33.009  33.778   7.653
 6756POPC   C1B24559  33.039  34.049   8.553
 6756POPC   C2B24560  32.990  34.015   8.253
 6756POPC   C3B24561  33.078  34.048   7.953
 6756POPC   C4B24562  33.063  34.089   7.653
 6757POPC   NC324563  35.339  10.497   9.453
 6757POPC   PO424564  35.328  10.490   9.153
 6757POPC   GL124565  35.302  10.506   8.853
 6757POPC   GL224566  35.303  10.429   8.853
 6757POPC   C1A24567  35.338  10.561   8.553
 6757POPC   D2A24568  35.337  10.557   8.253
 6757POPC   C3A24569  35.329  10.476   7.953
 6757POPC   C4A24570  35.378  10.484   7.653
 6757POPC   C1B24571  35.261  10.318   8.553
 6757POPC   C2B24572  35.262  10.323   8.253
 6757POPC   C3B24573  35.322  10.230   7.953
 6757POPC   C4B24574  35.286  10.258   7.653
 6758POPC   NC324575  43.863  29.137   9.453
 6758POPC   PO424576  43.930  29.166   9.153
 6758POPC   GL124577  43.902  29.110   8.853
 6758POPC   GL224578  43.801  29.236   8.853
 6758POPC   C1A24579  43.893  29.171   8.553
 6758POPC   D2A24580  43.922  29.117   8.253
 6758POPC   C3A24581  43.871  29.150   7.953
 6758POPC   C4A24582  43.934  29.176   7.653
 6758POPC   C1B24583  43.798  29.366   8.553
 6758POPC   C2B24584  43.820  29.358   8.253
 6758POPC   C3B24585  43.794  29.334   7.953
 6758POPC   C4B24586  43.786  29.421   7.653
 6759POPC   NC324587  11.306  37.666   9.453
 6759POPC   PO424588  11.350  37.663   9.153
 6759POPC   GL124589  11.300  37.637   8.853
 6759POPC   GL224590  11.370  37.719   8.853
 6759POPC   C1A24591  11.262  37.678   8.553
 6759POPC   D2A24592  11.299  37.643   8.253
 6759POPC   C3A24593  11.291  37.633   7.953
 6759POPC   C4A24594  11.319  37.681   7.653
 6759POPC   C1B24595  11.555  37.829   8.553
 6759POPC   C2B24596  11.480  37.864   8.253
 6759POPC   C3B24597  11.461  37.842   7.953
 6759POPC   C4B24598  11.525  37.835   7.653
 6760POPC   NC324599  30.712  22.938   9.453
 6760POPC   PO424600  30.661  22.919   9.153
 6760POPC   GL124601  30.735  22.987   8.853
 6760POPC   GL224602  30.846  22.868   8.853
 6760POPC   C1A24603  30.736  22.953   8.553
 6760POPC   D2A24604  30.661  22.892   8.253
 6760POPC   C3A24605  30.648  22.903   7.953
 6760POPC   C4A24606  30.721  22.910   7.653
 6760POPC   C1B24607  30.899  22.863   8.553
 6760POPC   C2B24608  30.963  22.864   8.253
 6760POPC   C3B24609  30.927  22.846   7.953
 6760POPC   C4B24610  30.971  22.881   7.653
 6761POPC   NC324611   6.688  37.632   9.453
 6761POPC   PO424612   6.694  37.699   9.153
 6761POPC   GL124613   6.650  37.649   8.853
 6761POPC   GL224614   6.753  37.737   8.853
 6761POPC   C1A24615   6.684  37.656   8.553
 6761POPC   D2A24616   6.686  37.681   8.253
 6761POPC   C3A24617   6.659  37.660   7.953
 6761POPC   C4A24618   6.667  37.648   7.653
 6761POPC   C1B24619   6.843  37.928   8.553
 6761POPC   C2B24620   6.783  37.871   8.253
 6761POPC   C3B24621   6.759  37.923   7.953
 6761POPC   C4B24622   6.843  37.908   7.653
 6762POPC   NC324623  34.581   2.765   9.453
 6762POPC   PO424624  34.584   2.799   9.153
 6762POPC   GL124625  34.579   2.798   8.853
 6762POPC   GL224626  34.453   2.733   8.853
 6762POPC   C1A24627  34.588   2.779   8.553
 6762POPC   D2A24628  34.604   2.761   8.253
 6762POPC   C3A24629  34.529   2.803   7.953
 6762POPC   C4A24630  34.533   2.766   7.653
 6762POPC   C1B24631  34.354   2.680   8.553
 6762POPC   C2B24632  34.395   2.638   8.253
 6762POPC   C3B24633  34.322   2.603   7.953
 6762POPC   C4B24634  34.355   2.689   7.653
 6763POPC   NC324635  41.526  12.811   9.453
 6763POPC   PO424636  41.548  12.817   9.153
 6763POPC   GL124637  41.570  12.869   8.853
 6763POPC   GL224638  41.586  12.988   8.853
 6763POPC   C1A24639  41.545  12.825   8.553
 6763POPC   D2A24640  41.604  12.803   8.253
 6763POPC   C3A24641  41.545  12.901   7.953
 6763POPC   C4A24642  41.581  12.850   7.653
 6763POPC   C1B24643  41.637  13.111   8.553
 6763POPC   C2B24644  41.682  13.063   8.253
 6763POPC   C3B24645  41.700  13.116   7.953
 6763POPC   C4B24646  41.690  13.056   7.653
 6764POPC   NC324647  16.773  32.237   9.453
 6764POPC   PO424648  16.696  32.277   9.153
 6764POPC   GL124649  16.747  32.241   8.853
 6764POPC   GL224650  16.824  32.337   8.853
 6764POPC   C1A24651  16.682  32.246   8.553
 6764POPC   D2A24652  16.691  32.258   8.253
 6764POPC   C3A24653  16.706  32.297   7.953
 6764POPC   C4A24654  16.686  32.220   7.653
 6764POPC   C1B24655  16.946  32.419   8.553
 6764POPC   C2B24656  16.871  32.444   8.253
 6764POPC   C3B24657  16.953  32.471   7.953
 6764POPC   C4B24658  16.901  32.376   7.653
 6765POPC   NC324659  38.499   5.084   9.453
 6765POPC   PO424660  38.426   5.121   9.153
 6765POPC   GL124661  38.492   5.059   8.853
 6765POPC   GL224662  38.379   5.006   8.853
 6765POPC   C1A24663  38.410   5.103   8.553
 6765POPC   D2A24664  38.448   5.105   8.253
 6765POPC   C3A24665  38.409   5.068   7.953
 6765POPC   C4A24666  38.459   5.058   7.653
 6765POPC   C1B24667  38.379   4.855   8.553
 6765POPC   C2B24668  38.304   4.883   8.253
 6765POPC   C3B24669  38.297   4.832   7.953
 6765POPC   C4B24670  38.343   4.897   7.653
 6766POPC   NC324671  42.309  40.753   9.453
 6766POPC   PO424672  42.307  40.765   9.153
 6766POPC   GL124673  42.361  40.787   8.853
 6766POPC   GL224674  42.384  40.676   8.853
 6766POPC   C1A24675  42.355  40.794   8.553
 6766POPC   D2A24676  42.364  40.811   8.253
 6766POPC   C3A24677  42.291  40.814   7.953
 6766POPC   C4A24678  42.317  40.761   7.653
 6766POPC   C1B24679  42.350  40.489   8.553
 6766POPC   C2B24680  42.374  40.526   8.253
 6766POPC   C3B24681  42.359  40.489   7.953
 6766POPC   C4B24682  42.397  40.495   7.653
 6767POPC   NC324683  19.803  22.943   9.453
 6767POPC   PO424684  19.860  22.901   9.153
 6767POPC   GL124685  19.786  22.889   8.853
 6767POPC   GL224686  19.700  22.980   8.853
 6767POPC   C1A24687  19.811  22.952   8.553
 6767POPC   D2A24688  19.816  22.949   8.253
 6767POPC   C3A24689  19.854  22.977   7.953
 6767POPC   C4A24690  19.864  22.925   7.653
 6767POPC   C1B24691  19.675  23.123   8.553
 6767POPC   C2B24692  19.587  23.084   8.253
 6767POPC   C3B24693  19.671  23.121   7.953
 6767POPC   C4B24694  19.626  23.062   7.653
 6768POPC   NC324695   1.190  33.779   9.453
 6768POPC   PO424696   1.219  33.760   9.153
 6768POPC   GL124697   1.262  33.773   8.853
 6768POPC   GL224698   1.106  33.838   8.853
 6768POPC   C1A24699   1.187  33.769   8.553
 6768POPC   D2A24700   1.192  33.816   8.253
 6768POPC   C3A24701   1.189  33.836   7.953
 6768POPC   C4A24702   1.231  33.771   7.653
 6768POPC   C1B24703   0.965  33.891   8.553
 6768POPC   C2B24704   0.971  33.882   8.253
 6768POPC   C3B24705   1.010  33.907   7.953
 6768POPC   C4B24706   0.993  33.865   7.653
 6769POPC   NC324707  38.477  22.164   9.453
 6769POPC   PO424708  38.486  22.150   9.153
 6769POPC   GL124709  38.503  22.189   8.853
 6769POPC   GL224710  38.319  22.096   8.853
 6769POPC   C1A24711  38.453  22.114   8.553
 6769POPC   D2A24712  38.475  22.137   8.253
 6769POPC   C3A24713  38.438  22.209   7.953
 6769POPC   C4A24714  38.427  22.126   7.653
 6769POPC   C1B24715  38.275  22.024   8.553
 6769POPC   C2B24716  38.270  21.985   8.253
 6769POPC   C3B24717  38.236  21.999   7.953
 6769POPC   C4B24718  38.237  22.036   7.653
 6770POPC   NC324719  43.097  20.602   9.453
 6770POPC   PO424720  43.080  20.572   9.153
 6770POPC   GL124721  43.156  20.633   8.853
 6770POPC   GL224722  43.025  20.583   8.853
 6770POPC   C1A24723  43.089  20.642   8.553
 6770POPC   D2A24724  43.101  20.648   8.253
 6770POPC   C3A24725  43.087  20.581   7.953
 6770POPC   C4A24726  43.064  20.614   7.653
 6770POPC   C1B24727  42.851  20.493   8.553
 6770POPC   C2B24728  42.891  20.510   8.253
 6770POPC   C3B24729  42.872  20.548   7.953
 6770POPC   C4B24730  42.899  20.533   7.653
 6771POPC   NC324731  22.964   8.160   9.453
 6771POPC   PO424732  22.917   8.207   9.153
 6771POPC   GL124733  22.954   8.183   8.853
 6771POPC   GL224734  23.093   8.154   8.853
 6771POPC   C1A24735  22.950   8.240   8.553
 6771POPC   D2A24736  22.958   8.241   8.253
 6771POPC   C3A24737  22.913   8.187   7.953
 6771POPC   C4A24738  22.935   8.186   7.653
 6771POPC   C1B24739  23.202   8.180   8.553
 6771POPC   C2B24740  23.149   8.176   8.253
 6771POPC   C3B24741  23.168   8.250   7.953
 6771POPC   C4B24742  23.157   8.175   7.653
 6772POPC   NC324743  12.032  15.224   9.453
 6772POPC   PO424744  12.045  15.147   9.153
 6772POPC   GL124745  12.090  15.154   8.853
 6772POPC   GL224746  11.982  15.322   8.853
 6772POPC   C1A24747  12.045  15.220   8.553
 6772POPC   D2A24748  12.056  15.136   8.253
 6772POPC   C3A24749  12.042  15.207   7.953
 6772POPC   C4A24750  12.075  15.189   7.653
 6772POPC   C1B24751  11.991  15.366   8.553
 6772POPC   C2B24752  11.900  15.441   8.253
 6772POPC   C3B24753  11.923  15.376   7.953
 6772POPC   C4B24754  11.982  15.382   7.653
 6773POPC   NC324755  29.103  27.576   9.453
 6773POPC   PO424756  29.124  27.613   9.153
 6773POPC   GL124757  29.106  27.546   8.853
 6773POPC   GL224758  29.162  27.709   8.853
 6773POPC   C1A24759  29.132  27.554   8.553
 6773POPC   D2A24760  29.144  27.544   8.253
 6773POPC   C3A24761  29.156  27.589   7.953
 6773POPC   C4A24762  29.141  27.623   7.653
 6773POPC   C1B24763  29.279  27.848   8.553
 6773POPC   C2B24764  29.322  27.758   8.253
 6773POPC   C3B24765  29.238  27.820   7.953
 6773POPC   C4B24766  29.241  27.802   7.653
 6774POPC   NC324767  32.286  19.826   9.453
 6774POPC   PO424768  32.226  19.865   9.153
 6774POPC   GL124769  32.237  19.846   8.853
 6774POPC   GL224770  32.307  19.915   8.853
 6774POPC   C1A24771  32.286  19.852   8.553
 6774POPC   D2A24772  32.275  19.834   8.253
 6774POPC   C3A24773  32.286  19.816   7.953
 6774POPC   C4A24774  32.237  19.853   7.653
 6774POPC   C1B24775  32.316  20.069   8.553
 6774POPC   C2B24776  32.322  20.042   8.253
 6774POPC   C3B24777  32.282  20.058   7.953
 6774POPC   C4B24778  32.334  20.112   7.653
 6775POPC   NC324779  18.268   8.960   9.453
 6775POPC   PO424780  18.318   8.999   9.153
 6775POPC   GL124781  18.327   8.991   8.853
 6775POPC   GL224782  18.328   8.858   8.853
 6775POPC   C1A24783  18.291   9.022   8.553
 6775POPC   D2A24784  18.251   8.979   8.253
 6775POPC   C3A24785  18.276   8.994   7.953
 6775POPC   C4A24786  18.293   8.999   7.653
 6775POPC   C1B24787  18.352   8.698   8.553
 6775POPC   C2B24788  18.267   8.696   8.253
 6775POPC   C3B24789  18.329   8.680   7.953
 6775POPC   C4B24790  18.256   8.690   7.653
 6776POPC   NC324791  37.706  11.259   9.453
 6776POPC   PO424792  37.650  11.293   9.153
 6776POPC   GL124793  37.719  11.327   8.853
 6776POPC   GL224794  37.612  11.375   8.853
 6776POPC   C1A24795  37.654  11.332   8.553
 6776POPC   D2A24796  37.692  11.328   8.253
 6776POPC   C3A24797  37.682  11.294   7.953
 6776POPC   C4A24798  37.726  11.325   7.653
 6776POPC   C1B24799  37.441  11.398   8.553
 6776POPC   C2B24800  37.497  11.470   8.253
 6776POPC   C3B24801  37.422  11.392   7.953
 6776POPC   C4B24802  37.501  11.424   7.653
 6777POPC   NC324803   8.982  30.731   9.453
 6777POPC   PO424804   8.960  30.722   9.153
 6777POPC   GL124805   9.010  30.699   8.853
 6777POPC   GL224806   9.061  30.704   8.853
 6777POPC   C1A24807   8.963  30.679   8.553
 6777POPC   D2A24808   8.938  30.711   8.253
 6777POPC   C3A24809   8.955  30.691   7.953
 6777POPC   C4A24810   9.003  30.658   7.653
 6777POPC   C1B24811   9.185  30.768   8.553
 6777POPC   C2B24812   9.246  30.806   8.253
 6777POPC   C3B24813   9.218  30.778   7.953
 6777POPC   C4B24814   9.241  30.799   7.653
 6778POPC   NC324815   1.953  19.822   9.453
 6778POPC   PO424816   2.004  19.847   9.153
 6778POPC   GL124817   2.034  19.876   8.853
 6778POPC   GL224818   1.898  19.877   8.853
 6778POPC   C1A24819   1.958  19.813   8.553
 6778POPC   D2A24820   1.954  19.821   8.253
 6778POPC   C3A24821   2.023  19.879   7.953
 6778POPC   C4A24822   1.965  19.802   7.653
 6778POPC   C1B24823   1.798  19.898   8.553
 6778POPC   C2B24824   1.777  19.900   8.253
 6778POPC   C3B24825   1.767  19.900   7.953
 6778POPC   C4B24826   1.805  19.889   7.653
 6779POPC   NC324827  43.137  36.083   9.453
 6779POPC   PO424828  43.071  36.119   9.153
 6779POPC   GL124829  43.143  36.098   8.853
 6779POPC   GL224830  43.240  36.126   8.853
 6779POPC   C1A24831  43.151  36.138   8.553
 6779POPC   D2A24832  43.155  36.088   8.253
 6779POPC   C3A24833  43.077  36.167   7.953
 6779POPC   C4A24834  43.062  36.173   7.653
 6779POPC   C1B24835  43.319  36.103   8.553
 6779POPC   C2B24836  43.347  36.156   8.253
 6779POPC   C3B24837  43.341  36.138   7.953
 6779POPC   C4B24838  43.355  36.117   7.653
 6780POPC   NC324839  26.785  37.715   9.453
 6780POPC   PO424840  26.792  37.686   9.153
 6780POPC   GL124841  26.824  37.710   8.853
 6780POPC   GL224842  26.747  37.608   8.853
 6780POPC   C1A24843  26.807  37.686   8.553
 6780POPC   D2A24844  26.785  37.666   8.253
 6780POPC   C3A24845  26.817  37.691   7.953
 6780POPC   C4A24846  26.813  37.636   7.653
 6780POPC   C1B24847  26.621  37.482   8.553
 6780POPC   C2B24848  26.620  37.504   8.253
 6780POPC   C3B24849  26.661  37.528   7.953
 6780POPC   C4B24850  26.579  37.492   7.653
 6781POPC   NC324851  17.543   9.013   9.453
 6781POPC   PO424852  17.546   8.958   9.153
 6781POPC   GL124853  17.555   8.981   8.853
 6781POPC   GL224854  17.615   8.850   8.853
 6781POPC   C1A24855  17.464   8.926   8.553
 6781POPC   D2A24856  17.461   9.018   8.253
 6781POPC   C3A24857  17.514   8.933   7.953
 6781POPC   C4A24858  17.464   8.951   7.653
 6781POPC   C1B24859  17.670   8.829   8.553
 6781POPC   C2B24860  17.648   8.826   8.253
 6781POPC   C3B24861  17.685   8.831   7.953
 6781POPC   C4B24862  17.680   8.770   7.653
 6782POPC   NC324863  37.633  10.478   9.453
 6782POPC   PO424864  37.706  10.531   9.153
 6782POPC   GL124865  37.631  10.560   8.853
 6782POPC   GL224866  37.768  10.464   8.853
 6782POPC   C1A24867  37.704  10.568   8.553
 6782POPC   D2A24868  37.649  10.540   8.253
 6782POPC   C3A24869  37.643  10.520   7.953
 6782POPC   C4A24870  37.668  10.539   7.653
 6782POPC   C1B24871  37.792  10.294   8.553
 6782POPC   C2B24872  37.774  10.301   8.253
 6782POPC   C3B24873  37.836  10.300   7.953
 6782POPC   C4B24874  37.791  10.337   7.653
 6783POPC   NC324875   5.882   6.634   9.453
 6783POPC   PO424876   5.845   6.604   9.153
 6783POPC   GL124877   5.845   6.692   8.853
 6783POPC   GL224878   5.728   6.680   8.853
 6783POPC   C1A24879   5.822   6.612   8.553
 6783POPC   D2A24880   5.850   6.691   8.253
 6783POPC   C3A24881   5.824   6.597   7.953
 6783POPC   C4A24882   5.909   6.674   7.653
 6783POPC   C1B24883   5.572   6.641   8.553
 6783POPC   C2B24884   5.623   6.575   8.253
 6783POPC   C3B24885   5.651   6.572   7.953
 6783POPC   C4B24886   5.578   6.572   7.653
 6784POPC   NC324887   3.535  22.186   9.453
 6784POPC   PO424888   3.590  22.177   9.153
 6784POPC   GL124889   3.533  22.147   8.853
 6784POPC   GL224890   3.533  22.293   8.853
 6784POPC   C1A24891   3.492  22.131   8.553
 6784POPC   D2A24892   3.572  22.173   8.253
 6784POPC   C3A24893   3.515  22.161   7.953
 6784POPC   C4A24894   3.519  22.118   7.653
 6784POPC   C1B24895   3.507  22.402   8.553
 6784POPC   C2B24896   3.566  22.426   8.253
 6784POPC   C3B24897   3.527  22.438   7.953
 6784POPC   C4B24898   3.551  22.414   7.653
 6785POPC   NC324899  39.268   5.877   9.453
 6785POPC   PO424900  39.269   5.919   9.153
 6785POPC   GL124901  39.273   5.865   8.853
 6785POPC   GL224902  39.375   5.819   8.853
 6785POPC   C1A24903  39.249   5.878   8.553
 6785POPC   D2A24904  39.247   5.819   8.253
 6785POPC   C3A24905  39.263   5.846   7.953
 6785POPC   C4A24906  39.193   5.826   7.653
 6785POPC   C1B24907  39.462   5.687   8.553
 6785POPC   C2B24908  39.464   5.753   8.253
 6785POPC   C3B24909  39.394   5.741   7.953
 6785POPC   C4B24910  39.429   5.686   7.653
 6786POPC   NC324911  22.194  22.211   9.453
 6786POPC   PO424912  22.196  22.196   9.153
 6786POPC   GL124913  22.141  22.192   8.853
 6786POPC   GL224914  22.095  22.046   8.853
 6786POPC   C1A24915  22.134  22.128   8.553
 6786POPC   D2A24916  22.139  22.137   8.253
 6786POPC   C3A24917  22.123  22.183   7.953
 6786POPC   C4A24918  22.189  22.181   7.653
 6786POPC   C1B24919  22.075  21.905   8.553
 6786POPC   C2B24920  22.121  21.946   8.253
 6786POPC   C3B24921  22.057  21.889   7.953
 6786POPC   C4B24922  22.094  21.960   7.653
 6787POPC   NC324923  33.843  36.872   9.453
 6787POPC   PO424924  33.811  36.906   9.153
 6787POPC   GL124925  33.815  36.873   8.853
 6787POPC   GL224926  33.876  36.791   8.853
 6787POPC   C1A24927  33.815  36.953   8.553
 6787POPC   D2A24928  33.758  36.872   8.253
 6787POPC   C3A24929  33.816  36.908   7.953
 6787POPC   C4A24930  33.847  36.857   7.653
 6787POPC   C1B24931  33.977  36.768   8.553
 6787POPC   C2B24932  33.969  36.774   8.253
 6787POPC   C3B24933  33.959  36.741   7.953
 6787POPC   C4B24934  33.970  36.720   7.653
 6788POPC   NC324935  13.618  29.914   9.453
 6788POPC   PO424936  13.594  29.918   9.153
 6788POPC   GL124937  13.629  29.914   8.853
 6788POPC   GL224938  13.534  29.849   8.853
 6788POPC   C1A24939  13.625  29.872   8.553
 6788POPC   D2A24940  13.631  29.903   8.253
 6788POPC   C3A24941  13.613  29.889   7.953
 6788POPC   C4A24942  13.623  29.878   7.653
 6788POPC   C1B24943  13.426  29.808   8.553
 6788POPC   C2B24944  13.412  29.791   8.253
 6788POPC   C3B24945  13.470  29.803   7.953
 6788POPC   C4B24946  13.394  29.769   7.653
 6789POPC   NC324947  35.314  20.634   9.453
 6789POPC   PO424948  35.329  20.623   9.153
 6789POPC   GL124949  35.355  20.571   8.853
 6789POPC   GL224950  35.325  20.481   8.853
 6789POPC   C1A24951  35.331  20.577   8.553
 6789POPC   D2A24952  35.372  20.593   8.253
 6789POPC   C3A24953  35.372  20.607   7.953
 6789POPC   C4A24954  35.398  20.637   7.653
 6789POPC   C1B24955  35.299  20.351   8.553
 6789POPC   C2B24956  35.266  20.336   8.253
 6789POPC   C3B24957  35.304  20.381   7.953
 6789POPC   C4B24958  35.259  20.406   7.653
 6790POPC   NC324959  20.607  25.227   9.453
 6790POPC   PO424960  20.593  25.274   9.153
 6790POPC   GL124961  20.587  25.283   8.853
 6790POPC   GL224962  20.712  25.281   8.853
 6790POPC   C1A24963  20.660  25.300   8.553
 6790POPC   D2A24964  20.621  25.228   8.253
 6790POPC   C3A24965  20.604  25.254   7.953
 6790POPC   C4A24966  20.598  25.286   7.653
 6790POPC   C1B24967  20.846  25.304   8.553
 6790POPC   C2B24968  20.888  25.304   8.253
 6790POPC   C3B24969  20.842  25.258   7.953
 6790POPC   C4B24970  20.855  25.215   7.653
 6791POPC   NC324971  40.828  33.804   9.453
 6791POPC   PO424972  40.764  33.771   9.153
 6791POPC   GL124973  40.778  33.814   8.853
 6791POPC   GL224974  40.902  33.819   8.853
 6791POPC   C1A24975  40.781  33.843   8.553
 6791POPC   D2A24976  40.784  33.815   8.253
 6791POPC   C3A24977  40.794  33.777   7.953
 6791POPC   C4A24978  40.733  33.788   7.653
 6791POPC   C1B24979  41.038  33.767   8.553
 6791POPC   C2B24980  41.021  33.802   8.253
 6791POPC   C3B24981  41.048  33.812   7.953
 6791POPC   C4B24982  41.082  33.736   7.653
 6792POPC   NC324983  13.658  39.996   9.453
 6792POPC   PO424984  13.650  39.998   9.153
 6792POPC   GL124985  13.649  40.032   8.853
 6792POPC   GL224986  13.590  40.108   8.853
 6792POPC   C1A24987  13.656  39.980   8.553
 6792POPC   D2A24988  13.670  40.023   8.253
 6792POPC   C3A24989  13.632  40.019   7.953
 6792POPC   C4A24990  13.590  39.971   7.653
 6792POPC   C1B24991  13.443  40.154   8.553
 6792POPC   C2B24992  13.504  40.160   8.253
 6792POPC   C3B24993  13.472  40.198   7.953
 6792POPC   C4B24994  13.430  40.217   7.653
 6793POPC   NC324995  27.588  23.681   9.453
 6793POPC   PO424996  27.625  23.723   9.153
 6793POPC   GL124997  27.570  23.695   8.853
 6793POPC   GL224998  27.546  23.834   8.853
 6793POPC   C1A24999  27.597  23.713   8.553
 6793POPC   D2A25000  27.585  23.719   8.253
 6793POPC   C3A25001  27.575  23.666   7.953
 6793POPC   C4A25002  27.554  23.711   7.653
 6793POPC   C1B25003  27.553  23.991   8.553
 6793POPC   C2B25004  27.556  23.954   8.253
 6793POPC   C3B25005  27.539  23.915   7.953
 6793POPC   C4B25006  27.527  23.969   7.653
 6794POPC   NC325007   3.494   1.945   9.453
 6794POPC   PO425008   3.510   1.968   9.153
 6794POPC   GL125009   3.553   1.941   8.853
 6794POPC   GL225010   3.600   2.121   8.853
 6794POPC   C1A25011   3.517   1.990   8.553
 6794POPC   D2A25012   3.520   2.027   8.253
 6794POPC   C3A25013   3.565   2.037   7.953
 6794POPC   C4A25014   3.554   2.018   7.653
 6794POPC   C1B25015   3.566   2.198   8.553
 6794POPC   C2B25016   3.564   2.184   8.253
 6794POPC   C3B25017   3.595   2.232   7.953
 6794POPC   C4B25018   3.577   2.187   7.653
 6795POPC   NC325019   2.020  12.882   9.453
 6795POPC   PO425020   1.943  12.812   9.153
 6795POPC   GL125021   1.947  12.808   8.853
 6795POPC   GL225022   2.084  12.901   8.853
 6795POPC   C1A25023   1.995  12.836   8.553
 6795POPC   D2A25024   1.943  12.830   8.253
 6795POPC   C3A25025   2.006  12.871   7.953
 6795POPC   C4A25026   2.008  12.880   7.653
 6795POPC   C1B25027   2.201  12.861   8.553
 6795POPC   C2B25028   2.189  12.894   8.253
 6795POPC   C3B25029   2.253  12.890   7.953
 6795POPC   C4B25030   2.260  12.886   7.653
 6796POPC   NC325031  26.063  43.850   9.453
 6796POPC   PO425032  26.014  43.872   9.153
 6796POPC   GL125033  26.041  43.879   8.853
 6796POPC   GL225034  25.888  43.861   8.853
 6796POPC   C1A25035  26.020  43.880   8.553
 6796POPC   D2A25036  25.996  43.874   8.253
 6796POPC   C3A25037  26.052  43.907   7.953
 6796POPC   C4A25038  26.083  43.844   7.653
 6796POPC   C1B25039  25.762  43.927   8.553
 6796POPC   C2B25040  25.831  43.902   8.253
 6796POPC   C3B25041  25.835  43.850   7.953
 6796POPC   C4B25042  25.761  43.881   7.653
 6797POPC   NC325043  43.861  34.557   9.453
 6797POPC   PO425044  43.888  34.620   9.153
 6797POPC   GL125045  43.856  34.613   8.853
 6797POPC   GL225046  43.756  34.573   8.853
 6797POPC   C1A25047  43.879  34.621   8.553
 6797POPC   D2A25048  43.901  34.591   8.253
 6797POPC   C3A25049  43.900  34.619   7.953
 6797POPC   C4A25050  43.898  34.530   7.653
 6797POPC   C1B25051  43.694  34.541   8.553
 6797POPC   C2B25052  43.658  34.545   8.253
 6797POPC   C3B25053  43.662  34.552   7.953
 6797POPC   C4B25054  43.683  34.544   7.653
 6798POPC   NC325055  36.858  26.081   9.453
 6798POPC   PO425056  36.861  26.089   9.153
 6798POPC   GL125057  36.950  26.076   8.853
 6798POPC   GL225058  36.803  26.011   8.853
 6798POPC   C1A25059  36.927  26.062   8.553
 6798POPC   D2A25060  36.902  26.066   8.253
 6798POPC   C3A25061  36.916  26.086   7.953
 6798POPC   C4A25062  36.920  25.998   7.653
 6798POPC   C1B25063  36.687  25.910   8.553
 6798POPC   C2B25064  36.720  25.973   8.253
 6798POPC   C3B25065  36.642  25.932   7.953
 6798POPC   C4B25066  36.631  25.976   7.653
 6799POPC   NC325067   5.841  12.111   9.453
 6799POPC   PO425068   5.915  12.040   9.153
 6799POPC   GL125069   5.884  12.077   8.853
 6799POPC   GL225070   5.765  11.962   8.853
 6799POPC   C1A25071   5.831  12.040   8.553
 6799POPC   D2A25072   5.902  12.066   8.253
 6799POPC   C3A25073   5.873  12.058   7.953
 6799POPC   C4A25074   5.890  12.120   7.653
 6799POPC   C1B25075   5.707  11.888   8.553
 6799POPC   C2B25076   5.694  11.884   8.253
 6799POPC   C3B25077   5.686  11.883   7.953
 6799POPC   C4B25078   5.735  11.863   7.653
 6800POPC   NC325079  40.813  43.851   9.453
 6800POPC   PO425080  40.799  43.881   9.153
 6800POPC   GL125081  40.739  43.885   8.853
 6800POPC   GL225082  40.817  43.965   8.853
 6800POPC   C1A25083  40.756  43.865   8.553
 6800POPC   D2A25084  40.734  43.859   8.253
 6800POPC   C3A25085  40.741  43.889   7.953
 6800POPC   C4A25086  40.760  43.873   7.653
 6800POPC   C1B25087  40.856  44.149   8.553
 6800POPC   C2B25088  40.858  44.108   8.253
 6800POPC   C3B25089  40.776  44.096   7.953
 6800POPC   C4B25090  40.780  44.091   7.653
 6801POPC   NC325091   5.125  25.303   9.453
 6801POPC   PO425092   5.094  25.252   9.153
 6801POPC   GL125093   5.094  25.301   8.853
 6801POPC   GL225094   5.148  25.398   8.853
 6801POPC   C1A25095   5.140  25.262   8.553
 6801POPC   D2A25096   5.133  25.258   8.253
 6801POPC   C3A25097   5.054  25.314   7.953
 6801POPC   C4A25098   5.134  25.310   7.653
 6801POPC   C1B25099   5.106  25.500   8.553
 6801POPC   C2B25100   5.166  25.547   8.253
 6801POPC   C3B25101   5.197  25.464   7.953
 6801POPC   C4B25102   5.174  25.556   7.653
 6802POPC   NC325103  13.612   9.727   9.453
 6802POPC   PO425104  13.594   9.755   9.153
 6802POPC   GL125105  13.673   9.773   8.853
 6802POPC   GL225106  13.540   9.618   8.853
 6802POPC   C1A25107  13.602   9.718   8.553
 6802POPC   D2A25108  13.595   9.741   8.253
 6802POPC   C3A25109  13.659   9.775   7.953
 6802POPC   C4A25110  13.615   9.777   7.653
 6802POPC   C1B25111  13.447   9.580   8.553
 6802POPC   C2B25112  13.469   9.522   8.253
 6802POPC   C3B25113  13.446   9.556   7.953
 6802POPC   C4B25114  13.439   9.595   7.653
 6803POPC   NC325115  12.076  16.686   9.453
 6803POPC   PO425116  12.091  16.748   9.153
 6803POPC   GL125117  12.057  16.746   8.853
 6803POPC   GL225118  11.985  16.799   8.853
 6803POPC   C1A25119  12.101  16.724   8.553
 6803POPC   D2A25120  12.058  16.715   8.253
 6803POPC   C3A25121  12.099  16.775   7.953
 6803POPC   C4A25122  12.071  16.716   7.653
 6803POPC   C1B25123  12.013  16.973   8.553
 6803POPC   C2B25124  11.995  16.973   8.253
 6803POPC   C3B25125  11.953  17.004   7.953
 6803POPC   C4B25126  12.027  16.942   7.653
 6804POPC   NC325127  26.867  41.514   9.453
 6804POPC   PO425128  26.833  41.534   9.153
 6804POPC   GL125129  26.841  41.546   8.853
 6804POPC   GL225130  26.715  41.646   8.853
 6804POPC   C1A25131  26.797  41.565   8.553
 6804POPC   D2A25132  26.844  41.562   8.253
 6804POPC   C3A25133  26.785  41.519   7.953
 6804POPC   C4A25134  26.791  41.608   7.653
 6804POPC   C1B25135  26.565  41.737   8.553
 6804POPC   C2B25136  26.653  41.655   8.253
 6804POPC   C3B25137  26.619  41.679   7.953
 6804POPC   C4B25138  26.620  41.728   7.653
 6805POPC   NC325139  43.125  26.791   9.453
 6805POPC   PO425140  43.117  26.838   9.153
 6805POPC   GL125141  43.119  26.802   8.853
 6805POPC   GL225142  43.040  26.670   8.853
 6805POPC   C1A25143  43.114  26.858   8.553
 6805POPC   D2A25144  43.074  26.806   8.253
 6805POPC   C3A25145  43.083  26.819   7.953
 6805POPC   C4A25146  43.087  26.844   7.653
 6805POPC   C1B25147  43.077  26.544   8.553
 6805POPC   C2B25148  43.077  26.547   8.253
 6805POPC   C3B25149  43.093  26.577   7.953
 6805POPC   C4B25150  43.093  26.557   7.653
 6806POPC   NC325151   5.109  41.535   9.453
 6806POPC   PO425152   5.081  41.606   9.153
 6806POPC   GL125153   5.111  41.546   8.853
 6806POPC   GL225154   5.159  41.523   8.853
 6806POPC   C1A25155   5.141  41.517   8.553
 6806POPC   D2A25156   5.132  41.549   8.253
 6806POPC   C3A25157   5.067  41.554   7.953
 6806POPC   C4A25158   5.124  41.541   7.653
 6806POPC   C1B25159   5.331  41.476   8.553
 6806POPC   C2B25160   5.275  41.425   8.253
 6806POPC   C3B25161   5.284  41.407   7.953
 6806POPC   C4B25162   5.356  41.439   7.653
 6807POPC   NC325163  42.367  17.535   9.453
 6807POPC   PO425164  42.334  17.537   9.153
 6807POPC   GL125165  42.342  17.498   8.853
 6807POPC   GL225166  42.255  17.595   8.853
 6807POPC   C1A25167  42.381  17.550   8.553
 6807POPC   D2A25168  42.377  17.476   8.253
 6807POPC   C3A25169  42.353  17.473   7.953
 6807POPC   C4A25170  42.334  17.555   7.653
 6807POPC   C1B25171  42.219  17.668   8.553
 6807POPC   C2B25172  42.167  17.663   8.253
 6807POPC   C3B25173  42.176  17.739   7.953
 6807POPC   C4B25174  42.224  17.753   7.653
 6808POPC   NC325175  33.788  27.568   9.453
 6808POPC   PO425176  33.820  27.597   9.153
 6808POPC   GL125177  33.751  27.611   8.853
 6808POPC   GL225178  33.898  27.639   8.853
 6808POPC   C1A25179  33.754  27.580   8.553
 6808POPC   D2A25180  33.770  27.622   8.253
 6808POPC   C3A25181  33.769  27.545   7.953
 6808POPC   C4A25182  33.792  27.568   7.653
 6808POPC   C1B25183  34.067  27.682   8.553
 6808POPC   C2B25184  33.992  27.636   8.253
 6808POPC   C3B25185  33.995  27.645   7.953
 6808POPC   C4B25186  34.022  27.634   7.653
 6809POPC   NC325187   9.794   8.198   9.453
 6809POPC   PO425188   9.737   8.180   9.153
 6809POPC   GL125189   9.751   8.200   8.853
 6809POPC   GL225190   9.714   8.084   8.853
 6809POPC   C1A25191   9.714   8.238   8.553
 6809POPC   D2A25192   9.729   8.159   8.253
 6809POPC   C3A25193   9.726   8.205   7.953
 6809POPC   C4A25194   9.735   8.193   7.653
 6809POPC   C1B25195   9.683   7.922   8.553
 6809POPC   C2B25196   9.605   7.992   8.253
 6809POPC   C3B25197   9.634   8.001   7.953
 6809POPC   C4B25198   9.640   8.001   7.653
 6810POPC   NC325199  40.814  30.701   9.453
 6810POPC   PO425200  40.747  30.704   9.153
 6810POPC   GL125201  40.762  30.728   8.853
 6810POPC   GL225202  40.903  30.690   8.853
 6810POPC   C1A25203  40.804  30.676   8.553
 6810POPC   D2A25204  40.821  30.662   8.253
 6810POPC   C3A25205  40.733  30.668   7.953
 6810POPC   C4A25206  40.790  30.744   7.653
 6810POPC   C1B25207  41.063  30.687   8.553
 6810POPC   C2B25208  41.010  30.754   8.253
 6810POPC   C3B25209  40.999  30.716   7.953
 6810POPC   C4B25210  41.005  30.677   7.653
 6811POPC   NC325211   8.950   8.188   9.453
 6811POPC   PO425212   8.997   8.201   9.153
 6811POPC   GL125213   8.954   8.226   8.853
 6811POPC   GL225214   8.869   8.197   8.853
 6811POPC   C1A25215   8.992   8.164   8.553
 6811POPC   D2A25216   8.988   8.217   8.253
 6811POPC   C3A25217   8.968   8.200   7.953
 6811POPC   C4A25218   8.987   8.182   7.653
 6811POPC   C1B25219   8.697   8.196   8.553
 6811POPC   C2B25220   8.740   8.207   8.253
 6811POPC   C3B25221   8.677   8.183   7.953
 6811POPC   C4B25222   8.727   8.142   7.653
 6812POPC   NC325223  28.391  36.869   9.453
 6812POPC   PO425224  28.398  36.868   9.153
 6812POPC   GL125225  28.342  36.919   8.853
 6812POPC   GL225226  28.342  36.731   8.853
 6812POPC   C1A25227  28.344  36.891   8.553
 6812POPC   D2A25228  28.360  36.912   8.253
 6812POPC   C3A25229  28.388  36.919   7.953
 6812POPC   C4A25230  28.386  36.890   7.653
 6812POPC   C1B25231  28.359  36.641   8.553
 6812POPC   C2B25232  28.364  36.635   8.253
 6812POPC   C3B25233  28.325  36.677   7.953
 6812POPC   C4B25234  28.361  36.654   7.653
 6813POPC   NC325235  32.977   8.937   9.453
 6813POPC   PO425236  33.061   8.957   9.153
 6813POPC   GL125237  33.045   8.933   8.853
 6813POPC   GL225238  33.148   8.941   8.853
 6813POPC   C1A25239  33.049   8.997   8.553
 6813POPC   D2A25240  32.997   8.934   8.253
 6813POPC   C3A25241  33.020   8.927   7.953
 6813POPC   C4A25242  33.039   9.016   7.653
 6813POPC   C1B25243  33.264   8.973   8.553
 6813POPC   C2B25244  33.301   8.979   8.253
 6813POPC   C3B25245  33.258   8.889   7.953
 6813POPC   C4B25246  33.288   8.893   7.653
 6814POPC   NC325247  10.479  17.529   9.453
 6814POPC   PO425248  10.485  17.469   9.153
 6814POPC   GL125249  10.542  17.543   8.853
 6814POPC   GL225250  10.496  17.411   8.853
 6814POPC   C1A25251  10.479  17.465   8.553
 6814POPC   D2A25252  10.549  17.483   8.253
 6814POPC   C3A25253  10.485  17.501   7.953
 6814POPC   C4A25254  10.535  17.503   7.653
 6814POPC   C1B25255  10.454  17.246   8.553
 6814POPC   C2B25256  10.420  17.287   8.253
 6814POPC   C3B25257  10.390  17.272   7.953
 6814POPC   C4B25258  10.392  17.272   7.653
 6815POPC   NC325259  10.549   2.016   9.453
 6815POPC   PO425260  10.514   1.949   9.153
 6815POPC   GL125261  10.566   1.985   8.853
 6815POPC   GL225262  10.680   2.009   8.853
 6815POPC   C1A25263  10.512   1.963   8.553
 6815POPC   D2A25264  10.501   1.967   8.253
 6815POPC   C3A25265  10.535   1.974   7.953
 6815POPC   C4A25266  10.544   1.981   7.653
 6815POPC   C1B25267  10.755   2.057   8.553
 6815POPC   C2B25268  10.768   2.048   8.253
 6815POPC   C3B25269  10.812   2.045   7.953
 6815POPC   C4B25270  10.798   2.010   7.653
 6816POPC   NC325271   1.256   1.225   9.453
 6816POPC   PO425272   1.210   1.220   9.153
 6816POPC   GL125273   1.216   1.180   8.853
 6816POPC   GL225274   1.285   1.342   8.853
 6816POPC   C1A25275   1.186   1.224   8.553
 6816POPC   D2A25276   1.217   1.256   8.253
 6816POPC   C3A25277   1.179   1.261   7.953
 6816POPC   C4A25278   1.195   1.205   7.653
 6816POPC   C1B25279   1.347   1.415   8.553
 6816POPC   C2B25280   1.337   1.431   8.253
 6816POPC   C3B25281   1.306   1.433   7.953
 6816POPC   C4B25282   1.324   1.387   7.653
 6817POPC   NC325283   9.017  35.337   9.453
 6817POPC   PO425284   8.995  35.333   9.153
 6817POPC   GL125285   8.961  35.322   8.853
 6817POPC   GL225286   9.042  35.453   8.853
 6817POPC   C1A25287   8.939  35.390   8.553
 6817POPC   D2A25288   8.956  35.304   8.253
 6817POPC   C3A25289   8.938  35.351   7.953
 6817POPC   C4A25290   8.988  35.317   7.653
 6817POPC   C1B25291   9.080  35.518   8.553
 6817POPC   C2B25292   9.121  35.536   8.253
 6817POPC   C3B25293   9.172  35.565   7.953
 6817POPC   C4B25294   9.124  35.548   7.653
 6818POPC   NC325295  34.542  19.102   9.453
 6818POPC   PO425296  34.575  19.046   9.153
 6818POPC   GL125297  34.609  19.029   8.853
 6818POPC   GL225298  34.743  19.069   8.853
 6818POPC   C1A25299  34.575  19.068   8.553
 6818POPC   D2A25300  34.558  19.078   8.253
 6818POPC   C3A25301  34.579  19.078   7.953
 6818POPC   C4A25302  34.585  19.060   7.653
 6818POPC   C1B25303  34.840  19.183   8.553
 6818POPC   C2B25304  34.797  19.116   8.253
 6818POPC   C3B25305  34.843  19.160   7.953
 6818POPC   C4B25306  34.811  19.098   7.653
 6819POPC   NC325307  22.967  43.094   9.453
 6819POPC   PO425308  22.961  43.121   9.153
 6819POPC   GL125309  22.940  43.123   8.853
 6819POPC   GL225310  22.908  43.224   8.853
 6819POPC   C1A25311  22.917  43.130   8.553
 6819POPC   D2A25312  22.929  43.117   8.253
 6819POPC   C3A25313  22.926  43.099   7.953
 6819POPC   C4A25314  22.985  43.134   7.653
 6819POPC   C1B25315  22.838  43.291   8.553
 6819POPC   C2B25316  22.799  43.338   8.253
 6819POPC   C3B25317  22.779  43.341   7.953
 6819POPC   C4B25318  22.853  43.287   7.653
 6820POPC   NC325319  14.432  35.361   9.453
 6820POPC   PO425320  14.424  35.338   9.153
 6820POPC   GL125321  14.446  35.375   8.853
 6820POPC   GL225322  14.278  35.260   8.853
 6820POPC   C1A25323  14.359  35.319   8.553
 6820POPC   D2A25324  14.356  35.336   8.253
 6820POPC   C3A25325  14.357  35.402   7.953
 6820POPC   C4A25326  14.362  35.399   7.653
 6820POPC   C1B25327  14.171  35.242   8.553
 6820POPC   C2B25328  14.169  35.306   8.253
 6820POPC   C3B25329  14.187  35.302   7.953
 6820POPC   C4B25330  14.172  35.264   7.653
 6821POPC   NC325331  15.155  11.322   9.453
 6821POPC   PO425332  15.138  11.281   9.153
 6821POPC   GL125333  15.210  11.270   8.853
 6821POPC   GL225334  15.091  11.390   8.853
 6821POPC   C1A25335  15.190  11.323   8.553
 6821POPC   D2A25336  15.174  11.298   8.253
 6821POPC   C3A25337  15.134  11.303   7.953
 6821POPC   C4A25338  15.210  11.252   7.653
 6821POPC   C1B25339  15.083  11.500   8.553
 6821POPC   C2B25340  15.005  11.467   8.253
 6821POPC   C3B25341  15.071  11.475   7.953
 6821POPC   C4B25342  15.030  11.495   7.653
 6822POPC   NC325343  35.372  22.936   9.453
 6822POPC   PO425344  35.360  22.983   9.153
 6822POPC   GL125345  35.333  22.986   8.853
 6822POPC   GL225346  35.333  22.795   8.853
 6822POPC   C1A25347  35.319  22.968   8.553
 6822POPC   D2A25348  35.355  22.927   8.253
 6822POPC   C3A25349  35.371  22.978   7.953
 6822POPC   C4A25350  35.401  22.986   7.653
 6822POPC   C1B25351  35.230  22.746   8.553
 6822POPC   C2B25352  35.266  22.719   8.253
 6822POPC   C3B25353  35.194  22.711   7.953
 6822POPC   C4B25354  35.252  22.764   7.653
 6823POPC   NC325355  29.915  14.364   9.453
 6823POPC   PO425356  29.944  14.409   9.153
 6823POPC   GL125357  29.936  14.420   8.853
 6823POPC   GL225358  29.809  14.492   8.853
 6823POPC   C1A25359  29.947  14.423   8.553
 6823POPC   D2A25360  29.921  14.379   8.253
 6823POPC   C3A25361  29.877  14.374   7.953
 6823POPC   C4A25362  29.934  14.430   7.653
 6823POPC   C1B25363  29.711  14.546   8.553
 6823POPC   C2B25364  29.780  14.596   8.253
 6823POPC   C3B25365  29.712  14.621   7.953
 6823POPC   C4B25366  29.747  14.566   7.653
 6824POPC   NC325367  19.854  24.536   9.453
 6824POPC   PO425368  19.826  24.499   9.153
 6824POPC   GL125369  19.802  24.486   8.853
 6824POPC   GL225370  19.900  24.557   8.853
 6824POPC   C1A25371  19.872  24.500   8.553
 6824POPC   D2A25372  19.883  24.470   8.253
 6824POPC   C3A25373  19.877  24.510   7.953
 6824POPC   C4A25374  19.813  24.466   7.653
 6824POPC   C1B25375  19.989  24.676   8.553
 6824POPC   C2B25376  20.025  24.678   8.253
 6824POPC   C3B25377  19.969  24.676   7.953
 6824POPC   C4B25378  20.026  24.704   7.653
 6825POPC   NC325379  32.281   8.181   9.453
 6825POPC   PO425380  32.268   8.208   9.153
 6825POPC   GL125381  32.207   8.228   8.853
 6825POPC   GL225382  32.347   8.353   8.853
 6825POPC   C1A25383  32.295   8.157   8.553
 6825POPC   D2A25384  32.232   8.211   8.253
 6825POPC   C3A25385  32.206   8.237   7.953
 6825POPC   C4A25386  32.231   8.172   7.653
 6825POPC   C1B25387  32.401   8.425   8.553
 6825POPC   C2B25388  32.359   8.384   8.253
 6825POPC   C3B25389  32.398   8.386   7.953
 6825POPC   C4B25390  32.331   8.471   7.653
 6826POPC   NC325391  19.801   0.441   9.453
 6826POPC   PO425392  19.818   0.427   9.153
 6826POPC   GL125393  19.830   0.408   8.853
 6826POPC   GL225394  19.901   0.498   8.853
 6826POPC   C1A25395  19.839   0.429   8.553
 6826POPC   D2A25396  19.876   0.460   8.253
 6826POPC   C3A25397  19.799   0.450   7.953
 6826POPC   C4A25398  19.787   0.405   7.653
 6826POPC   C1B25399  19.938   0.614   8.553
 6826POPC   C2B25400  19.987   0.680   8.253
 6826POPC   C3B25401  19.996   0.669   7.953
 6826POPC   C4B25402  20.021   0.604   7.653
 6827POPC   NC325403  19.068   6.623   9.453
 6827POPC   PO425404  19.094   6.639   9.153
 6827POPC   GL125405  19.107   6.632   8.853
 6827POPC   GL225406  19.138   6.502   8.853
 6827POPC   C1A25407  19.095   6.596   8.553
 6827POPC   D2A25408  19.009   6.638   8.253
 6827POPC   C3A25409  19.071   6.690   7.953
 6827POPC   C4A25410  19.056   6.657   7.653
 6827POPC   C1B25411  19.185   6.405   8.553
 6827POPC   C2B25412  19.202   6.428   8.253
 6827POPC   C3B25413  19.243   6.423   7.953
 6827POPC   C4B25414  19.154   6.470   7.653
 6828POPC   NC325415  33.838  19.790   9.453
 6828POPC   PO425416  33.845  19.790   9.153
 6828POPC   GL125417  33.814  19.868   8.853
 6828POPC   GL225418  33.929  19.776   8.853
 6828POPC   C1A25419  33.800  19.877   8.553
 6828POPC   D2A25420  33.807  19.792   8.253
 6828POPC   C3A25421  33.805  19.784   7.953
 6828POPC   C4A25422  33.835  19.853   7.653
 6828POPC   C1B25423  34.010  19.770   8.553
 6828POPC   C2B25424  34.079  19.757   8.253
 6828POPC   C3B25425  34.074  19.779   7.953
 6828POPC   C4B25426  34.055  19.804   7.653
 6829POPC   NC325427   8.203  19.874   9.453
 6829POPC   PO425428   8.229  19.857   9.153
 6829POPC   GL125429   8.148  19.870   8.853
 6829POPC   GL225430   8.351  19.871   8.853
 6829POPC   C1A25431   8.156  19.863   8.553
 6829POPC   D2A25432   8.217  19.839   8.253
 6829POPC   C3A25433   8.162  19.800   7.953
 6829POPC   C4A25434   8.185  19.876   7.653
 6829POPC   C1B25435   8.408  19.902   8.553
 6829POPC   C2B25436   8.457  19.853   8.253
 6829POPC   C3B25437   8.472  19.860   7.953
 6829POPC   C4B25438   8.400  19.891   7.653
 6830POPC   NC325439  35.309  24.495   9.453
 6830POPC   PO425440  35.309  24.529   9.153
 6830POPC   GL125441  35.325  24.513   8.853
 6830POPC   GL225442  35.414  24.551   8.853
 6830POPC   C1A25443  35.343  24.501   8.553
 6830POPC   D2A25444  35.310  24.529   8.253
 6830POPC   C3A25445  35.307  24.524   7.953
 6830POPC   C4A25446  35.381  24.443   7.653
 6830POPC   C1B25447  35.506  24.693   8.553
 6830POPC   C2B25448  35.532  24.700   8.253
 6830POPC   C3B25449  35.510  24.627   7.953
 6830POPC   C4B25450  35.527  24.658   7.653
 6831POPC   NC325451   1.176  13.609   9.453
 6831POPC   PO425452   1.237  13.674   9.153
 6831POPC   GL125453   1.240  13.653   8.853
 6831POPC   GL225454   1.339  13.583   8.853
 6831POPC   C1A25455   1.191  13.649   8.553
 6831POPC   D2A25456   1.183  13.588   8.253
 6831POPC   C3A25457   1.219  13.580   7.953
 6831POPC   C4A25458   1.195  13.602   7.653
 6831POPC   C1B25459   1.421  13.439   8.553
 6831POPC   C2B25460   1.442  13.511   8.253
 6831POPC   C3B25461   1.374  13.469   7.953
 6831POPC   C4B25462   1.425  13.503   7.653
 6832POPC   NC325463  22.194   1.247   9.453
 6832POPC   PO425464  22.188   1.212   9.153
 6832POPC   GL125465  22.163   1.232   8.853
 6832POPC   GL225466  22.084   1.194   8.853
 6832POPC   C1A25467  22.196   1.186   8.553
 6832POPC   D2A25468  22.150   1.214   8.253
 6832POPC   C3A25469  22.113   1.181   7.953
 6832POPC   C4A25470  22.206   1.187   7.653
 6832POPC   C1B25471  21.878   1.127   8.553
 6832POPC   C2B25472  21.939   1.094   8.253
 6832POPC   C3B25473  21.905   1.127   7.953
 6832POPC   C4B25474  21.917   1.101   7.653
 6833POPC   NC325475  36.933  43.861   9.453
 6833POPC   PO425476  36.898  43.861   9.153
 6833POPC   GL125477  36.855  43.860   8.853
 6833POPC   GL225478  36.925  44.049   8.853
 6833POPC   C1A25479  36.912  43.868   8.553
 6833POPC   D2A25480  36.931  43.917   8.253
 6833POPC   C3A25481  36.861  43.922   7.953
 6833POPC   C4A25482  36.884  43.879   7.653
 6833POPC   C1B25483  36.997  44.174   8.553
 6833POPC   C2B25484  36.914  44.139   8.253
 6833POPC   C3B25485  36.943  44.088   7.953
 6833POPC   C4B25486  36.981  44.083   7.653
 6834POPC   NC325487  35.334   2.763   9.453
 6834POPC   PO425488  35.394   2.776   9.153
 6834POPC   GL125489  35.347   2.737   8.853
 6834POPC   GL225490  35.422   2.873   8.853
 6834POPC   C1A25491  35.343   2.756   8.553
 6834POPC   D2A25492  35.339   2.720   8.253
 6834POPC   C3A25493  35.364   2.737   7.953
 6834POPC   C4A25494  35.309   2.739   7.653
 6834POPC   C1B25495  35.551   2.931   8.553
 6834POPC   C2B25496  35.535   2.929   8.253
 6834POPC   C3B25497  35.569   2.880   7.953
 6834POPC   C4B25498  35.565   2.932   7.653
 6835POPC   NC325499  22.209  15.208   9.453
 6835POPC   PO425500  22.118  15.186   9.153
 6835POPC   GL125501  22.203  15.163   8.853
 6835POPC   GL225502  22.084  15.105   8.853
 6835POPC   C1A25503  22.205  15.194   8.553
 6835POPC   D2A25504  22.139  15.226   8.253
 6835POPC   C3A25505  22.150  15.149   7.953
 6835POPC   C4A25506  22.160  15.193   7.653
 6835POPC   C1B25507  21.938  15.081   8.553
 6835POPC   C2B25508  21.988  15.083   8.253
 6835POPC   C3B25509  21.994  15.014   7.953
 6835POPC   C4B25510  21.902  15.062   7.653
 6836POPC   NC325511  30.686  43.062   9.453
 6836POPC   PO425512  30.690  43.110   9.153
 6836POPC   GL125513  30.671  43.141   8.853
 6836POPC   GL225514  30.616  43.031   8.853
 6836POPC   C1A25515  30.715  43.134   8.553
 6836POPC   D2A25516  30.655  43.095   8.253
 6836POPC   C3A25517  30.676  43.075   7.953
 6836POPC   C4A25518  30.717  43.089   7.653
 6836POPC   C1B25519  30.522  43.031   8.553
 6836POPC   C2B25520  30.447  43.036   8.253
 6836POPC   C3B25521  30.486  42.941   7.953
 6836POPC   C4B25522  30.439  43.015   7.653
 6837POPC   NC325523  10.497  20.606   9.453
 6837POPC   PO425524  10.502  20.653   9.153
 6837POPC   GL125525  10.552  20.636   8.853
 6837POPC   GL225526  10.478  20.721   8.853
 6837POPC   C1A25527  10.478  20.584   8.553
 6837POPC   D2A25528  10.565  20.600   8.253
 6837POPC   C3A25529  10.556  20.630   7.953
 6837POPC   C4A25530  10.570  20.640   7.653
 6837POPC   C1B25531  10.370  20.792   8.553
 6837POPC   C2B25532  10.324  20.838   8.253
 6837POPC   C3B25533  10.369  20.768   7.953
 6837POPC   C4B25534  10.331  20.779   7.653
 6838POPC   NC325535  19.871  34.574   9.453
 6838POPC   PO425536  19.796  34.530   9.153
 6838POPC   GL125537  19.867  34.583   8.853
 6838POPC   GL225538  19.742  34.639   8.853
 6838POPC   C1A25539  19.870  34.526   8.553
 6838POPC   D2A25540  19.792  34.613   8.253
 6838POPC   C3A25541  19.810  34.563   7.953
 6838POPC   C4A25542  19.859  34.527   7.653
 6838POPC   C1B25543  19.622  34.617   8.553
 6838POPC   C2B25544  19.565  34.649   8.253
 6838POPC   C3B25545  19.577  34.605   7.953
 6838POPC   C4B25546  19.604  34.664   7.653
 6839POPC   NC325547  35.363  42.346   9.453
 6839POPC   PO425548  35.303  42.384   9.153
 6839POPC   GL125549  35.385  42.319   8.853
 6839POPC   GL225550  35.436  42.256   8.853
 6839POPC   C1A25551  35.354  42.345   8.553
 6839POPC   D2A25552  35.350  42.381   8.253
 6839POPC   C3A25553  35.322  42.364   7.953
 6839POPC   C4A25554  35.401  42.354   7.653
 6839POPC   C1B25555  35.548  42.241   8.553
 6839POPC   C2B25556  35.619  42.259   8.253
 6839POPC   C3B25557  35.544  42.267   7.953
 6839POPC   C4B25558  35.599  42.215   7.653
 6840POPC   NC325559   8.930  29.162   9.453
 6840POPC   PO425560   9.020  29.098   9.153
 6840POPC   GL125561   8.969  29.183   8.853
 6840POPC   GL225562   8.898  29.296   8.853
 6840POPC   C1A25563   8.928  29.192   8.553
 6840POPC   D2A25564   8.978  29.130   8.253
 6840POPC   C3A25565   8.963  29.167   7.953
 6840POPC   C4A25566   8.988  29.098   7.653
 6840POPC   C1B25567   8.882  29.370   8.553
 6840POPC   C2B25568   8.940  29.411   8.253
 6840POPC   C3B25569   8.912  29.377   7.953
 6840POPC   C4B25570   8.949  29.341   7.653
 6841POPC   NC325571   0.407  19.035   9.453
 6841POPC   PO425572   0.405  19.084   9.153
 6841POPC   GL125573   0.439  19.074   8.853
 6841POPC   GL225574   0.403  19.138   8.853
 6841POPC   C1A25575   0.460  19.070   8.553
 6841POPC   D2A25576   0.427  19.095   8.253
 6841POPC   C3A25577   0.402  19.048   7.953
 6841POPC   C4A25578   0.474  19.069   7.653
 6841POPC   C1B25579   0.319  19.226   8.553
 6841POPC   C2B25580   0.273  19.265   8.253
 6841POPC   C3B25581   0.319  19.304   7.953
 6841POPC   C4B25582   0.343  19.251   7.653
 6842POPC   NC325583   5.914  25.247   9.453
 6842POPC   PO425584   5.846  25.276   9.153
 6842POPC   GL125585   5.861  25.309   8.853
 6842POPC   GL225586   6.018  25.295   8.853
 6842POPC   C1A25587   5.906  25.250   8.553
 6842POPC   D2A25588   5.905  25.314   8.253
 6842POPC   C3A25589   5.886  25.294   7.953
 6842POPC   C4A25590   5.888  25.259   7.653
 6842POPC   C1B25591   6.107  25.405   8.553
 6842POPC   C2B25592   6.053  25.403   8.253
 6842POPC   C3B25593   6.117  25.334   7.953
 6842POPC   C4B25594   6.103  25.404   7.653
 6843POPC   NC325595  18.248   4.352   9.453
 6843POPC   PO425596  18.310   4.349   9.153
 6843POPC   GL125597  18.330   4.348   8.853
 6843POPC   GL225598  18.397   4.302   8.853
 6843POPC   C1A25599  18.313   4.276   8.553
 6843POPC   D2A25600  18.252   4.297   8.253
 6843POPC   C3A25601  18.267   4.339   7.953
 6843POPC   C4A25602  18.275   4.284   7.653
 6843POPC   C1B25603  18.515   4.265   8.553
 6843POPC   C2B25604  18.485   4.320   8.253
 6843POPC   C3B25605  18.498   4.288   7.953
 6843POPC   C4B25606  18.533   4.249   7.653
 6844POPC   NC325607  36.134   4.275   9.453
 6844POPC   PO425608  36.085   4.346   9.153
 6844POPC   GL125609  36.105   4.276   8.853
 6844POPC   GL225610  36.046   4.373   8.853
 6844POPC   C1A25611  36.164   4.312   8.553
 6844POPC   D2A25612  36.177   4.352   8.253
 6844POPC   C3A25613  36.130   4.312   7.953
 6844POPC   C4A25614  36.104   4.340   7.653
 6844POPC   C1B25615  36.001   4.558   8.553
 6844POPC   C2B25616  36.029   4.536   8.253
 6844POPC   C3B25617  35.959   4.490   7.953
 6844POPC   C4B25618  35.974   4.531   7.653
 6845POPC   NC325619  26.034  24.453   9.453
 6845POPC   PO425620  26.009  24.511   9.153
 6845POPC   GL125621  26.019  24.529   8.853
 6845POPC   GL225622  26.128  24.495   8.853
 6845POPC   C1A25623  26.028  24.507   8.553
 6845POPC   D2A25624  26.064  24.456   8.253
 6845POPC   C3A25625  26.064  24.483   7.953
 6845POPC   C4A25626  26.014  24.534   7.653
 6845POPC   C1B25627  26.273  24.478   8.553
 6845POPC   C2B25628  26.321  24.443   8.253
 6845POPC   C3B25629  26.327  24.451   7.953
 6845POPC   C4B25630  26.275  24.473   7.653
 6846POPC   NC325631  36.149  17.489   9.453
 6846POPC   PO425632  36.136  17.466   9.153
 6846POPC   GL125633  36.145  17.555   8.853
 6846POPC   GL225634  36.088  17.368   8.853
 6846POPC   C1A25635  36.147  17.469   8.553
 6846POPC   D2A25636  36.112  17.549   8.253
 6846POPC   C3A25637  36.131  17.527   7.953
 6846POPC   C4A25638  36.114  17.536   7.653
 6846POPC   C1B25639  35.936  17.334   8.553
 6846POPC   C2B25640  35.966  17.323   8.253
 6846POPC   C3B25641  35.929  17.325   7.953
 6846POPC   C4B25642  35.957  17.370   7.653
 6847POPC   NC325643  33.771  22.982   9.453
 6847POPC   PO425644  33.788  22.986   9.153
 6847POPC   GL125645  33.797  22.891   8.853
 6847POPC   GL225646  33.904  22.997   8.853
 6847POPC   C1A25647  33.810  22.969   8.553
 6847POPC   D2A25648  33.846  22.988   8.253
 6847POPC   C3A25649  33.766  22.972   7.953
 6847POPC   C4A25650  33.782  22.932   7.653
 6847POPC   C1B25651  34.019  23.071   8.553
 6847POPC   C2B25652  34.035  23.075   8.253
 6847POPC   C3B25653  34.008  23.058   7.953
 6847POPC   C4B25654  33.979  23.085   7.653
 6848POPC   NC325655   5.833  44.691   9.453
 6848POPC   PO425656   5.912  44.675   9.153
 6848POPC   GL125657   5.834  44.691   8.853
 6848POPC   GL225658   5.838  44.513   8.853
 6848POPC   C1A25659   5.876  44.658   8.553
 6848POPC   D2A25660   5.883  44.669   8.253
 6848POPC   C3A25661   5.899  44.647   7.953
 6848POPC   C4A25662   5.916  44.634   7.653
 6848POPC   C1B25663   5.789  44.426   8.553
 6848POPC   C2B25664   5.788  44.392   8.253
 6848POPC   C3B25665   5.788  44.430   7.953
 6848POPC   C4B25666   5.712  44.466   7.653
 6849POPC   NC325667   7.379  26.027   9.453
 6849POPC   PO425668   7.382  26.047   9.153
 6849POPC   GL125669   7.461  26.012   8.853
 6849POPC   GL225670   7.313  26.034   8.853
 6849POPC   C1A25671   7.439  25.998   8.553
 6849POPC   D2A25672   7.408  26.070   8.253
 6849POPC   C3A25673   7.436  26.070   7.953
 6849POPC   C4A25674   7.408  26.041   7.653
 6849POPC   C1B25675   7.210  25.941   8.553
 6849POPC   C2B25676   7.224  25.898   8.253
 6849POPC   C3B25677   7.231  25.922   7.953
 6849POPC   C4B25678   7.236  25.963   7.653
 6850POPC   NC325679   7.463  36.108   9.453
 6850POPC   PO425680   7.452  36.131   9.153
 6850POPC   GL125681   7.371  36.134   8.853
 6850POPC   GL225682   7.254  36.168   8.853
 6850POPC   C1A25683   7.456  36.081   8.553
 6850POPC   D2A25684   7.470  36.141   8.253
 6850POPC   C3A25685   7.393  36.119   7.953
 6850POPC   C4A25686   7.406  36.157   7.653
 6850POPC   C1B25687   7.158  36.146   8.553
 6850POPC   C2B25688   7.191  36.137   8.253
 6850POPC   C3B25689   7.217  36.069   7.953
 6850POPC   C4B25690   7.188  36.109   7.653
 6851POPC   NC325691  22.139  10.507   9.453
 6851POPC   PO425692  22.181  10.553   9.153
 6851POPC   GL125693  22.165  10.567   8.853
 6851POPC   GL225694  22.079  10.615   8.853
 6851POPC   C1A25695  22.205  10.554   8.553
 6851POPC   D2A25696  22.152  10.525   8.253
 6851POPC   C3A25697  22.161  10.521   7.953
 6851POPC   C4A25698  22.178  10.536   7.653
 6851POPC   C1B25699  22.010  10.710   8.553
 6851POPC   C2B25700  22.031  10.698   8.253
 6851POPC   C3B25701  22.018  10.657   7.953
 6851POPC   C4B25702  21.997  10.698   7.653
 6852POPC   NC325703  44.655  31.458   9.453
 6852POPC   PO425704  44.666  31.495   9.153
 6852POPC   GL125705  44.705  31.499   8.853
 6852POPC   GL225706  44.556  31.457   8.853
 6852POPC   C1A25707  44.615  31.469   8.553
 6852POPC   D2A25708  44.658  31.487   8.253
 6852POPC   C3A25709  44.655  31.496   7.953
 6852POPC   C4A25710  44.710  31.489   7.653
 6852POPC   C1B25711  44.435  31.417   8.553
 6852POPC   C2B25712  44.442  31.429   8.253
 6852POPC   C3B25713  44.377  31.431   7.953
 6852POPC   C4B25714  44.452  31.435   7.653
 6853POPC   NC325715  34.545  20.600   9.453
 6853POPC   PO425716  34.543  20.595   9.153
 6853POPC   GL125717  34.611  20.598   8.853
 6853POPC   GL225718  34.441  20.614   8.853
 6853POPC   C1A25719  34.594  20.621   8.553
 6853POPC   D2A25720  34.616  20.574   8.253
 6853POPC   C3A25721  34.531  20.651   7.953
 6853POPC   C4A25722  34.545  20.621   7.653
 6853POPC   C1B25723  34.328  20.504   8.553
 6853POPC   C2B25724  34.341  20.530   8.253
 6853POPC   C3B25725  34.303  20.550   7.953
 6853POPC   C4B25726  34.290  20.562   7.653
 6854POPC   NC325727   9.790  20.571   9.453
 6854POPC   PO425728   9.710  20.594   9.153
 6854POPC   GL125729   9.742  20.569   8.853
 6854POPC   GL225730   9.617  20.625   8.853
 6854POPC   C1A25731   9.767  20.572   8.553
 6854POPC   D2A25732   9.701  20.656   8.253
 6854POPC   C3A25733   9.734  20.574   7.953
 6854POPC   C4A25734   9.787  20.609   7.653
 6854POPC   C1B25735   9.468  20.660   8.553
 6854POPC   C2B25736   9.513  20.711   8.253
 6854POPC   C3B25737   9.503  20.681   7.953
 6854POPC   C4B25738   9.526  20.678   7.653
 6855POPC   NC325739  33.027  17.467   9.453
 6855POPC   PO425740  32.982  17.487   9.153
 6855POPC   GL125741  33.066  17.536   8.853
 6855POPC   GL225742  33.128  17.612   8.853
 6855POPC   C1A25743  33.062  17.525   8.553
 6855POPC   D2A25744  32.984  17.534   8.253
 6855POPC   C3A25745  32.980  17.518   7.953
 6855POPC   C4A25746  33.001  17.492   7.653
 6855POPC   C1B25747  33.268  17.612   8.553
 6855POPC   C2B25748  33.231  17.581   8.253
 6855POPC   C3B25749  33.289  17.653   7.953
 6855POPC   C4B25750  33.194  17.641   7.653
 6856POPC   NC325751   2.783  20.581   9.453
 6856POPC   PO425752   2.748  20.561   9.153
 6856POPC   GL125753   2.754  20.571   8.853
 6856POPC   GL225754   2.832  20.522   8.853
 6856POPC   C1A25755   2.722  20.625   8.553
 6856POPC   D2A25756   2.739  20.626   8.253
 6856POPC   C3A25757   2.718  20.600   7.953
 6856POPC   C4A25758   2.720  20.585   7.653
 6856POPC   C1B25759   2.968  20.485   8.553
 6856POPC   C2B25760   2.965  20.440   8.253
 6856POPC   C3B25761   2.929  20.436   7.953
 6856POPC   C4B25762   2.965  20.444   7.653
 6857POPC   NC325763   2.747  39.240   9.453
 6857POPC   PO425764   2.770  39.224   9.153
 6857POPC   GL125765   2.766  39.200   8.853
 6857POPC   GL225766   2.707  39.328   8.853
 6857POPC   C1A25767   2.768  39.237   8.553
 6857POPC   D2A25768   2.797  39.215   8.253
 6857POPC   C3A25769   2.798  39.214   7.953
 6857POPC   C4A25770   2.746  39.238   7.653
 6857POPC   C1B25771   2.744  39.466   8.553
 6857POPC   C2B25772   2.695  39.434   8.253
 6857POPC   C3B25773   2.722  39.454   7.953
 6857POPC   C4B25774   2.716  39.465   7.653
 6858POPC   NC325775  12.887  33.809   9.453
 6858POPC   PO425776  12.836  33.841   9.153
 6858POPC   GL125777  12.877  33.768   8.853
 6858POPC   GL225778  12.918  33.937   8.853
 6858POPC   C1A25779  12.817  33.754   8.553
 6858POPC   D2A25780  12.879  33.772   8.253
 6858POPC   C3A25781  12.824  33.751   7.953
 6858POPC   C4A25782  12.874  33.773   7.653
 6858POPC   C1B25783  12.875  34.063   8.553
 6858POPC   C2B25784  12.881  34.041   8.253
 6858POPC   C3B25785  12.850  34.036   7.953
 6858POPC   C4B25786  12.916  34.006   7.653
 6859POPC   NC325787   2.785  32.997   9.453
 6859POPC   PO425788   2.758  32.981   9.153
 6859POPC   GL125789   2.748  33.035   8.853
 6859POPC   GL225790   2.756  33.168   8.853
 6859POPC   C1A25791   2.777  33.022   8.553
 6859POPC   D2A25792   2.764  33.013   8.253
 6859POPC   C3A25793   2.806  33.049   7.953
 6859POPC   C4A25794   2.758  33.021   7.653
 6859POPC   C1B25795   2.683  33.306   8.553
 6859POPC   C2B25796   2.701  33.314   8.253
 6859POPC   C3B25797   2.704  33.280   7.953
 6859POPC   C4B25798   2.716  33.256   7.653
 6860POPC   NC325799  39.250  36.125   9.453
 6860POPC   PO425800  39.198  36.092   9.153
 6860POPC   GL125801  39.275  36.085   8.853
 6860POPC   GL225802  39.235  36.288   8.853
 6860POPC   C1A25803  39.193  36.116   8.553
 6860POPC   D2A25804  39.242  36.136   8.253
 6860POPC   C3A25805  39.253  36.176   7.953
 6860POPC   C4A25806  39.190  36.130   7.653
 6860POPC   C1B25807  39.212  36.399   8.553
 6860POPC   C2B25808  39.197  36.355   8.253
 6860POPC   C3B25809  39.177  36.409   7.953
 6860POPC   C4B25810  39.235  36.408   7.653
 6861POPC   NC325811  40.797  36.871   9.453
 6861POPC   PO425812  40.809  36.892   9.153
 6861POPC   GL125813  40.827  36.868   8.853
 6861POPC   GL225814  40.806  36.777   8.853
 6861POPC   C1A25815  40.829  36.862   8.553
 6861POPC   D2A25816  40.806  36.941   8.253
 6861POPC   C3A25817  40.767  36.868   7.953
 6861POPC   C4A25818  40.774  36.915   7.653
 6861POPC   C1B25819  40.907  36.671   8.553
 6861POPC   C2B25820  40.865  36.738   8.253
 6861POPC   C3B25821  40.943  36.651   7.953
 6861POPC   C4B25822  40.866  36.710   7.653
 6862POPC   NC325823  43.079  33.765   9.453
 6862POPC   PO425824  43.149  33.779   9.153
 6862POPC   GL125825  43.090  33.786   8.853
 6862POPC   GL225826  43.224  33.888   8.853
 6862POPC   C1A25827  43.070  33.814   8.553
 6862POPC   D2A25828  43.117  33.757   8.253
 6862POPC   C3A25829  43.147  33.771   7.953
 6862POPC   C4A25830  43.118  33.753   7.653
 6862POPC   C1B25831  43.366  33.899   8.553
 6862POPC   C2B25832  43.309  33.959   8.253
 6862POPC   C3B25833  43.291  33.924   7.953
 6862POPC   C4B25834  43.310  33.958   7.653
 6863POPC   NC325835   1.166  36.110   9.453
 6863POPC   PO425836   1.209  36.139   9.153
 6863POPC   GL125837   1.258  36.095   8.853
 6863POPC   GL225838   1.270  36.071   8.853
 6863POPC   C1A25839   1.223  36.177   8.553
 6863POPC   D2A25840   1.234  36.122   8.253
 6863POPC   C3A25841   1.262  36.121   7.953
 6863POPC   C4A25842   1.264  36.134   7.653
 6863POPC   C1B25843   1.366  35.950   8.553
 6863POPC   C2B25844   1.412  35.940   8.253
 6863POPC   C3B25845   1.342  35.910   7.953
 6863POPC   C4B25846   1.354  35.898   7.653
 6864POPC   NC325847  22.116   2.757   9.453
 6864POPC   PO425848  22.142   2.743   9.153
 6864POPC   GL125849  22.127   2.723   8.853
 6864POPC   GL225850  22.027   2.770   8.853
 6864POPC   C1A25851  22.202   2.731   8.553
 6864POPC   D2A25852  22.210   2.744   8.253
 6864POPC   C3A25853  22.120   2.734   7.953
 6864POPC   C4A25854  22.132   2.795   7.653
 6864POPC   C1B25855  21.887   2.795   8.553
 6864POPC   C2B25856  21.900   2.770   8.253
 6864POPC   C3B25857  21.869   2.757   7.953
 6864POPC   C4B25858  21.902   2.764   7.653
 6865POPC   NC325859  31.516  22.976   9.453
 6865POPC   PO425860  31.489  22.923   9.153
 6865POPC   GL125861  31.491  22.903   8.853
 6865POPC   GL225862  31.549  22.996   8.853
 6865POPC   C1A25863  31.431  22.967   8.553
 6865POPC   D2A25864  31.451  22.985   8.253
 6865POPC   C3A25865  31.489  22.935   7.953
 6865POPC   C4A25866  31.492  22.980   7.653
 6865POPC   C1B25867  31.658  23.111   8.553
 6865POPC   C2B25868  31.705  23.074   8.253
 6865POPC   C3B25869  31.678  23.092   7.953
 6865POPC   C4B25870  31.716  23.080   7.653
 6866POPC   NC325871   9.016  42.286   9.453
 6866POPC   PO425872   8.929  42.355   9.153
 6866POPC   GL125873   8.940  42.371   8.853
 6866POPC   GL225874   8.989  42.196   8.853
 6866POPC   C1A25875   8.998  42.299   8.553
 6866POPC   D2A25876   9.011  42.297   8.253
 6866POPC   C3A25877   8.975  42.291   7.953
 6866POPC   C4A25878   8.986  42.371   7.653
 6866POPC   C1B25879   9.064  42.054   8.553
 6866POPC   C2B25880   9.009  42.085   8.253
 6866POPC   C3B25881   9.040  42.081   7.953
 6866POPC   C4B25882   9.008  42.106   7.653
 6867POPC   NC325883  38.502  35.352   9.453
 6867POPC   PO425884  38.435  35.377   9.153
 6867POPC   GL125885  38.441  35.343   8.853
 6867POPC   GL225886  38.517  35.486   8.853
 6867POPC   C1A25887  38.499  35.393   8.553
 6867POPC   D2A25888  38.492  35.398   8.253
 6867POPC   C3A25889  38.452  35.388   7.953
 6867POPC   C4A25890  38.415  35.391   7.653
 6867POPC   C1B25891  38.588  35.538   8.553
 6867POPC   C2B25892  38.650  35.522   8.253
 6867POPC   C3B25893  38.604  35.538   7.953
 6867POPC   C4B25894  38.645  35.531   7.653
 6868POPC   NC325895  44.622  30.744   9.453
 6868POPC   PO425896  44.618  30.732   9.153
 6868POPC   GL125897  44.626  30.685   8.853
 6868POPC   GL225898  44.727  30.749   8.853
 6868POPC   C1A25899  44.635  30.678   8.553
 6868POPC   D2A25900  44.691  30.670   8.253
 6868POPC   C3A25901  44.673  30.665   7.953
 6868POPC   C4A25902  44.648  30.651   7.653
 6868POPC   C1B25903  44.860  30.849   8.553
 6868POPC   C2B25904  44.863  30.874   8.253
 6868POPC   C3B25905  44.793  30.907   7.953
 6868POPC   C4B25906  44.886  30.920   7.653
 6869POPC   NC325907   3.549   9.794   9.453
 6869POPC   PO425908   3.503   9.747   9.153
 6869POPC   GL125909   3.590   9.711   8.853
 6869POPC   GL225910   3.651   9.654   8.853
 6869POPC   C1A25911   3.499   9.748   8.553
 6869POPC   D2A25912   3.505   9.733   8.253
 6869POPC   C3A25913   3.555   9.740   7.953
 6869POPC   C4A25914   3.549   9.739   7.653
 6869POPC   C1B25915   3.807   9.631   8.553
 6869POPC   C2B25916   3.735   9.615   8.253
 6869POPC   C3B25917   3.817   9.605   7.953
 6869POPC   C4B25918   3.775   9.610   7.653
 6870POPC   NC325919  38.471  24.469   9.453
 6870POPC   PO425920  38.505  24.463   9.153
 6870POPC   GL125921  38.497  24.482   8.853
 6870POPC   GL225922  38.353  24.540   8.853
 6870POPC   C1A25923  38.419  24.455   8.553
 6870POPC   D2A25924  38.485  24.474   8.253
 6870POPC   C3A25925  38.483  24.456   7.953
 6870POPC   C4A25926  38.423  24.473   7.653
 6870POPC   C1B25927  38.201  24.534   8.553
 6870POPC   C2B25928  38.247  24.548   8.253
 6870POPC   C3B25929  38.179  24.522   7.953
 6870POPC   C4B25930  38.210  24.552   7.653
 6871POPC   NC325931   2.750   8.950   9.453
 6871POPC   PO425932   2.742   8.927   9.153
 6871POPC   GL125933   2.806   8.937   8.853
 6871POPC   GL225934   2.851   8.888   8.853
 6871POPC   C1A25935   2.749   8.969   8.553
 6871POPC   D2A25936   2.737   9.016   8.253
 6871POPC   C3A25937   2.720   8.976   7.953
 6871POPC   C4A25938   2.729   9.021   7.653
 6871POPC   C1B25939   2.829   8.737   8.553
 6871POPC   C2B25940   2.882   8.775   8.253
 6871POPC   C3B25941   2.909   8.720   7.953
 6871POPC   C4B25942   2.850   8.758   7.653
 6872POPC   NC325943  17.486  28.353   9.453
 6872POPC   PO425944  17.461  28.383   9.153
 6872POPC   GL125945  17.524  28.345   8.853
 6872POPC   GL225946  17.616  28.407   8.853
 6872POPC   C1A25947  17.552  28.361   8.553
 6872POPC   D2A25948  17.486  28.330   8.253
 6872POPC   C3A25949  17.540  28.379   7.953
 6872POPC   C4A25950  17.504  28.352   7.653
 6872POPC   C1B25951  17.748  28.530   8.553
 6872POPC   C2B25952  17.689  28.463   8.253
 6872POPC   C3B25953  17.747  28.518   7.953
 6872POPC   C4B25954  17.758  28.456   7.653
 6873POPC   NC325955  33.036   1.254   9.453
 6873POPC   PO425956  33.014   1.175   9.153
 6873POPC   GL125957  33.070   1.168   8.853
 6873POPC   GL225958  33.006   1.129   8.853
 6873POPC   C1A25959  33.041   1.167   8.553
 6873POPC   D2A25960  33.009   1.190   8.253
 6873POPC   C3A25961  32.986   1.191   7.953
 6873POPC   C4A25962  33.046   1.243   7.653
 6873POPC   C1B25963  32.997   0.999   8.553
 6873POPC   C2B25964  32.995   1.010   8.253
 6873POPC   C3B25965  33.031   0.950   7.953
 6873POPC   C4B25966  32.975   0.983   7.653
 6874POPC   NC325967   5.914  39.986   9.453
 6874POPC   PO425968   5.822  40.030   9.153
 6874POPC   GL125969   5.884  40.021   8.853
 6874POPC   GL225970   5.706  40.025   8.853
 6874POPC   C1A25971   5.906  39.996   8.553
 6874POPC   D2A25972   5.896  39.996   8.253
 6874POPC   C3A25973   5.847  40.008   7.953
 6874POPC   C4A25974   5.867  40.013   7.653
 6874POPC   C1B25975   5.612  39.977   8.553
 6874POPC   C2B25976   5.596  39.994   8.253
 6874POPC   C3B25977   5.573  39.952   7.953
 6874POPC   C4B25978   5.589  39.963   7.653
 6875POPC   NC325979  34.599  11.330   9.453
 6875POPC   PO425980  34.536  11.338   9.153
 6875POPC   GL125981  34.623  11.319   8.853
 6875POPC   GL225982  34.566  11.137   8.853
 6875POPC   C1A25983  34.620  11.286   8.553
 6875POPC   D2A25984  34.620  11.335   8.253
 6875POPC   C3A25985  34.592  11.318   7.953
 6875POPC   C4A25986  34.532  11.322   7.653
 6875POPC   C1B25987  34.531  11.085   8.553
 6875POPC   C2B25988  34.478  11.080   8.253
 6875POPC   C3B25989  34.477  11.061   7.953
 6875POPC   C4B25990  34.519  11.098   7.653
 6876POPC   NC325991  18.266  41.598   9.453
 6876POPC   PO425992  18.306  41.591   9.153
 6876POPC   GL125993  18.292  41.547   8.853
 6876POPC   GL225994  18.274  41.437   8.853
 6876POPC   C1A25995  18.285  41.516   8.553
 6876POPC   D2A25996  18.251  41.525   8.253
 6876POPC   C3A25997  18.323  41.585   7.953
 6876POPC   C4A25998  18.249  41.513   7.653
 6876POPC   C1B25999  18.143  41.369   8.553
 6876POPC   C2B26000  18.186  41.300   8.253
 6876POPC   C3B26001  18.172  41.294   7.953
 6876POPC   C4B26002  18.157  41.281   7.653
 6877POPC   NC326003   1.988  37.630   9.453
 6877POPC   PO426004   1.954  37.639   9.153
 6877POPC   GL126005   1.984  37.703   8.853
 6877POPC   GL226006   1.849  37.734   8.853
 6877POPC   C1A26007   2.025  37.724   8.553
 6877POPC   D2A26008   2.009  37.722   8.253
 6877POPC   C3A26009   1.940  37.664   7.953
 6877POPC   C4A26010   2.003  37.722   7.653
 6877POPC   C1B26011   1.807  37.767   8.553
 6877POPC   C2B26012   1.813  37.813   8.253
 6877POPC   C3B26013   1.730  37.811   7.953
 6877POPC   C4B26014   1.776  37.788   7.653
 6878POPC   NC326015  32.256   7.422   9.453
 6878POPC   PO426016  32.295   7.397   9.153
 6878POPC   GL126017  32.269   7.430   8.853
 6878POPC   GL226018  32.083   7.396   8.853
 6878POPC   C1A26019  32.236   7.466   8.553
 6878POPC   D2A26020  32.249   7.468   8.253
 6878POPC   C3A26021  32.225   7.404   7.953
 6878POPC   C4A26022  32.285   7.445   7.653
 6878POPC   C1B26023  31.988   7.359   8.553
 6878POPC   C2B26024  31.968   7.333   8.253
 6878POPC   C3B26025  31.973   7.331   7.953
 6878POPC   C4B26026  32.051   7.333   7.653
 6879POPC   NC326027  43.857  19.068   9.453
 6879POPC   PO426028  43.907  19.098   9.153
 6879POPC   GL126029  43.897  19.076   8.853
 6879POPC   GL226030  43.973  19.114   8.853
 6879POPC   C1A26031  43.886  19.078   8.553
 6879POPC   D2A26032  43.878  19.103   8.253
 6879POPC   C3A26033  43.931  19.087   7.953
 6879POPC   C4A26034  43.934  19.027   7.653
 6879POPC   C1B26035  44.106  19.097   8.553
 6879POPC   C2B26036  44.142  19.117   8.253
 6879POPC   C3B26037  44.109  19.090   7.953
 6879POPC   C4B26038  44.157  19.108   7.653
 6880POPC   NC326039  22.903  25.259   9.453
 6880POPC   PO426040  22.910  25.232   9.153
 6880POPC   GL126041  22.966  25.244   8.853
 6880POPC   GL226042  22.927  25.339   8.853
 6880POPC   C1A26043  22.901  25.253   8.553
 6880POPC   D2A26044  22.932  25.245   8.253
 6880POPC   C3A26045  22.922  25.311   7.953
 6880POPC   C4A26046  22.930  25.239   7.653
 6880POPC   C1B26047  22.846  25.460   8.553
 6880POPC   C2B26048  22.825  25.512   8.253
 6880POPC   C3B26049  22.872  25.533   7.953
 6880POPC   C4B26050  22.846  25.469   7.653
 6881POPC   NC326051  38.481  30.710   9.453
 6881POPC   PO426052  38.456  30.738   9.153
 6881POPC   GL126053  38.438  30.665   8.853
 6881POPC   GL226054  38.468  30.549   8.853
 6881POPC   C1A26055  38.449  30.693   8.553
 6881POPC   D2A26056  38.411  30.744   8.253
 6881POPC   C3A26057  38.479  30.648   7.953
 6881POPC   C4A26058  38.494  30.680   7.653
 6881POPC   C1B26059  38.548  30.439   8.553
 6881POPC   C2B26060  38.568  30.424   8.253
 6881POPC   C3B26061  38.550  30.474   7.953
 6881POPC   C4B26062  38.568  30.506   7.653
 6882POPC   NC326063  12.031  39.278   9.453
 6882POPC   PO426064  12.071  39.243   9.153
 6882POPC   GL126065  12.046  39.227   8.853
 6882POPC   GL226066  12.069  39.387   8.853
 6882POPC   C1A26067  12.053  39.207   8.553
 6882POPC   D2A26068  12.082  39.277   8.253
 6882POPC   C3A26069  12.103  39.214   7.953
 6882POPC   C4A26070  12.040  39.269   7.653
 6882POPC   C1B26071  12.090  39.492   8.553
 6882POPC   C2B26072  12.024  39.472   8.253
 6882POPC   C3B26073  12.055  39.505   7.953
 6882POPC   C4B26074  12.053  39.495   7.653
 6883POPC   NC326075  38.446   8.982   9.453
 6883POPC   PO426076  38.496   9.001   9.153
 6883POPC   GL126077  38.407   8.989   8.853
 6883POPC   GL226078  38.567   8.854   8.853
 6883POPC   C1A26079  38.443   9.019   8.553
 6883POPC   D2A26080  38.478   8.956   8.253
 6883POPC   C3A26081  38.504   8.957   7.953
 6883POPC   C4A26082  38.476   9.019   7.653
 6883POPC   C1B26083  38.704   8.827   8.553
 6883POPC   C2B26084  38.667   8.845   8.253
 6883POPC   C3B26085  38.642   8.785   7.953
 6883POPC   C4B26086  38.699   8.833   7.653
 6884POPC   NC326087  43.897  36.896   9.453
 6884POPC   PO426088  43.913  36.945   9.153
 6884POPC   GL126089  43.871  36.943   8.853
 6884POPC   GL226090  43.788  36.812   8.853
 6884POPC   C1A26091  43.925  36.903   8.553
 6884POPC   D2A26092  43.912  36.934   8.253
 6884POPC   C3A26093  43.842  36.884   7.953
 6884POPC   C4A26094  43.871  36.910   7.653
 6884POPC   C1B26095  43.739  36.704   8.553
 6884POPC   C2B26096  43.721  36.716   8.253
 6884POPC   C3B26097  43.726  36.672   7.953
 6884POPC   C4B26098  43.765  36.699   7.653
 6885POPC   NC326099  29.141  10.516   9.453
 6885POPC   PO426100  29.107  10.482   9.153
 6885POPC   GL126101  29.103  10.539   8.853
 6885POPC   GL226102  29.097  10.423   8.853
 6885POPC   C1A26103  29.138  10.554   8.553
 6885POPC   D2A26104  29.161  10.558   8.253
 6885POPC   C3A26105  29.102  10.489   7.953
 6885POPC   C4A26106  29.095  10.553   7.653
 6885POPC   C1B26107  29.056  10.282   8.553
 6885POPC   C2B26108  28.981  10.311   8.253
 6885POPC   C3B26109  29.034  10.314   7.953
 6885POPC   C4B26110  29.018  10.287   7.653
 6886POPC   NC326111   2.792  32.200   9.453
 6886POPC   PO426112   2.755  32.295   9.153
 6886POPC   GL126113   2.776  32.224   8.853
 6886POPC   GL226114   2.914  32.253   8.853
 6886POPC   C1A26115   2.798  32.270   8.553
 6886POPC   D2A26116   2.767  32.219   8.253
 6886POPC   C3A26117   2.774  32.257   7.953
 6886POPC   C4A26118   2.810  32.216   7.653
 6886POPC   C1B26119   2.982  32.217   8.553
 6886POPC   C2B26120   2.966  32.266   8.253
 6886POPC   C3B26121   3.049  32.232   7.953
 6886POPC   C4B26122   3.055  32.254   7.653
 6887POPC   NC326123   2.724  25.227   9.453
 6887POPC   PO426124   2.736  25.259   9.153
 6887POPC   GL126125   2.770  25.268   8.853
 6887POPC   GL226126   2.898  25.291   8.853
 6887POPC   C1A26127   2.737  25.221   8.553
 6887POPC   D2A26128   2.796  25.222   8.253
 6887POPC   C3A26129   2.737  25.223   7.953
 6887POPC   C4A26130   2.748  25.245   7.653
 6887POPC   C1B26131   2.981  25.297   8.553
 6887POPC   C2B26132   2.970  25.284   8.253
 6887POPC   C3B26133   3.002  25.254   7.953
 6887POPC   C4B26134   2.987  25.300   7.653
 6888POPC   NC326135  36.125   6.628   9.453
 6888POPC   PO426136  36.087   6.659   9.153
 6888POPC   GL126137  36.083   6.622   8.853
 6888POPC   GL226138  36.219   6.584   8.853
 6888POPC   C1A26139  36.141   6.636   8.553
 6888POPC   D2A26140  36.166   6.679   8.253
 6888POPC   C3A26141  36.090   6.660   7.953
 6888POPC   C4A26142  36.156   6.653   7.653
 6888POPC   C1B26143  36.395   6.585   8.553
 6888POPC   C2B26144  36.408   6.634   8.253
 6888POPC   C3B26145  36.373   6.597   7.953
 6888POPC   C4B26146  36.372   6.559   7.653
 6889POPC   NC326147  30.707  28.347   9.453
 6889POPC   PO426148  30.734  28.418   9.153
 6889POPC   GL126149  30.703  28.377   8.853
 6889POPC   GL226150  30.533  28.377   8.853
 6889POPC   C1A26151  30.676  28.340   8.553
 6889POPC   D2A26152  30.715  28.321   8.253
 6889POPC   C3A26153  30.710  28.320   7.953
 6889POPC   C4A26154  30.737  28.394   7.653
 6889POPC   C1B26155  30.487  28.361   8.553
 6889POPC   C2B26156  30.409  28.371   8.253
 6889POPC   C3B26157  30.457  28.290   7.953
 6889POPC   C4B26158  30.416  28.367   7.653
 6890POPC   NC326159  27.589  43.860   9.453
 6890POPC   PO426160  27.582  43.887   9.153
 6890POPC   GL126161  27.592  43.935   8.853
 6890POPC   GL226162  27.530  43.769   8.853
 6890POPC   C1A26163  27.621  43.859   8.553
 6890POPC   D2A26164  27.590  43.908   8.253
 6890POPC   C3A26165  27.621  43.844   7.953
 6890POPC   C4A26166  27.576  43.885   7.653
 6890POPC   C1B26167  27.498  43.639   8.553
 6890POPC   C2B26168  27.484  43.681   8.253
 6890POPC   C3B26169  27.439  43.626   7.953
 6890POPC   C4B26170  27.450  43.714   7.653
 6891POPC   NC326171   4.360  34.590   9.453
 6891POPC   PO426172   4.309  34.550   9.153
 6891POPC   GL126173   4.331  34.626   8.853
 6891POPC   GL226174   4.392  34.690   8.853
 6891POPC   C1A26175   4.291  34.550   8.553
 6891POPC   D2A26176   4.280  34.531   8.253
 6891POPC   C3A26177   4.290  34.621   7.953
 6891POPC   C4A26178   4.288  34.570   7.653
 6891POPC   C1B26179   4.475  34.771   8.553
 6891POPC   C2B26180   4.413  34.738   8.253
 6891POPC   C3B26181   4.444  34.800   7.953
 6891POPC   C4B26182   4.420  34.764   7.653
 6892POPC   NC326183  12.047  34.528   9.453
 6892POPC   PO426184  12.111  34.618   9.153
 6892POPC   GL126185  12.108  34.542   8.853
 6892POPC   GL226186  12.046  34.645   8.853
 6892POPC   C1A26187  12.060  34.547   8.553
 6892POPC   D2A26188  12.100  34.526   8.253
 6892POPC   C3A26189  12.109  34.602   7.953
 6892POPC   C4A26190  12.031  34.614   7.653
 6892POPC   C1B26191  11.995  34.841   8.553
 6892POPC   C2B26192  11.955  34.784   8.253
 6892POPC   C3B26193  11.918  34.841   7.953
 6892POPC   C4B26194  11.960  34.810   7.653
 6893POPC   NC326195   5.093  22.890   9.453
 6893POPC   PO426196   5.113  22.892   9.153
 6893POPC   GL126197   5.080  22.900   8.853
 6893POPC   GL226198   5.031  22.865   8.853
 6893POPC   C1A26199   5.102  22.904   8.553
 6893POPC   D2A26200   5.088  22.961   8.253
 6893POPC   C3A26201   5.110  22.903   7.953
 6893POPC   C4A26202   5.108  22.970   7.653
 6893POPC   C1B26203   4.922  22.794   8.553
 6893POPC   C2B26204   4.954  22.724   8.253
 6893POPC   C3B26205   4.893  22.805   7.953
 6893POPC   C4B26206   4.935  22.759   7.653
 6894POPC   NC326207   4.295  32.994   9.453
 6894POPC   PO426208   4.338  33.047   9.153
 6894POPC   GL126209   4.320  32.985   8.853
 6894POPC   GL226210   4.194  33.110   8.853
 6894POPC   C1A26211   4.297  33.020   8.553
 6894POPC   D2A26212   4.308  33.002   8.253
 6894POPC   C3A26213   4.349  33.047   7.953
 6894POPC   C4A26214   4.324  33.013   7.653
 6894POPC   C1B26215   4.153  33.167   8.553
 6894POPC   C2B26216   4.148  33.207   8.253
 6894POPC   C3B26217   4.106  33.157   7.953
 6894POPC   C4B26218   4.092  33.153   7.653
 6895POPC   NC326219   1.189  29.150   9.453
 6895POPC   PO426220   1.256  29.130   9.153
 6895POPC   GL126221   1.202  29.115   8.853
 6895POPC   GL226222   1.333  29.034   8.853
 6895POPC   C1A26223   1.240  29.164   8.553
 6895POPC   D2A26224   1.172  29.126   8.253
 6895POPC   C3A26225   1.190  29.130   7.953
 6895POPC   C4A26226   1.173  29.175   7.653
 6895POPC   C1B26227   1.446  28.950   8.553
 6895POPC   C2B26228   1.430  28.948   8.253
 6895POPC   C3B26229   1.450  28.968   7.953
 6895POPC   C4B26230   1.368  28.960   7.653
 6896POPC   NC326231  22.163  15.973   9.453
 6896POPC   PO426232  22.208  15.993   9.153
 6896POPC   GL126233  22.155  15.929   8.853
 6896POPC   GL226234  22.138  16.039   8.853
 6896POPC   C1A26235  22.210  15.934   8.553
 6896POPC   D2A26236  22.138  15.965   8.253
 6896POPC   C3A26237  22.143  15.910   7.953
 6896POPC   C4A26238  22.183  15.992   7.653
 6896POPC   C1B26239  22.004  16.175   8.553
 6896POPC   C2B26240  22.062  16.132   8.253
 6896POPC   C3B26241  22.015  16.157   7.953
 6896POPC   C4B26242  22.084  16.154   7.653
 6897POPC   NC326243  10.531  31.509   9.453
 6897POPC   PO426244  10.522  31.487   9.153
 6897POPC   GL126245  10.566  31.500   8.853
 6897POPC   GL226246  10.572  31.346   8.853
 6897POPC   C1A26247  10.526  31.514   8.553
 6897POPC   D2A26248  10.485  31.507   8.253
 6897POPC   C3A26249  10.515  31.438   7.953
 6897POPC   C4A26250  10.527  31.463   7.653
 6897POPC   C1B26251  10.654  31.291   8.553
 6897POPC   C2B26252  10.615  31.302   8.253
 6897POPC   C3B26253  10.675  31.241   7.953
 6897POPC   C4B26254  10.614  31.214   7.653
 6898POPC   NC326255   2.020  40.762   9.453
 6898POPC   PO426256   1.975  40.806   9.153
 6898POPC   GL126257   1.961  40.766   8.853
 6898POPC   GL226258   2.080  40.800   8.853
 6898POPC   C1A26259   1.994  40.820   8.553
 6898POPC   D2A26260   2.027  40.829   8.253
 6898POPC   C3A26261   1.997  40.735   7.953
 6898POPC   C4A26262   1.984  40.815   7.653
 6898POPC   C1B26263   2.241  40.875   8.553
 6898POPC   C2B26264   2.245  40.941   8.253
 6898POPC   C3B26265   2.228  40.929   7.953
 6898POPC   C4B26266   2.251  40.944   7.653
 6899POPC   NC326267  15.939  10.561   9.453
 6899POPC   PO426268  16.003  10.495   9.153
 6899POPC   GL126269  15.971  10.484   8.853
 6899POPC   GL226270  15.849  10.618   8.853
 6899POPC   C1A26271  15.975  10.506   8.553
 6899POPC   D2A26272  15.968  10.573   8.253
 6899POPC   C3A26273  15.971  10.492   7.953
 6899POPC   C4A26274  15.981  10.565   7.653
 6899POPC   C1B26275  15.730  10.732   8.553
 6899POPC   C2B26276  15.786  10.649   8.253
 6899POPC   C3B26277  15.731  10.677   7.953
 6899POPC   C4B26278  15.797  10.659   7.653
 6900POPC   NC326279  11.299   0.446   9.453
 6900POPC   PO426280  11.330   0.480   9.153
 6900POPC   GL126281  11.316   0.400   8.853
 6900POPC   GL226282  11.278   0.539   8.853
 6900POPC   C1A26283  11.259   0.468   8.553
 6900POPC   D2A26284  11.282   0.420   8.253
 6900POPC   C3A26285  11.295   0.396   7.953
 6900POPC   C4A26286  11.326   0.418   7.653
 6900POPC   C1B26287  11.236   0.669   8.553
 6900POPC   C2B26288  11.240   0.706   8.253
 6900POPC   C3B26289  11.227   0.720   7.953
 6900POPC   C4B26290  11.309   0.668   7.653
 6901POPC   NC326291  29.109  19.058   9.453
 6901POPC   PO426292  29.107  19.086   9.153
 6901POPC   GL126293  29.105  19.105   8.853
 6901POPC   GL226294  29.221  19.115   8.853
 6901POPC   C1A26295  29.115  19.030   8.553
 6901POPC   D2A26296  29.192  19.089   8.253
 6901POPC   C3A26297  29.183  19.038   7.953
 6901POPC   C4A26298  29.137  19.021   7.653
 6901POPC   C1B26299  29.256  19.285   8.553
 6901POPC   C2B26300  29.248  19.234   8.253
 6901POPC   C3B26301  29.333  19.251   7.953
 6901POPC   C4B26302  29.307  19.294   7.653
 6902POPC   NC326303  39.969   2.790   9.453
 6902POPC   PO426304  40.000   2.810   9.153
 6902POPC   GL126305  39.968   2.803   8.853
 6902POPC   GL226306  39.917   2.646   8.853
 6902POPC   C1A26307  39.998   2.796   8.553
 6902POPC   D2A26308  39.996   2.727   8.253
 6902POPC   C3A26309  39.982   2.734   7.953
 6902POPC   C4A26310  39.999   2.768   7.653
 6902POPC   C1B26311  39.923   2.523   8.553
 6902POPC   C2B26312  39.885   2.528   8.253
 6902POPC   C3B26313  39.964   2.529   7.953
 6902POPC   C4B26314  39.880   2.531   7.653
 6903POPC   NC326315  29.171  36.901   9.453
 6903POPC   PO426316  29.175  36.952   9.153
 6903POPC   GL126317  29.105  36.865   8.853
 6903POPC   GL226318  29.222  36.929   8.853
 6903POPC   C1A26319  29.125  36.886   8.553
 6903POPC   D2A26320  29.095  36.874   8.253
 6903POPC   C3A26321  29.120  36.880   7.953
 6903POPC   C4A26322  29.169  36.915   7.653
 6903POPC   C1B26323  29.370  36.859   8.553
 6903POPC   C2B26324  29.346  36.938   8.253
 6903POPC   C3B26325  29.357  36.915   7.953
 6903POPC   C4B26326  29.353  36.873   7.653
 6904POPC   NC326327   3.509  18.327   9.453
 6904POPC   PO426328   3.543  18.280   9.153
 6904POPC   GL126329   3.530  18.331   8.853
 6904POPC   GL226330   3.458  18.293   8.853
 6904POPC   C1A26331   3.583  18.304   8.553
 6904POPC   D2A26332   3.573  18.325   8.253
 6904POPC   C3A26333   3.528  18.330   7.953
 6904POPC   C4A26334   3.501  18.297   7.653
 6904POPC   C1B26335   3.248  18.301   8.553
 6904POPC   C2B26336   3.295  18.344   8.253
 6904POPC   C3B26337   3.250  18.342   7.953
 6904POPC   C4B26338   3.331  18.267   7.653
 6905POPC   NC326339  41.536  26.005   9.453
 6905POPC   PO426340  41.546  26.076   9.153
 6905POPC   GL126341  41.543  26.055   8.853
 6905POPC   GL226342  41.618  26.147   8.853
 6905POPC   C1A26343  41.561  26.079   8.553
 6905POPC   D2A26344  41.532  25.997   8.253
 6905POPC   C3A26345  41.555  26.047   7.953
 6905POPC   C4A26346  41.606  26.064   7.653
 6905POPC   C1B26347  41.709  26.218   8.553
 6905POPC   C2B26348  41.771  26.230   8.253
 6905POPC   C3B26349  41.766  26.216   7.953
 6905POPC   C4B26350  41.748  26.247   7.653
 6906POPC   NC326351  29.961  42.364   9.453
 6906POPC   PO426352  29.904  42.378   9.153
 6906POPC   GL126353  29.927  42.325   8.853
 6906POPC   GL226354  29.792  42.301   8.853
 6906POPC   C1A26355  29.936  42.310   8.553
 6906POPC   D2A26356  29.960  42.344   8.253
 6906POPC   C3A26357  29.943  42.326   7.953
 6906POPC   C4A26358  29.939  42.351   7.653
 6906POPC   C1B26359  29.719  42.204   8.553
 6906POPC   C2B26360  29.687  42.232   8.253
 6906POPC   C3B26361  29.767  42.151   7.953
 6906POPC   C4B26362  29.750  42.154   7.653
 6907POPC   NC326363   3.532  40.813   9.453
 6907POPC   PO426364   3.495  40.788   9.153
 6907POPC   GL126365   3.572  40.787   8.853
 6907POPC   GL226366   3.537  40.917   8.853
 6907POPC   C1A26367   3.492  40.762   8.553
 6907POPC   D2A26368   3.548  40.792   8.253
 6907POPC   C3A26369   3.530  40.751   7.953
 6907POPC   C4A26370   3.541  40.825   7.653
 6907POPC   C1B26371   3.527  41.063   8.553
 6907POPC   C2B26372   3.453  41.007   8.253
 6907POPC   C3B26373   3.457  41.040   7.953
 6907POPC   C4B26374   3.486  41.065   7.653
 6908POPC   NC326375  41.590  29.129   9.453
 6908POPC   PO426376  41.600  29.132   9.153
 6908POPC   GL126377  41.530  29.161   8.853
 6908POPC   GL226378  41.669  29.184   8.853
 6908POPC   C1A26379  41.586  29.188   8.553
 6908POPC   D2A26380  41.595  29.158   8.253
 6908POPC   C3A26381  41.516  29.181   7.953
 6908POPC   C4A26382  41.511  29.135   7.653
 6908POPC   C1B26383  41.761  29.242   8.553
 6908POPC   C2B26384  41.760  29.237   8.253
 6908POPC   C3B26385  41.814  29.238   7.953
 6908POPC   C4B26386  41.763  29.193   7.653
 6909POPC   NC326387  37.715   5.837   9.453
 6909POPC   PO426388  37.649   5.897   9.153
 6909POPC   GL126389  37.650   5.820   8.853
 6909POPC   GL226390  37.561   5.727   8.853
 6909POPC   C1A26391  37.681   5.874   8.553
 6909POPC   D2A26392  37.695   5.846   8.253
 6909POPC   C3A26393  37.648   5.859   7.953
 6909POPC   C4A26394  37.665   5.885   7.653
 6909POPC   C1B26395  37.468   5.697   8.553
 6909POPC   C2B26396  37.509   5.638   8.253
 6909POPC   C3B26397  37.505   5.706   7.953
 6909POPC   C4B26398  37.465   5.729   7.653
 6910POPC   NC326399  38.456  34.559   9.453
 6910POPC   PO426400  38.467  34.585   9.153
 6910POPC   GL126401  38.456  34.562   8.853
 6910POPC   GL226402  38.387  34.443   8.853
 6910POPC   C1A26403  38.418  34.528   8.553
 6910POPC   D2A26404  38.494  34.534   8.253
 6910POPC   C3A26405  38.429  34.530   7.953
 6910POPC   C4A26406  38.460  34.599   7.653
 6910POPC   C1B26407  38.397  34.354   8.553
 6910POPC   C2B26408  38.363  34.334   8.253
 6910POPC   C3B26409  38.381  34.378   7.953
 6910POPC   C4B26410  38.362  34.358   7.653
 6911POPC   NC326411  39.205  25.238   9.453
 6911POPC   PO426412  39.273  25.291   9.153
 6911POPC   GL126413  39.227  25.245   8.853
 6911POPC   GL226414  39.131  25.177   8.853
 6911POPC   C1A26415  39.222  25.299   8.553
 6911POPC   D2A26416  39.183  25.269   8.253
 6911POPC   C3A26417  39.229  25.314   7.953
 6911POPC   C4A26418  39.275  25.226   7.653
 6911POPC   C1B26419  39.006  25.100   8.553
 6911POPC   C2B26420  39.088  25.058   8.253
 6911POPC   C3B26421  39.062  25.081   7.953
 6911POPC   C4B26422  39.066  25.090   7.653
 6912POPC   NC326423  29.145  23.723   9.453
 6912POPC   PO426424  29.142  23.738   9.153
 6912POPC   GL126425  29.141  23.703   8.853
 6912POPC   GL226426  29.080  23.864   8.853
 6912POPC   C1A26427  29.162  23.724   8.553
 6912POPC   D2A26428  29.194  23.667   8.253
 6912POPC   C3A26429  29.133  23.731   7.953
 6912POPC   C4A26430  29.144  23.743   7.653
 6912POPC   C1B26431  29.021  23.959   8.553
 6912POPC   C2B26432  29.036  23.961   8.253
 6912POPC   C3B26433  29.020  23.964   7.953
 6912POPC   C4B26434  29.028  23.937   7.653
 6913POPC   NC326435  41.606  36.867   9.453
 6913POPC   PO426436  41.565  36.893   9.153
 6913POPC   GL126437  41.578  36.901   8.853
 6913POPC   GL226438  41.513  36.751   8.853
 6913POPC   C1A26439  41.588  36.855   8.553
 6913POPC   D2A26440  41.561  36.884   8.253
 6913POPC   C3A26441  41.544  36.863   7.953
 6913POPC   C4A26442  41.546  36.873   7.653
 6913POPC   C1B26443  41.470  36.691   8.553
 6913POPC   C2B26444  41.501  36.669   8.253
 6913POPC   C3B26445  41.456  36.669   7.953
 6913POPC   C4B26446  41.504  36.665   7.653
 6914POPC   NC326447  39.973  44.673   9.453
 6914POPC   PO426448  40.051  44.654   9.153
 6914POPC   GL126449  39.974  44.614   8.853
 6914POPC   GL226450  40.054  44.714   8.853
 6914POPC   C1A26451  40.003  44.666   8.553
 6914POPC   D2A26452  39.975  44.682   8.253
 6914POPC   C3A26453  40.039  44.682   7.953
 6914POPC   C4A26454  40.038  44.688   7.653
 6914POPC   C1B26455  40.222  44.874   8.553
 6914POPC   C2B26456  40.155  44.869   8.253
 6914POPC   C3B26457  40.181  44.795   7.953
 6914POPC   C4B26458  40.167  44.875   7.653
 6915POPC   NC326459   9.762  32.230   9.453
 6915POPC   PO426460   9.754  32.260   9.153
 6915POPC   GL126461   9.702  32.212   8.853
 6915POPC   GL226462   9.588  32.319   8.853
 6915POPC   C1A26463   9.740  32.244   8.553
 6915POPC   D2A26464   9.792  32.208   8.253
 6915POPC   C3A26465   9.790  32.211   7.953
 6915POPC   C4A26466   9.751  32.259   7.653
 6915POPC   C1B26467   9.502  32.396   8.553
 6915POPC   C2B26468   9.480  32.391   8.253
 6915POPC   C3B26469   9.568  32.324   7.953
 6915POPC   C4B26470   9.492  32.389   7.653
 6916POPC   NC326471  37.713  16.771   9.453
 6916POPC   PO426472  37.713  16.707   9.153
 6916POPC   GL126473  37.665  16.755   8.853
 6916POPC   GL226474  37.746  16.829   8.853
 6916POPC   C1A26475  37.636  16.705   8.553
 6916POPC   D2A26476  37.710  16.770   8.253
 6916POPC   C3A26477  37.661  16.727   7.953
 6916POPC   C4A26478  37.713  16.757   7.653
 6916POPC   C1B26479  37.696  16.987   8.553
 6916POPC   C2B26480  37.721  16.972   8.253
 6916POPC   C3B26481  37.681  17.022   7.953
 6916POPC   C4B26482  37.727  16.966   7.653
 6917POPC   NC326483   1.183   0.418   9.453
 6917POPC   PO426484   1.211   0.479   9.153
 6917POPC   GL126485   1.251   0.442   8.853
 6917POPC   GL226486   1.166   0.531   8.853
 6917POPC   C1A26487   1.195   0.461   8.553
 6917POPC   D2A26488   1.172   0.429   8.253
 6917POPC   C3A26489   1.170   0.402   7.953
 6917POPC   C4A26490   1.244   0.454   7.653
 6917POPC   C1B26491   1.041   0.669   8.553
 6917POPC   C2B26492   1.055   0.592   8.253
 6917POPC   C3B26493   1.055   0.644   7.953
 6917POPC   C4B26494   1.066   0.659   7.653
 6918POPC   NC326495   0.410  29.885   9.453
 6918POPC   PO426496   0.457  29.969   9.153
 6918POPC   GL126497   0.399  29.911   8.853
 6918POPC   GL226498   0.330  29.928   8.853
 6918POPC   C1A26499   0.410  29.965   8.553
 6918POPC   D2A26500   0.460  29.922   8.253
 6918POPC   C3A26501   0.441  29.892   7.953
 6918POPC   C4A26502   0.404  29.934   7.653
 6918POPC   C1B26503   0.195  29.983   8.553
 6918POPC   C2B26504   0.225  29.990   8.253
 6918POPC   C3B26505   0.208  29.971   7.953
 6918POPC   C4B26506   0.163  29.993   7.653
 6919POPC   NC326507  29.947  30.735   9.453
 6919POPC   PO426508  29.962  30.725   9.153
 6919POPC   GL126509  29.875  30.740   8.853
 6919POPC   GL226510  29.876  30.604   8.853
 6919POPC   C1A26511  29.968  30.651   8.553
 6919POPC   D2A26512  29.909  30.665   8.253
 6919POPC   C3A26513  29.930  30.666   7.953
 6919POPC   C4A26514  29.894  30.655   7.653
 6919POPC   C1B26515  29.774  30.462   8.553
 6919POPC   C2B26516  29.780  30.488   8.253
 6919POPC   C3B26517  29.773  30.432   7.953
 6919POPC   C4B26518  29.804  30.503   7.653
 6920POPC   NC326519  26.788  34.551   9.453
 6920POPC   PO426520  26.796  34.588   9.153
 6920POPC   GL126521  26.821  34.591   8.853
 6920POPC   GL226522  26.730  34.535   8.853
 6920POPC   C1A26523  26.832  34.565   8.553
 6920POPC   D2A26524  26.839  34.550   8.253
 6920POPC   C3A26525  26.768  34.554   7.953
 6920POPC   C4A26526  26.833  34.607   7.653
 6920POPC   C1B26527  26.596  34.407   8.553
 6920POPC   C2B26528  26.652  34.441   8.253
 6920POPC   C3B26529  26.607  34.442   7.953
 6920POPC   C4B26530  26.574  34.460   7.653
 6921POPC   NC326531  14.436  29.130   9.453
 6921POPC   PO426532  14.384  29.162   9.153
 6921POPC   GL126533  14.375  29.121   8.853
 6921POPC   GL226534  14.279  29.088   8.853
 6921POPC   C1A26535  14.430  29.123   8.553
 6921POPC   D2A26536  14.407  29.177   8.253
 6921POPC   C3A26537  14.370  29.120   7.953
 6921POPC   C4A26538  14.372  29.147   7.653
 6921POPC   C1B26539  14.223  29.044   8.553
 6921POPC   C2B26540  14.156  29.020   8.253
 6921POPC   C3B26541  14.200  29.080   7.953
 6921POPC   C4B26542  14.153  28.996   7.653
 6922POPC   NC326543  32.995  38.437   9.453
 6922POPC   PO426544  33.020  38.444   9.153
 6922POPC   GL126545  33.056  38.423   8.853
 6922POPC   GL226546  33.031  38.554   8.853
 6922POPC   C1A26547  32.979  38.427   8.553
 6922POPC   D2A26548  32.975  38.432   8.253
 6922POPC   C3A26549  33.014  38.494   7.953
 6922POPC   C4A26550  32.998  38.474   7.653
 6922POPC   C1B26551  32.946  38.695   8.553
 6922POPC   C2B26552  33.029  38.656   8.253
 6922POPC   C3B26553  32.978  38.679   7.953
 6922POPC   C4B26554  33.010  38.748   7.653
 6923POPC   NC326555  35.400  19.840   9.453
 6923POPC   PO426556  35.373  19.872   9.153
 6923POPC   GL126557  35.324  19.865   8.853
 6923POPC   GL226558  35.333  19.765   8.853
 6923POPC   C1A26559  35.336  19.825   8.553
 6923POPC   D2A26560  35.381  19.857   8.253
 6923POPC   C3A26561  35.325  19.843   7.953
 6923POPC   C4A26562  35.368  19.827   7.653
 6923POPC   C1B26563  35.215  19.562   8.553
 6923POPC   C2B26564  35.228  19.589   8.253
 6923POPC   C3B26565  35.235  19.639   7.953
 6923POPC   C4B26566  35.207  19.629   7.653
 6924POPC   NC326567   8.158   3.509   9.453
 6924POPC   PO426568   8.184   3.533   9.153
 6924POPC   GL126569   8.167   3.587   8.853
 6924POPC   GL226570   8.207   3.630   8.853
 6924POPC   C1A26571   8.188   3.536   8.553
 6924POPC   D2A26572   8.182   3.579   8.253
 6924POPC   C3A26573   8.235   3.560   7.953
 6924POPC   C4A26574   8.159   3.559   7.653
 6924POPC   C1B26575   8.326   3.771   8.553
 6924POPC   C2B26576   8.231   3.802   8.253
 6924POPC   C3B26577   8.295   3.790   7.953
 6924POPC   C4B26578   8.318   3.790   7.653
 6925POPC   NC326579  43.106  11.327   9.453
 6925POPC   PO426580  43.069  11.291   9.153
 6925POPC   GL126581  43.152  11.350   8.853
 6925POPC   GL226582  43.245  11.240   8.853
 6925POPC   C1A26583  43.135  11.263   8.553
 6925POPC   D2A26584  43.079  11.280   8.253
 6925POPC   C3A26585  43.078  11.265   7.953
 6925POPC   C4A26586  43.117  11.251   7.653
 6925POPC   C1B26587  43.287  11.113   8.553
 6925POPC   C2B26588  43.354  11.131   8.253
 6925POPC   C3B26589  43.338  11.143   7.953
 6925POPC   C4B26590  43.281  11.161   7.653
 6926POPC   NC326591  19.069  19.803   9.453
 6926POPC   PO426592  19.077  19.813   9.153
 6926POPC   GL126593  19.046  19.852   8.853
 6926POPC   GL226594  19.072  19.924   8.853
 6926POPC   C1A26595  19.084  19.868   8.553
 6926POPC   D2A26596  19.077  19.825   8.253
 6926POPC   C3A26597  19.035  19.821   7.953
 6926POPC   C4A26598  19.063  19.853   7.653
 6926POPC   C1B26599  19.087  20.086   8.553
 6926POPC   C2B26600  19.077  20.051   8.253
 6926POPC   C3B26601  19.019  20.119   7.953
 6926POPC   C4B26602  19.029  20.129   7.653
 6927POPC   NC326603  43.115   1.244   9.453
 6927POPC   PO426604  43.136   1.234   9.153
 6927POPC   GL126605  43.135   1.234   8.853
 6927POPC   GL226606  42.942   1.172   8.853
 6927POPC   C1A26607  43.061   1.214   8.553
 6927POPC   D2A26608  43.091   1.179   8.253
 6927POPC   C3A26609  43.061   1.258   7.953
 6927POPC   C4A26610  43.137   1.226   7.653
 6927POPC   C1B26611  42.862   1.126   8.553
 6927POPC   C2B26612  42.887   1.104   8.253
 6927POPC   C3B26613  42.905   1.182   7.953
 6927POPC   C4B26614  42.901   1.148   7.653
 6928POPC   NC326615  36.138   0.388   9.453
 6928POPC   PO426616  36.090   0.456   9.153
 6928POPC   GL126617  36.168   0.426   8.853
 6928POPC   GL226618  36.176   0.557   8.853
 6928POPC   C1A26619  36.118   0.452   8.553
 6928POPC   D2A26620  36.127   0.484   8.253
 6928POPC   C3A26621  36.129   0.429   7.953
 6928POPC   C4A26622  36.101   0.483   7.653
 6928POPC   C1B26623  36.248   0.671   8.553
 6928POPC   C2B26624  36.220   0.625   8.253
 6928POPC   C3B26625  36.269   0.638   7.953
 6928POPC   C4B26626  36.267   0.599   7.653
 6929POPC   NC326627  24.445   1.181   9.453
 6929POPC   PO426628  24.518   1.176   9.153
 6929POPC   GL126629  24.538   1.224   8.853
 6929POPC   GL226630  24.427   1.351   8.853
 6929POPC   C1A26631  24.498   1.230   8.553
 6929POPC   D2A26632  24.511   1.185   8.253
 6929POPC   C3A26633  24.526   1.230   7.953
 6929POPC   C4A26634  24.456   1.177   7.653
 6929POPC   C1B26635  24.386   1.467   8.553
 6929POPC   C2B26636  24.455   1.443   8.253
 6929POPC   C3B26637  24.454   1.495   7.953
 6929POPC   C4B26638  24.459   1.437   7.653
 6930POPC   NC326639  34.563  14.388   9.453
 6930POPC   PO426640  34.610  14.427   9.153
 6930POPC   GL126641  34.588  14.448   8.853
 6930POPC   GL226642  34.584  14.249   8.853
 6930POPC   C1A26643  34.581  14.418   8.553
 6930POPC   D2A26644  34.588  14.399   8.253
 6930POPC   C3A26645  34.541  14.371   7.953
 6930POPC   C4A26646  34.566  14.442   7.653
 6930POPC   C1B26647  34.615  14.123   8.553
 6930POPC   C2B26648  34.564  14.166   8.253
 6930POPC   C3B26649  34.556  14.164   7.953
 6930POPC   C4B26650  34.631  14.179   7.653
 6931POPC   NC326651   7.438  12.033   9.453
 6931POPC   PO426652   7.409  12.125   9.153
 6931POPC   GL126653   7.405  12.042   8.853
 6931POPC   GL226654   7.322  11.979   8.853
 6931POPC   C1A26655   7.413  12.086   8.553
 6931POPC   D2A26656   7.408  12.037   8.253
 6931POPC   C3A26657   7.437  12.045   7.953
 6931POPC   C4A26658   7.452  12.027   7.653
 6931POPC   C1B26659   7.187  11.955   8.553
 6931POPC   C2B26660   7.253  11.937   8.253
 6931POPC   C3B26661   7.177  11.936   7.953
 6931POPC   C4B26662   7.219  11.895   7.653
 6932POPC   NC326663   2.004  15.931   9.453
 6932POPC   PO426664   2.038  15.935   9.153
 6932POPC   GL126665   1.962  15.996   8.853
 6932POPC   GL226666   2.054  15.898   8.853
 6932POPC   C1A26667   1.996  15.957   8.553
 6932POPC   D2A26668   1.962  15.986   8.253
 6932POPC   C3A26669   1.940  16.000   7.953
 6932POPC   C4A26670   1.955  16.003   7.653
 6932POPC   C1B26671   2.120  15.766   8.553
 6932POPC   C2B26672   2.126  15.752   8.253
 6932POPC   C3B26673   2.146  15.777   7.953
 6932POPC   C4B26674   2.137  15.734   7.653
 6933POPC   NC326675  43.907   8.977   9.453
 6933POPC   PO426676  43.925   9.022   9.153
 6933POPC   GL126677  43.920   9.009   8.853
 6933POPC   GL226678  43.742   9.048   8.853
 6933POPC   C1A26679  43.936   8.926   8.553
 6933POPC   D2A26680  43.900   8.954   8.253
 6933POPC   C3A26681  43.871   8.923   7.953
 6933POPC   C4A26682  43.839   8.961   7.653
 6933POPC   C1B26683  43.601   9.058   8.553
 6933POPC   C2B26684  43.611   9.069   8.253
 6933POPC   C3B26685  43.656   9.084   7.953
 6933POPC   C4B26686  43.617   9.065   7.653
 6934POPC   NC326687  17.519  29.167   9.453
 6934POPC   PO426688  17.538  29.182   9.153
 6934POPC   GL126689  17.495  29.143   8.853
 6934POPC   GL226690  17.585  29.109   8.853
 6934POPC   C1A26691  17.490  29.176   8.553
 6934POPC   D2A26692  17.515  29.163   8.253
 6934POPC   C3A26693  17.502  29.193   7.953
 6934POPC   C4A26694  17.554  29.165   7.653
 6934POPC   C1B26695  17.789  29.119   8.553
 6934POPC   C2B26696  17.712  29.183   8.253
 6934POPC   C3B26697  17.749  29.127   7.953
 6934POPC   C4B26698  17.787  29.190   7.653
 6935POPC   NC326699  12.885  39.281   9.453
 6935POPC   PO426700  12.829  39.194   9.153
 6935POPC   GL126701  12.820  39.191   8.853
 6935POPC   GL226702  12.804  39.314   8.853
 6935POPC   C1A26703  12.821  39.183   8.553
 6935POPC   D2A26704  12.865  39.267   8.253
 6935POPC   C3A26705  12.824  39.193   7.953
 6935POPC   C4A26706  12.833  39.234   7.653
 6935POPC   C1B26707  12.842  39.458   8.553
 6935POPC   C2B26708  12.849  39.451   8.253
 6935POPC   C3B26709  12.872  39.474   7.953
 6935POPC   C4B26710  12.839  39.526   7.653
 6936POPC   NC326711   5.915  37.729   9.453
 6936POPC   PO426712   5.847  37.722   9.153
 6936POPC   GL126713   5.896  37.673   8.853
 6936POPC   GL226714   5.943  37.599   8.853
 6936POPC   C1A26715   5.877  37.655   8.553
 6936POPC   D2A26716   5.830  37.695   8.253
 6936POPC   C3A26717   5.880  37.651   7.953
 6936POPC   C4A26718   5.844  37.697   7.653
 6936POPC   C1B26719   6.111  37.543   8.553
 6936POPC   C2B26720   6.113  37.545   8.253
 6936POPC   C3B26721   6.108  37.616   7.953
 6936POPC   C4B26722   6.076  37.550   7.653
 6937POPC   NC326723   5.106  12.125   9.453
 6937POPC   PO426724   5.120  12.101   9.153
 6937POPC   GL126725   5.109  12.102   8.853
 6937POPC   GL226726   5.069  12.004   8.853
 6937POPC   C1A26727   5.047  12.035   8.553
 6937POPC   D2A26728   5.044  12.066   8.253
 6937POPC   C3A26729   5.136  12.035   7.953
 6937POPC   C4A26730   5.087  12.031   7.653
 6937POPC   C1B26731   4.963  11.862   8.553
 6937POPC   C2B26732   5.013  11.845   8.253
 6937POPC   C3B26733   5.028  11.795   7.953
 6937POPC   C4B26734   5.025  11.819   7.653
 6938POPC   NC326735   1.941   3.587   9.453
 6938POPC   PO426736   2.018   3.546   9.153
 6938POPC   GL126737   1.967   3.546   8.853
 6938POPC   GL226738   2.129   3.579   8.853
 6938POPC   C1A26739   1.949   3.497   8.553
 6938POPC   D2A26740   1.997   3.508   8.253
 6938POPC   C3A26741   1.943   3.569   7.953
 6938POPC   C4A26742   1.994   3.495   7.653
 6938POPC   C1B26743   2.221   3.598   8.553
 6938POPC   C2B26744   2.221   3.612   8.253
 6938POPC   C3B26745   2.257   3.660   7.953
 6938POPC   C4B26746   2.201   3.618   7.653
 6939POPC   NC326747  15.164  30.724   9.453
 6939POPC   PO426748  15.207  30.713   9.153
 6939POPC   GL126749  15.131  30.712   8.853
 6939POPC   GL226750  15.215  30.609   8.853
 6939POPC   C1A26751  15.215  30.662   8.553
 6939POPC   D2A26752  15.216  30.651   8.253
 6939POPC   C3A26753  15.228  30.663   7.953
 6939POPC   C4A26754  15.194  30.664   7.653
 6939POPC   C1B26755  15.274  30.509   8.553
 6939POPC   C2B26756  15.268  30.513   8.253
 6939POPC   C3B26757  15.326  30.474   7.953
 6939POPC   C4B26758  15.315  30.482   7.653
 6940POPC   NC326759  19.797  32.255   9.453
 6940POPC   PO426760  19.815  32.266   9.153
 6940POPC   GL126761  19.809  32.233   8.853
 6940POPC   GL226762  19.873  32.164   8.853
 6940POPC   C1A26763  19.869  32.251   8.553
 6940POPC   D2A26764  19.815  32.226   8.253
 6940POPC   C3A26765  19.856  32.231   7.953
 6940POPC   C4A26766  19.810  32.215   7.653
 6940POPC   C1B26767  19.990  32.026   8.553
 6940POPC   C2B26768  19.980  32.058   8.253
 6940POPC   C3B26769  19.953  32.006   7.953
 6940POPC   C4B26770  20.023  32.081   7.653
 6941POPC   NC326771  28.393  23.737   9.453
 6941POPC   PO426772  28.365  23.706   9.153
 6941POPC   GL126773  28.406  23.732   8.853
 6941POPC   GL226774  28.267  23.628   8.853
 6941POPC   C1A26775  28.365  23.746   8.553
 6941POPC   D2A26776  28.384  23.728   8.253
 6941POPC   C3A26777  28.357  23.724   7.953
 6941POPC   C4A26778  28.350  23.756   7.653
 6941POPC   C1B26779  28.194  23.599   8.553
 6941POPC   C2B26780  28.193  23.604   8.253
 6941POPC   C3B26781  28.143  23.549   7.953
 6941POPC   C4B26782  28.122  23.615   7.653
 6942POPC   NC326783   6.655   3.537   9.453
 6942POPC   PO426784   6.612   3.506   9.153
 6942POPC   GL126785   6.675   3.492   8.853
 6942POPC   GL226786   6.568   3.459   8.853
 6942POPC   C1A26787   6.612   3.589   8.553
 6942POPC   D2A26788   6.629   3.578   8.253
 6942POPC   C3A26789   6.664   3.535   7.953
 6942POPC   C4A26790   6.632   3.581   7.653
 6942POPC   C1B26791   6.404   3.356   8.553
 6942POPC   C2B26792   6.419   3.383   8.253
 6942POPC   C3B26793   6.441   3.339   7.953
 6942POPC   C4B26794   6.461   3.418   7.653
 6943POPC   NC326795  35.309  34.625   9.453
 6943POPC   PO426796  35.329  34.529   9.153
 6943POPC   GL126797  35.343  34.547   8.853
 6943POPC   GL226798  35.464  34.591   8.853
 6943POPC   C1A26799  35.376  34.533   8.553
 6943POPC   D2A26800  35.347  34.569   8.253
 6943POPC   C3A26801  35.341  34.541   7.953
 6943POPC   C4A26802  35.353  34.546   7.653
 6943POPC   C1B26803  35.556  34.652   8.553
 6943POPC   C2B26804  35.562  34.710   8.253
 6943POPC   C3B26805  35.619  34.676   7.953
 6943POPC   C4B26806  35.552  34.718   7.653
 6944POPC   NC326807   2.028  36.860   9.453
 6944POPC   PO426808   1.980  36.894   9.153
 6944POPC   GL126809   1.956  36.911   8.853
 6944POPC   GL226810   2.039  36.756   8.853
 6944POPC   C1A26811   1.965  36.933   8.553
 6944POPC   D2A26812   2.025  36.859   8.253
 6944POPC   C3A26813   1.999  36.936   7.953
 6944POPC   C4A26814   1.942  36.895   7.653
 6944POPC   C1B26815   1.983  36.695   8.553
 6944POPC   C2B26816   2.008  36.654   8.253
 6944POPC   C3B26817   2.041  36.666   7.953
 6944POPC   C4B26818   2.040  36.679   7.653
 6945POPC   NC326819  15.959  39.970   9.453
 6945POPC   PO426820  16.005  39.979   9.153
 6945POPC   GL126821  15.953  39.979   8.853
 6945POPC   GL226822  15.964  39.856   8.853
 6945POPC   C1A26823  15.936  40.049   8.553
 6945POPC   D2A26824  15.960  40.006   8.253
 6945POPC   C3A26825  15.998  40.047   7.953
 6945POPC   C4A26826  15.960  40.009   7.653
 6945POPC   C1B26827  16.038  39.785   8.553
 6945POPC   C2B26828  16.034  39.795   8.253
 6945POPC   C3B26829  16.055  39.826   7.953
 6945POPC   C4B26830  16.076  39.737   7.653
 6946POPC   NC326831   1.168  31.469   9.453
 6946POPC   PO426832   1.261  31.450   9.153
 6946POPC   GL126833   1.190  31.494   8.853
 6946POPC   GL226834   1.208  31.638   8.853
 6946POPC   C1A26835   1.258  31.451   8.553
 6946POPC   D2A26836   1.225  31.468   8.253
 6946POPC   C3A26837   1.185  31.491   7.953
 6946POPC   C4A26838   1.174  31.472   7.653
 6946POPC   C1B26839   1.333  31.707   8.553
 6946POPC   C2B26840   1.315  31.671   8.253
 6946POPC   C3B26841   1.249  31.711   7.953
 6946POPC   C4B26842   1.291  31.678   7.653
 6947POPC   NC326843  36.079   3.554   9.453
 6947POPC   PO426844  36.124   3.531   9.153
 6947POPC   GL126845  36.133   3.506   8.853
 6947POPC   GL226846  36.276   3.469   8.853
 6947POPC   C1A26847  36.149   3.521   8.553
 6947POPC   D2A26848  36.122   3.574   8.253
 6947POPC   C3A26849  36.166   3.545   7.953
 6947POPC   C4A26850  36.141   3.531   7.653
 6947POPC   C1B26851  36.400   3.457   8.553
 6947POPC   C2B26852  36.344   3.418   8.253
 6947POPC   C3B26853  36.330   3.430   7.953
 6947POPC   C4B26854  36.378   3.424   7.653
 6948POPC   NC326855   5.912  20.561   9.453
 6948POPC   PO426856   5.850  20.590   9.153
 6948POPC   GL126857   5.869  20.621   8.853
 6948POPC   GL226858   5.812  20.773   8.853
 6948POPC   C1A26859   5.865  20.645   8.553
 6948POPC   D2A26860   5.887  20.589   8.253
 6948POPC   C3A26861   5.883  20.596   7.953
 6948POPC   C4A26862   5.840  20.570   7.653
 6948POPC   C1B26863   5.823  20.851   8.553
 6948POPC   C2B26864   5.759  20.875   8.253
 6948POPC   C3B26865   5.768  20.814   7.953
 6948POPC   C4B26866   5.738  20.806   7.653
 6949POPC   NC326867  19.839  26.053   9.453
 6949POPC   PO426868  19.812  26.051   9.153
 6949POPC   GL126869  19.869  26.034   8.853
 6949POPC   GL226870  19.820  25.905   8.853
 6949POPC   C1A26871  19.807  26.038   8.553
 6949POPC   D2A26872  19.856  26.049   8.253
 6949POPC   C3A26873  19.847  26.042   7.953
 6949POPC   C4A26874  19.847  26.023   7.653
 6949POPC   C1B26875  19.754  25.801   8.553
 6949POPC   C2B26876  19.732  25.826   8.253
 6949POPC   C3B26877  19.730  25.793   7.953
 6949POPC   C4B26878  19.766  25.755   7.653
 6950POPC   NC326879  37.715  15.132   9.453
 6950POPC   PO426880  37.638  15.221   9.153
 6950POPC   GL126881  37.694  15.165   8.853
 6950POPC   GL226882  37.534  15.189   8.853
 6950POPC   C1A26883  37.670  15.210   8.553
 6950POPC   D2A26884  37.683  15.203   8.253
 6950POPC   C3A26885  37.687  15.139   7.953
 6950POPC   C4A26886  37.723  15.169   7.653
 6950POPC   C1B26887  37.395  15.132   8.553
 6950POPC   C2B26888  37.468  15.159   8.253
 6950POPC   C3B26889  37.455  15.203   7.953
 6950POPC   C4B26890  37.406  15.182   7.653
 6951POPC   NC326891  40.053  28.350   9.453
 6951POPC   PO426892  40.002  28.333   9.153
 6951POPC   GL126893  39.960  28.343   8.853
 6951POPC   GL226894  39.852  28.402   8.853
 6951POPC   C1A26895  40.017  28.325   8.553
 6951POPC   D2A26896  40.057  28.328   8.253
 6951POPC   C3A26897  39.971  28.327   7.953
 6951POPC   C4A26898  40.034  28.368   7.653
 6951POPC   C1B26899  39.838  28.471   8.553
 6951POPC   C2B26900  39.831  28.489   8.253
 6951POPC   C3B26901  39.828  28.525   7.953
 6951POPC   C4B26902  39.792  28.508   7.653
 6952POPC   NC326903  21.353  26.834   9.453
 6952POPC   PO426904  21.433  26.777   9.153
 6952POPC   GL126905  21.414  26.823   8.853
 6952POPC   GL226906  21.514  26.764   8.853
 6952POPC   C1A26907  21.363  26.824   8.553
 6952POPC   D2A26908  21.344  26.847   8.253
 6952POPC   C3A26909  21.366  26.791   7.953
 6952POPC   C4A26910  21.429  26.823   7.653
 6952POPC   C1B26911  21.578  26.657   8.553
 6952POPC   C2B26912  21.543  26.676   8.253
 6952POPC   C3B26913  21.611  26.712   7.953
 6952POPC   C4B26914  21.602  26.663   7.653
 6953POPC   NC326915   6.616   2.757   9.453
 6953POPC   PO426916   6.673   2.808   9.153
 6953POPC   GL126917   6.658   2.800   8.853
 6953POPC   GL226918   6.589   2.841   8.853
 6953POPC   C1A26919   6.659   2.746   8.553
 6953POPC   D2A26920   6.655   2.775   8.253
 6953POPC   C3A26921   6.694   2.739   7.953
 6953POPC   C4A26922   6.613   2.774   7.653
 6953POPC   C1B26923   6.547   2.965   8.553
 6953POPC   C2B26924   6.512   2.968   8.253
 6953POPC   C3B26925   6.505   2.942   7.953
 6953POPC   C4B26926   6.526   2.941   7.653
 6954POPC   NC326927  42.336  31.429   9.453
 6954POPC   PO426928  42.310  31.437   9.153
 6954POPC   GL126929  42.320  31.434   8.853
 6954POPC   GL226930  42.326  31.592   8.853
 6954POPC   C1A26931  42.296  31.519   8.553
 6954POPC   D2A26932  42.372  31.493   8.253
 6954POPC   C3A26933  42.296  31.492   7.953
 6954POPC   C4A26934  42.355  31.455   7.653
 6954POPC   C1B26935  42.361  31.742   8.553
 6954POPC   C2B26936  42.378  31.717   8.253
 6954POPC   C3B26937  42.342  31.760   7.953
 6954POPC   C4B26938  42.373  31.738   7.653
 6955POPC   NC326939  12.830  38.468   9.453
 6955POPC   PO426940  12.888  38.456   9.153
 6955POPC   GL126941  12.841  38.459   8.853
 6955POPC   GL226942  12.768  38.406   8.853
 6955POPC   C1A26943  12.854  38.486   8.553
 6955POPC   D2A26944  12.844  38.409   8.253
 6955POPC   C3A26945  12.891  38.451   7.953
 6955POPC   C4A26946  12.888  38.465   7.653
 6955POPC   C1B26947  12.688  38.221   8.553
 6955POPC   C2B26948  12.732  38.276   8.253
 6955POPC   C3B26949  12.669  38.272   7.953
 6955POPC   C4B26950  12.678  38.302   7.653
 6956POPC   NC326951  29.144  43.152   9.453
 6956POPC   PO426952  29.175  43.118   9.153
 6956POPC   GL126953  29.143  43.118   8.853
 6956POPC   GL226954  29.018  43.064   8.853
 6956POPC   C1A26955  29.172  43.062   8.553
 6956POPC   D2A26956  29.132  43.133   8.253
 6956POPC   C3A26957  29.169  43.100   7.953
 6956POPC   C4A26958  29.144  43.118   7.653
 6956POPC   C1B26959  28.894  43.067   8.553
 6956POPC   C2B26960  28.951  43.022   8.253
 6956POPC   C3B26961  28.890  43.013   7.953
 6956POPC   C4B26962  28.864  43.037   7.653
 6957POPC   NC326963  35.303  44.681   9.453
 6957POPC   PO426964  35.304  44.675   9.153
 6957POPC   GL126965  35.361  44.618   8.853
 6957POPC   GL226966  35.415  44.508   8.853
 6957POPC   C1A26967  35.355  44.632   8.553
 6957POPC   D2A26968  35.380  44.709   8.253
 6957POPC   C3A26969  35.317  44.653   7.953
 6957POPC   C4A26970  35.358  44.631   7.653
 6957POPC   C1B26971  35.447  44.487   8.553
 6957POPC   C2B26972  35.421  44.468   8.253
 6957POPC   C3B26973  35.493  44.394   7.953
 6957POPC   C4B26974  35.459  44.486   7.653
 6958POPC   NC326975  28.372   1.179   9.453
 6958POPC   PO426976  28.403   1.236   9.153
 6958POPC   GL126977  28.350   1.173   8.853
 6958POPC   GL226978  28.304   1.266   8.853
 6958POPC   C1A26979  28.363   1.200   8.553
 6958POPC   D2A26980  28.409   1.211   8.253
 6958POPC   C3A26981  28.416   1.199   7.953
 6958POPC   C4A26982  28.319   1.252   7.653
 6958POPC   C1B26983  28.137   1.405   8.553
 6958POPC   C2B26984  28.203   1.414   8.253
 6958POPC   C3B26985  28.191   1.370   7.953
 6958POPC   C4B26986  28.132   1.389   7.653
 6959POPC   NC326987  11.261  17.504   9.453
 6959POPC   PO426988  11.340  17.518   9.153
 6959POPC   GL126989  11.255  17.539   8.853
 6959POPC   GL226990  11.342  17.658   8.853
 6959POPC   C1A26991  11.262  17.460   8.553
 6959POPC   D2A26992  11.349  17.550   8.253
 6959POPC   C3A26993  11.333  17.487   7.953
 6959POPC   C4A26994  11.284  17.554   7.653
 6959POPC   C1B26995  11.373  17.705   8.553
 6959POPC   C2B26996  11.340  17.741   8.253
 6959POPC   C3B26997  11.384  17.751   7.953
 6959POPC   C4B26998  11.310  17.760   7.653
 6960POPC   NC326999  41.576  11.324   9.453
 6960POPC   PO427000  41.582  11.334   9.153
 6960POPC   GL127001  41.533  11.315   8.853
 6960POPC   GL227002  41.507  11.258   8.853
 6960POPC   C1A27003  41.571  11.324   8.553
 6960POPC   D2A27004  41.565  11.270   8.253
 6960POPC   C3A27005  41.586  11.325   7.953
 6960POPC   C4A27006  41.561  11.331   7.653
 6960POPC   C1B27007  41.430  11.106   8.553
 6960POPC   C2B27008  41.422  11.127   8.253
 6960POPC   C3B27009  41.423  11.128   7.953
 6960POPC   C4B27010  41.341  11.145   7.653
 6961POPC   NC327011  33.837  23.718   9.453
 6961POPC   PO427012  33.850  23.710   9.153
 6961POPC   GL127013  33.821  23.672   8.853
 6961POPC   GL227014  33.753  23.586   8.853
 6961POPC   C1A27015  33.789  23.693   8.553
 6961POPC   D2A27016  33.792  23.702   8.253
 6961POPC   C3A27017  33.760  23.723   7.953
 6961POPC   C4A27018  33.772  23.690   7.653
 6961POPC   C1B27019  33.766  23.449   8.553
 6961POPC   C2B27020  33.748  23.424   8.253
 6961POPC   C3B27021  33.807  23.495   7.953
 6961POPC   C4B27022  33.778  23.472   7.653
 6962POPC   NC327023   6.674  22.899   9.453
 6962POPC   PO427024   6.681  22.890   9.153
 6962POPC   GL127025   6.623  22.954   8.853
 6962POPC   GL227026   6.704  22.795   8.853
 6962POPC   C1A27027   6.692  22.926   8.553
 6962POPC   D2A27028   6.694  22.929   8.253
 6962POPC   C3A27029   6.646  22.924   7.953
 6962POPC   C4A27030   6.645  22.947   7.653
 6962POPC   C1B27031   6.780  22.735   8.553
 6962POPC   C2B27032   6.840  22.789   8.253
 6962POPC   C3B27033   6.777  22.707   7.953
 6962POPC   C4B27034   6.854  22.757   7.653
 6963POPC   NC327035  39.184  21.378   9.453
 6963POPC   PO427036  39.188  21.367   9.153
 6963POPC   GL127037  39.270  21.373   8.853
 6963POPC   GL227038  39.238  21.464   8.853
 6963POPC   C1A27039  39.218  21.429   8.553
 6963POPC   D2A27040  39.252  21.390   8.253
 6963POPC   C3A27041  39.265  21.341   7.953
 6963POPC   C4A27042  39.189  21.405   7.653
 6963POPC   C1B27043  39.231  21.680   8.553
 6963POPC   C2B27044  39.154  21.634   8.253
 6963POPC   C3B27045  39.207  21.676   7.953
 6963POPC   C4B27046  39.220  21.673   7.653
 6964POPC   NC327047   0.419  31.425   9.453
 6964POPC   PO427048   0.480  31.451   9.153
 6964POPC   GL127049   0.444  31.444   8.853
 6964POPC   GL227050   0.525  31.462   8.853
 6964POPC   C1A27051   0.444  31.519   8.553
 6964POPC   D2A27052   0.441  31.481   8.253
 6964POPC   C3A27053   0.416  31.475   7.953
 6964POPC   C4A27054   0.399  31.490   7.653
 6964POPC   C1B27055   0.648  31.437   8.553
 6964POPC   C2B27056   0.660  31.464   8.253
 6964POPC   C3B27057   0.657  31.374   7.953
 6964POPC   C4B27058   0.712  31.459   7.653
 6965POPC   NC327059  41.545   5.108   9.453
 6965POPC   PO427060  41.566   5.099   9.153
 6965POPC   GL127061  41.577   5.110   8.853
 6965POPC   GL227062  41.683   5.141   8.853
 6965POPC   C1A27063  41.588   5.139   8.553
 6965POPC   D2A27064  41.559   5.098   8.253
 6965POPC   C3A27065  41.562   5.081   7.953
 6965POPC   C4A27066  41.532   5.065   7.653
 6965POPC   C1B27067  41.791   5.253   8.553
 6965POPC   C2B27068  41.738   5.246   8.253
 6965POPC   C3B27069  41.747   5.218   7.953
 6965POPC   C4B27070  41.802   5.198   7.653
 6966POPC   NC327071  30.712  35.348   9.453
 6966POPC   PO427072  30.713  35.390   9.153
 6966POPC   GL127073  30.660  35.312   8.853
 6966POPC   GL227074  30.642  35.271   8.853
 6966POPC   C1A27075  30.660  35.354   8.553
 6966POPC   D2A27076  30.678  35.339   8.253
 6966POPC   C3A27077  30.742  35.352   7.953
 6966POPC   C4A27078  30.739  35.312   7.653
 6966POPC   C1B27079  30.604  35.156   8.553
 6966POPC   C2B27080  30.600  35.104   8.253
 6966POPC   C3B27081  30.644  35.133   7.953
 6966POPC   C4B27082  30.625  35.132   7.653
 6967POPC   NC327083   3.528  37.722   9.453
 6967POPC   PO427084   3.583  37.679   9.153
 6967POPC   GL127085   3.582  37.698   8.853
 6967POPC   GL227086   3.638  37.628   8.853
 6967POPC   C1A27087   3.547  37.634   8.553
 6967POPC   D2A27088   3.499  37.699   8.253
 6967POPC   C3A27089   3.555  37.714   7.953
 6967POPC   C4A27090   3.501  37.707   7.653
 6967POPC   C1B27091   3.767  37.598   8.553
 6967POPC   C2B27092   3.803  37.553   8.253
 6967POPC   C3B27093   3.800  37.582   7.953
 6967POPC   C4B27094   3.772  37.622   7.653
 6968POPC   NC327095   9.791  25.260   9.453
 6968POPC   PO427096   9.796  25.285   9.153
 6968POPC   GL127097   9.737  25.252   8.853
 6968POPC   GL227098   9.825  25.231   8.853
 6968POPC   C1A27099   9.787  25.306   8.553
 6968POPC   D2A27100   9.789  25.312   8.253
 6968POPC   C3A27101   9.795  25.299   7.953
 6968POPC   C4A27102   9.715  25.293   7.653
 6968POPC   C1B27103   9.953  25.186   8.553
 6968POPC   C2B27104   9.922  25.167   8.253
 6968POPC   C3B27105   9.951  25.124   7.953
 6968POPC   C4B27106   9.937  25.187   7.653
 6969POPC   NC327107   9.750  26.795   9.453
 6969POPC   PO427108   9.771  26.801   9.153
 6969POPC   GL127109   9.786  26.855   8.853
 6969POPC   GL227110   9.833  26.883   8.853
 6969POPC   C1A27111   9.780  26.850   8.553
 6969POPC   D2A27112   9.782  26.776   8.253
 6969POPC   C3A27113   9.710  26.841   7.953
 6969POPC   C4A27114   9.725  26.838   7.653
 6969POPC   C1B27115   9.909  27.065   8.553
 6969POPC   C2B27116   9.913  27.028   8.253
 6969POPC   C3B27117   9.847  27.082   7.953
 6969POPC   C4B27118   9.880  26.985   7.653
 6970POPC   NC327119  24.484  26.016   9.453
 6970POPC   PO427120  24.509  26.017   9.153
 6970POPC   GL127121  24.463  26.060   8.853
 6970POPC   GL227122  24.635  26.099   8.853
 6970POPC   C1A27123  24.492  26.035   8.553
 6970POPC   D2A27124  24.470  26.002   8.253
 6970POPC   C3A27125  24.447  26.025   7.953
 6970POPC   C4A27126  24.533  26.021   7.653
 6970POPC   C1B27127  24.746  26.156   8.553
 6970POPC   C2B27128  24.682  26.115   8.253
 6970POPC   C3B27129  24.666  26.133   7.953
 6970POPC   C4B27130  24.758  26.172   7.653
 6971POPC   NC327131  43.087  18.293   9.453
 6971POPC   PO427132  43.093  18.280   9.153
 6971POPC   GL127133  43.068  18.247   8.853
 6971POPC   GL227134  43.000  18.350   8.853
 6971POPC   C1A27135  43.127  18.287   8.553
 6971POPC   D2A27136  43.160  18.251   8.253
 6971POPC   C3A27137  43.080  18.259   7.953
 6971POPC   C4A27138  43.149  18.267   7.653
 6971POPC   C1B27139  42.889  18.378   8.553
 6971POPC   C2B27140  42.855  18.368   8.253
 6971POPC   C3B27141  42.854  18.353   7.953
 6971POPC   C4B27142  42.846  18.366   7.653
 6972POPC   NC327143  43.108  34.599   9.453
 6972POPC   PO427144  43.154  34.611   9.153
 6972POPC   GL127145  43.131  34.542   8.853
 6972POPC   GL227146  43.011  34.493   8.853
 6972POPC   C1A27147  43.076  34.617   8.553
 6972POPC   D2A27148  43.149  34.610   8.253
 6972POPC   C3A27149  43.156  34.595   7.953
 6972POPC   C4A27150  43.108  34.621   7.653
 6972POPC   C1B27151  42.870  34.498   8.553
 6972POPC   C2B27152  42.931  34.424   8.253
 6972POPC   C3B27153  42.885  34.469   7.953
 6972POPC   C4B27154  42.895  34.499   7.653
 6973POPC   NC327155  11.285  11.302   9.453
 6973POPC   PO427156  11.344  11.253   9.153
 6973POPC   GL127157  11.325  11.266   8.853
 6973POPC   GL227158  11.357  11.465   8.853
 6973POPC   C1A27159  11.317  11.349   8.553
 6973POPC   D2A27160  11.285  11.301   8.253
 6973POPC   C3A27161  11.289  11.339   7.953
 6973POPC   C4A27162  11.317  11.257   7.653
 6973POPC   C1B27163  11.385  11.540   8.553
 6973POPC   C2B27164  11.414  11.550   8.253
 6973POPC   C3B27165  11.413  11.494   7.953
 6973POPC   C4B27166  11.357  11.584   7.653
 6974POPC   NC327167   8.961   1.980   9.453
 6974POPC   PO427168   8.990   2.020   9.153
 6974POPC   GL127169   9.009   2.001   8.853
 6974POPC   GL227170   8.856   1.916   8.853
 6974POPC   C1A27171   8.986   1.969   8.553
 6974POPC   D2A27172   9.004   1.978   8.253
 6974POPC   C3A27173   8.944   1.958   7.953
 6974POPC   C4A27174   8.990   1.969   7.653
 6974POPC   C1B27175   8.719   1.905   8.553
 6974POPC   C2B27176   8.792   1.845   8.253
 6974POPC   C3B27177   8.749   1.893   7.953
 6974POPC   C4B27178   8.805   1.873   7.653
 6975POPC   NC327179  40.739  15.913   9.453
 6975POPC   PO427180  40.824  15.997   9.153
 6975POPC   GL127181  40.820  15.927   8.853
 6975POPC   GL227182  40.845  15.796   8.853
 6975POPC   C1A27183  40.765  15.922   8.553
 6975POPC   D2A27184  40.830  15.914   8.253
 6975POPC   C3A27185  40.739  15.951   7.953
 6975POPC   C4A27186  40.758  15.975   7.653
 6975POPC   C1B27187  40.926  15.704   8.553
 6975POPC   C2B27188  40.952  15.772   8.253
 6975POPC   C3B27189  40.932  15.781   7.953
 6975POPC   C4B27190  40.884  15.699   7.653
 6976POPC   NC327191   5.099  27.620   9.453
 6976POPC   PO427192   5.137  27.578   9.153
 6976POPC   GL127193   5.056  27.577   8.853
 6976POPC   GL227194   5.176  27.654   8.853
 6976POPC   C1A27195   5.065  27.594   8.553
 6976POPC   D2A27196   5.046  27.620   8.253
 6976POPC   C3A27197   5.088  27.580   7.953
 6976POPC   C4A27198   5.134  27.596   7.653
 6976POPC   C1B27199   5.365  27.681   8.553
 6976POPC   C2B27200   5.325  27.655   8.253
 6976POPC   C3B27201   5.324  27.722   7.953
 6976POPC   C4B27202   5.293  27.668   7.653
 6977POPC   NC327203  43.073  22.934   9.453
 6977POPC   PO427204  43.124  22.979   9.153
 6977POPC   GL127205  43.068  22.889   8.853
 6977POPC   GL227206  43.040  22.842   8.853
 6977POPC   C1A27207  43.086  22.959   8.553
 6977POPC   D2A27208  43.145  22.932   8.253
 6977POPC   C3A27209  43.105  22.963   7.953
 6977POPC   C4A27210  43.071  22.954   7.653
 6977POPC   C1B27211  42.909  22.808   8.553
 6977POPC   C2B27212  42.931  22.817   8.253
 6977POPC   C3B27213  42.895  22.792   7.953
 6977POPC   C4B27214  42.875  22.814   7.653
 6978POPC   NC327215   9.795  26.016   9.453
 6978POPC   PO427216   9.788  26.062   9.153
 6978POPC   GL127217   9.708  26.023   8.853
 6978POPC   GL227218   9.872  25.957   8.853
 6978POPC   C1A27219   9.730  26.038   8.553
 6978POPC   D2A27220   9.785  26.090   8.253
 6978POPC   C3A27221   9.707  26.002   7.953
 6978POPC   C4A27222   9.743  25.998   7.653
 6978POPC   C1B27223   9.933  25.827   8.553
 6978POPC   C2B27224   9.926  25.846   8.253
 6978POPC   C3B27225   9.871  25.833   7.953
 6978POPC   C4B27226   9.944  25.847   7.653
 6979POPC   NC327227  26.822  44.712   9.453
 6979POPC   PO427228  26.810  44.640   9.153
 6979POPC   GL127229  26.781  44.656   8.853
 6979POPC   GL227230  26.736  44.584   8.853
 6979POPC   C1A27231  26.867  44.696   8.553
 6979POPC   D2A27232  26.797  44.699   8.253
 6979POPC   C3A27233  26.831  44.692   7.953
 6979POPC   C4A27234  26.816  44.709   7.653
 6979POPC   C1B27235  26.556  44.548   8.553
 6979POPC   C2B27236  26.610  44.532   8.253
 6979POPC   C3B27237  26.623  44.549   7.953
 6979POPC   C4B27238  26.561  44.538   7.653
 6980POPC   NC327239   3.562  38.500   9.453
 6980POPC   PO427240   3.517  38.474   9.153
 6980POPC   GL127241   3.492  38.441   8.853
 6980POPC   GL227242   3.531  38.305   8.853
 6980POPC   C1A27243   3.503  38.412   8.553
 6980POPC   D2A27244   3.563  38.494   8.253
 6980POPC   C3A27245   3.559  38.426   7.953
 6980POPC   C4A27246   3.519  38.424   7.653
 6980POPC   C1B27247   3.569  38.250   8.553
 6980POPC   C2B27248   3.566  38.177   8.253
 6980POPC   C3B27249   3.575  38.240   7.953
 6980POPC   C4B27250   3.625  38.234   7.653
 6981POPC   NC327251  21.420  22.193   9.453
 6981POPC   PO427252  21.345  22.161   9.153
 6981POPC   GL127253  21.420  22.166   8.853
 6981POPC   GL227254  21.331  22.064   8.853
 6981POPC   C1A27255  21.379  22.130   8.553
 6981POPC   D2A27256  21.342  22.136   8.253
 6981POPC   C3A27257  21.381  22.166   7.953
 6981POPC   C4A27258  21.434  22.163   7.653
 6981POPC   C1B27259  21.253  21.929   8.553
 6981POPC   C2B27260  21.258  21.977   8.253
 6981POPC   C3B27261  21.212  21.904   7.953
 6981POPC   C4B27262  21.290  21.905   7.653
 6982POPC   NC327263   6.611   5.887   9.453
 6982POPC   PO427264   6.619   5.873   9.153
 6982POPC   GL127265   6.625   5.830   8.853
 6982POPC   GL227266   6.493   5.863   8.853
 6982POPC   C1A27267   6.684   5.828   8.553
 6982POPC   D2A27268   6.631   5.899   8.253
 6982POPC   C3A27269   6.652   5.873   7.953
 6982POPC   C4A27270   6.673   5.825   7.653
 6982POPC   C1B27271   6.366   5.843   8.553
 6982POPC   C2B27272   6.368   5.839   8.253
 6982POPC   C3B27273   6.424   5.853   7.953
 6982POPC   C4B27274   6.441   5.907   7.653
 6983POPC   NC327275  31.506  31.510   9.453
 6983POPC   PO427276  31.509  31.422   9.153
 6983POPC   GL127277  31.451  31.465   8.853
 6983POPC   GL227278  31.581  31.434   8.853
 6983POPC   C1A27279  31.474  31.464   8.553
 6983POPC   D2A27280  31.474  31.429   8.253
 6983POPC   C3A27281  31.511  31.465   7.953
 6983POPC   C4A27282  31.476  31.494   7.653
 6983POPC   C1B27283  31.723  31.462   8.553
 6983POPC   C2B27284  31.765  31.461   8.253
 6983POPC   C3B27285  31.771  31.493   7.953
 6983POPC   C4B27286  31.698  31.497   7.653
 6984POPC   NC327287   8.179  26.826   9.453
 6984POPC   PO427288   8.228  26.775   9.153
 6984POPC   GL127289   8.160  26.771   8.853
 6984POPC   GL227290   8.194  26.711   8.853
 6984POPC   C1A27291   8.151  26.780   8.553
 6984POPC   D2A27292   8.237  26.770   8.253
 6984POPC   C3A27293   8.214  26.802   7.953
 6984POPC   C4A27294   8.194  26.840   7.653
 6984POPC   C1B27295   8.281  26.568   8.553
 6984POPC   C2B27296   8.272  26.564   8.253
 6984POPC   C3B27297   8.303  26.613   7.953
 6984POPC   C4B27298   8.290  26.565   7.653
 6985POPC   NC327299  41.587   9.779   9.453
 6985POPC   PO427300  41.515   9.795   9.153
 6985POPC   GL127301  41.546   9.719   8.853
 6985POPC   GL227302  41.482   9.654   8.853
 6985POPC   C1A27303  41.577   9.751   8.553
 6985POPC   D2A27304  41.518   9.783   8.253
 6985POPC   C3A27305  41.540   9.789   7.953
 6985POPC   C4A27306  41.571   9.745   7.653
 6985POPC   C1B27307  41.360   9.625   8.553
 6985POPC   C2B27308  41.368   9.665   8.253
 6985POPC   C3B27309  41.301   9.619   7.953
 6985POPC   C4B27310  41.357   9.572   7.653
 6986POPC   NC327311  44.620  34.530   9.453
 6986POPC   PO427312  44.657  34.620   9.153
 6986POPC   GL127313  44.641  34.529   8.853
 6986POPC   GL227314  44.579  34.522   8.853
 6986POPC   C1A27315  44.704  34.530   8.553
 6986POPC   D2A27316  44.646  34.532   8.253
 6986POPC   C3A27317  44.707  34.562   7.953
 6986POPC   C4A27318  44.665  34.531   7.653
 6986POPC   C1B27319  44.407  34.446   8.553
 6986POPC   C2B27320  44.460  34.485   8.253
 6986POPC   C3B27321  44.449  34.478   7.953
 6986POPC   C4B27322  44.439  34.486   7.653
 6987POPC   NC327323   2.040  26.037   9.453
 6987POPC   PO427324   1.974  26.079   9.153
 6987POPC   GL127325   2.037  26.046   8.853
 6987POPC   GL227326   2.152  26.096   8.853
 6987POPC   C1A27327   1.980  26.063   8.553
 6987POPC   D2A27328   2.032  26.024   8.253
 6987POPC   C3A27329   1.944  26.015   7.953
 6987POPC   C4A27330   1.980  26.059   7.653
 6987POPC   C1B27331   2.220  26.194   8.553
 6987POPC   C2B27332   2.177  26.168   8.253
 6987POPC   C3B27333   2.260  26.200   7.953
 6987POPC   C4B27334   2.242  26.176   7.653
 6988POPC   NC327335  32.260  36.931   9.453
 6988POPC   PO427336  32.289  36.873   9.153
 6988POPC   GL127337  32.260  36.913   8.853
 6988POPC   GL227338  32.141  36.963   8.853
 6988POPC   C1A27339  32.204  36.951   8.553
 6988POPC   D2A27340  32.240  36.941   8.253
 6988POPC   C3A27341  32.235  36.860   7.953
 6988POPC   C4A27342  32.209  36.885   7.653
 6988POPC   C1B27343  32.043  37.035   8.553
 6988POPC   C2B27344  32.013  37.022   8.253
 6988POPC   C3B27345  32.055  37.059   7.953
 6988POPC   C4B27346  32.104  37.062   7.653
 6989POPC   NC327347   5.102   8.221   9.453
 6989POPC   PO427348   5.105   8.203   9.153
 6989POPC   GL127349   5.094   8.237   8.853
 6989POPC   GL227350   5.214   8.199   8.853
 6989POPC   C1A27351   5.112   8.191   8.553
 6989POPC   D2A27352   5.098   8.224   8.253
 6989POPC   C3A27353   5.107   8.209   7.953
 6989POPC   C4A27354   5.098   8.191   7.653
 6989POPC   C1B27355   5.294   8.194   8.553
 6989POPC   C2B27356   5.346   8.165   8.253
 6989POPC   C3B27357   5.371   8.199   7.953
 6989POPC   C4B27358   5.307   8.145   7.653
 6990POPC   NC327359   5.891   7.411   9.453
 6990POPC   PO427360   5.832   7.412   9.153
 6990POPC   GL127361   5.822   7.450   8.853
 6990POPC   GL227362   5.758   7.276   8.853
 6990POPC   C1A27363   5.846   7.430   8.553
 6990POPC   D2A27364   5.881   7.392   8.253
 6990POPC   C3A27365   5.832   7.429   7.953
 6990POPC   C4A27366   5.854   7.415   7.653
 6990POPC   C1B27367   5.739   7.170   8.553
 6990POPC   C2B27368   5.746   7.178   8.253
 6990POPC   C3B27369   5.690   7.207   7.953
 6990POPC   C4B27370   5.743   7.248   7.653
 6991POPC   NC327371  30.673  38.456   9.453
 6991POPC   PO427372  30.721  38.496   9.153
 6991POPC   GL127373  30.691  38.484   8.853
 6991POPC   GL227374  30.690  38.310   8.853
 6991POPC   C1A27375  30.663  38.423   8.553
 6991POPC   D2A27376  30.686  38.493   8.253
 6991POPC   C3A27377  30.675  38.422   7.953
 6991POPC   C4A27378  30.691  38.443   7.653
 6991POPC   C1B27379  30.644  38.197   8.553
 6991POPC   C2B27380  30.657  38.192   8.253
 6991POPC   C3B27381  30.653  38.208   7.953
 6991POPC   C4B27382  30.569  38.202   7.653
 6992POPC   NC327383  33.033  31.507   9.453
 6992POPC   PO427384  32.995  31.445   9.153
 6992POPC   GL127385  33.065  31.465   8.853
 6992POPC   GL227386  33.106  31.539   8.853
 6992POPC   C1A27387  33.033  31.519   8.553
 6992POPC   D2A27388  33.056  31.495   8.253
 6992POPC   C3A27389  33.055  31.466   7.953
 6992POPC   C4A27390  32.982  31.480   7.653
 6992POPC   C1B27391  33.212  31.583   8.553
 6992POPC   C2B27392  33.233  31.546   8.253
 6992POPC   C3B27393  33.299  31.547   7.953
 6992POPC   C4B27394  33.287  31.599   7.653
 6993POPC   NC327395  23.688   6.626   9.453
 6993POPC   PO427396  23.680   6.670   9.153
 6993POPC   GL127397  23.694   6.658   8.853
 6993POPC   GL227398  23.836   6.696   8.853
 6993POPC   C1A27399  23.740   6.603   8.553
 6993POPC   D2A27400  23.763   6.664   8.253
 6993POPC   C3A27401  23.748   6.597   7.953
 6993POPC   C4A27402  23.737   6.621   7.653
 6993POPC   C1B27403  23.980   6.743   8.553
 6993POPC   C2B27404  23.944   6.775   8.253
 6993POPC   C3B27405  23.956   6.752   7.953
 6993POPC   C4B27406  23.899   6.817   7.653
 6994POPC   NC327407  27.549  32.234   9.453
 6994POPC   PO427408  27.569  32.205   9.153
 6994POPC   GL127409  27.558  32.288   8.853
 6994POPC   GL227410  27.504  32.180   8.853
 6994POPC   C1A27411  27.553  32.203   8.553
 6994POPC   D2A27412  27.607  32.248   8.253
 6994POPC   C3A27413  27.630  32.251   7.953
 6994POPC   C4A27414  27.553  32.234   7.653
 6994POPC   C1B27415  27.459  32.026   8.553
 6994POPC   C2B27416  27.532  32.039   8.253
 6994POPC   C3B27417  27.523  31.982   7.953
 6994POPC   C4B27418  27.456  32.013   7.653
 6995POPC   NC327419  10.503  27.549   9.453
 6995POPC   PO427420  10.484  27.544   9.153
 6995POPC   GL127421  10.536  27.590   8.853
 6995POPC   GL227422  10.428  27.554   8.853
 6995POPC   C1A27423  10.557  27.629   8.553
 6995POPC   D2A27424  10.503  27.638   8.253
 6995POPC   C3A27425  10.529  27.634   7.953
 6995POPC   C4A27426  10.540  27.642   7.653
 6995POPC   C1B27427  10.300  27.403   8.553
 6995POPC   C2B27428  10.348  27.473   8.253
 6995POPC   C3B27429  10.320  27.463   7.953
 6995POPC   C4B27430  10.324  27.427   7.653
 6996POPC   NC327431  15.201  36.114   9.453
 6996POPC   PO427432  15.192  36.084   9.153
 6996POPC   GL127433  15.154  36.087   8.853
 6996POPC   GL227434  15.023  36.091   8.853
 6996POPC   C1A27435  15.175  36.121   8.553
 6996POPC   D2A27436  15.220  36.084   8.253
 6996POPC   C3A27437  15.188  36.089   7.953
 6996POPC   C4A27438  15.146  36.146   7.653
 6996POPC   C1B27439  14.975  36.159   8.553
 6996POPC   C2B27440  14.971  36.100   8.253
 6996POPC   C3B27441  14.925  36.122   7.953
 6996POPC   C4B27442  14.943  36.123   7.653
 6997POPC   NC327443  40.793  36.108   9.453
 6997POPC   PO427444  40.814  36.112   9.153
 6997POPC   GL127445  40.831  36.080   8.853
 6997POPC   GL227446  40.855  36.223   8.853
 6997POPC   C1A27447  40.762  36.168   8.553
 6997POPC   D2A27448  40.759  36.108   8.253
 6997POPC   C3A27449  40.740  36.120   7.953
 6997POPC   C4A27450  40.818  36.108   7.653
 6997POPC   C1B27451  40.885  36.327   8.553
 6997POPC   C2B27452  40.942  36.303   8.253
 6997POPC   C3B27453  40.931  36.343   7.953
 6997POPC   C4B27454  40.920  36.355   7.653
 6998POPC   NC327455   2.747  12.837   9.453
 6998POPC   PO427456   2.765  12.834   9.153
 6998POPC   GL127457   2.788  12.896   8.853
 6998POPC   GL227458   2.789  12.727   8.853
 6998POPC   C1A27459   2.793  12.882   8.553
 6998POPC   D2A27460   2.733  12.863   8.253
 6998POPC   C3A27461   2.764  12.806   7.953
 6998POPC   C4A27462   2.781  12.890   7.653
 6998POPC   C1B27463   2.870  12.666   8.553
 6998POPC   C2B27464   2.867  12.605   8.253
 6998POPC   C3B27465   2.893  12.602   7.953
 6998POPC   C4B27466   2.843  12.575   7.653
 6999POPC   NC327467  12.117  17.530   9.453
 6999POPC   PO427468  12.096  17.545   9.153
 6999POPC   GL127469  12.112  17.546   8.853
 6999POPC   GL227470  11.968  17.492   8.853
 6999POPC   C1A27471  12.030  17.458   8.553
 6999POPC   D2A27472  12.100  17.489   8.253
 6999POPC   C3A27473  12.126  17.547   7.953
 6999POPC   C4A27474  12.067  17.533   7.653
 6999POPC   C1B27475  11.877  17.448   8.553
 6999POPC   C2B27476  11.811  17.416   8.253
 6999POPC   C3B27477  11.879  17.454   7.953
 6999POPC   C4B27478  11.800  17.456   7.653
 7000POPC   NC327479  10.570   9.718   9.453
 7000POPC   PO427480  10.474   9.779   9.153
 7000POPC   GL127481  10.542   9.761   8.853
 7000POPC   GL227482  10.655   9.682   8.853
 7000POPC   C1A27483  10.530   9.752   8.553
 7000POPC   D2A27484  10.518   9.704   8.253
 7000POPC   C3A27485  10.557   9.723   7.953
 7000POPC   C4A27486  10.497   9.777   7.653
 7000POPC   C1B27487  10.757   9.580   8.553
 7000POPC   C2B27488  10.723   9.604   8.253
 7000POPC   C3B27489  10.706   9.580   7.953
 7000POPC   C4B27490  10.752   9.563   7.653
 7001POPC   NC327491   3.536   5.860   9.453
 7001POPC   PO427492   3.554   5.874   9.153
 7001POPC   GL127493   3.497   5.843   8.853
 7001POPC   GL227494   3.475   5.774   8.853
 7001POPC   C1A27495   3.533   5.862   8.553
 7001POPC   D2A27496   3.498   5.854   8.253
 7001POPC   C3A27497   3.508   5.849   7.953
 7001POPC   C4A27498   3.497   5.831   7.653
 7001POPC   C1B27499   3.401   5.675   8.553
 7001POPC   C2B27500   3.455   5.633   8.253
 7001POPC   C3B27501   3.423   5.610   7.953
 7001POPC   C4B27502   3.450   5.615   7.653
 7002POPC   NC327503   4.350   9.003   9.453
 7002POPC   PO427504   4.317   8.936   9.153
 7002POPC   GL127505   4.335   8.932   8.853
 7002POPC   GL227506   4.389   8.854   8.853
 7002POPC   C1A27507   4.363   8.965   8.553
 7002POPC   D2A27508   4.316   8.976   8.253
 7002POPC   C3A27509   4.286   8.966   7.953
 7002POPC   C4A27510   4.271   8.999   7.653
 7002POPC   C1B27511   4.426   8.788   8.553
 7002POPC   C2B27512   4.464   8.768   8.253
 7002POPC   C3B27513   4.504   8.722   7.953
 7002POPC   C4B27514   4.448   8.761   7.653
 7003POPC   NC327515   7.468  23.698   9.453
 7003POPC   PO427516   7.456  23.699   9.153
 7003POPC   GL127517   7.434  23.687   8.853
 7003POPC   GL227518   7.389  23.824   8.853
 7003POPC   C1A27519   7.379  23.689   8.553
 7003POPC   D2A27520   7.398  23.763   8.253
 7003POPC   C3A27521   7.372  23.731   7.953
 7003POPC   C4A27522   7.422  23.759   7.653
 7003POPC   C1B27523   7.473  23.982   8.553
 7003POPC   C2B27524   7.476  23.938   8.253
 7003POPC   C3B27525   7.483  23.932   7.953
 7003POPC   C4B27526   7.458  23.994   7.653
 7004POPC   NC327527   2.027  43.904   9.453
 7004POPC   PO427528   1.952  43.922   9.153
 7004POPC   GL127529   1.970  43.860   8.853
 7004POPC   GL227530   1.903  44.012   8.853
 7004POPC   C1A27531   1.950  43.884   8.553
 7004POPC   D2A27532   2.007  43.921   8.253
 7004POPC   C3A27533   2.030  43.882   7.953
 7004POPC   C4A27534   1.959  43.927   7.653
 7004POPC   C1B27535   1.907  44.093   8.553
 7004POPC   C2B27536   1.893  44.096   8.253
 7004POPC   C3B27537   1.867  44.091   7.953
 7004POPC   C4B27538   1.858  44.131   7.653
 7005POPC   NC327539  22.955  23.745   9.453
 7005POPC   PO427540  22.958  23.697   9.153
 7005POPC   GL127541  22.985  23.698   8.853
 7005POPC   GL227542  22.841  23.832   8.853
 7005POPC   C1A27543  22.918  23.719   8.553
 7005POPC   D2A27544  22.892  23.754   8.253
 7005POPC   C3A27545  22.911  23.691   7.953
 7005POPC   C4A27546  22.905  23.743   7.653
 7005POPC   C1B27547  22.696  23.849   8.553
 7005POPC   C2B27548  22.729  23.865   8.253
 7005POPC   C3B27549  22.763  23.870   7.953
 7005POPC   C4B27550  22.694  23.881   7.653
 7006POPC   NC327551  42.356   8.197   9.453
 7006POPC   PO427552  42.313   8.170   9.153
 7006POPC   GL127553  42.344   8.220   8.853
 7006POPC   GL227554  42.386   8.106   8.853
 7006POPC   C1A27555  42.312   8.197   8.553
 7006POPC   D2A27556  42.305   8.232   8.253
 7006POPC   C3A27557  42.351   8.191   7.953
 7006POPC   C4A27558  42.377   8.234   7.653
 7006POPC   C1B27559  42.398   7.961   8.553
 7006POPC   C2B27560  42.375   7.981   8.253
 7006POPC   C3B27561  42.409   7.958   7.953
 7006POPC   C4B27562  42.435   7.997   7.653
 7007POPC   NC327563  19.836  12.063   9.453
 7007POPC   PO427564  19.814  12.037   9.153
 7007POPC   GL127565  19.874  12.086   8.853
 7007POPC   GL227566  19.760  12.069   8.853
 7007POPC   C1A27567  19.884  12.053   8.553
 7007POPC   D2A27568  19.866  12.052   8.253
 7007POPC   C3A27569  19.854  12.124   7.953
 7007POPC   C4A27570  19.820  12.092   7.653
 7007POPC   C1B27571  19.607  11.994   8.553
 7007POPC   C2B27572  19.628  11.987   8.253
 7007POPC   C3B27573  19.587  12.022   7.953
 7007POPC   C4B27574  19.601  12.006   7.653
 7008POPC   NC327575   1.193  35.395   9.453
 7008POPC   PO427576   1.199  35.397   9.153
 7008POPC   GL127577   1.202  35.328   8.853
 7008POPC   GL227578   1.346  35.467   8.853
 7008POPC   C1A27579   1.251  35.375   8.553
 7008POPC   D2A27580   1.257  35.382   8.253
 7008POPC   C3A27581   1.180  35.343   7.953
 7008POPC   C4A27582   1.185  35.326   7.653
 7008POPC   C1B27583   1.389  35.484   8.553
 7008POPC   C2B27584   1.409  35.567   8.253
 7008POPC   C3B27585   1.366  35.530   7.953
 7008POPC   C4B27586   1.406  35.515   7.653
 7009POPC   NC327587  38.462  22.917   9.453
 7009POPC   PO427588  38.444  22.932   9.153
 7009POPC   GL127589  38.431  22.946   8.853
 7009POPC   GL227590  38.389  23.081   8.853
 7009POPC   C1A27591  38.462  22.935   8.553
 7009POPC   D2A27592  38.456  22.897   8.253
 7009POPC   C3A27593  38.442  22.949   7.953
 7009POPC   C4A27594  38.419  22.890   7.653
 7009POPC   C1B27595  38.316  23.105   8.553
 7009POPC   C2B27596  38.249  23.152   8.253
 7009POPC   C3B27597  38.263  23.083   7.953
 7009POPC   C4B27598  38.277  23.145   7.653
 7010POPC   NC327599  11.261   6.649   9.453
 7010POPC   PO427600  11.265   6.611   9.153
 7010POPC   GL127601  11.310   6.650   8.853
 7010POPC   GL227602  11.360   6.551   8.853
 7010POPC   C1A27603  11.331   6.646   8.553
 7010POPC   D2A27604  11.283   6.684   8.253
 7010POPC   C3A27605  11.315   6.617   7.953
 7010POPC   C4A27606  11.260   6.669   7.653
 7010POPC   C1B27607  11.368   6.385   8.553
 7010POPC   C2B27608  11.422   6.412   8.253
 7010POPC   C3B27609  11.403   6.386   7.953
 7010POPC   C4B27610  11.385   6.402   7.653
 7011POPC   NC327611  27.583   2.800   9.453
 7011POPC   PO427612  27.587   2.793   9.153
 7011POPC   GL127613  27.578   2.779   8.853
 7011POPC   GL227614  27.522   2.705   8.853
 7011POPC   C1A27615  27.596   2.790   8.553
 7011POPC   D2A27616  27.561   2.745   8.253
 7011POPC   C3A27617  27.636   2.720   7.953
 7011POPC   C4A27618  27.586   2.733   7.653
 7011POPC   C1B27619  27.431   2.568   8.553
 7011POPC   C2B27620  27.445   2.654   8.253
 7011POPC   C3B27621  27.367   2.623   7.953
 7011POPC   C4B27622  27.382   2.618   7.653
 7012POPC   NC327623  34.580  17.543   9.453
 7012POPC   PO427624  34.564  17.491   9.153
 7012POPC   GL127625  34.549  17.516   8.853
 7012POPC   GL227626  34.496  17.570   8.853
 7012POPC   C1A27627  34.611  17.544   8.553
 7012POPC   D2A27628  34.602  17.528   8.253
 7012POPC   C3A27629  34.592  17.495   7.953
 7012POPC   C4A27630  34.600  17.484   7.653
 7012POPC   C1B27631  34.406  17.727   8.553
 7012POPC   C2B27632  34.470  17.770   8.253
 7012POPC   C3B27633  34.453  17.692   7.953
 7012POPC   C4B27634  34.430  17.700   7.653
 7013POPC   NC327635  40.818  26.798   9.453
 7013POPC   PO427636  40.798  26.785   9.153
 7013POPC   GL127637  40.742  26.837   8.853
 7013POPC   GL227638  40.646  26.801   8.853
 7013POPC   C1A27639  40.780  26.839   8.553
 7013POPC   D2A27640  40.745  26.806   8.253
 7013POPC   C3A27641  40.791  26.864   7.953
 7013POPC   C4A27642  40.746  26.777   7.653
 7013POPC   C1B27643  40.505  26.730   8.553
 7013POPC   C2B27644  40.493  26.720   8.253
 7013POPC   C3B27645  40.504  26.757   7.953
 7013POPC   C4B27646  40.577  26.720   7.653
 7014POPC   NC327647  30.719   2.795   9.453
 7014POPC   PO427648  30.700   2.803   9.153
 7014POPC   GL127649  30.674   2.719   8.853
 7014POPC   GL227650  30.595   2.716   8.853
 7014POPC   C1A27651  30.648   2.794   8.553
 7014POPC   D2A27652  30.652   2.732   8.253
 7014POPC   C3A27653  30.744   2.800   7.953
 7014POPC   C4A27654  30.734   2.779   7.653
 7014POPC   C1B27655  30.507   2.700   8.553
 7014POPC   C2B27656  30.439   2.645   8.253
 7014POPC   C3B27657  30.460   2.700   7.953
 7014POPC   C4B27658  30.413   2.686   7.653
 7015POPC   NC327659  18.314  43.850   9.453
 7015POPC   PO427660  18.309  43.892   9.153
 7015POPC   GL127661  18.240  43.890   8.853
 7015POPC   GL227662  18.354  43.765   8.853
 7015POPC   C1A27663  18.259  43.846   8.553
 7015POPC   D2A27664  18.282  43.849   8.253
 7015POPC   C3A27665  18.329  43.888   7.953
 7015POPC   C4A27666  18.295  43.858   7.653
 7015POPC   C1B27667  18.520  43.697   8.553
 7015POPC   C2B27668  18.459  43.723   8.253
 7015POPC   C3B27669  18.488  43.687   7.953
 7015POPC   C4B27670  18.436  43.716   7.653
 7016POPC   NC327671  36.894   4.347   9.453
 7016POPC   PO427672  36.884   4.312   9.153
 7016POPC   GL127673  36.882   4.324   8.853
 7016POPC   GL227674  36.888   4.396   8.853
 7016POPC   C1A27675  36.870   4.305   8.553
 7016POPC   D2A27676  36.892   4.361   8.253
 7016POPC   C3A27677  36.912   4.361   7.953
 7016POPC   C4A27678  36.906   4.367   7.653
 7016POPC   C1B27679  36.818   4.526   8.553
 7016POPC   C2B27680  36.786   4.548   8.253
 7016POPC   C3B27681  36.851   4.518   7.953
 7016POPC   C4B27682  36.812   4.564   7.653
 7017POPC   NC327683  31.466   3.494   9.453
 7017POPC   PO427684  31.454   3.551   9.153
 7017POPC   GL127685  31.472   3.586   8.853
 7017POPC   GL227686  31.327   3.586   8.853
 7017POPC   C1A27687  31.462   3.555   8.553
 7017POPC   D2A27688  31.452   3.547   8.253
 7017POPC   C3A27689  31.465   3.582   7.953
 7017POPC   C4A27690  31.518   3.550   7.653
 7017POPC   C1B27691  31.233   3.594   8.553
 7017POPC   C2B27692  31.249   3.568   8.253
 7017POPC   C3B27693  31.255   3.624   7.953
 7017POPC   C4B27694  31.188   3.608   7.653
 7018POPC   NC327695  11.288  30.686   9.453
 7018POPC   PO427696  11.296  30.668   9.153
 7018POPC   GL127697  11.320  30.662   8.853
 7018POPC   GL227698  11.358  30.756   8.853
 7018POPC   C1A27699  11.338  30.686   8.553
 7018POPC   D2A27700  11.263  30.677   8.253
 7018POPC   C3A27701  11.328  30.717   7.953
 7018POPC   C4A27702  11.318  30.735   7.653
 7018POPC   C1B27703  11.464  30.906   8.553
 7018POPC   C2B27704  11.439  30.938   8.253
 7018POPC   C3B27705  11.445  30.891   7.953
 7018POPC   C4B27706  11.436  30.941   7.653
 7019POPC   NC327707   4.300  37.682   9.453
 7019POPC   PO427708   4.349  37.707   9.153
 7019POPC   GL127709   4.293  37.714   8.853
 7019POPC   GL227710   4.408  37.596   8.853
 7019POPC   C1A27711   4.345  37.700   8.553
 7019POPC   D2A27712   4.339  37.679   8.253
 7019POPC   C3A27713   4.330  37.703   7.953
 7019POPC   C4A27714   4.271  37.636   7.653
 7019POPC   C1B27715   4.483  37.510   8.553
 7019POPC   C2B27716   4.486  37.508   8.253
 7019POPC   C3B27717   4.476  37.460   7.953
 7019POPC   C4B27718   4.465  37.469   7.653
 7020POPC   NC327719  13.637   9.016   9.453
 7020POPC   PO427720  13.603   8.979   9.153
 7020POPC   GL127721  13.639   8.947   8.853
 7020POPC   GL227722  13.670   9.049   8.853
 7020POPC   C1A27723  13.668   8.984   8.553
 7020POPC   D2A27724  13.608   8.940   8.253
 7020POPC   C3A27725  13.666   8.975   7.953
 7020POPC   C4A27726  13.580   8.985   7.653
 7020POPC   C1B27727  13.644   9.214   8.553
 7020POPC   C2B27728  13.672   9.216   8.253
 7020POPC   C3B27729  13.626   9.204   7.953
 7020POPC   C4B27730  13.684   9.210   7.653
 7021POPC   NC327731  28.389  43.116   9.453
 7021POPC   PO427732  28.415  43.106   9.153
 7021POPC   GL127733  28.395  43.141   8.853
 7021POPC   GL227734  28.484  43.046   8.853
 7021POPC   C1A27735  28.416  43.089   8.553
 7021POPC   D2A27736  28.338  43.103   8.253
 7021POPC   C3A27737  28.352  43.120   7.953
 7021POPC   C4A27738  28.360  43.151   7.653
 7021POPC   C1B27739  28.600  43.078   8.553
 7021POPC   C2B27740  28.573  43.019   8.253
 7021POPC   C3B27741  28.612  43.013   7.953
 7021POPC   C4B27742  28.566  42.991   7.653
 7022POPC   NC327743  29.101  25.253   9.453
 7022POPC   PO427744  29.165  25.314   9.153
 7022POPC   GL127745  29.136  25.226   8.853
 7022POPC   GL227746  29.301  25.273   8.853
 7022POPC   C1A27747  29.143  25.243   8.553
 7022POPC   D2A27748  29.157  25.288   8.253
 7022POPC   C3A27749  29.114  25.272   7.953
 7022POPC   C4A27750  29.160  25.291   7.653
 7022POPC   C1B27751  29.354  25.297   8.553
 7022POPC   C2B27752  29.387  25.290   8.253
 7022POPC   C3B27753  29.438  25.322   7.953
 7022POPC   C4B27754  29.400  25.329   7.653
 7023POPC   NC327755  25.259   6.649   9.453
 7023POPC   PO427756  25.279   6.651   9.153
 7023POPC   GL127757  25.226   6.639   8.853
 7023POPC   GL227758  25.277   6.785   8.853
 7023POPC   C1A27759  25.292   6.665   8.553
 7023POPC   D2A27760  25.252   6.599   8.253
 7023POPC   C3A27761  25.269   6.608   7.953
 7023POPC   C4A27762  25.235   6.628   7.653
 7023POPC   C1B27763  25.160   6.898   8.553
 7023POPC   C2B27764  25.176   6.903   8.253
 7023POPC   C3B27765  25.187   6.932   7.953
 7023POPC   C4B27766  25.170   6.929   7.653
 7024POPC   NC327767   5.820  36.934   9.453
 7024POPC   PO427768   5.868  36.916   9.153
 7024POPC   GL127769   5.845  36.860   8.853
 7024POPC   GL227770   5.728  36.831   8.853
 7024POPC   C1A27771   5.823  36.946   8.553
 7024POPC   D2A27772   5.895  36.870   8.253
 7024POPC   C3A27773   5.913  36.893   7.953
 7024POPC   C4A27774   5.852  36.920   7.653
 7024POPC   C1B27775   5.675  36.834   8.553
 7024POPC   C2B27776   5.589  36.779   8.253
 7024POPC   C3B27777   5.628  36.817   7.953
 7024POPC   C4B27778   5.616  36.771   7.653
 7025POPC   NC327779  14.427  10.525   9.453
 7025POPC   PO427780  14.424  10.572   9.153
 7025POPC   GL127781  14.382  10.501   8.853
 7025POPC   GL227782  14.269  10.557   8.853
 7025POPC   C1A27783  14.381  10.536   8.553
 7025POPC   D2A27784  14.403  10.571   8.253
 7025POPC   C3A27785  14.443  10.527   7.953
 7025POPC   C4A27786  14.434  10.568   7.653
 7025POPC   C1B27787  14.174  10.495   8.553
 7025POPC   C2B27788  14.159  10.508   8.253
 7025POPC   C3B27789  14.104  10.531   7.953
 7025POPC   C4B27790  14.115  10.499   7.653
 7026POPC   NC327791  43.144  25.285   9.453
 7026POPC   PO427792  43.082  25.219   9.153
 7026POPC   GL127793  43.117  25.272   8.853
 7026POPC   GL227794  43.059  25.159   8.853
 7026POPC   C1A27795  43.152  25.303   8.553
 7026POPC   D2A27796  43.120  25.267   8.253
 7026POPC   C3A27797  43.131  25.301   7.953
 7026POPC   C4A27798  43.072  25.259   7.653
 7026POPC   C1B27799  43.050  25.010   8.553
 7026POPC   C2B27800  43.077  25.024   8.253
 7026POPC   C3B27801  43.058  25.025   7.953
 7026POPC   C4B27802  43.098  24.983   7.653
 7027POPC   NC327803  43.134  15.983   9.453
 7027POPC   PO427804  43.112  15.973   9.153
 7027POPC   GL127805  43.071  15.936   8.853
 7027POPC   GL227806  43.189  15.941   8.853
 7027POPC   C1A27807  43.068  15.989   8.553
 7027POPC   D2A27808  43.069  16.004   8.253
 7027POPC   C3A27809  43.105  16.004   7.953
 7027POPC   C4A27810  43.150  15.999   7.653
 7027POPC   C1B27811  43.358  15.982   8.553
 7027POPC   C2B27812  43.334  16.024   8.253
 7027POPC   C3B27813  43.373  15.988   7.953
 7027POPC   C4B27814  43.401  16.019   7.653
 7028POPC   NC327815   8.151  39.214   9.453
 7028POPC   PO427816   8.205  39.221   9.153
 7028POPC   GL127817   8.155  39.268   8.853
 7028POPC   GL227818   8.236  39.360   8.853
 7028POPC   C1A27819   8.201  39.255   8.553
 7028POPC   D2A27820   8.205  39.208   8.253
 7028POPC   C3A27821   8.162  39.227   7.953
 7028POPC   C4A27822   8.173  39.204   7.653
 7028POPC   C1B27823   8.298  39.504   8.553
 7028POPC   C2B27824   8.289  39.461   8.253
 7028POPC   C3B27825   8.338  39.419   7.953
 7028POPC   C4B27826   8.290  39.477   7.653
 7029POPC   NC327827  24.449   4.305   9.453
 7029POPC   PO427828  24.516   4.360   9.153
 7029POPC   GL127829  24.521   4.325   8.853
 7029POPC   GL227830  24.515   4.178   8.853
 7029POPC   C1A27831  24.465   4.357   8.553
 7029POPC   D2A27832  24.503   4.280   8.253
 7029POPC   C3A27833  24.487   4.290   7.953
 7029POPC   C4A27834  24.460   4.321   7.653
 7029POPC   C1B27835  24.550   4.077   8.553
 7029POPC   C2B27836  24.487   4.038   8.253
 7029POPC   C3B27837  24.573   4.087   7.953
 7029POPC   C4B27838  24.520   4.055   7.653
 7030POPC   NC327839  23.725   1.991   9.453
 7030POPC   PO427840  23.676   2.017   9.153
 7030POPC   GL127841  23.744   2.005   8.853
 7030POPC   GL227842  23.712   1.815   8.853
 7030POPC   C1A27843  23.695   2.013   8.553
 7030POPC   D2A27844  23.753   2.002   8.253
 7030POPC   C3A27845  23.705   1.968   7.953
 7030POPC   C4A27846  23.676   2.031   7.653
 7030POPC   C1B27847  23.751   1.760   8.553
 7030POPC   C2B27848  23.706   1.712   8.253
 7030POPC   C3B27849  23.684   1.716   7.953
 7030POPC   C4B27850  23.660   1.789   7.653
 7031POPC   NC327851  15.948  11.306   9.453
 7031POPC   PO427852  15.985  11.332   9.153
 7031POPC   GL127853  15.932  11.253   8.853
 7031POPC   GL227854  15.915  11.406   8.853
 7031POPC   C1A27855  15.963  11.315   8.553
 7031POPC   D2A27856  15.978  11.320   8.253
 7031POPC   C3A27857  15.992  11.278   7.953
 7031POPC   C4A27858  15.923  11.276   7.653
 7031POPC   C1B27859  15.852  11.557   8.553
 7031POPC   C2B27860  15.907  11.500   8.253
 7031POPC   C3B27861  15.904  11.511   7.953
 7031POPC   C4B27862  15.856  11.508   7.653
 7032POPC   NC327863   7.463  28.328   9.453
 7032POPC   PO427864   7.405  28.324   9.153
 7032POPC   GL127865   7.429  28.410   8.853
 7032POPC   GL227866   7.364  28.504   8.853
 7032POPC   C1A27867   7.425  28.410   8.553
 7032POPC   D2A27868   7.457  28.388   8.253
 7032POPC   C3A27869   7.430  28.370   7.953
 7032POPC   C4A27870   7.374  28.361   7.653
 7032POPC   C1B27871   7.385  28.625   8.553
 7032POPC   C2B27872   7.393  28.657   8.253
 7032POPC   C3B27873   7.355  28.637   7.953
 7032POPC   C4B27874   7.403  28.572   7.653
 7033POPC   NC327875   9.769  37.718   9.453
 7033POPC   PO427876   9.777  37.728   9.153
 7033POPC   GL127877   9.780  37.691   8.853
 7033POPC   GL227878   9.631  37.730   8.853
 7033POPC   C1A27879   9.768  37.724   8.553
 7033POPC   D2A27880   9.730  37.654   8.253
 7033POPC   C3A27881   9.730  37.698   7.953
 7033POPC   C4A27882   9.713  37.682   7.653
 7033POPC   C1B27883   9.511  37.860   8.553
 7033POPC   C2B27884   9.574  37.812   8.253
 7033POPC   C3B27885   9.551  37.891   7.953
 7033POPC   C4B27886   9.587  37.863   7.653
 7034POPC   NC327887  36.930   6.616   9.453
 7034POPC   PO427888  36.864   6.651   9.153
 7034POPC   GL127889  36.862   6.685   8.853
 7034POPC   GL227890  36.981   6.653   8.853
 7034POPC   C1A27891  36.889   6.632   8.553
 7034POPC   D2A27892  36.867   6.602   8.253
 7034POPC   C3A27893  36.907   6.666   7.953
 7034POPC   C4A27894  36.886   6.599   7.653
 7034POPC   C1B27895  37.175   6.701   8.553
 7034POPC   C2B27896  37.128   6.670   8.253
 7034POPC   C3B27897  37.118   6.701   7.953
 7034POPC   C4B27898  37.152   6.647   7.653
 7035POPC   NC327899  43.926  18.238   9.453
 7035POPC   PO427900  43.890  18.260   9.153
 7035POPC   GL127901  43.875  18.323   8.853
 7035POPC   GL227902  43.951  18.144   8.853
 7035POPC   C1A27903  43.848  18.298   8.553
 7035POPC   D2A27904  43.881  18.256   8.253
 7035POPC   C3A27905  43.847  18.302   7.953
 7035POPC   C4A27906  43.849  18.316   7.653
 7035POPC   C1B27907  43.985  18.079   8.553
 7035POPC   C2B27908  43.988  18.092   8.253
 7035POPC   C3B27909  44.026  18.028   7.953
 7035POPC   C4B27910  43.997  18.083   7.653
 7036POPC   NC327911  19.881  14.432   9.453
 7036POPC   PO427912  19.861  14.420   9.153
 7036POPC   GL127913  19.790  14.414   8.853
 7036POPC   GL227914  19.846  14.285   8.853
 7036POPC   C1A27915  19.871  14.355   8.553
 7036POPC   D2A27916  19.830  14.388   8.253
 7036POPC   C3A27917  19.832  14.436   7.953
 7036POPC   C4A27918  19.806  14.412   7.653
 7036POPC   C1B27919  19.844  14.195   8.553
 7036POPC   C2B27920  19.862  14.146   8.253
 7036POPC   C3B27921  19.832  14.133   7.953
 7036POPC   C4B27922  19.861  14.118   7.653
 7037POPC   NC327923  40.795  21.375   9.453
 7037POPC   PO427924  40.833  21.405   9.153
 7037POPC   GL127925  40.772  21.378   8.853
 7037POPC   GL227926  40.921  21.361   8.853
 7037POPC   C1A27927  40.745  21.364   8.553
 7037POPC   D2A27928  40.766  21.336   8.253
 7037POPC   C3A27929  40.790  21.409   7.953
 7037POPC   C4A27930  40.803  21.411   7.653
 7037POPC   C1B27931  41.037  21.355   8.553
 7037POPC   C2B27932  41.028  21.326   8.253
 7037POPC   C3B27933  41.032  21.372   7.953
 7037POPC   C4B27934  41.053  21.353   7.653
 7038POPC   NC327935  43.873   1.183   9.453
 7038POPC   PO427936  43.917   1.222   9.153
 7038POPC   GL127937  43.927   1.243   8.853
 7038POPC   GL227938  44.017   1.299   8.853
 7038POPC   C1A27939  43.911   1.223   8.553
 7038POPC   D2A27940  43.867   1.253   8.253
 7038POPC   C3A27941  43.866   1.195   7.953
 7038POPC   C4A27942  43.897   1.245   7.653
 7038POPC   C1B27943  44.115   1.296   8.553
 7038POPC   C2B27944  44.076   1.274   8.253
 7038POPC   C3B27945  44.105   1.281   7.953
 7038POPC   C4B27946  44.133   1.344   7.653
 7039POPC   NC327947   8.177  22.945   9.453
 7039POPC   PO427948   8.201  22.969   9.153
 7039POPC   GL127949   8.150  22.892   8.853
 7039POPC   GL227950   8.168  22.860   8.853
 7039POPC   C1A27951   8.180  22.952   8.553
 7039POPC   D2A27952   8.231  22.987   8.253
 7039POPC   C3A27953   8.237  22.919   7.953
 7039POPC   C4A27954   8.164  22.902   7.653
 7039POPC   C1B27955   8.122  22.697   8.553
 7039POPC   C2B27956   8.057  22.681   8.253
 7039POPC   C3B27957   8.069  22.762   7.953
 7039POPC   C4B27958   8.044  22.751   7.653
 7040POPC   NC327959  29.139  13.674   9.453
 7040POPC   PO427960  29.175  13.582   9.153
 7040POPC   GL127961  29.111  13.661   8.853
 7040POPC   GL227962  29.027  13.562   8.853
 7040POPC   C1A27963  29.192  13.613   8.553
 7040POPC   D2A27964  29.185  13.646   8.253
 7040POPC   C3A27965  29.110  13.622   7.953
 7040POPC   C4A27966  29.180  13.641   7.653
 7040POPC   C1B27967  28.969  13.483   8.553
 7040POPC   C2B27968  28.917  13.446   8.253
 7040POPC   C3B27969  28.900  13.485   7.953
 7040POPC   C4B27970  28.904  13.508   7.653
 7041POPC   NC327971  19.851  28.411   9.453
 7041POPC   PO427972  19.856  28.319   9.153
 7041POPC   GL127973  19.879  28.411   8.853
 7041POPC   GL227974  19.746  28.496   8.853
 7041POPC   C1A27975  19.806  28.342   8.553
 7041POPC   D2A27976  19.785  28.338   8.253
 7041POPC   C3A27977  19.843  28.404   7.953
 7041POPC   C4A27978  19.806  28.386   7.653
 7041POPC   C1B27979  19.700  28.582   8.553
 7041POPC   C2B27980  19.680  28.570   8.253
 7041POPC   C3B27981  19.721  28.583   7.953
 7041POPC   C4B27982  19.722  28.545   7.653
 7042POPC   NC327983  26.864  12.838   9.453
 7042POPC   PO427984  26.831  12.851   9.153
 7042POPC   GL127985  26.797  12.827   8.853
 7042POPC   GL227986  26.671  12.848   8.853
 7042POPC   C1A27987  26.825  12.843   8.553
 7042POPC   D2A27988  26.864  12.891   8.253
 7042POPC   C3A27989  26.863  12.879   7.953
 7042POPC   C4A27990  26.834  12.880   7.653
 7042POPC   C1B27991  26.533  12.816   8.553
 7042POPC   C2B27992  26.541  12.791   8.253
 7042POPC   C3B27993  26.573  12.861   7.953
 7042POPC   C4B27994  26.584  12.849   7.653
 7043POPC   NC327995   5.853   8.242   9.453
 7043POPC   PO427996   5.888   8.168   9.153
 7043POPC   GL127997   5.863   8.211   8.853
 7043POPC   GL227998   5.826   8.320   8.853
 7043POPC   C1A27999   5.878   8.223   8.553
 7043POPC   D2A28000   5.867   8.176   8.253
 7043POPC   C3A28001   5.895   8.214   7.953
 7043POPC   C4A28002   5.848   8.218   7.653
 7043POPC   C1B28003   5.808   8.432   8.553
 7043POPC   C2B28004   5.858   8.407   8.253
 7043POPC   C3B28005   5.830   8.423   7.953
 7043POPC   C4B28006   5.827   8.410   7.653
 7044POPC   NC328007  12.091   6.612   9.453
 7044POPC   PO428008  12.027   6.614   9.153
 7044POPC   GL128009  12.055   6.692   8.853
 7044POPC   GL228010  12.095   6.772   8.853
 7044POPC   C1A28011  12.027   6.619   8.553
 7044POPC   D2A28012  12.084   6.605   8.253
 7044POPC   C3A28013  12.077   6.674   7.953
 7044POPC   C4A28014  12.063   6.664   7.653
 7044POPC   C1B28015  12.059   6.886   8.553
 7044POPC   C2B28016  12.055   6.884   8.253
 7044POPC   C3B28017  12.104   6.889   7.953
 7044POPC   C4B28018  12.143   6.868   7.653
 7045POPC   NC328019  29.890  12.050   9.453
 7045POPC   PO428020  29.903  12.091   9.153
 7045POPC   GL128021  29.927  12.107   8.853
 7045POPC   GL228022  29.842  12.091   8.853
 7045POPC   C1A28023  29.957  12.068   8.553
 7045POPC   D2A28024  29.928  12.096   8.253
 7045POPC   C3A28025  29.906  12.089   7.953
 7045POPC   C4A28026  29.906  12.059   7.653
 7045POPC   C1B28027  29.719  12.115   8.553
 7045POPC   C2B28028  29.710  12.134   8.253
 7045POPC   C3B28029  29.700  12.064   7.953
 7045POPC   C4B28030  29.640  12.093   7.653
 7046POPC   NC328031  29.127  44.697   9.453
 7046POPC   PO428032  29.126  44.666   9.153
 7046POPC   GL128033  29.141  44.656   8.853
 7046POPC   GL228034  29.137  44.818   8.853
 7046POPC   C1A28035  29.157  44.707   8.553
 7046POPC   D2A28036  29.142  44.710   8.253
 7046POPC   C3A28037  29.171  44.622   7.953
 7046POPC   C4A28038  29.135  44.616   7.653
 7046POPC   C1B28039  29.225  44.941   8.553
 7046POPC   C2B28040  29.171  44.866   8.253
 7046POPC   C3B28041  29.161  44.886   7.953
 7046POPC   C4B28042  29.236  44.921   7.653
 7047POPC   NC328043  43.907  40.748   9.453
 7047POPC   PO428044  43.878  40.753   9.153
 7047POPC   GL128045  43.875  40.788   8.853
 7047POPC   GL228046  43.876  40.634   8.853
 7047POPC   C1A28047  43.908  40.755   8.553
 7047POPC   D2A28048  43.934  40.806   8.253
 7047POPC   C3A28049  43.852  40.824   7.953
 7047POPC   C4A28050  43.913  40.770   7.653
 7047POPC   C1B28051  43.928  40.578   8.553
 7047POPC   C2B28052  44.005  40.519   8.253
 7047POPC   C3B28053  43.929  40.518   7.953
 7047POPC   C4B28054  43.913  40.592   7.653
 7048POPC   NC328055  38.446   0.486   9.453
 7048POPC   PO428056  38.421   0.427   9.153
 7048POPC   GL128057  38.501   0.417   8.853
 7048POPC   GL228058  38.308   0.456   8.853
 7048POPC   C1A28059  38.482   0.396   8.553
 7048POPC   D2A28060  38.414   0.451   8.253
 7048POPC   C3A28061  38.494   0.426   7.953
 7048POPC   C4A28062  38.437   0.393   7.653
 7048POPC   C1B28063  38.195   0.492   8.553
 7048POPC   C2B28064  38.203   0.487   8.253
 7048POPC   C3B28065  38.177   0.500   7.953
 7048POPC   C4B28066  38.204   0.491   7.653
 7049POPC   NC328067   0.458   2.813   9.453
 7049POPC   PO428068   0.464   2.767   9.153
 7049POPC   GL128069   0.426   2.807   8.853
 7049POPC   GL228070   0.528   2.756   8.853
 7049POPC   C1A28071   0.429   2.779   8.553
 7049POPC   D2A28072   0.461   2.813   8.253
 7049POPC   C3A28073   0.471   2.763   7.953
 7049POPC   C4A28074   0.432   2.756   7.653
 7049POPC   C1B28075   0.676   2.831   8.553
 7049POPC   C2B28076   0.641   2.794   8.253
 7049POPC   C3B28077   0.722   2.820   7.953
 7049POPC   C4B28078   0.694   2.800   7.653
 7050POPC   NC328079  21.351  15.944   9.453
 7050POPC   PO428080  21.400  15.937   9.153
 7050POPC   GL128081  21.352  15.954   8.853
 7050POPC   GL228082  21.310  15.807   8.853
 7050POPC   C1A28083  21.398  15.957   8.553
 7050POPC   D2A28084  21.348  15.954   8.253
 7050POPC   C3A28085  21.341  15.940   7.953
 7050POPC   C4A28086  21.340  15.910   7.653
 7050POPC   C1B28087  21.312  15.717   8.553
 7050POPC   C2B28088  21.290  15.677   8.253
 7050POPC   C3B28089  21.269  15.728   7.953
 7050POPC   C4B28090  21.307  15.682   7.653
 7051POPC   NC328091  32.213  12.048   9.453
 7051POPC   PO428092  32.281  12.029   9.153
 7051POPC   GL128093  32.291  12.084   8.853
 7051POPC   GL228094  32.199  12.142   8.853
 7051POPC   C1A28095  32.272  12.108   8.553
 7051POPC   D2A28096  32.262  12.118   8.253
 7051POPC   C3A28097  32.266  12.051   7.953
 7051POPC   C4A28098  32.270  12.056   7.653
 7051POPC   C1B28099  32.065  12.286   8.553
 7051POPC   C2B28100  32.063  12.301   8.253
 7051POPC   C3B28101  32.052  12.267   7.953
 7051POPC   C4B28102  32.089  12.218   7.653
 7052POPC   NC328103   8.165   4.273   9.453
 7052POPC   PO428104   8.192   4.292   9.153
 7052POPC   GL128105   8.185   4.330   8.853
 7052POPC   GL228106   8.246   4.204   8.853
 7052POPC   C1A28107   8.157   4.291   8.553
 7052POPC   D2A28108   8.215   4.286   8.253
 7052POPC   C3A28109   8.187   4.361   7.953
 7052POPC   C4A28110   8.167   4.303   7.653
 7052POPC   C1B28111   8.249   4.106   8.553
 7052POPC   C2B28112   8.248   4.049   8.253
 7052POPC   C3B28113   8.231   4.025   7.953
 7052POPC   C4B28114   8.270   4.059   7.653
 7053POPC   NC328115  33.798  35.378   9.453
 7053POPC   PO428116  33.786  35.361   9.153
 7053POPC   GL128117  33.849  35.365   8.853
 7053POPC   GL228118  33.880  35.445   8.853
 7053POPC   C1A28119  33.763  35.346   8.553
 7053POPC   D2A28120  33.782  35.340   8.253
 7053POPC   C3A28121  33.790  35.326   7.953
 7053POPC   C4A28122  33.784  35.389   7.653
 7053POPC   C1B28123  33.958  35.470   8.553
 7053POPC   C2B28124  34.026  35.513   8.253
 7053POPC   C3B28125  34.005  35.548   7.953
 7053POPC   C4B28126  34.022  35.480   7.653
 7054POPC   NC328127   3.527  12.818   9.453
 7054POPC   PO428128   3.549  12.840   9.153
 7054POPC   GL128129   3.531  12.805   8.853
 7054POPC   GL228130   3.450  12.981   8.853
 7054POPC   C1A28131   3.529  12.874   8.553
 7054POPC   D2A28132   3.556  12.855   8.253
 7054POPC   C3A28133   3.575  12.898   7.953
 7054POPC   C4A28134   3.501  12.834   7.653
 7054POPC   C1B28135   3.367  13.083   8.553
 7054POPC   C2B28136   3.412  13.115   8.253
 7054POPC   C3B28137   3.398  13.065   7.953
 7054POPC   C4B28138   3.446  13.080   7.653
 7055POPC   NC328139   8.218   1.171   9.453
 7055POPC   PO428140   8.194   1.216   9.153
 7055POPC   GL128141   8.151   1.243   8.853
 7055POPC   GL228142   8.229   1.130   8.853
 7055POPC   C1A28143   8.216   1.256   8.553
 7055POPC   D2A28144   8.149   1.186   8.253
 7055POPC   C3A28145   8.200   1.260   7.953
 7055POPC   C4A28146   8.174   1.184   7.653
 7055POPC   C1B28147   8.199   0.935   8.553
 7055POPC   C2B28148   8.226   0.969   8.253
 7055POPC   C3B28149   8.203   1.005   7.953
 7055POPC   C4B28150   8.199   0.969   7.653
 7056POPC   NC328151  27.640   0.434   9.453
 7056POPC   PO428152  27.593   0.395   9.153
 7056POPC   GL128153  27.581   0.393   8.853
 7056POPC   GL228154  27.667   0.361   8.853
 7056POPC   C1A28155  27.560   0.419   8.553
 7056POPC   D2A28156  27.573   0.407   8.253
 7056POPC   C3A28157  27.548   0.461   7.953
 7056POPC   C4A28158  27.579   0.418   7.653
 7056POPC   C1B28159  27.749   0.298   8.553
 7056POPC   C2B28160  27.736   0.221   8.253
 7056POPC   C3B28161  27.796   0.257   7.953
 7056POPC   C4B28162  27.782   0.236   7.653
 7057POPC   NC328163  33.835   4.363   9.453
 7057POPC   PO428164  33.822   4.287   9.153
 7057POPC   GL128165  33.822   4.345   8.853
 7057POPC   GL228166  33.852   4.205   8.853
 7057POPC   C1A28167  33.790   4.297   8.553
 7057POPC   D2A28168  33.824   4.300   8.253
 7057POPC   C3A28169  33.770   4.354   7.953
 7057POPC   C4A28170  33.837   4.313   7.653
 7057POPC   C1B28171  33.855   4.055   8.553
 7057POPC   C2B28172  33.873   4.115   8.253
 7057POPC   C3B28173  33.842   4.039   7.953
 7057POPC   C4B28174  33.850   4.058   7.653
 7058POPC   NC328175  36.938  24.440   9.453
 7058POPC   PO428176  36.939  24.484   9.153
 7058POPC   GL128177  36.875  24.534   8.853
 7058POPC   GL228178  36.830  24.499   8.853
 7058POPC   C1A28179  36.953  24.463   8.553
 7058POPC   D2A28180  36.865  24.465   8.253
 7058POPC   C3A28181  36.904  24.492   7.953
 7058POPC   C4A28182  36.917  24.486   7.653
 7058POPC   C1B28183  36.701  24.521   8.553
 7058POPC   C2B28184  36.664  24.522   8.253
 7058POPC   C3B28185  36.643  24.589   7.953
 7058POPC   C4B28186  36.654  24.512   7.653
 7059POPC   NC328187  15.135  43.077   9.453
 7059POPC   PO428188  15.206  43.117   9.153
 7059POPC   GL128189  15.143  43.063   8.853
 7059POPC   GL228190  15.174  43.015   8.853
 7059POPC   C1A28191  15.155  43.090   8.553
 7059POPC   D2A28192  15.224  43.063   8.253
 7059POPC   C3A28193  15.226  43.117   7.953
 7059POPC   C4A28194  15.199  43.065   7.653
 7059POPC   C1B28195  15.123  42.860   8.553
 7059POPC   C2B28196  15.042  42.839   8.253
 7059POPC   C3B28197  15.041  42.869   7.953
 7059POPC   C4B28198  15.131  42.843   7.653
 7060POPC   NC328199  14.413  18.264   9.453
 7060POPC   PO428200  14.408  18.290   9.153
 7060POPC   GL128201  14.358  18.300   8.853
 7060POPC   GL228202  14.401  18.204   8.853
 7060POPC   C1A28203  14.369  18.268   8.553
 7060POPC   D2A28204  14.445  18.238   8.253
 7060POPC   C3A28205  14.375  18.233   7.953
 7060POPC   C4A28206  14.354  18.288   7.653
 7060POPC   C1B28207  14.348  18.063   8.553
 7060POPC   C2B28208  14.317  18.014   8.253
 7060POPC   C3B28209  14.363  18.065   7.953
 7060POPC   C4B28210  14.330  18.073   7.653
 7061POPC   NC328211  24.453  34.573   9.453
 7061POPC   PO428212  24.441  34.541   9.153
 7061POPC   GL128213  24.489  34.532   8.853
 7061POPC   GL228214  24.398  34.670   8.853
 7061POPC   C1A28215  24.483  34.594   8.553
 7061POPC   D2A28216  24.496  34.595   8.253
 7061POPC   C3A28217  24.473  34.553   7.953
 7061POPC   C4A28218  24.465  34.572   7.653
 7061POPC   C1B28219  24.259  34.684   8.553
 7061POPC   C2B28220  24.255  34.676   8.253
 7061POPC   C3B28221  24.240  34.656   7.953
 7061POPC   C4B28222  24.300  34.658   7.653
 7062POPC   NC328223  30.663   2.037   9.453
 7062POPC   PO428224  30.709   2.026   9.153
 7062POPC   GL128225  30.661   1.994   8.853
 7062POPC   GL228226  30.604   1.891   8.853
 7062POPC   C1A28227  30.720   1.979   8.553
 7062POPC   D2A28228  30.726   2.036   8.253
 7062POPC   C3A28229  30.714   2.036   7.953
 7062POPC   C4A28230  30.665   1.946   7.653
 7062POPC   C1B28231  30.481   1.816   8.553
 7062POPC   C2B28232  30.533   1.812   8.253
 7062POPC   C3B28233  30.561   1.851   7.953
 7062POPC   C4B28234  30.498   1.827   7.653
 7063POPC   NC328235  16.684  27.621   9.453
 7063POPC   PO428236  16.686  27.605   9.153
 7063POPC   GL128237  16.706  27.555   8.853
 7063POPC   GL228238  16.844  27.661   8.853
 7063POPC   C1A28239  16.703  27.545   8.553
 7063POPC   D2A28240  16.716  27.585   8.253
 7063POPC   C3A28241  16.700  27.568   7.953
 7063POPC   C4A28242  16.689  27.585   7.653
 7063POPC   C1B28243  16.841  27.819   8.553
 7063POPC   C2B28244  16.812  27.786   8.253
 7063POPC   C3B28245  16.902  27.796   7.953
 7063POPC   C4B28246  16.899  27.807   7.653
 7064POPC   NC328247  40.016  10.494   9.453
 7064POPC   PO428248  40.044  10.558   9.153
 7064POPC   GL128249  39.982  10.484   8.853
 7064POPC   GL228250  40.133  10.452   8.853
 7064POPC   C1A28251  40.005  10.558   8.553
 7064POPC   D2A28252  40.042  10.489   8.253
 7064POPC   C3A28253  40.011  10.529   7.953
 7064POPC   C4A28254  39.998  10.497   7.653
 7064POPC   C1B28255  40.219  10.408   8.553
 7064POPC   C2B28256  40.283  10.408   8.253
 7064POPC   C3B28257  40.230  10.472   7.953
 7064POPC   C4B28258  40.235  10.481   7.653
 7065POPC   NC328259  27.607  26.781   9.453
 7065POPC   PO428260  27.592  26.850   9.153
 7065POPC   GL128261  27.564  26.788   8.853
 7065POPC   GL228262  27.455  26.820   8.853
 7065POPC   C1A28263  27.634  26.817   8.553
 7065POPC   D2A28264  27.586  26.855   8.253
 7065POPC   C3A28265  27.603  26.837   7.953
 7065POPC   C4A28266  27.545  26.836   7.653
 7065POPC   C1B28267  27.371  26.772   8.553
 7065POPC   C2B28268  27.374  26.765   8.253
 7065POPC   C3B28269  27.370  26.767   7.953
 7065POPC   C4B28270  27.347  26.740   7.653
 7066POPC   NC328271  19.067  16.768   9.453
 7066POPC   PO428272  19.059  16.690   9.153
 7066POPC   GL128273  19.099  16.780   8.853
 7066POPC   GL228274  18.939  16.739   8.853
 7066POPC   C1A28275  19.093  16.683   8.553
 7066POPC   D2A28276  19.039  16.737   8.253
 7066POPC   C3A28277  19.052  16.729   7.953
 7066POPC   C4A28278  19.108  16.774   7.653
 7066POPC   C1B28279  18.839  16.802   8.553
 7066POPC   C2B28280  18.867  16.781   8.253
 7066POPC   C3B28281  18.791  16.824   7.953
 7066POPC   C4B28282  18.839  16.790   7.653
 7067POPC   NC328283   1.171  42.318   9.453
 7067POPC   PO428284   1.176  42.323   9.153
 7067POPC   GL128285   1.251  42.360   8.853
 7067POPC   GL228286   1.147  42.259   8.853
 7067POPC   C1A28287   1.201  42.354   8.553
 7067POPC   D2A28288   1.182  42.367   8.253
 7067POPC   C3A28289   1.241  42.339   7.953
 7067POPC   C4A28290   1.243  42.334   7.653
 7067POPC   C1B28291   0.959  42.262   8.553
 7067POPC   C2B28292   1.020  42.194   8.253
 7067POPC   C3B28293   1.035  42.186   7.953
 7067POPC   C4B28294   1.029  42.267   7.653
 7068POPC   NC328295  10.478  40.029   9.453
 7068POPC   PO428296  10.567  39.975   9.153
 7068POPC   GL128297  10.512  39.984   8.853
 7068POPC   GL228298  10.636  39.949   8.853
 7068POPC   C1A28299  10.499  39.970   8.553
 7068POPC   D2A28300  10.549  40.040   8.253
 7068POPC   C3A28301  10.477  40.015   7.953
 7068POPC   C4A28302  10.574  40.045   7.653
 7068POPC   C1B28303  10.701  39.866   8.553
 7068POPC   C2B28304  10.734  39.831   8.253
 7068POPC   C3B28305  10.717  39.894   7.953
 7068POPC   C4B28306  10.704  39.805   7.653
 7069POPC   NC328307  39.263   1.997   9.453
 7069POPC   PO428308  39.270   1.971   9.153
 7069POPC   GL128309  39.240   2.031   8.853
 7069POPC   GL228310  39.238   2.154   8.853
 7069POPC   C1A28311  39.200   2.028   8.553
 7069POPC   D2A28312  39.247   1.982   8.253
 7069POPC   C3A28313  39.184   1.979   7.953
 7069POPC   C4A28314  39.224   1.978   7.653
 7069POPC   C1B28315  39.292   2.261   8.553
 7069POPC   C2B28316  39.315   2.237   8.253
 7069POPC   C3B28317  39.346   2.248   7.953
 7069POPC   C4B28318  39.299   2.257   7.653
 7070POPC   NC328319  42.384  18.309   9.453
 7070POPC   PO428320  42.302  18.298   9.153
 7070POPC   GL128321  42.309  18.251   8.853
 7070POPC   GL228322  42.455  18.315   8.853
 7070POPC   C1A28323  42.366  18.294   8.553
 7070POPC   D2A28324  42.305  18.246   8.253
 7070POPC   C3A28325  42.324  18.257   7.953
 7070POPC   C4A28326  42.322  18.244   7.653
 7070POPC   C1B28327  42.593  18.345   8.553
 7070POPC   C2B28328  42.594  18.341   8.253
 7070POPC   C3B28329  42.619  18.307   7.953
 7070POPC   C4B28330  42.601  18.323   7.653
 7071POPC   NC328331  29.890  37.663   9.453
 7071POPC   PO428332  29.900  37.656   9.153
 7071POPC   GL128333  29.920  37.634   8.853
 7071POPC   GL228334  29.995  37.682   8.853
 7071POPC   C1A28335  29.970  37.729   8.553
 7071POPC   D2A28336  29.878  37.692   8.253
 7071POPC   C3A28337  29.881  37.690   7.953
 7071POPC   C4A28338  29.901  37.699   7.653
 7071POPC   C1B28339  30.107  37.629   8.553
 7071POPC   C2B28340  30.166  37.613   8.253
 7071POPC   C3B28341  30.132  37.550   7.953
 7071POPC   C4B28342  30.199  37.600   7.653
 7072POPC   NC328343   2.003  36.175   9.453
 7072POPC   PO428344   1.996  36.153   9.153
 7072POPC   GL128345   1.946  36.096   8.853
 7072POPC   GL228346   2.154  36.187   8.853
 7072POPC   C1A28347   2.016  36.175   8.553
 7072POPC   D2A28348   2.026  36.157   8.253
 7072POPC   C3A28349   1.974  36.078   7.953
 7072POPC   C4A28350   2.011  36.118   7.653
 7072POPC   C1B28351   2.193  36.168   8.553
 7072POPC   C2B28352   2.280  36.137   8.253
 7072POPC   C3B28353   2.207  36.133   7.953
 7072POPC   C4B28354   2.231  36.184   7.653
 7073POPC   NC328355   0.437  32.245   9.453
 7073POPC   PO428356   0.477  32.217   9.153
 7073POPC   GL128357   0.481  32.270   8.853
 7073POPC   GL228358   0.366  32.099   8.853
 7073POPC   C1A28359   0.412  32.295   8.553
 7073POPC   D2A28360   0.466  32.284   8.253
 7073POPC   C3A28361   0.399  32.198   7.953
 7073POPC   C4A28362   0.470  32.220   7.653
 7073POPC   C1B28363   0.285  31.994   8.553
 7073POPC   C2B28364   0.279  32.018   8.253
 7073POPC   C3B28365   0.307  32.008   7.953
 7073POPC   C4B28366   0.324  32.005   7.653
 7074POPC   NC328367   8.239   5.110   9.453
 7074POPC   PO428368   8.224   5.119   9.153
 7074POPC   GL128369   8.171   5.084   8.853
 7074POPC   GL228370   8.134   5.196   8.853
 7074POPC   C1A28371   8.153   5.135   8.553
 7074POPC   D2A28372   8.200   5.080   8.253
 7074POPC   C3A28373   8.208   5.113   7.953
 7074POPC   C4A28374   8.189   5.122   7.653
 7074POPC   C1B28375   8.003   5.287   8.553
 7074POPC   C2B28376   8.095   5.333   8.253
 7074POPC   C3B28377   8.092   5.285   7.953
 7074POPC   C4B28378   8.063   5.304   7.653
 7075POPC   NC328379   0.406  17.471   9.453
 7075POPC   PO428380   0.464  17.540   9.153
 7075POPC   GL128381   0.437  17.553   8.853
 7075POPC   GL228382   0.438  17.427   8.853
 7075POPC   C1A28383   0.463  17.497   8.553
 7075POPC   D2A28384   0.449  17.460   8.253
 7075POPC   C3A28385   0.390  17.514   7.953
 7075POPC   C4A28386   0.448  17.499   7.653
 7075POPC   C1B28387   0.394  17.239   8.553
 7075POPC   C2B28388   0.373  17.290   8.253
 7075POPC   C3B28389   0.427  17.267   7.953
 7075POPC   C4B28390   0.402  17.261   7.653
 7076POPC   NC328391  44.633  17.545   9.453
 7076POPC   PO428392  44.694  17.466   9.153
 7076POPC   GL128393  44.664  17.528   8.853
 7076POPC   GL228394  44.749  17.545   8.853
 7076POPC   C1A28395  44.684  17.458   8.553
 7076POPC   D2A28396  44.696  17.468   8.253
 7076POPC   C3A28397  44.629  17.530   7.953
 7076POPC   C4A28398  44.624  17.481   7.653
 7076POPC   C1B28399  44.952  17.538   8.553
 7076POPC   C2B28400  44.893  17.491   8.253
 7076POPC   C3B28401  44.929  17.521   7.953
 7076POPC   C4B28402  44.898  17.513   7.653
 7077POPC   NC328403  31.517   1.222   9.453
 7077POPC   PO428404  31.493   1.179   9.153
 7077POPC   GL128405  31.451   1.186   8.853
 7077POPC   GL228406  31.603   1.247   8.853
 7077POPC   C1A28407  31.471   1.181   8.553
 7077POPC   D2A28408  31.442   1.237   8.253
 7077POPC   C3A28409  31.445   1.169   7.953
 7077POPC   C4A28410  31.436   1.211   7.653
 7077POPC   C1B28411  31.713   1.294   8.553
 7077POPC   C2B28412  31.733   1.317   8.253
 7077POPC   C3B28413  31.684   1.271   7.953
 7077POPC   C4B28414  31.716   1.317   7.653
 7078POPC   NC328415   2.810  16.770   9.453
 7078POPC   PO428416   2.718  16.703   9.153
 7078POPC   GL128417   2.765  16.718   8.853
 7078POPC   GL228418   2.762  16.601   8.853
 7078POPC   C1A28419   2.719  16.720   8.553
 7078POPC   D2A28420   2.717  16.713   8.253
 7078POPC   C3A28421   2.728  16.780   7.953
 7078POPC   C4A28422   2.809  16.781   7.653
 7078POPC   C1B28423   2.796  16.497   8.553
 7078POPC   C2B28424   2.849  16.464   8.253
 7078POPC   C3B28425   2.812  16.467   7.953
 7078POPC   C4B28426   2.842  16.461   7.653
 7079POPC   NC328427   0.410  39.225   9.453
 7079POPC   PO428428   0.397  39.264   9.153
 7079POPC   GL128429   0.482  39.226   8.853
 7079POPC   GL228430   0.501  39.372   8.853
 7079POPC   C1A28431   0.478  39.250   8.553
 7079POPC   D2A28432   0.394  39.277   8.253
 7079POPC   C3A28433   0.406  39.202   7.953
 7079POPC   C4A28434   0.390  39.270   7.653
 7079POPC   C1B28435   0.513  39.492   8.553
 7079POPC   C2B28436   0.495  39.436   8.253
 7079POPC   C3B28437   0.461  39.451   7.953
 7079POPC   C4B28438   0.426  39.440   7.653
 7080POPC   NC328439  29.886   1.260   9.453
 7080POPC   PO428440  29.953   1.195   9.153
 7080POPC   GL128441  29.896   1.263   8.853
 7080POPC   GL228442  29.808   1.170   8.853
 7080POPC   C1A28443  29.897   1.250   8.553
 7080POPC   D2A28444  29.871   1.189   8.253
 7080POPC   C3A28445  29.908   1.206   7.953
 7080POPC   C4A28446  29.914   1.235   7.653
 7080POPC   C1B28447  29.648   1.183   8.553
 7080POPC   C2B28448  29.641   1.131   8.253
 7080POPC   C3B28449  29.714   1.116   7.953
 7080POPC   C4B28450  29.639   1.139   7.653
 7081POPC   NC328451  36.917   7.404   9.453
 7081POPC   PO428452  36.930   7.426   9.153
 7081POPC   GL128453  36.859   7.373   8.853
 7081POPC   GL228454  36.987   7.295   8.853
 7081POPC   C1A28455  36.879   7.413   8.553
 7081POPC   D2A28456  36.893   7.393   8.253
 7081POPC   C3A28457  36.900   7.389   7.953
 7081POPC   C4A28458  36.943   7.386   7.653
 7081POPC   C1B28459  36.986   7.212   8.553
 7081POPC   C2B28460  36.985   7.183   8.253
 7081POPC   C3B28461  36.999   7.156   7.953
 7081POPC   C4B28462  37.019   7.244   7.653
 7082POPC   NC328463   5.850  32.268   9.453
 7082POPC   PO428464   5.878  32.203   9.153
 7082POPC   GL128465   5.867  32.294   8.853
 7082POPC   GL228466   5.775  32.308   8.853
 7082POPC   C1A28467   5.901  32.211   8.553
 7082POPC   D2A28468   5.881  32.284   8.253
 7082POPC   C3A28469   5.835  32.247   7.953
 7082POPC   C4A28470   5.842  32.261   7.653
 7082POPC   C1B28471   5.717  32.449   8.553
 7082POPC   C2B28472   5.711  32.412   8.253
 7082POPC   C3B28473   5.761  32.461   7.953
 7082POPC   C4B28474   5.700  32.496   7.653
 7083POPC   NC328475   5.070  29.129   9.453
 7083POPC   PO428476   5.120  29.181   9.153
 7083POPC   GL128477   5.105  29.101   8.853
 7083POPC   GL228478   5.237  29.206   8.853
 7083POPC   C1A28479   5.067  29.120   8.553
 7083POPC   D2A28480   5.067  29.171   8.253
 7083POPC   C3A28481   5.119  29.136   7.953
 7083POPC   C4A28482   5.105  29.173   7.653
 7083POPC   C1B28483   5.332  29.263   8.553
 7083POPC   C2B28484   5.314  29.244   8.253
 7083POPC   C3B28485   5.292  29.270   7.953
 7083POPC   C4B28486   5.302  29.230   7.653
 7084POPC   NC328487  19.811   9.785   9.453
 7084POPC   PO428488  19.818   9.707   9.153
 7084POPC   GL128489  19.820   9.719   8.853
 7084POPC   GL228490  19.857   9.829   8.853
 7084POPC   C1A28491  19.854   9.709   8.553
 7084POPC   D2A28492  19.806   9.759   8.253
 7084POPC   C3A28493  19.870   9.706   7.953
 7084POPC   C4A28494  19.810   9.760   7.653
 7084POPC   C1B28495  19.873  10.029   8.553
 7084POPC   C2B28496  19.886   9.989   8.253
 7084POPC   C3B28497  19.906  10.015   7.953
 7084POPC   C4B28498  19.960   9.985   7.653
 7085POPC   NC328499  42.331   7.468   9.453
 7085POPC   PO428500  42.317   7.402   9.153
 7085POPC   GL128501  42.289   7.373   8.853
 7085POPC   GL228502  42.347   7.269   8.853
 7085POPC   C1A28503  42.329   7.433   8.553
 7085POPC   D2A28504  42.338   7.453   8.253
 7085POPC   C3A28505  42.342   7.427   7.953
 7085POPC   C4A28506  42.304   7.449   7.653
 7085POPC   C1B28507  42.416   7.210   8.553
 7085POPC   C2B28508  42.444   7.229   8.253
 7085POPC   C3B28509  42.428   7.227   7.953
 7085POPC   C4B28510  42.473   7.220   7.653
 7086POPC   NC328511  32.291  44.704   9.453
 7086POPC   PO428512  32.273  44.655   9.153
 7086POPC   GL128513  32.219  44.628   8.853
 7086POPC   GL228514  32.134  44.613   8.853
 7086POPC   C1A28515  32.263  44.636   8.553
 7086POPC   D2A28516  32.217  44.646   8.253
 7086POPC   C3A28517  32.290  44.683   7.953
 7086POPC   C4A28518  32.250  44.641   7.653
 7086POPC   C1B28519  32.043  44.654   8.553
 7086POPC   C2B28520  31.976  44.575   8.253
 7086POPC   C3B28521  32.020  44.593   7.953
 7086POPC   C4B28522  31.954  44.610   7.653
 7087POPC   NC328523  30.731  44.675   9.453
 7087POPC   PO428524  30.719  44.707   9.153
 7087POPC   GL128525  30.655  44.667   8.853
 7087POPC   GL228526  30.599  44.534   8.853
 7087POPC   C1A28527  30.699  44.710   8.553
 7087POPC   D2A28528  30.716  44.665   8.253
 7087POPC   C3A28529  30.659  44.696   7.953
 7087POPC   C4A28530  30.704  44.632   7.653
 7087POPC   C1B28531  30.577  44.499   8.553
 7087POPC   C2B28532  30.578  44.420   8.253
 7087POPC   C3B28533  30.582  44.465   7.953
 7087POPC   C4B28534  30.529  44.407   7.653
 7088POPC   NC328535  12.887  39.989   9.453
 7088POPC   PO428536  12.879  40.025   9.153
 7088POPC   GL128537  12.834  40.038   8.853
 7088POPC   GL228538  12.934  39.972   8.853
 7088POPC   C1A28539  12.885  39.958   8.553
 7088POPC   D2A28540  12.814  39.970   8.253
 7088POPC   C3A28541  12.870  39.959   7.953
 7088POPC   C4A28542  12.887  40.050   7.653
 7088POPC   C1B28543  13.029  39.909   8.553
 7088POPC   C2B28544  13.081  39.938   8.253
 7088POPC   C3B28545  13.052  39.918   7.953
 7088POPC   C4B28546  13.108  39.914   7.653
 7089POPC   NC328547  14.420  37.631   9.453
 7089POPC   PO428548  14.447  37.635   9.153
 7089POPC   GL128549  14.437  37.684   8.853
 7089POPC   GL228550  14.384  37.592   8.853
 7089POPC   C1A28551  14.362  37.644   8.553
 7089POPC   D2A28552  14.399  37.638   8.253
 7089POPC   C3A28553  14.419  37.687   7.953
 7089POPC   C4A28554  14.425  37.631   7.653
 7089POPC   C1B28555  14.429  37.465   8.553
 7089POPC   C2B28556  14.380  37.397   8.253
 7089POPC   C3B28557  14.394  37.400   7.953
 7089POPC   C4B28558  14.428  37.384   7.653
 7090POPC   NC328559  40.749   6.654   9.453
 7090POPC   PO428560  40.828   6.622   9.153
 7090POPC   GL128561  40.738   6.595   8.853
 7090POPC   GL228562  40.880   6.717   8.853
 7090POPC   C1A28563  40.828   6.644   8.553
 7090POPC   D2A28564  40.816   6.649   8.253
 7090POPC   C3A28565  40.819   6.597   7.953
 7090POPC   C4A28566  40.822   6.695   7.653
 7090POPC   C1B28567  40.984   6.756   8.553
 7090POPC   C2B28568  41.015   6.828   8.253
 7090POPC   C3B28569  40.969   6.842   7.953
 7090POPC   C4B28570  40.938   6.845   7.653
 7091POPC   NC328571   6.601  12.808   9.453
 7091POPC   PO428572   6.677  12.872   9.153
 7091POPC   GL128573   6.600  12.812   8.853
 7091POPC   GL228574   6.707  12.909   8.853
 7091POPC   C1A28575   6.642  12.815   8.553
 7091POPC   D2A28576   6.672  12.872   8.253
 7091POPC   C3A28577   6.684  12.859   7.953
 7091POPC   C4A28578   6.667  12.825   7.653
 7091POPC   C1B28579   6.858  13.014   8.553
 7091POPC   C2B28580   6.853  13.048   8.253
 7091POPC   C3B28581   6.875  13.022   7.953
 7091POPC   C4B28582   6.795  13.054   7.653
 7092POPC   NC328583   8.923  22.910   9.453
 7092POPC   PO428584   8.928  22.925   9.153
 7092POPC   GL128585   8.936  22.917   8.853
 7092POPC   GL228586   8.854  22.979   8.853
 7092POPC   C1A28587   8.970  22.911   8.553
 7092POPC   D2A28588   8.957  22.928   8.253
 7092POPC   C3A28589   9.015  22.983   7.953
 7092POPC   C4A28590   8.992  22.909   7.653
 7092POPC   C1B28591   8.764  23.011   8.553
 7092POPC   C2B28592   8.692  22.945   8.253
 7092POPC   C3B28593   8.712  23.003   7.953
 7092POPC   C4B28594   8.727  22.940   7.653
 7093POPC   NC328595   8.218   2.794   9.453
 7093POPC   PO428596   8.189   2.776   9.153
 7093POPC   GL128597   8.180   2.809   8.853
 7093POPC   GL228598   8.236   2.619   8.853
 7093POPC   C1A28599   8.232   2.772   8.553
 7093POPC   D2A28600   8.208   2.724   8.253
 7093POPC   C3A28601   8.223   2.722   7.953
 7093POPC   C4A28602   8.230   2.786   7.653
 7093POPC   C1B28603   8.242   2.475   8.553
 7093POPC   C2B28604   8.223   2.549   8.253
 7093POPC   C3B28605   8.270   2.521   7.953
 7093POPC   C4B28606   8.298   2.533   7.653
 7094POPC   NC328607  31.472  33.787   9.453
 7094POPC   PO428608  31.485  33.766   9.153
 7094POPC   GL128609  31.464  33.833   8.853
 7094POPC   GL228610  31.598  33.711   8.853
 7094POPC   C1A28611  31.443  33.751   8.553
 7094POPC   D2A28612  31.428  33.838   8.253
 7094POPC   C3A28613  31.496  33.819   7.953
 7094POPC   C4A28614  31.501  33.756   7.653
 7094POPC   C1B28615  31.665  33.653   8.553
 7094POPC   C2B28616  31.609  33.663   8.253
 7094POPC   C3B28617  31.666  33.650   7.953
 7094POPC   C4B28618  31.692  33.605   7.653
 7095POPC   NC328619  31.477  20.651   9.453
 7095POPC   PO428620  31.463  20.590   9.153
 7095POPC   GL128621  31.495  20.579   8.853
 7095POPC   GL228622  31.583  20.579   8.853
 7095POPC   C1A28623  31.491  20.655   8.553
 7095POPC   D2A28624  31.468  20.630   8.253
 7095POPC   C3A28625  31.430  20.644   7.953
 7095POPC   C4A28626  31.473  20.654   7.653
 7095POPC   C1B28627  31.761  20.586   8.553
 7095POPC   C2B28628  31.683  20.656   8.253
 7095POPC   C3B28629  31.681  20.611   7.953
 7095POPC   C4B28630  31.700  20.656   7.653
 7096POPC   NC328631  15.995  20.594   9.453
 7096POPC   PO428632  15.916  20.587   9.153
 7096POPC   GL128633  15.949  20.611   8.853
 7096POPC   GL228634  16.034  20.621   8.853
 7096POPC   C1A28635  15.960  20.596   8.553
 7096POPC   D2A28636  15.991  20.598   8.253
 7096POPC   C3A28637  15.935  20.648   7.953
 7096POPC   C4A28638  15.950  20.612   7.653
 7096POPC   C1B28639  16.212  20.668   8.553
 7096POPC   C2B28640  16.171  20.738   8.253
 7096POPC   C3B28641  16.216  20.724   7.953
 7096POPC   C4B28642  16.202  20.736   7.653
 7097POPC   NC328643   9.731   9.722   9.453
 7097POPC   PO428644   9.724   9.773   9.153
 7097POPC   GL128645   9.738   9.715   8.853
 7097POPC   GL228646   9.642   9.776   8.853
 7097POPC   C1A28647   9.774   9.787   8.553
 7097POPC   D2A28648   9.742   9.740   8.253
 7097POPC   C3A28649   9.765   9.797   7.953
 7097POPC   C4A28650   9.782   9.778   7.653
 7097POPC   C1B28651   9.536   9.821   8.553
 7097POPC   C2B28652   9.529   9.820   8.253
 7097POPC   C3B28653   9.550   9.824   7.953
 7097POPC   C4B28654   9.510   9.833   7.653
 7098POPC   NC328655  39.997   5.866   9.453
 7098POPC   PO428656  40.039   5.916   9.153
 7098POPC   GL128657  39.997   5.919   8.853
 7098POPC   GL228658  39.970   5.981   8.853
 7098POPC   C1A28659  39.996   5.824   8.553
 7098POPC   D2A28660  39.972   5.839   8.253
 7098POPC   C3A28661  40.020   5.824   7.953
 7098POPC   C4A28662  40.051   5.891   7.653
 7098POPC   C1B28663  40.038   6.098   8.553
 7098POPC   C2B28664  39.968   6.165   8.253
 7098POPC   C3B28665  39.988   6.100   7.953
 7098POPC   C4B28666  40.016   6.138   7.653
 7099POPC   NC328667  12.065  12.888   9.453
 7099POPC   PO428668  12.037  12.864   9.153
 7099POPC   GL128669  12.086  12.848   8.853
 7099POPC   GL228670  12.027  12.925   8.853
 7099POPC   C1A28671  12.040  12.895   8.553
 7099POPC   D2A28672  12.026  12.803   8.253
 7099POPC   C3A28673  12.072  12.840   7.953
 7099POPC   C4A28674  12.122  12.876   7.653
 7099POPC   C1B28675  11.855  12.991   8.553
 7099POPC   C2B28676  11.942  13.027   8.253
 7099POPC   C3B28677  11.891  13.072   7.953
 7099POPC   C4B28678  11.866  13.047   7.653
 7100POPC   NC328679  42.322  10.549   9.453
 7100POPC   PO428680  42.286  10.525   9.153
 7100POPC   GL128681  42.325  10.526   8.853
 7100POPC   GL228682  42.458  10.547   8.853
 7100POPC   C1A28683  42.319  10.540   8.553
 7100POPC   D2A28684  42.304  10.482   8.253
 7100POPC   C3A28685  42.327  10.539   7.953
 7100POPC   C4A28686  42.366  10.503   7.653
 7100POPC   C1B28687  42.535  10.547   8.553
 7100POPC   C2B28688  42.552  10.581   8.253
 7100POPC   C3B28689  42.553  10.549   7.953
 7100POPC   C4B28690  42.562  10.486   7.653
 7101POPC   NC328691  22.156  26.071   9.453
 7101POPC   PO428692  22.209  26.072   9.153
 7101POPC   GL128693  22.133  26.083   8.853
 7101POPC   GL228694  22.099  26.165   8.853
 7101POPC   C1A28695  22.119  26.090   8.553
 7101POPC   D2A28696  22.138  26.006   8.253
 7101POPC   C3A28697  22.147  26.022   7.953
 7101POPC   C4A28698  22.136  26.083   7.653
 7101POPC   C1B28699  22.161  26.301   8.553
 7101POPC   C2B28700  22.140  26.249   8.253
 7101POPC   C3B28701  22.121  26.292   7.953
 7101POPC   C4B28702  22.133  26.339   7.653
 7102POPC   NC328703  13.615  26.850   9.453
 7102POPC   PO428704  13.619  26.816   9.153
 7102POPC   GL128705  13.606  26.855   8.853
 7102POPC   GL228706  13.662  26.650   8.853
 7102POPC   C1A28707  13.665  26.859   8.553
 7102POPC   D2A28708  13.646  26.770   8.253
 7102POPC   C3A28709  13.664  26.827   7.953
 7102POPC   C4A28710  13.622  26.769   7.653
 7102POPC   C1B28711  13.730  26.611   8.553
 7102POPC   C2B28712  13.700  26.541   8.253
 7102POPC   C3B28713  13.654  26.595   7.953
 7102POPC   C4B28714  13.649  26.564   7.653
 7103POPC   NC328715  41.521  37.707   9.453
 7103POPC   PO428716  41.603  37.690   9.153
 7103POPC   GL128717  41.525  37.723   8.853
 7103POPC   GL228718  41.481  37.743   8.853
 7103POPC   C1A28719  41.526  37.656   8.553
 7103POPC   D2A28720  41.542  37.681   8.253
 7103POPC   C3A28721  41.561  37.727   7.953
 7103POPC   C4A28722  41.519  37.724   7.653
 7103POPC   C1B28723  41.341  37.878   8.553
 7103POPC   C2B28724  41.419  37.872   8.253
 7103POPC   C3B28725  41.366  37.884   7.953
 7103POPC   C4B28726  41.352  37.852   7.653
 7104POPC   NC328727   3.510  27.573   9.453
 7104POPC   PO428728   3.586  27.564   9.153
 7104POPC   GL128729   3.492  27.552   8.853
 7104POPC   GL228730   3.541  27.722   8.853
 7104POPC   C1A28731   3.538  27.546   8.553
 7104POPC   D2A28732   3.571  27.632   8.253
 7104POPC   C3A28733   3.579  27.612   7.953
 7104POPC   C4A28734   3.512  27.576   7.653
 7104POPC   C1B28735   3.600  27.828   8.553
 7104POPC   C2B28736   3.556  27.876   8.253
 7104POPC   C3B28737   3.562  27.864   7.953
 7104POPC   C4B28738   3.620  27.879   7.653
 7105POPC   NC328739  34.584  25.232   9.453
 7105POPC   PO428740  34.598  25.236   9.153
 7105POPC   GL128741  34.603  25.295   8.853
 7105POPC   GL228742  34.530  25.161   8.853
 7105POPC   C1A28743  34.553  25.311   8.553
 7105POPC   D2A28744  34.555  25.238   8.253
 7105POPC   C3A28745  34.593  25.268   7.953
 7105POPC   C4A28746  34.551  25.226   7.653
 7105POPC   C1B28747  34.540  24.984   8.553
 7105POPC   C2B28748  34.538  25.058   8.253
 7105POPC   C3B28749  34.516  25.010   7.953
 7105POPC   C4B28750  34.497  25.040   7.653
 7106POPC   NC328751  43.852  36.124   9.453
 7106POPC   PO428752  43.836  36.121   9.153
 7106POPC   GL128753  43.896  36.100   8.853
 7106POPC   GL228754  43.896  36.056   8.853
 7106POPC   C1A28755  43.899  36.081   8.553
 7106POPC   D2A28756  43.878  36.080   8.253
 7106POPC   C3A28757  43.894  36.099   7.953
 7106POPC   C4A28758  43.905  36.124   7.653
 7106POPC   C1B28759  43.937  35.933   8.553
 7106POPC   C2B28760  43.989  35.900   8.253
 7106POPC   C3B28761  43.931  35.873   7.953
 7106POPC   C4B28762  43.911  35.869   7.653
 7107POPC   NC328763  30.697  32.977   9.453
 7107POPC   PO428764  30.699  33.053   9.153
 7107POPC   GL128765  30.744  33.041   8.853
 7107POPC   GL228766  30.580  33.026   8.853
 7107POPC   C1A28767  30.739  33.016   8.553
 7107POPC   D2A28768  30.655  33.061   8.253
 7107POPC   C3A28769  30.700  33.031   7.953
 7107POPC   C4A28770  30.725  33.040   7.653
 7107POPC   C1B28771  30.467  32.937   8.553
 7107POPC   C2B28772  30.465  32.900   8.253
 7107POPC   C3B28773  30.478  32.954   7.953
 7107POPC   C4B28774  30.494  32.988   7.653
 7108POPC   NC328775   6.672  43.086   9.453
 7108POPC   PO428776   6.678  43.132   9.153
 7108POPC   GL128777   6.678  43.066   8.853
 7108POPC   GL228778   6.534  42.967   8.853
 7108POPC   C1A28779   6.675  43.155   8.553
 7108POPC   D2A28780   6.693  43.068   8.253
 7108POPC   C3A28781   6.671  43.131   7.953
 7108POPC   C4A28782   6.599  43.086   7.653
 7108POPC   C1B28783   6.565  42.864   8.553
 7108POPC   C2B28784   6.486  42.876   8.253
 7108POPC   C3B28785   6.518  42.875   7.953
 7108POPC   C4B28786   6.558  42.857   7.653
 7109POPC   NC328787  36.107  25.293   9.453
 7109POPC   PO428788  36.085  25.307   9.153
 7109POPC   GL128789  36.106  25.226   8.853
 7109POPC   GL228790  36.143  25.169   8.853
 7109POPC   C1A28791  36.139  25.230   8.553
 7109POPC   D2A28792  36.106  25.309   8.253
 7109POPC   C3A28793  36.080  25.235   7.953
 7109POPC   C4A28794  36.141  25.258   7.653
 7109POPC   C1B28795  36.096  25.018   8.553
 7109POPC   C2B28796  36.066  25.032   8.253
 7109POPC   C3B28797  36.089  25.054   7.953
 7109POPC   C4B28798  36.066  25.016   7.653
 7110POPC   NC328799  10.542  33.758   9.453
 7110POPC   PO428800  10.506  33.775   9.153
 7110POPC   GL128801  10.515  33.765   8.853
 7110POPC   GL228802  10.578  33.883   8.853
 7110POPC   C1A28803  10.548  33.808   8.553
 7110POPC   D2A28804  10.540  33.774   8.253
 7110POPC   C3A28805  10.571  33.845   7.953
 7110POPC   C4A28806  10.531  33.845   7.653
 7110POPC   C1B28807  10.600  34.065   8.553
 7110POPC   C2B28808  10.577  34.026   8.253
 7110POPC   C3B28809  10.604  34.047   7.953
 7110POPC   C4B28810  10.563  34.015   7.653
 7111POPC   NC328811  34.552  15.917   9.453
 7111POPC   PO428812  34.531  15.934   9.153
 7111POPC   GL128813  34.622  15.907   8.853
 7111POPC   GL228814  34.490  15.840   8.853
 7111POPC   C1A28815  34.557  15.968   8.553
 7111POPC   D2A28816  34.580  15.952   8.253
 7111POPC   C3A28817  34.572  15.976   7.953
 7111POPC   C4A28818  34.577  15.933   7.653
 7111POPC   C1B28819  34.398  15.770   8.553
 7111POPC   C2B28820  34.340  15.777   8.253
 7111POPC   C3B28821  34.412  15.842   7.953
 7111POPC   C4B28822  34.344  15.832   7.653
 7112POPC   NC328823  39.184  19.039   9.453
 7112POPC   PO428824  39.278  19.093   9.153
 7112POPC   GL128825  39.182  19.043   8.853
 7112POPC   GL228826  39.274  19.192   8.853
 7112POPC   C1A28827  39.255  19.062   8.553
 7112POPC   D2A28828  39.255  19.061   8.253
 7112POPC   C3A28829  39.232  19.078   7.953
 7112POPC   C4A28830  39.237  19.078   7.653
 7112POPC   C1B28831  39.344  19.262   8.553
 7112POPC   C2B28832  39.345  19.219   8.253
 7112POPC   C3B28833  39.385  19.264   7.953
 7112POPC   C4B28834  39.335  19.270   7.653
 7113POPC   NC328835  36.122   2.807   9.453
 7113POPC   PO428836  36.128   2.729   9.153
 7113POPC   GL128837  36.141   2.807   8.853
 7113POPC   GL228838  36.213   2.865   8.853
 7113POPC   C1A28839  36.100   2.807   8.553
 7113POPC   D2A28840  36.109   2.721   8.253
 7113POPC   C3A28841  36.130   2.793   7.953
 7113POPC   C4A28842  36.124   2.720   7.653
 7113POPC   C1B28843  36.283   2.902   8.553
 7113POPC   C2B28844  36.342   2.961   8.253
 7113POPC   C3B28845  36.291   2.916   7.953
 7113POPC   C4B28846  36.365   2.909   7.653
 7114POPC   NC328847  18.268  35.386   9.453
 7114POPC   PO428848  18.333  35.371   9.153
 7114POPC   GL128849  18.304  35.339   8.853
 7114POPC   GL228850  18.191  35.418   8.853
 7114POPC   C1A28851  18.303  35.342   8.553
 7114POPC   D2A28852  18.304  35.319   8.253
 7114POPC   C3A28853  18.252  35.370   7.953
 7114POPC   C4A28854  18.293  35.370   7.653
 7114POPC   C1B28855  18.132  35.565   8.553
 7114POPC   C2B28856  18.127  35.494   8.253
 7114POPC   C3B28857  18.112  35.527   7.953
 7114POPC   C4B28858  18.151  35.505   7.653
 7115POPC   NC328859  23.671   9.787   9.453
 7115POPC   PO428860  23.723   9.763   9.153
 7115POPC   GL128861  23.750   9.746   8.853
 7115POPC   GL228862  23.692   9.574   8.853
 7115POPC   C1A28863  23.748   9.774   8.553
 7115POPC   D2A28864  23.759   9.788   8.253
 7115POPC   C3A28865  23.664   9.718   7.953
 7115POPC   C4A28866  23.739   9.736   7.653
 7115POPC   C1B28867  23.696   9.527   8.553
 7115POPC   C2B28868  23.753   9.508   8.253
 7115POPC   C3B28869  23.750   9.507   7.953
 7115POPC   C4B28870  23.721   9.465   7.653
 7116POPC   NC328871   5.887  36.128   9.453
 7116POPC   PO428872   5.819  36.091   9.153
 7116POPC   GL128873   5.897  36.161   8.853
 7116POPC   GL228874   5.740  36.094   8.853
 7116POPC   C1A28875   5.836  36.120   8.553
 7116POPC   D2A28876   5.844  36.104   8.253
 7116POPC   C3A28877   5.824  36.091   7.953
 7116POPC   C4A28878   5.823  36.138   7.653
 7116POPC   C1B28879   5.663  36.059   8.553
 7116POPC   C2B28880   5.637  35.967   8.253
 7116POPC   C3B28881   5.644  36.054   7.953
 7116POPC   C4B28882   5.675  36.062   7.653
 7117POPC   NC328883  40.795  15.133   9.453
 7117POPC   PO428884  40.750  15.216   9.153
 7117POPC   GL128885  40.818  15.180   8.853
 7117POPC   GL228886  40.818  15.311   8.853
 7117POPC   C1A28887  40.816  15.209   8.553
 7117POPC   D2A28888  40.796  15.148   8.253
 7117POPC   C3A28889  40.819  15.139   7.953
 7117POPC   C4A28890  40.749  15.176   7.653
 7117POPC   C1B28891  40.923  15.396   8.553
 7117POPC   C2B28892  40.901  15.408   8.253
 7117POPC   C3B28893  40.930  15.389   7.953
 7117POPC   C4B28894  40.972  15.355   7.653
 7118POPC   NC328895  34.585   8.205   9.453
 7118POPC   PO428896  34.595   8.176   9.153
 7118POPC   GL128897  34.581   8.202   8.853
 7118POPC   GL228898  34.726   8.251   8.853
 7118POPC   C1A28899  34.551   8.166   8.553
 7118POPC   D2A28900  34.558   8.211   8.253
 7118POPC   C3A28901  34.589   8.176   7.953
 7118POPC   C4A28902  34.535   8.199   7.653
 7118POPC   C1B28903  34.825   8.255   8.553
 7118POPC   C2B28904  34.818   8.299   8.253
 7118POPC   C3B28905  34.796   8.276   7.953
 7118POPC   C4B28906  34.770   8.275   7.653
 7119POPC   NC328907   1.951  17.542   9.453
 7119POPC   PO428908   1.989  17.530   9.153
 7119POPC   GL128909   1.995  17.555   8.853
 7119POPC   GL228910   2.077  17.567   8.853
 7119POPC   C1A28911   1.964  17.554   8.553
 7119POPC   D2A28912   1.960  17.485   8.253
 7119POPC   C3A28913   2.021  17.520   7.953
 7119POPC   C4A28914   2.017  17.478   7.653
 7119POPC   C1B28915   2.201  17.605   8.553
 7119POPC   C2B28916   2.245  17.609   8.253
 7119POPC   C3B28917   2.256  17.632   7.953
 7119POPC   C4B28918   2.244  17.626   7.653
 7120POPC   NC328919   2.723  30.718   9.453
 7120POPC   PO428920   2.729  30.663   9.153
 7120POPC   GL128921   2.768  30.659   8.853
 7120POPC   GL228922   2.591  30.759   8.853
 7120POPC   C1A28923   2.788  30.737   8.553
 7120POPC   D2A28924   2.750  30.721   8.253
 7120POPC   C3A28925   2.793  30.716   7.953
 7120POPC   C4A28926   2.773  30.649   7.653
 7120POPC   C1B28927   2.561  30.735   8.553
 7120POPC   C2B28928   2.545  30.726   8.253
 7120POPC   C3B28929   2.518  30.728   7.953
 7120POPC   C4B28930   2.547  30.705   7.653
 7121POPC   NC328931  34.549  27.629   9.453
 7121POPC   PO428932  34.570  27.566   9.153
 7121POPC   GL128933  34.565  27.624   8.853
 7121POPC   GL228934  34.534  27.486   8.853
 7121POPC   C1A28935  34.612  27.580   8.553
 7121POPC   D2A28936  34.535  27.579   8.253
 7121POPC   C3A28937  34.570  27.561   7.953
 7121POPC   C4A28938  34.595  27.608   7.653
 7121POPC   C1B28939  34.612  27.323   8.553
 7121POPC   C2B28940  34.572  27.373   8.253
 7121POPC   C3B28941  34.530  27.387   7.953
 7121POPC   C4B28942  34.571  27.351   7.653
 7122POPC   NC328943  38.471  19.851   9.453
 7122POPC   PO428944  38.427  19.812   9.153
 7122POPC   GL128945  38.505  19.811   8.853
 7122POPC   GL228946  38.317  19.853   8.853
 7122POPC   C1A28947  38.449  19.854   8.553
 7122POPC   D2A28948  38.487  19.809   8.253
 7122POPC   C3A28949  38.500  19.862   7.953
 7122POPC   C4A28950  38.426  19.789   7.653
 7122POPC   C1B28951  38.218  19.951   8.553
 7122POPC   C2B28952  38.261  19.973   8.253
 7122POPC   C3B28953  38.248  19.922   7.953
 7122POPC   C4B28954  38.186  19.916   7.653
 7123POPC   NC328955  26.023  33.800   9.453
 7123POPC   PO428956  26.057  33.824   9.153
 7123POPC   GL128957  26.008  33.847   8.853
 7123POPC   GL228958  26.115  33.905   8.853
 7123POPC   C1A28959  25.993  33.849   8.553
 7123POPC   D2A28960  26.048  33.765   8.253
 7123POPC   C3A28961  26.028  33.792   7.953
 7123POPC   C4A28962  26.069  33.789   7.653
 7123POPC   C1B28963  26.177  33.965   8.553
 7123POPC   C2B28964  26.245  34.001   8.253
 7123POPC   C3B28965  26.229  33.975   7.953
 7123POPC   C4B28966  26.174  34.031   7.653
 7124POPC   NC328967  34.620   3.539   9.453
 7124POPC   PO428968  34.539   3.584   9.153
 7124POPC   GL128969  34.609   3.536   8.853
 7124POPC   GL228970  34.557   3.450   8.853
 7124POPC   C1A28971  34.579   3.506   8.553
 7124POPC   D2A28972  34.611   3.556   8.253
 7124POPC   C3A28973  34.545   3.506   7.953
 7124POPC   C4A28974  34.538   3.523   7.653
 7124POPC   C1B28975  34.466   3.298   8.553
 7124POPC   C2B28976  34.469   3.288   8.253
 7124POPC   C3B28977  34.517   3.264   7.953
 7124POPC   C4B28978  34.504   3.310   7.653
 7125POPC   NC328979  43.122   0.454   9.453
 7125POPC   PO428980  43.140   0.413   9.153
 7125POPC   GL128981  43.132   0.414   8.853
 7125POPC   GL228982  43.203   0.439   8.853
 7125POPC   C1A28983  43.133   0.431   8.553
 7125POPC   D2A28984  43.115   0.394   8.253
 7125POPC   C3A28985  43.101   0.450   7.953
 7125POPC   C4A28986  43.074   0.425   7.653
 7125POPC   C1B28987  43.327   0.407   8.553
 7125POPC   C2B28988  43.399   0.382   8.253
 7125POPC   C3B28989  43.340   0.401   7.953
 7125POPC   C4B28990  43.387   0.387   7.653
 7126POPC   NC328991  28.412  43.875   9.453
 7126POPC   PO428992  28.319  43.909   9.153
 7126POPC   GL128993  28.350  43.903   8.853
 7126POPC   GL228994  28.297  43.960   8.853
 7126POPC   C1A28995  28.384  43.862   8.553
 7126POPC   D2A28996  28.328  43.926   8.253
 7126POPC   C3A28997  28.378  43.933   7.953
 7126POPC   C4A28998  28.356  43.931   7.653
 7126POPC   C1B28999  28.182  44.090   8.553
 7126POPC   C2B29000  28.253  44.112   8.253
 7126POPC   C3B29001  28.212  44.106   7.953
 7126POPC   C4B29002  28.210  44.106   7.653
 7127POPC   NC329003   2.784  22.146   9.453
 7127POPC   PO429004   2.787  22.143   9.153
 7127POPC   GL129005   2.743  22.133   8.853
 7127POPC   GL229006   2.832  22.081   8.853
 7127POPC   C1A29007   2.793  22.181   8.553
 7127POPC   D2A29008   2.798  22.203   8.253
 7127POPC   C3A29009   2.815  22.167   7.953
 7127POPC   C4A29010   2.717  22.203   7.653
 7127POPC   C1B29011   2.986  22.060   8.553
 7127POPC   C2B29012   3.016  22.015   8.253
 7127POPC   C3B29013   3.016  22.067   7.953
 7127POPC   C4B29014   2.992  22.035   7.653
 7128POPC   NC329015  21.405  33.812   9.453
 7128POPC   PO429016  21.361  33.841   9.153
 7128POPC   GL129017  21.350  33.785   8.853
 7128POPC   GL229018  21.483  33.810   8.853
 7128POPC   C1A29019  21.386  33.848   8.553
 7128POPC   D2A29020  21.360  33.770   8.253
 7128POPC   C3A29021  21.399  33.761   7.953
 7128POPC   C4A29022  21.393  33.838   7.653
 7128POPC   C1B29023  21.646  33.859   8.553
 7128POPC   C2B29024  21.665  33.822   8.253
 7128POPC   C3B29025  21.617  33.832   7.953
 7128POPC   C4B29026  21.657  33.786   7.653
 7129POPC   NC329027  25.297  12.099   9.453
 7129POPC   PO429028  25.224  12.118   9.153
 7129POPC   GL129029  25.283  12.116   8.853
 7129POPC   GL229030  25.122  12.016   8.853
 7129POPC   C1A29031  25.275  12.123   8.553
 7129POPC   D2A29032  25.255  12.079   8.253
 7129POPC   C3A29033  25.259  12.092   7.953
 7129POPC   C4A29034  25.303  12.114   7.653
 7129POPC   C1B29035  25.066  11.901   8.553
 7129POPC   C2B29036  25.098  11.911   8.253
 7129POPC   C3B29037  25.081  11.966   7.953
 7129POPC   C4B29038  25.045  11.959   7.653
 7130POPC   NC329039   1.177  15.226   9.453
 7130POPC   PO429040   1.228  15.196   9.153
 7130POPC   GL129041   1.181  15.229   8.853
 7130POPC   GL229042   1.130  15.177   8.853
 7130POPC   C1A29043   1.257  15.215   8.553
 7130POPC   D2A29044   1.220  15.157   8.253
 7130POPC   C3A29045   1.232  15.170   7.953
 7130POPC   C4A29046   1.174  15.182   7.653
 7130POPC   C1B29047   1.022  15.223   8.553
 7130POPC   C2B29048   0.936  15.217   8.253
 7130POPC   C3B29049   0.931  15.259   7.953
 7130POPC   C4B29050   0.958  15.258   7.653
 7131POPC   NC329051  39.968   6.653   9.453
 7131POPC   PO429052  40.032   6.695   9.153
 7131POPC   GL129053  40.052   6.608   8.853
 7131POPC   GL229054  40.121   6.690   8.853
 7131POPC   C1A29055  40.053   6.643   8.553
 7131POPC   D2A29056  39.994   6.658   8.253
 7131POPC   C3A29057  39.999   6.690   7.953
 7131POPC   C4A29058  40.035   6.687   7.653
 7131POPC   C1B29059  40.249   6.727   8.553
 7131POPC   C2B29060  40.238   6.777   8.253
 7131POPC   C3B29061  40.272   6.720   7.953
 7131POPC   C4B29062  40.199   6.699   7.653
 7132POPC   NC329063  36.169  22.122   9.453
 7132POPC   PO429064  36.132  22.186   9.153
 7132POPC   GL129065  36.124  22.198   8.853
 7132POPC   GL229066  36.141  22.266   8.853
 7132POPC   C1A29067  36.086  22.116   8.553
 7132POPC   D2A29068  36.166  22.131   8.253
 7132POPC   C3A29069  36.163  22.153   7.953
 7132POPC   C4A29070  36.124  22.124   7.653
 7132POPC   C1B29071  36.190  22.453   8.553
 7132POPC   C2B29072  36.210  22.449   8.253
 7132POPC   C3B29073  36.185  22.405   7.953
 7132POPC   C4B29074  36.177  22.437   7.653
 7133POPC   NC329075  30.703  11.281   9.453
 7133POPC   PO429076  30.662  11.331   9.153
 7133POPC   GL129077  30.734  11.278   8.853
 7133POPC   GL229078  30.744  11.218   8.853
 7133POPC   C1A29079  30.704  11.318   8.553
 7133POPC   D2A29080  30.721  11.266   8.253
 7133POPC   C3A29081  30.647  11.281   7.953
 7133POPC   C4A29082  30.706  11.311   7.653
 7133POPC   C1B29083  30.778  11.042   8.553
 7133POPC   C2B29084  30.746  11.046   8.253
 7133POPC   C3B29085  30.730  11.070   7.953
 7133POPC   C4B29086  30.758  11.084   7.653
 7134POPC   NC329087  39.227  19.798   9.453
 7134POPC   PO429088  39.260  19.844   9.153
 7134POPC   GL129089  39.280  19.817   8.853
 7134POPC   GL229090  39.358  19.872   8.853
 7134POPC   C1A29091  39.208  19.878   8.553
 7134POPC   D2A29092  39.196  19.847   8.253
 7134POPC   C3A29093  39.253  19.844   7.953
 7134POPC   C4A29094  39.218  19.794   7.653
 7134POPC   C1B29095  39.450  19.872   8.553
 7134POPC   C2B29096  39.453  19.906   8.253
 7134POPC   C3B29097  39.448  19.846   7.953
 7134POPC   C4B29098  39.518  19.872   7.653
 7135POPC   NC329099  12.816   9.718   9.453
 7135POPC   PO429100  12.853   9.738   9.153
 7135POPC   GL129101  12.865   9.757   8.853
 7135POPC   GL229102  12.874   9.609   8.853
 7135POPC   C1A29103  12.862   9.706   8.553
 7135POPC   D2A29104  12.840   9.767   8.253
 7135POPC   C3A29105  12.880   9.778   7.953
 7135POPC   C4A29106  12.815   9.714   7.653
 7135POPC   C1B29107  13.030   9.544   8.553
 7135POPC   C2B29108  12.945   9.529   8.253
 7135POPC   C3B29109  13.024   9.564   7.953
 7135POPC   C4B29110  12.995   9.517   7.653
 7136POPC   NC329111  42.379  14.380   9.453
 7136POPC   PO429112  42.350  14.354   9.153
 7136POPC   GL129113  42.331  14.442   8.853
 7136POPC   GL229114  42.363  14.242   8.853
 7136POPC   C1A29115  42.359  14.367   8.553
 7136POPC   D2A29116  42.343  14.386   8.253
 7136POPC   C3A29117  42.382  14.426   7.953
 7136POPC   C4A29118  42.299  14.393   7.653
 7136POPC   C1B29119  42.384  14.150   8.553
 7136POPC   C2B29120  42.335  14.146   8.253
 7136POPC   C3B29121  42.387  14.131   7.953
 7136POPC   C4B29122  42.375  14.175   7.653
 7137POPC   NC329123   4.322  29.140   9.453
 7137POPC   PO429124   4.322  29.120   9.153
 7137POPC   GL129125   4.299  29.139   8.853
 7137POPC   GL229126   4.244  28.986   8.853
 7137POPC   C1A29127   4.309  29.106   8.553
 7137POPC   D2A29128   4.301  29.182   8.253
 7137POPC   C3A29129   4.359  29.128   7.953
 7137POPC   C4A29130   4.274  29.169   7.653
 7137POPC   C1B29131   4.232  28.959   8.553
 7137POPC   C2B29132   4.203  28.862   8.253
 7137POPC   C3B29133   4.276  28.938   7.953
 7137POPC   C4B29134   4.235  28.910   7.653
 7138POPC   NC329135  32.993  42.342   9.453
 7138POPC   PO429136  33.071  42.337   9.153
 7138POPC   GL129137  33.002  42.369   8.853
 7138POPC   GL229138  32.990  42.491   8.853
 7138POPC   C1A29139  33.034  42.357   8.553
 7138POPC   D2A29140  33.071  42.302   8.253
 7138POPC   C3A29141  33.051  42.361   7.953
 7138POPC   C4A29142  32.981  42.327   7.653
 7138POPC   C1B29143  32.990  42.525   8.553
 7138POPC   C2B29144  32.943  42.532   8.253
 7138POPC   C3B29145  32.936  42.563   7.953
 7138POPC   C4B29146  32.953  42.575   7.653
 7139POPC   NC329147  17.500  10.539   9.453
 7139POPC   PO429148  17.521  10.569   9.153
 7139POPC   GL129149  17.528  10.567   8.853
 7139POPC   GL229150  17.615  10.517   8.853
 7139POPC   C1A29151  17.518  10.554   8.553
 7139POPC   D2A29152  17.556  10.525   8.253
 7139POPC   C3A29153  17.507  10.479   7.953
 7139POPC   C4A29154  17.552  10.543   7.653
 7139POPC   C1B29155  17.723  10.502   8.553
 7139POPC   C2B29156  17.759  10.550   8.253
 7139POPC   C3B29157  17.713  10.524   7.953
 7139POPC   C4B29158  17.798  10.535   7.653
 7140POPC   NC329159  43.934  30.736   9.453
 7140POPC   PO429160  43.908  30.695   9.153
 7140POPC   GL129161  43.927  30.702   8.853
 7140POPC   GL229162  43.930  30.807   8.853
 7140POPC   C1A29163  43.933  30.682   8.553
 7140POPC   D2A29164  43.928  30.699   8.253
 7140POPC   C3A29165  43.836  30.720   7.953
 7140POPC   C4A29166  43.924  30.730   7.653
 7140POPC   C1B29167  43.955  30.948   8.553
 7140POPC   C2B29168  44.008  30.943   8.253
 7140POPC   C3B29169  44.030  30.880   7.953
 7140POPC   C4B29170  43.945  30.910   7.653
 7141POPC   NC329171  36.953  18.322   9.453
 7141POPC   PO429172  36.926  18.311   9.153
 7141POPC   GL129173  36.925  18.285   8.853
 7141POPC   GL229174  36.993  18.309   8.853
 7141POPC   C1A29175  36.880  18.274   8.553
 7141POPC   D2A29176  36.889  18.326   8.253
 7141POPC   C3A29177  36.880  18.238   7.953
 7141POPC   C4A29178  36.929  18.313   7.653
 7141POPC   C1B29179  37.187  18.398   8.553
 7141POPC   C2B29180  37.177  18.314   8.253
 7141POPC   C3B29181  37.165  18.323   7.953
 7141POPC   C4B29182  37.168  18.382   7.653
 7142POPC   NC329183  41.568  31.512   9.453
 7142POPC   PO429184  41.589  31.436   9.153
 7142POPC   GL129185  41.539  31.467   8.853
 7142POPC   GL229186  41.671  31.378   8.853
 7142POPC   C1A29187  41.517  31.483   8.553
 7142POPC   D2A29188  41.520  31.498   8.253
 7142POPC   C3A29189  41.587  31.430   7.953
 7142POPC   C4A29190  41.510  31.487   7.653
 7142POPC   C1B29191  41.733  31.261   8.553
 7142POPC   C2B29192  41.649  31.272   8.253
 7142POPC   C3B29193  41.707  31.238   7.953
 7142POPC   C4B29194  41.662  31.267   7.653
 7143POPC   NC329195   9.747   7.420   9.453
 7143POPC   PO429196   9.778   7.441   9.153
 7143POPC   GL129197   9.720   7.437   8.853
 7143POPC   GL229198   9.865   7.436   8.853
 7143POPC   C1A29199   9.709   7.453   8.553
 7143POPC   D2A29200   9.767   7.459   8.253
 7143POPC   C3A29201   9.751   7.456   7.953
 7143POPC   C4A29202   9.760   7.403   7.653
 7143POPC   C1B29203  10.011   7.415   8.553
 7143POPC   C2B29204  10.011   7.428   8.253
 7143POPC   C3B29205   9.999   7.443   7.953
 7143POPC   C4B29206  10.004   7.431   7.653
 7144POPC   NC329207   7.443  31.522   9.453
 7144POPC   PO429208   7.414  31.471   9.153
 7144POPC   GL129209   7.467  31.496   8.853
 7144POPC   GL229210   7.282  31.538   8.853
 7144POPC   C1A29211   7.433  31.430   8.553
 7144POPC   D2A29212   7.449  31.479   8.253
 7144POPC   C3A29213   7.462  31.440   7.953
 7144POPC   C4A29214   7.428  31.464   7.653
 7144POPC   C1B29215   7.193  31.457   8.553
 7144POPC   C2B29216   7.150  31.492   8.253
 7144POPC   C3B29217   7.132  31.535   7.953
 7144POPC   C4B29218   7.171  31.513   7.653
 7145POPC   NC329219  12.085  13.634   9.453
 7145POPC   PO429220  12.115  13.642   9.153
 7145POPC   GL129221  12.098  13.641   8.853
 7145POPC   GL229222  12.199  13.747   8.853
 7145POPC   C1A29223  12.095  13.629   8.553
 7145POPC   D2A29224  12.119  13.586   8.253
 7145POPC   C3A29225  12.030  13.670   7.953
 7145POPC   C4A29226  12.073  13.664   7.653
 7145POPC   C1B29227  12.269  13.816   8.553
 7145POPC   C2B29228  12.254  13.745   8.253
 7145POPC   C3B29229  12.320  13.802   7.953
 7145POPC   C4B29230  12.254  13.742   7.653
 7146POPC   NC329231  22.185  14.444   9.453
 7146POPC   PO429232  22.154  14.368   9.153
 7146POPC   GL129233  22.157  14.356   8.853
 7146POPC   GL229234  22.071  14.360   8.853
 7146POPC   C1A29235  22.129  14.416   8.553
 7146POPC   D2A29236  22.209  14.384   8.253
 7146POPC   C3A29237  22.116  14.394   7.953
 7146POPC   C4A29238  22.150  14.449   7.653
 7146POPC   C1B29239  21.954  14.334   8.553
 7146POPC   C2B29240  21.892  14.386   8.253
 7146POPC   C3B29241  21.966  14.360   7.953
 7146POPC   C4B29242  21.952  14.399   7.653
 7147POPC   NC329243  39.967  24.467   9.453
 7147POPC   PO429244  40.005  24.513   9.153
 7147POPC   GL129245  39.989  24.523   8.853
 7147POPC   GL229246  40.052  24.615   8.853
 7147POPC   C1A29247  40.016  24.449   8.553
 7147POPC   D2A29248  40.002  24.462   8.253
 7147POPC   C3A29249  40.029  24.489   7.953
 7147POPC   C4A29250  39.979  24.503   7.653
 7147POPC   C1B29251  40.170  24.725   8.553
 7147POPC   C2B29252  40.214  24.697   8.253
 7147POPC   C3B29253  40.218  24.663   7.953
 7147POPC   C4B29254  40.145  24.643   7.653
 7148POPC   NC329255  38.490  41.520   9.453
 7148POPC   PO429256  38.424  41.545   9.153
 7148POPC   GL129257  38.504  41.587   8.853
 7148POPC   GL229258  38.574  41.614   8.853
 7148POPC   C1A29259  38.443  41.584   8.553
 7148POPC   D2A29260  38.441  41.568   8.253
 7148POPC   C3A29261  38.417  41.561   7.953
 7148POPC   C4A29262  38.473  41.525   7.653
 7148POPC   C1B29263  38.652  41.697   8.553
 7148POPC   C2B29264  38.627  41.708   8.253
 7148POPC   C3B29265  38.685  41.755   7.953
 7148POPC   C4B29266  38.681  41.670   7.653
 7149POPC   NC329267  15.221  38.469   9.453
 7149POPC   PO429268  15.150  38.495   9.153
 7149POPC   GL129269  15.181  38.482   8.853
 7149POPC   GL229270  15.288  38.353   8.853
 7149POPC   C1A29271  15.170  38.405   8.553
 7149POPC   D2A29272  15.165  38.491   8.253
 7149POPC   C3A29273  15.161  38.407   7.953
 7149POPC   C4A29274  15.147  38.438   7.653
 7149POPC   C1B29275  15.405  38.372   8.553
 7149POPC   C2B29276  15.368  38.324   8.253
 7149POPC   C3B29277  15.353  38.300   7.953
 7149POPC   C4B29278  15.434  38.355   7.653
 7150POPC   NC329279   2.812  31.464   9.453
 7150POPC   PO429280   2.791  31.456   9.153
 7150POPC   GL129281   2.794  31.442   8.853
 7150POPC   GL229282   2.681  31.625   8.853
 7150POPC   C1A29283   2.803  31.520   8.553
 7150POPC   D2A29284   2.781  31.487   8.253
 7150POPC   C3A29285   2.741  31.486   7.953
 7150POPC   C4A29286   2.801  31.510   7.653
 7150POPC   C1B29287   2.635  31.720   8.553
 7150POPC   C2B29288   2.694  31.664   8.253
 7150POPC   C3B29289   2.699  31.709   7.953
 7150POPC   C4B29290   2.603  31.738   7.653
 7151POPC   NC329291  43.090  43.101   9.453
 7151POPC   PO429292  43.118  43.137   9.153
 7151POPC   GL129293  43.141  43.061   8.853
 7151POPC   GL229294  43.107  43.264   8.853
 7151POPC   C1A29295  43.104  43.108   8.553
 7151POPC   D2A29296  43.089  43.073   8.253
 7151POPC   C3A29297  43.072  43.142   7.953
 7151POPC   C4A29298  43.141  43.064   7.653
 7151POPC   C1B29299  43.153  43.405   8.553
 7151POPC   C2B29300  43.194  43.404   8.253
 7151POPC   C3B29301  43.176  43.401   7.953
 7151POPC   C4B29302  43.194  43.401   7.653
 7152POPC   NC329303  29.891  31.429   9.453
 7152POPC   PO429304  29.963  31.474   9.153
 7152POPC   GL129305  29.933  31.504   8.853
 7152POPC   GL229306  29.815  31.433   8.853
 7152POPC   C1A29307  29.884  31.482   8.553
 7152POPC   D2A29308  29.946  31.432   8.253
 7152POPC   C3A29309  29.880  31.500   7.953
 7152POPC   C4A29310  29.951  31.430   7.653
 7152POPC   C1B29311  29.728  31.329   8.553
 7152POPC   C2B29312  29.686  31.415   8.253
 7152POPC   C3B29313  29.683  31.378   7.953
 7152POPC   C4B29314  29.738  31.415   7.653
 7153POPC   NC329315   8.953  14.367   9.453
 7153POPC   PO429316   8.950  14.445   9.153
 7153POPC   GL129317   8.990  14.411   8.853
 7153POPC   GL229318   8.879  14.309   8.853
 7153POPC   C1A29319   8.939  14.420   8.553
 7153POPC   D2A29320   8.987  14.391   8.253
 7153POPC   C3A29321   8.944  14.423   7.953
 7153POPC   C4A29322   8.924  14.424   7.653
 7153POPC   C1B29323   8.904  14.203   8.553
 7153POPC   C2B29324   8.876  14.180   8.253
 7153POPC   C3B29325   8.821  14.212   7.953
 7153POPC   C4B29326   8.811  14.225   7.653
 7154POPC   NC329327  26.007  22.169   9.453
 7154POPC   PO429328  26.032  22.167   9.153
 7154POPC   GL129329  26.055  22.169   8.853
 7154POPC   GL229330  25.880  22.248   8.853
 7154POPC   C1A29331  26.004  22.139   8.553
 7154POPC   D2A29332  26.009  22.191   8.253
 7154POPC   C3A29333  26.033  22.113   7.953
 7154POPC   C4A29334  26.013  22.174   7.653
 7154POPC   C1B29335  25.780  22.227   8.553
 7154POPC   C2B29336  25.799  22.239   8.253
 7154POPC   C3B29337  25.782  22.268   7.953
 7154POPC   C4B29338  25.805  22.212   7.653
 7155POPC   NC329339   9.770  44.642   9.453
 7155POPC   PO429340   9.713  44.690   9.153
 7155POPC   GL129341   9.788  44.625   8.853
 7155POPC   GL229342   9.835  44.648   8.853
 7155POPC   C1A29343   9.748  44.699   8.553
 7155POPC   D2A29344   9.742  44.695   8.253
 7155POPC   C3A29345   9.724  44.632   7.953
 7155POPC   C4A29346   9.785  44.698   7.653
 7155POPC   C1B29347  10.009  44.564   8.553
 7155POPC   C2B29348   9.994  44.599   8.253
 7155POPC   C3B29349  10.005  44.516   7.953
 7155POPC   C4B29350  10.004  44.509   7.653
 7156POPC   NC329351  30.653  36.096   9.453
 7156POPC   PO429352  30.661  36.143   9.153
 7156POPC   GL129353  30.726  36.172   8.853
 7156POPC   GL229354  30.774  36.082   8.853
 7156POPC   C1A29355  30.702  36.087   8.553
 7156POPC   D2A29356  30.719  36.078   8.253
 7156POPC   C3A29357  30.739  36.105   7.953
 7156POPC   C4A29358  30.653  36.164   7.653
 7156POPC   C1B29359  30.839  35.965   8.553
 7156POPC   C2B29360  30.857  35.947   8.253
 7156POPC   C3B29361  30.902  35.913   7.953
 7156POPC   C4B29362  30.831  35.905   7.653
 7157POPC   NC329363  23.749  26.031   9.453
 7157POPC   PO429364  23.674  26.058   9.153
 7157POPC   GL129365  23.723  26.084   8.853
 7157POPC   GL229366  23.803  25.975   8.853
 7157POPC   C1A29367  23.756  26.074   8.553
 7157POPC   D2A29368  23.707  26.026   8.253
 7157POPC   C3A29369  23.687  26.028   7.953
 7157POPC   C4A29370  23.703  26.024   7.653
 7157POPC   C1B29371  23.953  25.906   8.553
 7157POPC   C2B29372  23.988  25.979   8.253
 7157POPC   C3B29373  23.901  25.953   7.953
 7157POPC   C4B29374  23.935  25.938   7.653
 7158POPC   NC329375  19.074  32.210   9.453
 7158POPC   PO429376  19.084  32.275   9.153
 7158POPC   GL129377  19.070  32.249   8.853
 7158POPC   GL229378  19.023  32.132   8.853
 7158POPC   C1A29379  19.072  32.255   8.553
 7158POPC   D2A29380  19.053  32.295   8.253
 7158POPC   C3A29381  19.107  32.296   7.953
 7158POPC   C4A29382  19.021  32.259   7.653
 7158POPC   C1B29383  19.024  31.967   8.553
 7158POPC   C2B29384  18.964  31.983   8.253
 7158POPC   C3B29385  19.045  31.989   7.953
 7158POPC   C4B29386  19.042  32.028   7.653
 7159POPC   NC329387  28.400  27.576   9.453
 7159POPC   PO429388  28.369  27.635   9.153
 7159POPC   GL129389  28.407  27.615   8.853
 7159POPC   GL229390  28.223  27.580   8.853
 7159POPC   C1A29391  28.395  27.610   8.553
 7159POPC   D2A29392  28.389  27.612   8.253
 7159POPC   C3A29393  28.409  27.628   7.953
 7159POPC   C4A29394  28.350  27.638   7.653
 7159POPC   C1B29395  28.169  27.460   8.553
 7159POPC   C2B29396  28.176  27.479   8.253
 7159POPC   C3B29397  28.124  27.522   7.953
 7159POPC   C4B29398  28.113  27.474   7.653
 7160POPC   NC329399  17.546  27.566   9.453
 7160POPC   PO429400  17.540  27.562   9.153
 7160POPC   GL129401  17.496  27.589   8.853
 7160POPC   GL229402  17.371  27.595   8.853
 7160POPC   C1A29403  17.513  27.577   8.553
 7160POPC   D2A29404  17.543  27.640   8.253
 7160POPC   C3A29405  17.545  27.639   7.953
 7160POPC   C4A29406  17.480  27.630   7.653
 7160POPC   C1B29407  17.256  27.639   8.553
 7160POPC   C2B29408  17.297  27.674   8.253
 7160POPC   C3B29409  17.251  27.669   7.953
 7160POPC   C4B29410  17.312  27.703   7.653
 7161POPC   NC329411  20.591  25.994   9.453
 7161POPC   PO429412  20.600  25.993   9.153
 7161POPC   GL129413  20.584  26.015   8.853
 7161POPC   GL229414  20.726  26.073   8.853
 7161POPC   C1A29415  20.623  26.039   8.553
 7161POPC   D2A29416  20.595  26.071   8.253
 7161POPC   C3A29417  20.574  26.049   7.953
 7161POPC   C4A29418  20.585  26.065   7.653
 7161POPC   C1B29419  20.871  26.126   8.553
 7161POPC   C2B29420  20.879  26.164   8.253
 7161POPC   C3B29421  20.886  26.133   7.953
 7161POPC   C4B29422  20.888  26.091   7.653
 7162POPC   NC329423   7.418  37.655   9.453
 7162POPC   PO429424   7.399  37.666   9.153
 7162POPC   GL129425   7.384  37.675   8.853
 7162POPC   GL229426   7.419  37.804   8.853
 7162POPC   C1A29427   7.432  37.653   8.553
 7162POPC   D2A29428   7.395  37.680   8.253
 7162POPC   C3A29429   7.470  37.686   7.953
 7162POPC   C4A29430   7.402  37.650   7.653
 7162POPC   C1B29431   7.340  37.931   8.553
 7162POPC   C2B29432   7.315  37.950   8.253
 7162POPC   C3B29433   7.407  37.954   7.953
 7162POPC   C4B29434   7.409  37.915   7.653
 7163POPC   NC329435  41.544  23.706   9.453
 7163POPC   PO429436  41.570  23.690   9.153
 7163POPC   GL129437  41.551  23.746   8.853
 7163POPC   GL229438  41.719  23.647   8.853
 7163POPC   C1A29439  41.510  23.738   8.553
 7163POPC   D2A29440  41.578  23.757   8.253
 7163POPC   C3A29441  41.562  23.730   7.953
 7163POPC   C4A29442  41.557  23.708   7.653
 7163POPC   C1B29443  41.756  23.660   8.553
 7163POPC   C2B29444  41.822  23.604   8.253
 7163POPC   C3B29445  41.795  23.660   7.953
 7163POPC   C4B29446  41.757  23.632   7.653
 7164POPC   NC329447  26.773  25.256   9.453
 7164POPC   PO429448  26.826  25.280   9.153
 7164POPC   GL129449  26.845  25.217   8.853
 7164POPC   GL229450  26.838  25.166   8.853
 7164POPC   C1A29451  26.856  25.234   8.553
 7164POPC   D2A29452  26.801  25.259   8.253
 7164POPC   C3A29453  26.776  25.217   7.953
 7164POPC   C4A29454  26.771  25.273   7.653
 7164POPC   C1B29455  26.752  24.990   8.553
 7164POPC   C2B29456  26.766  24.975   8.253
 7164POPC   C3B29457  26.829  25.053   7.953
 7164POPC   C4B29458  26.793  25.063   7.653
 7165POPC   NC329459  10.499   7.453   9.453
 7165POPC   PO429460  10.528   7.459   9.153
 7165POPC   GL129461  10.518   7.461   8.853
 7165POPC   GL229462  10.607   7.485   8.853
 7165POPC   C1A29463  10.536   7.428   8.553
 7165POPC   D2A29464  10.512   7.447   8.253
 7165POPC   C3A29465  10.558   7.412   7.953
 7165POPC   C4A29466  10.530   7.416   7.653
 7165POPC   C1B29467  10.619   7.673   8.553
 7165POPC   C2B29468  10.597   7.596   8.253
 7165POPC   C3B29469  10.642   7.672   7.953
 7165POPC   C4B29470  10.680   7.608   7.653
 7166POPC   NC329471   2.792  36.079   9.453
 7166POPC   PO429472   2.746  36.113   9.153
 7166POPC   GL129473   2.808  36.088   8.853
 7166POPC   GL229474   2.644  36.250   8.853
 7166POPC   C1A29475   2.813  36.171   8.553
 7166POPC   D2A29476   2.752  36.126   8.253
 7166POPC   C3A29477   2.718  36.163   7.953
 7166POPC   C4A29478   2.774  36.082   7.653
 7166POPC   C1B29479   2.553  36.248   8.553
 7166POPC   C2B29480   2.570  36.243   8.253
 7166POPC   C3B29481   2.516  36.295   7.953
 7166POPC   C4B29482   2.512  36.294   7.653
 7167POPC   NC329483  39.255  27.602   9.453
 7167POPC   PO429484  39.252  27.636   9.153
 7167POPC   GL129485  39.240  27.591   8.853
 7167POPC   GL229486  39.235  27.512   8.853
 7167POPC   C1A29487  39.220  27.564   8.553
 7167POPC   D2A29488  39.227  27.589   8.253
 7167POPC   C3A29489  39.230  27.602   7.953
 7167POPC   C4A29490  39.196  27.543   7.653
 7167POPC   C1B29491  39.158  27.385   8.553
 7167POPC   C2B29492  39.173  27.301   8.253
 7167POPC   C3B29493  39.163  27.327   7.953
 7167POPC   C4B29494  39.176  27.313   7.653
 7168POPC   NC329495  15.907  29.962   9.453
 7168POPC   PO429496  15.972  29.885   9.153
 7168POPC   GL129497  15.959  29.942   8.853
 7168POPC   GL229498  15.943  30.011   8.853
 7168POPC   C1A29499  15.990  29.877   8.553
 7168POPC   D2A29500  15.936  29.933   8.253
 7168POPC   C3A29501  15.928  29.901   7.953
 7168POPC   C4A29502  15.976  29.907   7.653
 7168POPC   C1B29503  15.858  30.114   8.553
 7168POPC   C2B29504  15.893  30.097   8.253
 7168POPC   C3B29505  15.822  30.098   7.953
 7168POPC   C4B29506  15.891  30.106   7.653
 7169POPC   NC329507  37.684  26.000   9.453
 7169POPC   PO429508  37.718  26.089   9.153
 7169POPC   GL129509  37.650  26.053   8.853
 7169POPC   GL229510  37.609  26.184   8.853
 7169POPC   C1A29511  37.698  26.089   8.553
 7169POPC   D2A29512  37.691  26.027   8.253
 7169POPC   C3A29513  37.688  26.072   7.953
 7169POPC   C4A29514  37.635  26.041   7.653
 7169POPC   C1B29515  37.566  26.257   8.553
 7169POPC   C2B29516  37.627  26.264   8.253
 7169POPC   C3B29517  37.620  26.282   7.953
 7169POPC   C4B29518  37.576  26.321   7.653
 7170POPC   NC329519  20.637  24.441   9.453
 7170POPC   PO429520  20.618  24.498   9.153
 7170POPC   GL129521  20.627  24.508   8.853
 7170POPC   GL229522  20.562  24.428   8.853
 7170POPC   C1A29523  20.570  24.476   8.553
 7170POPC   D2A29524  20.634  24.513   8.253
 7170POPC   C3A29525  20.613  24.470   7.953
 7170POPC   C4A29526  20.628  24.489   7.653
 7170POPC   C1B29527  20.419  24.331   8.553
 7170POPC   C2B29528  20.412  24.338   8.253
 7170POPC   C3B29529  20.439  24.299   7.953
 7170POPC   C4B29530  20.406  24.341   7.653
 7171POPC   NC329531   1.259  43.090   9.453
 7171POPC   PO429532   1.234  43.076   9.153
 7171POPC   GL129533   1.209  43.107   8.853
 7171POPC   GL229534   1.255  43.049   8.853
 7171POPC   C1A29535   1.221  43.153   8.553
 7171POPC   D2A29536   1.239  43.158   8.253
 7171POPC   C3A29537   1.188  43.109   7.953
 7171POPC   C4A29538   1.207  43.087   7.653
 7171POPC   C1B29539   1.360  42.881   8.553
 7171POPC   C2B29540   1.379  42.868   8.253
 7171POPC   C3B29541   1.388  42.950   7.953
 7171POPC   C4B29542   1.332  42.935   7.653
 7172POPC   NC329543  29.961  39.198   9.453
 7172POPC   PO429544  29.872  39.209   9.153
 7172POPC   GL129545  29.881  39.192   8.853
 7172POPC   GL229546  29.853  39.324   8.853
 7172POPC   C1A29547  29.964  39.277   8.553
 7172POPC   D2A29548  29.879  39.240   8.253
 7172POPC   C3A29549  29.890  39.225   7.953
 7172POPC   C4A29550  29.944  39.244   7.653
 7172POPC   C1B29551  29.807  39.475   8.553
 7172POPC   C2B29552  29.851  39.467   8.253
 7172POPC   C3B29553  29.824  39.483   7.953
 7172POPC   C4B29554  29.797  39.434   7.653
 7173POPC   NC329555  33.762   0.437   9.453
 7173POPC   PO429556  33.841   0.410   9.153
 7173POPC   GL129557  33.764   0.426   8.853
 7173POPC   GL229558  33.887   0.277   8.853
 7173POPC   C1A29559  33.850   0.444   8.553
 7173POPC   D2A29560  33.829   0.457   8.253
 7173POPC   C3A29561  33.836   0.427   7.953
 7173POPC   C4A29562  33.751   0.397   7.653
 7173POPC   C1B29563  33.860   0.164   8.553
 7173POPC   C2B29564  33.882   0.178   8.253
 7173POPC   C3B29565  33.888   0.210   7.953
 7173POPC   C4B29566  33.881   0.187   7.653
 7174POPC   NC329567  36.952  22.138   9.453
 7174POPC   PO429568  36.928  22.132   9.153
 7174POPC   GL129569  36.886  22.176   8.853
 7174POPC   GL229570  36.819  22.021   8.853
 7174POPC   C1A29571  36.934  22.187   8.553
 7174POPC   D2A29572  36.855  22.174   8.253
 7174POPC   C3A29573  36.915  22.145   7.953
 7174POPC   C4A29574  36.937  22.179   7.653
 7174POPC   C1B29575  36.825  21.874   8.553
 7174POPC   C2B29576  36.875  21.894   8.253
 7174POPC   C3B29577  36.874  21.901   7.953
 7174POPC   C4B29578  36.850  21.914   7.653
 7175POPC   NC329579  32.205  27.566   9.453
 7175POPC   PO429580  32.219  27.633   9.153
 7175POPC   GL129581  32.212  27.588   8.853
 7175POPC   GL229582  32.350  27.625   8.853
 7175POPC   C1A29583  32.211  27.563   8.553
 7175POPC   D2A29584  32.293  27.585   8.253
 7175POPC   C3A29585  32.280  27.563   7.953
 7175POPC   C4A29586  32.292  27.587   7.653
 7175POPC   C1B29587  32.517  27.610   8.553
 7175POPC   C2B29588  32.474  27.546   8.253
 7175POPC   C3B29589  32.480  27.630   7.953
 7175POPC   C4B29590  32.483  27.567   7.653
 7176POPC   NC329591  26.043  13.652   9.453
 7176POPC   PO429592  26.032  13.582   9.153
 7176POPC   GL129593  26.012  13.634   8.853
 7176POPC   GL229594  25.922  13.598   8.853
 7176POPC   C1A29595  26.073  13.608   8.553
 7176POPC   D2A29596  26.072  13.578   8.253
 7176POPC   C3A29597  26.030  13.662   7.953
 7176POPC   C4A29598  26.051  13.653   7.653
 7176POPC   C1B29599  25.816  13.566   8.553
 7176POPC   C2B29600  25.801  13.545   8.253
 7176POPC   C3B29601  25.788  13.544   7.953
 7176POPC   C4B29602  25.767  13.564   7.653
 7177POPC   NC329603  34.591   9.774   9.453
 7177POPC   PO429604  34.596   9.787   9.153
 7177POPC   GL129605  34.621   9.780   8.853
 7177POPC   GL229606  34.683   9.629   8.853
 7177POPC   C1A29607  34.623   9.722   8.553
 7177POPC   D2A29608  34.609   9.723   8.253
 7177POPC   C3A29609  34.621   9.730   7.953
 7177POPC   C4A29610  34.547   9.712   7.653
 7177POPC   C1B29611  34.819   9.611   8.553
 7177POPC   C2B29612  34.738   9.637   8.253
 7177POPC   C3B29613  34.758   9.610   7.953
 7177POPC   C4B29614  34.741   9.631   7.653
 7178POPC   NC329615  35.311  28.371   9.453
 7178POPC   PO429616  35.399  28.326   9.153
 7178POPC   GL129617  35.371  28.410   8.853
 7178POPC   GL229618  35.462  28.308   8.853
 7178POPC   C1A29619  35.362  28.347   8.553
 7178POPC   D2A29620  35.335  28.324   8.253
 7178POPC   C3A29621  35.385  28.404   7.953
 7178POPC   C4A29622  35.392  28.366   7.653
 7178POPC   C1B29623  35.576  28.324   8.553
 7178POPC   C2B29624  35.605  28.245   8.253
 7178POPC   C3B29625  35.617  28.264   7.953
 7178POPC   C4B29626  35.613  28.302   7.653
 7179POPC   NC329627  16.689  28.357   9.453
 7179POPC   PO429628  16.730  28.371   9.153
 7179POPC   GL129629  16.757  28.380   8.853
 7179POPC   GL229630  16.774  28.209   8.853
 7179POPC   C1A29631  16.732  28.370   8.553
 7179POPC   D2A29632  16.751  28.374   8.253
 7179POPC   C3A29633  16.695  28.417   7.953
 7179POPC   C4A29634  16.744  28.355   7.653
 7179POPC   C1B29635  16.786  28.151   8.553
 7179POPC   C2B29636  16.808  28.093   8.253
 7179POPC   C3B29637  16.743  28.161   7.953
 7179POPC   C4B29638  16.769  28.158   7.653
 7180POPC   NC329639   1.241   9.714   9.453
 7180POPC   PO429640   1.246   9.770   9.153
 7180POPC   GL129641   1.193   9.789   8.853
 7180POPC   GL229642   1.149   9.873   8.853
 7180POPC   C1A29643   1.259   9.748   8.553
 7180POPC   D2A29644   1.250   9.727   8.253
 7180POPC   C3A29645   1.226   9.755   7.953
 7180POPC   C4A29646   1.183   9.748   7.653
 7180POPC   C1B29647   1.193   9.981   8.553
 7180POPC   C2B29648   1.192   9.955   8.253
 7180POPC   C3B29649   1.157   9.979   7.953
 7180POPC   C4B29650   1.203  10.044   7.653
 7181POPC   NC329651   5.854   3.582   9.453
 7181POPC   PO429652   5.865   3.522   9.153
 7181POPC   GL129653   5.847   3.560   8.853
 7181POPC   GL229654   5.817   3.459   8.853
 7181POPC   C1A29655   5.878   3.564   8.553
 7181POPC   D2A29656   5.888   3.590   8.253
 7181POPC   C3A29657   5.916   3.524   7.953
 7181POPC   C4A29658   5.891   3.571   7.653
 7181POPC   C1B29659   5.888   3.268   8.553
 7181POPC   C2B29660   5.846   3.294   8.253
 7181POPC   C3B29661   5.841   3.299   7.953
 7181POPC   C4B29662   5.828   3.287   7.653
 7182POPC   NC329663  18.303  40.018   9.453
 7182POPC   PO429664  18.292  40.006   9.153
 7182POPC   GL129665  18.299  39.978   8.853
 7182POPC   GL229666  18.331  39.853   8.853
 7182POPC   C1A29667  18.261  40.032   8.553
 7182POPC   D2A29668  18.251  40.022   8.253
 7182POPC   C3A29669  18.310  39.970   7.953
 7182POPC   C4A29670  18.278  40.050   7.653
 7182POPC   C1B29671  18.340  39.721   8.553
 7182POPC   C2B29672  18.327  39.763   8.253
 7182POPC   C3B29673  18.329  39.744   7.953
 7182POPC   C4B29674  18.340  39.785   7.653
 7183POPC   NC329675  41.511  22.950   9.453
 7183POPC   PO429676  41.527  22.919   9.153
 7183POPC   GL129677  41.601  22.901   8.853
 7183POPC   GL229678  41.455  22.975   8.853
 7183POPC   C1A29679  41.527  22.942   8.553
 7183POPC   D2A29680  41.601  22.890   8.253
 7183POPC   C3A29681  41.589  22.979   7.953
 7183POPC   C4A29682  41.559  22.920   7.653
 7183POPC   C1B29683  41.303  22.879   8.553
 7183POPC   C2B29684  41.340  22.951   8.253
 7183POPC   C3B29685  41.351  22.894   7.953
 7183POPC   C4B29686  41.306  22.969   7.653
 7184POPC   NC329687  12.828  17.488   9.453
 7184POPC   PO429688  12.872  17.474   9.153
 7184POPC   GL129689  12.803  17.522   8.853
 7184POPC   GL229690  12.741  17.460   8.853
 7184POPC   C1A29691  12.859  17.465   8.553
 7184POPC   D2A29692  12.826  17.516   8.253
 7184POPC   C3A29693  12.894  17.472   7.953
 7184POPC   C4A29694  12.829  17.488   7.653
 7184POPC   C1B29695  12.635  17.532   8.553
 7184POPC   C2B29696  12.650  17.494   8.253
 7184POPC   C3B29697  12.556  17.470   7.953
 7184POPC   C4B29698  12.585  17.474   7.653
 7185POPC   NC329699  39.231   6.665   9.453
 7185POPC   PO429700  39.201   6.681   9.153
 7185POPC   GL129701  39.263   6.654   8.853
 7185POPC   GL229702  39.142   6.790   8.853
 7185POPC   C1A29703  39.236   6.613   8.553
 7185POPC   D2A29704  39.254   6.613   8.253
 7185POPC   C3A29705  39.242   6.635   7.953
 7185POPC   C4A29706  39.243   6.598   7.653
 7185POPC   C1B29707  39.198   6.837   8.553
 7185POPC   C2B29708  39.104   6.835   8.253
 7185POPC   C3B29709  39.118   6.894   7.953
 7185POPC   C4B29710  39.193   6.896   7.653
 7186POPC   NC329711  33.009  27.585   9.453
 7186POPC   PO429712  33.058  27.615   9.153
 7186POPC   GL129713  33.066  27.612   8.853
 7186POPC   GL229714  32.966  27.468   8.853
 7186POPC   C1A29715  33.059  27.592   8.553
 7186POPC   D2A29716  32.986  27.570   8.253
 7186POPC   C3A29717  33.018  27.617   7.953
 7186POPC   C4A29718  33.020  27.583   7.653
 7186POPC   C1B29719  32.985  27.302   8.553
 7186POPC   C2B29720  32.999  27.382   8.253
 7186POPC   C3B29721  32.945  27.353   7.953
 7186POPC   C4B29722  33.016  27.326   7.653
 7187POPC   NC329723  32.235  15.222   9.453
 7187POPC   PO429724  32.247  15.197   9.153
 7187POPC   GL129725  32.199  15.138   8.853
 7187POPC   GL229726  32.327  15.152   8.853
 7187POPC   C1A29727  32.290  15.134   8.553
 7187POPC   D2A29728  32.255  15.208   8.253
 7187POPC   C3A29729  32.239  15.187   7.953
 7187POPC   C4A29730  32.210  15.175   7.653
 7187POPC   C1B29731  32.492  15.206   8.553
 7187POPC   C2B29732  32.532  15.206   8.253
 7187POPC   C3B29733  32.490  15.155   7.953
 7187POPC   C4B29734  32.507  15.165   7.653
 7188POPC   NC329735  27.551  36.872   9.453
 7188POPC   PO429736  27.620  36.870   9.153
 7188POPC   GL129737  27.568  36.934   8.853
 7188POPC   GL229738  27.590  36.775   8.853
 7188POPC   C1A29739  27.560  36.908   8.553
 7188POPC   D2A29740  27.638  36.886   8.253
 7188POPC   C3A29741  27.586  36.911   7.953
 7188POPC   C4A29742  27.579  36.861   7.653
 7188POPC   C1B29743  27.519  36.665   8.553
 7188POPC   C2B29744  27.506  36.696   8.253
 7188POPC   C3B29745  27.528  36.703   7.953
 7188POPC   C4B29746  27.517  36.623   7.653
 7189POPC   NC329747  44.614   5.089   9.453
 7189POPC   PO429748  44.612   5.104   9.153
 7189POPC   GL129749  44.680   5.112   8.853
 7189POPC   GL229750  44.750   5.054   8.853
 7189POPC   C1A29751  44.705   5.069   8.553
 7189POPC   D2A29752  44.655   5.090   8.253
 7189POPC   C3A29753  44.690   5.056   7.953
 7189POPC   C4A29754  44.647   5.107   7.653
 7189POPC   C1B29755  44.840   4.976   8.553
 7189POPC   C2B29756  44.875   4.983   8.253
 7189POPC   C3B29757  44.833   4.954   7.953
 7189POPC   C4B29758  44.830   4.914   7.653
 7190POPC   NC329759  14.381  19.098   9.453
 7190POPC   PO429760  14.406  19.011   9.153
 7190POPC   GL129761  14.415  19.099   8.853
 7190POPC   GL229762  14.251  19.004   8.853
 7190POPC   C1A29763  14.389  19.095   8.553
 7190POPC   D2A29764  14.425  19.076   8.253
 7190POPC   C3A29765  14.400  19.031   7.953
 7190POPC   C4A29766  14.376  19.056   7.653
 7190POPC   C1B29767  14.116  18.988   8.553
 7190POPC   C2B29768  14.203  19.002   8.253
 7190POPC   C3B29769  14.121  19.031   7.953
 7190POPC   C4B29770  14.208  18.974   7.653
 7191POPC   NC329771   5.134  34.530   9.453
 7191POPC   PO429772   5.103  34.530   9.153
 7191POPC   GL129773   5.051  34.535   8.853
 7191POPC   GL229774   5.036  34.673   8.853
 7191POPC   C1A29775   5.104  34.535   8.553
 7191POPC   D2A29776   5.097  34.597   8.253
 7191POPC   C3A29777   5.048  34.527   7.953
 7191POPC   C4A29778   5.064  34.564   7.653
 7191POPC   C1B29779   4.936  34.775   8.553
 7191POPC   C2B29780   4.918  34.734   8.253
 7191POPC   C3B29781   4.936  34.785   7.953
 7191POPC   C4B29782   4.962  34.809   7.653
 7192POPC   NC329783   9.707   5.864   9.453
 7192POPC   PO429784   9.774   5.887   9.153
 7192POPC   GL129785   9.764   5.825   8.853
 7192POPC   GL229786   9.703   5.987   8.853
 7192POPC   C1A29787   9.769   5.893   8.553
 7192POPC   D2A29788   9.733   5.846   8.253
 7192POPC   C3A29789   9.776   5.895   7.953
 7192POPC   C4A29790   9.791   5.894   7.653
 7192POPC   C1B29791   9.575   6.127   8.553
 7192POPC   C2B29792   9.637   6.072   8.253
 7192POPC   C3B29793   9.650   6.097   7.953
 7192POPC   C4B29794   9.659   6.118   7.653
 7193POPC   NC329795  32.236  29.106   9.453
 7193POPC   PO429796  32.272  29.116   9.153
 7193POPC   GL129797  32.213  29.136   8.853
 7193POPC   GL229798  32.219  29.287   8.853
 7193POPC   C1A29799  32.261  29.134   8.553
 7193POPC   D2A29800  32.261  29.116   8.253
 7193POPC   C3A29801  32.225  29.159   7.953
 7193POPC   C4A29802  32.266  29.103   7.653
 7193POPC   C1B29803  32.229  29.365   8.553
 7193POPC   C2B29804  32.225  29.345   8.253
 7193POPC   C3B29805  32.215  29.367   7.953
 7193POPC   C4B29806  32.194  29.359   7.653
 7194POPC   NC329807  32.280  26.058   9.453
 7194POPC   PO429808  32.252  26.001   9.153
 7194POPC   GL129809  32.203  26.048   8.853
 7194POPC   GL229810  32.166  25.915   8.853
 7194POPC   C1A29811  32.238  26.006   8.553
 7194POPC   D2A29812  32.293  26.040   8.253
 7194POPC   C3A29813  32.276  26.046   7.953
 7194POPC   C4A29814  32.228  26.051   7.653
 7194POPC   C1B29815  32.132  25.764   8.553
 7194POPC   C2B29816  32.192  25.806   8.253
 7194POPC   C3B29817  32.182  25.848   7.953
 7194POPC   C4B29818  32.180  25.785   7.653
 7195POPC   NC329819  44.620  28.356   9.453
 7195POPC   PO429820  44.704  28.353   9.153
 7195POPC   GL129821  44.632  28.329   8.853
 7195POPC   GL229822  44.684  28.453   8.853
 7195POPC   C1A29823  44.636  28.357   8.553
 7195POPC   D2A29824  44.709  28.408   8.253
 7195POPC   C3A29825  44.695  28.337   7.953
 7195POPC   C4A29826  44.657  28.385   7.653
 7195POPC   C1B29827  44.749  28.643   8.553
 7195POPC   C2B29828  44.746  28.589   8.253
 7195POPC   C3B29829  44.704  28.633   7.953
 7195POPC   C4B29830  44.735  28.650   7.653
 7196POPC   NC329831  29.138  33.838   9.453
 7196POPC   PO429832  29.186  33.765   9.153
 7196POPC   GL129833  29.128  33.847   8.853
 7196POPC   GL229834  29.261  33.678   8.853
 7196POPC   C1A29835  29.177  33.787   8.553
 7196POPC   D2A29836  29.159  33.763   8.253
 7196POPC   C3A29837  29.157  33.768   7.953
 7196POPC   C4A29838  29.112  33.764   7.653
 7196POPC   C1B29839  29.366  33.665   8.553
 7196POPC   C2B29840  29.361  33.578   8.253
 7196POPC   C3B29841  29.284  33.579   7.953
 7196POPC   C4B29842  29.314  33.645   7.653
 7197POPC   NC329843  12.834  41.568   9.453
 7197POPC   PO429844  12.891  41.546   9.153
 7197POPC   GL129845  12.893  41.509   8.853
 7197POPC   GL229846  12.760  41.534   8.853
 7197POPC   C1A29847  12.871  41.603   8.553
 7197POPC   D2A29848  12.841  41.572   8.253
 7197POPC   C3A29849  12.804  41.546   7.953
 7197POPC   C4A29850  12.880  41.544   7.653
 7197POPC   C1B29851  12.674  41.459   8.553
 7197POPC   C2B29852  12.672  41.401   8.253
 7197POPC   C3B29853  12.674  41.466   7.953
 7197POPC   C4B29854  12.601  41.437   7.653
 7198POPC   NC329855  39.966   4.283   9.453
 7198POPC   PO429856  39.990   4.280   9.153
 7198POPC   GL129857  40.040   4.311   8.853
 7198POPC   GL229858  40.133   4.276   8.853
 7198POPC   C1A29859  40.041   4.269   8.553
 7198POPC   D2A29860  39.964   4.306   8.253
 7198POPC   C3A29861  40.019   4.296   7.953
 7198POPC   C4A29862  40.006   4.335   7.653
 7198POPC   C1B29863  40.196   4.221   8.553
 7198POPC   C2B29864  40.230   4.274   8.253
 7198POPC   C3B29865  40.234   4.229   7.953
 7198POPC   C4B29866  40.279   4.191   7.653
 7199POPC   NC329867  29.958   2.806   9.453
 7199POPC   PO429868  29.937   2.750   9.153
 7199POPC   GL129869  29.961   2.804   8.853
 7199POPC   GL229870  29.969   2.668   8.853
 7199POPC   C1A29871  29.934   2.784   8.553
 7199POPC   D2A29872  29.917   2.790   8.253
 7199POPC   C3A29873  29.925   2.804   7.953
 7199POPC   C4A29874  29.910   2.780   7.653
 7199POPC   C1B29875  29.988   2.529   8.553
 7199POPC   C2B29876  29.970   2.574   8.253
 7199POPC   C3B29877  29.999   2.571   7.953
 7199POPC   C4B29878  30.025   2.494   7.653
 7200POPC   NC329879  31.505  36.100   9.453
 7200POPC   PO429880  31.493  36.135   9.153
 7200POPC   GL129881  31.481  36.128   8.853
 7200POPC   GL229882  31.618  36.218   8.853
 7200POPC   C1A29883  31.473  36.133   8.553
 7200POPC   D2A29884  31.451  36.141   8.253
 7200POPC   C3A29885  31.469  36.146   7.953
 7200POPC   C4A29886  31.502  36.158   7.653
 7200POPC   C1B29887  31.728  36.269   8.553
 7200POPC   C2B29888  31.661  36.232   8.253
 7200POPC   C3B29889  31.676  36.200   7.953
 7200POPC   C4B29890  31.669  36.200   7.653
 7201POPC   NC329891  12.067   1.184   9.453
 7201POPC   PO429892  12.111   1.176   9.153
 7201POPC   GL129893  12.087   1.262   8.853
 7201POPC   GL229894  12.013   1.307   8.853
 7201POPC   C1A29895  12.032   1.195   8.553
 7201POPC   D2A29896  12.069   1.226   8.253
 7201POPC   C3A29897  12.054   1.259   7.953
 7201POPC   C4A29898  12.068   1.203   7.653
 7201POPC   C1B29899  11.971   1.431   8.553
 7201POPC   C2B29900  11.982   1.460   8.253
 7201POPC   C3B29901  11.948   1.469   7.953
 7201POPC   C4B29902  12.016   1.477   7.653
 7202POPC   NC329903  36.915  20.573   9.453
 7202POPC   PO429904  36.893  20.593   9.153
 7202POPC   GL129905  36.918  20.658   8.853
 7202POPC   GL229906  36.813  20.560   8.853
 7202POPC   C1A29907  36.855  20.655   8.553
 7202POPC   D2A29908  36.910  20.622   8.253
 7202POPC   C3A29909  36.889  20.576   7.953
 7202POPC   C4A29910  36.882  20.586   7.653
 7202POPC   C1B29911  36.682  20.399   8.553
 7202POPC   C2B29912  36.676  20.421   8.253
 7202POPC   C3B29913  36.751  20.484   7.953
 7202POPC   C4B29914  36.736  20.434   7.653
 7203POPC   NC329915  24.527  42.356   9.453
 7203POPC   PO429916  24.511  42.295   9.153
 7203POPC   GL129917  24.441  42.314   8.853
 7203POPC   GL229918  24.525  42.438   8.853
 7203POPC   C1A29919  24.503  42.318   8.553
 7203POPC   D2A29920  24.494  42.360   8.253
 7203POPC   C3A29921  24.486  42.358   7.953
 7203POPC   C4A29922  24.455  42.364   7.653
 7203POPC   C1B29923  24.640  42.509   8.553
 7203POPC   C2B29924  24.613  42.555   8.253
 7203POPC   C3B29925  24.574  42.532   7.953
 7203POPC   C4B29926  24.643  42.520   7.653
 7204POPC   NC329927  11.283   7.406   9.453
 7204POPC   PO429928  11.343   7.448   9.153
 7204POPC   GL129929  11.319   7.449   8.853
 7204POPC   GL229930  11.442   7.432   8.853
 7204POPC   C1A29931  11.292   7.448   8.553
 7204POPC   D2A29932  11.349   7.393   8.253
 7204POPC   C3A29933  11.297   7.396   7.953
 7204POPC   C4A29934  11.269   7.463   7.653
 7204POPC   C1B29935  11.500   7.372   8.553
 7204POPC   C2B29936  11.534   7.401   8.253
 7204POPC   C3B29937  11.515   7.406   7.953
 7204POPC   C4B29938  11.508   7.443   7.653
 7205POPC   NC329939  37.690  27.571   9.453
 7205POPC   PO429940  37.644  27.587   9.153
 7205POPC   GL129941  37.644  27.620   8.853
 7205POPC   GL229942  37.584  27.668   8.853
 7205POPC   C1A29943  37.648  27.607   8.553
 7205POPC   D2A29944  37.707  27.590   8.253
 7205POPC   C3A29945  37.674  27.615   7.953
 7205POPC   C4A29946  37.644  27.556   7.653
 7205POPC   C1B29947  37.566  27.827   8.553
 7205POPC   C2B29948  37.558  27.769   8.253
 7205POPC   C3B29949  37.560  27.845   7.953
 7205POPC   C4B29950  37.607  27.798   7.653
 7206POPC   NC329951  28.415  31.471   9.453
 7206POPC   PO429952  28.411  31.472   9.153
 7206POPC   GL129953  28.377  31.428   8.853
 7206POPC   GL229954  28.234  31.519   8.853
 7206POPC   C1A29955  28.377  31.489   8.553
 7206POPC   D2A29956  28.381  31.504   8.253
 7206POPC   C3A29957  28.385  31.510   7.953
 7206POPC   C4A29958  28.380  31.510   7.653
 7206POPC   C1B29959  28.111  31.460   8.553
 7206POPC   C2B29960  28.141  31.515   8.253
 7206POPC   C3B29961  28.160  31.523   7.953
 7206POPC   C4B29962  28.151  31.473   7.653
 7207POPC   NC329963  42.338   9.735   9.453
 7207POPC   PO429964  42.299   9.726   9.153
 7207POPC   GL129965  42.366   9.757   8.853
 7207POPC   GL229966  42.410   9.675   8.853
 7207POPC   C1A29967  42.380   9.783   8.553
 7207POPC   D2A29968  42.343   9.753   8.253
 7207POPC   C3A29969  42.304   9.718   7.953
 7207POPC   C4A29970  42.341   9.779   7.653
 7207POPC   C1B29971  42.434   9.543   8.553
 7207POPC   C2B29972  42.462   9.573   8.253
 7207POPC   C3B29973  42.507   9.541   7.953
 7207POPC   C4B29974  42.440   9.514   7.653
 7208POPC   NC329975  10.534  28.323   9.453
 7208POPC   PO429976  10.478  28.416   9.153
 7208POPC   GL129977  10.550  28.415   8.853
 7208POPC   GL229978  10.415  28.422   8.853
 7208POPC   C1A29979  10.511  28.370   8.553
 7208POPC   D2A29980  10.502  28.321   8.253
 7208POPC   C3A29981  10.475  28.412   7.953
 7208POPC   C4A29982  10.539  28.358   7.653
 7208POPC   C1B29983  10.329  28.490   8.553
 7208POPC   C2B29984  10.279  28.544   8.253
 7208POPC   C3B29985  10.290  28.513   7.953
 7208POPC   C4B29986  10.350  28.476   7.653
 7209POPC   NC329987  36.151   8.201   9.453
 7209POPC   PO429988  36.090   8.152   9.153
 7209POPC   GL129989  36.129   8.216   8.853
 7209POPC   GL229990  36.194   8.286   8.853
 7209POPC   C1A29991  36.148   8.161   8.553
 7209POPC   D2A29992  36.098   8.159   8.253
 7209POPC   C3A29993  36.115   8.238   7.953
 7209POPC   C4A29994  36.171   8.206   7.653
 7209POPC   C1B29995  36.391   8.351   8.553
 7209POPC   C2B29996  36.329   8.337   8.253
 7209POPC   C3B29997  36.377   8.306   7.953
 7209POPC   C4B29998  36.330   8.280   7.653
 7210POPC   NC329999  40.795   5.052   9.453
 7210POPC   PO430000  40.752   5.052   9.153
 7210POPC   GL130001  40.802   5.110   8.853
 7210POPC   GL230002  40.872   5.236   8.853
 7210POPC   C1A30003  40.813   5.141   8.553
 7210POPC   D2A30004  40.800   5.057   8.253
 7210POPC   C3A30005  40.773   5.079   7.953
 7210POPC   C4A30006  40.790   5.072   7.653
 7210POPC   C1B30007  40.937   5.281   8.553
 7210POPC   C2B30008  40.939   5.290   8.253
 7210POPC   C3B30009  40.937   5.311   7.953
 7210POPC   C4B30010  40.893   5.335   7.653
 7211POPC   NC330011   7.460  20.655   9.453
 7211POPC   PO430012   7.456  20.640   9.153
 7211POPC   GL130013   7.389  20.578   8.853
 7211POPC   GL230014   7.440  20.531   8.853
 7211POPC   C1A30015   7.416  20.625   8.553
 7211POPC   D2A30016   7.442  20.590   8.253
 7211POPC   C3A30017   7.397  20.579   7.953
 7211POPC   C4A30018   7.461  20.639   7.653
 7211POPC   C1B30019   7.453  20.405   8.553
 7211POPC   C2B30020   7.431  20.400   8.253
 7211POPC   C3B30021   7.403  20.354   7.953
 7211POPC   C4B30022   7.443  20.371   7.653
 7212POPC   NC330023  22.128   7.456   9.453
 7212POPC   PO430024  22.148   7.405   9.153
 7212POPC   GL130025  22.179   7.383   8.853
 7212POPC   GL230026  22.213   7.503   8.853
 7212POPC   C1A30027  22.144   7.435   8.553
 7212POPC   D2A30028  22.128   7.399   8.253
 7212POPC   C3A30029  22.125   7.443   7.953
 7212POPC   C4A30030  22.199   7.406   7.653
 7212POPC   C1B30031  22.219   7.617   8.553
 7212POPC   C2B30032  22.270   7.687   8.253
 7212POPC   C3B30033  22.281   7.624   7.953
 7212POPC   C4B30034  22.221   7.677   7.653
 7213POPC   NC330035  33.782  10.563   9.453
 7213POPC   PO430036  33.773  10.555   9.153
 7213POPC   GL130037  33.775  10.559   8.853
 7213POPC   GL230038  33.707  10.417   8.853
 7213POPC   C1A30039  33.804  10.527   8.553
 7213POPC   D2A30040  33.798  10.476   8.253
 7213POPC   C3A30041  33.771  10.523   7.953
 7213POPC   C4A30042  33.763  10.519   7.653
 7213POPC   C1B30043  33.714  10.275   8.553
 7213POPC   C2B30044  33.667  10.351   8.253
 7213POPC   C3B30045  33.658  10.357   7.953
 7213POPC   C4B30046  33.643  10.322   7.653
 7214POPC   NC330047  17.535  26.848   9.453
 7214POPC   PO430048  17.529  26.827   9.153
 7214POPC   GL130049  17.500  26.820   8.853
 7214POPC   GL230050  17.416  26.737   8.853
 7214POPC   C1A30051  17.548  26.828   8.553
 7214POPC   D2A30052  17.521  26.852   8.253
 7214POPC   C3A30053  17.469  26.816   7.953
 7214POPC   C4A30054  17.510  26.855   7.653
 7214POPC   C1B30055  17.299  26.602   8.553
 7214POPC   C2B30056  17.357  26.625   8.253
 7214POPC   C3B30057  17.346  26.604   7.953
 7214POPC   C4B30058  17.366  26.685   7.653
 7215POPC   NC330059  40.733   2.772   9.453
 7215POPC   PO430060  40.790   2.762   9.153
 7215POPC   GL130061  40.735   2.754   8.853
 7215POPC   GL230062  40.628   2.814   8.853
 7215POPC   C1A30063  40.797   2.780   8.553
 7215POPC   D2A30064  40.805   2.815   8.253
 7215POPC   C3A30065  40.830   2.767   7.953
 7215POPC   C4A30066  40.812   2.760   7.653
 7215POPC   C1B30067  40.524   2.841   8.553
 7215POPC   C2B30068  40.505   2.842   8.253
 7215POPC   C3B30069  40.546   2.859   7.953
 7215POPC   C4B30070  40.546   2.884   7.653
 7216POPC   NC330071   4.318  26.864   9.453
 7216POPC   PO430072   4.269  26.786   9.153
 7216POPC   GL130073   4.269  26.850   8.853
 7216POPC   GL230074   4.422  26.817   8.853
 7216POPC   C1A30075   4.284  26.772   8.553
 7216POPC   D2A30076   4.315  26.841   8.253
 7216POPC   C3A30077   4.331  26.852   7.953
 7216POPC   C4A30078   4.335  26.806   7.653
 7216POPC   C1B30079   4.601  26.759   8.553
 7216POPC   C2B30080   4.586  26.840   8.253
 7216POPC   C3B30081   4.591  26.802   7.953
 7216POPC   C4B30082   4.535  26.774   7.653
 7217POPC   NC330083   1.194   2.792   9.453
 7217POPC   PO430084   1.165   2.769   9.153
 7217POPC   GL130085   1.205   2.808   8.853
 7217POPC   GL230086   1.373   2.843   8.853
 7217POPC   C1A30087   1.168   2.774   8.553
 7217POPC   D2A30088   1.263   2.773   8.253
 7217POPC   C3A30089   1.258   2.762   7.953
 7217POPC   C4A30090   1.214   2.759   7.653
 7217POPC   C1B30091   1.463   2.807   8.553
 7217POPC   C2B30092   1.431   2.794   8.253
 7217POPC   C3B30093   1.422   2.865   7.953
 7217POPC   C4B30094   1.463   2.877   7.653
 7218POPC   NC330095   9.007  43.865   9.453
 7218POPC   PO430096   8.952  43.849   9.153
 7218POPC   GL130097   8.969  43.857   8.853
 7218POPC   GL230098   8.880  43.878   8.853
 7218POPC   C1A30099   8.962  43.883   8.553
 7218POPC   D2A30100   8.959  43.871   8.253
 7218POPC   C3A30101   8.986  43.894   7.953
 7218POPC   C4A30102   8.939  43.915   7.653
 7218POPC   C1B30103   8.757  43.816   8.553
 7218POPC   C2B30104   8.787  43.774   8.253
 7218POPC   C3B30105   8.699  43.820   7.953
 7218POPC   C4B30106   8.776  43.729   7.653
 7219POPC   NC330107  33.000  29.105   9.453
 7219POPC   PO430108  33.048  29.134   9.153
 7219POPC   GL130109  33.043  29.174   8.853
 7219POPC   GL230110  32.941  29.176   8.853
 7219POPC   C1A30111  33.074  29.155   8.553
 7219POPC   D2A30112  33.059  29.153   8.253
 7219POPC   C3A30113  33.036  29.157   7.953
 7219POPC   C4A30114  32.986  29.128   7.653
 7219POPC   C1B30115  32.810  29.226   8.553
 7219POPC   C2B30116  32.804  29.173   8.253
 7219POPC   C3B30117  32.766  29.161   7.953
 7219POPC   C4B30118  32.740  29.180   7.653
 7220POPC   NC330119  33.052  10.496   9.453
 7220POPC   PO430120  33.001  10.493   9.153
 7220POPC   GL130121  33.053  10.533   8.853
 7220POPC   GL230122  32.965  10.644   8.853
 7220POPC   C1A30123  33.031  10.524   8.553
 7220POPC   D2A30124  33.064  10.558   8.253
 7220POPC   C3A30125  33.017  10.547   7.953
 7220POPC   C4A30126  33.068  10.494   7.653
 7220POPC   C1B30127  32.943  10.725   8.553
 7220POPC   C2B30128  32.947  10.729   8.253
 7220POPC   C3B30129  32.993  10.779   7.953
 7220POPC   C4B30130  32.908  10.765   7.653
 7221POPC   NC330131   8.190  23.689   9.453
 7221POPC   PO430132   8.159  23.692   9.153
 7221POPC   GL130133   8.207  23.696   8.853
 7221POPC   GL230134   8.242  23.840   8.853
 7221POPC   C1A30135   8.223  23.739   8.553
 7221POPC   D2A30136   8.187  23.750   8.253
 7221POPC   C3A30137   8.236  23.697   7.953
 7221POPC   C4A30138   8.191  23.693   7.653
 7221POPC   C1B30139   8.280  23.939   8.553
 7221POPC   C2B30140   8.283  23.954   8.253
 7221POPC   C3B30141   8.278  23.970   7.953
 7221POPC   C4B30142   8.216  23.996   7.653
 7222POPC   NC330143  29.912  23.755   9.453
 7222POPC   PO430144  29.891  23.750   9.153
 7222POPC   GL130145  29.962  23.689   8.853
 7222POPC   GL230146  29.942  23.541   8.853
 7222POPC   C1A30147  29.948  23.680   8.553
 7222POPC   D2A30148  29.882  23.746   8.253
 7222POPC   C3A30149  29.923  23.672   7.953
 7222POPC   C4A30150  29.966  23.762   7.653
 7222POPC   C1B30151  29.955  23.427   8.553
 7222POPC   C2B30152  29.964  23.449   8.253
 7222POPC   C3B30153  29.899  23.429   7.953
 7222POPC   C4B30154  29.934  23.471   7.653
 7223POPC   NC330155  18.245  28.379   9.453
 7223POPC   PO430156  18.246  28.334   9.153
 7223POPC   GL130157  18.303  28.413   8.853
 7223POPC   GL230158  18.229  28.474   8.853
 7223POPC   C1A30159  18.255  28.353   8.553
 7223POPC   D2A30160  18.233  28.377   8.253
 7223POPC   C3A30161  18.325  28.367   7.953
 7223POPC   C4A30162  18.282  28.343   7.653
 7223POPC   C1B30163  18.071  28.532   8.553
 7223POPC   C2B30164  18.111  28.472   8.253
 7223POPC   C3B30165  18.105  28.515   7.953
 7223POPC   C4B30166  18.078  28.512   7.653
 7224POPC   NC330167  15.986  41.514   9.453
 7224POPC   PO430168  15.959  41.593   9.153
 7224POPC   GL130169  15.978  41.511   8.853
 7224POPC   GL230170  16.038  41.503   8.853
 7224POPC   C1A30171  15.921  41.531   8.553
 7224POPC   D2A30172  15.970  41.549   8.253
 7224POPC   C3A30173  15.916  41.541   7.953
 7224POPC   C4A30174  15.959  41.601   7.653
 7224POPC   C1B30175  16.208  41.402   8.553
 7224POPC   C2B30176  16.203  41.400   8.253
 7224POPC   C3B30177  16.193  41.456   7.953
 7224POPC   C4B30178  16.170  41.417   7.653
 7225POPC   NC330179  28.356  33.757   9.453
 7225POPC   PO430180  28.331  33.832   9.153
 7225POPC   GL130181  28.381  33.798   8.853
 7225POPC   GL230182  28.478  33.872   8.853
 7225POPC   C1A30183  28.327  33.760   8.553
 7225POPC   D2A30184  28.360  33.814   8.253
 7225POPC   C3A30185  28.327  33.785   7.953
 7225POPC   C4A30186  28.377  33.790   7.653
 7225POPC   C1B30187  28.579  33.918   8.553
 7225POPC   C2B30188  28.611  33.900   8.253
 7225POPC   C3B30189  28.594  33.901   7.953
 7225POPC   C4B30190  28.594  33.921   7.653
 7226POPC   NC330191   8.994  12.114   9.453
 7226POPC   PO430192   8.961  12.082   9.153
 7226POPC   GL130193   8.952  12.089   8.853
 7226POPC   GL230194   8.877  12.014   8.853
 7226POPC   C1A30195   8.927  12.057   8.553
 7226POPC   D2A30196   8.951  12.076   8.253
 7226POPC   C3A30197   8.951  12.091   7.953
 7226POPC   C4A30198   8.938  12.083   7.653
 7226POPC   C1B30199   8.721  11.905   8.553
 7226POPC   C2B30200   8.806  11.971   8.253
 7226POPC   C3B30201   8.766  11.904   7.953
 7226POPC   C4B30202   8.765  11.973   7.653
 7227POPC   NC330203  33.064  32.997   9.453
 7227POPC   PO430204  33.038  32.982   9.153
 7227POPC   GL130205  33.029  33.034   8.853
 7227POPC   GL230206  33.052  32.931   8.853
 7227POPC   C1A30207  33.022  33.029   8.553
 7227POPC   D2A30208  33.064  33.011   8.253
 7227POPC   C3A30209  33.050  33.057   7.953
 7227POPC   C4A30210  33.048  33.028   7.653
 7227POPC   C1B30211  33.026  32.780   8.553
 7227POPC   C2B30212  32.984  32.817   8.253
 7227POPC   C3B30213  33.000  32.743   7.953
 7227POPC   C4B30214  33.072  32.766   7.653
 7228POPC   NC330215   2.739  19.100   9.453
 7228POPC   PO430216   2.780  19.052   9.153
 7228POPC   GL130217   2.804  19.019   8.853
 7228POPC   GL230218   2.887  19.174   8.853
 7228POPC   C1A30219   2.723  19.079   8.553
 7228POPC   D2A30220   2.782  19.032   8.253
 7228POPC   C3A30221   2.746  19.049   7.953
 7228POPC   C4A30222   2.730  19.095   7.653
 7228POPC   C1B30223   2.958  19.235   8.553
 7228POPC   C2B30224   2.967  19.228   8.253
 7228POPC   C3B30225   2.891  19.252   7.953
 7228POPC   C4B30226   2.926  19.232   7.653
 7229POPC   NC330227   1.210  23.726   9.453
 7229POPC   PO430228   1.212  23.744   9.153
 7229POPC   GL130229   1.207  23.721   8.853
 7229POPC   GL230230   1.075  23.840   8.853
 7229POPC   C1A30231   1.202  23.748   8.553
 7229POPC   D2A30232   1.258  23.749   8.253
 7229POPC   C3A30233   1.216  23.685   7.953
 7229POPC   C4A30234   1.253  23.735   7.653
 7229POPC   C1B30235   1.024  23.858   8.553
 7229POPC   C2B30236   0.996  23.857   8.253
 7229POPC   C3B30237   0.997  23.909   7.953
 7229POPC   C4B30238   0.995  23.879   7.653
 7230POPC   NC330239  25.269  26.812   9.453
 7230POPC   PO430240  25.260  26.847   9.153
 7230POPC   GL130241  25.253  26.794   8.853
 7230POPC   GL230242  25.343  26.708   8.853
 7230POPC   C1A30243  25.273  26.796   8.553
 7230POPC   D2A30244  25.277  26.802   8.253
 7230POPC   C3A30245  25.315  26.832   7.953
 7230POPC   C4A30246  25.227  26.841   7.653
 7230POPC   C1B30247  25.460  26.679   8.553
 7230POPC   C2B30248  25.489  26.701   8.253
 7230POPC   C3B30249  25.456  26.687   7.953
 7230POPC   C4B30250  25.433  26.635   7.653
 7231POPC   NC330251  40.746  14.453   9.453
 7231POPC   PO430252  40.816  14.406   9.153
 7231POPC   GL130253  40.740  14.378   8.853
 7231POPC   GL230254  40.845  14.543   8.853
 7231POPC   C1A30255  40.742  14.411   8.553
 7231POPC   D2A30256  40.767  14.434   8.253
 7231POPC   C3A30257  40.775  14.370   7.953
 7231POPC   C4A30258  40.764  14.354   7.653
 7231POPC   C1B30259  40.883  14.597   8.553
 7231POPC   C2B30260  40.885  14.584   8.253
 7231POPC   C3B30261  40.860  14.635   7.953
 7231POPC   C4B30262  40.941  14.582   7.653
 7232POPC   NC330263   2.736   8.160   9.453
 7232POPC   PO430264   2.788   8.230   9.153
 7232POPC   GL130265   2.798   8.222   8.853
 7232POPC   GL230266   2.867   8.311   8.853
 7232POPC   C1A30267   2.778   8.197   8.553
 7232POPC   D2A30268   2.814   8.157   8.253
 7232POPC   C3A30269   2.779   8.234   7.953
 7232POPC   C4A30270   2.782   8.149   7.653
 7232POPC   C1B30271   2.990   8.349   8.553
 7232POPC   C2B30272   2.932   8.339   8.253
 7232POPC   C3B30273   2.981   8.367   7.953
 7232POPC   C4B30274   2.921   8.411   7.653
 7233POPC   NC330275   8.932  22.126   9.453
 7233POPC   PO430276   8.923  22.164   9.153
 7233POPC   GL130277   8.950  22.147   8.853
 7233POPC   GL230278   8.900  22.182   8.853
 7233POPC   C1A30279   8.940  22.180   8.553
 7233POPC   D2A30280   8.969  22.194   8.253
 7233POPC   C3A30281   8.985  22.199   7.953
 7233POPC   C4A30282   8.955  22.162   7.653
 7233POPC   C1B30283   8.689  22.262   8.553
 7233POPC   C2B30284   8.708  22.266   8.253
 7233POPC   C3B30285   8.749  22.221   7.953
 7233POPC   C4B30286   8.760  22.236   7.653
 7234POPC   NC330287  38.416   1.986   9.453
 7234POPC   PO430288  38.487   1.943   9.153
 7234POPC   GL130289  38.473   1.951   8.853
 7234POPC   GL230290  38.357   1.918   8.853
 7234POPC   C1A30291  38.425   1.950   8.553
 7234POPC   D2A30292  38.431   1.989   8.253
 7234POPC   C3A30293  38.439   1.958   7.953
 7234POPC   C4A30294  38.450   2.001   7.653
 7234POPC   C1B30295  38.311   1.807   8.553
 7234POPC   C2B30296  38.401   1.722   8.253
 7234POPC   C3B30297  38.336   1.768   7.953
 7234POPC   C4B30298  38.382   1.727   7.653
 7235POPC   NC330299  39.271   1.262   9.453
 7235POPC   PO430300  39.217   1.166   9.153
 7235POPC   GL130301  39.278   1.187   8.853
 7235POPC   GL230302  39.245   1.125   8.853
 7235POPC   C1A30303  39.272   1.164   8.553
 7235POPC   D2A30304  39.278   1.216   8.253
 7235POPC   C3A30305  39.278   1.200   7.953
 7235POPC   C4A30306  39.241   1.250   7.653
 7235POPC   C1B30307  39.310   1.016   8.553
 7235POPC   C2B30308  39.281   1.027   8.253
 7235POPC   C3B30309  39.325   0.950   7.953
 7235POPC   C4B30310  39.330   0.984   7.653
 7236POPC   NC330311   8.948   7.447   9.453
 7236POPC   PO430312   8.926   7.384   9.153
 7236POPC   GL130313   8.980   7.380   8.853
 7236POPC   GL230314   8.832   7.483   8.853
 7236POPC   C1A30315   8.961   7.407   8.553
 7236POPC   D2A30316   8.936   7.405   8.253
 7236POPC   C3A30317   9.004   7.425   7.953
 7236POPC   C4A30318   8.962   7.435   7.653
 7236POPC   C1B30319   8.779   7.509   8.553
 7236POPC   C2B30320   8.772   7.516   8.253
 7236POPC   C3B30321   8.772   7.469   7.953
 7236POPC   C4B30322   8.691   7.553   7.653
 7237POPC   NC330323  26.043  10.496   9.453
 7237POPC   PO430324  26.020  10.544   9.153
 7237POPC   GL130325  26.075  10.547   8.853
 7237POPC   GL230326  26.131  10.447   8.853
 7237POPC   C1A30327  26.041  10.554   8.553
 7237POPC   D2A30328  26.014  10.481   8.253
 7237POPC   C3A30329  26.083  10.484   7.953
 7237POPC   C4A30330  26.059  10.516   7.653
 7237POPC   C1B30331  26.237  10.424   8.553
 7237POPC   C2B30332  26.300  10.435   8.253
 7237POPC   C3B30333  26.277  10.357   7.953
 7237POPC   C4B30334  26.280  10.445   7.653
 7238POPC   NC330335   0.478   7.373   9.453
 7238POPC   PO430336   0.444   7.454   9.153
 7238POPC   GL130337   0.388   7.399   8.853
 7238POPC   GL230338   0.589   7.502   8.853
 7238POPC   C1A30339   0.397   7.406   8.553
 7238POPC   D2A30340   0.425   7.420   8.253
 7238POPC   C3A30341   0.416   7.389   7.953
 7238POPC   C4A30342   0.438   7.378   7.653
 7238POPC   C1B30343   0.672   7.518   8.553
 7238POPC   C2B30344   0.623   7.512   8.253
 7238POPC   C3B30345   0.630   7.534   7.953
 7238POPC   C4B30346   0.641   7.595   7.653
 7239POPC   NC330347  10.534  29.950   9.453
 7239POPC   PO430348  10.496  29.928   9.153
 7239POPC   GL130349  10.540  29.960   8.853
 7239POPC   GL230350  10.457  29.771   8.853
 7239POPC   C1A30351  10.568  29.970   8.553
 7239POPC   D2A30352  10.524  29.927   8.253
 7239POPC   C3A30353  10.541  29.872   7.953
 7239POPC   C4A30354  10.539  29.922   7.653
 7239POPC   C1B30355  10.448  29.733   8.553
 7239POPC   C2B30356  10.370  29.671   8.253
 7239POPC   C3B30357  10.374  29.712   7.953
 7239POPC   C4B30358  10.438  29.662   7.653
 7240POPC   NC330359  32.250  11.295   9.453
 7240POPC   PO430360  32.207  11.326   9.153
 7240POPC   GL130361  32.250  11.305   8.853
 7240POPC   GL230362  32.157  11.357   8.853
 7240POPC   C1A30363  32.219  11.252   8.553
 7240POPC   D2A30364  32.223  11.264   8.253
 7240POPC   C3A30365  32.210  11.331   7.953
 7240POPC   C4A30366  32.290  11.305   7.653
 7240POPC   C1B30367  32.044  11.382   8.553
 7240POPC   C2B30368  32.030  11.408   8.253
 7240POPC   C3B30369  31.978  11.369   7.953
 7240POPC   C4B30370  32.061  11.417   7.653
 7241POPC   NC330371  35.393  12.026   9.453
 7241POPC   PO430372  35.372  12.106   9.153
 7241POPC   GL130373  35.383  12.089   8.853
 7241POPC   GL230374  35.396  12.231   8.853
 7241POPC   C1A30375  35.386  12.076   8.553
 7241POPC   D2A30376  35.334  12.045   8.253
 7241POPC   C3A30377  35.333  12.061   7.953
 7241POPC   C4A30378  35.332  12.028   7.653
 7241POPC   C1B30379  35.382  12.289   8.553
 7241POPC   C2B30380  35.429  12.272   8.253
 7241POPC   C3B30381  35.407  12.284   7.953
 7241POPC   C4B30382  35.438  12.319   7.653
 7242POPC   NC330383   8.220  36.891   9.453
 7242POPC   PO430384   8.169  36.859   9.153
 7242POPC   GL130385   8.198  36.855   8.853
 7242POPC   GL230386   8.033  36.931   8.853
 7242POPC   C1A30387   8.228  36.897   8.553
 7242POPC   D2A30388   8.212  36.900   8.253
 7242POPC   C3A30389   8.211  36.874   7.953
 7242POPC   C4A30390   8.240  36.902   7.653
 7242POPC   C1B30391   7.919  36.918   8.553
 7242POPC   C2B30392   7.968  36.924   8.253
 7242POPC   C3B30393   7.945  36.961   7.953
 7242POPC   C4B30394   7.962  36.964   7.653
 7243POPC   NC330395  43.845  22.186   9.453
 7243POPC   PO430396  43.869  22.176   9.153
 7243POPC   GL130397  43.904  22.126   8.853
 7243POPC   GL230398  44.024  22.256   8.853
 7243POPC   C1A30399  43.840  22.203   8.553
 7243POPC   D2A30400  43.840  22.199   8.253
 7243POPC   C3A30401  43.893  22.196   7.953
 7243POPC   C4A30402  43.931  22.115   7.653
 7243POPC   C1B30403  44.144  22.324   8.553
 7243POPC   C2B30404  44.083  22.242   8.253
 7243POPC   C3B30405  44.081  22.273   7.953
 7243POPC   C4B30406  44.062  22.320   7.653
 7244POPC   NC330407  13.613   0.401   9.453
 7244POPC   PO430408  13.609   0.451   9.153
 7244POPC   GL130409  13.618   0.405   8.853
 7244POPC   GL230410  13.537   0.321   8.853
 7244POPC   C1A30411  13.608   0.438   8.553
 7244POPC   D2A30412  13.601   0.404   8.253
 7244POPC   C3A30413  13.644   0.394   7.953
 7244POPC   C4A30414  13.602   0.408   7.653
 7244POPC   C1B30415  13.526   0.183   8.553
 7244POPC   C2B30416  13.516   0.224   8.253
 7244POPC   C3B30417  13.518   0.179   7.953
 7244POPC   C4B30418  13.561   0.192   7.653
 7245POPC   NC330419   8.211  22.211   9.453
 7245POPC   PO430420   8.241  22.191   9.153
 7245POPC   GL130421   8.221  22.202   8.853
 7245POPC   GL230422   8.205  22.269   8.853
 7245POPC   C1A30423   8.223  22.179   8.553
 7245POPC   D2A30424   8.206  22.187   8.253
 7245POPC   C3A30425   8.183  22.192   7.953
 7245POPC   C4A30426   8.167  22.199   7.653
 7245POPC   C1B30427   8.261  22.398   8.553
 7245POPC   C2B30428   8.230  22.382   8.253
 7245POPC   C3B30429   8.233  22.376   7.953
 7245POPC   C4B30430   8.212  22.385   7.653
 7246POPC   NC330431  44.678  25.265   9.453
 7246POPC   PO430432  44.694  25.223   9.153
 7246POPC   GL130433  44.674  25.285   8.853
 7246POPC   GL230434  44.719  25.364   8.853
 7246POPC   C1A30435  44.657  25.234   8.553
 7246POPC   D2A30436  44.686  25.298   8.253
 7246POPC   C3A30437  44.705  25.232   7.953
 7246POPC   C4A30438  44.651  25.282   7.653
 7246POPC   C1B30439  44.847  25.449   8.553
 7246POPC   C2B30440  44.854  25.486   8.253
 7246POPC   C3B30441  44.818  25.451   7.953
 7246POPC   C4B30442  44.789  25.458   7.653
 7247POPC   NC330443  29.956  12.898   9.453
 7247POPC   PO430444  29.941  12.875   9.153
 7247POPC   GL130445  29.898  12.829   8.853
 7247POPC   GL230446  29.877  12.946   8.853
 7247POPC   C1A30447  29.943  12.822   8.553
 7247POPC   D2A30448  29.935  12.843   8.253
 7247POPC   C3A30449  29.912  12.863   7.953
 7247POPC   C4A30450  29.937  12.825   7.653
 7247POPC   C1B30451  29.819  13.069   8.553
 7247POPC   C2B30452  29.839  13.046   8.253
 7247POPC   C3B30453  29.887  13.091   7.953
 7247POPC   C4B30454  29.835  13.111   7.653
 7248POPC   NC330455   8.169  20.565   9.453
 7248POPC   PO430456   8.245  20.581   9.153
 7248POPC   GL130457   8.175  20.574   8.853
 7248POPC   GL230458   8.233  20.731   8.853
 7248POPC   C1A30459   8.217  20.575   8.553
 7248POPC   D2A30460   8.237  20.628   8.253
 7248POPC   C3A30461   8.226  20.583   7.953
 7248POPC   C4A30462   8.201  20.562   7.653
 7248POPC   C1B30463   8.250  20.869   8.553
 7248POPC   C2B30464   8.262  20.805   8.253
 7248POPC   C3B30465   8.217  20.839   7.953
 7248POPC   C4B30466   8.281  20.817   7.653
 7249POPC   NC330467   5.054   5.108   9.453
 7249POPC   PO430468   5.138   5.057   9.153
 7249POPC   GL130469   5.123   5.059   8.853
 7249POPC   GL230470   5.066   4.925   8.853
 7249POPC   C1A30471   5.073   5.068   8.553
 7249POPC   D2A30472   5.100   5.122   8.253
 7249POPC   C3A30473   5.058   5.138   7.953
 7249POPC   C4A30474   5.117   5.112   7.653
 7249POPC   C1B30475   4.993   4.840   8.553
 7249POPC   C2B30476   5.009   4.813   8.253
 7249POPC   C3B30477   5.011   4.802   7.953
 7249POPC   C4B30478   4.997   4.849   7.653
 7250POPC   NC330479  21.376  43.914   9.453
 7250POPC   PO430480  21.410  43.905   9.153
 7250POPC   GL130481  21.357  43.864   8.853
 7250POPC   GL230482  21.507  43.959   8.853
 7250POPC   C1A30483  21.430  43.929   8.553
 7250POPC   D2A30484  21.341  43.878   8.253
 7250POPC   C3A30485  21.394  43.929   7.953
 7250POPC   C4A30486  21.414  43.866   7.653
 7250POPC   C1B30487  21.552  44.055   8.553
 7250POPC   C2B30488  21.574  44.082   8.253
 7250POPC   C3B30489  21.581  44.101   7.953
 7250POPC   C4B30490  21.539  44.116   7.653
 7251POPC   NC330491  37.690   8.181   9.453
 7251POPC   PO430492  37.721   8.244   9.153
 7251POPC   GL130493  37.722   8.162   8.853
 7251POPC   GL230494  37.610   8.285   8.853
 7251POPC   C1A30495  37.635   8.179   8.553
 7251POPC   D2A30496  37.723   8.237   8.253
 7251POPC   C3A30497  37.665   8.204   7.953
 7251POPC   C4A30498  37.710   8.229   7.653
 7251POPC   C1B30499  37.500   8.368   8.553
 7251POPC   C2B30500  37.586   8.364   8.253
 7251POPC   C3B30501  37.495   8.434   7.953
 7251POPC   C4B30502  37.587   8.404   7.653
 7252POPC   NC330503  17.457  22.141   9.453
 7252POPC   PO430504  17.467  22.196   9.153
 7252POPC   GL130505  17.489  22.117   8.853
 7252POPC   GL230506  17.592  22.246   8.853
 7252POPC   C1A30507  17.554  22.154   8.553
 7252POPC   D2A30508  17.494  22.157   8.253
 7252POPC   C3A30509  17.546  22.203   7.953
 7252POPC   C4A30510  17.500  22.125   7.653
 7252POPC   C1B30511  17.640  22.396   8.553
 7252POPC   C2B30512  17.667  22.414   8.253
 7252POPC   C3B30513  17.659  22.336   7.953
 7252POPC   C4B30514  17.667  22.404   7.653
 7253POPC   NC330515  42.285  37.663   9.453
 7253POPC   PO430516  42.338  37.635   9.153
 7253POPC   GL130517  42.288  37.693   8.853
 7253POPC   GL230518  42.230  37.790   8.853
 7253POPC   C1A30519  42.333  37.674   8.553
 7253POPC   D2A30520  42.310  37.654   8.253
 7253POPC   C3A30521  42.317  37.682   7.953
 7253POPC   C4A30522  42.325  37.727   7.653
 7253POPC   C1B30523  42.194  37.804   8.553
 7253POPC   C2B30524  42.141  37.885   8.253
 7253POPC   C3B30525  42.186  37.855   7.953
 7253POPC   C4B30526  42.127  37.845   7.653
 7254POPC   NC330527  39.245  24.529   9.453
 7254POPC   PO430528  39.270  24.497   9.153
 7254POPC   GL130529  39.237  24.480   8.853
 7254POPC   GL230530  39.066  24.480   8.853
 7254POPC   C1A30531  39.250  24.523   8.553
 7254POPC   D2A30532  39.262  24.461   8.253
 7254POPC   C3A30533  39.235  24.530   7.953
 7254POPC   C4A30534  39.263  24.468   7.653
 7254POPC   C1B30535  38.939  24.485   8.553
 7254POPC   C2B30536  38.973  24.463   8.253
 7254POPC   C3B30537  38.951  24.541   7.953
 7254POPC   C4B30538  38.961  24.533   7.653
 7255POPC   NC330539  33.039  12.042   9.453
 7255POPC   PO430540  33.041  12.113   9.153
 7255POPC   GL130541  33.069  12.078   8.853
 7255POPC   GL230542  33.021  11.993   8.853
 7255POPC   C1A30543  33.074  12.068   8.553
 7255POPC   D2A30544  33.018  12.087   8.253
 7255POPC   C3A30545  33.065  12.045   7.953
 7255POPC   C4A30546  33.056  12.080   7.653
 7255POPC   C1B30547  32.947  11.873   8.553
 7255POPC   C2B30548  32.982  11.791   8.253
 7255POPC   C3B30549  32.988  11.860   7.953
 7255POPC   C4B30550  32.913  11.857   7.653
 7256POPC   NC330551  29.952  40.009   9.453
 7256POPC   PO430552  29.878  39.964   9.153
 7256POPC   GL130553  29.965  40.015   8.853
 7256POPC   GL230554  29.824  39.937   8.853
 7256POPC   C1A30555  29.943  40.022   8.553
 7256POPC   D2A30556  29.905  39.987   8.253
 7256POPC   C3A30557  29.957  40.028   7.953
 7256POPC   C4A30558  29.928  40.028   7.653
 7256POPC   C1B30559  29.694  39.862   8.553
 7256POPC   C2B30560  29.728  39.916   8.253
 7256POPC   C3B30561  29.671  39.905   7.953
 7256POPC   C4B30562  29.690  39.920   7.653
 7257POPC   NC330563  39.250  22.923   9.453
 7257POPC   PO430564  39.201  22.952   9.153
 7257POPC   GL130565  39.239  22.985   8.853
 7257POPC   GL230566  39.098  22.939   8.853
 7257POPC   C1A30567  39.207  22.956   8.553
 7257POPC   D2A30568  39.221  22.902   8.253
 7257POPC   C3A30569  39.264  22.921   7.953
 7257POPC   C4A30570  39.187  22.970   7.653
 7257POPC   C1B30571  38.993  22.994   8.553
 7257POPC   C2B30572  39.045  22.977   8.253
 7257POPC   C3B30573  38.954  23.065   7.953
 7257POPC   C4B30574  39.004  23.062   7.653
 7258POPC   NC330575   1.953  24.477   9.453
 7258POPC   PO430576   1.948  24.498   9.153
 7258POPC   GL130577   2.013  24.511   8.853
 7258POPC   GL230578   1.912  24.549   8.853
 7258POPC   C1A30579   1.985  24.506   8.553
 7258POPC   D2A30580   2.037  24.528   8.253
 7258POPC   C3A30581   1.955  24.454   7.953
 7258POPC   C4A30582   1.989  24.499   7.653
 7258POPC   C1B30583   1.826  24.656   8.553
 7258POPC   C2B30584   1.764  24.647   8.253
 7258POPC   C3B30585   1.848  24.617   7.953
 7258POPC   C4B30586   1.772  24.693   7.653
 7259POPC   NC330587  31.507  24.493   9.453
 7259POPC   PO430588  31.433  24.519   9.153
 7259POPC   GL130589  31.434  24.528   8.853
 7259POPC   GL230590  31.306  24.432   8.853
 7259POPC   C1A30591  31.436  24.492   8.553
 7259POPC   D2A30592  31.456  24.529   8.253
 7259POPC   C3A30593  31.479  24.498   7.953
 7259POPC   C4A30594  31.494  24.495   7.653
 7259POPC   C1B30595  31.179  24.478   8.553
 7259POPC   C2B30596  31.261  24.464   8.253
 7259POPC   C3B30597  31.235  24.427   7.953
 7259POPC   C4B30598  31.246  24.465   7.653
 7260POPC   NC330599  28.345  39.215   9.453
 7260POPC   PO430600  28.352  39.216   9.153
 7260POPC   GL130601  28.403  39.245   8.853
 7260POPC   GL230602  28.425  39.352   8.853
 7260POPC   C1A30603  28.392  39.276   8.553
 7260POPC   D2A30604  28.329  39.213   8.253
 7260POPC   C3A30605  28.392  39.228   7.953
 7260POPC   C4A30606  28.319  39.184   7.653
 7260POPC   C1B30607  28.448  39.511   8.553
 7260POPC   C2B30608  28.460  39.454   8.253
 7260POPC   C3B30609  28.476  39.470   7.953
 7260POPC   C4B30610  28.444  39.470   7.653
 7261POPC   NC330611  42.337  19.841   9.453
 7261POPC   PO430612  42.300  19.849   9.153
 7261POPC   GL130613  42.361  19.877   8.853
 7261POPC   GL230614  42.261  19.742   8.853
 7261POPC   C1A30615  42.291  19.877   8.553
 7261POPC   D2A30616  42.342  19.799   8.253
 7261POPC   C3A30617  42.292  19.829   7.953
 7261POPC   C4A30618  42.311  19.812   7.653
 7261POPC   C1B30619  42.090  19.709   8.553
 7261POPC   C2B30620  42.176  19.696   8.253
 7261POPC   C3B30621  42.118  19.649   7.953
 7261POPC   C4B30622  42.182  19.672   7.653
 7262POPC   NC330623   3.530  39.215   9.453
 7262POPC   PO430624   3.576  39.234   9.153
 7262POPC   GL130625   3.560  39.234   8.853
 7262POPC   GL230626   3.454  39.192   8.853
 7262POPC   C1A30627   3.590  39.214   8.553
 7262POPC   D2A30628   3.505  39.190   8.253
 7262POPC   C3A30629   3.543  39.214   7.953
 7262POPC   C4A30630   3.492  39.279   7.653
 7262POPC   C1B30631   3.358  39.073   8.553
 7262POPC   C2B30632   3.299  39.051   8.253
 7262POPC   C3B30633   3.381  39.050   7.953
 7262POPC   C4B30634   3.344  39.058   7.653
 7263POPC   NC330635   2.032  14.357   9.453
 7263POPC   PO430636   2.032  14.406   9.153
 7263POPC   GL130637   1.950  14.360   8.853
 7263POPC   GL230638   1.894  14.270   8.853
 7263POPC   C1A30639   2.038  14.435   8.553
 7263POPC   D2A30640   1.949  14.434   8.253
 7263POPC   C3A30641   2.005  14.359   7.953
 7263POPC   C4A30642   2.014  14.421   7.653
 7263POPC   C1B30643   1.787  14.203   8.553
 7263POPC   C2B30644   1.858  14.250   8.253
 7263POPC   C3B30645   1.817  14.228   7.953
 7263POPC   C4B30646   1.844  14.199   7.653
 7264POPC   NC330647  38.432   1.206   9.453
 7264POPC   PO430648  38.471   1.236   9.153
 7264POPC   GL130649  38.412   1.178   8.853
 7264POPC   GL230650  38.410   1.071   8.853
 7264POPC   C1A30651  38.483   1.252   8.553
 7264POPC   D2A30652  38.495   1.201   8.253
 7264POPC   C3A30653  38.417   1.192   7.953
 7264POPC   C4A30654  38.435   1.172   7.653
 7264POPC   C1B30655  38.291   0.972   8.553
 7264POPC   C2B30656  38.338   0.975   8.253
 7264POPC   C3B30657  38.302   1.044   7.953
 7264POPC   C4B30658  38.342   0.976   7.653
 7265POPC   NC330659  44.633  29.152   9.453
 7265POPC   PO430660  44.642  29.119   9.153
 7265POPC   GL130661  44.635  29.176   8.853
 7265POPC   GL230662  44.584  29.203   8.853
 7265POPC   C1A30663  44.662  29.194   8.553
 7265POPC   D2A30664  44.656  29.124   8.253
 7265POPC   C3A30665  44.618  29.117   7.953
 7265POPC   C4A30666  44.689  29.105   7.653
 7265POPC   C1B30667  44.466  29.310   8.553
 7265POPC   C2B30668  44.490  29.333   8.253
 7265POPC   C3B30669  44.454  29.316   7.953
 7265POPC   C4B30670  44.457  29.321   7.653
 7266POPC   NC330671  42.314   6.686   9.453
 7266POPC   PO430672  42.368   6.677   9.153
 7266POPC   GL130673  42.289   6.633   8.853
 7266POPC   GL230674  42.225   6.659   8.853
 7266POPC   C1A30675  42.323   6.675   8.553
 7266POPC   D2A30676  42.317   6.633   8.253
 7266POPC   C3A30677  42.360   6.656   7.953
 7266POPC   C4A30678  42.352   6.607   7.653
 7266POPC   C1B30679  42.072   6.706   8.553
 7266POPC   C2B30680  42.078   6.740   8.253
 7266POPC   C3B30681  42.119   6.710   7.953
 7266POPC   C4B30682  42.091   6.687   7.653
 7267POPC   NC330683  43.147  12.841   9.453
 7267POPC   PO430684  43.140  12.841   9.153
 7267POPC   GL130685  43.107  12.828   8.853
 7267POPC   GL230686  43.154  12.740   8.853
 7267POPC   C1A30687  43.062  12.854   8.553
 7267POPC   D2A30688  43.065  12.840   8.253
 7267POPC   C3A30689  43.146  12.885   7.953
 7267POPC   C4A30690  43.091  12.830   7.653
 7267POPC   C1B30691  43.198  12.591   8.553
 7267POPC   C2B30692  43.234  12.606   8.253
 7267POPC   C3B30693  43.167  12.667   7.953
 7267POPC   C4B30694  43.199  12.609   7.653
 7268POPC   NC330695  44.701   6.626   9.453
 7268POPC   PO430696  44.619   6.608   9.153
 7268POPC   GL130697  44.655   6.637   8.853
 7268POPC   GL230698  44.529   6.646   8.853
 7268POPC   C1A30699  44.695   6.618   8.553
 7268POPC   D2A30700  44.645   6.655   8.253
 7268POPC   C3A30701  44.709   6.662   7.953
 7268POPC   C4A30702  44.634   6.651   7.653
 7268POPC   C1B30703  44.412   6.539   8.553
 7268POPC   C2B30704  44.464   6.599   8.253
 7268POPC   C3B30705  44.424   6.607   7.953
 7268POPC   C4B30706  44.447   6.530   7.653
 7269POPC   NC330707  24.488   9.011   9.453
 7269POPC   PO430708  24.492   9.011   9.153
 7269POPC   GL130709  24.441   8.971   8.853
 7269POPC   GL230710  24.413   8.881   8.853
 7269POPC   C1A30711  24.480   8.947   8.553
 7269POPC   D2A30712  24.486   8.997   8.253
 7269POPC   C3A30713  24.460   8.938   7.953
 7269POPC   C4A30714  24.504   8.968   7.653
 7269POPC   C1B30715  24.281   8.823   8.553
 7269POPC   C2B30716  24.257   8.896   8.253
 7269POPC   C3B30717  24.292   8.886   7.953
 7269POPC   C4B30718  24.229   8.920   7.653
 7270POPC   NC330719  27.589  11.324   9.453
 7270POPC   PO430720  27.549  11.303   9.153
 7270POPC   GL130721  27.591  11.304   8.853
 7270POPC   GL230722  27.700  11.315   8.853
 7270POPC   C1A30723  27.548  11.310   8.553
 7270POPC   D2A30724  27.605  11.272   8.253
 7270POPC   C3A30725  27.585  11.290   7.953
 7270POPC   C4A30726  27.599  11.349   7.653
 7270POPC   C1B30727  27.855  11.286   8.553
 7270POPC   C2B30728  27.813  11.284   8.253
 7270POPC   C3B30729  27.840  11.266   7.953
 7270POPC   C4B30730  27.814  11.264   7.653
 7271POPC   NC330731   1.244   8.927   9.453
 7271POPC   PO430732   1.165   8.974   9.153
 7271POPC   GL130733   1.182   8.999   8.853
 7271POPC   GL230734   1.208   9.103   8.853
 7271POPC   C1A30735   1.214   8.967   8.553
 7271POPC   D2A30736   1.217   8.944   8.253
 7271POPC   C3A30737   1.206   8.979   7.953
 7271POPC   C4A30738   1.170   9.008   7.653
 7271POPC   C1B30739   1.218   9.222   8.553
 7271POPC   C2B30740   1.198   9.192   8.253
 7271POPC   C3B30741   1.211   9.212   7.953
 7271POPC   C4B30742   1.215   9.202   7.653
 7272POPC   NC330743  11.298  19.790   9.453
 7272POPC   PO430744  11.278  19.882   9.153
 7272POPC   GL130745  11.251  19.818   8.853
 7272POPC   GL230746  11.364  19.911   8.853
 7272POPC   C1A30747  11.334  19.828   8.553
 7272POPC   D2A30748  11.285  19.882   8.253
 7272POPC   C3A30749  11.283  19.880   7.953
 7272POPC   C4A30750  11.341  19.840   7.653
 7272POPC   C1B30751  11.399  20.052   8.553
 7272POPC   C2B30752  11.416  20.049   8.253
 7272POPC   C3B30753  11.383  20.065   7.953
 7272POPC   C4B30754  11.393  20.091   7.653
 7273POPC   NC330755  33.780  42.357   9.453
 7273POPC   PO430756  33.846  42.354   9.153
 7273POPC   GL130757  33.832  42.342   8.853
 7273POPC   GL230758  33.682  42.283   8.853
 7273POPC   C1A30759  33.832  42.351   8.553
 7273POPC   D2A30760  33.816  42.339   8.253
 7273POPC   C3A30761  33.775  42.321   7.953
 7273POPC   C4A30762  33.844  42.336   7.653
 7273POPC   C1B30763  33.544  42.214   8.553
 7273POPC   C2B30764  33.555  42.176   8.253
 7273POPC   C3B30765  33.595  42.206   7.953
 7273POPC   C4B30766  33.542  42.217   7.653
 7274POPC   NC330767  13.669  18.247   9.453
 7274POPC   PO430768  13.673  18.319   9.153
 7274POPC   GL130769  13.662  18.267   8.853
 7274POPC   GL230770  13.720  18.238   8.853
 7274POPC   C1A30771  13.638  18.265   8.553
 7274POPC   D2A30772  13.592  18.260   8.253
 7274POPC   C3A30773  13.636  18.247   7.953
 7274POPC   C4A30774  13.670  18.270   7.653
 7274POPC   C1B30775  13.850  18.114   8.553
 7274POPC   C2B30776  13.845  18.136   8.253
 7274POPC   C3B30777  13.806  18.150   7.953
 7274POPC   C4B30778  13.771  18.098   7.653
 7275POPC   NC330779  23.707   4.358   9.453
 7275POPC   PO430780  23.733   4.277   9.153
 7275POPC   GL130781  23.741   4.311   8.853
 7275POPC   GL230782  23.806   4.391   8.853
 7275POPC   C1A30783  23.713   4.278   8.553
 7275POPC   D2A30784  23.664   4.277   8.253
 7275POPC   C3A30785  23.736   4.317   7.953
 7275POPC   C4A30786  23.679   4.280   7.653
 7275POPC   C1B30787  23.929   4.464   8.553
 7275POPC   C2B30788  23.915   4.471   8.253
 7275POPC   C3B30789  23.832   4.470   7.953
 7275POPC   C4B30790  23.865   4.467   7.653
 7276POPC   NC330791  29.921  40.806   9.453
 7276POPC   PO430792  29.876  40.821   9.153
 7276POPC   GL130793  29.893  40.785   8.853
 7276POPC   GL230794  30.058  40.738   8.853
 7276POPC   C1A30795  29.872  40.791   8.553
 7276POPC   D2A30796  29.895  40.739   8.253
 7276POPC   C3A30797  29.969  40.753   7.953
 7276POPC   C4A30798  29.936  40.813   7.653
 7276POPC   C1B30799  30.215  40.758   8.553
 7276POPC   C2B30800  30.168  40.755   8.253
 7276POPC   C3B30801  30.218  40.773   7.953
 7276POPC   C4B30802  30.170  40.730   7.653
 7277POPC   NC330803   0.459  18.281   9.453
 7277POPC   PO430804   0.434  18.262   9.153
 7277POPC   GL130805   0.455  18.289   8.853
 7277POPC   GL230806   0.598  18.370   8.853
 7277POPC   C1A30807   0.463  18.308   8.553
 7277POPC   D2A30808   0.439  18.233   8.253
 7277POPC   C3A30809   0.420  18.234   7.953
 7277POPC   C4A30810   0.451  18.315   7.653
 7277POPC   C1B30811   0.710  18.373   8.553
 7277POPC   C2B30812   0.629  18.408   8.253
 7277POPC   C3B30813   0.673  18.367   7.953
 7277POPC   C4B30814   0.703  18.418   7.653
 7278POPC   NC330815   1.168  20.630   9.453
 7278POPC   PO430816   1.256  20.566   9.153
 7278POPC   GL130817   1.175  20.651   8.853
 7278POPC   GL230818   1.139  20.501   8.853
 7278POPC   C1A30819   1.251  20.608   8.553
 7278POPC   D2A30820   1.175  20.599   8.253
 7278POPC   C3A30821   1.211  20.656   7.953
 7278POPC   C4A30822   1.177  20.657   7.653
 7278POPC   C1B30823   1.114  20.422   8.553
 7278POPC   C2B30824   1.161  20.420   8.253
 7278POPC   C3B30825   1.104  20.399   7.953
 7278POPC   C4B30826   1.114  20.429   7.653
 7279POPC   NC330827   5.073  33.803   9.453
 7279POPC   PO430828   5.059  33.801   9.153
 7279POPC   GL130829   5.044  33.791   8.853
 7279POPC   GL230830   5.020  33.924   8.853
 7279POPC   C1A30831   5.119  33.777   8.553
 7279POPC   D2A30832   5.131  33.752   8.253
 7279POPC   C3A30833   5.044  33.817   7.953
 7279POPC   C4A30834   5.047  33.834   7.653
 7279POPC   C1B30835   4.951  34.014   8.553
 7279POPC   C2B30836   4.939  34.048   8.253
 7279POPC   C3B30837   4.936  34.032   7.953
 7279POPC   C4B30838   4.925  34.030   7.653
 7280POPC   NC330839   4.364  39.238   9.453
 7280POPC   PO430840   4.311  39.225   9.153
 7280POPC   GL130841   4.309  39.258   8.853
 7280POPC   GL230842   4.331  39.355   8.853
 7280POPC   C1A30843   4.366  39.187   8.553
 7280POPC   D2A30844   4.361  39.213   8.253
 7280POPC   C3A30845   4.297  39.236   7.953
 7280POPC   C4A30846   4.323  39.279   7.653
 7280POPC   C1B30847   4.420  39.489   8.553
 7280POPC   C2B30848   4.392  39.513   8.253
 7280POPC   C3B30849   4.362  39.512   7.953
 7280POPC   C4B30850   4.431  39.448   7.653
 7281POPC   NC330851  34.561   4.358   9.453
 7281POPC   PO430852  34.560   4.321   9.153
 7281POPC   GL130853  34.533   4.287   8.853
 7281POPC   GL230854  34.521   4.171   8.853
 7281POPC   C1A30855  34.602   4.324   8.553
 7281POPC   D2A30856  34.597   4.282   8.253
 7281POPC   C3A30857  34.567   4.363   7.953
 7281POPC   C4A30858  34.554   4.285   7.653
 7281POPC   C1B30859  34.494   4.112   8.553
 7281POPC   C2B30860  34.470   4.045   8.253
 7281POPC   C3B30861  34.419   4.123   7.953
 7281POPC   C4B30862  34.451   4.062   7.653
 7282POPC   NC330863  32.284  10.481   9.453
 7282POPC   PO430864  32.233  10.489   9.153
 7282POPC   GL130865  32.216  10.480   8.853
 7282POPC   GL230866  32.296  10.625   8.853
 7282POPC   C1A30867  32.286  10.505   8.553
 7282POPC   D2A30868  32.204  10.485   8.253
 7282POPC   C3A30869  32.279  10.547   7.953
 7282POPC   C4A30870  32.202  10.501   7.653
 7282POPC   C1B30871  32.343  10.750   8.553
 7282POPC   C2B30872  32.342  10.724   8.253
 7282POPC   C3B30873  32.292  10.772   7.953
 7282POPC   C4B30874  32.329  10.791   7.653
 7283POPC   NC330875  10.515   9.015   9.453
 7283POPC   PO430876  10.566   8.974   9.153
 7283POPC   GL130877  10.543   9.010   8.853
 7283POPC   GL230878  10.630   9.094   8.853
 7283POPC   C1A30879  10.540   8.938   8.553
 7283POPC   D2A30880  10.567   8.985   8.253
 7283POPC   C3A30881  10.532   8.951   7.953
 7283POPC   C4A30882  10.489   8.977   7.653
 7283POPC   C1B30883  10.643   9.145   8.553
 7283POPC   C2B30884  10.655   9.143   8.253
 7283POPC   C3B30885  10.730   9.193   7.953
 7283POPC   C4B30886  10.667   9.133   7.653
 7284POPC   NC330887  29.109  28.408   9.453
 7284POPC   PO430888  29.147  28.355   9.153
 7284POPC   GL130889  29.171  28.418   8.853
 7284POPC   GL230890  29.139  28.244   8.853
 7284POPC   C1A30891  29.101  28.353   8.553
 7284POPC   D2A30892  29.097  28.321   8.253
 7284POPC   C3A30893  29.158  28.375   7.953
 7284POPC   C4A30894  29.100  28.411   7.653
 7284POPC   C1B30895  29.077  28.161   8.553
 7284POPC   C2B30896  29.123  28.108   8.253
 7284POPC   C3B30897  29.036  28.133   7.953
 7284POPC   C4B30898  29.045  28.154   7.653
 7285POPC   NC330899  36.937   5.121   9.453
 7285POPC   PO430900  36.886   5.064   9.153
 7285POPC   GL130901  36.880   5.054   8.853
 7285POPC   GL230902  37.037   5.201   8.853
 7285POPC   C1A30903  36.924   5.124   8.553
 7285POPC   D2A30904  36.864   5.054   8.253
 7285POPC   C3A30905  36.887   5.049   7.953
 7285POPC   C4A30906  36.940   5.099   7.653
 7285POPC   C1B30907  37.120   5.267   8.553
 7285POPC   C2B30908  37.125   5.243   8.253
 7285POPC   C3B30909  37.077   5.252   7.953
 7285POPC   C4B30910  37.075   5.242   7.653
 7286POPC   NC330911  30.665  18.304   9.453
 7286POPC   PO430912  30.691  18.262   9.153
 7286POPC   GL130913  30.717  18.292   8.853
 7286POPC   GL230914  30.688  18.432   8.853
 7286POPC   C1A30915  30.722  18.331   8.553
 7286POPC   D2A30916  30.684  18.329   8.253
 7286POPC   C3A30917  30.652  18.301   7.953
 7286POPC   C4A30918  30.660  18.234   7.653
 7286POPC   C1B30919  30.623  18.563   8.553
 7286POPC   C2B30920  30.660  18.550   8.253
 7286POPC   C3B30921  30.680  18.568   7.953
 7286POPC   C4B30922  30.667  18.523   7.653
 7287POPC   NC330923  35.315   3.564   9.453
 7287POPC   PO430924  35.317   3.540   9.153
 7287POPC   GL130925  35.345   3.497   8.853
 7287POPC   GL230926  35.466   3.441   8.853
 7287POPC   C1A30927  35.310   3.569   8.553
 7287POPC   D2A30928  35.326   3.507   8.253
 7287POPC   C3A30929  35.331   3.541   7.953
 7287POPC   C4A30930  35.375   3.564   7.653
 7287POPC   C1B30931  35.560   3.378   8.553
 7287POPC   C2B30932  35.579   3.444   8.253
 7287POPC   C3B30933  35.550   3.401   7.953
 7287POPC   C4B30934  35.563   3.469   7.653
 7288POPC   NC330935  34.591   9.008   9.453
 7288POPC   PO430936  34.623   8.960   9.153
 7288POPC   GL130937  34.571   8.993   8.853
 7288POPC   GL230938  34.431   8.898   8.853
 7288POPC   C1A30939  34.539   8.939   8.553
 7288POPC   D2A30940  34.535   8.944   8.253
 7288POPC   C3A30941  34.558   8.988   7.953
 7288POPC   C4A30942  34.623   9.011   7.653
 7288POPC   C1B30943  34.394   8.789   8.553
 7288POPC   C2B30944  34.404   8.854   8.253
 7288POPC   C3B30945  34.332   8.796   7.953
 7288POPC   C4B30946  34.362   8.791   7.653
 7289POPC   NC330947  13.661  39.217   9.453
 7289POPC   PO430948  13.620  39.191   9.153
 7289POPC   GL130949  13.640  39.239   8.853
 7289POPC   GL230950  13.544  39.242   8.853
 7289POPC   C1A30951  13.671  39.267   8.553
 7289POPC   D2A30952  13.607  39.235   8.253
 7289POPC   C3A30953  13.583  39.233   7.953
 7289POPC   C4A30954  13.662  39.264   7.653
 7289POPC   C1B30955  13.412  39.309   8.553
 7289POPC   C2B30956  13.362  39.328   8.253
 7289POPC   C3B30957  13.368  39.289   7.953
 7289POPC   C4B30958  13.414  39.317   7.653
 7290POPC   NC330959  33.766  15.163   9.453
 7290POPC   PO430960  33.807  15.219   9.153
 7290POPC   GL130961  33.788  15.198   8.853
 7290POPC   GL230962  33.767  15.354   8.853
 7290POPC   C1A30963  33.778  15.180   8.553
 7290POPC   D2A30964  33.776  15.140   8.253
 7290POPC   C3A30965  33.756  15.223   7.953
 7290POPC   C4A30966  33.837  15.131   7.653
 7290POPC   C1B30967  33.788  15.408   8.553
 7290POPC   C2B30968  33.846  15.390   8.253
 7290POPC   C3B30969  33.761  15.381   7.953
 7290POPC   C4B30970  33.765  15.443   7.653
 7291POPC   NC330971  25.269  44.632   9.453
 7291POPC   PO430972  25.290  44.636   9.153
 7291POPC   GL130973  25.219  44.613   8.853
 7291POPC   GL230974  25.363  44.661   8.853
 7291POPC   C1A30975  25.221  44.678   8.553
 7291POPC   D2A30976  25.307  44.684   8.253
 7291POPC   C3A30977  25.252  44.645   7.953
 7291POPC   C4A30978  25.281  44.687   7.653
 7291POPC   C1B30979  25.475  44.657   8.553
 7291POPC   C2B30980  25.487  44.650   8.253
 7291POPC   C3B30981  25.466  44.597   7.953
 7291POPC   C4B30982  25.522  44.637   7.653
 7292POPC   NC330983   1.964   5.819   9.453
 7292POPC   PO430984   1.972   5.838   9.153
 7292POPC   GL130985   1.990   5.854   8.853
 7292POPC   GL230986   1.842   5.913   8.853
 7292POPC   C1A30987   2.037   5.859   8.553
 7292POPC   D2A30988   1.972   5.891   8.253
 7292POPC   C3A30989   1.953   5.838   7.953
 7292POPC   C4A30990   1.953   5.840   7.653
 7292POPC   C1B30991   1.814   6.018   8.553
 7292POPC   C2B30992   1.722   5.993   8.253
 7292POPC   C3B30993   1.812   5.950   7.953
 7292POPC   C4B30994   1.723   5.997   7.653
 7293POPC   NC330995   2.016   9.735   9.453
 7293POPC   PO430996   2.000   9.788   9.153
 7293POPC   GL130997   2.000   9.751   8.853
 7293POPC   GL230998   1.946   9.614   8.853
 7293POPC   C1A30999   2.037   9.783   8.553
 7293POPC   D2A31000   1.972   9.717   8.253
 7293POPC   C3A31001   1.945   9.722   7.953
 7293POPC   C4A31002   1.965   9.722   7.653
 7293POPC   C1B31003   1.857   9.551   8.553
 7293POPC   C2B31004   1.862   9.581   8.253
 7293POPC   C3B31005   1.806   9.516   7.953
 7293POPC   C4B31006   1.862   9.585   7.653
 7294POPC   NC331007  39.236  15.225   9.453
 7294POPC   PO431008  39.223  15.211   9.153
 7294POPC   GL131009  39.275  15.200   8.853
 7294POPC   GL231010  39.246  15.082   8.853
 7294POPC   C1A31011  39.248  15.175   8.553
 7294POPC   D2A31012  39.256  15.173   8.253
 7294POPC   C3A31013  39.200  15.184   7.953
 7294POPC   C4A31014  39.182  15.131   7.653
 7294POPC   C1B31015  39.364  14.923   8.553
 7294POPC   C2B31016  39.329  14.943   8.253
 7294POPC   C3B31017  39.298  14.970   7.953
 7294POPC   C4B31018  39.288  14.918   7.653
 7295POPC   NC331019  37.667   1.200   9.453
 7295POPC   PO431020  37.687   1.249   9.153
 7295POPC   GL131021  37.699   1.260   8.853
 7295POPC   GL231022  37.772   1.223   8.853
 7295POPC   C1A31023  37.662   1.202   8.553
 7295POPC   D2A31024  37.652   1.169   8.253
 7295POPC   C3A31025  37.728   1.260   7.953
 7295POPC   C4A31026  37.704   1.240   7.653
 7295POPC   C1B31027  37.900   1.246   8.553
 7295POPC   C2B31028  37.911   1.223   8.253
 7295POPC   C3B31029  37.977   1.245   7.953
 7295POPC   C4B31030  37.884   1.246   7.653
 7296POPC   NC331031  40.770  37.662   9.453
 7296POPC   PO431032  40.798  37.657   9.153
 7296POPC   GL131033  40.758  37.697   8.853
 7296POPC   GL231034  40.636  37.652   8.853
 7296POPC   C1A31035  40.742  37.650   8.553
 7296POPC   D2A31036  40.771  37.633   8.253
 7296POPC   C3A31037  40.739  37.643   7.953
 7296POPC   C4A31038  40.743  37.717   7.653
 7296POPC   C1B31039  40.593  37.575   8.553
 7296POPC   C2B31040  40.583  37.599   8.253
 7296POPC   C3B31041  40.564  37.584   7.953
 7296POPC   C4B31042  40.539  37.597   7.653
 7297POPC   NC331043  42.342   2.746   9.453
 7297POPC   PO431044  42.342   2.731   9.153
 7297POPC   GL131045  42.353   2.737   8.853
 7297POPC   GL231046  42.186   2.679   8.853
 7297POPC   C1A31047  42.382   2.751   8.553
 7297POPC   D2A31048  42.288   2.722   8.253
 7297POPC   C3A31049  42.313   2.808   7.953
 7297POPC   C4A31050  42.320   2.815   7.653
 7297POPC   C1B31051  42.090   2.635   8.553
 7297POPC   C2B31052  42.064   2.604   8.253
 7297POPC   C3B31053  42.096   2.608   7.953
 7297POPC   C4B31054  42.113   2.644   7.653
 7298POPC   NC331055  26.040  40.768   9.453
 7298POPC   PO431056  25.997  40.799   9.153
 7298POPC   GL131057  26.038  40.807   8.853
 7298POPC   GL231058  25.926  40.811   8.853
 7298POPC   C1A31059  26.018  40.757   8.553
 7298POPC   D2A31060  26.015  40.805   8.253
 7298POPC   C3A31061  26.034  40.769   7.953
 7298POPC   C4A31062  26.053  40.817   7.653
 7298POPC   C1B31063  25.868  40.933   8.553
 7298POPC   C2B31064  25.814  40.868   8.253
 7298POPC   C3B31065  25.781  40.889   7.953
 7298POPC   C4B31066  25.785  40.908   7.653
 7299POPC   NC331067  38.496   4.297   9.453
 7299POPC   PO431068  38.455   4.280   9.153
 7299POPC   GL131069  38.415   4.308   8.853
 7299POPC   GL231070  38.504   4.441   8.853
 7299POPC   C1A31071  38.499   4.342   8.553
 7299POPC   D2A31072  38.419   4.352   8.253
 7299POPC   C3A31073  38.413   4.335   7.953
 7299POPC   C4A31074  38.435   4.316   7.653
 7299POPC   C1B31075  38.681   4.452   8.553
 7299POPC   C2B31076  38.681   4.498   8.253
 7299POPC   C3B31077  38.624   4.475   7.953
 7299POPC   C4B31078  38.605   4.500   7.653
 7300POPC   NC331079  37.637  35.401   9.453
 7300POPC   PO431080  37.683  35.330   9.153
 7300POPC   GL131081  37.722  35.345   8.853
 7300POPC   GL231082  37.616  35.285   8.853
 7300POPC   C1A31083  37.715  35.397   8.553
 7300POPC   D2A31084  37.632  35.387   8.253
 7300POPC   C3A31085  37.643  35.348   7.953
 7300POPC   C4A31086  37.680  35.360   7.653
 7300POPC   C1B31087  37.560  35.182   8.553
 7300POPC   C2B31088  37.520  35.143   8.253
 7300POPC   C3B31089  37.477  35.184   7.953
 7300POPC   C4B31090  37.541  35.171   7.653
 7301POPC   NC331091  12.038  27.614   9.453
 7301POPC   PO431092  12.039  27.631   9.153
 7301POPC   GL131093  12.039  27.553   8.853
 7301POPC   GL231094  11.991  27.705   8.853
 7301POPC   C1A31095  12.027  27.566   8.553
 7301POPC   D2A31096  12.102  27.585   8.253
 7301POPC   C3A31097  12.072  27.629   7.953
 7301POPC   C4A31098  12.098  27.625   7.653
 7301POPC   C1B31099  11.943  27.778   8.553
 7301POPC   C2B31100  11.914  27.743   8.253
 7301POPC   C3B31101  11.867  27.770   7.953
 7301POPC   C4B31102  11.944  27.749   7.653
 7302POPC   NC331103  33.069  30.658   9.453
 7302POPC   PO431104  33.037  30.745   9.153
 7302POPC   GL131105  33.056  30.689   8.853
 7302POPC   GL231106  33.075  30.611   8.853
 7302POPC   C1A31107  33.000  30.671   8.553
 7302POPC   D2A31108  32.988  30.712   8.253
 7302POPC   C3A31109  33.050  30.659   7.953
 7302POPC   C4A31110  33.043  30.730   7.653
 7302POPC   C1B31111  33.184  30.503   8.553
 7302POPC   C2B31112  33.159  30.485   8.253
 7302POPC   C3B31113  33.109  30.496   7.953
 7302POPC   C4B31114  33.165  30.481   7.653
 7303POPC   NC331115   6.614  22.126   9.453
 7303POPC   PO431116   6.647  22.187   9.153
 7303POPC   GL131117   6.680  22.123   8.853
 7303POPC   GL231118   6.568  22.246   8.853
 7303POPC   C1A31119   6.664  22.178   8.553
 7303POPC   D2A31120   6.665  22.126   8.253
 7303POPC   C3A31121   6.648  22.203   7.953
 7303POPC   C4A31122   6.674  22.131   7.653
 7303POPC   C1B31123   6.595  22.380   8.553
 7303POPC   C2B31124   6.570  22.427   8.253
 7303POPC   C3B31125   6.573  22.406   7.953
 7303POPC   C4B31126   6.558  22.418   7.653
 7304POPC   NC331127  37.699  18.301   9.453
 7304POPC   PO431128  37.631  18.328   9.153
 7304POPC   GL131129  37.705  18.244   8.853
 7304POPC   GL231130  37.524  18.284   8.853
 7304POPC   C1A31131  37.690  18.258   8.553
 7304POPC   D2A31132  37.677  18.280   8.253
 7304POPC   C3A31133  37.646  18.256   7.953
 7304POPC   C4A31134  37.693  18.327   7.653
 7304POPC   C1B31135  37.444  18.243   8.553
 7304POPC   C2B31136  37.475  18.248   8.253
 7304POPC   C3B31137  37.401  18.255   7.953
 7304POPC   C4B31138  37.442  18.264   7.653
 7305POPC   NC331139   4.273   6.658   9.453
 7305POPC   PO431140   4.338   6.690   9.153
 7305POPC   GL131141   4.318   6.671   8.853
 7305POPC   GL231142   4.291   6.724   8.853
 7305POPC   C1A31143   4.293   6.629   8.553
 7305POPC   D2A31144   4.291   6.657   8.253
 7305POPC   C3A31145   4.290   6.674   7.953
 7305POPC   C4A31146   4.281   6.611   7.653
 7305POPC   C1B31147   4.232   6.920   8.553
 7305POPC   C2B31148   4.282   6.935   8.253
 7305POPC   C3B31149   4.221   6.855   7.953
 7305POPC   C4B31150   4.236   6.917   7.653
 7306POPC   NC331151   0.413   0.416   9.453
 7306POPC   PO431152   0.442   0.419   9.153
 7306POPC   GL131153   0.428   0.439   8.853
 7306POPC   GL231154   0.524   0.331   8.853
 7306POPC   C1A31155   0.448   0.437   8.553
 7306POPC   D2A31156   0.452   0.428   8.253
 7306POPC   C3A31157   0.432   0.459   7.953
 7306POPC   C4A31158   0.434   0.448   7.653
 7306POPC   C1B31159   0.560   0.215   8.553
 7306POPC   C2B31160   0.538   0.169   8.253
 7306POPC   C3B31161   0.542   0.250   7.953
 7306POPC   C4B31162   0.583   0.238   7.653
 7307POPC   NC331163  36.879   5.855   9.453
 7307POPC   PO431164  36.930   5.867   9.153
 7307POPC   GL131165  36.945   5.887   8.853
 7307POPC   GL231166  36.864   5.804   8.853
 7307POPC   C1A31167  36.883   5.820   8.553
 7307POPC   D2A31168  36.910   5.858   8.253
 7307POPC   C3A31169  36.936   5.903   7.953
 7307POPC   C4A31170  36.858   5.889   7.653
 7307POPC   C1B31171  36.803   5.697   8.553
 7307POPC   C2B31172  36.808   5.638   8.253
 7307POPC   C3B31173  36.762   5.692   7.953
 7307POPC   C4B31174  36.739   5.678   7.653
 7308POPC   NC331175  10.538   0.476   9.453
 7308POPC   PO431176  10.549   0.487   9.153
 7308POPC   GL131177  10.550   0.435   8.853
 7308POPC   GL231178  10.662   0.480   8.853
 7308POPC   C1A31179  10.479   0.433   8.553
 7308POPC   D2A31180  10.522   0.403   8.253
 7308POPC   C3A31181  10.557   0.467   7.953
 7308POPC   C4A31182  10.564   0.404   7.653
 7308POPC   C1B31183  10.733   0.397   8.553
 7308POPC   C2B31184  10.788   0.454   8.253
 7308POPC   C3B31185  10.749   0.420   7.953
 7308POPC   C4B31186  10.824   0.465   7.653
 7309POPC   NC331187  36.154  18.249   9.453
 7309POPC   PO431188  36.154  18.237   9.153
 7309POPC   GL131189  36.090  18.247   8.853
 7309POPC   GL231190  36.045  18.406   8.853
 7309POPC   C1A31191  36.087  18.287   8.553
 7309POPC   D2A31192  36.154  18.242   8.253
 7309POPC   C3A31193  36.169  18.282   7.953
 7309POPC   C4A31194  36.109  18.247   7.653
 7309POPC   C1B31195  35.934  18.434   8.553
 7309POPC   C2B31196  35.907  18.457   8.253
 7309POPC   C3B31197  35.984  18.450   7.953
 7309POPC   C4B31198  35.953  18.504   7.653
 7310POPC   NC331199  28.332  39.994   9.453
 7310POPC   PO431200  28.403  39.961   9.153
 7310POPC   GL131201  28.389  40.031   8.853
 7310POPC   GL231202  28.500  40.067   8.853
 7310POPC   C1A31203  28.393  40.018   8.553
 7310POPC   D2A31204  28.365  40.024   8.253
 7310POPC   C3A31205  28.366  39.970   7.953
 7310POPC   C4A31206  28.354  40.013   7.653
 7310POPC   C1B31207  28.561  40.175   8.553
 7310POPC   C2B31208  28.537  40.157   8.253
 7310POPC   C3B31209  28.586  40.168   7.953
 7310POPC   C4B31210  28.527  40.104   7.653
 7311POPC   NC331211   8.161   9.730   9.453
 7311POPC   PO431212   8.148   9.794   9.153
 7311POPC   GL131213   8.180   9.796   8.853
 7311POPC   GL231214   8.351   9.714   8.853
 7311POPC   C1A31215   8.158   9.738   8.553
 7311POPC   D2A31216   8.208   9.749   8.253
 7311POPC   C3A31217   8.206   9.743   7.953
 7311POPC   C4A31218   8.152   9.776   7.653
 7311POPC   C1B31219   8.410   9.771   8.553
 7311POPC   C2B31220   8.419   9.742   8.253
 7311POPC   C3B31221   8.482   9.802   7.953
 7311POPC   C4B31222   8.489   9.811   7.653
 7312POPC   NC331223   0.415   9.706   9.453
 7312POPC   PO431224   0.436   9.774   9.153
 7312POPC   GL131225   0.447   9.751   8.853
 7312POPC   GL231226   0.539   9.806   8.853
 7312POPC   C1A31227   0.391   9.729   8.553
 7312POPC   D2A31228   0.466   9.713   8.253
 7312POPC   C3A31229   0.471   9.710   7.953
 7312POPC   C4A31230   0.399   9.792   7.653
 7312POPC   C1B31231   0.606   9.916   8.553
 7312POPC   C2B31232   0.613   9.892   8.253
 7312POPC   C3B31233   0.607   9.858   7.953
 7312POPC   C4B31234   0.588   9.909   7.653
 7313POPC   NC331235   1.994  21.429   9.453
 7313POPC   PO431236   2.002  21.337   9.153
 7313POPC   GL131237   1.971  21.409   8.853
 7313POPC   GL231238   2.075  21.253   8.853
 7313POPC   C1A31239   1.958  21.435   8.553
 7313POPC   D2A31240   1.982  21.353   8.253
 7313POPC   C3A31241   1.996  21.375   7.953
 7313POPC   C4A31242   1.960  21.407   7.653
 7313POPC   C1B31243   2.086  21.192   8.553
 7313POPC   C2B31244   2.066  21.167   8.253
 7313POPC   C3B31245   2.090  21.202   7.953
 7313POPC   C4B31246   2.103  21.164   7.653
 7314POPC   NC331247   5.853  21.383   9.453
 7314POPC   PO431248   5.864  21.423   9.153
 7314POPC   GL131249   5.884  21.359   8.853
 7314POPC   GL231250   5.916  21.496   8.853
 7314POPC   C1A31251   5.843  21.424   8.553
 7314POPC   D2A31252   5.917  21.424   8.253
 7314POPC   C3A31253   5.849  21.416   7.953
 7314POPC   C4A31254   5.906  21.394   7.653
 7314POPC   C1B31255   6.072  21.592   8.553
 7314POPC   C2B31256   6.023  21.621   8.253
 7314POPC   C3B31257   5.982  21.612   7.953
 7314POPC   C4B31258   6.029  21.602   7.653
 7315POPC   NC331259   3.502   1.243   9.453
 7315POPC   PO431260   3.504   1.220   9.153
 7315POPC   GL131261   3.519   1.236   8.853
 7315POPC   GL231262   3.463   1.278   8.853
 7315POPC   C1A31263   3.517   1.196   8.553
 7315POPC   D2A31264   3.510   1.244   8.253
 7315POPC   C3A31265   3.542   1.227   7.953
 7315POPC   C4A31266   3.553   1.227   7.653
 7315POPC   C1B31267   3.310   1.416   8.553
 7315POPC   C2B31268   3.384   1.384   8.253
 7315POPC   C3B31269   3.303   1.405   7.953
 7315POPC   C4B31270   3.335   1.333   7.653
 7316POPC   NC331271  23.746  43.087   9.453
 7316POPC   PO431272  23.723  43.112   9.153
 7316POPC   GL131273  23.762  43.124   8.853
 7316POPC   GL231274  23.831  43.180   8.853
 7316POPC   C1A31275  23.708  43.102   8.553
 7316POPC   D2A31276  23.694  43.078   8.253
 7316POPC   C3A31277  23.708  43.153   7.953
 7316POPC   C4A31278  23.744  43.096   7.653
 7316POPC   C1B31279  23.983  43.156   8.553
 7316POPC   C2B31280  23.950  43.161   8.253
 7316POPC   C3B31281  23.978  43.195   7.953
 7316POPC   C4B31282  23.923  43.159   7.653
 7317POPC   NC331283  19.879  43.100   9.453
 7317POPC   PO431284  19.833  43.131   9.153
 7317POPC   GL131285  19.829  43.137   8.853
 7317POPC   GL231286  19.828  43.194   8.853
 7317POPC   C1A31287  19.790  43.102   8.553
 7317POPC   D2A31288  19.805  43.151   8.253
 7317POPC   C3A31289  19.872  43.097   7.953
 7317POPC   C4A31290  19.835  43.068   7.653
 7317POPC   C1B31291  19.909  43.374   8.553
 7317POPC   C2B31292  19.862  43.379   8.253
 7317POPC   C3B31293  19.904  43.321   7.953
 7317POPC   C4B31294  19.841  43.334   7.653
 7318POPC   NC331295  44.711  43.157   9.453
 7318POPC   PO431296  44.705  43.133   9.153
 7318POPC   GL131297  44.613  43.160   8.853
 7318POPC   GL231298  44.562  43.226   8.853
 7318POPC   C1A31299  44.616  43.094   8.553
 7318POPC   D2A31300  44.615  43.147   8.253
 7318POPC   C3A31301  44.629  43.107   7.953
 7318POPC   C4A31302  44.673  43.138   7.653
 7318POPC   C1B31303  44.535  43.305   8.553
 7318POPC   C2B31304  44.534  43.345   8.253
 7318POPC   C3B31305  44.546  43.307   7.953
 7318POPC   C4B31306  44.574  43.317   7.653
 7319POPC   NC331307  26.009  15.176   9.453
 7319POPC   PO431308  26.037  15.149   9.153
 7319POPC   GL131309  26.063  15.153   8.853
 7319POPC   GL231310  25.915  15.186   8.853
 7319POPC   C1A31311  26.024  15.174   8.553
 7319POPC   D2A31312  26.013  15.202   8.253
 7319POPC   C3A31313  26.037  15.162   7.953
 7319POPC   C4A31314  26.036  15.167   7.653
 7319POPC   C1B31315  25.799  15.149   8.553
 7319POPC   C2B31316  25.766  15.159   8.253
 7319POPC   C3B31317  25.767  15.172   7.953
 7319POPC   C4B31318  25.801  15.155   7.653
 7320POPC   NC331319   3.520  28.321   9.453
 7320POPC   PO431320   3.533  28.406   9.153
 7320POPC   GL131321   3.579  28.340   8.853
 7320POPC   GL231322   3.432  28.344   8.853
 7320POPC   C1A31323   3.517  28.350   8.553
 7320POPC   D2A31324   3.564  28.326   8.253
 7320POPC   C3A31325   3.512  28.342   7.953
 7320POPC   C4A31326   3.580  28.398   7.653
 7320POPC   C1B31327   3.321  28.385   8.553
 7320POPC   C2B31328   3.318  28.377   8.253
 7320POPC   C3B31329   3.319  28.384   7.953
 7320POPC   C4B31330   3.325  28.324   7.653
 7321POPC   NC331331   4.306  32.256   9.453
 7321POPC   PO431332   4.347  32.239   9.153
 7321POPC   GL131333   4.367  32.288   8.853
 7321POPC   GL231334   4.313  32.364   8.853
 7321POPC   C1A31335   4.317  32.258   8.553
 7321POPC   D2A31336   4.365  32.249   8.253
 7321POPC   C3A31337   4.357  32.277   7.953
 7321POPC   C4A31338   4.323  32.240   7.653
 7321POPC   C1B31339   4.272  32.463   8.553
 7321POPC   C2B31340   4.282  32.458   8.253
 7321POPC   C3B31341   4.298  32.499   7.953
 7321POPC   C4B31342   4.272  32.451   7.653
 7322POPC   NC331343  15.201  10.555   9.453
 7322POPC   PO431344  15.151  10.542   9.153
 7322POPC   GL131345  15.204  10.540   8.853
 7322POPC   GL231346  15.305  10.577   8.853
 7322POPC   C1A31347  15.142  10.534   8.553
 7322POPC   D2A31348  15.179  10.556   8.253
 7322POPC   C3A31349  15.130  10.543   7.953
 7322POPC   C4A31350  15.184  10.527   7.653
 7322POPC   C1B31351  15.379  10.640   8.553
 7322POPC   C2B31352  15.401  10.590   8.253
 7322POPC   C3B31353  15.386  10.613   7.953
 7322POPC   C4B31354  15.462  10.574   7.653
 7323POPC   NC331355  10.527  11.270   9.453
 7323POPC   PO431356  10.480  11.315   9.153
 7323POPC   GL131357  10.521  11.252   8.853
 7323POPC   GL231358  10.637  11.237   8.853
 7323POPC   C1A31359  10.519  11.336   8.553
 7323POPC   D2A31360  10.542  11.290   8.253
 7323POPC   C3A31361  10.559  11.256   7.953
 7323POPC   C4A31362  10.481  11.255   7.653
 7323POPC   C1B31363  10.697  11.119   8.553
 7323POPC   C2B31364  10.642  11.131   8.253
 7323POPC   C3B31365  10.690  11.125   7.953
 7323POPC   C4B31366  10.682  11.078   7.653
 7324POPC   NC331367  27.566  21.340   9.453
 7324POPC   PO431368  27.642  21.346   9.153
 7324POPC   GL131369  27.591  21.386   8.853
 7324POPC   GL231370  27.478  21.362   8.853
 7324POPC   C1A31371  27.568  21.400   8.553
 7324POPC   D2A31372  27.588  21.372   8.253
 7324POPC   C3A31373  27.548  21.418   7.953
 7324POPC   C4A31374  27.546  21.369   7.653
 7324POPC   C1B31375  27.346  21.341   8.553
 7324POPC   C2B31376  27.366  21.299   8.253
 7324POPC   C3B31377  27.394  21.314   7.953
 7324POPC   C4B31378  27.332  21.293   7.653
 7325POPC   NC331379   0.446  23.713   9.453
 7325POPC   PO431380   0.401  23.748   9.153
 7325POPC   GL131381   0.439  23.699   8.853
 7325POPC   GL231382   0.503  23.642   8.853
 7325POPC   C1A31383   0.446  23.716   8.553
 7325POPC   D2A31384   0.450  23.689   8.253
 7325POPC   C3A31385   0.421  23.679   7.953
 7325POPC   C4A31386   0.481  23.763   7.653
 7325POPC   C1B31387   0.657  23.573   8.553
 7325POPC   C2B31388   0.606  23.575   8.253
 7325POPC   C3B31389   0.611  23.523   7.953
 7325POPC   C4B31390   0.610  23.505   7.653
 7326POPC   NC331391   2.758  44.640   9.453
 7326POPC   PO431392   2.813  44.673   9.153
 7326POPC   GL131393   2.716  44.625   8.853
 7326POPC   GL231394   2.772  44.785   8.853
 7326POPC   C1A31395   2.802  44.637   8.553
 7326POPC   D2A31396   2.722  44.638   8.253
 7326POPC   C3A31397   2.759  44.663   7.953
 7326POPC   C4A31398   2.764  44.703   7.653
 7326POPC   C1B31399   2.792  44.874   8.553
 7326POPC   C2B31400   2.816  44.904   8.253
 7326POPC   C3B31401   2.774  44.943   7.953
 7326POPC   C4B31402   2.811  44.905   7.653
 7327POPC   NC331403  40.774   2.034   9.453
 7327POPC   PO431404  40.805   1.999   9.153
 7327POPC   GL131405  40.768   1.989   8.853
 7327POPC   GL231406  40.628   1.982   8.853
 7327POPC   C1A31407  40.750   2.002   8.553
 7327POPC   D2A31408  40.823   2.018   8.253
 7327POPC   C3A31409  40.813   1.964   7.953
 7327POPC   C4A31410  40.770   1.985   7.653
 7327POPC   C1B31411  40.552   1.988   8.553
 7327POPC   C2B31412  40.566   1.944   8.253
 7327POPC   C3B31413  40.547   1.963   7.953
 7327POPC   C4B31414  40.582   1.974   7.653
 7328POPC   NC331415  29.957  44.614   9.453
 7328POPC   PO431416  29.948  44.665   9.153
 7328POPC   GL131417  29.928  44.682   8.853
 7328POPC   GL231418  29.842  44.593   8.853
 7328POPC   C1A31419  29.931  44.634   8.553
 7328POPC   D2A31420  29.885  44.620   8.253
 7328POPC   C3A31421  29.906  44.678   7.953
 7328POPC   C4A31422  29.892  44.635   7.653
 7328POPC   C1B31423  29.735  44.526   8.553
 7328POPC   C2B31424  29.729  44.604   8.253
 7328POPC   C3B31425  29.650  44.576   7.953
 7328POPC   C4B31426  29.696  44.510   7.653
 7329POPC   NC331427  31.478   0.417   9.453
 7329POPC   PO431428  31.500   0.430   9.153
 7329POPC   GL131429  31.450   0.416   8.853
 7329POPC   GL231430  31.389   0.573   8.853
 7329POPC   C1A31431  31.472   0.466   8.553
 7329POPC   D2A31432  31.522   0.452   8.253
 7329POPC   C3A31433  31.460   0.444   7.953
 7329POPC   C4A31434  31.497   0.447   7.653
 7329POPC   C1B31435  31.365   0.607   8.553
 7329POPC   C2B31436  31.345   0.640   8.253
 7329POPC   C3B31437  31.346   0.640   7.953
 7329POPC   C4B31438  31.387   0.672   7.653
 7330POPC   NC331439  44.620  24.507   9.453
 7330POPC   PO431440  44.674  24.478   9.153
 7330POPC   GL131441  44.641  24.442   8.853
 7330POPC   GL231442  44.514  24.529   8.853
 7330POPC   C1A31443  44.642  24.521   8.553
 7330POPC   D2A31444  44.705  24.532   8.253
 7330POPC   C3A31445  44.666  24.505   7.953
 7330POPC   C4A31446  44.681  24.536   7.653
 7330POPC   C1B31447  44.370  24.464   8.553
 7330POPC   C2B31448  44.420  24.483   8.253
 7330POPC   C3B31449  44.363  24.507   7.953
 7330POPC   C4B31450  44.409  24.489   7.653
 7331POPC   NC331451  22.917  22.203   9.453
 7331POPC   PO431452  22.971  22.174   9.153
 7331POPC   GL131453  22.920  22.153   8.853
 7331POPC   GL231454  22.976  22.274   8.853
 7331POPC   C1A31455  22.911  22.128   8.553
 7331POPC   D2A31456  22.897  22.134   8.253
 7331POPC   C3A31457  22.929  22.201   7.953
 7331POPC   C4A31458  22.929  22.142   7.653
 7331POPC   C1B31459  23.074  22.366   8.553
 7331POPC   C2B31460  23.071  22.317   8.253
 7331POPC   C3B31461  23.132  22.333   7.953
 7331POPC   C4B31462  23.044  22.380   7.653
 7332POPC   NC331463  41.588  15.169   9.453
 7332POPC   PO431464  41.512  15.143   9.153
 7332POPC   GL131465  41.547  15.142   8.853
 7332POPC   GL231466  41.623  15.055   8.853
 7332POPC   C1A31467  41.555  15.159   8.553
 7332POPC   D2A31468  41.546  15.137   8.253
 7332POPC   C3A31469  41.517  15.217   7.953
 7332POPC   C4A31470  41.583  15.212   7.653
 7332POPC   C1B31471  41.762  14.991   8.553
 7332POPC   C2B31472  41.720  15.040   8.253
 7332POPC   C3B31473  41.707  15.012   7.953
 7332POPC   C4B31474  41.745  15.003   7.653
 7333POPC   NC331475  43.926   2.748   9.453
 7333POPC   PO431476  43.844   2.760   9.153
 7333POPC   GL131477  43.907   2.784   8.853
 7333POPC   GL231478  43.852   2.633   8.853
 7333POPC   C1A31479  43.884   2.776   8.553
 7333POPC   D2A31480  43.922   2.800   8.253
 7333POPC   C3A31481  43.869   2.788   7.953
 7333POPC   C4A31482  43.869   2.810   7.653
 7333POPC   C1B31483  43.821   2.560   8.553
 7333POPC   C2B31484  43.792   2.554   8.253
 7333POPC   C3B31485  43.789   2.495   7.953
 7333POPC   C4B31486  43.833   2.547   7.653
 7334POPC   NC331487  15.157   8.239   9.453
 7334POPC   PO431488  15.154   8.171   9.153
 7334POPC   GL131489  15.204   8.225   8.853
 7334POPC   GL231490  15.247   8.346   8.853
 7334POPC   C1A31491  15.157   8.154   8.553
 7334POPC   D2A31492  15.146   8.147   8.253
 7334POPC   C3A31493  15.206   8.196   7.953
 7334POPC   C4A31494  15.184   8.183   7.653
 7334POPC   C1B31495  15.252   8.448   8.553
 7334POPC   C2B31496  15.227   8.423   8.253
 7334POPC   C3B31497  15.219   8.460   7.953
 7334POPC   C4B31498  15.243   8.461   7.653
 7335POPC   NC331499  33.752  37.663   9.453
 7335POPC   PO431500  33.754  37.663   9.153
 7335POPC   GL131501  33.810  37.695   8.853
 7335POPC   GL231502  33.826  37.582   8.853
 7335POPC   C1A31503  33.812  37.682   8.553
 7335POPC   D2A31504  33.830  37.690   8.253
 7335POPC   C3A31505  33.787  37.658   7.953
 7335POPC   C4A31506  33.845  37.705   7.653
 7335POPC   C1B31507  33.867  37.446   8.553
 7335POPC   C2B31508  33.890  37.476   8.253
 7335POPC   C3B31509  33.892  37.481   7.953
 7335POPC   C4B31510  33.880  37.449   7.653
 7336POPC   NC331511  39.999   1.963   9.453
 7336POPC   PO431512  39.973   1.983   9.153
 7336POPC   GL131513  39.971   2.038   8.853
 7336POPC   GL231514  40.054   2.054   8.853
 7336POPC   C1A31515  40.048   2.015   8.553
 7336POPC   D2A31516  39.997   1.942   8.253
 7336POPC   C3A31517  40.035   1.973   7.953
 7336POPC   C4A31518  40.036   2.025   7.653
 7336POPC   C1B31519  40.073   2.178   8.553
 7336POPC   C2B31520  40.150   2.192   8.253
 7336POPC   C3B31521  40.137   2.173   7.953
 7336POPC   C4B31522  40.119   2.176   7.653
 7337POPC   NC331523  40.755  18.247   9.453
 7337POPC   PO431524  40.768  18.236   9.153
 7337POPC   GL131525  40.783  18.250   8.853
 7337POPC   GL231526  40.839  18.338   8.853
 7337POPC   C1A31527  40.808  18.282   8.553
 7337POPC   D2A31528  40.754  18.280   8.253
 7337POPC   C3A31529  40.745  18.327   7.953
 7337POPC   C4A31530  40.813  18.313   7.653
 7337POPC   C1B31531  40.960  18.493   8.553
 7337POPC   C2B31532  40.974  18.515   8.253
 7337POPC   C3B31533  40.939  18.511   7.953
 7337POPC   C4B31534  40.979  18.464   7.653
 7338POPC   NC331535   0.470  12.860   9.453
 7338POPC   PO431536   0.428  12.890   9.153
 7338POPC   GL131537   0.417  12.839   8.853
 7338POPC   GL231538   0.511  12.751   8.853
 7338POPC   C1A31539   0.419  12.860   8.553
 7338POPC   D2A31540   0.447  12.822   8.253
 7338POPC   C3A31541   0.435  12.819   7.953
 7338POPC   C4A31542   0.462  12.819   7.653
 7338POPC   C1B31543   0.576  12.653   8.553
 7338POPC   C2B31544   0.664  12.696   8.253
 7338POPC   C3B31545   0.588  12.648   7.953
 7338POPC   C4B31546   0.651  12.681   7.653
 7339POPC   NC331547   1.187  19.011   9.453
 7339POPC   PO431548   1.250  19.046   9.153
 7339POPC   GL131549   1.166  19.044   8.853
 7339POPC   GL231550   1.065  19.122   8.853
 7339POPC   C1A31551   1.164  19.075   8.553
 7339POPC   D2A31552   1.215  19.013   8.253
 7339POPC   C3A31553   1.252  19.029   7.953
 7339POPC   C4A31554   1.214  19.099   7.653
 7339POPC   C1B31555   1.054  19.219   8.553
 7339POPC   C2B31556   1.014  19.225   8.253
 7339POPC   C3B31557   1.027  19.245   7.953
 7339POPC   C4B31558   1.018  19.234   7.653
 7340POPC   NC331559  37.666  22.963   9.453
 7340POPC   PO431560  37.638  22.977   9.153
 7340POPC   GL131561  37.709  22.950   8.853
 7340POPC   GL231562  37.801  23.051   8.853
 7340POPC   C1A31563  37.714  22.892   8.553
 7340POPC   D2A31564  37.672  22.937   8.253
 7340POPC   C3A31565  37.687  22.937   7.953
 7340POPC   C4A31566  37.630  22.985   7.653
 7340POPC   C1B31567  37.911  23.111   8.553
 7340POPC   C2B31568  37.831  23.115   8.253
 7340POPC   C3B31569  37.823  23.083   7.953
 7340POPC   C4B31570  37.845  23.154   7.653
 7341POPC   NC331571   1.948  20.601   9.453
 7341POPC   PO431572   1.941  20.603   9.153
 7341POPC   GL131573   1.953  20.581   8.853
 7341POPC   GL231574   1.907  20.546   8.853
 7341POPC   C1A31575   1.968  20.585   8.553
 7341POPC   D2A31576   1.955  20.657   8.253
 7341POPC   C3A31577   1.961  20.648   7.953
 7341POPC   C4A31578   1.962  20.616   7.653
 7341POPC   C1B31579   1.842  20.384   8.553
 7341POPC   C2B31580   1.861  20.394   8.253
 7341POPC   C3B31581   1.797  20.432   7.953
 7341POPC   C4B31582   1.809  20.399   7.653
 7342POPC   NC331583  26.055  36.150   9.453
 7342POPC   PO431584  26.059  36.173   9.153
 7342POPC   GL131585  26.035  36.171   8.853
 7342POPC   GL231586  26.088  36.269   8.853
 7342POPC   C1A31587  26.087  36.081   8.553
 7342POPC   D2A31588  26.050  36.168   8.253
 7342POPC   C3A31589  26.051  36.080   7.953
 7342POPC   C4A31590  26.019  36.159   7.653
 7342POPC   C1B31591  26.077  36.377   8.553
 7342POPC   C2B31592  26.075  36.399   8.253
 7342POPC   C3B31593  26.080  36.396   7.953
 7342POPC   C4B31594  26.155  36.374   7.653
 7343POPC   NC331595  27.590  33.779   9.453
 7343POPC   PO431596  27.579  33.812   9.153
 7343POPC   GL131597  27.619  33.766   8.853
 7343POPC   GL231598  27.596  33.647   8.853
 7343POPC   C1A31599  27.641  33.801   8.553
 7343POPC   D2A31600  27.604  33.806   8.253
 7343POPC   C3A31601  27.556  33.760   7.953
 7343POPC   C4A31602  27.636  33.810   7.653
 7343POPC   C1B31603  27.545  33.548   8.553
 7343POPC   C2B31604  27.585  33.580   8.253
 7343POPC   C3B31605  27.573  33.588   7.953
 7343POPC   C4B31606  27.601  33.565   7.653
 7344POPC   NC331607  18.300  29.124   9.453
 7344POPC   PO431608  18.315  29.153   9.153
 7344POPC   GL131609  18.327  29.118   8.853
 7344POPC   GL231610  18.450  29.141   8.853
 7344POPC   C1A31611  18.330  29.115   8.553
 7344POPC   D2A31612  18.326  29.180   8.253
 7344POPC   C3A31613  18.298  29.161   7.953
 7344POPC   C4A31614  18.306  29.139   7.653
 7344POPC   C1B31615  18.555  29.254   8.553
 7344POPC   C2B31616  18.513  29.244   8.253
 7344POPC   C3B31617  18.506  29.228   7.953
 7344POPC   C4B31618  18.480  29.227   7.653
 7345POPC   NC331619  41.590  40.739   9.453
 7345POPC   PO431620  41.593  40.816   9.153
 7345POPC   GL131621  41.577  40.747   8.853
 7345POPC   GL231622  41.539  40.903   8.853
 7345POPC   C1A31623  41.521  40.791   8.553
 7345POPC   D2A31624  41.527  40.768   8.253
 7345POPC   C3A31625  41.535  40.736   7.953
 7345POPC   C4A31626  41.567  40.825   7.653
 7345POPC   C1B31627  41.509  40.988   8.553
 7345POPC   C2B31628  41.421  41.061   8.253
 7345POPC   C3B31629  41.472  40.981   7.953
 7345POPC   C4B31630  41.467  41.019   7.653
 7346POPC   NC331631  31.457  15.942   9.453
 7346POPC   PO431632  31.476  15.994   9.153
 7346POPC   GL131633  31.482  15.913   8.853
 7346POPC   GL231634  31.565  16.073   8.853
 7346POPC   C1A31635  31.445  15.995   8.553
 7346POPC   D2A31636  31.493  15.987   8.253
 7346POPC   C3A31637  31.432  15.955   7.953
 7346POPC   C4A31638  31.483  15.956   7.653
 7346POPC   C1B31639  31.564  16.158   8.553
 7346POPC   C2B31640  31.577  16.202   8.253
 7346POPC   C3B31641  31.593  16.150   7.953
 7346POPC   C4B31642  31.574  16.220   7.653
 7347POPC   NC331643  32.995  19.862   9.453
 7347POPC   PO431644  33.072  19.870   9.153
 7347POPC   GL131645  33.020  19.785   8.853
 7347POPC   GL231646  33.032  19.977   8.853
 7347POPC   C1A31647  33.016  19.834   8.553
 7347POPC   D2A31648  33.003  19.843   8.253
 7347POPC   C3A31649  32.984  19.851   7.953
 7347POPC   C4A31650  33.017  19.874   7.653
 7347POPC   C1B31651  33.005  20.065   8.553
 7347POPC   C2B31652  33.030  20.125   8.253
 7347POPC   C3B31653  33.027  20.081   7.953
 7347POPC   C4B31654  32.952  20.071   7.653
 7348POPC   NC331655   3.502  33.779   9.453
 7348POPC   PO431656   3.497  33.816   9.153
 7348POPC   GL131657   3.515  33.812   8.853
 7348POPC   GL231658   3.436  33.732   8.853
 7348POPC   C1A31659   3.546  33.799   8.553
 7348POPC   D2A31660   3.499  33.824   8.253
 7348POPC   C3A31661   3.585  33.772   7.953
 7348POPC   C4A31662   3.509  33.813   7.653
 7348POPC   C1B31663   3.291  33.683   8.553
 7348POPC   C2B31664   3.329  33.681   8.253
 7348POPC   C3B31665   3.259  33.680   7.953
 7348POPC   C4B31666   3.348  33.757   7.653
 7349POPC   NC331667  26.061  12.849   9.453
 7349POPC   PO431668  26.087  12.837   9.153
 7349POPC   GL131669  26.061  12.816   8.853
 7349POPC   GL231670  25.941  12.886   8.853
 7349POPC   C1A31671  26.006  12.803   8.553
 7349POPC   D2A31672  25.995  12.876   8.253
 7349POPC   C3A31673  26.062  12.809   7.953
 7349POPC   C4A31674  26.006  12.822   7.653
 7349POPC   C1B31675  25.805  12.959   8.553
 7349POPC   C2B31676  25.759  12.949   8.253
 7349POPC   C3B31677  25.757  12.912   7.953
 7349POPC   C4B31678  25.837  12.882   7.653
 7350POPC   NC331679  29.881  10.494   9.453
 7350POPC   PO431680  29.935  10.509   9.153
 7350POPC   GL131681  29.953  10.528   8.853
 7350POPC   GL231682  29.918  10.373   8.853
 7350POPC   C1A31683  29.875  10.536   8.553
 7350POPC   D2A31684  29.895  10.474   8.253
 7350POPC   C3A31685  29.918  10.532   7.953
 7350POPC   C4A31686  29.883  10.553   7.653
 7350POPC   C1B31687  29.829  10.324   8.553
 7350POPC   C2B31688  29.817  10.300   8.253
 7350POPC   C3B31689  29.872  10.277   7.953
 7350POPC   C4B31690  29.790  10.278   7.653
 7351POPC   NC331691  35.354  26.060   9.453
 7351POPC   PO431692  35.329  26.072   9.153
 7351POPC   GL131693  35.395  26.088   8.853
 7351POPC   GL231694  35.258  26.086   8.853
 7351POPC   C1A31695  35.321  26.029   8.553
 7351POPC   D2A31696  35.373  26.041   8.253
 7351POPC   C3A31697  35.329  26.022   7.953
 7351POPC   C4A31698  35.384  26.036   7.653
 7351POPC   C1B31699  35.195  26.228   8.553
 7351POPC   C2B31700  35.151  26.233   8.253
 7351POPC   C3B31701  35.196  26.204   7.953
 7351POPC   C4B31702  35.217  26.223   7.653
 7352POPC   NC331703   8.983  36.113   9.453
 7352POPC   PO431704   8.989  36.129   9.153
 7352POPC   GL131705   8.957  36.097   8.853
 7352POPC   GL231706   8.926  36.266   8.853
 7352POPC   C1A31707   9.002  36.154   8.553
 7352POPC   D2A31708   8.923  36.165   8.253
 7352POPC   C3A31709   8.924  36.079   7.953
 7352POPC   C4A31710   8.928  36.137   7.653
 7352POPC   C1B31711   8.932  36.342   8.553
 7352POPC   C2B31712   8.915  36.355   8.253
 7352POPC   C3B31713   8.926  36.361   7.953
 7352POPC   C4B31714   8.952  36.347   7.653
 7353POPC   NC331715   8.210   5.839   9.453
 7353POPC   PO431716   8.236   5.865   9.153
 7353POPC   GL131717   8.159   5.914   8.853
 7353POPC   GL231718   8.214   5.707   8.853
 7353POPC   C1A31719   8.159   5.848   8.553
 7353POPC   D2A31720   8.159   5.880   8.253
 7353POPC   C3A31721   8.217   5.848   7.953
 7353POPC   C4A31722   8.175   5.911   7.653
 7353POPC   C1B31723   8.139   5.577   8.553
 7353POPC   C2B31724   8.169   5.622   8.253
 7353POPC   C3B31725   8.127   5.573   7.953
 7353POPC   C4B31726   8.121   5.651   7.653
 7354POPC   NC331727   1.980   1.228   9.453
 7354POPC   PO431728   1.985   1.259   9.153
 7354POPC   GL131729   2.003   1.221   8.853
 7354POPC   GL231730   2.013   1.370   8.853
 7354POPC   C1A31731   2.031   1.255   8.553
 7354POPC   D2A31732   2.036   1.242   8.253
 7354POPC   C3A31733   2.039   1.198   7.953
 7354POPC   C4A31734   2.019   1.180   7.653
 7354POPC   C1B31735   1.932   1.437   8.553
 7354POPC   C2B31736   1.949   1.488   8.253
 7354POPC   C3B31737   1.961   1.492   7.953
 7354POPC   C4B31738   1.983   1.509   7.653
 7355POPC   NC331739  14.354  33.037   9.453
 7355POPC   PO431740  14.449  33.039   9.153
 7355POPC   GL131741  14.360  32.999   8.853
 7355POPC   GL231742  14.561  33.036   8.853
 7355POPC   C1A31743  14.393  33.048   8.553
 7355POPC   D2A31744  14.397  33.026   8.253
 7355POPC   C3A31745  14.453  33.061   7.953
 7355POPC   C4A31746  14.415  33.033   7.653
 7355POPC   C1B31747  14.634  33.031   8.553
 7355POPC   C2B31748  14.662  33.080   8.253
 7355POPC   C3B31749  14.661  33.006   7.953
 7355POPC   C4B31750  14.649  33.037   7.653
 7356POPC   NC331751  35.314  23.717   9.453
 7356POPC   PO431752  35.312  23.690   9.153
 7356POPC   GL131753  35.377  23.703   8.853
 7356POPC   GL231754  35.236  23.712   8.853
 7356POPC   C1A31755  35.347  23.676   8.553
 7356POPC   D2A31756  35.353  23.741   8.253
 7356POPC   C3A31757  35.372  23.690   7.953
 7356POPC   C4A31758  35.395  23.732   7.653
 7356POPC   C1B31759  35.132  23.716   8.553
 7356POPC   C2B31760  35.086  23.717   8.253
 7356POPC   C3B31761  35.138  23.794   7.953
 7356POPC   C4B31762  35.070  23.797   7.653
 7357POPC   NC331763  38.498  42.321   9.453
 7357POPC   PO431764  38.460  42.313   9.153
 7357POPC   GL131765  38.415  42.299   8.853
 7357POPC   GL231766  38.390  42.454   8.853
 7357POPC   C1A31767  38.428  42.294   8.553
 7357POPC   D2A31768  38.440  42.319   8.253
 7357POPC   C3A31769  38.431  42.377   7.953
 7357POPC   C4A31770  38.443  42.375   7.653
 7357POPC   C1B31771  38.244  42.544   8.553
 7357POPC   C2B31772  38.291  42.457   8.253
 7357POPC   C3B31773  38.250  42.506   7.953
 7357POPC   C4B31774  38.226  42.513   7.653
 7358POPC   NC331775   9.745  36.929   9.453
 7358POPC   PO431776   9.730  36.893   9.153
 7358POPC   GL131777   9.706  36.949   8.853
 7358POPC   GL231778   9.857  36.842   8.853
 7358POPC   C1A31779   9.726  36.884   8.553
 7358POPC   D2A31780   9.767  36.877   8.253
 7358POPC   C3A31781   9.732  36.900   7.953
 7358POPC   C4A31782   9.772  36.948   7.653
 7358POPC   C1B31783   9.873  36.651   8.553
 7358POPC   C2B31784   9.890  36.658   8.253
 7358POPC   C3B31785   9.882  36.653   7.953
 7358POPC   C4B31786   9.886  36.677   7.653
 7359POPC   NC331787  22.958  44.683   9.453
 7359POPC   PO431788  22.936  44.671   9.153
 7359POPC   GL131789  22.981  44.700   8.853
 7359POPC   GL231790  23.050  44.520   8.853
 7359POPC   C1A31791  22.890  44.706   8.553
 7359POPC   D2A31792  22.975  44.674   8.253
 7359POPC   C3A31793  22.914  44.626   7.953
 7359POPC   C4A31794  22.962  44.614   7.653
 7359POPC   C1B31795  23.080  44.413   8.553
 7359POPC   C2B31796  23.074  44.451   8.253
 7359POPC   C3B31797  23.039  44.436   7.953
 7359POPC   C4B31798  23.026  44.441   7.653
 7360POPC   NC331799  19.073  19.020   9.453
 7360POPC   PO431800  19.034  19.053   9.153
 7360POPC   GL131801  19.061  19.050   8.853
 7360POPC   GL231802  18.979  18.997   8.853
 7360POPC   C1A31803  19.079  19.061   8.553
 7360POPC   D2A31804  19.094  19.017   8.253
 7360POPC   C3A31805  19.022  19.102   7.953
 7360POPC   C4A31806  19.094  19.089   7.653
 7360POPC   C1B31807  18.891  18.841   8.553
 7360POPC   C2B31808  18.904  18.877   8.253
 7360POPC   C3B31809  18.966  18.818   7.953
 7360POPC   C4B31810  18.966  18.832   7.653
 7361POPC   NC331811  17.485  18.316   9.453
 7361POPC   PO431812  17.490  18.282   9.153
 7361POPC   GL131813  17.533  18.276   8.853
 7361POPC   GL231814  17.375  18.308   8.853
 7361POPC   C1A31815  17.481  18.289   8.553
 7361POPC   D2A31816  17.488  18.237   8.253
 7361POPC   C3A31817  17.514  18.268   7.953
 7361POPC   C4A31818  17.489  18.254   7.653
 7361POPC   C1B31819  17.237  18.311   8.553
 7361POPC   C2B31820  17.209  18.297   8.253
 7361POPC   C3B31821  17.216  18.330   7.953
 7361POPC   C4B31822  17.233  18.280   7.653
 7362POPC   NC331823  38.481  26.813   9.453
 7362POPC   PO431824  38.418  26.852   9.153
 7362POPC   GL131825  38.459  26.841   8.853
 7362POPC   GL231826  38.547  26.720   8.853
 7362POPC   C1A31827  38.494  26.839   8.553
 7362POPC   D2A31828  38.430  26.767   8.253
 7362POPC   C3A31829  38.412  26.851   7.953
 7362POPC   C4A31830  38.495  26.829   7.653
 7362POPC   C1B31831  38.623  26.679   8.553
 7362POPC   C2B31832  38.621  26.702   8.253
 7362POPC   C3B31833  38.670  26.639   7.953
 7362POPC   C4B31834  38.604  26.664   7.653
 7363POPC   NC331835   1.194  12.048   9.453
 7363POPC   PO431836   1.234  12.078   9.153
 7363POPC   GL131837   1.213  12.099   8.853
 7363POPC   GL231838   1.347  12.016   8.853
 7363POPC   C1A31839   1.260  12.098   8.553
 7363POPC   D2A31840   1.211  12.064   8.253
 7363POPC   C3A31841   1.243  12.097   7.953
 7363POPC   C4A31842   1.177  12.089   7.653
 7363POPC   C1B31843   1.454  11.873   8.553
 7363POPC   C2B31844   1.372  11.908   8.253
 7363POPC   C3B31845   1.417  11.923   7.953
 7363POPC   C4B31846   1.394  11.958   7.653
 7364POPC   NC331847  29.105  17.491   9.453
 7364POPC   PO431848  29.119  17.501   9.153
 7364POPC   GL131849  29.108  17.478   8.853
 7364POPC   GL231850  29.261  17.607   8.853
 7364POPC   C1A31851  29.174  17.514   8.553
 7364POPC   D2A31852  29.160  17.554   8.253
 7364POPC   C3A31853  29.102  17.485   7.953
 7364POPC   C4A31854  29.097  17.489   7.653
 7364POPC   C1B31855  29.334  17.583   8.553
 7364POPC   C2B31856  29.372  17.621   8.253
 7364POPC   C3B31857  29.391  17.581   7.953
 7364POPC   C4B31858  29.377  17.628   7.653
 7365POPC   NC331859  36.092  22.969   9.453
 7365POPC   PO431860  36.091  22.900   9.153
 7365POPC   GL131861  36.129  22.966   8.853
 7365POPC   GL231862  35.972  22.889   8.853
 7365POPC   C1A31863  36.082  22.920   8.553
 7365POPC   D2A31864  36.098  22.911   8.253
 7365POPC   C3A31865  36.142  22.987   7.953
 7365POPC   C4A31866  36.118  22.914   7.653
 7365POPC   C1B31867  35.903  22.912   8.553
 7365POPC   C2B31868  35.854  22.877   8.253
 7365POPC   C3B31869  35.858  22.950   7.953
 7365POPC   C4B31870  35.875  22.928   7.653
 7366POPC   NC331871   4.342  27.639   9.453
 7366POPC   PO431872   4.329  27.615   9.153
 7366POPC   GL131873   4.293  27.620   8.853
 7366POPC   GL231874   4.221  27.687   8.853
 7366POPC   C1A31875   4.305  27.611   8.553
 7366POPC   D2A31876   4.357  27.568   8.253
 7366POPC   C3A31877   4.306  27.589   7.953
 7366POPC   C4A31878   4.281  27.577   7.653
 7366POPC   C1B31879   4.100  27.782   8.553
 7366POPC   C2B31880   4.144  27.787   8.253
 7366POPC   C3B31881   4.114  27.748   7.953
 7366POPC   C4B31882   4.133  27.788   7.653
 7367POPC   NC331883   5.841  28.332   9.453
 7367POPC   PO431884   5.882  28.400   9.153
 7367POPC   GL131885   5.903  28.334   8.853
 7367POPC   GL231886   5.931  28.263   8.853
 7367POPC   C1A31887   5.858  28.342   8.553
 7367POPC   D2A31888   5.902  28.357   8.253
 7367POPC   C3A31889   5.852  28.364   7.953
 7367POPC   C4A31890   5.834  28.404   7.653
 7367POPC   C1B31891   6.084  28.271   8.553
 7367POPC   C2B31892   6.044  28.261   8.253
 7367POPC   C3B31893   6.058  28.212   7.953
 7367POPC   C4B31894   6.042  28.265   7.653
 7368POPC   NC331895  33.782   2.732   9.453
 7368POPC   PO431896  33.799   2.737   9.153
 7368POPC   GL131897  33.820   2.724   8.853
 7368POPC   GL231898  33.907   2.761   8.853
 7368POPC   C1A31899  33.754   2.796   8.553
 7368POPC   D2A31900  33.784   2.743   8.253
 7368POPC   C3A31901  33.755   2.726   7.953
 7368POPC   C4A31902  33.840   2.787   7.653
 7368POPC   C1B31903  34.090   2.861   8.553
 7368POPC   C2B31904  34.061   2.809   8.253
 7368POPC   C3B31905  34.052   2.795   7.953
 7368POPC   C4B31906  34.011   2.796   7.653
 7369POPC   NC331907   2.760  27.583   9.453
 7369POPC   PO431908   2.768  27.553   9.153
 7369POPC   GL131909   2.721  27.615   8.853
 7369POPC   GL231910   2.723  27.669   8.853
 7369POPC   C1A31911   2.795  27.585   8.553
 7369POPC   D2A31912   2.777  27.581   8.253
 7369POPC   C3A31913   2.801  27.603   7.953
 7369POPC   C4A31914   2.734  27.610   7.653
 7369POPC   C1B31915   2.728  27.840   8.553
 7369POPC   C2B31916   2.779  27.857   8.253
 7369POPC   C3B31917   2.761  27.849   7.953
 7369POPC   C4B31918   2.723  27.823   7.653
 7370POPC   NC331919  39.961  29.164   9.453
 7370POPC   PO431920  40.000  29.099   9.153
 7370POPC   GL131921  40.016  29.144   8.853
 7370POPC   GL231922  39.918  29.154   8.853
 7370POPC   C1A31923  40.036  29.108   8.553
 7370POPC   D2A31924  39.994  29.165   8.253
 7370POPC   C3A31925  39.998  29.164   7.953
 7370POPC   C4A31926  39.990  29.172   7.653
 7370POPC   C1B31927  39.779  29.187   8.553
 7370POPC   C2B31928  39.810  29.210   8.253
 7370POPC   C3B31929  39.778  29.236   7.953
 7370POPC   C4B31930  39.721  29.214   7.653
 7371POPC   NC331931  24.477   9.783   9.453
 7371POPC   PO431932  24.464   9.699   9.153
 7371POPC   GL131933  24.485   9.793   8.853
 7371POPC   GL231934  24.391   9.603   8.853
 7371POPC   C1A31935  24.536   9.762   8.553
 7371POPC   D2A31936  24.514   9.797   8.253
 7371POPC   C3A31937  24.537   9.727   7.953
 7371POPC   C4A31938  24.493   9.725   7.653
 7371POPC   C1B31939  24.343   9.596   8.553
 7371POPC   C2B31940  24.345   9.545   8.253
 7371POPC   C3B31941  24.365   9.531   7.953
 7371POPC   C4B31942  24.344   9.537   7.653
 7372POPC   NC331943  11.296   5.122   9.453
 7372POPC   PO431944  11.256   5.095   9.153
 7372POPC   GL131945  11.346   5.121   8.853
 7372POPC   GL231946  11.403   5.003   8.853
 7372POPC   C1A31947  11.334   5.067   8.553
 7372POPC   D2A31948  11.339   5.069   8.253
 7372POPC   C3A31949  11.349   5.068   7.953
 7372POPC   C4A31950  11.255   5.099   7.653
 7372POPC   C1B31951  11.452   4.951   8.553
 7372POPC   C2B31952  11.458   4.915   8.253
 7372POPC   C3B31953  11.443   4.938   7.953
 7372POPC   C4B31954  11.451   4.945   7.653
 7373POPC   NC331955  28.394  37.681   9.453
 7373POPC   PO431956  28.362  37.654   9.153
 7373POPC   GL131957  28.360  37.710   8.853
 7373POPC   GL231958  28.341  37.539   8.853
 7373POPC   C1A31959  28.374  37.660   8.553
 7373POPC   D2A31960  28.329  37.634   8.253
 7373POPC   C3A31961  28.387  37.706   7.953
 7373POPC   C4A31962  28.367  37.671   7.653
 7373POPC   C1B31963  28.235  37.412   8.553
 7373POPC   C2B31964  28.255  37.432   8.253
 7373POPC   C3B31965  28.254  37.475   7.953
 7373POPC   C4B31966  28.283  37.466   7.653
 7374POPC   NC331967  19.857  22.197   9.453
 7374POPC   PO431968  19.851  22.115   9.153
 7374POPC   GL131969  19.874  22.138   8.853
 7374POPC   GL231970  19.866  22.274   8.853
 7374POPC   C1A31971  19.880  22.117   8.553
 7374POPC   D2A31972  19.792  22.174   8.253
 7374POPC   C3A31973  19.880  22.124   7.953
 7374POPC   C4A31974  19.840  22.206   7.653
 7374POPC   C1B31975  19.970  22.354   8.553
 7374POPC   C2B31976  19.975  22.335   8.253
 7374POPC   C3B31977  19.974  22.396   7.953
 7374POPC   C4B31978  19.945  22.399   7.653
 7375POPC   NC331979  15.933  17.509   9.453
 7375POPC   PO431980  15.937  17.489   9.153
 7375POPC   GL131981  15.919  17.474   8.853
 7375POPC   GL231982  15.919  17.435   8.853
 7375POPC   C1A31983  16.002  17.468   8.553
 7375POPC   D2A31984  15.965  17.485   8.253
 7375POPC   C3A31985  15.976  17.549   7.953
 7375POPC   C4A31986  15.970  17.533   7.653
 7375POPC   C1B31987  15.770  17.293   8.553
 7375POPC   C2B31988  15.758  17.289   8.253
 7375POPC   C3B31989  15.832  17.279   7.953
 7375POPC   C4B31990  15.843  17.301   7.653
 7376POPC   NC331991  43.097  43.867   9.453
 7376POPC   PO431992  43.075  43.913   9.153
 7376POPC   GL131993  43.149  43.929   8.853
 7376POPC   GL231994  43.189  43.938   8.853
 7376POPC   C1A31995  43.133  43.920   8.553
 7376POPC   D2A31996  43.125  43.929   8.253
 7376POPC   C3A31997  43.102  43.897   7.953
 7376POPC   C4A31998  43.066  43.844   7.653
 7376POPC   C1B31999  43.264  44.020   8.553
 7376POPC   C2B32000  43.288  44.082   8.253
 7376POPC   C3B32001  43.283  44.051   7.953
 7376POPC   C4B32002  43.343  44.086   7.653
 7377POPC   NC332003   5.896   4.274   9.453
 7377POPC   PO432004   5.880   4.282   9.153
 7377POPC   GL132005   5.897   4.297   8.853
 7377POPC   GL232006   5.722   4.393   8.853
 7377POPC   C1A32007   5.846   4.315   8.553
 7377POPC   D2A32008   5.883   4.274   8.253
 7377POPC   C3A32009   5.858   4.301   7.953
 7377POPC   C4A32010   5.820   4.294   7.653
 7377POPC   C1B32011   5.654   4.421   8.553
 7377POPC   C2B32012   5.601   4.471   8.253
 7377POPC   C3B32013   5.691   4.466   7.953
 7377POPC   C4B32014   5.611   4.384   7.653
 7378POPC   NC332015  38.491   6.668   9.453
 7378POPC   PO432016  38.454   6.674   9.153
 7378POPC   GL132017  38.427   6.640   8.853
 7378POPC   GL232018  38.526   6.544   8.853
 7378POPC   C1A32019  38.443   6.611   8.553
 7378POPC   D2A32020  38.468   6.683   8.253
 7378POPC   C3A32021  38.474   6.639   7.953
 7378POPC   C4A32022  38.419   6.647   7.653
 7378POPC   C1B32023  38.628   6.495   8.553
 7378POPC   C2B32024  38.710   6.539   8.253
 7378POPC   C3B32025  38.680   6.472   7.953
 7378POPC   C4B32026  38.707   6.477   7.653
 7379POPC   NC332027  11.326  35.303   9.453
 7379POPC   PO432028  11.342  35.379   9.153
 7379POPC   GL132029  11.347  35.383   8.853
 7379POPC   GL232030  11.165  35.363   8.853
 7379POPC   C1A32031  11.344  35.348   8.553
 7379POPC   D2A32032  11.338  35.328   8.253
 7379POPC   C3A32033  11.253  35.351   7.953
 7379POPC   C4A32034  11.343  35.303   7.653
 7379POPC   C1B32035  11.047  35.327   8.553
 7379POPC   C2B32036  11.018  35.295   8.253
 7379POPC   C3B32037  11.081  35.349   7.953
 7379POPC   C4B32038  11.042  35.291   7.653
 7380POPC   NC332039   8.162  44.670   9.453
 7380POPC   PO432040   8.182  44.665   9.153
 7380POPC   GL132041   8.182  44.689   8.853
 7380POPC   GL232042   8.341  44.759   8.853
 7380POPC   C1A32043   8.227  44.683   8.553
 7380POPC   D2A32044   8.222  44.635   8.253
 7380POPC   C3A32045   8.219  44.699   7.953
 7380POPC   C4A32046   8.201  44.693   7.653
 7380POPC   C1B32047   8.351  44.824   8.553
 7380POPC   C2B32048   8.389  44.816   8.253
 7380POPC   C3B32049   8.358  44.778   7.953
 7380POPC   C4B32050   8.357  44.828   7.653
 7381POPC   NC332051  22.131  11.338   9.453
 7381POPC   PO432052  22.204  11.268   9.153
 7381POPC   GL132053  22.181  11.342   8.853
 7381POPC   GL232054  22.243  11.425   8.853
 7381POPC   C1A32055  22.118  11.255   8.553
 7381POPC   D2A32056  22.150  11.293   8.253
 7381POPC   C3A32057  22.135  11.336   7.953
 7381POPC   C4A32058  22.155  11.257   7.653
 7381POPC   C1B32059  22.248  11.581   8.553
 7381POPC   C2B32060  22.270  11.504   8.253
 7381POPC   C3B32061  22.238  11.490   7.953
 7381POPC   C4B32062  22.260  11.529   7.653
 7382POPC   NC332063   3.557  25.994   9.453
 7382POPC   PO432064   3.528  26.065   9.153
 7382POPC   GL132065   3.574  26.050   8.853
 7382POPC   GL232066   3.609  25.979   8.853
 7382POPC   C1A32067   3.517  26.033   8.553
 7382POPC   D2A32068   3.585  26.074   8.253
 7382POPC   C3A32069   3.533  26.027   7.953
 7382POPC   C4A32070   3.496  26.042   7.653
 7382POPC   C1B32071   3.803  25.893   8.553
 7382POPC   C2B32072   3.806  25.941   8.253
 7382POPC   C3B32073   3.756  25.912   7.953
 7382POPC   C4B32074   3.742  25.946   7.653
 7383POPC   NC332075  35.302   5.828   9.453
 7383POPC   PO432076  35.338   5.917   9.153
 7383POPC   GL132077  35.350   5.869   8.853
 7383POPC   GL232078  35.463   5.877   8.853
 7383POPC   C1A32079  35.342   5.851   8.553
 7383POPC   D2A32080  35.358   5.846   8.253
 7383POPC   C3A32081  35.359   5.823   7.953
 7383POPC   C4A32082  35.359   5.870   7.653
 7383POPC   C1B32083  35.614   6.003   8.553
 7383POPC   C2B32084  35.606   5.908   8.253
 7383POPC   C3B32085  35.604   5.985   7.953
 7383POPC   C4B32086  35.553   5.927   7.653
 7384POPC   NC332087  28.413  14.427   9.453
 7384POPC   PO432088  28.362  14.379   9.153
 7384POPC   GL132089  28.386  14.384   8.853
 7384POPC   GL232090  28.335  14.321   8.853
 7384POPC   C1A32091  28.328  14.433   8.553
 7384POPC   D2A32092  28.358  14.442   8.253
 7384POPC   C3A32093  28.323  14.400   7.953
 7384POPC   C4A32094  28.338  14.361   7.653
 7384POPC   C1B32095  28.285  14.138   8.553
 7384POPC   C2B32096  28.322  14.205   8.253
 7384POPC   C3B32097  28.289  14.193   7.953
 7384POPC   C4B32098  28.313  14.140   7.653
 7385POPC   NC332099  43.061   8.158   9.453
 7385POPC   PO432100  43.126   8.239   9.153
 7385POPC   GL132101  43.082   8.183   8.853
 7385POPC   GL232102  43.124   8.061   8.853
 7385POPC   C1A32103  43.107   8.185   8.553
 7385POPC   D2A32104  43.127   8.228   8.253
 7385POPC   C3A32105  43.119   8.190   7.953
 7385POPC   C4A32106  43.148   8.186   7.653
 7385POPC   C1B32107  43.094   7.997   8.553
 7385POPC   C2B32108  43.073   7.965   8.253
 7385POPC   C3B32109  43.112   7.957   7.953
 7385POPC   C4B32110  43.041   7.990   7.653
 7386POPC   NC332111  18.316  33.811   9.453
 7386POPC   PO432112  18.332  33.767   9.153
 7386POPC   GL132113  18.239  33.756   8.853
 7386POPC   GL232114  18.257  33.649   8.853
 7386POPC   C1A32115  18.328  33.809   8.553
 7386POPC   D2A32116  18.242  33.841   8.253
 7386POPC   C3A32117  18.236  33.780   7.953
 7386POPC   C4A32118  18.270  33.803   7.653
 7386POPC   C1B32119  18.316  33.594   8.553
 7386POPC   C2B32120  18.238  33.509   8.253
 7386POPC   C3B32121  18.277  33.524   7.953
 7386POPC   C4B32122  18.272  33.530   7.653
 7387POPC   NC332123  27.603  31.510   9.453
 7387POPC   PO432124  27.547  31.505   9.153
 7387POPC   GL132125  27.638  31.477   8.853
 7387POPC   GL232126  27.641  31.392   8.853
 7387POPC   C1A32127  27.544  31.504   8.553
 7387POPC   D2A32128  27.588  31.496   8.253
 7387POPC   C3A32129  27.554  31.479   7.953
 7387POPC   C4A32130  27.546  31.441   7.653
 7387POPC   C1B32131  27.633  31.230   8.553
 7387POPC   C2B32132  27.618  31.270   8.253
 7387POPC   C3B32133  27.694  31.224   7.953
 7387POPC   C4B32134  27.696  31.208   7.653
 7388POPC   NC332135  15.203   9.018   9.453
 7388POPC   PO432136  15.190   8.964   9.153
 7388POPC   GL132137  15.149   8.931   8.853
 7388POPC   GL232138  15.233   9.081   8.853
 7388POPC   C1A32139  15.163   9.016   8.553
 7388POPC   D2A32140  15.173   8.930   8.253
 7388POPC   C3A32141  15.144   8.989   7.953
 7388POPC   C4A32142  15.152   8.958   7.653
 7388POPC   C1B32143  15.250   9.223   8.553
 7388POPC   C2B32144  15.322   9.221   8.253
 7388POPC   C3B32145  15.316   9.212   7.953
 7388POPC   C4B32146  15.306   9.193   7.653
 7389POPC   NC332147  13.580  20.566   9.453
 7389POPC   PO432148  13.598  20.640   9.153
 7389POPC   GL132149  13.675  20.605   8.853
 7389POPC   GL232150  13.575  20.669   8.853
 7389POPC   C1A32151  13.609  20.635   8.553
 7389POPC   D2A32152  13.587  20.635   8.253
 7389POPC   C3A32153  13.614  20.627   7.953
 7389POPC   C4A32154  13.672  20.624   7.653
 7389POPC   C1B32155  13.411  20.795   8.553
 7389POPC   C2B32156  13.478  20.713   8.253
 7389POPC   C3B32157  13.422  20.786   7.953
 7389POPC   C4B32158  13.424  20.736   7.653
 7390POPC   NC332159  43.132  40.002   9.453
 7390POPC   PO432160  43.146  39.969   9.153
 7390POPC   GL132161  43.114  40.049   8.853
 7390POPC   GL232162  42.974  39.991   8.853
 7390POPC   C1A32163  43.150  39.977   8.553
 7390POPC   D2A32164  43.144  39.996   8.253
 7390POPC   C3A32165  43.119  39.974   7.953
 7390POPC   C4A32166  43.089  39.997   7.653
 7390POPC   C1B32167  42.851  39.859   8.553
 7390POPC   C2B32168  42.891  39.837   8.253
 7390POPC   C3B32169  42.908  39.831   7.953
 7390POPC   C4B32170  42.880  39.886   7.653
 7391POPC   NC332171  33.751   6.619   9.453
 7391POPC   PO432172  33.804   6.614   9.153
 7391POPC   GL132173  33.808   6.619   8.853
 7391POPC   GL232174  33.831   6.734   8.853
 7391POPC   C1A32175  33.823   6.662   8.553
 7391POPC   D2A32176  33.807   6.633   8.253
 7391POPC   C3A32177  33.806   6.657   7.953
 7391POPC   C4A32178  33.789   6.664   7.653
 7391POPC   C1B32179  33.905   6.819   8.553
 7391POPC   C2B32180  33.907   6.796   8.253
 7391POPC   C3B32181  33.914   6.867   7.953
 7391POPC   C4B32182  33.983   6.834   7.653
 7392POPC   NC332183   2.814  15.224   9.453
 7392POPC   PO432184   2.771  15.216   9.153
 7392POPC   GL132185   2.782  15.166   8.853
 7392POPC   GL232186   2.782  15.339   8.853
 7392POPC   C1A32187   2.780  15.225   8.553
 7392POPC   D2A32188   2.733  15.197   8.253
 7392POPC   C3A32189   2.787  15.159   7.953
 7392POPC   C4A32190   2.754  15.202   7.653
 7392POPC   C1B32191   2.773  15.449   8.553
 7392POPC   C2B32192   2.844  15.460   8.253
 7392POPC   C3B32193   2.800  15.425   7.953
 7392POPC   C4B32194   2.851  15.461   7.653
 7393POPC   NC332195  21.398  44.711   9.453
 7393POPC   PO432196  21.418  44.652   9.153
 7393POPC   GL132197  21.398  44.693   8.853
 7393POPC   GL232198  21.349  44.542   8.853
 7393POPC   C1A32199  21.347  44.673   8.553
 7393POPC   D2A32200  21.396  44.710   8.253
 7393POPC   C3A32201  21.379  44.625   7.953
 7393POPC   C4A32202  21.360  44.615   7.653
 7393POPC   C1B32203  21.336  44.438   8.553
 7393POPC   C2B32204  21.394  44.446   8.253
 7393POPC   C3B32205  21.373  44.462   7.953
 7393POPC   C4B32206  21.360  44.448   7.653
 7394POPC   NC332207  41.574  19.830   9.453
 7394POPC   PO432208  41.586  19.827   9.153
 7394POPC   GL132209  41.583  19.828   8.853
 7394POPC   GL232210  41.714  19.813   8.853
 7394POPC   C1A32211  41.538  19.869   8.553
 7394POPC   D2A32212  41.575  19.859   8.253
 7394POPC   C3A32213  41.541  19.792   7.953
 7394POPC   C4A32214  41.568  19.853   7.653
 7394POPC   C1B32215  41.821  19.836   8.553
 7394POPC   C2B32216  41.826  19.830   8.253
 7394POPC   C3B32217  41.824  19.908   7.953
 7394POPC   C4B32218  41.786  19.851   7.653
 7395POPC   NC332219  27.624  12.827   9.453
 7395POPC   PO432220  27.633  12.810   9.153
 7395POPC   GL132221  27.545  12.838   8.853
 7395POPC   GL232222  27.659  12.752   8.853
 7395POPC   C1A32223  27.544  12.883   8.553
 7395POPC   D2A32224  27.619  12.879   8.253
 7395POPC   C3A32225  27.549  12.840   7.953
 7395POPC   C4A32226  27.608  12.846   7.653
 7395POPC   C1B32227  27.799  12.659   8.553
 7395POPC   C2B32228  27.762  12.728   8.253
 7395POPC   C3B32229  27.800  12.634   7.953
 7395POPC   C4B32230  27.784  12.636   7.653
 7396POPC   NC332231   5.853  35.350   9.453
 7396POPC   PO432232   5.908  35.320   9.153
 7396POPC   GL132233   5.916  35.389   8.853
 7396POPC   GL232234   5.741  35.282   8.853
 7396POPC   C1A32235   5.847  35.358   8.553
 7396POPC   D2A32236   5.875  35.391   8.253
 7396POPC   C3A32237   5.822  35.377   7.953
 7396POPC   C4A32238   5.857  35.321   7.653
 7396POPC   C1B32239   5.702  35.255   8.553
 7396POPC   C2B32240   5.686  35.239   8.253
 7396POPC   C3B32241   5.668  35.255   7.953
 7396POPC   C4B32242   5.619  35.250   7.653
 7397POPC   NC332243   9.700   3.552   9.453
 7397POPC   PO432244   9.709   3.574   9.153
 7397POPC   GL132245   9.704   3.494   8.853
 7397POPC   GL232246   9.706   3.434   8.853
 7397POPC   C1A32247   9.782   3.493   8.553
 7397POPC   D2A32248   9.738   3.531   8.253
 7397POPC   C3A32249   9.718   3.513   7.953
 7397POPC   C4A32250   9.711   3.548   7.653
 7397POPC   C1B32251   9.543   3.410   8.553
 7397POPC   C2B32252   9.569   3.366   8.253
 7397POPC   C3B32253   9.601   3.413   7.953
 7397POPC   C4B32254   9.549   3.367   7.653
 7398POPC   NC332255  40.053  22.973   9.453
 7398POPC   PO432256  40.052  22.955   9.153
 7398POPC   GL132257  40.048  22.983   8.853
 7398POPC   GL232258  40.079  22.964   8.853
 7398POPC   C1A32259  40.002  22.977   8.553
 7398POPC   D2A32260  40.025  22.927   8.253
 7398POPC   C3A32261  40.015  22.982   7.953
 7398POPC   C4A32262  39.997  22.981   7.653
 7398POPC   C1B32263  40.190  23.038   8.553
 7398POPC   C2B32264  40.276  23.093   8.253
 7398POPC   C3B32265  40.272  23.044   7.953
 7398POPC   C4B32266  40.227  23.065   7.653
 7399POPC   NC332267  12.039  41.567   9.453
 7399POPC   PO432268  12.047  41.525   9.153
 7399POPC   GL132269  12.049  41.510   8.853
 7399POPC   GL232270  12.206  41.618   8.853
 7399POPC   C1A32271  12.078  41.553   8.553
 7399POPC   D2A32272  12.052  41.516   8.253
 7399POPC   C3A32273  12.050  41.578   7.953
 7399POPC   C4A32274  12.126  41.607   7.653
 7399POPC   C1B32275  12.277  41.704   8.553
 7399POPC   C2B32276  12.334  41.694   8.253
 7399POPC   C3B32277  12.307  41.693   7.953
 7399POPC   C4B32278  12.310  41.637   7.653
 7400POPC   NC332279   5.908  22.921   9.453
 7400POPC   PO432280   5.881  22.925   9.153
 7400POPC   GL132281   5.887  22.956   8.853
 7400POPC   GL232282   6.037  22.932   8.853
 7400POPC   C1A32283   5.848  22.951   8.553
 7400POPC   D2A32284   5.874  22.907   8.253
 7400POPC   C3A32285   5.912  22.931   7.953
 7400POPC   C4A32286   5.826  22.926   7.653
 7400POPC   C1B32287   6.122  22.944   8.553
 7400POPC   C2B32288   6.074  23.027   8.253
 7400POPC   C3B32289   6.069  23.030   7.953
 7400POPC   C4B32290   6.092  23.024   7.653
 7401POPC   NC332291  34.547  35.335   9.453
 7401POPC   PO432292  34.598  35.333   9.153
 7401POPC   GL132293  34.619  35.313   8.853
 7401POPC   GL232294  34.422  35.325   8.853
 7401POPC   C1A32295  34.569  35.368   8.553
 7401POPC   D2A32296  34.587  35.321   8.253
 7401POPC   C3A32297  34.542  35.381   7.953
 7401POPC   C4A32298  34.574  35.320   7.653
 7401POPC   C1B32299  34.377  35.399   8.553
 7401POPC   C2B32300  34.348  35.391   8.253
 7401POPC   C3B32301  34.277  35.346   7.953
 7401POPC   C4B32302  34.306  35.408   7.653
 7402POPC   NC332303   1.253  24.519   9.453
 7402POPC   PO432304   1.211  24.440   9.153
 7402POPC   GL132305   1.202  24.460   8.853
 7402POPC   GL232306   1.117  24.491   8.853
 7402POPC   C1A32307   1.239  24.467   8.553
 7402POPC   D2A32308   1.185  24.500   8.253
 7402POPC   C3A32309   1.225  24.493   7.953
 7402POPC   C4A32310   1.241  24.492   7.653
 7402POPC   C1B32311   0.963  24.431   8.553
 7402POPC   C2B32312   0.963  24.468   8.253
 7402POPC   C3B32313   1.012  24.448   7.953
 7402POPC   C4B32314   0.938  24.465   7.653
 7403POPC   NC332315   8.927   8.963   9.453
 7403POPC   PO432316   8.950   8.957   9.153
 7403POPC   GL132317   9.012   9.010   8.853
 7403POPC   GL232318   9.038   9.045   8.853
 7403POPC   C1A32319   8.956   9.013   8.553
 7403POPC   D2A32320   8.972   8.933   8.253
 7403POPC   C3A32321   9.000   8.925   7.953
 7403POPC   C4A32322   8.969   8.967   7.653
 7403POPC   C1B32323   9.157   9.183   8.553
 7403POPC   C2B32324   9.091   9.166   8.253
 7403POPC   C3B32325   9.092   9.141   7.953
 7403POPC   C4B32326   9.096   9.202   7.653
 7404POPC   NC332327   5.048  32.267   9.453
 7404POPC   PO432328   5.059  32.220   9.153
 7404POPC   GL132329   5.101  32.291   8.853
 7404POPC   GL232330   5.177  32.175   8.853
 7404POPC   C1A32331   5.108  32.208   8.553
 7404POPC   D2A32332   5.060  32.203   8.253
 7404POPC   C3A32333   5.121  32.203   7.953
 7404POPC   C4A32334   5.128  32.271   7.653
 7404POPC   C1B32335   5.251  32.035   8.553
 7404POPC   C2B32336   5.198  31.979   8.253
 7404POPC   C3B32337   5.255  31.992   7.953
 7404POPC   C4B32338   5.182  31.980   7.653
 7405POPC   NC332339  32.260  38.505   9.453
 7405POPC   PO432340  32.231  38.503   9.153
 7405POPC   GL132341  32.277  38.415   8.853
 7405POPC   GL232342  32.134  38.519   8.853
 7405POPC   C1A32343  32.262  38.463   8.553
 7405POPC   D2A32344  32.223  38.464   8.253
 7405POPC   C3A32345  32.209  38.414   7.953
 7405POPC   C4A32346  32.259  38.470   7.653
 7405POPC   C1B32347  32.087  38.602   8.553
 7405POPC   C2B32348  32.056  38.667   8.253
 7405POPC   C3B32349  32.108  38.578   7.953
 7405POPC   C4B32350  32.099  38.623   7.653
 7406POPC   NC332351  14.415  38.414   9.453
 7406POPC   PO432352  14.394  38.482   9.153
 7406POPC   GL132353  14.390  38.493   8.853
 7406POPC   GL232354  14.311  38.391   8.853
 7406POPC   C1A32355  14.419  38.478   8.553
 7406POPC   D2A32356  14.353  38.466   8.253
 7406POPC   C3A32357  14.427  38.406   7.953
 7406POPC   C4A32358  14.438  38.409   7.653
 7406POPC   C1B32359  14.307  38.231   8.553
 7406POPC   C2B32360  14.274  38.226   8.253
 7406POPC   C3B32361  14.307  38.245   7.953
 7406POPC   C4B32362  14.234  38.241   7.653
 7407POPC   NC332363  16.724  43.858   9.453
 7407POPC   PO432364  16.725  43.851   9.153
 7407POPC   GL132365  16.705  43.844   8.853
 7407POPC   GL232366  16.754  43.759   8.853
 7407POPC   C1A32367  16.710  43.895   8.553
 7407POPC   D2A32368  16.720  43.855   8.253
 7407POPC   C3A32369  16.726  43.880   7.953
 7407POPC   C4A32370  16.719  43.840   7.653
 7407POPC   C1B32371  16.717  43.685   8.553
 7407POPC   C2B32372  16.772  43.670   8.253
 7407POPC   C3B32373  16.768  43.650   7.953
 7407POPC   C4B32374  16.773  43.618   7.653
 7408POPC   NC332375  33.756  11.336   9.453
 7408POPC   PO432376  33.836  11.269   9.153
 7408POPC   GL132377  33.788  11.291   8.853
 7408POPC   GL232378  33.876  11.316   8.853
 7408POPC   C1A32379  33.753  11.260   8.553
 7408POPC   D2A32380  33.786  11.270   8.253
 7408POPC   C3A32381  33.841  11.302   7.953
 7408POPC   C4A32382  33.819  11.254   7.653
 7408POPC   C1B32383  34.068  11.258   8.553
 7408POPC   C2B32384  34.027  11.291   8.253
 7408POPC   C3B32385  34.055  11.299   7.953
 7408POPC   C4B32386  34.085  11.271   7.653
 7409POPC   NC332387  13.616  13.604   9.453
 7409POPC   PO432388  13.582  13.628   9.153
 7409POPC   GL132389  13.630  13.593   8.853
 7409POPC   GL232390  13.573  13.771   8.853
 7409POPC   C1A32391  13.618  13.672   8.553
 7409POPC   D2A32392  13.612  13.656   8.253
 7409POPC   C3A32393  13.588  13.674   7.953
 7409POPC   C4A32394  13.586  13.640   7.653
 7409POPC   C1B32395  13.581  13.825   8.553
 7409POPC   C2B32396  13.602  13.894   8.253
 7409POPC   C3B32397  13.600  13.862   7.953
 7409POPC   C4B32398  13.563  13.858   7.653
 7410POPC   NC332399  32.291  13.669   9.453
 7410POPC   PO432400  32.247  13.595   9.153
 7410POPC   GL132401  32.278  13.669   8.853
 7410POPC   GL232402  32.383  13.583   8.853
 7410POPC   C1A32403  32.271  13.668   8.553
 7410POPC   D2A32404  32.202  13.630   8.253
 7410POPC   C3A32405  32.236  13.641   7.953
 7410POPC   C4A32406  32.224  13.600   7.653
 7410POPC   C1B32407  32.500  13.541   8.553
 7410POPC   C2B32408  32.439  13.489   8.253
 7410POPC   C3B32409  32.469  13.490   7.953
 7410POPC   C4B32410  32.419  13.461   7.653
 7411POPC   NC332411  32.234  39.184   9.453
 7411POPC   PO432412  32.264  39.254   9.153
 7411POPC   GL132413  32.215  39.188   8.853
 7411POPC   GL232414  32.147  39.188   8.853
 7411POPC   C1A32415  32.204  39.204   8.553
 7411POPC   D2A32416  32.261  39.262   8.253
 7411POPC   C3A32417  32.293  39.258   7.953
 7411POPC   C4A32418  32.247  39.182   7.653
 7411POPC   C1B32419  32.027  39.176   8.553
 7411POPC   C2B32420  31.977  39.164   8.253
 7411POPC   C3B32421  32.025  39.253   7.953
 7411POPC   C4B32422  31.954  39.184   7.653
 7412POPC   NC332423   4.326   2.733   9.453
 7412POPC   PO432424   4.280   2.745   9.153
 7412POPC   GL132425   4.279   2.725   8.853
 7412POPC   GL232426   4.167   2.673   8.853
 7412POPC   C1A32427   4.268   2.725   8.553
 7412POPC   D2A32428   4.335   2.759   8.253
 7412POPC   C3A32429   4.315   2.766   7.953
 7412POPC   C4A32430   4.288   2.724   7.653
 7412POPC   C1B32431   4.093   2.708   8.553
 7412POPC   C2B32432   4.113   2.673   8.253
 7412POPC   C3B32433   4.083   2.649   7.953
 7412POPC   C4B32434   4.057   2.636   7.653
 7413POPC   NC332435  17.525  35.342   9.453
 7413POPC   PO432436  17.495  35.322   9.153
 7413POPC   GL132437  17.506  35.356   8.853
 7413POPC   GL232438  17.410  35.466   8.853
 7413POPC   C1A32439  17.470  35.388   8.553
 7413POPC   D2A32440  17.511  35.302   8.253
 7413POPC   C3A32441  17.510  35.382   7.953
 7413POPC   C4A32442  17.528  35.365   7.653
 7413POPC   C1B32443  17.428  35.565   8.553
 7413POPC   C2B32444  17.345  35.588   8.253
 7413POPC   C3B32445  17.359  35.552   7.953
 7413POPC   C4B32446  17.336  35.613   7.653
 7414POPC   NC332447   8.952  26.860   9.453
 7414POPC   PO432448   8.926  26.847   9.153
 7414POPC   GL132449   9.012  26.864   8.853
 7414POPC   GL232450   8.893  26.682   8.853
 7414POPC   C1A32451   8.987  26.800   8.553
 7414POPC   D2A32452   8.944  26.827   8.253
 7414POPC   C3A32453   9.001  26.777   7.953
 7414POPC   C4A32454   8.972  26.772   7.653
 7414POPC   C1B32455   8.915  26.607   8.553
 7414POPC   C2B32456   8.923  26.594   8.253
 7414POPC   C3B32457   8.945  26.550   7.953
 7414POPC   C4B32458   8.950  26.601   7.653
 7415POPC   NC332459  32.267  17.503   9.453
 7415POPC   PO432460  32.208  17.473   9.153
 7415POPC   GL132461  32.266  17.522   8.853
 7415POPC   GL232462  32.122  17.457   8.853
 7415POPC   C1A32463  32.254  17.465   8.553
 7415POPC   D2A32464  32.199  17.542   8.253
 7415POPC   C3A32465  32.201  17.527   7.953
 7415POPC   C4A32466  32.216  17.530   7.653
 7415POPC   C1B32467  32.126  17.363   8.553
 7415POPC   C2B32468  32.114  17.312   8.253
 7415POPC   C3B32469  32.065  17.353   7.953
 7415POPC   C4B32470  32.048  17.273   7.653
 7416POPC   NC332471  26.781  11.263   9.453
 7416POPC   PO432472  26.826  11.340   9.153
 7416POPC   GL132473  26.828  11.261   8.853
 7416POPC   GL232474  26.779  11.148   8.853
 7416POPC   C1A32475  26.804  11.334   8.553
 7416POPC   D2A32476  26.786  11.327   8.253
 7416POPC   C3A32477  26.770  11.295   7.953
 7416POPC   C4A32478  26.852  11.309   7.653
 7416POPC   C1B32479  26.708  11.078   8.553
 7416POPC   C2B32480  26.754  11.079   8.253
 7416POPC   C3B32481  26.695  11.017   7.953
 7416POPC   C4B32482  26.696  11.081   7.653
 7417POPC   NC332483  27.603  26.076   9.453
 7417POPC   PO432484  27.545  25.999   9.153
 7417POPC   GL132485  27.558  26.067   8.853
 7417POPC   GL232486  27.723  25.967   8.853
 7417POPC   C1A32487  27.561  26.074   8.553
 7417POPC   D2A32488  27.636  25.992   8.253
 7417POPC   C3A32489  27.630  26.028   7.953
 7417POPC   C4A32490  27.559  26.000   7.653
 7417POPC   C1B32491  27.830  25.953   8.553
 7417POPC   C2B32492  27.806  25.957   8.253
 7417POPC   C3B32493  27.851  25.949   7.953
 7417POPC   C4B32494  27.868  25.932   7.653
 7418POPC   NC332495  26.029   6.628   9.453
 7418POPC   PO432496  26.068   6.636   9.153
 7418POPC   GL132497  26.079   6.623   8.853
 7418POPC   GL232498  25.993   6.751   8.853
 7418POPC   C1A32499  26.002   6.676   8.553
 7418POPC   D2A32500  26.079   6.637   8.253
 7418POPC   C3A32501  26.062   6.600   7.953
 7418POPC   C4A32502  26.006   6.679   7.653
 7418POPC   C1B32503  26.013   6.919   8.553
 7418POPC   C2B32504  26.030   6.901   8.253
 7418POPC   C3B32505  26.042   6.883   7.953
 7418POPC   C4B32506  25.965   6.848   7.653
 7419POPC   NC332507  25.995  26.069   9.453
 7419POPC   PO432508  26.036  26.016   9.153
 7419POPC   GL132509  26.019  26.075   8.853
 7419POPC   GL232510  26.002  26.094   8.853
 7419POPC   C1A32511  25.996  26.022   8.553
 7419POPC   D2A32512  26.049  26.015   8.253
 7419POPC   C3A32513  26.058  26.085   7.953
 7419POPC   C4A32514  26.062  26.079   7.653
 7419POPC   C1B32515  25.923  26.246   8.553
 7419POPC   C2B32516  25.859  26.198   8.253
 7419POPC   C3B32517  25.925  26.233   7.953
 7419POPC   C4B32518  25.855  26.190   7.653
 7420POPC   NC332519   1.191  16.691   9.453
 7420POPC   PO432520   1.191  16.723   9.153
 7420POPC   GL132521   1.259  16.764   8.853
 7420POPC   GL232522   1.083  16.684   8.853
 7420POPC   C1A32523   1.174  16.695   8.553
 7420POPC   D2A32524   1.212  16.708   8.253
 7420POPC   C3A32525   1.208  16.686   7.953
 7420POPC   C4A32526   1.175  16.707   7.653
 7420POPC   C1B32527   0.947  16.601   8.553
 7420POPC   C2B32528   1.014  16.630   8.253
 7420POPC   C3B32529   1.032  16.624   7.953
 7420POPC   C4B32530   1.017  16.659   7.653
 7421POPC   NC332531  42.331  13.594   9.453
 7421POPC   PO432532  42.322  13.616   9.153
 7421POPC   GL132533  42.304  13.600   8.853
 7421POPC   GL232534  42.279  13.708   8.853
 7421POPC   C1A32535  42.378  13.616   8.553
 7421POPC   D2A32536  42.328  13.668   8.253
 7421POPC   C3A32537  42.374  13.660   7.953
 7421POPC   C4A32538  42.364  13.608   7.653
 7421POPC   C1B32539  42.172  13.742   8.553
 7421POPC   C2B32540  42.169  13.743   8.253
 7421POPC   C3B32541  42.146  13.746   7.953
 7421POPC   C4B32542  42.190  13.781   7.653
 7422POPC   NC332543  35.359  27.597   9.453
 7422POPC   PO432544  35.306  27.589   9.153
 7422POPC   GL132545  35.353  27.635   8.853
 7422POPC   GL232546  35.401  27.744   8.853
 7422POPC   C1A32547  35.401  27.603   8.553
 7422POPC   D2A32548  35.325  27.551   8.253
 7422POPC   C3A32549  35.343  27.560   7.953
 7422POPC   C4A32550  35.328  27.563   7.653
 7422POPC   C1B32551  35.479  27.826   8.553
 7422POPC   C2B32552  35.483  27.826   8.253
 7422POPC   C3B32553  35.454  27.858   7.953
 7422POPC   C4B32554  35.443  27.789   7.653
 7423POPC   NC332555   7.391  27.574   9.453
 7423POPC   PO432556   7.442  27.632   9.153
 7423POPC   GL132557   7.458  27.613   8.853
 7423POPC   GL232558   7.334  27.628   8.853
 7423POPC   C1A32559   7.444  27.604   8.553
 7423POPC   D2A32560   7.415  27.601   8.253
 7423POPC   C3A32561   7.421  27.568   7.953
 7423POPC   C4A32562   7.457  27.601   7.653
 7423POPC   C1B32563   7.154  27.689   8.553
 7423POPC   C2B32564   7.171  27.730   8.253
 7423POPC   C3B32565   7.241  27.735   7.953
 7423POPC   C4B32566   7.200  27.667   7.653
 7424POPC   NC332567  44.618  13.580   9.453
 7424POPC   PO432568  44.681  13.669   9.153
 7424POPC   GL132569  44.620  13.638   8.853
 7424POPC   GL232570  44.829  13.547   8.853
 7424POPC   C1A32571  44.689  13.634   8.553
 7424POPC   D2A32572  44.688  13.589   8.253
 7424POPC   C3A32573  44.664  13.663   7.953
 7424POPC   C4A32574  44.700  13.649   7.653
 7424POPC   C1B32575  44.909  13.572   8.553
 7424POPC   C2B32576  44.869  13.595   8.253
 7424POPC   C3B32577  44.876  13.589   7.953
 7424POPC   C4B32578  44.879  13.565   7.653
 7425POPC   NC332579  26.826  17.498   9.453
 7425POPC   PO432580  26.786  17.502   9.153
 7425POPC   GL132581  26.805  17.518   8.853
 7425POPC   GL232582  26.871  17.570   8.853
 7425POPC   C1A32583  26.773  17.525   8.553
 7425POPC   D2A32584  26.799  17.487   8.253
 7425POPC   C3A32585  26.855  17.472   7.953
 7425POPC   C4A32586  26.775  17.502   7.653
 7425POPC   C1B32587  27.027  17.653   8.553
 7425POPC   C2B32588  26.963  17.672   8.253
 7425POPC   C3B32589  27.052  17.675   7.953
 7425POPC   C4B32590  26.967  17.657   7.653
 7426POPC   NC332591  34.554  16.702   9.453
 7426POPC   PO432592  34.609  16.759   9.153
 7426POPC   GL132593  34.598  16.770   8.853
 7426POPC   GL232594  34.574  16.893   8.853
 7426POPC   C1A32595  34.618  16.729   8.553
 7426POPC   D2A32596  34.530  16.709   8.253
 7426POPC   C3A32597  34.585  16.704   7.953
 7426POPC   C4A32598  34.547  16.767   7.653
 7426POPC   C1B32599  34.584  16.971   8.553
 7426POPC   C2B32600  34.644  16.936   8.253
 7426POPC   C3B32601  34.576  16.974   7.953
 7426POPC   C4B32602  34.617  17.028   7.653
 7427POPC   NC332603  44.676  36.863   9.453
 7427POPC   PO432604  44.666  36.947   9.153
 7427POPC   GL132605  44.648  36.895   8.853
 7427POPC   GL232606  44.566  36.945   8.853
 7427POPC   C1A32607  44.652  36.903   8.553
 7427POPC   D2A32608  44.615  36.947   8.253
 7427POPC   C3A32609  44.654  36.863   7.953
 7427POPC   C4A32610  44.625  36.858   7.653
 7427POPC   C1B32611  44.408  37.033   8.553
 7427POPC   C2B32612  44.494  37.050   8.253
 7427POPC   C3B32613  44.437  37.082   7.953
 7427POPC   C4B32614  44.425  37.037   7.653
 7428POPC   NC332615  44.682   1.964   9.453
 7428POPC   PO432616  44.671   1.951   9.153
 7428POPC   GL132617  44.619   1.946   8.853
 7428POPC   GL232618  44.737   1.893   8.853
 7428POPC   C1A32619  44.703   2.010   8.553
 7428POPC   D2A32620  44.634   2.016   8.253
 7428POPC   C3A32621  44.633   1.985   7.953
 7428POPC   C4A32622  44.625   1.945   7.653
 7428POPC   C1B32623  44.870   1.821   8.553
 7428POPC   C2B32624  44.859   1.816   8.253
 7428POPC   C3B32625  44.833   1.867   7.953
 7428POPC   C4B32626  44.842   1.802   7.653
 7429POPC   NC332627  32.240  21.430   9.453
 7429POPC   PO432628  32.230  21.432   9.153
 7429POPC   GL132629  32.240  21.436   8.853
 7429POPC   GL232630  32.319  21.245   8.853
 7429POPC   C1A32631  32.217  21.399   8.553
 7429POPC   D2A32632  32.237  21.386   8.253
 7429POPC   C3A32633  32.279  21.405   7.953
 7429POPC   C4A32634  32.206  21.370   7.653
 7429POPC   C1B32635  32.278  21.143   8.553
 7429POPC   C2B32636  32.271  21.123   8.253
 7429POPC   C3B32637  32.242  21.189   7.953
 7429POPC   C4B32638  32.331  21.133   7.653
 7430POPC   NC332639  28.328  34.545   9.453
 7430POPC   PO432640  28.415  34.607   9.153
 7430POPC   GL132641  28.347  34.609   8.853
 7430POPC   GL232642  28.446  34.511   8.853
 7430POPC   C1A32643  28.374  34.604   8.553
 7430POPC   D2A32644  28.406  34.603   8.253
 7430POPC   C3A32645  28.401  34.586   7.953
 7430POPC   C4A32646  28.418  34.594   7.653
 7430POPC   C1B32647  28.589  34.457   8.553
 7430POPC   C2B32648  28.566  34.464   8.253
 7430POPC   C3B32649  28.633  34.466   7.953
 7430POPC   C4B32650  28.646  34.523   7.653
 7431POPC   NC332651  30.703  29.890   9.453
 7431POPC   PO432652  30.701  29.969   9.153
 7431POPC   GL132653  30.733  29.938   8.853
 7431POPC   GL232654  30.581  29.985   8.853
 7431POPC   C1A32655  30.654  29.940   8.553
 7431POPC   D2A32656  30.718  29.968   8.253
 7431POPC   C3A32657  30.732  29.960   7.953
 7431POPC   C4A32658  30.704  29.946   7.653
 7431POPC   C1B32659  30.524  30.105   8.553
 7431POPC   C2B32660  30.519  30.142   8.253
 7431POPC   C3B32661  30.534  30.128   7.953
 7431POPC   C4B32662  30.546  30.127   7.653
 7432POPC   NC332663  18.274  26.012   9.453
 7432POPC   PO432664  18.315  26.036   9.153
 7432POPC   GL132665  18.264  26.033   8.853
 7432POPC   GL232666  18.386  25.926   8.853
 7432POPC   C1A32667  18.252  26.034   8.553
 7432POPC   D2A32668  18.285  26.018   8.253
 7432POPC   C3A32669  18.320  26.051   7.953
 7432POPC   C4A32670  18.241  26.021   7.653
 7432POPC   C1B32671  18.473  25.908   8.553
 7432POPC   C2B32672  18.469  25.870   8.253
 7432POPC   C3B32673  18.452  25.884   7.953
 7432POPC   C4B32674  18.429  25.886   7.653
 7433POPC   NC332675  42.384  12.036   9.453
 7433POPC   PO432676  42.343  12.028   9.153
 7433POPC   GL132677  42.375  12.098   8.853
 7433POPC   GL232678  42.417  12.147   8.853
 7433POPC   C1A32679  42.378  12.030   8.553
 7433POPC   D2A32680  42.360  12.106   8.253
 7433POPC   C3A32681  42.351  12.038   7.953
 7433POPC   C4A32682  42.342  12.036   7.653
 7433POPC   C1B32683  42.400  12.346   8.553
 7433POPC   C2B32684  42.375  12.319   8.253
 7433POPC   C3B32685  42.439  12.333   7.953
 7433POPC   C4B32686  42.379  12.267   7.653
 7434POPC   NC332687  19.843   1.960   9.453
 7434POPC   PO432688  19.786   1.963   9.153
 7434POPC   GL132689  19.791   1.989   8.853
 7434POPC   GL232690  19.941   1.864   8.853
 7434POPC   C1A32691  19.808   2.006   8.553
 7434POPC   D2A32692  19.838   1.942   8.253
 7434POPC   C3A32693  19.799   1.944   7.953
 7434POPC   C4A32694  19.880   1.989   7.653
 7434POPC   C1B32695  20.064   1.801   8.553
 7434POPC   C2B32696  20.025   1.805   8.253
 7434POPC   C3B32697  19.975   1.796   7.953
 7434POPC   C4B32698  20.003   1.794   7.653
 7435POPC   NC332699  28.348  21.363   9.453
 7435POPC   PO432700  28.352  21.425   9.153
 7435POPC   GL132701  28.382  21.430   8.853
 7435POPC   GL232702  28.410  21.218   8.853
 7435POPC   C1A32703  28.405  21.425   8.553
 7435POPC   D2A32704  28.337  21.340   8.253
 7435POPC   C3A32705  28.326  21.343   7.953
 7435POPC   C4A32706  28.369  21.353   7.653
 7435POPC   C1B32707  28.462  21.163   8.553
 7435POPC   C2B32708  28.434  21.161   8.253
 7435POPC   C3B32709  28.394  21.108   7.953
 7435POPC   C4B32710  28.429  21.097   7.653
 7436POPC   NC332711   9.008  44.643   9.453
 7436POPC   PO432712   8.943  44.659   9.153
 7436POPC   GL132713   8.931  44.619   8.853
 7436POPC   GL232714   8.806  44.630   8.853
 7436POPC   C1A32715   8.982  44.626   8.553
 7436POPC   D2A32716   8.994  44.686   8.253
 7436POPC   C3A32717   8.930  44.690   7.953
 7436POPC   C4A32718   8.926  44.667   7.653
 7436POPC   C1B32719   8.738  44.623   8.553
 7436POPC   C2B32720   8.776  44.547   8.253
 7436POPC   C3B32721   8.787  44.591   7.953
 7436POPC   C4B32722   8.704  44.573   7.653
 7437POPC   NC332723  15.954  18.305   9.453
 7437POPC   PO432724  15.937  18.244   9.153
 7437POPC   GL132725  15.966  18.294   8.853
 7437POPC   GL232726  16.048  18.337   8.853
 7437POPC   C1A32727  15.986  18.294   8.553
 7437POPC   D2A32728  15.973  18.320   8.253
 7437POPC   C3A32729  15.983  18.244   7.953
 7437POPC   C4A32730  15.905  18.239   7.653
 7437POPC   C1B32731  16.241  18.373   8.553
 7437POPC   C2B32732  16.179  18.380   8.253
 7437POPC   C3B32733  16.195  18.318   7.953
 7437POPC   C4B32734  16.181  18.375   7.653
 7438POPC   NC332735  34.595  44.659   9.453
 7438POPC   PO432736  34.527  44.670   9.153
 7438POPC   GL132737  34.530  44.702   8.853
 7438POPC   GL232738  34.692  44.607   8.853
 7438POPC   C1A32739  34.554  44.675   8.553
 7438POPC   D2A32740  34.601  44.649   8.253
 7438POPC   C3A32741  34.619  44.704   7.953
 7438POPC   C4A32742  34.565  44.677   7.653
 7438POPC   C1B32743  34.778  44.549   8.553
 7438POPC   C2B32744  34.848  44.524   8.253
 7438POPC   C3B32745  34.766  44.540   7.953
 7438POPC   C4B32746  34.770  44.528   7.653
 7439POPC   NC332747  29.894  19.074   9.453
 7439POPC   PO432748  29.882  19.027   9.153
 7439POPC   GL132749  29.926  19.099   8.853
 7439POPC   GL232750  29.980  18.937   8.853
 7439POPC   C1A32751  29.959  19.104   8.553
 7439POPC   D2A32752  29.919  19.091   8.253
 7439POPC   C3A32753  29.884  19.106   7.953
 7439POPC   C4A32754  29.913  19.104   7.653
 7439POPC   C1B32755  29.983  18.808   8.553
 7439POPC   C2B32756  29.997  18.863   8.253
 7439POPC   C3B32757  30.005  18.800   7.953
 7439POPC   C4B32758  30.046  18.810   7.653
 7440POPC   NC332759  42.383  26.015   9.453
 7440POPC   PO432760  42.336  26.066   9.153
 7440POPC   GL132761  42.376  26.040   8.853
 7440POPC   GL232762  42.402  25.921   8.853
 7440POPC   C1A32763  42.359  26.082   8.553
 7440POPC   D2A32764  42.372  26.011   8.253
 7440POPC   C3A32765  42.290  26.019   7.953
 7440POPC   C4A32766  42.383  26.010   7.653
 7440POPC   C1B32767  42.347  25.821   8.553
 7440POPC   C2B32768  42.406  25.801   8.253
 7440POPC   C3B32769  42.406  25.777   7.953
 7440POPC   C4B32770  42.434  25.770   7.653
 7441POPC   NC332771   6.692  27.633   9.453
 7441POPC   PO432772   6.679  27.578   9.153
 7441POPC   GL132773   6.632  27.623   8.853
 7441POPC   GL232774   6.681  27.505   8.853
 7441POPC   C1A32775   6.613  27.548   8.553
 7441POPC   D2A32776   6.640  27.546   8.253
 7441POPC   C3A32777   6.662  27.598   7.953
 7441POPC   C4A32778   6.659  27.638   7.653
 7441POPC   C1B32779   6.699  27.370   8.553
 7441POPC   C2B32780   6.679  27.295   8.253
 7441POPC   C3B32781   6.641  27.354   7.953
 7441POPC   C4B32782   6.667  27.337   7.653
 7442POPC   NC332783  12.101  33.830   9.453
 7442POPC   PO432784  12.110  33.838   9.153
 7442POPC   GL132785  12.052  33.812   8.853
 7442POPC   GL232786  11.917  33.827   8.853
 7442POPC   C1A32787  12.086  33.762   8.553
 7442POPC   D2A32788  12.107  33.842   8.253
 7442POPC   C3A32789  12.038  33.779   7.953
 7442POPC   C4A32790  12.079  33.813   7.653
 7442POPC   C1B32791  11.850  33.779   8.553
 7442POPC   C2B32792  11.801  33.806   8.253
 7442POPC   C3B32793  11.791  33.791   7.953
 7442POPC   C4B32794  11.805  33.778   7.653
 7443POPC   NC332795   5.913  33.780   9.453
 7443POPC   PO432796   5.882  33.812   9.153
 7443POPC   GL132797   5.866  33.774   8.853
 7443POPC   GL232798   5.798  33.863   8.853
 7443POPC   C1A32799   5.873  33.772   8.553
 7443POPC   D2A32800   5.898  33.757   8.253
 7443POPC   C3A32801   5.885  33.760   7.953
 7443POPC   C4A32802   5.898  33.819   7.653
 7443POPC   C1B32803   5.662  33.961   8.553
 7443POPC   C2B32804   5.648  33.998   8.253
 7443POPC   C3B32805   5.728  33.951   7.953
 7443POPC   C4B32806   5.689  33.935   7.653
 7444POPC   NC332807  28.403  18.294   9.453
 7444POPC   PO432808  28.402  18.301   9.153
 7444POPC   GL132809  28.320  18.320   8.853
 7444POPC   GL232810  28.423  18.255   8.853
 7444POPC   C1A32811  28.418  18.312   8.553
 7444POPC   D2A32812  28.351  18.266   8.253
 7444POPC   C3A32813  28.398  18.314   7.953
 7444POPC   C4A32814  28.379  18.284   7.653
 7444POPC   C1B32815  28.608  18.159   8.553
 7444POPC   C2B32816  28.556  18.126   8.253
 7444POPC   C3B32817  28.545  18.125   7.953
 7444POPC   C4B32818  28.595  18.105   7.653
 7445POPC   NC332819  33.024  28.367   9.453
 7445POPC   PO432820  33.024  28.364   9.153
 7445POPC   GL132821  32.998  28.363   8.853
 7445POPC   GL232822  33.113  28.435   8.853
 7445POPC   C1A32823  33.012  28.357   8.553
 7445POPC   D2A32824  33.030  28.392   8.253
 7445POPC   C3A32825  32.992  28.331   7.953
 7445POPC   C4A32826  33.042  28.349   7.653
 7445POPC   C1B32827  33.174  28.593   8.553
 7445POPC   C2B32828  33.135  28.594   8.253
 7445POPC   C3B32829  33.189  28.629   7.953
 7445POPC   C4B32830  33.181  28.570   7.653
 7446POPC   NC332831  43.072   4.326   9.453
 7446POPC   PO432832  43.067   4.308   9.153
 7446POPC   GL132833  43.082   4.323   8.853
 7446POPC   GL232834  43.146   4.418   8.853
 7446POPC   C1A32835  43.138   4.352   8.553
 7446POPC   D2A32836  43.089   4.338   8.253
 7446POPC   C3A32837  43.117   4.274   7.953
 7446POPC   C4A32838  43.111   4.320   7.653
 7446POPC   C1B32839  43.165   4.524   8.553
 7446POPC   C2B32840  43.159   4.532   8.253
 7446POPC   C3B32841  43.234   4.577   7.953
 7446POPC   C4B32842  43.212   4.591   7.653
 7447POPC   NC332843  30.669  23.680   9.453
 7447POPC   PO432844  30.659  23.753   9.153
 7447POPC   GL132845  30.700  23.669   8.853
 7447POPC   GL232846  30.764  23.599   8.853
 7447POPC   C1A32847  30.689  23.715   8.553
 7447POPC   D2A32848  30.700  23.750   8.253
 7447POPC   C3A32849  30.655  23.743   7.953
 7447POPC   C4A32850  30.701  23.753   7.653
 7447POPC   C1B32851  30.757  23.440   8.553
 7447POPC   C2B32852  30.830  23.497   8.253
 7447POPC   C3B32853  30.796  23.464   7.953
 7447POPC   C4B32854  30.755  23.487   7.653
 7448POPC   NC332855  44.622  39.280   9.453
 7448POPC   PO432856  44.668  39.223   9.153
 7448POPC   GL132857  44.665  39.234   8.853
 7448POPC   GL232858  44.593  39.328   8.853
 7448POPC   C1A32859  44.652  39.221   8.553
 7448POPC   D2A32860  44.689  39.275   8.253
 7448POPC   C3A32861  44.667  39.211   7.953
 7448POPC   C4A32862  44.712  39.219   7.653
 7448POPC   C1B32863  44.594  39.495   8.553
 7448POPC   C2B32864  44.564  39.478   8.253
 7448POPC   C3B32865  44.560  39.461   7.953
 7448POPC   C4B32866  44.585  39.472   7.653
 7449POPC   NC332867  22.163  33.750   9.453
 7449POPC   PO432868  22.143  33.772   9.153
 7449POPC   GL132869  22.113  33.784   8.853
 7449POPC   GL232870  22.125  33.953   8.853
 7449POPC   C1A32871  22.116  33.762   8.553
 7449POPC   D2A32872  22.207  33.790   8.253
 7449POPC   C3A32873  22.186  33.841   7.953
 7449POPC   C4A32874  22.120  33.770   7.653
 7449POPC   C1B32875  22.047  34.070   8.553
 7449POPC   C2B32876  22.038  34.043   8.253
 7449POPC   C3B32877  22.012  33.980   7.953
 7449POPC   C4B32878  22.043  34.005   7.653
 7450POPC   NC332879  21.410   8.942   9.453
 7450POPC   PO432880  21.423   8.944   9.153
 7450POPC   GL132881  21.359   8.930   8.853
 7450POPC   GL232882  21.277   9.041   8.853
 7450POPC   C1A32883  21.398   9.020   8.553
 7450POPC   D2A32884  21.384   8.966   8.253
 7450POPC   C3A32885  21.366   9.014   7.953
 7450POPC   C4A32886  21.435   9.018   7.653
 7450POPC   C1B32887  21.220   9.141   8.553
 7450POPC   C2B32888  21.168   9.196   8.253
 7450POPC   C3B32889  21.196   9.188   7.953
 7450POPC   C4B32890  21.236   9.102   7.653
 7451POPC   NC332891   1.956   5.074   9.453
 7451POPC   PO432892   1.992   5.058   9.153
 7451POPC   GL132893   2.026   5.055   8.853
 7451POPC   GL232894   2.078   5.202   8.853
 7451POPC   C1A32895   2.032   5.066   8.553
 7451POPC   D2A32896   1.974   5.069   8.253
 7451POPC   C3A32897   2.000   5.112   7.953
 7451POPC   C4A32898   2.005   5.059   7.653
 7451POPC   C1B32899   2.164   5.295   8.553
 7451POPC   C2B32900   2.100   5.251   8.253
 7451POPC   C3B32901   2.128   5.303   7.953
 7451POPC   C4B32902   2.187   5.334   7.653
 7452POPC   NC332903   8.201   8.230   9.453
 7452POPC   PO432904   8.216   8.211   9.153
 7452POPC   GL132905   8.200   8.218   8.853
 7452POPC   GL232906   8.271   8.336   8.853
 7452POPC   C1A32907   8.213   8.235   8.553
 7452POPC   D2A32908   8.223   8.223   8.253
 7452POPC   C3A32909   8.163   8.216   7.953
 7452POPC   C4A32910   8.174   8.168   7.653
 7452POPC   C1B32911   8.382   8.412   8.553
 7452POPC   C2B32912   8.372   8.427   8.253
 7452POPC   C3B32913   8.337   8.447   7.953
 7452POPC   C4B32914   8.292   8.385   7.653
 7453POPC   NC332915  30.715  22.121   9.453
 7453POPC   PO432916  30.696  22.132   9.153
 7453POPC   GL132917  30.670  22.131   8.853
 7453POPC   GL232918  30.595  22.228   8.853
 7453POPC   C1A32919  30.738  22.193   8.553
 7453POPC   D2A32920  30.718  22.156   8.253
 7453POPC   C3A32921  30.682  22.172   7.953
 7453POPC   C4A32922  30.727  22.189   7.653
 7453POPC   C1B32923  30.457  22.240   8.553
 7453POPC   C2B32924  30.462  22.200   8.253
 7453POPC   C3B32925  30.479  22.239   7.953
 7453POPC   C4B32926  30.449  22.202   7.653
 7454POPC   NC332927  29.130  37.685   9.453
 7454POPC   PO432928  29.169  37.691   9.153
 7454POPC   GL132929  29.165  37.689   8.853
 7454POPC   GL232930  29.098  37.840   8.853
 7454POPC   C1A32931  29.129  37.663   8.553
 7454POPC   D2A32932  29.133  37.636   8.253
 7454POPC   C3A32933  29.106  37.718   7.953
 7454POPC   C4A32934  29.163  37.667   7.653
 7454POPC   C1B32935  29.096  37.930   8.553
 7454POPC   C2B32936  29.023  37.870   8.253
 7454POPC   C3B32937  29.057  37.958   7.953
 7454POPC   C4B32938  29.071  37.933   7.653
 7455POPC   NC332939  32.257  14.429   9.453
 7455POPC   PO432940  32.202  14.402   9.153
 7455POPC   GL132941  32.294  14.380   8.853
 7455POPC   GL232942  32.282  14.473   8.853
 7455POPC   C1A32943  32.204  14.398   8.553
 7455POPC   D2A32944  32.208  14.372   8.253
 7455POPC   C3A32945  32.275  14.447   7.953
 7455POPC   C4A32946  32.264  14.403   7.653
 7455POPC   C1B32947  32.367  14.660   8.553
 7455POPC   C2B32948  32.318  14.646   8.253
 7455POPC   C3B32949  32.377  14.595   7.953
 7455POPC   C4B32950  32.369  14.675   7.653
 7456POPC   NC332951  18.285  19.876   9.453
 7456POPC   PO432952  18.249  19.856   9.153
 7456POPC   GL132953  18.240  19.878   8.853
 7456POPC   GL232954  18.314  19.726   8.853
 7456POPC   C1A32955  18.249  19.861   8.553
 7456POPC   D2A32956  18.250  19.881   8.253
 7456POPC   C3A32957  18.235  19.879   7.953
 7456POPC   C4A32958  18.316  19.861   7.653
 7456POPC   C1B32959  18.351  19.619   8.553
 7456POPC   C2B32960  18.347  19.622   8.253
 7456POPC   C3B32961  18.381  19.591   7.953
 7456POPC   C4B32962  18.410  19.572   7.653
 7457POPC   NC332963  37.723   2.756   9.453
 7457POPC   PO432964  37.654   2.813   9.153
 7457POPC   GL132965  37.656   2.743   8.853
 7457POPC   GL232966  37.525   2.785   8.853
 7457POPC   C1A32967  37.633   2.807   8.553
 7457POPC   D2A32968  37.706   2.805   8.253
 7457POPC   C3A32969  37.726   2.748   7.953
 7457POPC   C4A32970  37.712   2.729   7.653
 7457POPC   C1B32971  37.478   2.831   8.553
 7457POPC   C2B32972  37.461   2.838   8.253
 7457POPC   C3B32973  37.427   2.756   7.953
 7457POPC   C4B32974  37.387   2.760   7.653
 7458POPC   NC332975  10.479  19.021   9.453
 7458POPC   PO432976  10.506  19.065   9.153
 7458POPC   GL132977  10.502  19.020   8.853
 7458POPC   GL232978  10.612  19.198   8.853
 7458POPC   C1A32979  10.491  19.063   8.553
 7458POPC   D2A32980  10.498  19.099   8.253
 7458POPC   C3A32981  10.532  19.088   7.953
 7458POPC   C4A32982  10.507  19.102   7.653
 7458POPC   C1B32983  10.662  19.286   8.553
 7458POPC   C2B32984  10.676  19.305   8.253
 7458POPC   C3B32985  10.639  19.236   7.953
 7458POPC   C4B32986  10.705  19.305   7.653
 7459POPC   NC332987  43.855  37.661   9.453
 7459POPC   PO432988  43.916  37.650   9.153
 7459POPC   GL132989  43.920  37.718   8.853
 7459POPC   GL232990  43.824  37.609   8.853
 7459POPC   C1A32991  43.871  37.670   8.553
 7459POPC   D2A32992  43.878  37.727   8.253
 7459POPC   C3A32993  43.862  37.690   7.953
 7459POPC   C4A32994  43.837  37.723   7.653
 7459POPC   C1B32995  43.778  37.417   8.553
 7459POPC   C2B32996  43.743  37.466   8.253
 7459POPC   C3B32997  43.744  37.479   7.953
 7459POPC   C4B32998  43.787  37.477   7.653
 7460POPC   NC332999  35.399  43.064   9.453
 7460POPC   PO433000  35.302  43.096   9.153
 7460POPC   GL133001  35.334  43.105   8.853
 7460POPC   GL233002  35.426  43.077   8.853
 7460POPC   C1A33003  35.310  43.147   8.553
 7460POPC   D2A33004  35.377  43.061   8.253
 7460POPC   C3A33005  35.365  43.113   7.953
 7460POPC   C4A33006  35.345  43.066   7.653
 7460POPC   C1B33007  35.601  42.998   8.553
 7460POPC   C2B33008  35.621  43.013   8.253
 7460POPC   C3B33009  35.620  42.968   7.953
 7460POPC   C4B33010  35.548  43.011   7.653
 7461POPC   NC333011   5.047  24.491   9.453
 7461POPC   PO433012   5.119  24.498   9.153
 7461POPC   GL133013   5.115  24.482   8.853
 7461POPC   GL233014   4.960  24.394   8.853
 7461POPC   C1A33015   5.103  24.526   8.553
 7461POPC   D2A33016   5.139  24.459   8.253
 7461POPC   C3A33017   5.075  24.465   7.953
 7461POPC   C4A33018   5.049  24.450   7.653
 7461POPC   C1B33019   4.921  24.383   8.553
 7461POPC   C2B33020   4.884  24.329   8.253
 7461POPC   C3B33021   4.863  24.303   7.953
 7461POPC   C4B33022   4.931  24.341   7.653
 7462POPC   NC333023   7.422  39.976   9.453
 7462POPC   PO433024   7.391  40.045   9.153
 7462POPC   GL133025   7.448  40.037   8.853
 7462POPC   GL233026   7.414  40.153   8.853
 7462POPC   C1A33027   7.424  39.986   8.553
 7462POPC   D2A33028   7.442  40.033   8.253
 7462POPC   C3A33029   7.453  40.001   7.953
 7462POPC   C4A33030   7.436  40.011   7.653
 7462POPC   C1B33031   7.406  40.272   8.553
 7462POPC   C2B33032   7.411  40.245   8.253
 7462POPC   C3B33033   7.436  40.256   7.953
 7462POPC   C4B33034   7.466  40.298   7.653
 7463POPC   NC333035  14.439  43.873   9.453
 7463POPC   PO433036  14.428  43.854   9.153
 7463POPC   GL133037  14.360  43.873   8.853
 7463POPC   GL233038  14.501  43.948   8.853
 7463POPC   C1A33039  14.411  43.847   8.553
 7463POPC   D2A33040  14.440  43.917   8.253
 7463POPC   C3A33041  14.369  43.931   7.953
 7463POPC   C4A33042  14.447  43.876   7.653
 7463POPC   C1B33043  14.602  43.929   8.553
 7463POPC   C2B33044  14.680  43.930   8.253
 7463POPC   C3B33045  14.694  43.896   7.953
 7463POPC   C4B33046  14.648  43.897   7.653
 7464POPC   NC333047  17.512   8.218   9.453
 7464POPC   PO433048  17.503   8.198   9.153
 7464POPC   GL133049  17.490   8.166   8.853
 7464POPC   GL233050  17.391   8.189   8.853
 7464POPC   C1A33051  17.497   8.232   8.553
 7464POPC   D2A33052  17.474   8.241   8.253
 7464POPC   C3A33053  17.479   8.208   7.953
 7464POPC   C4A33054  17.556   8.179   7.653
 7464POPC   C1B33055  17.255   8.238   8.553
 7464POPC   C2B33056  17.250   8.229   8.253
 7464POPC   C3B33057  17.300   8.307   7.953
 7464POPC   C4B33058  17.237   8.246   7.653
 7465POPC   NC333059  10.501  23.718   9.453
 7465POPC   PO433060  10.530  23.686   9.153
 7465POPC   GL133061  10.497  23.666   8.853
 7465POPC   GL233062  10.538  23.861   8.853
 7465POPC   C1A33063  10.518  23.759   8.553
 7465POPC   D2A33064  10.542  23.705   8.253
 7465POPC   C3A33065  10.491  23.672   7.953
 7465POPC   C4A33066  10.480  23.712   7.653
 7465POPC   C1B33067  10.539  23.919   8.553
 7465POPC   C2B33068  10.541  23.961   8.253
 7465POPC   C3B33069  10.616  23.927   7.953
 7465POPC   C4B33070  10.633  23.969   7.653
 7466POPC   NC333071  33.810  33.776   9.453
 7466POPC   PO433072  33.796  33.753   9.153
 7466POPC   GL133073  33.775  33.840   8.853
 7466POPC   GL233074  33.719  33.713   8.853
 7466POPC   C1A33075  33.784  33.779   8.553
 7466POPC   D2A33076  33.768  33.755   8.253
 7466POPC   C3A33077  33.764  33.804   7.953
 7466POPC   C4A33078  33.799  33.776   7.653
 7466POPC   C1B33079  33.622  33.667   8.553
 7466POPC   C2B33080  33.581  33.634   8.253
 7466POPC   C3B33081  33.647  33.647   7.953
 7466POPC   C4B33082  33.658  33.640   7.653
 7467POPC   NC333083  22.956  33.066   9.453
 7467POPC   PO433084  22.975  33.047   9.153
 7467POPC   GL133085  22.940  33.074   8.853
 7467POPC   GL233086  22.924  33.105   8.853
 7467POPC   C1A33087  22.937  33.042   8.553
 7467POPC   D2A33088  22.905  33.009   8.253
 7467POPC   C3A33089  22.929  32.982   7.953
 7467POPC   C4A33090  22.903  33.001   7.653
 7467POPC   C1B33091  22.799  33.209   8.553
 7467POPC   C2B33092  22.842  33.227   8.253
 7467POPC   C3B33093  22.867  33.279   7.953
 7467POPC   C4B33094  22.795  33.214   7.653
 7468POPC   NC333095  37.705  26.842   9.453
 7468POPC   PO433096  37.650  26.776   9.153
 7468POPC   GL133097  37.662  26.794   8.853
 7468POPC   GL233098  37.736  26.702   8.853
 7468POPC   C1A33099  37.655  26.866   8.553
 7468POPC   D2A33100  37.657  26.843   8.253
 7468POPC   C3A33101  37.670  26.834   7.953
 7468POPC   C4A33102  37.689  26.800   7.653
 7468POPC   C1B33103  37.905  26.629   8.553
 7468POPC   C2B33104  37.872  26.714   8.253
 7468POPC   C3B33105  37.837  26.706   7.953
 7468POPC   C4B33106  37.912  26.658   7.653
 7469POPC   NC333107  40.755   7.414   9.453
 7469POPC   PO433108  40.777   7.413   9.153
 7469POPC   GL133109  40.810   7.397   8.853
 7469POPC   GL233110  40.846   7.483   8.853
 7469POPC   C1A33111  40.798   7.395   8.553
 7469POPC   D2A33112  40.830   7.422   8.253
 7469POPC   C3A33113  40.805   7.384   7.953
 7469POPC   C4A33114  40.750   7.405   7.653
 7469POPC   C1B33115  40.958   7.624   8.553
 7469POPC   C2B33116  40.995   7.596   8.253
 7469POPC   C3B33117  40.928   7.606   7.953
 7469POPC   C4B33118  40.934   7.596   7.653
 7470POPC   NC333119   9.731  22.188   9.453
 7470POPC   PO433120   9.719  22.125   9.153
 7470POPC   GL133121   9.764  22.123   8.853
 7470POPC   GL233122   9.655  22.196   8.853
 7470POPC   C1A33123   9.793  22.131   8.553
 7470POPC   D2A33124   9.716  22.117   8.253
 7470POPC   C3A33125   9.787  22.139   7.953
 7470POPC   C4A33126   9.769  22.158   7.653
 7470POPC   C1B33127   9.560  22.216   8.553
 7470POPC   C2B33128   9.504  22.289   8.253
 7470POPC   C3B33129   9.523  22.198   7.953
 7470POPC   C4B33130   9.517  22.251   7.653
 7471POPC   NC333131  27.545  19.874   9.453
 7471POPC   PO433132  27.640  19.789   9.153
 7471POPC   GL133133  27.558  19.815   8.853
 7471POPC   GL233134  27.648  19.929   8.853
 7471POPC   C1A33135  27.639  19.789   8.553
 7471POPC   D2A33136  27.558  19.882   8.253
 7471POPC   C3A33137  27.608  19.786   7.953
 7471POPC   C4A33138  27.621  19.823   7.653
 7471POPC   C1B33139  27.660  20.088   8.553
 7471POPC   C2B33140  27.660  20.055   8.253
 7471POPC   C3B33141  27.628  20.048   7.953
 7471POPC   C4B33142  27.647  20.077   7.653
 7472POPC   NC333143  14.400  43.131   9.453
 7472POPC   PO433144  14.407  43.103   9.153
 7472POPC   GL133145  14.416  43.066   8.853
 7472POPC   GL233146  14.512  43.167   8.853
 7472POPC   C1A33147  14.450  43.062   8.553
 7472POPC   D2A33148  14.409  43.064   8.253
 7472POPC   C3A33149  14.380  43.149   7.953
 7472POPC   C4A33150  14.377  43.083   7.653
 7472POPC   C1B33151  14.593  43.253   8.553
 7472POPC   C2B33152  14.574  43.237   8.253
 7472POPC   C3B33153  14.573  43.258   7.953
 7472POPC   C4B33154  14.662  43.227   7.653
 7473POPC   NC333155  39.992  21.337   9.453
 7473POPC   PO433156  40.039  21.361   9.153
 7473POPC   GL133157  40.016  21.399   8.853
 7473POPC   GL233158  40.018  21.308   8.853
 7473POPC   C1A33159  39.971  21.346   8.553
 7473POPC   D2A33160  39.984  21.407   8.253
 7473POPC   C3A33161  39.995  21.410   7.953
 7473POPC   C4A33162  40.051  21.400   7.653
 7473POPC   C1B33163  39.908  21.116   8.553
 7473POPC   C2B33164  39.930  21.151   8.253
 7473POPC   C3B33165  39.966  21.139   7.953
 7473POPC   C4B33166  39.997  21.113   7.653
 7474POPC   NC333167  30.684   5.907   9.453
 7474POPC   PO433168  30.712   5.914   9.153
 7474POPC   GL133169  30.663   5.910   8.853
 7474POPC   GL233170  30.739   5.732   8.853
 7474POPC   C1A33171  30.743   5.826   8.553
 7474POPC   D2A33172  30.663   5.820   8.253
 7474POPC   C3A33173  30.723   5.877   7.953
 7474POPC   C4A33174  30.695   5.821   7.653
 7474POPC   C1B33175  30.807   5.650   8.553
 7474POPC   C2B33176  30.794   5.635   8.253
 7474POPC   C3B33177  30.777   5.652   7.953
 7474POPC   C4B33178  30.810   5.611   7.653
 7475POPC   NC333179   4.315  21.407   9.453
 7475POPC   PO433180   4.286  21.337   9.153
 7475POPC   GL133181   4.342  21.341   8.853
 7475POPC   GL233182   4.435  21.420   8.853
 7475POPC   C1A33183   4.335  21.386   8.553
 7475POPC   D2A33184   4.351  21.371   8.253
 7475POPC   C3A33185   4.357  21.363   7.953
 7475POPC   C4A33186   4.357  21.368   7.653
 7475POPC   C1B33187   4.557  21.327   8.553
 7475POPC   C2B33188   4.518  21.346   8.253
 7475POPC   C3B33189   4.520  21.354   7.953
 7475POPC   C4B33190   4.607  21.347   7.653
 7476POPC   NC333191   8.181   0.399   9.453
 7476POPC   PO433192   8.153   0.410   9.153
 7476POPC   GL133193   8.195   0.412   8.853
 7476POPC   GL233194   8.059   0.410   8.853
 7476POPC   C1A33195   8.166   0.478   8.553
 7476POPC   D2A33196   8.196   0.405   8.253
 7476POPC   C3A33197   8.216   0.435   7.953
 7476POPC   C4A33198   8.190   0.442   7.653
 7476POPC   C1B33199   7.929   0.353   8.553
 7476POPC   C2B33200   7.925   0.362   8.253
 7476POPC   C3B33201   7.924   0.378   7.953
 7476POPC   C4B33202   7.943   0.399   7.653
 7477POPC   NC333203   2.752   5.066   9.453
 7477POPC   PO433204   2.724   5.104   9.153
 7477POPC   GL133205   2.785   5.072   8.853
 7477POPC   GL233206   2.759   5.236   8.853
 7477POPC   C1A33207   2.806   5.141   8.553
 7477POPC   D2A33208   2.797   5.120   8.253
 7477POPC   C3A33209   2.808   5.088   7.953
 7477POPC   C4A33210   2.759   5.063   7.653
 7477POPC   C1B33211   2.627   5.310   8.553
 7477POPC   C2B33212   2.703   5.361   8.253
 7477POPC   C3B33213   2.701   5.306   7.953
 7477POPC   C4B33214   2.649   5.289   7.653
 7478POPC   NC333215  26.774  26.007   9.453
 7478POPC   PO433216  26.822  25.998   9.153
 7478POPC   GL133217  26.778  26.066   8.853
 7478POPC   GL233218  26.860  26.170   8.853
 7478POPC   C1A33219  26.812  26.078   8.553
 7478POPC   D2A33220  26.816  26.090   8.253
 7478POPC   C3A33221  26.801  26.010   7.953
 7478POPC   C4A33222  26.824  26.065   7.653
 7478POPC   C1B33223  26.925  26.266   8.553
 7478POPC   C2B33224  26.877  26.257   8.253
 7478POPC   C3B33225  26.953  26.268   7.953
 7478POPC   C4B33226  26.940  26.301   7.653
 7479POPC   NC333227  28.400  29.919   9.453
 7479POPC   PO433228  28.414  29.885   9.153
 7479POPC   GL133229  28.409  29.928   8.853
 7479POPC   GL233230  28.275  30.070   8.853
 7479POPC   C1A33231  28.410  29.956   8.553
 7479POPC   D2A33232  28.341  29.878   8.253
 7479POPC   C3A33233  28.327  29.947   7.953
 7479POPC   C4A33234  28.383  29.937   7.653
 7479POPC   C1B33235  28.216  30.152   8.553
 7479POPC   C2B33236  28.250  30.108   8.253
 7479POPC   C3B33237  28.208  30.129   7.953
 7479POPC   C4B33238  28.239  30.089   7.653
 7480POPC   NC333239   3.536  29.177   9.453
 7480POPC   PO433240   3.534  29.154   9.153
 7480POPC   GL133241   3.503  29.150   8.853
 7480POPC   GL233242   3.585  29.224   8.853
 7480POPC   C1A33243   3.565  29.119   8.553
 7480POPC   D2A33244   3.590  29.150   8.253
 7480POPC   C3A33245   3.499  29.161   7.953
 7480POPC   C4A33246   3.524  29.176   7.653
 7480POPC   C1B33247   3.556  29.426   8.553
 7480POPC   C2B33248   3.547  29.349   8.253
 7480POPC   C3B33249   3.528  29.404   7.953
 7480POPC   C4B33250   3.541  29.372   7.653
 7481POPC   NC333251  33.036   3.544   9.453
 7481POPC   PO433252  33.061   3.570   9.153
 7481POPC   GL133253  33.055   3.513   8.853
 7481POPC   GL233254  33.017   3.681   8.853
 7481POPC   C1A33255  32.989   3.551   8.553
 7481POPC   D2A33256  32.980   3.575   8.253
 7481POPC   C3A33257  33.052   3.573   7.953
 7481POPC   C4A33258  32.978   3.497   7.653
 7481POPC   C1B33259  32.996   3.804   8.553
 7481POPC   C2B33260  33.005   3.757   8.253
 7481POPC   C3B33261  32.993   3.810   7.953
 7481POPC   C4B33262  33.056   3.760   7.653
 7482POPC   NC333263  32.247   1.232   9.453
 7482POPC   PO433264  32.271   1.232   9.153
 7482POPC   GL133265  32.227   1.191   8.853
 7482POPC   GL233266  32.155   1.228   8.853
 7482POPC   C1A33267  32.281   1.177   8.553
 7482POPC   D2A33268  32.264   1.208   8.253
 7482POPC   C3A33269  32.234   1.185   7.953
 7482POPC   C4A33270  32.223   1.230   7.653
 7482POPC   C1B33271  31.962   1.248   8.553
 7482POPC   C2B33272  31.964   1.233   8.253
 7482POPC   C3B33273  32.044   1.194   7.953
 7482POPC   C4B33274  31.973   1.197   7.653
 7483POPC   NC333275  30.671  19.048   9.453
 7483POPC   PO433276  30.661  19.033   9.153
 7483POPC   GL133277  30.704  19.089   8.853
 7483POPC   GL233278  30.612  19.109   8.853
 7483POPC   C1A33279  30.699  19.026   8.553
 7483POPC   D2A33280  30.718  19.060   8.253
 7483POPC   C3A33281  30.669  19.061   7.953
 7483POPC   C4A33282  30.659  19.105   7.653
 7483POPC   C1B33283  30.475  19.161   8.553
 7483POPC   C2B33284  30.477  19.094   8.253
 7483POPC   C3B33285  30.408  19.170   7.953
 7483POPC   C4B33286  30.461  19.113   7.653
 7484POPC   NC333287  15.214  29.184   9.453
 7484POPC   PO433288  15.138  29.107   9.153
 7484POPC   GL133289  15.225  29.125   8.853
 7484POPC   GL233290  15.126  29.298   8.853
 7484POPC   C1A33291  15.135  29.124   8.553
 7484POPC   D2A33292  15.203  29.144   8.253
 7484POPC   C3A33293  15.135  29.185   7.953
 7484POPC   C4A33294  15.177  29.158   7.653
 7484POPC   C1B33295  15.088  29.311   8.553
 7484POPC   C2B33296  15.050  29.358   8.253
 7484POPC   C3B33297  15.096  29.389   7.953
 7484POPC   C4B33298  15.056  29.399   7.653
 7485POPC   NC333299  10.571  38.405   9.453
 7485POPC   PO433300  10.557  38.490   9.153
 7485POPC   GL133301  10.500  38.415   8.853
 7485POPC   GL233302  10.438  38.364   8.853
 7485POPC   C1A33303  10.572  38.497   8.553
 7485POPC   D2A33304  10.545  38.454   8.253
 7485POPC   C3A33305  10.513  38.427   7.953
 7485POPC   C4A33306  10.498  38.497   7.653
 7485POPC   C1B33307  10.286  38.305   8.553
 7485POPC   C2B33308  10.291  38.353   8.253
 7485POPC   C3B33309  10.305  38.319   7.953
 7485POPC   C4B33310  10.279  38.292   7.653
 7486POPC   NC333311   7.400  22.917   9.453
 7486POPC   PO433312   7.447  22.974   9.153
 7486POPC   GL133313   7.467  22.972   8.853
 7486POPC   GL233314   7.412  23.035   8.853
 7486POPC   C1A33315   7.425  22.932   8.553
 7486POPC   D2A33316   7.465  22.953   8.253
 7486POPC   C3A33317   7.463  22.925   7.953
 7486POPC   C4A33318   7.412  22.966   7.653
 7486POPC   C1B33319   7.353  23.187   8.553
 7486POPC   C2B33320   7.341  23.203   8.253
 7486POPC   C3B33321   7.344  23.215   7.953
 7486POPC   C4B33322   7.275  23.128   7.653
 7487POPC   NC333323  12.833  10.517   9.453
 7487POPC   PO433324  12.885  10.482   9.153
 7487POPC   GL133325  12.862  10.501   8.853
 7487POPC   GL233326  12.881  10.414   8.853
 7487POPC   C1A33327  12.840  10.570   8.553
 7487POPC   D2A33328  12.846  10.544   8.253
 7487POPC   C3A33329  12.850  10.508   7.953
 7487POPC   C4A33330  12.810  10.516   7.653
 7487POPC   C1B33331  12.884  10.250   8.553
 7487POPC   C2B33332  12.895  10.243   8.253
 7487POPC   C3B33333  12.888  10.309   7.953
 7487POPC   C4B33334  12.819  10.249   7.653
 7488POPC   NC333335  35.376  21.363   9.453
 7488POPC   PO433336  35.333  21.366   9.153
 7488POPC   GL133337  35.338  21.362   8.853
 7488POPC   GL233338  35.460  21.351   8.853
 7488POPC   C1A33339  35.342  21.422   8.553
 7488POPC   D2A33340  35.331  21.434   8.253
 7488POPC   C3A33341  35.308  21.365   7.953
 7488POPC   C4A33342  35.318  21.341   7.653
 7488POPC   C1B33343  35.588  21.369   8.553
 7488POPC   C2B33344  35.562  21.338   8.253
 7488POPC   C3B33345  35.583  21.371   7.953
 7488POPC   C4B33346  35.597  21.348   7.653
 7489POPC   NC333347  11.342  13.579   9.453
 7489POPC   PO433348  11.327  13.650   9.153
 7489POPC   GL133349  11.310  13.635   8.853
 7489POPC   GL233350  11.156  13.617   8.853
 7489POPC   C1A33351  11.286  13.598   8.553
 7489POPC   D2A33352  11.326  13.608   8.253
 7489POPC   C3A33353  11.315  13.668   7.953
 7489POPC   C4A33354  11.253  13.611   7.653
 7489POPC   C1B33355  11.094  13.565   8.553
 7489POPC   C2B33356  11.054  13.534   8.253
 7489POPC   C3B33357  11.014  13.520   7.953
 7489POPC   C4B33358  11.050  13.521   7.653
 7490POPC   NC333359   8.230  33.752   9.453
 7490POPC   PO433360   8.238  33.771   9.153
 7490POPC   GL133361   8.187  33.845   8.853
 7490POPC   GL233362   8.310  33.712   8.853
 7490POPC   C1A33363   8.228  33.818   8.553
 7490POPC   D2A33364   8.184  33.778   8.253
 7490POPC   C3A33365   8.197  33.839   7.953
 7490POPC   C4A33366   8.197  33.783   7.653
 7490POPC   C1B33367   8.359  33.579   8.553
 7490POPC   C2B33368   8.368  33.599   8.253
 7490POPC   C3B33369   8.348  33.606   7.953
 7490POPC   C4B33370   8.379  33.595   7.653
 7491POPC   NC333371  17.555  31.500   9.453
 7491POPC   PO433372  17.475  31.442   9.153
 7491POPC   GL133373  17.477  31.447   8.853
 7491POPC   GL233374  17.585  31.594   8.853
 7491POPC   C1A33375  17.480  31.452   8.553
 7491POPC   D2A33376  17.502  31.492   8.253
 7491POPC   C3A33377  17.514  31.507   7.953
 7491POPC   C4A33378  17.543  31.430   7.653
 7491POPC   C1B33379  17.587  31.758   8.553
 7491POPC   C2B33380  17.565  31.742   8.253
 7491POPC   C3B33381  17.602  31.722   7.953
 7491POPC   C4B33382  17.582  31.745   7.653
 7492POPC   NC333383   8.170  12.031   9.453
 7492POPC   PO433384   8.155  12.029   9.153
 7492POPC   GL133385   8.236  12.059   8.853
 7492POPC   GL233386   8.296  11.990   8.853
 7492POPC   C1A33387   8.236  12.103   8.553
 7492POPC   D2A33388   8.158  12.063   8.253
 7492POPC   C3A33389   8.235  12.093   7.953
 7492POPC   C4A33390   8.218  12.093   7.653
 7492POPC   C1B33391   8.373  11.908   8.553
 7492POPC   C2B33392   8.379  11.876   8.253
 7492POPC   C3B33393   8.412  11.960   7.953
 7492POPC   C4B33394   8.349  11.935   7.653
 7493POPC   NC333395  23.697  43.927   9.453
 7493POPC   PO433396  23.748  43.898   9.153
 7493POPC   GL133397  23.747  43.837   8.853
 7493POPC   GL233398  23.627  43.801   8.853
 7493POPC   C1A33399  23.725  43.865   8.553
 7493POPC   D2A33400  23.692  43.917   8.253
 7493POPC   C3A33401  23.692  43.866   7.953
 7493POPC   C4A33402  23.721  43.853   7.653
 7493POPC   C1B33403  23.684  43.669   8.553
 7493POPC   C2B33404  23.596  43.665   8.253
 7493POPC   C3B33405  23.648  43.698   7.953
 7493POPC   C4B33406  23.633  43.669   7.653
 7494POPC   NC333407   6.599   5.063   9.453
 7494POPC   PO433408   6.623   5.061   9.153
 7494POPC   GL133409   6.624   5.107   8.853
 7494POPC   GL233410   6.649   5.214   8.853
 7494POPC   C1A33411   6.599   5.068   8.553
 7494POPC   D2A33412   6.690   5.073   8.253
 7494POPC   C3A33413   6.673   5.136   7.953
 7494POPC   C4A33414   6.687   5.137   7.653
 7494POPC   C1B33415   6.655   5.389   8.553
 7494POPC   C2B33416   6.595   5.317   8.253
 7494POPC   C3B33417   6.628   5.327   7.953
 7494POPC   C4B33418   6.625   5.366   7.653
 7495POPC   NC333419   9.795  12.898   9.453
 7495POPC   PO433420   9.732  12.818   9.153
 7495POPC   GL133421   9.749  12.875   8.853
 7495POPC   GL233422   9.737  12.764   8.853
 7495POPC   C1A33423   9.778  12.853   8.553
 7495POPC   D2A33424   9.738  12.900   8.253
 7495POPC   C3A33425   9.721  12.873   7.953
 7495POPC   C4A33426   9.773  12.856   7.653
 7495POPC   C1B33427   9.798  12.622   8.553
 7495POPC   C2B33428   9.750  12.561   8.253
 7495POPC   C3B33429   9.773  12.571   7.953
 7495POPC   C4B33430   9.731  12.565   7.653
 7496POPC   NC333431  34.565  43.064   9.453
 7496POPC   PO433432  34.611  43.065   9.153
 7496POPC   GL133433  34.622  43.118   8.853
 7496POPC   GL233434  34.684  43.092   8.853
 7496POPC   C1A33435  34.557  43.079   8.553
 7496POPC   D2A33436  34.595  43.118   8.253
 7496POPC   C3A33437  34.599  43.077   7.953
 7496POPC   C4A33438  34.567  43.098   7.653
 7496POPC   C1B33439  34.856  43.005   8.553
 7496POPC   C2B33440  34.768  43.080   8.253
 7496POPC   C3B33441  34.769  43.074   7.953
 7496POPC   C4B33442  34.852  43.014   7.653
 7497POPC   NC333443  19.832   7.432   9.453
 7497POPC   PO433444  19.785   7.390   9.153
 7497POPC   GL133445  19.832   7.418   8.853
 7497POPC   GL233446  19.837   7.502   8.853
 7497POPC   C1A33447  19.874   7.388   8.553
 7497POPC   D2A33448  19.818   7.417   8.253
 7497POPC   C3A33449  19.825   7.406   7.953
 7497POPC   C4A33450  19.846   7.416   7.653
 7497POPC   C1B33451  19.801   7.619   8.553
 7497POPC   C2B33452  19.831   7.654   8.253
 7497POPC   C3B33453  19.755   7.689   7.953
 7497POPC   C4B33454  19.788   7.668   7.653
 7498POPC   NC333455  24.514   7.449   9.453
 7498POPC   PO433456  24.505   7.385   9.153
 7498POPC   GL133457  24.474   7.401   8.853
 7498POPC   GL233458  24.576   7.420   8.853
 7498POPC   C1A33459  24.453   7.433   8.553
 7498POPC   D2A33460  24.529   7.417   8.253
 7498POPC   C3A33461  24.521   7.470   7.953
 7498POPC   C4A33462  24.466   7.374   7.653
 7498POPC   C1B33463  24.775   7.410   8.553
 7498POPC   C2B33464  24.698   7.413   8.253
 7498POPC   C3B33465  24.776   7.360   7.953
 7498POPC   C4B33466  24.713   7.357   7.653
 7499POPC   NC333467  30.734  26.816   9.453
 7499POPC   PO433468  30.698  26.793   9.153
 7499POPC   GL133469  30.668  26.823   8.853
 7499POPC   GL233470  30.721  26.700   8.853
 7499POPC   C1A33471  30.652  26.776   8.553
 7499POPC   D2A33472  30.734  26.814   8.253
 7499POPC   C3A33473  30.740  26.807   7.953
 7499POPC   C4A33474  30.649  26.813   7.653
 7499POPC   C1B33475  30.794  26.548   8.553
 7499POPC   C2B33476  30.806  26.552   8.253
 7499POPC   C3B33477  30.733  26.591   7.953
 7499POPC   C4B33478  30.801  26.534   7.653
 7500POPC   NC333479   6.613  41.533   9.453
 7500POPC   PO433480   6.631  41.539   9.153
 7500POPC   GL133481   6.648  41.523   8.853
 7500POPC   GL233482   6.573  41.592   8.853
 7500POPC   C1A33483   6.685  41.602   8.553
 7500POPC   D2A33484   6.675  41.603   8.253
 7500POPC   C3A33485   6.608  41.545   7.953
 7500POPC   C4A33486   6.654  41.517   7.653
 7500POPC   C1B33487   6.384  41.712   8.553
 7500POPC   C2B33488   6.434  41.688   8.253
 7500POPC   C3B33489   6.414  41.721   7.953
 7500POPC   C4B33490   6.465  41.687   7.653
 7501POPC   NC333491  11.321  41.544   9.453
 7501POPC   PO433492  11.330  41.580   9.153
 7501POPC   GL133493  11.337  41.558   8.853
 7501POPC   GL233494  11.305  41.453   8.853
 7501POPC   C1A33495  11.273  41.549   8.553
 7501POPC   D2A33496  11.288  41.517   8.253
 7501POPC   C3A33497  11.326  41.580   7.953
 7501POPC   C4A33498  11.293  41.600   7.653
 7501POPC   C1B33499  11.256  41.338   8.553
 7501POPC   C2B33500  11.282  41.281   8.253
 7501POPC   C3B33501  11.249  41.343   7.953
 7501POPC   C4B33502  11.280  41.341   7.653
 7502POPC   NC333503  12.878   9.008   9.453
 7502POPC   PO433504  12.842   8.968   9.153
 7502POPC   GL133505  12.834   8.943   8.853
 7502POPC   GL233506  12.856   9.058   8.853
 7502POPC   C1A33507  12.818   8.960   8.553
 7502POPC   D2A33508  12.855   8.989   8.253
 7502POPC   C3A33509  12.809   8.944   7.953
 7502POPC   C4A33510  12.858   8.959   7.653
 7502POPC   C1B33511  12.756   9.166   8.553
 7502POPC   C2B33512  12.780   9.258   8.253
 7502POPC   C3B33513  12.792   9.220   7.953
 7502POPC   C4B33514  12.800   9.225   7.653
 7503POPC   NC333515  40.752   8.925   9.453
 7503POPC   PO433516  40.756   8.985   9.153
 7503POPC   GL133517  40.793   8.958   8.853
 7503POPC   GL233518  40.715   8.875   8.853
 7503POPC   C1A33519  40.737   8.926   8.553
 7503POPC   D2A33520  40.799   9.007   8.253
 7503POPC   C3A33521  40.779   8.957   7.953
 7503POPC   C4A33522  40.815   8.998   7.653
 7503POPC   C1B33523  40.579   8.807   8.553
 7503POPC   C2B33524  40.612   8.780   8.253
 7503POPC   C3B33525  40.609   8.760   7.953
 7503POPC   C4B33526  40.634   8.752   7.653
 7504POPC   NC333527  22.148   4.356   9.453
 7504POPC   PO433528  22.148   4.289   9.153
 7504POPC   GL133529  22.166   4.313   8.853
 7504POPC   GL233530  22.268   4.453   8.853
 7504POPC   C1A33531  22.205   4.297   8.553
 7504POPC   D2A33532  22.188   4.359   8.253
 7504POPC   C3A33533  22.209   4.365   7.953
 7504POPC   C4A33534  22.200   4.343   7.653
 7504POPC   C1B33535  22.296   4.488   8.553
 7504POPC   C2B33536  22.380   4.506   8.253
 7504POPC   C3B33537  22.375   4.504   7.953
 7504POPC   C4B33538  22.321   4.456   7.653
 7505POPC   NC333539  31.507  26.794   9.453
 7505POPC   PO433540  31.472  26.863   9.153
 7505POPC   GL133541  31.433  26.851   8.853
 7505POPC   GL233542  31.520  26.864   8.853
 7505POPC   C1A33543  31.440  26.793   8.553
 7505POPC   D2A33544  31.484  26.864   8.253
 7505POPC   C3A33545  31.433  26.790   7.953
 7505POPC   C4A33546  31.440  26.866   7.653
 7505POPC   C1B33547  31.643  26.960   8.553
 7505POPC   C2B33548  31.703  26.960   8.253
 7505POPC   C3B33549  31.662  26.986   7.953
 7505POPC   C4B33550  31.626  26.960   7.653
 7506POPC   NC333551  13.626  36.119   9.453
 7506POPC   PO433552  13.665  36.174   9.153
 7506POPC   GL133553  13.677  36.092   8.853
 7506POPC   GL233554  13.705  36.215   8.853
 7506POPC   C1A33555  13.594  36.120   8.553
 7506POPC   D2A33556  13.634  36.088   8.253
 7506POPC   C3A33557  13.599  36.118   7.953
 7506POPC   C4A33558  13.635  36.109   7.653
 7506POPC   C1B33559  13.746  36.323   8.553
 7506POPC   C2B33560  13.751  36.403   8.253
 7506POPC   C3B33561  13.719  36.310   7.953
 7506POPC   C4B33562  13.713  36.364   7.653
 7507POPC   NC333563  19.850  29.184   9.453
 7507POPC   PO433564  19.867  29.123   9.153
 7507POPC   GL133565  19.807  29.106   8.853
 7507POPC   GL233566  19.764  29.075   8.853
 7507POPC   C1A33567  19.869  29.174   8.553
 7507POPC   D2A33568  19.799  29.098   8.253
 7507POPC   C3A33569  19.823  29.143   7.953
 7507POPC   C4A33570  19.827  29.136   7.653
 7507POPC   C1B33571  19.643  28.920   8.553
 7507POPC   C2B33572  19.644  28.893   8.253
 7507POPC   C3B33573  19.658  28.903   7.953
 7507POPC   C4B33574  19.667  28.902   7.653
 7508POPC   NC333575  33.792  20.606   9.453
 7508POPC   PO433576  33.774  20.650   9.153
 7508POPC   GL133577  33.764  20.647   8.853
 7508POPC   GL233578  33.923  20.656   8.853
 7508POPC   C1A33579  33.809  20.651   8.553
 7508POPC   D2A33580  33.813  20.631   8.253
 7508POPC   C3A33581  33.801  20.631   7.953
 7508POPC   C4A33582  33.773  20.637   7.653
 7508POPC   C1B33583  33.965  20.754   8.553
 7508POPC   C2B33584  33.935  20.814   8.253
 7508POPC   C3B33585  34.004  20.749   7.953
 7508POPC   C4B33586  33.990  20.755   7.653
 7509POPC   NC333587   0.397   1.971   9.453
 7509POPC   PO433588   0.450   2.027   9.153
 7509POPC   GL133589   0.424   1.950   8.853
 7509POPC   GL233590   0.423   2.063   8.853
 7509POPC   C1A33591   0.394   2.025   8.553
 7509POPC   D2A33592   0.436   2.014   8.253
 7509POPC   C3A33593   0.409   2.015   7.953
 7509POPC   C4A33594   0.403   1.987   7.653
 7509POPC   C1B33595   0.311   2.241   8.553
 7509POPC   C2B33596   0.358   2.210   8.253
 7509POPC   C3B33597   0.396   2.236   7.953
 7509POPC   C4B33598   0.360   2.260   7.653
 7510POPC   NC333599   0.397  20.579   9.453
 7510POPC   PO433600   0.444  20.584   9.153
 7510POPC   GL133601   0.424  20.617   8.853
 7510POPC   GL233602   0.321  20.535   8.853
 7510POPC   C1A33603   0.445  20.620   8.553
 7510POPC   D2A33604   0.447  20.659   8.253
 7510POPC   C3A33605   0.464  20.650   7.953
 7510POPC   C4A33606   0.458  20.619   7.653
 7510POPC   C1B33607   0.267  20.368   8.553
 7510POPC   C2B33608   0.263  20.424   8.253
 7510POPC   C3B33609   0.291  20.419   7.953
 7510POPC   C4B33610   0.311  20.369   7.653
 7511POPC   NC333611  22.952  14.418   9.453
 7511POPC   PO433612  22.970  14.445   9.153
 7511POPC   GL133613  22.948  14.426   8.853
 7511POPC   GL233614  22.834  14.534   8.853
 7511POPC   C1A33615  22.914  14.379   8.553
 7511POPC   D2A33616  22.978  14.393   8.253
 7511POPC   C3A33617  22.938  14.436   7.953
 7511POPC   C4A33618  22.986  14.416   7.653
 7511POPC   C1B33619  22.800  14.612   8.553
 7511POPC   C2B33620  22.784  14.577   8.253
 7511POPC   C3B33621  22.751  14.568   7.953
 7511POPC   C4B33622  22.802  14.589   7.653
 7512POPC   NC333623  32.294  29.948   9.453
 7512POPC   PO433624  32.246  29.938   9.153
 7512POPC   GL133625  32.233  29.884   8.853
 7512POPC   GL233626  32.168  29.940   8.853
 7512POPC   C1A33627  32.283  29.968   8.553
 7512POPC   D2A33628  32.269  29.915   8.253
 7512POPC   C3A33629  32.220  29.901   7.953
 7512POPC   C4A33630  32.219  29.938   7.653
 7512POPC   C1B33631  32.040  29.967   8.553
 7512POPC   C2B33632  32.000  29.988   8.253
 7512POPC   C3B33633  31.986  29.938   7.953
 7512POPC   C4B33634  31.995  29.963   7.653
 7513POPC   NC333635  43.111  12.035   9.453
 7513POPC   PO433636  43.107  12.029   9.153
 7513POPC   GL133637  43.087  12.029   8.853
 7513POPC   GL233638  43.061  12.214   8.853
 7513POPC   C1A33639  43.087  12.030   8.553
 7513POPC   D2A33640  43.088  12.085   8.253
 7513POPC   C3A33641  43.148  12.126   7.953
 7513POPC   C4A33642  43.113  12.068   7.653
 7513POPC   C1B33643  43.050  12.279   8.553
 7513POPC   C2B33644  43.090  12.345   8.253
 7513POPC   C3B33645  43.068  12.355   7.953
 7513POPC   C4B33646  43.105  12.346   7.653
 7514POPC   NC333647  37.672  19.871   9.453
 7514POPC   PO433648  37.669  19.795   9.153
 7514POPC   GL133649  37.658  19.793   8.853
 7514POPC   GL233650  37.559  19.945   8.853
 7514POPC   C1A33651  37.706  19.848   8.553
 7514POPC   D2A33652  37.703  19.852   8.253
 7514POPC   C3A33653  37.719  19.862   7.953
 7514POPC   C4A33654  37.657  19.787   7.653
 7514POPC   C1B33655  37.477  19.999   8.553
 7514POPC   C2B33656  37.524  19.991   8.253
 7514POPC   C3B33657  37.511  20.027   7.953
 7514POPC   C4B33658  37.514  20.024   7.653
 7515POPC   NC333659  28.329   0.454   9.453
 7515POPC   PO433660  28.339   0.453   9.153
 7515POPC   GL133661  28.386   0.404   8.853
 7515POPC   GL233662  28.479   0.535   8.853
 7515POPC   C1A33663  28.323   0.398   8.553
 7515POPC   D2A33664  28.345   0.435   8.253
 7515POPC   C3A33665  28.394   0.394   7.953
 7515POPC   C4A33666  28.409   0.463   7.653
 7515POPC   C1B33667  28.596   0.653   8.553
 7515POPC   C2B33668  28.596   0.655   8.253
 7515POPC   C3B33669  28.537   0.641   7.953
 7515POPC   C4B33670  28.506   0.578   7.653
 7516POPC   NC333671  41.579  24.504   9.453
 7516POPC   PO433672  41.584  24.440   9.153
 7516POPC   GL133673  41.547  24.447   8.853
 7516POPC   GL233674  41.447  24.554   8.853
 7516POPC   C1A33675  41.523  24.512   8.553
 7516POPC   D2A33676  41.576  24.538   8.253
 7516POPC   C3A33677  41.546  24.462   7.953
 7516POPC   C4A33678  41.527  24.540   7.653
 7516POPC   C1B33679  41.325  24.640   8.553
 7516POPC   C2B33680  41.314  24.622   8.253
 7516POPC   C3B33681  41.363  24.597   7.953
 7516POPC   C4B33682  41.359  24.653   7.653
 7517POPC   NC333683  26.064  15.931   9.453
 7517POPC   PO433684  26.054  15.940   9.153
 7517POPC   GL133685  26.073  15.912   8.853
 7517POPC   GL233686  26.087  15.815   8.853
 7517POPC   C1A33687  26.073  15.988   8.553
 7517POPC   D2A33688  26.080  16.005   8.253
 7517POPC   C3A33689  26.029  15.927   7.953
 7517POPC   C4A33690  26.008  15.960   7.653
 7517POPC   C1B33691  26.161  15.700   8.553
 7517POPC   C2B33692  26.161  15.718   8.253
 7517POPC   C3B33693  26.177  15.725   7.953
 7517POPC   C4B33694  26.180  15.733   7.653
 7518POPC   NC333695  20.630   1.981   9.453
 7518POPC   PO433696  20.647   1.982   9.153
 7518POPC   GL133697  20.642   1.952   8.853
 7518POPC   GL233698  20.525   1.853   8.853
 7518POPC   C1A33699  20.589   2.012   8.553
 7518POPC   D2A33700  20.645   1.978   8.253
 7518POPC   C3A33701  20.572   1.969   7.953
 7518POPC   C4A33702  20.591   2.035   7.653
 7518POPC   C1B33703  20.537   1.784   8.553
 7518POPC   C2B33704  20.532   1.720   8.253
 7518POPC   C3B33705  20.468   1.801   7.953
 7518POPC   C4B33706  20.484   1.762   7.653
 7519POPC   NC333707  22.962  34.536   9.453
 7519POPC   PO433708  22.924  34.560   9.153
 7519POPC   GL133709  22.975  34.610   8.853
 7519POPC   GL233710  22.847  34.520   8.853
 7519POPC   C1A33711  22.981  34.574   8.553
 7519POPC   D2A33712  22.973  34.608   8.253
 7519POPC   C3A33713  22.900  34.590   7.953
 7519POPC   C4A33714  22.893  34.584   7.653
 7519POPC   C1B33715  22.714  34.525   8.553
 7519POPC   C2B33716  22.725  34.525   8.253
 7519POPC   C3B33717  22.712  34.510   7.953
 7519POPC   C4B33718  22.663  34.519   7.653
 7520POPC   NC333719  44.658  40.827   9.453
 7520POPC   PO433720  44.631  40.735   9.153
 7520POPC   GL133721  44.652  40.753   8.853
 7520POPC   GL233722  44.648  40.918   8.853
 7520POPC   C1A33723  44.677  40.789   8.553
 7520POPC   D2A33724  44.674  40.798   8.253
 7520POPC   C3A33725  44.646  40.823   7.953
 7520POPC   C4A33726  44.647  40.740   7.653
 7520POPC   C1B33727  44.647  41.076   8.553
 7520POPC   C2B33728  44.723  41.046   8.253
 7520POPC   C3B33729  44.694  41.080   7.953
 7520POPC   C4B33730  44.671  40.996   7.653
 7521POPC   NC333731   1.250  27.595   9.453
 7521POPC   PO433732   1.213  27.641   9.153
 7521POPC   GL133733   1.228  27.638   8.853
 7521POPC   GL233734   1.211  27.711   8.853
 7521POPC   C1A33735   1.175  27.623   8.553
 7521POPC   D2A33736   1.184  27.568   8.253
 7521POPC   C3A33737   1.240  27.627   7.953
 7521POPC   C4A33738   1.165  27.570   7.653
 7521POPC   C1B33739   1.307  27.835   8.553
 7521POPC   C2B33740   1.249  27.819   8.253
 7521POPC   C3B33741   1.340  27.794   7.953
 7521POPC   C4B33742   1.256  27.856   7.653
 7522POPC   NC333743   3.584  29.901   9.453
 7522POPC   PO433744   3.552  29.885   9.153
 7522POPC   GL133745   3.546  29.927   8.853
 7522POPC   GL233746   3.586  30.080   8.853
 7522POPC   C1A33747   3.544  29.922   8.553
 7522POPC   D2A33748   3.585  29.965   8.253
 7522POPC   C3A33749   3.539  29.913   7.953
 7522POPC   C4A33750   3.540  29.934   7.653
 7522POPC   C1B33751   3.569  30.159   8.553
 7522POPC   C2B33752   3.589  30.166   8.253
 7522POPC   C3B33753   3.563  30.141   7.953
 7522POPC   C4B33754   3.604  30.137   7.653
 7523POPC   NC333755   4.328  24.515   9.453
 7523POPC   PO433756   4.330  24.475   9.153
 7523POPC   GL133757   4.327  24.448   8.853
 7523POPC   GL233758   4.341  24.625   8.853
 7523POPC   C1A33759   4.319  24.477   8.553
 7523POPC   D2A33760   4.336  24.488   8.253
 7523POPC   C3A33761   4.286  24.486   7.953
 7523POPC   C4A33762   4.297  24.482   7.653
 7523POPC   C1B33763   4.281  24.789   8.553
 7523POPC   C2B33764   4.296  24.786   8.253
 7523POPC   C3B33765   4.326  24.727   7.953
 7523POPC   C4B33766   4.326  24.711   7.653
 7524POPC   NC333767   4.361   8.222   9.453
 7524POPC   PO433768   4.303   8.198   9.153
 7524POPC   GL133769   4.354   8.177   8.853
 7524POPC   GL233770   4.296   8.363   8.853
 7524POPC   C1A33771   4.287   8.176   8.553
 7524POPC   D2A33772   4.336   8.244   8.253
 7524POPC   C3A33773   4.336   8.167   7.953
 7524POPC   C4A33774   4.307   8.201   7.653
 7524POPC   C1B33775   4.383   8.413   8.553
 7524POPC   C2B33776   4.329   8.418   8.253
 7524POPC   C3B33777   4.398   8.407   7.953
 7524POPC   C4B33778   4.345   8.440   7.653
 7525POPC   NC333779  29.966  20.568   9.453
 7525POPC   PO433780  29.955  20.605   9.153
 7525POPC   GL133781  29.887  20.637   8.853
 7525POPC   GL233782  30.014  20.520   8.853
 7525POPC   C1A33783  29.917  20.588   8.553
 7525POPC   D2A33784  29.919  20.579   8.253
 7525POPC   C3A33785  29.873  20.580   7.953
 7525POPC   C4A33786  29.907  20.659   7.653
 7525POPC   C1B33787  30.117  20.487   8.553
 7525POPC   C2B33788  30.112  20.495   8.253
 7525POPC   C3B33789  30.087  20.424   7.953
 7525POPC   C4B33790  30.080  20.470   7.653
 7526POPC   NC333791  43.080  37.707   9.453
 7526POPC   PO433792  43.071  37.709   9.153
 7526POPC   GL133793  43.083  37.635   8.853
 7526POPC   GL233794  43.134  37.576   8.853
 7526POPC   C1A33795  43.120  37.688   8.553
 7526POPC   D2A33796  43.127  37.643   8.253
 7526POPC   C3A33797  43.154  37.724   7.953
 7526POPC   C4A33798  43.062  37.675   7.653
 7526POPC   C1B33799  43.212  37.399   8.553
 7526POPC   C2B33800  43.193  37.462   8.253
 7526POPC   C3B33801  43.211  37.439   7.953
 7526POPC   C4B33802  43.205  37.450   7.653
 7527POPC   NC333803  43.865  16.713   9.453
 7527POPC   PO433804  43.855  16.777   9.153
 7527POPC   GL133805  43.838  16.703   8.853
 7527POPC   GL233806  43.815  16.794   8.853
 7527POPC   C1A33807  43.894  16.749   8.553
 7527POPC   D2A33808  43.910  16.756   8.253
 7527POPC   C3A33809  43.894  16.769   7.953
 7527POPC   C4A33810  43.842  16.729   7.653
 7527POPC   C1B33811  43.674  16.945   8.553
 7527POPC   C2B33812  43.717  16.945   8.253
 7527POPC   C3B33813  43.718  16.915   7.953
 7527POPC   C4B33814  43.727  16.915   7.653
 7528POPC   NC333815  12.816   8.236   9.453
 7528POPC   PO433816  12.811   8.198   9.153
 7528POPC   GL133817  12.840   8.193   8.853
 7528POPC   GL233818  12.898   8.111   8.853
 7528POPC   C1A33819  12.818   8.202   8.553
 7528POPC   D2A33820  12.865   8.192   8.253
 7528POPC   C3A33821  12.830   8.158   7.953
 7528POPC   C4A33822  12.873   8.232   7.653
 7528POPC   C1B33823  12.936   7.962   8.553
 7528POPC   C2B33824  12.943   7.912   8.253
 7528POPC   C3B33825  12.855   7.997   7.953
 7528POPC   C4B33826  12.933   7.998   7.653
 7529POPC   NC333827  26.028  33.011   9.453
 7529POPC   PO433828  26.009  33.017   9.153
 7529POPC   GL133829  26.068  33.043   8.853
 7529POPC   GL233830  26.094  33.101   8.853
 7529POPC   C1A33831  25.991  33.071   8.553
 7529POPC   D2A33832  26.008  32.987   8.253
 7529POPC   C3A33833  26.090  32.983   7.953
 7529POPC   C4A33834  26.081  33.058   7.653
 7529POPC   C1B33835  26.100  33.283   8.553
 7529POPC   C2B33836  26.099  33.264   8.253
 7529POPC   C3B33837  26.115  33.299   7.953
 7529POPC   C4B33838  26.045  33.311   7.653
 7530POPC   NC333839  33.836  41.534   9.453
 7530POPC   PO433840  33.793  41.557   9.153
 7530POPC   GL133841  33.830  41.579   8.853
 7530POPC   GL233842  33.934  41.519   8.853
 7530POPC   C1A33843  33.844  41.573   8.553
 7530POPC   D2A33844  33.824  41.569   8.253
 7530POPC   C3A33845  33.791  41.539   7.953
 7530POPC   C4A33846  33.833  41.513   7.653
 7530POPC   C1B33847  34.018  41.517   8.553
 7530POPC   C2B33848  34.008  41.549   8.253
 7530POPC   C3B33849  34.066  41.488   7.953
 7530POPC   C4B33850  34.028  41.518   7.653
 7531POPC   NC333851   7.432  35.325   9.453
 7531POPC   PO433852   7.425  35.393   9.153
 7531POPC   GL133853   7.465  35.328   8.853
 7531POPC   GL233854   7.310  35.366   8.853
 7531POPC   C1A33855   7.433  35.319   8.553
 7531POPC   D2A33856   7.455  35.317   8.253
 7531POPC   C3A33857   7.454  35.324   7.953
 7531POPC   C4A33858   7.425  35.381   7.653
 7531POPC   C1B33859   7.186  35.363   8.553
 7531POPC   C2B33860   7.138  35.364   8.253
 7531POPC   C3B33861   7.192  35.357   7.953
 7531POPC   C4B33862   7.172  35.317   7.653
 7532POPC   NC333863  38.411  20.612   9.453
 7532POPC   PO433864  38.471  20.632   9.153
 7532POPC   GL133865  38.470  20.659   8.853
 7532POPC   GL233866  38.553  20.555   8.853
 7532POPC   C1A33867  38.444  20.653   8.553
 7532POPC   D2A33868  38.437  20.619   8.253
 7532POPC   C3A33869  38.429  20.602   7.953
 7532POPC   C4A33870  38.497  20.593   7.653
 7532POPC   C1B33871  38.632  20.449   8.553
 7532POPC   C2B33872  38.619  20.390   8.253
 7532POPC   C3B33873  38.659  20.444   7.953
 7532POPC   C4B33874  38.644  20.472   7.653
 7533POPC   NC333875  10.542  14.413   9.453
 7533POPC   PO433876  10.569  14.427   9.153
 7533POPC   GL133877  10.570  14.393   8.853
 7533POPC   GL233878  10.654  14.521   8.853
 7533POPC   C1A33879  10.561  14.437   8.553
 7533POPC   D2A33880  10.481  14.434   8.253
 7533POPC   C3A33881  10.545  14.385   7.953
 7533POPC   C4A33882  10.514  14.405   7.653
 7533POPC   C1B33883  10.738  14.604   8.553
 7533POPC   C2B33884  10.723  14.572   8.253
 7533POPC   C3B33885  10.745  14.593   7.953
 7533POPC   C4B33886  10.698  14.587   7.653
 7534POPC   NC333887  42.312  28.410   9.453
 7534POPC   PO433888  42.362  28.409   9.153
 7534POPC   GL133889  42.335  28.381   8.853
 7534POPC   GL233890  42.250  28.286   8.853
 7534POPC   C1A33891  42.354  28.336   8.553
 7534POPC   D2A33892  42.356  28.330   8.253
 7534POPC   C3A33893  42.369  28.344   7.953
 7534POPC   C4A33894  42.298  28.418   7.653
 7534POPC   C1B33895  42.080  28.275   8.553
 7534POPC   C2B33896  42.161  28.261   8.253
 7534POPC   C3B33897  42.163  28.255   7.953
 7534POPC   C4B33898  42.121  28.264   7.653
 7535POPC   NC333899  41.569  33.817   9.453
 7535POPC   PO433900  41.541  33.825   9.153
 7535POPC   GL133901  41.573  33.755   8.853
 7535POPC   GL233902  41.601  33.949   8.853
 7535POPC   C1A33903  41.607  33.774   8.553
 7535POPC   D2A33904  41.555  33.799   8.253
 7535POPC   C3A33905  41.594  33.847   7.953
 7535POPC   C4A33906  41.540  33.787   7.653
 7535POPC   C1B33907  41.562  34.070   8.553
 7535POPC   C2B33908  41.550  34.062   8.253
 7535POPC   C3B33909  41.584  34.080   7.953
 7535POPC   C4B33910  41.576  34.046   7.653
 7536POPC   NC333911  25.247  22.127   9.453
 7536POPC   PO433912  25.273  22.144   9.153
 7536POPC   GL133913  25.314  22.138   8.853
 7536POPC   GL233914  25.206  22.099   8.853
 7536POPC   C1A33915  25.237  22.168   8.553
 7536POPC   D2A33916  25.256  22.174   8.253
 7536POPC   C3A33917  25.247  22.143   7.953
 7536POPC   C4A33918  25.265  22.159   7.653
 7536POPC   C1B33919  25.141  21.973   8.553
 7536POPC   C2B33920  25.104  21.996   8.253
 7536POPC   C3B33921  25.176  21.939   7.953
 7536POPC   C4B33922  25.152  21.918   7.653
 7537POPC   NC333923   1.215  34.579   9.453
 7537POPC   PO433924   1.240  34.560   9.153
 7537POPC   GL133925   1.258  34.603   8.853
 7537POPC   GL233926   1.186  34.652   8.853
 7537POPC   C1A33927   1.165  34.585   8.553
 7537POPC   D2A33928   1.171  34.623   8.253
 7537POPC   C3A33929   1.201  34.534   7.953
 7537POPC   C4A33930   1.178  34.567   7.653
 7537POPC   C1B33931   1.220  34.868   8.553
 7537POPC   C2B33932   1.197  34.819   8.253
 7537POPC   C3B33933   1.226  34.869   7.953
 7537POPC   C4B33934   1.200  34.786   7.653
 7538POPC   NC333935  19.092  36.110   9.453
 7538POPC   PO433936  19.053  36.120   9.153
 7538POPC   GL133937  19.063  36.123   8.853
 7538POPC   GL233938  19.139  36.225   8.853
 7538POPC   C1A33939  19.081  36.171   8.553
 7538POPC   D2A33940  19.050  36.154   8.253
 7538POPC   C3A33941  19.063  36.153   7.953
 7538POPC   C4A33942  19.106  36.098   7.653
 7538POPC   C1B33943  19.197  36.254   8.553
 7538POPC   C2B33944  19.258  36.322   8.253
 7538POPC   C3B33945  19.200  36.345   7.953
 7538POPC   C4B33946  19.239  36.288   7.653
 7539POPC   NC333947  23.742  12.879   9.453
 7539POPC   PO433948  23.716  12.866   9.153
 7539POPC   GL133949  23.720  12.843   8.853
 7539POPC   GL233950  23.765  13.000   8.853
 7539POPC   C1A33951  23.742  12.853   8.553
 7539POPC   D2A33952  23.684  12.867   8.253
 7539POPC   C3A33953  23.707  12.843   7.953
 7539POPC   C4A33954  23.715  12.850   7.653
 7539POPC   C1B33955  23.701  13.111   8.553
 7539POPC   C2B33956  23.745  13.076   8.253
 7539POPC   C3B33957  23.712  13.099   7.953
 7539POPC   C4B33958  23.773  13.140   7.653
 7540POPC   NC333959  40.002  15.144   9.453
 7540POPC   PO433960  40.003  15.176   9.153
 7540POPC   GL133961  40.043  15.180   8.853
 7540POPC   GL233962  40.127  15.186   8.853
 7540POPC   C1A33963  40.011  15.213   8.553
 7540POPC   D2A33964  39.971  15.152   8.253
 7540POPC   C3A33965  39.978  15.169   7.953
 7540POPC   C4A33966  40.041  15.134   7.653
 7540POPC   C1B33967  40.206  15.082   8.553
 7540POPC   C2B33968  40.246  15.098   8.253
 7540POPC   C3B33969  40.274  15.162   7.953
 7540POPC   C4B33970  40.282  15.153   7.653
 7541POPC   NC333971  11.311  24.486   9.453
 7541POPC   PO433972  11.256  24.493   9.153
 7541POPC   GL133973  11.264  24.505   8.853
 7541POPC   GL233974  11.410  24.578   8.853
 7541POPC   C1A33975  11.251  24.443   8.553
 7541POPC   D2A33976  11.286  24.511   8.253
 7541POPC   C3A33977  11.342  24.448   7.953
 7541POPC   C4A33978  11.300  24.493   7.653
 7541POPC   C1B33979  11.501  24.605   8.553
 7541POPC   C2B33980  11.544  24.573   8.253
 7541POPC   C3B33981  11.484  24.574   7.953
 7541POPC   C4B33982  11.546  24.541   7.653
 7542POPC   NC333983  39.234  12.119   9.453
 7542POPC   PO433984  39.249  12.038   9.153
 7542POPC   GL133985  39.190  12.091   8.853
 7542POPC   GL233986  39.100  12.119   8.853
 7542POPC   C1A33987  39.252  12.060   8.553
 7542POPC   D2A33988  39.187  12.070   8.253
 7542POPC   C3A33989  39.207  12.027   7.953
 7542POPC   C4A33990  39.281  12.044   7.653
 7542POPC   C1B33991  38.979  12.193   8.553
 7542POPC   C2B33992  39.018  12.226   8.253
 7542POPC   C3B33993  39.024  12.227   7.953
 7542POPC   C4B33994  39.004  12.197   7.653
 7543POPC   NC333995  17.539  40.813   9.453
 7543POPC   PO433996  17.553  40.821   9.153
 7543POPC   GL133997  17.485  40.781   8.853
 7543POPC   GL233998  17.440  40.841   8.853
 7543POPC   C1A33999  17.505  40.744   8.553
 7543POPC   D2A34000  17.496  40.752   8.253
 7543POPC   C3A34001  17.543  40.792   7.953
 7543POPC   C4A34002  17.483  40.792   7.653
 7543POPC   C1B34003  17.314  40.914   8.553
 7543POPC   C2B34004  17.309  40.935   8.253
 7543POPC   C3B34005  17.358  40.943   7.953
 7543POPC   C4B34006  17.359  40.928   7.653
 7544POPC   NC334007  19.091  30.699   9.453
 7544POPC   PO434008  19.106  30.688   9.153
 7544POPC   GL134009  19.076  30.652   8.853
 7544POPC   GL234010  19.208  30.737   8.853
 7544POPC   C1A34011  19.089  30.690   8.553
 7544POPC   D2A34012  19.013  30.712   8.253
 7544POPC   C3A34013  19.081  30.692   7.953
 7544POPC   C4A34014  19.033  30.661   7.653
 7544POPC   C1B34015  19.287  30.755   8.553
 7544POPC   C2B34016  19.312  30.793   8.253
 7544POPC   C3B34017  19.281  30.781   7.953
 7544POPC   C4B34018  19.303  30.851   7.653
 7545POPC   NC334019  22.958  36.172   9.453
 7545POPC   PO434020  22.910  36.125   9.153
 7545POPC   GL134021  22.928  36.170   8.853
 7545POPC   GL234022  23.044  36.124   8.853
 7545POPC   C1A34023  22.958  36.142   8.553
 7545POPC   D2A34024  22.901  36.144   8.253
 7545POPC   C3A34025  22.956  36.138   7.953
 7545POPC   C4A34026  22.904  36.128   7.653
 7545POPC   C1B34027  23.184  36.167   8.553
 7545POPC   C2B34028  23.178  36.197   8.253
 7545POPC   C3B34029  23.201  36.136   7.953
 7545POPC   C4B34030  23.201  36.140   7.653
 7546POPC   NC334031   1.178  22.972   9.453
 7546POPC   PO434032   1.222  22.910   9.153
 7546POPC   GL134033   1.245  22.921   8.853
 7546POPC   GL234034   1.269  23.050   8.853
 7546POPC   C1A34035   1.204  22.891   8.553
 7546POPC   D2A34036   1.177  22.943   8.253
 7546POPC   C3A34037   1.249  22.897   7.953
 7546POPC   C4A34038   1.170  22.903   7.653
 7546POPC   C1B34039   1.209  23.231   8.553
 7546POPC   C2B34040   1.241  23.174   8.253
 7546POPC   C3B34041   1.256  23.138   7.953
 7546POPC   C4B34042   1.265  23.165   7.653
 7547POPC   NC334043  16.731  29.100   9.453
 7547POPC   PO434044  16.727  29.168   9.153
 7547POPC   GL134045  16.753  29.119   8.853
 7547POPC   GL234046  16.654  29.219   8.853
 7547POPC   C1A34047  16.744  29.170   8.553
 7547POPC   D2A34048  16.750  29.119   8.253
 7547POPC   C3A34049  16.728  29.157   7.953
 7547POPC   C4A34050  16.691  29.123   7.653
 7547POPC   C1B34051  16.501  29.283   8.553
 7547POPC   C2B34052  16.562  29.288   8.253
 7547POPC   C3B34053  16.588  29.280   7.953
 7547POPC   C4B34054  16.574  29.319   7.653
 7548POPC   NC334055  32.989  35.396   9.453
 7548POPC   PO434056  32.998  35.343   9.153
 7548POPC   GL134057  33.032  35.343   8.853
 7548POPC   GL234058  33.078  35.474   8.853
 7548POPC   C1A34059  32.979  35.394   8.553
 7548POPC   D2A34060  32.994  35.339   8.253
 7548POPC   C3A34061  32.990  35.332   7.953
 7548POPC   C4A34062  33.002  35.344   7.653
 7548POPC   C1B34063  33.167  35.528   8.553
 7548POPC   C2B34064  33.170  35.575   8.253
 7548POPC   C3B34065  33.226  35.534   7.953
 7548POPC   C4B34066  33.172  35.587   7.653
 7549POPC   NC334067  33.843  19.068   9.453
 7549POPC   PO434068  33.823  19.037   9.153
 7549POPC   GL134069  33.784  19.032   8.853
 7549POPC   GL234070  33.800  19.216   8.853
 7549POPC   C1A34071  33.847  19.098   8.553
 7549POPC   D2A34072  33.848  19.026   8.253
 7549POPC   C3A34073  33.825  19.089   7.953
 7549POPC   C4A34074  33.759  19.028   7.653
 7549POPC   C1B34075  33.785  19.325   8.553
 7549POPC   C2B34076  33.786  19.279   8.253
 7549POPC   C3B34077  33.813  19.317   7.953
 7549POPC   C4B34078  33.877  19.292   7.653
 7550POPC   NC334079   6.679   9.702   9.453
 7550POPC   PO434080   6.619   9.717   9.153
 7550POPC   GL134081   6.614   9.776   8.853
 7550POPC   GL234082   6.504   9.746   8.853
 7550POPC   C1A34083   6.674   9.730   8.553
 7550POPC   D2A34084   6.682   9.774   8.253
 7550POPC   C3A34085   6.599   9.702   7.953
 7550POPC   C4A34086   6.617   9.735   7.653
 7550POPC   C1B34087   6.457   9.664   8.553
 7550POPC   C2B34088   6.368   9.635   8.253
 7550POPC   C3B34089   6.458   9.612   7.953
 7550POPC   C4B34090   6.385   9.681   7.653
 7551POPC   NC334091  43.911  33.832   9.453
 7551POPC   PO434092  43.868  33.791   9.153
 7551POPC   GL134093  43.934  33.844   8.853
 7551POPC   GL234094  44.038  33.832   8.853
 7551POPC   C1A34095  43.864  33.782   8.553
 7551POPC   D2A34096  43.849  33.848   8.253
 7551POPC   C3A34097  43.926  33.770   7.953
 7551POPC   C4A34098  43.843  33.816   7.653
 7551POPC   C1B34099  44.098  33.835   8.553
 7551POPC   C2B34100  44.169  33.863   8.253
 7551POPC   C3B34101  44.108  33.835   7.953
 7551POPC   C4B34102  44.178  33.802   7.653
 7552POPC   NC334103  12.062  29.954   9.453
 7552POPC   PO434104  12.079  29.902   9.153
 7552POPC   GL134105  12.111  29.943   8.853
 7552POPC   GL234106  11.914  30.008   8.853
 7552POPC   C1A34107  12.080  29.944   8.553
 7552POPC   D2A34108  12.126  29.925   8.253
 7552POPC   C3A34109  12.117  29.884   7.953
 7552POPC   C4A34110  12.048  29.964   7.653
 7552POPC   C1B34111  11.860  29.972   8.553
 7552POPC   C2B34112  11.799  29.984   8.253
 7552POPC   C3B34113  11.893  29.975   7.953
 7552POPC   C4B34114  11.857  30.044   7.653
 7553POPC   NC334115  41.576  32.216   9.453
 7553POPC   PO434116  41.567  32.218   9.153
 7553POPC   GL134117  41.509  32.265   8.853
 7553POPC   GL234118  41.511  32.136   8.853
 7553POPC   C1A34119  41.600  32.244   8.553
 7553POPC   D2A34120  41.593  32.228   8.253
 7553POPC   C3A34121  41.565  32.221   7.953
 7553POPC   C4A34122  41.573  32.268   7.653
 7553POPC   C1B34123  41.376  32.100   8.553
 7553POPC   C2B34124  41.368  32.069   8.253
 7553POPC   C3B34125  41.344  32.105   7.953
 7553POPC   C4B34126  41.396  32.072   7.653
 7554POPC   NC334127  22.925   2.756   9.453
 7554POPC   PO434128  22.930   2.770   9.153
 7554POPC   GL134129  22.897   2.795   8.853
 7554POPC   GL234130  22.809   2.669   8.853
 7554POPC   C1A34131  22.889   2.779   8.553
 7554POPC   D2A34132  22.912   2.790   8.253
 7554POPC   C3A34133  22.912   2.770   7.953
 7554POPC   C4A34134  22.987   2.752   7.653
 7554POPC   C1B34135  22.719   2.614   8.553
 7554POPC   C2B34136  22.702   2.616   8.253
 7554POPC   C3B34137  22.719   2.650   7.953
 7554POPC   C4B34138  22.742   2.584   7.653
 7555POPC   NC334139  15.935  44.657   9.453
 7555POPC   PO434140  16.001  44.657   9.153
 7555POPC   GL134141  15.961  44.637   8.853
 7555POPC   GL234142  16.040  44.549   8.853
 7555POPC   C1A34143  15.932  44.690   8.553
 7555POPC   D2A34144  15.926  44.661   8.253
 7555POPC   C3A34145  15.942  44.697   7.953
 7555POPC   C4A34146  15.993  44.624   7.653
 7555POPC   C1B34147  16.121  44.445   8.553
 7555POPC   C2B34148  16.072  44.445   8.253
 7555POPC   C3B34149  16.066  44.406   7.953
 7555POPC   C4B34150  16.085  44.482   7.653
 7556POPC   NC334151  23.739  11.294   9.453
 7556POPC   PO434152  23.711  11.252   9.153
 7556POPC   GL134153  23.679  11.273   8.853
 7556POPC   GL234154  23.625  11.336   8.853
 7556POPC   C1A34155  23.685  11.320   8.553
 7556POPC   D2A34156  23.743  11.250   8.253
 7556POPC   C3A34157  23.734  11.328   7.953
 7556POPC   C4A34158  23.718  11.279   7.653
 7556POPC   C1B34159  23.499  11.435   8.553
 7556POPC   C2B34160  23.550  11.494   8.253
 7556POPC   C3B34161  23.566  11.491   7.953
 7556POPC   C4B34162  23.525  11.489   7.653
 7557POPC   NC334163   8.985  26.056   9.453
 7557POPC   PO434164   9.012  26.037   9.153
 7557POPC   GL134165   8.960  26.035   8.853
 7557POPC   GL234166   8.854  26.077   8.853
 7557POPC   C1A34167   8.945  26.062   8.553
 7557POPC   D2A34168   8.973  25.991   8.253
 7557POPC   C3A34169   8.938  26.038   7.953
 7557POPC   C4A34170   8.980  26.043   7.653
 7557POPC   C1B34171   8.737  26.203   8.553
 7557POPC   C2B34172   8.720  26.162   8.253
 7557POPC   C3B34173   8.751  26.202   7.953
 7557POPC   C4B34174   8.752  26.175   7.653
 7558POPC   NC334175   5.123  29.885   9.453
 7558POPC   PO434176   5.060  29.894   9.153
 7558POPC   GL134177   5.061  29.897   8.853
 7558POPC   GL234178   5.184  29.869   8.853
 7558POPC   C1A34179   5.131  29.942   8.553
 7558POPC   D2A34180   5.072  29.964   8.253
 7558POPC   C3A34181   5.073  29.890   7.953
 7558POPC   C4A34182   5.140  29.900   7.653
 7558POPC   C1B34183   5.354  29.836   8.553
 7558POPC   C2B34184   5.316  29.858   8.253
 7558POPC   C3B34185   5.306  29.851   7.953
 7558POPC   C4B34186   5.298  29.840   7.653
 7559POPC   NC334187  24.480  11.300   9.453
 7559POPC   PO434188  24.450  11.274   9.153
 7559POPC   GL134189  24.479  11.265   8.853
 7559POPC   GL234190  24.506  11.126   8.853
 7559POPC   C1A34191  24.446  11.323   8.553
 7559POPC   D2A34192  24.445  11.338   8.253
 7559POPC   C3A34193  24.485  11.277   7.953
 7559POPC   C4A34194  24.454  11.339   7.653
 7559POPC   C1B34195  24.508  11.038   8.553
 7559POPC   C2B34196  24.510  11.063   8.253
 7559POPC   C3B34197  24.532  11.089   7.953
 7559POPC   C4B34198  24.537  11.052   7.653
 7560POPC   NC334199   3.552  43.082   9.453
 7560POPC   PO434200   3.580  43.088   9.153
 7560POPC   GL134201   3.492  43.129   8.853
 7560POPC   GL234202   3.512  43.010   8.853
 7560POPC   C1A34203   3.544  43.122   8.553
 7560POPC   D2A34204   3.508  43.099   8.253
 7560POPC   C3A34205   3.577  43.128   7.953
 7560POPC   C4A34206   3.550  43.109   7.653
 7560POPC   C1B34207   3.442  42.934   8.553
 7560POPC   C2B34208   3.422  42.907   8.253
 7560POPC   C3B34209   3.386  42.886   7.953
 7560POPC   C4B34210   3.478  42.876   7.653
 7561POPC   NC334211  11.348   2.026   9.453
 7561POPC   PO434212  11.311   2.029   9.153
 7561POPC   GL134213  11.271   1.969   8.853
 7561POPC   GL234214  11.218   1.977   8.853
 7561POPC   C1A34215  11.333   1.974   8.553
 7561POPC   D2A34216  11.299   2.005   8.253
 7561POPC   C3A34217  11.312   2.017   7.953
 7561POPC   C4A34218  11.300   2.031   7.653
 7561POPC   C1B34219  11.014   1.956   8.553
 7561POPC   C2B34220  11.015   1.927   8.253
 7561POPC   C3B34221  11.099   1.973   7.953
 7561POPC   C4B34222  11.016   1.958   7.653
 7562POPC   NC334223   1.248  26.076   9.453
 7562POPC   PO434224   1.200  26.051   9.153
 7562POPC   GL134225   1.227  26.006   8.853
 7562POPC   GL234226   1.261  26.142   8.853
 7562POPC   C1A34227   1.244  26.062   8.553
 7562POPC   D2A34228   1.210  26.063   8.253
 7562POPC   C3A34229   1.225  26.053   7.953
 7562POPC   C4A34230   1.253  26.018   7.653
 7562POPC   C1B34231   1.291  26.247   8.553
 7562POPC   C2B34232   1.276  26.247   8.253
 7562POPC   C3B34233   1.265  26.280   7.953
 7562POPC   C4B34234   1.305  26.273   7.653
 7563POPC   NC334235  22.987   7.433   9.453
 7563POPC   PO434236  22.903   7.391   9.153
 7563POPC   GL134237  22.965   7.451   8.853
 7563POPC   GL234238  22.912   7.268   8.853
 7563POPC   C1A34239  22.919   7.404   8.553
 7563POPC   D2A34240  22.975   7.445   8.253
 7563POPC   C3A34241  22.968   7.437   7.953
 7563POPC   C4A34242  22.973   7.460   7.653
 7563POPC   C1B34243  22.852   7.176   8.553
 7563POPC   C2B34244  22.881   7.233   8.253
 7563POPC   C3B34245  22.848   7.177   7.953
 7563POPC   C4B34246  22.859   7.151   7.653
 7564POPC   NC334247  18.252  24.522   9.453
 7564POPC   PO434248  18.271  24.530   9.153
 7564POPC   GL134249  18.267  24.456   8.853
 7564POPC   GL234250  18.263  24.629   8.853
 7564POPC   C1A34251  18.244  24.443   8.553
 7564POPC   D2A34252  18.321  24.517   8.253
 7564POPC   C3A34253  18.262  24.461   7.953
 7564POPC   C4A34254  18.283  24.530   7.653
 7564POPC   C1B34255  18.304  24.738   8.553
 7564POPC   C2B34256  18.304  24.773   8.253
 7564POPC   C3B34257  18.379  24.767   7.953
 7564POPC   C4B34258  18.343  24.710   7.653
 7565POPC   NC334259  29.173  36.155   9.453
 7565POPC   PO434260  29.192  36.133   9.153
 7565POPC   GL134261  29.139  36.099   8.853
 7565POPC   GL234262  29.045  36.073   8.853
 7565POPC   C1A34263  29.104  36.115   8.553
 7565POPC   D2A34264  29.166  36.164   8.253
 7565POPC   C3A34265  29.184  36.098   7.953
 7565POPC   C4A34266  29.190  36.132   7.653
 7565POPC   C1B34267  29.038  35.953   8.553
 7565POPC   C2B34268  29.030  35.918   8.253
 7565POPC   C3B34269  28.998  35.901   7.953
 7565POPC   C4B34270  29.013  35.949   7.653
 7566POPC   NC334271  40.813  29.906   9.453
 7566POPC   PO434272  40.799  29.924   9.153
 7566POPC   GL134273  40.762  29.955   8.853
 7566POPC   GL234274  40.614  29.938   8.853
 7566POPC   C1A34275  40.738  29.940   8.553
 7566POPC   D2A34276  40.780  29.923   8.253
 7566POPC   C3A34277  40.736  29.948   7.953
 7566POPC   C4A34278  40.782  29.904   7.653
 7566POPC   C1B34279  40.575  30.024   8.553
 7566POPC   C2B34280  40.580  29.993   8.253
 7566POPC   C3B34281  40.494  30.025   7.953
 7566POPC   C4B34282  40.517  30.018   7.653
 7567POPC   NC334283  30.675  26.043   9.453
 7567POPC   PO434284  30.725  26.019   9.153
 7567POPC   GL134285  30.742  26.011   8.853
 7567POPC   GL234286  30.774  26.108   8.853
 7567POPC   C1A34287  30.658  26.041   8.553
 7567POPC   D2A34288  30.723  26.091   8.253
 7567POPC   C3A34289  30.684  26.022   7.953
 7567POPC   C4A34290  30.657  26.032   7.653
 7567POPC   C1B34291  30.832  26.251   8.553
 7567POPC   C2B34292  30.904  26.228   8.253
 7567POPC   C3B34293  30.866  26.218   7.953
 7567POPC   C4B34294  30.842  26.205   7.653
 7568POPC   NC334295  19.055   8.997   9.453
 7568POPC   PO434296  19.011   8.936   9.153
 7568POPC   GL134297  19.026   8.991   8.853
 7568POPC   GL234298  19.018   9.055   8.853
 7568POPC   C1A34299  19.095   8.994   8.553
 7568POPC   D2A34300  19.035   8.982   8.253
 7568POPC   C3A34301  19.104   8.986   7.953
 7568POPC   C4A34302  19.024   8.987   7.653
 7568POPC   C1B34303  18.919   9.162   8.553
 7568POPC   C2B34304  18.949   9.148   8.253
 7568POPC   C3B34305  18.882   9.139   7.953
 7568POPC   C4B34306  18.896   9.124   7.653
 7569POPC   NC334307  40.022  36.149   9.453
 7569POPC   PO434308  39.985  36.118   9.153
 7569POPC   GL134309  40.028  36.115   8.853
 7569POPC   GL234310  39.913  36.256   8.853
 7569POPC   C1A34311  39.992  36.117   8.553
 7569POPC   D2A34312  39.957  36.088   8.253
 7569POPC   C3A34313  39.957  36.165   7.953
 7569POPC   C4A34314  39.984  36.117   7.653
 7569POPC   C1B34315  39.828  36.375   8.553
 7569POPC   C2B34316  39.828  36.343   8.253
 7569POPC   C3B34317  39.904  36.332   7.953
 7569POPC   C4B34318  39.908  36.309   7.653
 7570POPC   NC334319  39.979  22.112   9.453
 7570POPC   PO434320  40.034  22.201   9.153
 7570POPC   GL134321  40.023  22.160   8.853
 7570POPC   GL234322  39.892  22.227   8.853
 7570POPC   C1A34323  39.987  22.178   8.553
 7570POPC   D2A34324  40.019  22.170   8.253
 7570POPC   C3A34325  39.979  22.117   7.953
 7570POPC   C4A34326  40.001  22.123   7.653
 7570POPC   C1B34327  39.769  22.285   8.553
 7570POPC   C2B34328  39.852  22.322   8.253
 7570POPC   C3B34329  39.818  22.338   7.953
 7570POPC   C4B34330  39.805  22.360   7.653
 7571POPC   NC334331  25.256  34.564   9.453
 7571POPC   PO434332  25.232  34.598   9.153
 7571POPC   GL134333  25.267  34.559   8.853
 7571POPC   GL234334  25.429  34.584   8.853
 7571POPC   C1A34335  25.233  34.598   8.553
 7571POPC   D2A34336  25.299  34.623   8.253
 7571POPC   C3A34337  25.287  34.585   7.953
 7571POPC   C4A34338  25.235  34.567   7.653
 7571POPC   C1B34339  25.554  34.539   8.553
 7571POPC   C2B34340  25.513  34.602   8.253
 7571POPC   C3B34341  25.565  34.546   7.953
 7571POPC   C4B34342  25.559  34.561   7.653
 7572POPC   NC334343  19.834  25.277   9.453
 7572POPC   PO434344  19.795  25.241   9.153
 7572POPC   GL134345  19.874  25.295   8.853
 7572POPC   GL234346  19.997  25.244   8.853
 7572POPC   C1A34347  19.847  25.298   8.553
 7572POPC   D2A34348  19.801  25.246   8.253
 7572POPC   C3A34349  19.834  25.245   7.953
 7572POPC   C4A34350  19.804  25.299   7.653
 7572POPC   C1B34351  20.034  25.217   8.553
 7572POPC   C2B34352  20.057  25.187   8.253
 7572POPC   C3B34353  20.066  25.182   7.953
 7572POPC   C4B34354  20.076  25.140   7.653
 7573POPC   NC334355  18.289  27.551   9.453
 7573POPC   PO434356  18.258  27.573   9.153
 7573POPC   GL134357  18.283  27.567   8.853
 7573POPC   GL234358  18.340  27.705   8.853
 7573POPC   C1A34359  18.256  27.630   8.553
 7573POPC   D2A34360  18.287  27.543   8.253
 7573POPC   C3A34361  18.246  27.625   7.953
 7573POPC   C4A34362  18.308  27.552   7.653
 7573POPC   C1B34363  18.473  27.790   8.553
 7573POPC   C2B34364  18.465  27.774   8.253
 7573POPC   C3B34365  18.395  27.805   7.953
 7573POPC   C4B34366  18.462  27.767   7.653
 7574POPC   NC334367   6.605   8.175   9.453
 7574POPC   PO434368   6.692   8.193   9.153
 7574POPC   GL134369   6.612   8.152   8.853
 7574POPC   GL234370   6.795   8.305   8.853
 7574POPC   C1A34371   6.661   8.202   8.553
 7574POPC   D2A34372   6.684   8.212   8.253
 7574POPC   C3A34373   6.616   8.160   7.953
 7574POPC   C4A34374   6.644   8.234   7.653
 7574POPC   C1B34375   6.869   8.339   8.553
 7574POPC   C2B34376   6.839   8.310   8.253
 7574POPC   C3B34377   6.850   8.313   7.953
 7574POPC   C4B34378   6.823   8.311   7.653
 7575POPC   NC334379   2.037  11.308   9.453
 7575POPC   PO434380   2.011  11.335   9.153
 7575POPC   GL134381   2.006  11.326   8.853
 7575POPC   GL234382   2.099  11.235   8.853
 7575POPC   C1A34383   2.009  11.347   8.553
 7575POPC   D2A34384   2.009  11.296   8.253
 7575POPC   C3A34385   1.951  11.321   7.953
 7575POPC   C4A34386   1.980  11.261   7.653
 7575POPC   C1B34387   2.170  11.123   8.553
 7575POPC   C2B34388   2.128  11.108   8.253
 7575POPC   C3B34389   2.098  11.089   7.953
 7575POPC   C4B34390   2.152  11.108   7.653
 7576POPC   NC334391  36.106  12.852   9.453
 7576POPC   PO434392  36.136  12.878   9.153
 7576POPC   GL134393  36.086  12.870   8.853
 7576POPC   GL234394  36.209  12.800   8.853
 7576POPC   C1A34395  36.159  12.892   8.553
 7576POPC   D2A34396  36.103  12.833   8.253
 7576POPC   C3A34397  36.120  12.862   7.953
 7576POPC   C4A34398  36.151  12.891   7.653
 7576POPC   C1B34399  36.263  12.672   8.553
 7576POPC   C2B34400  36.334  12.724   8.253
 7576POPC   C3B34401  36.309  12.710   7.953
 7576POPC   C4B34402  36.349  12.634   7.653
 7577POPC   NC334403  32.219  16.005   9.453
 7577POPC   PO434404  32.275  16.002   9.153
 7577POPC   GL134405  32.249  15.923   8.853
 7577POPC   GL234406  32.355  15.952   8.853
 7577POPC   C1A34407  32.277  15.944   8.553
 7577POPC   D2A34408  32.202  15.967   8.253
 7577POPC   C3A34409  32.202  15.958   7.953
 7577POPC   C4A34410  32.282  15.974   7.653
 7577POPC   C1B34411  32.496  15.973   8.553
 7577POPC   C2B34412  32.536  15.968   8.253
 7577POPC   C3B34413  32.454  15.939   7.953
 7577POPC   C4B34414  32.455  15.933   7.653
 7578POPC   NC334415  11.276  42.333   9.453
 7578POPC   PO434416  11.271  42.357   9.153
 7578POPC   GL134417  11.343  42.364   8.853
 7578POPC   GL234418  11.243  42.210   8.853
 7578POPC   C1A34419  11.302  42.319   8.553
 7578POPC   D2A34420  11.250  42.344   8.253
 7578POPC   C3A34421  11.260  42.373   7.953
 7578POPC   C4A34422  11.324  42.346   7.653
 7578POPC   C1B34423  11.084  42.152   8.553
 7578POPC   C2B34424  11.122  42.125   8.253
 7578POPC   C3B34425  11.147  42.191   7.953
 7578POPC   C4B34426  11.083  42.146   7.653
 7579POPC   NC334427  12.874  33.038   9.453
 7579POPC   PO434428  12.814  33.025   9.153
 7579POPC   GL134429  12.824  33.001   8.853
 7579POPC   GL234430  12.818  33.145   8.853
 7579POPC   C1A34431  12.820  33.015   8.553
 7579POPC   D2A34432  12.834  32.987   8.253
 7579POPC   C3A34433  12.878  33.033   7.953
 7579POPC   C4A34434  12.838  33.010   7.653
 7579POPC   C1B34435  12.702  33.277   8.553
 7579POPC   C2B34436  12.786  33.252   8.253
 7579POPC   C3B34437  12.724  33.253   7.953
 7579POPC   C4B34438  12.725  33.233   7.653
 7580POPC   NC334439  23.697  10.542   9.453
 7580POPC   PO434440  23.739  10.487   9.153
 7580POPC   GL134441  23.753  10.551   8.853
 7580POPC   GL234442  23.624  10.460   8.853
 7580POPC   C1A34443  23.689  10.571   8.553
 7580POPC   D2A34444  23.727  10.504   8.253
 7580POPC   C3A34445  23.727  10.563   7.953
 7580POPC   C4A34446  23.690  10.542   7.653
 7580POPC   C1B34447  23.467  10.358   8.553
 7580POPC   C2B34448  23.550  10.358   8.253
 7580POPC   C3B34449  23.486  10.393   7.953
 7580POPC   C4B34450  23.541  10.412   7.653
 7581POPC   NC334451  43.140  23.731   9.453
 7581POPC   PO434452  43.061  23.743   9.153
 7581POPC   GL134453  43.151  23.731   8.853
 7581POPC   GL234454  43.020  23.775   8.853
 7581POPC   C1A34455  43.111  23.687   8.553
 7581POPC   D2A34456  43.085  23.688   8.253
 7581POPC   C3A34457  43.154  23.749   7.953
 7581POPC   C4A34458  43.067  23.684   7.653
 7581POPC   C1B34459  42.988  23.926   8.553
 7581POPC   C2B34460  42.936  23.955   8.253
 7581POPC   C3B34461  42.992  23.924   7.953
 7581POPC   C4B34462  42.943  23.935   7.653
 7582POPC   NC334463   5.847   1.977   9.453
 7582POPC   PO434464   5.902   2.026   9.153
 7582POPC   GL134465   5.841   2.018   8.853
 7582POPC   GL234466   5.898   2.121   8.853
 7582POPC   C1A34467   5.833   1.981   8.553
 7582POPC   D2A34468   5.827   1.958   8.253
 7582POPC   C3A34469   5.913   1.946   7.953
 7582POPC   C4A34470   5.850   2.031   7.653
 7582POPC   C1B34471   5.886   2.247   8.553
 7582POPC   C2B34472   5.900   2.242   8.253
 7582POPC   C3B34473   5.901   2.217   7.953
 7582POPC   C4B34474   5.889   2.282   7.653
 7583POPC   NC334475  24.539  13.616   9.453
 7583POPC   PO434476  24.527  13.667   9.153
 7583POPC   GL134477  24.463  13.598   8.853
 7583POPC   GL234478  24.362  13.556   8.853
 7583POPC   C1A34479  24.503  13.605   8.553
 7583POPC   D2A34480  24.452  13.647   8.253
 7583POPC   C3A34481  24.478  13.673   7.953
 7583POPC   C4A34482  24.457  13.653   7.653
 7583POPC   C1B34483  24.285  13.448   8.553
 7583POPC   C2B34484  24.278  13.530   8.253
 7583POPC   C3B34485  24.303  13.497   7.953
 7583POPC   C4B34486  24.331  13.502   7.653
 7584POPC   NC334487  42.339  15.910   9.453
 7584POPC   PO434488  42.363  15.945   9.153
 7584POPC   GL134489  42.300  15.986   8.853
 7584POPC   GL234490  42.484  15.891   8.853
 7584POPC   C1A34491  42.352  15.950   8.553
 7584POPC   D2A34492  42.371  15.931   8.253
 7584POPC   C3A34493  42.314  15.926   7.953
 7584POPC   C4A34494  42.360  15.931   7.653
 7584POPC   C1B34495  42.593  15.881   8.553
 7584POPC   C2B34496  42.513  15.881   8.253
 7584POPC   C3B34497  42.524  15.870   7.953
 7584POPC   C4B34498  42.581  15.800   7.653
 7585POPC   NC334499   3.544  16.734   9.453
 7585POPC   PO434500   3.572  16.759   9.153
 7585POPC   GL134501   3.523  16.736   8.853
 7585POPC   GL234502   3.650  16.621   8.853
 7585POPC   C1A34503   3.515  16.731   8.553
 7585POPC   D2A34504   3.541  16.759   8.253
 7585POPC   C3A34505   3.563  16.705   7.953
 7585POPC   C4A34506   3.516  16.747   7.653
 7585POPC   C1B34507   3.761  16.593   8.553
 7585POPC   C2B34508   3.671  16.516   8.253
 7585POPC   C3B34509   3.710  16.598   7.953
 7585POPC   C4B34510   3.737  16.547   7.653
 7586POPC   NC334511   0.422  34.562   9.453
 7586POPC   PO434512   0.468  34.623   9.153
 7586POPC   GL134513   0.429  34.565   8.853
 7586POPC   GL234514   0.379  34.409   8.853
 7586POPC   C1A34515   0.482  34.625   8.553
 7586POPC   D2A34516   0.401  34.551   8.253
 7586POPC   C3A34517   0.454  34.555   7.953
 7586POPC   C4A34518   0.479  34.598   7.653
 7586POPC   C1B34519   0.396  34.359   8.553
 7586POPC   C2B34520   0.418  34.285   8.253
 7586POPC   C3B34521   0.419  34.346   7.953
 7586POPC   C4B34522   0.355  34.365   7.653
 7587POPC   NC334523   7.415  10.504   9.453
 7587POPC   PO434524   7.437  10.532   9.153
 7587POPC   GL134525   7.392  10.545   8.853
 7587POPC   GL234526   7.327  10.382   8.853
 7587POPC   C1A34527   7.419  10.525   8.553
 7587POPC   D2A34528   7.386  10.499   8.253
 7587POPC   C3A34529   7.430  10.570   7.953
 7587POPC   C4A34530   7.385  10.558   7.653
 7587POPC   C1B34531   7.248  10.348   8.553
 7587POPC   C2B34532   7.295  10.344   8.253
 7587POPC   C3B34533   7.242  10.297   7.953
 7587POPC   C4B34534   7.318  10.328   7.653
 7588POPC   NC334535  13.616  30.741   9.453
 7588POPC   PO434536  13.663  30.671   9.153
 7588POPC   GL134537  13.676  30.702   8.853
 7588POPC   GL234538  13.760  30.660   8.853
 7588POPC   C1A34539  13.666  30.730   8.553
 7588POPC   D2A34540  13.652  30.685   8.253
 7588POPC   C3A34541  13.581  30.691   7.953
 7588POPC   C4A34542  13.608  30.683   7.653
 7588POPC   C1B34543  13.836  30.676   8.553
 7588POPC   C2B34544  13.824  30.665   8.253
 7588POPC   C3B34545  13.896  30.619   7.953
 7588POPC   C4B34546  13.873  30.601   7.653
 7589POPC   NC334547   7.447  12.889   9.453
 7589POPC   PO434548   7.428  12.808   9.153
 7589POPC   GL134549   7.451  12.861   8.853
 7589POPC   GL234550   7.576  12.944   8.853
 7589POPC   C1A34551   7.465  12.867   8.553
 7589POPC   D2A34552   7.375  12.853   8.253
 7589POPC   C3A34553   7.424  12.870   7.953
 7589POPC   C4A34554   7.470  12.860   7.653
 7589POPC   C1B34555   7.608  12.964   8.553
 7589POPC   C2B34556   7.678  12.957   8.253
 7589POPC   C3B34557   7.645  12.929   7.953
 7589POPC   C4B34558   7.608  12.964   7.653
 7590POPC   NC334559  12.816  15.957   9.453
 7590POPC   PO434560  12.805  15.919   9.153
 7590POPC   GL134561  12.809  15.988   8.853
 7590POPC   GL234562  12.882  15.796   8.853
 7590POPC   C1A34563  12.812  15.924   8.553
 7590POPC   D2A34564  12.898  15.931   8.253
 7590POPC   C3A34565  12.881  15.987   7.953
 7590POPC   C4A34566  12.853  15.943   7.653
 7590POPC   C1B34567  12.827  15.684   8.553
 7590POPC   C2B34568  12.861  15.754   8.253
 7590POPC   C3B34569  12.870  15.691   7.953
 7590POPC   C4B34570  12.856  15.734   7.653
 7591POPC   NC334571  39.271  18.268   9.453
 7591POPC   PO434572  39.254  18.279   9.153
 7591POPC   GL134573  39.193  18.281   8.853
 7591POPC   GL234574  39.240  18.131   8.853
 7591POPC   C1A34575  39.260  18.314   8.553
 7591POPC   D2A34576  39.214  18.306   8.253
 7591POPC   C3A34577  39.217  18.289   7.953
 7591POPC   C4A34578  39.182  18.288   7.653
 7591POPC   C1B34579  39.331  18.043   8.553
 7591POPC   C2B34580  39.250  18.006   8.253
 7591POPC   C3B34581  39.246  18.088   7.953
 7591POPC   C4B34582  39.332  18.059   7.653
 7592POPC   NC334583  11.341  36.856   9.453
 7592POPC   PO434584  11.255  36.872   9.153
 7592POPC   GL134585  11.298  36.873   8.853
 7592POPC   GL234586  11.276  37.031   8.853
 7592POPC   C1A34587  11.331  36.926   8.553
 7592POPC   D2A34588  11.265  36.886   8.253
 7592POPC   C3A34589  11.283  36.894   7.953
 7592POPC   C4A34590  11.304  36.864   7.653
 7592POPC   C1B34591  11.282  37.159   8.553
 7592POPC   C2B34592  11.316  37.176   8.253
 7592POPC   C3B34593  11.287  37.105   7.953
 7592POPC   C4B34594  11.315  37.107   7.653
 7593POPC   NC334595  40.810  26.087   9.453
 7593POPC   PO434596  40.786  26.091   9.153
 7593POPC   GL134597  40.819  25.994   8.853
 7593POPC   GL234598  40.827  25.948   8.853
 7593POPC   C1A34599  40.747  26.000   8.553
 7593POPC   D2A34600  40.796  26.068   8.253
 7593POPC   C3A34601  40.802  26.010   7.953
 7593POPC   C4A34602  40.779  25.993   7.653
 7593POPC   C1B34603  40.886  25.814   8.553
 7593POPC   C2B34604  40.868  25.769   8.253
 7593POPC   C3B34605  40.901  25.847   7.953
 7593POPC   C4B34606  40.913  25.844   7.653
 7594POPC   NC334607  25.311  13.662   9.453
 7594POPC   PO434608  25.268  13.670   9.153
 7594POPC   GL134609  25.244  13.648   8.853
 7594POPC   GL234610  25.210  13.543   8.853
 7594POPC   C1A34611  25.257  13.675   8.553
 7594POPC   D2A34612  25.292  13.611   8.253
 7594POPC   C3A34613  25.226  13.670   7.953
 7594POPC   C4A34614  25.218  13.581   7.653
 7594POPC   C1B34615  25.158  13.438   8.553
 7594POPC   C2B34616  25.155  13.382   8.253
 7594POPC   C3B34617  25.156  13.344   7.953
 7594POPC   C4B34618  25.214  13.411   7.653
 7595POPC   NC334619  22.148  16.745   9.453
 7595POPC   PO434620  22.172  16.767   9.153
 7595POPC   GL134621  22.132  16.690   8.853
 7595POPC   GL234622  22.144  16.885   8.853
 7595POPC   C1A34623  22.152  16.718   8.553
 7595POPC   D2A34624  22.163  16.778   8.253
 7595POPC   C3A34625  22.170  16.771   7.953
 7595POPC   C4A34626  22.133  16.693   7.653
 7595POPC   C1B34627  22.128  16.994   8.553
 7595POPC   C2B34628  22.129  16.996   8.253
 7595POPC   C3B34629  22.149  17.003   7.953
 7595POPC   C4B34630  22.144  16.996   7.653
 7596POPC   NC334631  19.837   6.637   9.453
 7596POPC   PO434632  19.875   6.674   9.153
 7596POPC   GL134633  19.801   6.652   8.853
 7596POPC   GL234634  19.885   6.789   8.853
 7596POPC   C1A34635  19.823   6.627   8.553
 7596POPC   D2A34636  19.882   6.643   8.253
 7596POPC   C3A34637  19.814   6.645   7.953
 7596POPC   C4A34638  19.789   6.617   7.653
 7596POPC   C1B34639  19.809   6.917   8.553
 7596POPC   C2B34640  19.825   6.919   8.253
 7596POPC   C3B34641  19.797   6.876   7.953
 7596POPC   C4B34642  19.860   6.864   7.653
 7597POPC   NC334643   2.027  18.256   9.453
 7597POPC   PO434644   1.953  18.333   9.153
 7597POPC   GL134645   1.945  18.274   8.853
 7597POPC   GL234646   2.084  18.374   8.853
 7597POPC   C1A34647   2.031  18.279   8.553
 7597POPC   D2A34648   1.945  18.301   8.253
 7597POPC   C3A34649   2.031  18.306   7.953
 7597POPC   C4A34650   2.020  18.301   7.653
 7597POPC   C1B34651   2.201  18.341   8.553
 7597POPC   C2B34652   2.243  18.409   8.253
 7597POPC   C3B34653   2.258  18.412   7.953
 7597POPC   C4B34654   2.222  18.418   7.653
 7598POPC   NC334655  30.696  33.848   9.453
 7598POPC   PO434656  30.673  33.808   9.153
 7598POPC   GL134657  30.698  33.827   8.853
 7598POPC   GL234658  30.775  33.916   8.853
 7598POPC   C1A34659  30.725  33.831   8.553
 7598POPC   D2A34660  30.742  33.834   8.253
 7598POPC   C3A34661  30.738  33.790   7.953
 7598POPC   C4A34662  30.669  33.764   7.653
 7598POPC   C1B34663  30.895  33.979   8.553
 7598POPC   C2B34664  30.891  34.035   8.253
 7598POPC   C3B34665  30.817  34.027   7.953
 7598POPC   C4B34666  30.881  33.989   7.653
 7599POPC   NC334667  44.642   4.333   9.453
 7599POPC   PO434668  44.709   4.333   9.153
 7599POPC   GL134669  44.709   4.358   8.853
 7599POPC   GL234670  44.520   4.394   8.853
 7599POPC   C1A34671  44.657   4.292   8.553
 7599POPC   D2A34672  44.646   4.305   8.253
 7599POPC   C3A34673  44.615   4.337   7.953
 7599POPC   C4A34674  44.660   4.295   7.653
 7599POPC   C1B34675  44.456   4.420   8.553
 7599POPC   C2B34676  44.412   4.440   8.253
 7599POPC   C3B34677  44.394   4.386   7.953
 7599POPC   C4B34678  44.461   4.356   7.653
 7600POPC   NC334679  16.704  41.525   9.453
 7600POPC   PO434680  16.685  41.586   9.153
 7600POPC   GL134681  16.717  41.565   8.853
 7600POPC   GL234682  16.622  41.483   8.853
 7600POPC   C1A34683  16.774  41.516   8.553
 7600POPC   D2A34684  16.770  41.560   8.253
 7600POPC   C3A34685  16.733  41.520   7.953
 7600POPC   C4A34686  16.769  41.604   7.653
 7600POPC   C1B34687  16.483  41.392   8.553
 7600POPC   C2B34688  16.543  41.469   8.253
 7600POPC   C3B34689  16.515  41.412   7.953
 7600POPC   C4B34690  16.508  41.451   7.653
 7601POPC   NC334691  44.690  15.142   9.453
 7601POPC   PO434692  44.687  15.154   9.153
 7601POPC   GL134693  44.628  15.214   8.853
 7601POPC   GL234694  44.752  15.248   8.853
 7601POPC   C1A34695  44.672  15.206   8.553
 7601POPC   D2A34696  44.624  15.192   8.253
 7601POPC   C3A34697  44.697  15.216   7.953
 7601POPC   C4A34698  44.694  15.209   7.653
 7601POPC   C1B34699  44.860  15.377   8.553
 7601POPC   C2B34700  44.813  15.356   8.253
 7601POPC   C3B34701  44.833  15.352   7.953
 7601POPC   C4B34702  44.816  15.360   7.653
 7602POPC   NC334703  37.673  15.994   9.453
 7602POPC   PO434704  37.720  15.938   9.153
 7602POPC   GL134705  37.696  15.954   8.853
 7602POPC   GL234706  37.612  16.037   8.853
 7602POPC   C1A34707  37.667  16.002   8.553
 7602POPC   D2A34708  37.687  15.945   8.253
 7602POPC   C3A34709  37.660  15.935   7.953
 7602POPC   C4A34710  37.686  15.978   7.653
 7602POPC   C1B34711  37.499  16.100   8.553
 7602POPC   C2B34712  37.512  16.103   8.253
 7602POPC   C3B34713  37.489  16.066   7.953
 7602POPC   C4B34714  37.458  16.123   7.653
 7603POPC   NC334715  12.870  19.797   9.453
 7603POPC   PO434716  12.805  19.806   9.153
 7603POPC   GL134717  12.869  19.871   8.853
 7603POPC   GL234718  12.752  19.858   8.853
 7603POPC   C1A34719  12.821  19.854   8.553
 7603POPC   D2A34720  12.814  19.785   8.253
 7603POPC   C3A34721  12.848  19.873   7.953
 7603POPC   C4A34722  12.840  19.807   7.653
 7603POPC   C1B34723  12.618  19.825   8.553
 7603POPC   C2B34724  12.557  19.816   8.253
 7603POPC   C3B34725  12.575  19.847   7.953
 7603POPC   C4B34726  12.622  19.887   7.653
 7604POPC   NC334727  19.838  19.016   9.453
 7604POPC   PO434728  19.828  19.081   9.153
 7604POPC   GL134729  19.839  19.074   8.853
 7604POPC   GL234730  19.707  19.051   8.853
 7604POPC   C1A34731  19.813  19.087   8.553
 7604POPC   D2A34732  19.823  19.092   8.253
 7604POPC   C3A34733  19.836  19.068   7.953
 7604POPC   C4A34734  19.857  19.084   7.653
 7604POPC   C1B34735  19.617  19.006   8.553
 7604POPC   C2B34736  19.568  18.974   8.253
 7604POPC   C3B34737  19.623  19.032   7.953
 7604POPC   C4B34738  19.581  18.974   7.653
 7605POPC   NC334739  35.343  22.177   9.453
 7605POPC   PO434740  35.309  22.206   9.153
 7605POPC   GL134741  35.321  22.124   8.853
 7605POPC   GL234742  35.452  22.143   8.853
 7605POPC   C1A34743  35.361  22.187   8.553
 7605POPC   D2A34744  35.343  22.141   8.253
 7605POPC   C3A34745  35.374  22.165   7.953
 7605POPC   C4A34746  35.368  22.210   7.653
 7605POPC   C1B34747  35.557  22.087   8.553
 7605POPC   C2B34748  35.594  22.145   8.253
 7605POPC   C3B34749  35.578  22.102   7.953
 7605POPC   C4B34750  35.555  22.106   7.653
 7606POPC   NC334751  11.341  15.975   9.453
 7606POPC   PO434752  11.300  15.984   9.153
 7606POPC   GL134753  11.340  16.001   8.853
 7606POPC   GL234754  11.214  15.943   8.853
 7606POPC   C1A34755  11.338  15.987   8.553
 7606POPC   D2A34756  11.320  15.978   8.253
 7606POPC   C3A34757  11.268  15.949   7.953
 7606POPC   C4A34758  11.304  15.963   7.653
 7606POPC   C1B34759  11.067  16.035   8.553
 7606POPC   C2B34760  11.041  15.948   8.253
 7606POPC   C3B34761  11.003  15.946   7.953
 7606POPC   C4B34762  11.007  15.992   7.653
 7607POPC   NC334763  15.913  38.485   9.453
 7607POPC   PO434764  15.992  38.427   9.153
 7607POPC   GL134765  16.005  38.424   8.853
 7607POPC   GL234766  15.911  38.392   8.853
 7607POPC   C1A34767  15.959  38.470   8.553
 7607POPC   D2A34768  15.912  38.425   8.253
 7607POPC   C3A34769  15.922  38.470   7.953
 7607POPC   C4A34770  15.982  38.459   7.653
 7607POPC   C1B34771  15.800  38.225   8.553
 7607POPC   C2B34772  15.753  38.321   8.253
 7607POPC   C3B34773  15.757  38.261   7.953
 7607POPC   C4B34774  15.825  38.275   7.653
 7608POPC   NC334775   2.808  22.937   9.453
 7608POPC   PO434776   2.742  22.922   9.153
 7608POPC   GL134777   2.783  22.935   8.853
 7608POPC   GL234778   2.674  23.080   8.853
 7608POPC   C1A34779   2.741  22.905   8.553
 7608POPC   D2A34780   2.774  22.926   8.253
 7608POPC   C3A34781   2.781  22.948   7.953
 7608POPC   C4A34782   2.806  22.951   7.653
 7608POPC   C1B34783   2.670  23.203   8.553
 7608POPC   C2B34784   2.647  23.207   8.253
 7608POPC   C3B34785   2.654  23.154   7.953
 7608POPC   C4B34786   2.619  23.140   7.653
 7609POPC   NC334787   7.408   5.097   9.453
 7609POPC   PO434788   7.447   5.110   9.153
 7609POPC   GL134789   7.378   5.121   8.853
 7609POPC   GL234790   7.543   5.028   8.853
 7609POPC   C1A34791   7.380   5.097   8.553
 7609POPC   D2A34792   7.429   5.055   8.253
 7609POPC   C3A34793   7.396   5.096   7.953
 7609POPC   C4A34794   7.398   5.120   7.653
 7609POPC   C1B34795   7.694   4.956   8.553
 7609POPC   C2B34796   7.613   4.988   8.253
 7609POPC   C3B34797   7.687   5.007   7.953
 7609POPC   C4B34798   7.610   4.976   7.653
 7610POPC   NC334799  26.086  34.532   9.453
 7610POPC   PO434800  26.057  34.531   9.153
 7610POPC   GL134801  26.071  34.570   8.853
 7610POPC   GL234802  25.974  34.479   8.853
 7610POPC   C1A34803  26.045  34.607   8.553
 7610POPC   D2A34804  26.021  34.624   8.253
 7610POPC   C3A34805  26.057  34.534   7.953
 7610POPC   C4A34806  26.003  34.598   7.653
 7610POPC   C1B34807  25.817  34.462   8.553
 7610POPC   C2B34808  25.817  34.408   8.253
 7610POPC   C3B34809  25.819  34.409   7.953
 7610POPC   C4B34810  25.856  34.393   7.653
 7611POPC   NC334811  32.297  30.707   9.453
 7611POPC   PO434812  32.223  30.670   9.153
 7611POPC   GL134813  32.234  30.669   8.853
 7611POPC   GL234814  32.173  30.548   8.853
 7611POPC   C1A34815  32.228  30.726   8.553
 7611POPC   D2A34816  32.255  30.647   8.253
 7611POPC   C3A34817  32.221  30.720   7.953
 7611POPC   C4A34818  32.297  30.725   7.653
 7611POPC   C1B34819  32.161  30.417   8.553
 7611POPC   C2B34820  32.193  30.505   8.253
 7611POPC   C3B34821  32.184  30.480   7.953
 7611POPC   C4B34822  32.217  30.443   7.653
 7612POPC   NC334823  44.643  16.723   9.453
 7612POPC   PO434824  44.648  16.698   9.153
 7612POPC   GL134825  44.668  16.713   8.853
 7612POPC   GL234826  44.713  16.894   8.853
 7612POPC   C1A34827  44.619  16.773   8.553
 7612POPC   D2A34828  44.651  16.703   8.253
 7612POPC   C3A34829  44.677  16.765   7.953
 7612POPC   C4A34830  44.614  16.714   7.653
 7612POPC   C1B34831  44.659  16.963   8.553
 7612POPC   C2B34832  44.676  17.010   8.253
 7612POPC   C3B34833  44.665  16.945   7.953
 7612POPC   C4B34834  44.630  16.970   7.653
 7613POPC   NC334835  28.406  44.653   9.453
 7613POPC   PO434836  28.377  44.697   9.153
 7613POPC   GL134837  28.333  44.655   8.853
 7613POPC   GL234838  28.362  44.790   8.853
 7613POPC   C1A34839  28.329  44.664   8.553
 7613POPC   D2A34840  28.397  44.634   8.253
 7613POPC   C3A34841  28.340  44.621   7.953
 7613POPC   C4A34842  28.358  44.651   7.653
 7613POPC   C1B34843  28.347  44.881   8.553
 7613POPC   C2B34844  28.348  44.925   8.253
 7613POPC   C3B34845  28.276  44.863   7.953
 7613POPC   C4B34846  28.344  44.881   7.653
 7614POPC   NC334847  40.757  40.750   9.453
 7614POPC   PO434848  40.742  40.749   9.153
 7614POPC   GL134849  40.747  40.806   8.853
 7614POPC   GL234850  40.856  40.681   8.853
 7614POPC   C1A34851  40.734  40.762   8.553
 7614POPC   D2A34852  40.832  40.743   8.253
 7614POPC   C3A34853  40.743  40.768   7.953
 7614POPC   C4A34854  40.828  40.810   7.653
 7614POPC   C1B34855  40.930  40.565   8.553
 7614POPC   C2B34856  40.955  40.593   8.253
 7614POPC   C3B34857  40.957  40.580   7.953
 7614POPC   C4B34858  40.892  40.598   7.653
 7615POPC   NC334859  39.194   8.227   9.453
 7615POPC   PO434860  39.236   8.209   9.153
 7615POPC   GL134861  39.235   8.245   8.853
 7615POPC   GL234862  39.390   8.260   8.853
 7615POPC   C1A34863  39.231   8.168   8.553
 7615POPC   D2A34864  39.250   8.221   8.253
 7615POPC   C3A34865  39.208   8.220   7.953
 7615POPC   C4A34866  39.196   8.235   7.653
 7615POPC   C1B34867  39.422   8.303   8.553
 7615POPC   C2B34868  39.450   8.326   8.253
 7615POPC   C3B34869  39.463   8.242   7.953
 7615POPC   C4B34870  39.417   8.289   7.653
 7616POPC   NC334871  10.562  13.595   9.453
 7616POPC   PO434872  10.546  13.581   9.153
 7616POPC   GL134873  10.504  13.665   8.853
 7616POPC   GL234874  10.494  13.535   8.853
 7616POPC   C1A34875  10.565  13.673   8.553
 7616POPC   D2A34876  10.491  13.659   8.253
 7616POPC   C3A34877  10.505  13.630   7.953
 7616POPC   C4A34878  10.542  13.639   7.653
 7616POPC   C1B34879  10.367  13.372   8.553
 7616POPC   C2B34880  10.395  13.436   8.253
 7616POPC   C3B34881  10.385  13.370   7.953
 7616POPC   C4B34882  10.358  13.406   7.653
 7617POPC   NC334883   8.998   0.465   9.453
 7617POPC   PO434884   8.930   0.459   9.153
 7617POPC   GL134885   9.022   0.402   8.853
 7617POPC   GL234886   8.976   0.567   8.853
 7617POPC   C1A34887   8.928   0.435   8.553
 7617POPC   D2A34888   8.949   0.456   8.253
 7617POPC   C3A34889   8.980   0.481   7.953
 7617POPC   C4A34890   8.946   0.427   7.653
 7617POPC   C1B34891   8.880   0.684   8.553
 7617POPC   C2B34892   8.919   0.718   8.253
 7617POPC   C3B34893   8.914   0.691   7.953
 7617POPC   C4B34894   8.923   0.669   7.653
 7618POPC   NC334895  27.617   1.974   9.453
 7618POPC   PO434896  27.623   1.978   9.153
 7618POPC   GL134897  27.556   1.943   8.853
 7618POPC   GL234898  27.738   2.087   8.853
 7618POPC   C1A34899  27.612   1.941   8.553
 7618POPC   D2A34900  27.642   2.031   8.253
 7618POPC   C3A34901  27.545   2.000   7.953
 7618POPC   C4A34902  27.600   1.982   7.653
 7618POPC   C1B34903  27.816   2.077   8.553
 7618POPC   C2B34904  27.794   2.067   8.253
 7618POPC   C3B34905  27.807   2.144   7.953
 7618POPC   C4B34906  27.857   2.063   7.653
 7619POPC   NC334907   8.156  10.509   9.453
 7619POPC   PO434908   8.241  10.504   9.153
 7619POPC   GL134909   8.150  10.552   8.853
 7619POPC   GL234910   8.075  10.601   8.853
 7619POPC   C1A34911   8.210  10.531   8.553
 7619POPC   D2A34912   8.238  10.548   8.253
 7619POPC   C3A34913   8.243  10.532   7.953
 7619POPC   C4A34914   8.231  10.488   7.653
 7619POPC   C1B34915   7.910  10.537   8.553
 7619POPC   C2B34916   7.964  10.610   8.253
 7619POPC   C3B34917   7.927  10.579   7.953
 7619POPC   C4B34918   7.987  10.531   7.653
 7620POPC   NC334919  12.061  20.660   9.453
 7620POPC   PO434920  12.066  20.596   9.153
 7620POPC   GL134921  12.112  20.596   8.853
 7620POPC   GL234922  11.984  20.750   8.853
 7620POPC   C1A34923  12.065  20.565   8.553
 7620POPC   D2A34924  12.041  20.622   8.253
 7620POPC   C3A34925  12.112  20.564   7.953
 7620POPC   C4A34926  12.074  20.607   7.653
 7620POPC   C1B34927  11.978  20.786   8.553
 7620POPC   C2B34928  11.903  20.787   8.253
 7620POPC   C3B34929  11.928  20.795   7.953
 7620POPC   C4B34930  11.984  20.800   7.653
 7621POPC   NC334931  27.587   9.717   9.453
 7621POPC   PO434932  27.552   9.760   9.153
 7621POPC   GL134933  27.546   9.761   8.853
 7621POPC   GL234934  27.725   9.793   8.853
 7621POPC   C1A34935  27.594   9.757   8.553
 7621POPC   D2A34936  27.614   9.770   8.253
 7621POPC   C3A34937  27.545   9.726   7.953
 7621POPC   C4A34938  27.634   9.738   7.653
 7621POPC   C1B34939  27.773   9.942   8.553
 7621POPC   C2B34940  27.769   9.973   8.253
 7621POPC   C3B34941  27.778   9.917   7.953
 7621POPC   C4B34942  27.798   9.916   7.653
 7622POPC   NC334943  36.113  23.746   9.453
 7622POPC   PO434944  36.084  23.705   9.153
 7622POPC   GL134945  36.116  23.677   8.853
 7622POPC   GL234946  36.209  23.679   8.853
 7622POPC   C1A34947  36.126  23.745   8.553
 7622POPC   D2A34948  36.119  23.705   8.253
 7622POPC   C3A34949  36.115  23.726   7.953
 7622POPC   C4A34950  36.114  23.730   7.653
 7622POPC   C1B34951  36.350  23.598   8.553
 7622POPC   C2B34952  36.332  23.620   8.253
 7622POPC   C3B34953  36.382  23.564   7.953
 7622POPC   C4B34954  36.365  23.575   7.653
 7623POPC   NC334955  12.868  15.162   9.453
 7623POPC   PO434956  12.865  15.170   9.153
 7623POPC   GL134957  12.855  15.206   8.853
 7623POPC   GL234958  12.686  15.144   8.853
 7623POPC   C1A34959  12.892  15.180   8.553
 7623POPC   D2A34960  12.887  15.202   8.253
 7623POPC   C3A34961  12.825  15.130   7.953
 7623POPC   C4A34962  12.887  15.164   7.653
 7623POPC   C1B34963  12.615  15.149   8.553
 7623POPC   C2B34964  12.650  15.150   8.253
 7623POPC   C3B34965  12.632  15.074   7.953
 7623POPC   C4B34966  12.624  15.159   7.653
 7624POPC   NC334967  44.627  33.794   9.453
 7624POPC   PO434968  44.631  33.843   9.153
 7624POPC   GL134969  44.706  33.782   8.853
 7624POPC   GL234970  44.804  33.792   8.853
 7624POPC   C1A34971  44.613  33.769   8.553
 7624POPC   D2A34972  44.665  33.810   8.253
 7624POPC   C3A34973  44.668  33.807   7.953
 7624POPC   C4A34974  44.618  33.826   7.653
 7624POPC   C1B34975  44.888  33.809   8.553
 7624POPC   C2B34976  44.959  33.833   8.253
 7624POPC   C3B34977  44.922  33.833   7.953
 7624POPC   C4B34978  44.921  33.736   7.653
 7625POPC   NC334979   7.384  30.667   9.453
 7625POPC   PO434980   7.426  30.727   9.153
 7625POPC   GL134981   7.468  30.738   8.853
 7625POPC   GL234982   7.481  30.801   8.853
 7625POPC   C1A34983   7.401  30.684   8.553
 7625POPC   D2A34984   7.463  30.708   8.253
 7625POPC   C3A34985   7.445  30.721   7.953
 7625POPC   C4A34986   7.392  30.649   7.653
 7625POPC   C1B34987   7.605  30.849   8.553
 7625POPC   C2B34988   7.593  30.897   8.253
 7625POPC   C3B34989   7.569  30.905   7.953
 7625POPC   C4B34990   7.647  30.820   7.653
 7626POPC   NC334991   7.470  33.809   9.453
 7626POPC   PO434992   7.449  33.817   9.153
 7626POPC   GL134993   7.434  33.799   8.853
 7626POPC   GL234994   7.526  33.697   8.853
 7626POPC   C1A34995   7.454  33.780   8.553
 7626POPC   D2A34996   7.466  33.848   8.253
 7626POPC   C3A34997   7.372  33.766   7.953
 7626POPC   C4A34998   7.445  33.751   7.653
 7626POPC   C1B34999   7.543  33.561   8.553
 7626POPC   C2B35000   7.576  33.622   8.253
 7626POPC   C3B35001   7.604  33.573   7.953
 7626POPC   C4B35002   7.563  33.584   7.653
 7627POPC   NC335003  33.780  13.630   9.453
 7627POPC   PO435004  33.846  13.641   9.153
 7627POPC   GL135005  33.809  13.580   8.853
 7627POPC   GL235006  33.794  13.772   8.853
 7627POPC   C1A35007  33.754  13.583   8.553
 7627POPC   D2A35008  33.848  13.590   8.253
 7627POPC   C3A35009  33.754  13.658   7.953
 7627POPC   C4A35010  33.797  13.668   7.653
 7627POPC   C1B35011  33.865  13.894   8.553
 7627POPC   C2B35012  33.798  13.839   8.253
 7627POPC   C3B35013  33.850  13.881   7.953
 7627POPC   C4B35014  33.872  13.858   7.653
 7628POPC   NC335015  18.257  36.943   9.453
 7628POPC   PO435016  18.316  36.867   9.153
 7628POPC   GL135017  18.265  36.923   8.853
 7628POPC   GL235018  18.183  36.931   8.853
 7628POPC   C1A35019  18.271  36.916   8.553
 7628POPC   D2A35020  18.271  36.866   8.253
 7628POPC   C3A35021  18.245  36.908   7.953
 7628POPC   C4A35022  18.330  36.856   7.653
 7628POPC   C1B35023  18.040  36.988   8.553
 7628POPC   C2B35024  18.070  37.006   8.253
 7628POPC   C3B35025  18.051  36.990   7.953
 7628POPC   C4B35026  18.055  36.967   7.653
 7629POPC   NC335027  32.234  12.885   9.453
 7629POPC   PO435028  32.222  12.833   9.153
 7629POPC   GL135029  32.209  12.900   8.853
 7629POPC   GL235030  32.161  13.002   8.853
 7629POPC   C1A35031  32.242  12.874   8.553
 7629POPC   D2A35032  32.216  12.845   8.253
 7629POPC   C3A35033  32.260  12.825   7.953
 7629POPC   C4A35034  32.269  12.899   7.653
 7629POPC   C1B35035  32.147  13.068   8.553
 7629POPC   C2B35036  32.174  13.131   8.253
 7629POPC   C3B35037  32.168  13.060   7.953
 7629POPC   C4B35038  32.139  13.106   7.653
 7630POPC   NC335039  35.336  12.829   9.453
 7630POPC   PO435040  35.374  12.869   9.153
 7630POPC   GL135041  35.306  12.863   8.853
 7630POPC   GL235042  35.250  12.735   8.853
 7630POPC   C1A35043  35.364  12.872   8.553
 7630POPC   D2A35044  35.315  12.843   8.253
 7630POPC   C3A35045  35.305  12.862   7.953
 7630POPC   C4A35046  35.383  12.876   7.653
 7630POPC   C1B35047  35.111  12.704   8.553
 7630POPC   C2B35048  35.135  12.650   8.253
 7630POPC   C3B35049  35.120  12.694   7.953
 7630POPC   C4B35050  35.164  12.729   7.653
 7631POPC   NC335051   3.551  41.591   9.453
 7631POPC   PO435052   3.529  41.565   9.153
 7631POPC   GL135053   3.582  41.544   8.853
 7631POPC   GL235054   3.612  41.614   8.853
 7631POPC   C1A35055   3.512  41.542   8.553
 7631POPC   D2A35056   3.505  41.541   8.253
 7631POPC   C3A35057   3.526  41.509   7.953
 7631POPC   C4A35058   3.538  41.536   7.653
 7631POPC   C1B35059   3.720  41.705   8.553
 7631POPC   C2B35060   3.735  41.733   8.253
 7631POPC   C3B35061   3.722  41.775   7.953
 7631POPC   C4B35062   3.726  41.728   7.653
 7632POPC   NC335063  36.159  43.903   9.453
 7632POPC   PO435064  36.138  43.922   9.153
 7632POPC   GL135065  36.143  43.892   8.853
 7632POPC   GL235066  36.281  43.904   8.853
 7632POPC   C1A35067  36.081  43.847   8.553
 7632POPC   D2A35068  36.080  43.916   8.253
 7632POPC   C3A35069  36.137  43.878   7.953
 7632POPC   C4A35070  36.095  43.896   7.653
 7632POPC   C1B35071  36.409  43.786   8.553
 7632POPC   C2B35072  36.391  43.875   8.253
 7632POPC   C3B35073  36.361  43.873   7.953
 7632POPC   C4B35074  36.362  43.871   7.653
 7633POPC   NC335075  33.048  41.580   9.453
 7633POPC   PO435076  32.987  41.516   9.153
 7633POPC   GL135077  33.072  41.525   8.853
 7633POPC   GL235078  33.090  41.484   8.853
 7633POPC   C1A35079  32.974  41.559   8.553
 7633POPC   D2A35080  33.057  41.560   8.253
 7633POPC   C3A35081  33.041  41.549   7.953
 7633POPC   C4A35082  33.028  41.585   7.653
 7633POPC   C1B35083  33.047  41.284   8.553
 7633POPC   C2B35084  33.071  41.314   8.253
 7633POPC   C3B35085  33.077  41.320   7.953
 7633POPC   C4B35086  33.090  41.277   7.653
 7634POPC   NC335087  17.534  43.076   9.453
 7634POPC   PO435088  17.525  43.104   9.153
 7634POPC   GL135089  17.529  43.134   8.853
 7634POPC   GL235090  17.553  43.167   8.853
 7634POPC   C1A35091  17.495  43.092   8.553
 7634POPC   D2A35092  17.517  43.106   8.253
 7634POPC   C3A35093  17.544  43.076   7.953
 7634POPC   C4A35094  17.479  43.147   7.653
 7634POPC   C1B35095  17.679  43.357   8.553
 7634POPC   C2B35096  17.679  43.358   8.253
 7634POPC   C3B35097  17.606  43.367   7.953
 7634POPC   C4B35098  17.648  43.308   7.653
 7635POPC   NC335099  33.784  24.519   9.453
 7635POPC   PO435100  33.828  24.448   9.153
 7635POPC   GL135101  33.835  24.513   8.853
 7635POPC   GL235102  33.666  24.437   8.853
 7635POPC   C1A35103  33.773  24.513   8.553
 7635POPC   D2A35104  33.760  24.513   8.253
 7635POPC   C3A35105  33.768  24.466   7.953
 7635POPC   C4A35106  33.842  24.447   7.653
 7635POPC   C1B35107  33.665  24.308   8.553
 7635POPC   C2B35108  33.665  24.305   8.253
 7635POPC   C3B35109  33.676  24.311   7.953
 7635POPC   C4B35110  33.649  24.320   7.653
 7636POPC   NC335111  14.389  40.020   9.453
 7636POPC   PO435112  14.401  40.033   9.153
 7636POPC   GL135113  14.437  40.019   8.853
 7636POPC   GL235114  14.259  39.895   8.853
 7636POPC   C1A35115  14.395  40.015   8.553
 7636POPC   D2A35116  14.436  40.019   8.253
 7636POPC   C3A35117  14.441  39.988   7.953
 7636POPC   C4A35118  14.407  39.965   7.653
 7636POPC   C1B35119  14.229  39.855   8.553
 7636POPC   C2B35120  14.195  39.862   8.253
 7636POPC   C3B35121  14.212  39.898   7.953
 7636POPC   C4B35122  14.217  39.897   7.653
 7637POPC   NC335123  29.928  34.623   9.453
 7637POPC   PO435124  29.969  34.595   9.153
 7637POPC   GL135125  29.924  34.623   8.853
 7637POPC   GL235126  29.818  34.521   8.853
 7637POPC   C1A35127  29.953  34.543   8.553
 7637POPC   D2A35128  29.969  34.603   8.253
 7637POPC   C3A35129  29.874  34.598   7.953
 7637POPC   C4A35130  29.871  34.554   7.653
 7637POPC   C1B35131  29.719  34.534   8.553
 7637POPC   C2B35132  29.721  34.479   8.253
 7637POPC   C3B35133  29.655  34.459   7.953
 7637POPC   C4B35134  29.639  34.490   7.653
 7638POPC   NC335135   5.082  20.643   9.453
 7638POPC   PO435136   5.103  20.592   9.153
 7638POPC   GL135137   5.076  20.646   8.853
 7638POPC   GL235138   5.087  20.532   8.853
 7638POPC   C1A35139   5.101  20.568   8.553
 7638POPC   D2A35140   5.053  20.564   8.253
 7638POPC   C3A35141   5.142  20.571   7.953
 7638POPC   C4A35142   5.074  20.583   7.653
 7638POPC   C1B35143   4.978  20.386   8.553
 7638POPC   C2B35144   5.019  20.332   8.253
 7638POPC   C3B35145   5.005  20.371   7.953
 7638POPC   C4B35146   4.972  20.378   7.653
 7639POPC   NC335147  11.295   2.745   9.453
 7639POPC   PO435148  11.308   2.814   9.153
 7639POPC   GL135149  11.253   2.738   8.853
 7639POPC   GL235150  11.307   2.605   8.853
 7639POPC   C1A35151  11.345   2.737   8.553
 7639POPC   D2A35152  11.322   2.792   8.253
 7639POPC   C3A35153  11.292   2.778   7.953
 7639POPC   C4A35154  11.324   2.796   7.653
 7639POPC   C1B35155  11.235   2.489   8.553
 7639POPC   C2B35156  11.256   2.532   8.253
 7639POPC   C3B35157  11.251   2.519   7.953
 7639POPC   C4B35158  11.278   2.559   7.653
 7640POPC   NC335159   0.467  11.335   9.453
 7640POPC   PO435160   0.404  11.300   9.153
 7640POPC   GL135161   0.432  11.287   8.853
 7640POPC   GL235162   0.431  11.163   8.853
 7640POPC   C1A35163   0.395  11.296   8.553
 7640POPC   D2A35164   0.393  11.286   8.253
 7640POPC   C3A35165   0.441  11.329   7.953
 7640POPC   C4A35166   0.411  11.333   7.653
 7640POPC   C1B35167   0.552  11.087   8.553
 7640POPC   C2B35168   0.543  11.025   8.253
 7640POPC   C3B35169   0.534  11.056   7.953
 7640POPC   C4B35170   0.554  11.100   7.653
 7641POPC   NC335171  43.910  24.522   9.453
 7641POPC   PO435172  43.881  24.513   9.153
 7641POPC   GL135173  43.876  24.527   8.853
 7641POPC   GL235174  43.901  24.627   8.853
 7641POPC   C1A35175  43.902  24.524   8.553
 7641POPC   D2A35176  43.908  24.500   8.253
 7641POPC   C3A35177  43.887  24.535   7.953
 7641POPC   C4A35178  43.895  24.482   7.653
 7641POPC   C1B35179  43.977  24.756   8.553
 7641POPC   C2B35180  43.920  24.744   8.253
 7641POPC   C3B35181  43.951  24.716   7.953
 7641POPC   C4B35182  43.931  24.687   7.653
 7642POPC   NC335183   3.577  31.457   9.453
 7642POPC   PO435184   3.553  31.489   9.153
 7642POPC   GL135185   3.561  31.427   8.853
 7642POPC   GL235186   3.597  31.589   8.853
 7642POPC   C1A35187   3.522  31.495   8.553
 7642POPC   D2A35188   3.517  31.447   8.253
 7642POPC   C3A35189   3.519  31.512   7.953
 7642POPC   C4A35190   3.540  31.451   7.653
 7642POPC   C1B35191   3.693  31.733   8.553
 7642POPC   C2B35192   3.624  31.666   8.253
 7642POPC   C3B35193   3.713  31.732   7.953
 7642POPC   C4B35194   3.623  31.691   7.653
 7643POPC   NC335195  30.694   8.997   9.453
 7643POPC   PO435196  30.706   9.014   9.153
 7643POPC   GL135197  30.668   8.941   8.853
 7643POPC   GL235198  30.648   8.827   8.853
 7643POPC   C1A35199  30.659   8.924   8.553
 7643POPC   D2A35200  30.725   8.988   8.253
 7643POPC   C3A35201  30.728   9.011   7.953
 7643POPC   C4A35202  30.668   8.932   7.653
 7643POPC   C1B35203  30.734   8.689   8.553
 7643POPC   C2B35204  30.728   8.691   8.253
 7643POPC   C3B35205  30.682   8.738   7.953
 7643POPC   C4B35206  30.694   8.710   7.653
 7644POPC   NC335207  43.871   5.048   9.453
 7644POPC   PO435208  43.866   5.101   9.153
 7644POPC   GL135209  43.903   5.080   8.853
 7644POPC   GL235210  43.960   5.192   8.853
 7644POPC   C1A35211  43.936   5.143   8.553
 7644POPC   D2A35212  43.846   5.091   8.253
 7644POPC   C3A35213  43.846   5.049   7.953
 7644POPC   C4A35214  43.886   5.079   7.653
 7644POPC   C1B35215  43.996   5.273   8.553
 7644POPC   C2B35216  44.054   5.272   8.253
 7644POPC   C3B35217  44.016   5.329   7.953
 7644POPC   C4B35218  43.997   5.315   7.653
 7645POPC   NC335219  14.431  30.682   9.453
 7645POPC   PO435220  14.400  30.731   9.153
 7645POPC   GL135221  14.444  30.679   8.853
 7645POPC   GL235222  14.317  30.788   8.853
 7645POPC   C1A35223  14.431  30.695   8.553
 7645POPC   D2A35224  14.428  30.682   8.253
 7645POPC   C3A35225  14.358  30.663   7.953
 7645POPC   C4A35226  14.396  30.695   7.653
 7645POPC   C1B35227  14.164  30.781   8.553
 7645POPC   C2B35228  14.162  30.837   8.253
 7645POPC   C3B35229  14.141  30.809   7.953
 7645POPC   C4B35230  14.169  30.847   7.653
 7646POPC   NC335231  16.763   1.242   9.453
 7646POPC   PO435232  16.734   1.226   9.153
 7646POPC   GL135233  16.711   1.166   8.853
 7646POPC   GL235234  16.599   1.298   8.853
 7646POPC   C1A35235  16.699   1.191   8.553
 7646POPC   D2A35236  16.721   1.229   8.253
 7646POPC   C3A35237  16.768   1.227   7.953
 7646POPC   C4A35238  16.766   1.186   7.653
 7646POPC   C1B35239  16.534   1.258   8.553
 7646POPC   C2B35240  16.456   1.258   8.253
 7646POPC   C3B35241  16.532   1.241   7.953
 7646POPC   C4B35242  16.535   1.285   7.653
 7647POPC   NC335243  14.415  41.551   9.453
 7647POPC   PO435244  14.440  41.574   9.153
 7647POPC   GL135245  14.420  41.594   8.853
 7647POPC   GL235246  14.497  41.451   8.853
 7647POPC   C1A35247  14.428  41.596   8.553
 7647POPC   D2A35248  14.439  41.543   8.253
 7647POPC   C3A35249  14.386  41.514   7.953
 7647POPC   C4A35250  14.363  41.553   7.653
 7647POPC   C1B35251  14.547  41.355   8.553
 7647POPC   C2B35252  14.616  41.386   8.253
 7647POPC   C3B35253  14.609  41.422   7.953
 7647POPC   C4B35254  14.582  41.359   7.653
 7648POPC   NC335255  11.299   5.856   9.453
 7648POPC   PO435256  11.328   5.828   9.153
 7648POPC   GL135257  11.292   5.879   8.853
 7648POPC   GL235258  11.367   5.775   8.853
 7648POPC   C1A35259  11.303   5.823   8.553
 7648POPC   D2A35260  11.258   5.832   8.253
 7648POPC   C3A35261  11.294   5.866   7.953
 7648POPC   C4A35262  11.323   5.841   7.653
 7648POPC   C1B35263  11.329   5.615   8.553
 7648POPC   C2B35264  11.346   5.611   8.253
 7648POPC   C3B35265  11.341   5.609   7.953
 7648POPC   C4B35266  11.353   5.672   7.653
 7649POPC   NC335267  15.936  34.581   9.453
 7649POPC   PO435268  15.967  34.596   9.153
 7649POPC   GL135269  15.946  34.559   8.853
 7649POPC   GL235270  15.976  34.688   8.853
 7649POPC   C1A35271  15.959  34.618   8.553
 7649POPC   D2A35272  15.996  34.613   8.253
 7649POPC   C3A35273  15.918  34.542   7.953
 7649POPC   C4A35274  15.958  34.537   7.653
 7649POPC   C1B35275  16.064  34.777   8.553
 7649POPC   C2B35276  16.001  34.851   8.253
 7649POPC   C3B35277  16.007  34.838   7.953
 7649POPC   C4B35278  16.005  34.842   7.653
 7650POPC   NC335279  18.284   8.153   9.453
 7650POPC   PO435280  18.256   8.165   9.153
 7650POPC   GL135281  18.285   8.197   8.853
 7650POPC   GL235282  18.217   8.312   8.853
 7650POPC   C1A35283  18.246   8.187   8.553
 7650POPC   D2A35284  18.269   8.216   8.253
 7650POPC   C3A35285  18.256   8.206   7.953
 7650POPC   C4A35286  18.307   8.200   7.653
 7650POPC   C1B35287  18.168   8.461   8.553
 7650POPC   C2B35288  18.177   8.385   8.253
 7650POPC   C3B35289  18.199   8.456   7.953
 7650POPC   C4B35290  18.236   8.385   7.653
 7651POPC   NC335291  37.644  21.435   9.453
 7651POPC   PO435292  37.666  21.356   9.153
 7651POPC   GL135293  37.691  21.431   8.853
 7651POPC   GL235294  37.552  21.353   8.853
 7651POPC   C1A35295  37.684  21.341   8.553
 7651POPC   D2A35296  37.689  21.350   8.253
 7651POPC   C3A35297  37.704  21.385   7.953
 7651POPC   C4A35298  37.649  21.430   7.653
 7651POPC   C1B35299  37.409  21.440   8.553
 7651POPC   C2B35300  37.396  21.392   8.253
 7651POPC   C3B35301  37.389  21.372   7.953
 7651POPC   C4B35302  37.448  21.407   7.653
 7652POPC   NC335303  19.091  26.028   9.453
 7652POPC   PO435304  19.072  26.073   9.153
 7652POPC   GL135305  19.085  26.043   8.853
 7652POPC   GL235306  19.201  26.092   8.853
 7652POPC   C1A35307  19.059  25.992   8.553
 7652POPC   D2A35308  19.037  25.993   8.253
 7652POPC   C3A35309  19.067  25.994   7.953
 7652POPC   C4A35310  19.022  26.055   7.653
 7652POPC   C1B35311  19.302  26.222   8.553
 7652POPC   C2B35312  19.272  26.129   8.253
 7652POPC   C3B35313  19.282  26.166   7.953
 7652POPC   C4B35314  19.298  26.165   7.653
 7653POPC   NC335315  20.642  43.904   9.453
 7653POPC   PO435316  20.604  43.871   9.153
 7653POPC   GL135317  20.595  43.854   8.853
 7653POPC   GL235318  20.567  43.761   8.853
 7653POPC   C1A35319  20.561  43.841   8.553
 7653POPC   D2A35320  20.574  43.912   8.253
 7653POPC   C3A35321  20.585  43.923   7.953
 7653POPC   C4A35322  20.578  43.838   7.653
 7653POPC   C1B35323  20.487  43.686   8.553
 7653POPC   C2B35324  20.435  43.672   8.253
 7653POPC   C3B35325  20.452  43.647   7.953
 7653POPC   C4B35326  20.488  43.693   7.653
 7654POPC   NC335327  25.260  39.211   9.453
 7654POPC   PO435328  25.245  39.268   9.153
 7654POPC   GL135329  25.217  39.251   8.853
 7654POPC   GL235330  25.152  39.321   8.853
 7654POPC   C1A35331  25.261  39.184   8.553
 7654POPC   D2A35332  25.265  39.270   8.253
 7654POPC   C3A35333  25.294  39.269   7.953
 7654POPC   C4A35334  25.268  39.192   7.653
 7654POPC   C1B35335  25.053  39.434   8.553
 7654POPC   C2B35336  25.086  39.368   8.253
 7654POPC   C3B35337  25.118  39.372   7.953
 7654POPC   C4B35338  25.086  39.376   7.653
 7655POPC   NC335339  36.860  12.839   9.453
 7655POPC   PO435340  36.917  12.895   9.153
 7655POPC   GL135341  36.872  12.893   8.853
 7655POPC   GL235342  36.878  12.989   8.853
 7655POPC   C1A35343  36.922  12.886   8.553
 7655POPC   D2A35344  36.944  12.816   8.253
 7655POPC   C3A35345  36.855  12.831   7.953
 7655POPC   C4A35346  36.948  12.835   7.653
 7655POPC   C1B35347  36.839  13.065   8.553
 7655POPC   C2B35348  36.840  13.056   8.253
 7655POPC   C3B35349  36.795  13.051   7.953
 7655POPC   C4B35350  36.848  13.049   7.653
 7656POPC   NC335351  28.380  33.067   9.453
 7656POPC   PO435352  28.364  33.055   9.153
 7656POPC   GL135353  28.412  32.981   8.853
 7656POPC   GL235354  28.423  32.878   8.853
 7656POPC   C1A35355  28.397  33.028   8.553
 7656POPC   D2A35356  28.370  33.065   8.253
 7656POPC   C3A35357  28.378  33.019   7.953
 7656POPC   C4A35358  28.363  33.070   7.653
 7656POPC   C1B35359  28.426  32.812   8.553
 7656POPC   C2B35360  28.446  32.764   8.253
 7656POPC   C3B35361  28.516  32.836   7.953
 7656POPC   C4B35362  28.471  32.788   7.653
 7657POPC   NC335363  29.914  28.334   9.453
 7657POPC   PO435364  29.946  28.402   9.153
 7657POPC   GL135365  29.896  28.365   8.853
 7657POPC   GL235366  30.064  28.430   8.853
 7657POPC   C1A35367  29.965  28.395   8.553
 7657POPC   D2A35368  29.967  28.362   8.253
 7657POPC   C3A35369  29.960  28.349   7.953
 7657POPC   C4A35370  29.933  28.391   7.653
 7657POPC   C1B35371  30.117  28.412   8.553
 7657POPC   C2B35372  30.128  28.429   8.253
 7657POPC   C3B35373  30.159  28.460   7.953
 7657POPC   C4B35374  30.178  28.419   7.653
 7658POPC   NC335375   2.811  18.262   9.453
 7658POPC   PO435376   2.766  18.318   9.153
 7658POPC   GL135377   2.717  18.306   8.853
 7658POPC   GL235378   2.673  18.311   8.853
 7658POPC   C1A35379   2.740  18.310   8.553
 7658POPC   D2A35380   2.814  18.267   8.253
 7658POPC   C3A35381   2.776  18.284   7.953
 7658POPC   C4A35382   2.737  18.285   7.653
 7658POPC   C1B35383   2.579  18.416   8.553
 7658POPC   C2B35384   2.490  18.363   8.253
 7658POPC   C3B35385   2.503  18.399   7.953
 7658POPC   C4B35386   2.532  18.417   7.653
 7659POPC   NC335387  27.594  29.898   9.453
 7659POPC   PO435388  27.636  29.874   9.153
 7659POPC   GL135389  27.578  29.891   8.853
 7659POPC   GL235390  27.656  29.991   8.853
 7659POPC   C1A35391  27.563  29.909   8.553
 7659POPC   D2A35392  27.570  29.945   8.253
 7659POPC   C3A35393  27.630  29.943   7.953
 7659POPC   C4A35394  27.623  29.945   7.653
 7659POPC   C1B35395  27.714  30.094   8.553
 7659POPC   C2B35396  27.739  30.113   8.253
 7659POPC   C3B35397  27.720  30.109   7.953
 7659POPC   C4B35398  27.768  30.105   7.653
 7660POPC   NC335399   1.251  39.220   9.453
 7660POPC   PO435400   1.235  39.278   9.153
 7660POPC   GL135401   1.190  39.245   8.853
 7660POPC   GL235402   1.320  39.182   8.853
 7660POPC   C1A35403   1.254  39.248   8.553
 7660POPC   D2A35404   1.235  39.250   8.253
 7660POPC   C3A35405   1.206  39.233   7.953
 7660POPC   C4A35406   1.224  39.244   7.653
 7660POPC   C1B35407   1.471  39.112   8.553
 7660POPC   C2B35408   1.437  39.104   8.253
 7660POPC   C3B35409   1.451  39.172   7.953
 7660POPC   C4B35410   1.426  39.118   7.653
 7661POPC   NC335411  31.477  23.737   9.453
 7661POPC   PO435412  31.508  23.684   9.153
 7661POPC   GL135413  31.512  23.726   8.853
 7661POPC   GL235414  31.497  23.604   8.853
 7661POPC   C1A35415  31.483  23.732   8.553
 7661POPC   D2A35416  31.493  23.674   8.253
 7661POPC   C3A35417  31.448  23.701   7.953
 7661POPC   C4A35418  31.447  23.752   7.653
 7661POPC   C1B35419  31.534  23.479   8.553
 7661POPC   C2B35420  31.520  23.447   8.253
 7661POPC   C3B35421  31.572  23.437   7.953
 7661POPC   C4B35422  31.505  23.465   7.653
 7662POPC   NC335423  27.554  12.081   9.453
 7662POPC   PO435424  27.606  12.121   9.153
 7662POPC   GL135425  27.618  12.107   8.853
 7662POPC   GL235426  27.761  12.095   8.853
 7662POPC   C1A35427  27.640  12.046   8.553
 7662POPC   D2A35428  27.568  12.116   8.253
 7662POPC   C3A35429  27.595  12.115   7.953
 7662POPC   C4A35430  27.635  12.050   7.653
 7662POPC   C1B35431  27.800  12.185   8.553
 7662POPC   C2B35432  27.830  12.153   8.253
 7662POPC   C3B35433  27.823  12.151   7.953
 7662POPC   C4B35434  27.831  12.126   7.653
 7663POPC   NC335435  40.790  43.146   9.453
 7663POPC   PO435436  40.737  43.111   9.153
 7663POPC   GL135437  40.826  43.114   8.853
 7663POPC   GL235438  40.617  43.105   8.853
 7663POPC   C1A35439  40.808  43.082   8.553
 7663POPC   D2A35440  40.737  43.069   8.253
 7663POPC   C3A35441  40.791  43.155   7.953
 7663POPC   C4A35442  40.826  43.074   7.653
 7663POPC   C1B35443  40.535  43.128   8.553
 7663POPC   C2B35444  40.580  43.197   8.253
 7663POPC   C3B35445  40.504  43.121   7.953
 7663POPC   C4B35446  40.520  43.166   7.653
 7664POPC   NC335447  39.220   3.498   9.453
 7664POPC   PO435448  39.227   3.538   9.153
 7664POPC   GL135449  39.190   3.494   8.853
 7664POPC   GL235450  39.124   3.410   8.853
 7664POPC   C1A35451  39.262   3.497   8.553
 7664POPC   D2A35452  39.211   3.548   8.253
 7664POPC   C3A35453  39.200   3.529   7.953
 7664POPC   C4A35454  39.198   3.507   7.653
 7664POPC   C1B35455  39.096   3.332   8.553
 7664POPC   C2B35456  39.057   3.399   8.253
 7664POPC   C3B35457  39.054   3.388   7.953
 7664POPC   C4B35458  39.098   3.379   7.653
 7665POPC   NC335459  36.903  22.929   9.453
 7665POPC   PO435460  36.953  22.931   9.153
 7665POPC   GL135461  36.877  22.971   8.853
 7665POPC   GL235462  36.775  23.059   8.853
 7665POPC   C1A35463  36.892  22.913   8.553
 7665POPC   D2A35464  36.925  22.904   8.253
 7665POPC   C3A35465  36.859  22.890   7.953
 7665POPC   C4A35466  36.935  22.956   7.653
 7665POPC   C1B35467  36.709  23.085   8.553
 7665POPC   C2B35468  36.676  23.069   8.253
 7665POPC   C3B35469  36.771  23.089   7.953
 7665POPC   C4B35470  36.719  23.141   7.653
 7666POPC   NC335471  43.897   5.819   9.453
 7666POPC   PO435472  43.879   5.870   9.153
 7666POPC   GL135473  43.839   5.851   8.853
 7666POPC   GL235474  43.800   5.835   8.853
 7666POPC   C1A35475  43.932   5.890   8.553
 7666POPC   D2A35476  43.908   5.912   8.253
 7666POPC   C3A35477  43.862   5.861   7.953
 7666POPC   C4A35478  43.896   5.882   7.653
 7666POPC   C1B35479  43.654   5.762   8.553
 7666POPC   C2B35480  43.633   5.785   8.253
 7666POPC   C3B35481  43.698   5.738   7.953
 7666POPC   C4B35482  43.657   5.789   7.653
 7667POPC   NC335483   2.776   2.039   9.453
 7667POPC   PO435484   2.775   1.976   9.153
 7667POPC   GL135485   2.744   2.033   8.853
 7667POPC   GL235486   2.633   1.942   8.853
 7667POPC   C1A35487   2.803   2.034   8.553
 7667POPC   D2A35488   2.761   1.963   8.253
 7667POPC   C3A35489   2.791   1.997   7.953
 7667POPC   C4A35490   2.801   1.974   7.653
 7667POPC   C1B35491   2.512   1.890   8.553
 7667POPC   C2B35492   2.528   1.956   8.253
 7667POPC   C3B35493   2.478   1.878   7.953
 7667POPC   C4B35494   2.557   1.903   7.653
 7668POPC   NC335495  29.163  15.951   9.453
 7668POPC   PO435496  29.133  15.923   9.153
 7668POPC   GL135497  29.176  15.982   8.853
 7668POPC   GL235498  29.122  16.104   8.853
 7668POPC   C1A35499  29.169  15.926   8.553
 7668POPC   D2A35500  29.138  15.984   8.253
 7668POPC   C3A35501  29.157  15.972   7.953
 7668POPC   C4A35502  29.103  15.973   7.653
 7668POPC   C1B35503  29.179  16.172   8.553
 7668POPC   C2B35504  29.176  16.194   8.253
 7668POPC   C3B35505  29.170  16.213   7.953
 7668POPC   C4B35506  29.158  16.228   7.653
 7669POPC   NC335507   0.475  15.980   9.453
 7669POPC   PO435508   0.414  15.925   9.153
 7669POPC   GL135509   0.410  15.938   8.853
 7669POPC   GL235510   0.392  16.024   8.853
 7669POPC   C1A35511   0.410  15.939   8.553
 7669POPC   D2A35512   0.455  15.997   8.253
 7669POPC   C3A35513   0.449  15.909   7.953
 7669POPC   C4A35514   0.431  15.960   7.653
 7669POPC   C1B35515   0.320  16.222   8.553
 7669POPC   C2B35516   0.358  16.160   8.253
 7669POPC   C3B35517   0.324  16.169   7.953
 7669POPC   C4B35518   0.354  16.152   7.653
 7670POPC   NC335519   3.572  42.327   9.453
 7670POPC   PO435520   3.580  42.307   9.153
 7670POPC   GL135521   3.549  42.292   8.853
 7670POPC   GL235522   3.572  42.181   8.853
 7670POPC   C1A35523   3.574  42.312   8.553
 7670POPC   D2A35524   3.518  42.373   8.253
 7670POPC   C3A35525   3.496  42.345   7.953
 7670POPC   C4A35526   3.553  42.377   7.653
 7670POPC   C1B35527   3.711  42.158   8.553
 7670POPC   C2B35528   3.684  42.083   8.253
 7670POPC   C3B35529   3.688  42.152   7.953
 7670POPC   C4B35530   3.653  42.077   7.653
 7671POPC   NC335531  29.137   0.430   9.453
 7671POPC   PO435532  29.149   0.443   9.153
 7671POPC   GL135533  29.156   0.446   8.853
 7671POPC   GL235534  29.236   0.557   8.853
 7671POPC   C1A35535  29.188   0.410   8.553
 7671POPC   D2A35536  29.135   0.409   8.253
 7671POPC   C3A35537  29.142   0.439   7.953
 7671POPC   C4A35538  29.123   0.461   7.653
 7671POPC   C1B35539  29.256   0.686   8.553
 7671POPC   C2B35540  29.215   0.674   8.253
 7671POPC   C3B35541  29.302   0.627   7.953
 7671POPC   C4B35542  29.218   0.688   7.653
 7672POPC   NC335543  34.600  26.055   9.453
 7672POPC   PO435544  34.549  26.062   9.153
 7672POPC   GL135545  34.625  26.006   8.853
 7672POPC   GL235546  34.553  25.945   8.853
 7672POPC   C1A35547  34.560  26.071   8.553
 7672POPC   D2A35548  34.605  25.993   8.253
 7672POPC   C3A35549  34.591  26.071   7.953
 7672POPC   C4A35550  34.553  26.071   7.653
 7672POPC   C1B35551  34.646  25.839   8.553
 7672POPC   C2B35552  34.577  25.783   8.253
 7672POPC   C3B35553  34.652  25.771   7.953
 7672POPC   C4B35554  34.585  25.833   7.653
 7673POPC   NC335555  24.497  15.910   9.453
 7673POPC   PO435556  24.527  15.955   9.153
 7673POPC   GL135557  24.506  15.940   8.853
 7673POPC   GL235558  24.390  15.941   8.853
 7673POPC   C1A35559  24.488  15.957   8.553
 7673POPC   D2A35560  24.517  15.937   8.253
 7673POPC   C3A35561  24.483  15.939   7.953
 7673POPC   C4A35562  24.451  15.983   7.653
 7673POPC   C1B35563  24.265  15.851   8.553
 7673POPC   C2B35564  24.287  15.865   8.253
 7673POPC   C3B35565  24.205  15.909   7.953
 7673POPC   C4B35566  24.293  15.856   7.653
 7674POPC   NC335567  13.676  15.212   9.453
 7674POPC   PO435568  13.677  15.199   9.153
 7674POPC   GL135569  13.590  15.199   8.853
 7674POPC   GL235570  13.714  15.272   8.853
 7674POPC   C1A35571  13.661  15.185   8.553
 7674POPC   D2A35572  13.591  15.183   8.253
 7674POPC   C3A35573  13.644  15.217   7.953
 7674POPC   C4A35574  13.589  15.134   7.653
 7674POPC   C1B35575  13.754  15.445   8.553
 7674POPC   C2B35576  13.787  15.398   8.253
 7674POPC   C3B35577  13.719  15.377   7.953
 7674POPC   C4B35578  13.700  15.389   7.653
 7675POPC   NC335579  19.037  25.285   9.453
 7675POPC   PO435580  19.085  25.247   9.153
 7675POPC   GL135581  19.073  25.223   8.853
 7675POPC   GL235582  19.133  25.298   8.853
 7675POPC   C1A35583  19.075  25.266   8.553
 7675POPC   D2A35584  19.013  25.312   8.253
 7675POPC   C3A35585  19.067  25.251   7.953
 7675POPC   C4A35586  19.024  25.228   7.653
 7675POPC   C1B35587  19.354  25.265   8.553
 7675POPC   C2B35588  19.257  25.339   8.253
 7675POPC   C3B35589  19.318  25.303   7.953
 7675POPC   C4B35590  19.260  25.302   7.653
 7676POPC   NC335591  29.941  17.477   9.453
 7676POPC   PO435592  29.896  17.491   9.153
 7676POPC   GL135593  29.912  17.518   8.853
 7676POPC   GL235594  29.884  17.410   8.853
 7676POPC   C1A35595  29.874  17.476   8.553
 7676POPC   D2A35596  29.878  17.534   8.253
 7676POPC   C3A35597  29.934  17.547   7.953
 7676POPC   C4A35598  29.961  17.546   7.653
 7676POPC   C1B35599  29.880  17.264   8.553
 7676POPC   C2B35600  29.952  17.240   8.253
 7676POPC   C3B35601  29.873  17.211   7.953
 7676POPC   C4B35602  29.873  17.244   7.653
 7677POPC   NC335603   5.829  27.553   9.453
 7677POPC   PO435604   5.828  27.575   9.153
 7677POPC   GL135605   5.842  27.620   8.853
 7677POPC   GL235606   5.968  27.518   8.853
 7677POPC   C1A35607   5.821  27.561   8.553
 7677POPC   D2A35608   5.917  27.643   8.253
 7677POPC   C3A35609   5.887  27.641   7.953
 7677POPC   C4A35610   5.894  27.564   7.653
 7677POPC   C1B35611   6.080  27.576   8.553
 7677POPC   C2B35612   6.138  27.584   8.253
 7677POPC   C3B35613   6.151  27.563   7.953
 7677POPC   C4B35614   6.081  27.529   7.653
 7678POPC   NC335615  37.654   0.429   9.453
 7678POPC   PO435616  37.634   0.485   9.153
 7678POPC   GL135617  37.641   0.421   8.853
 7678POPC   GL235618  37.565   0.447   8.853
 7678POPC   C1A35619  37.646   0.405   8.553
 7678POPC   D2A35620  37.697   0.462   8.253
 7678POPC   C3A35621  37.670   0.457   7.953
 7678POPC   C4A35622  37.654   0.401   7.653
 7678POPC   C1B35623  37.401   0.456   8.553
 7678POPC   C2B35624  37.468   0.471   8.253
 7678POPC   C3B35625  37.440   0.468   7.953
 7678POPC   C4B35626  37.381   0.401   7.653
 7679POPC   NC335627   6.605  42.307   9.453
 7679POPC   PO435628   6.607  42.301   9.153
 7679POPC   GL135629   6.616  42.361   8.853
 7679POPC   GL235630   6.625  42.460   8.853
 7679POPC   C1A35631   6.601  42.307   8.553
 7679POPC   D2A35632   6.686  42.288   8.253
 7679POPC   C3A35633   6.652  42.344   7.953
 7679POPC   C4A35634   6.631  42.310   7.653
 7679POPC   C1B35635   6.728  42.543   8.553
 7679POPC   C2B35636   6.651  42.596   8.253
 7679POPC   C3B35637   6.653  42.598   7.953
 7679POPC   C4B35638   6.661  42.574   7.653
 7680POPC   NC335639  10.564  26.820   9.453
 7680POPC   PO435640  10.495  26.773   9.153
 7680POPC   GL135641  10.571  26.777   8.853
 7680POPC   GL235642  10.678  26.840   8.853
 7680POPC   C1A35643  10.554  26.861   8.553
 7680POPC   D2A35644  10.560  26.797   8.253
 7680POPC   C3A35645  10.547  26.856   7.953
 7680POPC   C4A35646  10.487  26.785   7.653
 7680POPC   C1B35647  10.738  26.886   8.553
 7680POPC   C2B35648  10.794  26.931   8.253
 7680POPC   C3B35649  10.776  26.873   7.953
 7680POPC   C4B35650  10.757  26.939   7.653
 7681POPC   NC335651  19.045  26.816   9.453
 7681POPC   PO435652  19.077  26.805   9.153
 7681POPC   GL135653  19.046  26.782   8.853
 7681POPC   GL235654  19.170  26.911   8.853
 7681POPC   C1A35655  19.061  26.842   8.553
 7681POPC   D2A35656  19.051  26.804   8.253
 7681POPC   C3A35657  19.102  26.800   7.953
 7681POPC   C4A35658  19.025  26.866   7.653
 7681POPC   C1B35659  19.289  26.899   8.553
 7681POPC   C2B35660  19.338  26.864   8.253
 7681POPC   C3B35661  19.334  26.878   7.953
 7681POPC   C4B35662  19.324  26.935   7.653
 7682POPC   NC335663   9.791  30.670   9.453
 7682POPC   PO435664   9.713  30.699   9.153
 7682POPC   GL135665   9.757  30.730   8.853
 7682POPC   GL235666   9.764  30.851   8.853
 7682POPC   C1A35667   9.787  30.670   8.553
 7682POPC   D2A35668   9.700  30.714   8.253
 7682POPC   C3A35669   9.781  30.740   7.953
 7682POPC   C4A35670   9.779  30.718   7.653
 7682POPC   C1B35671   9.762  30.900   8.553
 7682POPC   C2B35672   9.846  30.953   8.253
 7682POPC   C3B35673   9.843  30.945   7.953
 7682POPC   C4B35674   9.839  30.987   7.653
 7683POPC   NC335675  12.829   1.189   9.453
 7683POPC   PO435676  12.877   1.223   9.153
 7683POPC   GL135677  12.824   1.218   8.853
 7683POPC   GL235678  12.778   1.306   8.853
 7683POPC   C1A35679  12.864   1.185   8.553
 7683POPC   D2A35680  12.886   1.166   8.253
 7683POPC   C3A35681  12.898   1.208   7.953
 7683POPC   C4A35682  12.823   1.258   7.653
 7683POPC   C1B35683  12.593   1.340   8.553
 7683POPC   C2B35684  12.595   1.346   8.253
 7683POPC   C3B35685  12.591   1.350   7.953
 7683POPC   C4B35686  12.664   1.351   7.653
 7684POPC   NC335687  17.466   9.735   9.453
 7684POPC   PO435688  17.523   9.721   9.153
 7684POPC   GL135689  17.484   9.706   8.853
 7684POPC   GL235690  17.472   9.855   8.853
 7684POPC   C1A35691  17.480   9.720   8.553
 7684POPC   D2A35692  17.490   9.703   8.253
 7684POPC   C3A35693  17.486   9.786   7.953
 7684POPC   C4A35694  17.516   9.718   7.653
 7684POPC   C1B35695  17.391   9.956   8.553
 7684POPC   C2B35696  17.400  10.001   8.253
 7684POPC   C3B35697  17.387   9.986   7.953
 7684POPC   C4B35698  17.365  10.017   7.653
 7685POPC   NC335699   6.664  43.893   9.453
 7685POPC   PO435700   6.674  43.914   9.153
 7685POPC   GL135701   6.596  43.863   8.853
 7685POPC   GL235702   6.489  43.823   8.853
 7685POPC   C1A35703   6.610  43.839   8.553
 7685POPC   D2A35704   6.676  43.904   8.253
 7685POPC   C3A35705   6.665  43.916   7.953
 7685POPC   C4A35706   6.600  43.837   7.653
 7685POPC   C1B35707   6.390  43.870   8.553
 7685POPC   C2B35708   6.395  43.853   8.253
 7685POPC   C3B35709   6.419  43.885   7.953
 7685POPC   C4B35710   6.381  43.884   7.653
 7686POPC   NC335711  31.440  28.373   9.453
 7686POPC   PO435712  31.433  28.330   9.153
 7686POPC   GL135713  31.500  28.399   8.853
 7686POPC   GL235714  31.471  28.462   8.853
 7686POPC   C1A35715  31.448  28.380   8.553
 7686POPC   D2A35716  31.509  28.386   8.253
 7686POPC   C3A35717  31.457  28.329   7.953
 7686POPC   C4A35718  31.462  28.350   7.653
 7686POPC   C1B35719  31.385  28.585   8.553
 7686POPC   C2B35720  31.452  28.570   8.253
 7686POPC   C3B35721  31.366  28.574   7.953
 7686POPC   C4B35722  31.422  28.620   7.653
 7687POPC   NC335723  17.540  29.916   9.453
 7687POPC   PO435724  17.519  29.963   9.153
 7687POPC   GL135725  17.517  29.901   8.853
 7687POPC   GL235726  17.369  29.873   8.853
 7687POPC   C1A35727  17.509  29.914   8.553
 7687POPC   D2A35728  17.531  29.950   8.253
 7687POPC   C3A35729  17.477  29.882   7.953
 7687POPC   C4A35730  17.530  29.932   7.653
 7687POPC   C1B35731  17.258  29.807   8.553
 7687POPC   C2B35732  17.309  29.775   8.253
 7687POPC   C3B35733  17.287  29.774   7.953
 7687POPC   C4B35734  17.310  29.835   7.653
 7688POPC   NC335735  25.293   9.704   9.453
 7688POPC   PO435736  25.296   9.774   9.153
 7688POPC   GL135737  25.288   9.735   8.853
 7688POPC   GL235738  25.196   9.861   8.853
 7688POPC   C1A35739  25.252   9.715   8.553
 7688POPC   D2A35740  25.240   9.700   8.253
 7688POPC   C3A35741  25.245   9.761   7.953
 7688POPC   C4A35742  25.257   9.738   7.653
 7688POPC   C1B35743  25.077   9.863   8.553
 7688POPC   C2B35744  25.067   9.884   8.253
 7688POPC   C3B35745  25.079   9.913   7.953
 7688POPC   C4B35746  25.106   9.912   7.653
 7689POPC   NC335747   9.734  22.982   9.453
 7689POPC   PO435748   9.699  22.915   9.153
 7689POPC   GL135749   9.794  22.931   8.853
 7689POPC   GL235750   9.633  22.903   8.853
 7689POPC   C1A35751   9.702  22.976   8.553
 7689POPC   D2A35752   9.708  22.914   8.253
 7689POPC   C3A35753   9.731  22.938   7.953
 7689POPC   C4A35754   9.716  22.966   7.653
 7689POPC   C1B35755   9.503  22.941   8.553
 7689POPC   C2B35756   9.457  22.879   8.253
 7689POPC   C3B35757   9.547  22.912   7.953
 7689POPC   C4B35758   9.456  22.961   7.653
 7690POPC   NC335759  12.839  19.065   9.453
 7690POPC   PO435760  12.880  19.026   9.153
 7690POPC   GL135761  12.827  19.063   8.853
 7690POPC   GL235762  12.822  19.167   8.853
 7690POPC   C1A35763  12.880  19.056   8.553
 7690POPC   D2A35764  12.898  19.052   8.253
 7690POPC   C3A35765  12.856  19.067   7.953
 7690POPC   C4A35766  12.869  19.045   7.653
 7690POPC   C1B35767  12.876  19.357   8.553
 7690POPC   C2B35768  12.908  19.280   8.253
 7690POPC   C3B35769  12.905  19.300   7.953
 7690POPC   C4B35770  12.854  19.307   7.653
 7691POPC   NC335771  33.819  31.452   9.453
 7691POPC   PO435772  33.829  31.462   9.153
 7691POPC   GL135773  33.827  31.516   8.853
 7691POPC   GL235774  33.815  31.343   8.853
 7691POPC   C1A35775  33.845  31.502   8.553
 7691POPC   D2A35776  33.795  31.478   8.253
 7691POPC   C3A35777  33.786  31.433   7.953
 7691POPC   C4A35778  33.801  31.504   7.653
 7691POPC   C1B35779  33.696  31.260   8.553
 7691POPC   C2B35780  33.774  31.201   8.253
 7691POPC   C3B35781  33.734  31.272   7.953
 7691POPC   C4B35782  33.729  31.203   7.653
 7692POPC   NC335783  29.188  42.322   9.453
 7692POPC   PO435784  29.162  42.293   9.153
 7692POPC   GL135785  29.182  42.317   8.853
 7692POPC   GL235786  29.184  42.263   8.853
 7692POPC   C1A35787  29.134  42.313   8.553
 7692POPC   D2A35788  29.100  42.299   8.253
 7692POPC   C3A35789  29.140  42.321   7.953
 7692POPC   C4A35790  29.103  42.371   7.653
 7692POPC   C1B35791  29.168  42.138   8.553
 7692POPC   C2B35792  29.195  42.069   8.253
 7692POPC   C3B35793  29.201  42.050   7.953
 7692POPC   C4B35794  29.153  42.125   7.653
 7693POPC   NC335795  19.859  19.833   9.453
 7693POPC   PO435796  19.814  19.818   9.153
 7693POPC   GL135797  19.862  19.792   8.853
 7693POPC   GL235798  19.958  19.822   8.853
 7693POPC   C1A35799  19.861  19.800   8.553
 7693POPC   D2A35800  19.803  19.839   8.253
 7693POPC   C3A35801  19.822  19.844   7.953
 7693POPC   C4A35802  19.845  19.819   7.653
 7693POPC   C1B35803  20.082  19.904   8.553
 7693POPC   C2B35804  20.037  19.909   8.253
 7693POPC   C3B35805  20.038  19.884   7.953
 7693POPC   C4B35806  20.123  19.914   7.653
 7694POPC   NC335807  38.413  14.357   9.453
 7694POPC   PO435808  38.426  14.394   9.153
 7694POPC   GL135809  38.437  14.440   8.853
 7694POPC   GL235810  38.572  14.400   8.853
 7694POPC   C1A35811  38.427  14.386   8.553
 7694POPC   D2A35812  38.420  14.419   8.253
 7694POPC   C3A35813  38.473  14.438   7.953
 7694POPC   C4A35814  38.422  14.410   7.653
 7694POPC   C1B35815  38.725  14.383   8.553
 7694POPC   C2B35816  38.665  14.381   8.253
 7694POPC   C3B35817  38.722  14.417   7.953
 7694POPC   C4B35818  38.722  14.364   7.653
 7695POPC   NC335819  20.587   8.934   9.453
 7695POPC   PO435820  20.615   8.960   9.153
 7695POPC   GL135821  20.625   8.946   8.853
 7695POPC   GL235822  20.702   8.921   8.853
 7695POPC   C1A35823  20.626   8.969   8.553
 7695POPC   D2A35824  20.633   8.932   8.253
 7695POPC   C3A35825  20.601   8.977   7.953
 7695POPC   C4A35826  20.561   8.930   7.653
 7695POPC   C1B35827  20.833   8.922   8.553
 7695POPC   C2B35828  20.822   8.914   8.253
 7695POPC   C3B35829  20.866   8.876   7.953
 7695POPC   C4B35830  20.899   8.875   7.653
 7696POPC   NC335831  30.727  41.556   9.453
 7696POPC   PO435832  30.717  41.602   9.153
 7696POPC   GL135833  30.681  41.526   8.853
 7696POPC   GL235834  30.690  41.658   8.853
 7696POPC   C1A35835  30.698  41.521   8.553
 7696POPC   D2A35836  30.662  41.593   8.253
 7696POPC   C3A35837  30.714  41.592   7.953
 7696POPC   C4A35838  30.723  41.546   7.653
 7696POPC   C1B35839  30.723  41.824   8.553
 7696POPC   C2B35840  30.683  41.798   8.253
 7696POPC   C3B35841  30.668  41.846   7.953
 7696POPC   C4B35842  30.684  41.795   7.653
 7697POPC   NC335843   0.430  27.586   9.453
 7697POPC   PO435844   0.487  27.584   9.153
 7697POPC   GL135845   0.432  27.552   8.853
 7697POPC   GL235846   0.523  27.474   8.853
 7697POPC   C1A35847   0.486  27.549   8.553
 7697POPC   D2A35848   0.396  27.607   8.253
 7697POPC   C3A35849   0.429  27.629   7.953
 7697POPC   C4A35850   0.390  27.619   7.653
 7697POPC   C1B35851   0.586  27.402   8.553
 7697POPC   C2B35852   0.567  27.373   8.253
 7697POPC   C3B35853   0.577  27.400   7.953
 7697POPC   C4B35854   0.589  27.377   7.653
 7698POPC   NC335855  26.791  22.209   9.453
 7698POPC   PO435856  26.769  22.168   9.153
 7698POPC   GL135857  26.776  22.159   8.853
 7698POPC   GL235858  26.831  22.333   8.853
 7698POPC   C1A35859  26.783  22.137   8.553
 7698POPC   D2A35860  26.770  22.166   8.253
 7698POPC   C3A35861  26.845  22.158   7.953
 7698POPC   C4A35862  26.839  22.161   7.653
 7698POPC   C1B35863  26.771  22.438   8.553
 7698POPC   C2B35864  26.838  22.424   8.253
 7698POPC   C3B35865  26.784  22.371   7.953
 7698POPC   C4B35866  26.780  22.406   7.653
 7699POPC   NC335867  40.735  11.334   9.453
 7699POPC   PO435868  40.769  11.342   9.153
 7699POPC   GL135869  40.808  11.256   8.853
 7699POPC   GL235870  40.703  11.290   8.853
 7699POPC   C1A35871  40.803  11.311   8.553
 7699POPC   D2A35872  40.778  11.344   8.253
 7699POPC   C3A35873  40.810  11.345   7.953
 7699POPC   C4A35874  40.828  11.252   7.653
 7699POPC   C1B35875  40.583  11.352   8.553
 7699POPC   C2B35876  40.552  11.388   8.253
 7699POPC   C3B35877  40.526  11.329   7.953
 7699POPC   C4B35878  40.569  11.405   7.653
 7700POPC   NC335879  44.637  27.578   9.453
 7700POPC   PO435880  44.647  27.609   9.153
 7700POPC   GL135881  44.635  27.581   8.853
 7700POPC   GL235882  44.562  27.695   8.853
 7700POPC   C1A35883  44.675  27.553   8.553
 7700POPC   D2A35884  44.703  27.641   8.253
 7700POPC   C3A35885  44.705  27.560   7.953
 7700POPC   C4A35886  44.701  27.618   7.653
 7700POPC   C1B35887  44.545  27.796   8.553
 7700POPC   C2B35888  44.500  27.745   8.253
 7700POPC   C3B35889  44.538  27.816   7.953
 7700POPC   C4B35890  44.548  27.757   7.653
 7701POPC   NC335891  19.108  10.544   9.453
 7701POPC   PO435892  19.033  10.562   9.153
 7701POPC   GL135893  19.055  10.550   8.853
 7701POPC   GL235894  18.933  10.471   8.853
 7701POPC   C1A35895  19.085  10.571   8.553
 7701POPC   D2A35896  19.010  10.501   8.253
 7701POPC   C3A35897  19.040  10.530   7.953
 7701POPC   C4A35898  19.020  10.540   7.653
 7701POPC   C1B35899  18.858  10.466   8.553
 7701POPC   C2B35900  18.857  10.417   8.253
 7701POPC   C3B35901  18.779  10.459   7.953
 7701POPC   C4B35902  18.855  10.389   7.653
 7702POPC   NC335903  39.260  23.753   9.453
 7702POPC   PO435904  39.275  23.682   9.153
 7702POPC   GL135905  39.237  23.682   8.853
 7702POPC   GL235906  39.161  23.606   8.853
 7702POPC   C1A35907  39.248  23.696   8.553
 7702POPC   D2A35908  39.233  23.673   8.253
 7702POPC   C3A35909  39.192  23.738   7.953
 7702POPC   C4A35910  39.280  23.712   7.653
 7702POPC   C1B35911  39.083  23.508   8.553
 7702POPC   C2B35912  39.042  23.530   8.253
 7702POPC   C3B35913  39.038  23.551   7.953
 7702POPC   C4B35914  39.015  23.557   7.653
 7703POPC   NC335915  10.573  25.314   9.453
 7703POPC   PO435916  10.539  25.225   9.153
 7703POPC   GL135917  10.538  25.244   8.853
 7703POPC   GL235918  10.412  25.185   8.853
 7703POPC   C1A35919  10.502  25.218   8.553
 7703POPC   D2A35920  10.563  25.294   8.253
 7703POPC   C3A35921  10.499  25.296   7.953
 7703POPC   C4A35922  10.482  25.300   7.653
 7703POPC   C1B35923  10.323  25.113   8.553
 7703POPC   C2B35924  10.268  25.149   8.253
 7703POPC   C3B35925  10.315  25.199   7.953
 7703POPC   C4B35926  10.283  25.128   7.653
 7704POPC   NC335927  43.910  17.487   9.453
 7704POPC   PO435928  43.842  17.497   9.153
 7704POPC   GL135929  43.868  17.514   8.853
 7704POPC   GL235930  43.927  17.613   8.853
 7704POPC   C1A35931  43.842  17.506   8.553
 7704POPC   D2A35932  43.911  17.466   8.253
 7704POPC   C3A35933  43.914  17.498   7.953
 7704POPC   C4A35934  43.868  17.463   7.653
 7704POPC   C1B35935  43.966  17.770   8.553
 7704POPC   C2B35936  43.919  17.779   8.253
 7704POPC   C3B35937  43.966  17.745   7.953
 7704POPC   C4B35938  43.963  17.720   7.653
 7705POPC   NC335939  15.149  32.234   9.453
 7705POPC   PO435940  15.137  32.269   9.153
 7705POPC   GL135941  15.192  32.287   8.853
 7705POPC   GL235942  15.209  32.114   8.853
 7705POPC   C1A35943  15.214  32.284   8.553
 7705POPC   D2A35944  15.170  32.224   8.253
 7705POPC   C3A35945  15.150  32.287   7.953
 7705POPC   C4A35946  15.171  32.246   7.653
 7705POPC   C1B35947  15.273  31.998   8.553
 7705POPC   C2B35948  15.302  32.014   8.253
 7705POPC   C3B35949  15.246  31.982   7.953
 7705POPC   C4B35950  15.317  32.056   7.653
 7706POPC   NC335951   2.812   9.796   9.453
 7706POPC   PO435952   2.803   9.717   9.153
 7706POPC   GL135953   2.784   9.712   8.853
 7706POPC   GL235954   2.851   9.863   8.853
 7706POPC   C1A35955   2.758   9.716   8.553
 7706POPC   D2A35956   2.734   9.764   8.253
 7706POPC   C3A35957   2.747   9.717   7.953
 7706POPC   C4A35958   2.733   9.715   7.653
 7706POPC   C1B35959   2.915   9.975   8.553
 7706POPC   C2B35960   2.867   9.914   8.253
 7706POPC   C3B35961   2.939   9.949   7.953
 7706POPC   C4B35962   2.941   9.953   7.653
 7707POPC   NC335963   7.434  24.492   9.453
 7707POPC   PO435964   7.414  24.453   9.153
 7707POPC   GL135965   7.465  24.524   8.853
 7707POPC   GL235966   7.493  24.357   8.853
 7707POPC   C1A35967   7.404  24.440   8.553
 7707POPC   D2A35968   7.415  24.516   8.253
 7707POPC   C3A35969   7.468  24.520   7.953
 7707POPC   C4A35970   7.415  24.495   7.653
 7707POPC   C1B35971   7.531  24.257   8.553
 7707POPC   C2B35972   7.540  24.272   8.253
 7707POPC   C3B35973   7.498  24.294   7.953
 7707POPC   C4B35974   7.465  24.262   7.653
 7708POPC   NC335975  41.556   5.902   9.453
 7708POPC   PO435976  41.561   5.883   9.153
 7708POPC   GL135977  41.548   5.890   8.853
 7708POPC   GL235978  41.444   5.766   8.853
 7708POPC   C1A35979  41.607   5.918   8.553
 7708POPC   D2A35980  41.509   5.826   8.253
 7708POPC   C3A35981  41.590   5.844   7.953
 7708POPC   C4A35982  41.557   5.864   7.653
 7708POPC   C1B35983  41.369   5.681   8.553
 7708POPC   C2B35984  41.379   5.750   8.253
 7708POPC   C3B35985  41.406   5.691   7.953
 7708POPC   C4B35986  41.411   5.709   7.653
 7709POPC   NC335987  40.025  11.255   9.453
 7709POPC   PO435988  39.967  11.304   9.153
 7709POPC   GL135989  40.008  11.313   8.853
 7709POPC   GL235990  39.903  11.214   8.853
 7709POPC   C1A35991  40.023  11.322   8.553
 7709POPC   D2A35992  39.998  11.277   8.253
 7709POPC   C3A35993  40.056  11.302   7.953
 7709POPC   C4A35994  39.999  11.327   7.653
 7709POPC   C1B35995  39.776  11.188   8.553
 7709POPC   C2B35996  39.781  11.197   8.253
 7709POPC   C3B35997  39.750  11.126   7.953
 7709POPC   C4B35998  39.765  11.151   7.653
 7710POPC   NC335999   4.359   9.781   9.453
 7710POPC   PO436000   4.317   9.778   9.153
 7710POPC   GL136001   4.357   9.723   8.853
 7710POPC   GL236002   4.185   9.834   8.853
 7710POPC   C1A36003   4.338   9.787   8.553
 7710POPC   D2A36004   4.321   9.736   8.253
 7710POPC   C3A36005   4.364   9.746   7.953
 7710POPC   C4A36006   4.352   9.732   7.653
 7710POPC   C1B36007   4.088   9.859   8.553
 7710POPC   C2B36008   4.124   9.951   8.253
 7710POPC   C3B36009   4.090   9.936   7.953
 7710POPC   C4B36010   4.130   9.936   7.653
 7711POPC   NC336011  12.836  12.107   9.453
 7711POPC   PO436012  12.839  12.037   9.153
 7711POPC   GL136013  12.879  12.050   8.853
 7711POPC   GL236014  12.921  12.034   8.853
 7711POPC   C1A36015  12.839  12.031   8.553
 7711POPC   D2A36016  12.900  12.074   8.253
 7711POPC   C3A36017  12.863  12.098   7.953
 7711POPC   C4A36018  12.898  12.083   7.653
 7711POPC   C1B36019  12.996  11.929   8.553
 7711POPC   C2B36020  12.991  11.868   8.253
 7711POPC   C3B36021  13.038  11.947   7.953
 7711POPC   C4B36022  13.025  11.936   7.653
 7712POPC   NC336023  22.967   4.306   9.453
 7712POPC   PO436024  22.929   4.305   9.153
 7712POPC   GL136025  22.971   4.317   8.853
 7712POPC   GL236026  22.881   4.241   8.853
 7712POPC   C1A36027  22.950   4.340   8.553
 7712POPC   D2A36028  22.978   4.305   8.253
 7712POPC   C3A36029  22.935   4.345   7.953
 7712POPC   C4A36030  22.912   4.297   7.653
 7712POPC   C1B36031  22.825   4.043   8.553
 7712POPC   C2B36032  22.902   4.043   8.253
 7712POPC   C3B36033  22.909   4.079   7.953
 7712POPC   C4B36034  22.850   4.032   7.653
 7713POPC   NC336035  12.103  31.461   9.453
 7713POPC   PO436036  12.088  31.468   9.153
 7713POPC   GL136037  12.059  31.490   8.853
 7713POPC   GL236038  12.212  31.392   8.853
 7713POPC   C1A36039  12.035  31.480   8.553
 7713POPC   D2A36040  12.051  31.515   8.253
 7713POPC   C3A36041  12.102  31.499   7.953
 7713POPC   C4A36042  12.052  31.423   7.653
 7713POPC   C1B36043  12.274  31.369   8.553
 7713POPC   C2B36044  12.233  31.295   8.253
 7713POPC   C3B36045  12.262  31.374   7.953
 7713POPC   C4B36046  12.308  31.301   7.653
 7714POPC   NC336047  33.020  15.950   9.453
 7714POPC   PO436048  33.056  15.925   9.153
 7714POPC   GL136049  33.045  15.938   8.853
 7714POPC   GL236050  33.058  16.070   8.853
 7714POPC   C1A36051  33.002  15.965   8.553
 7714POPC   D2A36052  33.053  15.997   8.253
 7714POPC   C3A36053  32.977  15.908   7.953
 7714POPC   C4A36054  33.031  15.983   7.653
 7714POPC   C1B36055  33.143  16.232   8.553
 7714POPC   C2B36056  33.085  16.194   8.253
 7714POPC   C3B36057  33.126  16.222   7.953
 7714POPC   C4B36058  33.133  16.206   7.653
 7715POPC   NC336059  33.028  36.128   9.453
 7715POPC   PO436060  33.063  36.151   9.153
 7715POPC   GL136061  32.993  36.115   8.853
 7715POPC   GL236062  32.975  36.024   8.853
 7715POPC   C1A36063  32.981  36.093   8.553
 7715POPC   D2A36064  33.040  36.174   8.253
 7715POPC   C3A36065  33.015  36.126   7.953
 7715POPC   C4A36066  33.016  36.129   7.653
 7715POPC   C1B36067  32.868  35.949   8.553
 7715POPC   C2B36068  32.900  35.978   8.253
 7715POPC   C3B36069  32.902  35.975   7.953
 7715POPC   C4B36070  32.835  35.908   7.653
 7716POPC   NC336071  26.038  35.388   9.453
 7716POPC   PO436072  26.059  35.320   9.153
 7716POPC   GL136073  26.055  35.388   8.853
 7716POPC   GL236074  25.942  35.267   8.853
 7716POPC   C1A36075  26.010  35.355   8.553
 7716POPC   D2A36076  25.992  35.366   8.253
 7716POPC   C3A36077  26.065  35.364   7.953
 7716POPC   C4A36078  26.068  35.314   7.653
 7716POPC   C1B36079  25.942  35.146   8.553
 7716POPC   C2B36080  25.895  35.111   8.253
 7716POPC   C3B36081  25.956  35.180   7.953
 7716POPC   C4B36082  25.884  35.179   7.653
 7717POPC   NC336083  19.840  23.761   9.453
 7717POPC   PO436084  19.862  23.758   9.153
 7717POPC   GL136085  19.879  23.759   8.853
 7717POPC   GL236086  19.742  23.758   8.853
 7717POPC   C1A36087  19.810  23.725   8.553
 7717POPC   D2A36088  19.843  23.747   8.253
 7717POPC   C3A36089  19.808  23.729   7.953
 7717POPC   C4A36090  19.791  23.664   7.653
 7717POPC   C1B36091  19.584  23.741   8.553
 7717POPC   C2B36092  19.617  23.749   8.253
 7717POPC   C3B36093  19.592  23.754   7.953
 7717POPC   C4B36094  19.622  23.709   7.653
 7718POPC   NC336095  23.753   0.400   9.453
 7718POPC   PO436096  23.692   0.400   9.153
 7718POPC   GL136097  23.692   0.451   8.853
 7718POPC   GL236098  23.820   0.495   8.853
 7718POPC   C1A36099  23.725   0.431   8.553
 7718POPC   D2A36100  23.695   0.426   8.253
 7718POPC   C3A36101  23.729   0.389   7.953
 7718POPC   C4A36102  23.759   0.441   7.653
 7718POPC   C1B36103  23.910   0.513   8.553
 7718POPC   C2B36104  23.954   0.499   8.253
 7718POPC   C3B36105  23.963   0.529   7.953
 7718POPC   C4B36106  23.964   0.527   7.653
 7719POPC   NC336107  40.040  12.876   9.453
 7719POPC   PO436108  40.011  12.828   9.153
 7719POPC   GL136109  39.990  12.813   8.853
 7719POPC   GL236110  39.914  12.843   8.853
 7719POPC   C1A36111  40.045  12.877   8.553
 7719POPC   D2A36112  39.970  12.823   8.253
 7719POPC   C3A36113  39.974  12.869   7.953
 7719POPC   C4A36114  39.984  12.865   7.653
 7719POPC   C1B36115  39.771  12.779   8.553
 7719POPC   C2B36116  39.801  12.756   8.253
 7719POPC   C3B36117  39.813  12.723   7.953
 7719POPC   C4B36118  39.741  12.750   7.653
 7720POPC   NC336119  17.514  19.108   9.453
 7720POPC   PO436120  17.528  19.057   9.153
 7720POPC   GL136121  17.475  19.091   8.853
 7720POPC   GL236122  17.578  18.959   8.853
 7720POPC   C1A36123  17.551  19.060   8.553
 7720POPC   D2A36124  17.480  19.042   8.253
 7720POPC   C3A36125  17.483  19.065   7.953
 7720POPC   C4A36126  17.508  19.038   7.653
 7720POPC   C1B36127  17.584  18.816   8.553
 7720POPC   C2B36128  17.598  18.837   8.253
 7720POPC   C3B36129  17.588  18.808   7.953
 7720POPC   C4B36130  17.556  18.781   7.653
 7721POPC   NC336131  23.727   2.759   9.453
 7721POPC   PO436132  23.680   2.745   9.153
 7721POPC   GL136133  23.672   2.721   8.853
 7721POPC   GL236134  23.709   2.653   8.853
 7721POPC   C1A36135  23.744   2.754   8.553
 7721POPC   D2A36136  23.737   2.724   8.253
 7721POPC   C3A36137  23.712   2.779   7.953
 7721POPC   C4A36138  23.708   2.761   7.653
 7721POPC   C1B36139  23.634   2.493   8.553
 7721POPC   C2B36140  23.634   2.560   8.253
 7721POPC   C3B36141  23.608   2.524   7.953
 7721POPC   C4B36142  23.622   2.526   7.653
 7722POPC   NC336143  21.406  14.410   9.453
 7722POPC   PO436144  21.364  14.452   9.153
 7722POPC   GL136145  21.387  14.360   8.853
 7722POPC   GL236146  21.325  14.496   8.853
 7722POPC   C1A36147  21.370  14.387   8.553
 7722POPC   D2A36148  21.426  14.355   8.253
 7722POPC   C3A36149  21.423  14.379   7.953
 7722POPC   C4A36150  21.378  14.435   7.653
 7722POPC   C1B36151  21.233  14.626   8.553
 7722POPC   C2B36152  21.295  14.607   8.253
 7722POPC   C3B36153  21.277  14.621   7.953
 7722POPC   C4B36154  21.307  14.589   7.653
 7723POPC   NC336155  43.153  22.176   9.453
 7723POPC   PO436156  43.061  22.194   9.153
 7723POPC   GL136157  43.111  22.136   8.853
 7723POPC   GL236158  43.139  22.257   8.853
 7723POPC   C1A36159  43.123  22.175   8.553
 7723POPC   D2A36160  43.149  22.150   8.253
 7723POPC   C3A36161  43.111  22.168   7.953
 7723POPC   C4A36162  43.100  22.121   7.653
 7723POPC   C1B36163  43.189  22.395   8.553
 7723POPC   C2B36164  43.167  22.455   8.253
 7723POPC   C3B36165  43.207  22.358   7.953
 7723POPC   C4B36166  43.144  22.369   7.653
 7724POPC   NC336167  22.162  35.356   9.453
 7724POPC   PO436168  22.199  35.322   9.153
 7724POPC   GL136169  22.184  35.370   8.853
 7724POPC   GL236170  22.322  35.331   8.853
 7724POPC   C1A36171  22.199  35.356   8.553
 7724POPC   D2A36172  22.149  35.352   8.253
 7724POPC   C3A36173  22.168  35.342   7.953
 7724POPC   C4A36174  22.139  35.311   7.653
 7724POPC   C1B36175  22.419  35.273   8.553
 7724POPC   C2B36176  22.365  35.321   8.253
 7724POPC   C3B36177  22.443  35.275   7.953
 7724POPC   C4B36178  22.375  35.246   7.653
 7725POPC   NC336179  43.907  38.492   9.453
 7725POPC   PO436180  43.879  38.446   9.153
 7725POPC   GL136181  43.935  38.413   8.853
 7725POPC   GL236182  43.785  38.293   8.853
 7725POPC   C1A36183  43.841  38.468   8.553
 7725POPC   D2A36184  43.899  38.442   8.253
 7725POPC   C3A36185  43.905  38.441   7.953
 7725POPC   C4A36186  43.868  38.469   7.653
 7725POPC   C1B36187  43.741  38.264   8.553
 7725POPC   C2B36188  43.766  38.228   8.253
 7725POPC   C3B36189  43.747  38.230   7.953
 7725POPC   C4B36190  43.802  38.228   7.653
 7726POPC   NC336191  33.047  21.361   9.453
 7726POPC   PO436192  33.011  21.362   9.153
 7726POPC   GL136193  33.043  21.390   8.853
 7726POPC   GL236194  32.942  21.291   8.853
 7726POPC   C1A36195  33.021  21.365   8.553
 7726POPC   D2A36196  33.060  21.392   8.253
 7726POPC   C3A36197  33.047  21.366   7.953
 7726POPC   C4A36198  33.042  21.368   7.653
 7726POPC   C1B36199  32.803  21.210   8.553
 7726POPC   C2B36200  32.860  21.192   8.253
 7726POPC   C3B36201  32.844  21.227   7.953
 7726POPC   C4B36202  32.821  21.201   7.653
 7727POPC   NC336203  29.964  22.946   9.453
 7727POPC   PO436204  29.895  22.928   9.153
 7727POPC   GL136205  29.953  22.927   8.853
 7727POPC   GL236206  30.003  22.886   8.853
 7727POPC   C1A36207  29.965  22.912   8.553
 7727POPC   D2A36208  29.966  22.979   8.253
 7727POPC   C3A36209  29.960  22.921   7.953
 7727POPC   C4A36210  29.896  22.972   7.653
 7727POPC   C1B36211  30.144  22.846   8.553
 7727POPC   C2B36212  30.131  22.867   8.253
 7727POPC   C3B36213  30.155  22.841   7.953
 7727POPC   C4B36214  30.134  22.806   7.653
 7728POPC   NC336215  30.682  40.751   9.453
 7728POPC   PO436216  30.725  40.742   9.153
 7728POPC   GL136217  30.674  40.786   8.853
 7728POPC   GL236218  30.791  40.873   8.853
 7728POPC   C1A36219  30.723  40.788   8.553
 7728POPC   D2A36220  30.730  40.740   8.253
 7728POPC   C3A36221  30.706  40.738   7.953
 7728POPC   C4A36222  30.733  40.768   7.653
 7728POPC   C1B36223  30.895  40.999   8.553
 7728POPC   C2B36224  30.824  40.954   8.253
 7728POPC   C3B36225  30.882  40.960   7.953
 7728POPC   C4B36226  30.888  40.953   7.653
 7729POPC   NC336227  23.677  14.436   9.453
 7729POPC   PO436228  23.670  14.366   9.153
 7729POPC   GL136229  23.705  14.409   8.853
 7729POPC   GL236230  23.802  14.327   8.853
 7729POPC   C1A36231  23.745  14.383   8.553
 7729POPC   D2A36232  23.671  14.361   8.253
 7729POPC   C3A36233  23.752  14.395   7.953
 7729POPC   C4A36234  23.702  14.365   7.653
 7729POPC   C1B36235  23.861  14.251   8.553
 7729POPC   C2B36236  23.898  14.191   8.253
 7729POPC   C3B36237  23.879  14.257   7.953
 7729POPC   C4B36238  23.833  14.180   7.653
 7730POPC   NC336239  40.774  31.496   9.453
 7730POPC   PO436240  40.832  31.475   9.153
 7730POPC   GL136241  40.827  31.446   8.853
 7730POPC   GL236242  40.675  31.373   8.853
 7730POPC   C1A36243  40.796  31.438   8.553
 7730POPC   D2A36244  40.808  31.521   8.253
 7730POPC   C3A36245  40.824  31.424   7.953
 7730POPC   C4A36246  40.775  31.458   7.653
 7730POPC   C1B36247  40.621  31.269   8.553
 7730POPC   C2B36248  40.634  31.274   8.253
 7730POPC   C3B36249  40.597  31.359   7.953
 7730POPC   C4B36250  40.594  31.302   7.653
 7731POPC   NC336251  29.871  26.080   9.453
 7731POPC   PO436252  29.944  26.063   9.153
 7731POPC   GL136253  29.956  26.088   8.853
 7731POPC   GL236254  30.031  26.136   8.853
 7731POPC   C1A36255  29.935  26.043   8.553
 7731POPC   D2A36256  29.902  26.065   8.253
 7731POPC   C3A36257  29.943  26.082   7.953
 7731POPC   C4A36258  29.879  26.069   7.653
 7731POPC   C1B36259  30.104  26.213   8.553
 7731POPC   C2B36260  30.101  26.265   8.253
 7731POPC   C3B36261  30.070  26.266   7.953
 7731POPC   C4B36262  30.087  26.224   7.653
 7732POPC   NC336263   8.997  33.771   9.453
 7732POPC   PO436264   8.936  33.800   9.153
 7732POPC   GL136265   8.975  33.824   8.853
 7732POPC   GL236266   9.051  33.873   8.853
 7732POPC   C1A36267   9.013  33.827   8.553
 7732POPC   D2A36268   8.949  33.766   8.253
 7732POPC   C3A36269   8.951  33.759   7.953
 7732POPC   C4A36270   9.003  33.761   7.653
 7732POPC   C1B36271   9.244  33.871   8.553
 7732POPC   C2B36272   9.243  33.829   8.253
 7732POPC   C3B36273   9.261  33.834   7.953
 7732POPC   C4B36274   9.181  33.819   7.653
 7733POPC   NC336275  29.161  43.909   9.453
 7733POPC   PO436276  29.169  43.926   9.153
 7733POPC   GL136277  29.138  43.908   8.853
 7733POPC   GL236278  29.182  43.790   8.853
 7733POPC   C1A36279  29.185  43.932   8.553
 7733POPC   D2A36280  29.165  43.854   8.253
 7733POPC   C3A36281  29.185  43.893   7.953
 7733POPC   C4A36282  29.173  43.867   7.653
 7733POPC   C1B36283  29.293  43.725   8.553
 7733POPC   C2B36284  29.264  43.673   8.253
 7733POPC   C3B36285  29.320  43.720   7.953
 7733POPC   C4B36286  29.284  43.710   7.653
 7734POPC   NC336287   7.407  26.833   9.453
 7734POPC   PO436288   7.398  26.833   9.153
 7734POPC   GL136289   7.464  26.845   8.853
 7734POPC   GL236290   7.490  26.708   8.853
 7734POPC   C1A36291   7.446  26.819   8.553
 7734POPC   D2A36292   7.401  26.771   8.253
 7734POPC   C3A36293   7.422  26.851   7.953
 7734POPC   C4A36294   7.392  26.849   7.653
 7734POPC   C1B36295   7.528  26.559   8.553
 7734POPC   C2B36296   7.478  26.541   8.253
 7734POPC   C3B36297   7.505  26.569   7.953
 7734POPC   C4B36298   7.526  26.537   7.653
 7735POPC   NC336299  12.807  27.617   9.453
 7735POPC   PO436300  12.873  27.636   9.153
 7735POPC   GL136301  12.891  27.560   8.853
 7735POPC   GL236302  12.905  27.662   8.853
 7735POPC   C1A36303  12.838  27.603   8.553
 7735POPC   D2A36304  12.837  27.629   8.253
 7735POPC   C3A36305  12.813  27.580   7.953
 7735POPC   C4A36306  12.833  27.596   7.653
 7735POPC   C1B36307  13.080  27.769   8.553
 7735POPC   C2B36308  13.078  27.722   8.253
 7735POPC   C3B36309  13.027  27.769   7.953
 7735POPC   C4B36310  13.006  27.800   7.653
 7736POPC   NC336311   5.048  26.014   9.453
 7736POPC   PO436312   5.060  26.054   9.153
 7736POPC   GL136313   5.043  26.086   8.853
 7736POPC   GL236314   5.179  26.181   8.853
 7736POPC   C1A36315   5.097  26.052   8.553
 7736POPC   D2A36316   5.046  25.998   8.253
 7736POPC   C3A36317   5.076  26.033   7.953
 7736POPC   C4A36318   5.123  26.073   7.653
 7736POPC   C1B36319   5.241  26.301   8.553
 7736POPC   C2B36320   5.221  26.293   8.253
 7736POPC   C3B36321   5.193  26.273   7.953
 7736POPC   C4B36322   5.224  26.230   7.653
 7737POPC   NC336323  24.481  12.073   9.453
 7737POPC   PO436324  24.501  12.069   9.153
 7737POPC   GL136325  24.522  12.121   8.853
 7737POPC   GL236326  24.656  12.001   8.853
 7737POPC   C1A36327  24.487  12.107   8.553
 7737POPC   D2A36328  24.483  12.083   8.253
 7737POPC   C3A36329  24.458  12.124   7.953
 7737POPC   C4A36330  24.497  12.026   7.653
 7737POPC   C1B36331  24.742  12.047   8.553
 7737POPC   C2B36332  24.734  12.020   8.253
 7737POPC   C3B36333  24.693  12.000   7.953
 7737POPC   C4B36334  24.701  11.999   7.653
 7738POPC   NC336335  33.787  36.122   9.453
 7738POPC   PO436336  33.829  36.121   9.153
 7738POPC   GL136337  33.777  36.161   8.853
 7738POPC   GL236338  33.760  35.971   8.853
 7738POPC   C1A36339  33.760  36.141   8.553
 7738POPC   D2A36340  33.759  36.168   8.253
 7738POPC   C3A36341  33.824  36.101   7.953
 7738POPC   C4A36342  33.846  36.110   7.653
 7738POPC   C1B36343  33.755  35.838   8.553
 7738POPC   C2B36344  33.737  35.863   8.253
 7738POPC   C3B36345  33.796  35.857   7.953
 7738POPC   C4B36346  33.728  35.860   7.653
 7739POPC   NC336347   7.458  43.936   9.453
 7739POPC   PO436348   7.371  43.840   9.153
 7739POPC   GL136349   7.371  43.854   8.853
 7739POPC   GL236350   7.441  43.810   8.853
 7739POPC   C1A36351   7.455  43.889   8.553
 7739POPC   D2A36352   7.375  43.863   8.253
 7739POPC   C3A36353   7.434  43.886   7.953
 7739POPC   C4A36354   7.439  43.936   7.653
 7739POPC   C1B36355   7.450  43.587   8.553
 7739POPC   C2B36356   7.470  43.643   8.253
 7739POPC   C3B36357   7.464  43.590   7.953
 7739POPC   C4B36358   7.397  43.638   7.653
 7740POPC   NC336359   1.220   5.105   9.453
 7740POPC   PO436360   1.199   5.134   9.153
 7740POPC   GL136361   1.248   5.139   8.853
 7740POPC   GL236362   1.070   5.055   8.853
 7740POPC   C1A36363   1.177   5.140   8.553
 7740POPC   D2A36364   1.247   5.126   8.253
 7740POPC   C3A36365   1.229   5.102   7.953
 7740POPC   C4A36366   1.229   5.047   7.653
 7740POPC   C1B36367   1.005   4.931   8.553
 7740POPC   C2B36368   1.007   4.887   8.253
 7740POPC   C3B36369   1.004   4.908   7.953
 7740POPC   C4B36370   1.034   4.897   7.653
 7741POPC   NC336371  32.246  35.367   9.453
 7741POPC   PO436372  32.226  35.342   9.153
 7741POPC   GL136373  32.206  35.337   8.853
 7741POPC   GL236374  32.151  35.311   8.853
 7741POPC   C1A36375  32.223  35.368   8.553
 7741POPC   D2A36376  32.209  35.394   8.253
 7741POPC   C3A36377  32.272  35.343   7.953
 7741POPC   C4A36378  32.250  35.328   7.653
 7741POPC   C1B36379  31.999  35.263   8.553
 7741POPC   C2B36380  32.007  35.308   8.253
 7741POPC   C3B36381  31.958  35.336   7.953
 7741POPC   C4B36382  32.020  35.259   7.653
 7742POPC   NC336383   5.137   3.529   9.453
 7742POPC   PO436384   5.071   3.530   9.153
 7742POPC   GL136385   5.050   3.514   8.853
 7742POPC   GL236386   5.169   3.511   8.853
 7742POPC   C1A36387   5.139   3.582   8.553
 7742POPC   D2A36388   5.081   3.557   8.253
 7742POPC   C3A36389   5.066   3.541   7.953
 7742POPC   C4A36390   5.090   3.572   7.653
 7742POPC   C1B36391   5.324   3.375   8.553
 7742POPC   C2B36392   5.262   3.399   8.253
 7742POPC   C3B36393   5.333   3.465   7.953
 7742POPC   C4B36394   5.275   3.371   7.653
 7743POPC   NC336395   8.163  31.488   9.453
 7743POPC   PO436396   8.188  31.448   9.153
 7743POPC   GL136397   8.185  31.492   8.853
 7743POPC   GL236398   8.286  31.347   8.853
 7743POPC   C1A36399   8.217  31.430   8.553
 7743POPC   D2A36400   8.153  31.498   8.253
 7743POPC   C3A36401   8.222  31.455   7.953
 7743POPC   C4A36402   8.234  31.434   7.653
 7743POPC   C1B36403   8.399  31.322   8.553
 7743POPC   C2B36404   8.333  31.281   8.253
 7743POPC   C3B36405   8.412  31.354   7.953
 7743POPC   C4B36406   8.350  31.337   7.653
 7744POPC   NC336407  36.940  21.417   9.453
 7744POPC   PO436408  36.886  21.378   9.153
 7744POPC   GL136409  36.920  21.403   8.853
 7744POPC   GL236410  36.967  21.486   8.853
 7744POPC   C1A36411  36.932  21.348   8.553
 7744POPC   D2A36412  36.914  21.361   8.253
 7744POPC   C3A36413  36.949  21.385   7.953
 7744POPC   C4A36414  36.913  21.343   7.653
 7744POPC   C1B36415  37.006  21.577   8.553
 7744POPC   C2B36416  37.021  21.615   8.253
 7744POPC   C3B36417  36.945  21.603   7.953
 7744POPC   C4B36418  36.976  21.674   7.653
 7745POPC   NC336419  21.344  24.456   9.453
 7745POPC   PO436420  21.378  24.484   9.153
 7745POPC   GL136421  21.391  24.483   8.853
 7745POPC   GL236422  21.244  24.414   8.853
 7745POPC   C1A36423  21.391  24.521   8.553
 7745POPC   D2A36424  21.374  24.450   8.253
 7745POPC   C3A36425  21.432  24.475   7.953
 7745POPC   C4A36426  21.346  24.466   7.653
 7745POPC   C1B36427  21.127  24.436   8.553
 7745POPC   C2B36428  21.158  24.381   8.253
 7745POPC   C3B36429  21.118  24.422   7.953
 7745POPC   C4B36430  21.185  24.423   7.653
 7746POPC   NC336431  43.155  39.257   9.453
 7746POPC   PO436432  43.152  39.188   9.153
 7746POPC   GL136433  43.146  39.192   8.853
 7746POPC   GL236434  43.088  39.157   8.853
 7746POPC   C1A36435  43.144  39.270   8.553
 7746POPC   D2A36436  43.077  39.200   8.253
 7746POPC   C3A36437  43.138  39.192   7.953
 7746POPC   C4A36438  43.069  39.242   7.653
 7746POPC   C1B36439  42.965  38.963   8.553
 7746POPC   C2B36440  42.980  39.000   8.253
 7746POPC   C3B36441  42.977  39.013   7.953
 7746POPC   C4B36442  42.999  39.021   7.653
 7747POPC   NC336443  26.847  12.059   9.453
 7747POPC   PO436444  26.807  12.041   9.153
 7747POPC   GL136445  26.798  12.095   8.853
 7747POPC   GL236446  26.756  11.941   8.853
 7747POPC   C1A36447  26.829  12.091   8.553
 7747POPC   D2A36448  26.777  12.037   8.253
 7747POPC   C3A36449  26.838  12.059   7.953
 7747POPC   C4A36450  26.847  12.114   7.653
 7747POPC   C1B36451  26.754  11.844   8.553
 7747POPC   C2B36452  26.742  11.874   8.253
 7747POPC   C3B36453  26.791  11.800   7.953
 7747POPC   C4B36454  26.712  11.824   7.653
 7748POPC   NC336455  18.332   0.419   9.453
 7748POPC   PO436456  18.317   0.432   9.153
 7748POPC   GL136457  18.302   0.468   8.853
 7748POPC   GL236458  18.201   0.559   8.853
 7748POPC   C1A36459  18.325   0.431   8.553
 7748POPC   D2A36460  18.329   0.467   8.253
 7748POPC   C3A36461  18.236   0.451   7.953
 7748POPC   C4A36462  18.244   0.394   7.653
 7748POPC   C1B36463  18.077   0.615   8.553
 7748POPC   C2B36464  18.110   0.579   8.253
 7748POPC   C3B36465  18.104   0.611   7.953
 7748POPC   C4B36466  18.118   0.595   7.653
 7749POPC   NC336467  14.450  28.355   9.453
 7749POPC   PO436468  14.360  28.396   9.153
 7749POPC   GL136469  14.419  28.325   8.853
 7749POPC   GL236470  14.497  28.467   8.853
 7749POPC   C1A36471  14.357  28.371   8.553
 7749POPC   D2A36472  14.442  28.385   8.253
 7749POPC   C3A36473  14.364  28.410   7.953
 7749POPC   C4A36474  14.425  28.362   7.653
 7749POPC   C1B36475  14.621  28.537   8.553
 7749POPC   C2B36476  14.591  28.486   8.253
 7749POPC   C3B36477  14.608  28.483   7.953
 7749POPC   C4B36478  14.585  28.488   7.653
 7750POPC   NC336479  19.089   9.702   9.453
 7750POPC   PO436480  19.071   9.777   9.153
 7750POPC   GL136481  19.019   9.784   8.853
 7750POPC   GL236482  19.102   9.646   8.853
 7750POPC   C1A36483  19.046   9.725   8.553
 7750POPC   D2A36484  19.060   9.706   8.253
 7750POPC   C3A36485  19.103   9.699   7.953
 7750POPC   C4A36486  19.099   9.716   7.653
 7750POPC   C1B36487  19.034   9.528   8.553
 7750POPC   C2B36488  19.097   9.535   8.253
 7750POPC   C3B36489  19.106   9.490   7.953
 7750POPC   C4B36490  19.065   9.471   7.653
 7751POPC   NC336491   1.234  36.915   9.453
 7751POPC   PO436492   1.215  36.949   9.153
 7751POPC   GL136493   1.206  36.890   8.853
 7751POPC   GL236494   1.287  36.791   8.853
 7751POPC   C1A36495   1.263  36.912   8.553
 7751POPC   D2A36496   1.214  36.872   8.253
 7751POPC   C3A36497   1.175  36.913   7.953
 7751POPC   C4A36498   1.181  36.859   7.653
 7751POPC   C1B36499   1.405  36.723   8.553
 7751POPC   C2B36500   1.422  36.707   8.253
 7751POPC   C3B36501   1.358  36.722   7.953
 7751POPC   C4B36502   1.421  36.709   7.653
 7752POPC   NC336503  26.836  33.751   9.453
 7752POPC   PO436504  26.777  33.768   9.153
 7752POPC   GL136505  26.812  33.827   8.853
 7752POPC   GL236506  26.771  33.716   8.853
 7752POPC   C1A36507  26.796  33.836   8.553
 7752POPC   D2A36508  26.808  33.808   8.253
 7752POPC   C3A36509  26.769  33.809   7.953
 7752POPC   C4A36510  26.808  33.822   7.653
 7752POPC   C1B36511  26.789  33.532   8.553
 7752POPC   C2B36512  26.772  33.516   8.253
 7752POPC   C3B36513  26.765  33.519   7.953
 7752POPC   C4B36514  26.810  33.523   7.653
 7753POPC   NC336515  19.095  18.325   9.453
 7753POPC   PO436516  19.037  18.265   9.153
 7753POPC   GL136517  19.030  18.285   8.853
 7753POPC   GL236518  19.148  18.367   8.853
 7753POPC   C1A36519  19.060  18.235   8.553
 7753POPC   D2A36520  19.029  18.235   8.253
 7753POPC   C3A36521  19.083  18.327   7.953
 7753POPC   C4A36522  19.104  18.302   7.653
 7753POPC   C1B36523  19.159  18.463   8.553
 7753POPC   C2B36524  19.169  18.485   8.253
 7753POPC   C3B36525  19.159  18.463   7.953
 7753POPC   C4B36526  19.169  18.502   7.653
 7754POPC   NC336527   1.945  28.396   9.453
 7754POPC   PO436528   1.970  28.328   9.153
 7754POPC   GL136529   1.973  28.384   8.853
 7754POPC   GL236530   1.871  28.338   8.853
 7754POPC   C1A36531   1.992  28.327   8.553
 7754POPC   D2A36532   2.004  28.400   8.253
 7754POPC   C3A36533   1.975  28.400   7.953
 7754POPC   C4A36534   1.944  28.413   7.653
 7754POPC   C1B36535   1.743  28.229   8.553
 7754POPC   C2B36536   1.754  28.249   8.253
 7754POPC   C3B36537   1.789  28.179   7.953
 7754POPC   C4B36538   1.751  28.198   7.653
 7755POPC   NC336539   2.738  40.784   9.453
 7755POPC   PO436540   2.740  40.755   9.153
 7755POPC   GL136541   2.740  40.756   8.853
 7755POPC   GL236542   2.829  40.937   8.853
 7755POPC   C1A36543   2.726  40.776   8.553
 7755POPC   D2A36544   2.794  40.814   8.253
 7755POPC   C3A36545   2.768  40.740   7.953
 7755POPC   C4A36546   2.732  40.771   7.653
 7755POPC   C1B36547   2.813  41.026   8.553
 7755POPC   C2B36548   2.882  40.984   8.253
 7755POPC   C3B36549   2.796  41.046   7.953
 7755POPC   C4B36550   2.889  41.044   7.653
 7756POPC   NC336551   5.119  13.601   9.453
 7756POPC   PO436552   5.044  13.609   9.153
 7756POPC   GL136553   5.082  13.588   8.853
 7756POPC   GL236554   5.113  13.484   8.853
 7756POPC   C1A36555   5.099  13.593   8.553
 7756POPC   D2A36556   5.074  13.628   8.253
 7756POPC   C3A36557   5.124  13.585   7.953
 7756POPC   C4A36558   5.050  13.584   7.653
 7756POPC   C1B36559   5.131  13.365   8.553
 7756POPC   C2B36560   5.148  13.428   8.253
 7756POPC   C3B36561   5.179  13.357   7.953
 7756POPC   C4B36562   5.148  13.383   7.653
 7757POPC   NC336563  11.292  43.094   9.453
 7757POPC   PO436564  11.295  43.125   9.153
 7757POPC   GL136565  11.312  43.096   8.853
 7757POPC   GL236566  11.340  43.228   8.853
 7757POPC   C1A36567  11.329  43.120   8.553
 7757POPC   D2A36568  11.342  43.157   8.253
 7757POPC   C3A36569  11.284  43.142   7.953
 7757POPC   C4A36570  11.259  43.147   7.653
 7757POPC   C1B36571  11.418  43.325   8.553
 7757POPC   C2B36572  11.408  43.287   8.253
 7757POPC   C3B36573  11.408  43.372   7.953
 7757POPC   C4B36574  11.388  43.368   7.653
 7758POPC   NC336575   1.199  43.863   9.453
 7758POPC   PO436576   1.222  43.841   9.153
 7758POPC   GL136577   1.247  43.888   8.853
 7758POPC   GL236578   1.279  43.768   8.853
 7758POPC   C1A36579   1.238  43.874   8.553
 7758POPC   D2A36580   1.168  43.853   8.253
 7758POPC   C3A36581   1.190  43.883   7.953
 7758POPC   C4A36582   1.179  43.874   7.653
 7758POPC   C1B36583   1.252  43.652   8.553
 7758POPC   C2B36584   1.297  43.637   8.253
 7758POPC   C3B36585   1.239  43.622   7.953
 7758POPC   C4B36586   1.221  43.625   7.653
 7759POPC   NC336587  15.986   8.222   9.453
 7759POPC   PO436588  15.970   8.244   9.153
 7759POPC   GL136589  16.004   8.238   8.853
 7759POPC   GL236590  15.989   8.071   8.853
 7759POPC   C1A36591  15.983   8.244   8.553
 7759POPC   D2A36592  15.932   8.159   8.253
 7759POPC   C3A36593  15.993   8.166   7.953
 7759POPC   C4A36594  15.961   8.230   7.653
 7759POPC   C1B36595  16.083   7.964   8.553
 7759POPC   C2B36596  16.127   8.004   8.253
 7759POPC   C3B36597  16.080   8.010   7.953
 7759POPC   C4B36598  16.101   7.975   7.653
 7760POPC   NC336599  40.742  22.206   9.453
 7760POPC   PO436600  40.738  22.126   9.153
 7760POPC   GL136601  40.757  22.168   8.853
 7760POPC   GL236602  40.729  22.266   8.853
 7760POPC   C1A36603  40.751  22.202   8.553
 7760POPC   D2A36604  40.792  22.150   8.253
 7760POPC   C3A36605  40.785  22.126   7.953
 7760POPC   C4A36606  40.734  22.144   7.653
 7760POPC   C1B36607  40.580  22.381   8.553
 7760POPC   C2B36608  40.625  22.319   8.253
 7760POPC   C3B36609  40.645  22.316   7.953
 7760POPC   C4B36610  40.652  22.319   7.653
 7761POPC   NC336611   5.848  38.473   9.453
 7761POPC   PO436612   5.903  38.490   9.153
 7761POPC   GL136613   5.917  38.451   8.853
 7761POPC   GL236614   6.033  38.476   8.853
 7761POPC   C1A36615   5.880  38.417   8.553
 7761POPC   D2A36616   5.859  38.483   8.253
 7761POPC   C3A36617   5.893  38.436   7.953
 7761POPC   C4A36618   5.851  38.486   7.653
 7761POPC   C1B36619   6.101  38.465   8.553
 7761POPC   C2B36620   6.121  38.466   8.253
 7761POPC   C3B36621   6.122  38.507   7.953
 7761POPC   C4B36622   6.152  38.428   7.653
 7762POPC   NC336623  11.287  20.646   9.453
 7762POPC   PO436624  11.344  20.638   9.153
 7762POPC   GL136625  11.300  20.561   8.853
 7762POPC   GL236626  11.395  20.610   8.853
 7762POPC   C1A36627  11.280  20.577   8.553
 7762POPC   D2A36628  11.290  20.591   8.253
 7762POPC   C3A36629  11.296  20.568   7.953
 7762POPC   C4A36630  11.344  20.610   7.653
 7762POPC   C1B36631  11.540  20.588   8.553
 7762POPC   C2B36632  11.502  20.554   8.253
 7762POPC   C3B36633  11.547  20.515   7.953
 7762POPC   C4B36634  11.526  20.604   7.653
 7763POPC   NC336635  10.562  39.189   9.453
 7763POPC   PO436636  10.572  39.203   9.153
 7763POPC   GL136637  10.519  39.208   8.853
 7763POPC   GL236638  10.577  39.381   8.853
 7763POPC   C1A36639  10.518  39.198   8.553
 7763POPC   D2A36640  10.476  39.200   8.253
 7763POPC   C3A36641  10.534  39.248   7.953
 7763POPC   C4A36642  10.554  39.262   7.653
 7763POPC   C1B36643  10.661  39.455   8.553
 7763POPC   C2B36644  10.609  39.472   8.253
 7763POPC   C3B36645  10.590  39.452   7.953
 7763POPC   C4B36646  10.627  39.472   7.653
 7764POPC   NC336647  42.344  34.540   9.453
 7764POPC   PO436648  42.292  34.588   9.153
 7764POPC   GL136649  42.355  34.539   8.853
 7764POPC   GL236650  42.435  34.692   8.853
 7764POPC   C1A36651  42.310  34.603   8.553
 7764POPC   D2A36652  42.332  34.590   8.253
 7764POPC   C3A36653  42.300  34.599   7.953
 7764POPC   C4A36654  42.314  34.565   7.653
 7764POPC   C1B36655  42.479  34.769   8.553
 7764POPC   C2B36656  42.402  34.808   8.253
 7764POPC   C3B36657  42.485  34.802   7.953
 7764POPC   C4B36658  42.497  34.831   7.653
 7765POPC   NC336659  12.069  29.129   9.453
 7765POPC   PO436660  12.055  29.143   9.153
 7765POPC   GL136661  12.125  29.105   8.853
 7765POPC   GL236662  12.099  29.005   8.853
 7765POPC   C1A36663  12.121  29.156   8.553
 7765POPC   D2A36664  12.109  29.160   8.253
 7765POPC   C3A36665  12.045  29.100   7.953
 7765POPC   C4A36666  12.084  29.180   7.653
 7765POPC   C1B36667  12.042  28.905   8.553
 7765POPC   C2B36668  12.023  28.915   8.253
 7765POPC   C3B36669  12.008  28.883   7.953
 7765POPC   C4B36670  12.073  28.873   7.653
 7766POPC   NC336671   6.635  40.754   9.453
 7766POPC   PO436672   6.638  40.742   9.153
 7766POPC   GL136673   6.674  40.786   8.853
 7766POPC   GL236674   6.674  40.955   8.853
 7766POPC   C1A36675   6.607  40.807   8.553
 7766POPC   D2A36676   6.692  40.748   8.253
 7766POPC   C3A36677   6.629  40.761   7.953
 7766POPC   C4A36678   6.691  40.765   7.653
 7766POPC   C1B36679   6.689  41.001   8.553
 7766POPC   C2B36680   6.662  41.011   8.253
 7766POPC   C3B36681   6.626  41.049   7.953
 7766POPC   C4B36682   6.626  41.046   7.653
 7767POPC   NC336683  37.643  23.718   9.453
 7767POPC   PO436684  37.696  23.674   9.153
 7767POPC   GL136685  37.668  23.669   8.853
 7767POPC   GL236686  37.757  23.580   8.853
 7767POPC   C1A36687  37.716  23.703   8.553
 7767POPC   D2A36688  37.687  23.710   8.253
 7767POPC   C3A36689  37.692  23.732   7.953
 7767POPC   C4A36690  37.637  23.737   7.653
 7767POPC   C1B36691  37.780  23.460   8.553
 7767POPC   C2B36692  37.786  23.427   8.253
 7767POPC   C3B36693  37.733  23.472   7.953
 7767POPC   C4B36694  37.746  23.489   7.653
 7768POPC   NC336695  33.766  28.362   9.453
 7768POPC   PO436696  33.786  28.333   9.153
 7768POPC   GL136697  33.813  28.392   8.853
 7768POPC   GL236698  33.700  28.439   8.853
 7768POPC   C1A36699  33.801  28.320   8.553
 7768POPC   D2A36700  33.795  28.410   8.253
 7768POPC   C3A36701  33.827  28.336   7.953
 7768POPC   C4A36702  33.790  28.377   7.653
 7768POPC   C1B36703  33.610  28.544   8.553
 7768POPC   C2B36704  33.664  28.569   8.253
 7768POPC   C3B36705  33.610  28.510   7.953
 7768POPC   C4B36706  33.620  28.579   7.653
 7769POPC   NC336707  39.215  12.881   9.453
 7769POPC   PO436708  39.229  12.847   9.153
 7769POPC   GL136709  39.217  12.901   8.853
 7769POPC   GL236710  39.146  12.737   8.853
 7769POPC   C1A36711  39.183  12.881   8.553
 7769POPC   D2A36712  39.233  12.869   8.253
 7769POPC   C3A36713  39.251  12.888   7.953
 7769POPC   C4A36714  39.270  12.895   7.653
 7769POPC   C1B36715  39.067  12.752   8.553
 7769POPC   C2B36716  38.984  12.688   8.253
 7769POPC   C3B36717  39.056  12.711   7.953
 7769POPC   C4B36718  39.043  12.715   7.653
 7770POPC   NC336719  19.810   1.178   9.453
 7770POPC   PO436720  19.822   1.218   9.153
 7770POPC   GL136721  19.836   1.170   8.853
 7770POPC   GL236722  19.935   1.157   8.853
 7770POPC   C1A36723  19.793   1.247   8.553
 7770POPC   D2A36724  19.842   1.253   8.253
 7770POPC   C3A36725  19.827   1.186   7.953
 7770POPC   C4A36726  19.853   1.207   7.653
 7770POPC   C1B36727  20.023   1.078   8.553
 7770POPC   C2B36728  20.026   1.097   8.253
 7770POPC   C3B36729  20.042   1.047   7.953
 7770POPC   C4B36730  20.075   1.079   7.653
 7771POPC   NC336731  36.149  13.617   9.453
 7771POPC   PO436732  36.129  13.657   9.153
 7771POPC   GL136733  36.135  13.630   8.853
 7771POPC   GL236734  36.233  13.640   8.853
 7771POPC   C1A36735  36.095  13.628   8.553
 7771POPC   D2A36736  36.096  13.581   8.253
 7771POPC   C3A36737  36.165  13.663   7.953
 7771POPC   C4A36738  36.168  13.647   7.653
 7771POPC   C1B36739  36.337  13.619   8.553
 7771POPC   C2B36740  36.409  13.613   8.253
 7771POPC   C3B36741  36.360  13.617   7.953
 7771POPC   C4B36742  36.377  13.620   7.653
 7772POPC   NC336743  36.131  24.475   9.453
 7772POPC   PO436744  36.090  24.496   9.153
 7772POPC   GL136745  36.126  24.498   8.853
 7772POPC   GL236746  36.063  24.576   8.853
 7772POPC   C1A36747  36.138  24.467   8.553
 7772POPC   D2A36748  36.082  24.445   8.253
 7772POPC   C3A36749  36.121  24.525   7.953
 7772POPC   C4A36750  36.157  24.467   7.653
 7772POPC   C1B36751  35.968  24.684   8.553
 7772POPC   C2B36752  36.004  24.670   8.253
 7772POPC   C3B36753  35.923  24.638   7.953
 7772POPC   C4B36754  35.999  24.708   7.653
 7773POPC   NC336755   8.178  35.339   9.453
 7773POPC   PO436756   8.221  35.329   9.153
 7773POPC   GL136757   8.236  35.395   8.853
 7773POPC   GL236758   8.313  35.212   8.853
 7773POPC   C1A36759   8.147  35.365   8.553
 7773POPC   D2A36760   8.200  35.330   8.253
 7773POPC   C3A36761   8.157  35.352   7.953
 7773POPC   C4A36762   8.244  35.373   7.653
 7773POPC   C1B36763   8.359  35.150   8.553
 7773POPC   C2B36764   8.338  35.144   8.253
 7773POPC   C3B36765   8.357  35.154   7.953
 7773POPC   C4B36766   8.388  35.208   7.653
 7774POPC   NC336767  10.522   5.090   9.453
 7774POPC   PO436768  10.481   5.143   9.153
 7774POPC   GL136769  10.511   5.058   8.853
 7774POPC   GL236770  10.629   5.163   8.853
 7774POPC   C1A36771  10.525   5.109   8.553
 7774POPC   D2A36772  10.478   5.045   8.253
 7774POPC   C3A36773  10.557   5.090   7.953
 7774POPC   C4A36774  10.482   5.074   7.653
 7774POPC   C1B36775  10.722   5.143   8.553
 7774POPC   C2B36776  10.771   5.155   8.253
 7774POPC   C3B36777  10.799   5.134   7.953
 7774POPC   C4B36778  10.715   5.144   7.653
 7775POPC   NC336779  18.233  42.367   9.453
 7775POPC   PO436780  18.241  42.337   9.153
 7775POPC   GL136781  18.285  42.329   8.853
 7775POPC   GL236782  18.181  42.282   8.853
 7775POPC   C1A36783  18.299  42.358   8.553
 7775POPC   D2A36784  18.310  42.292   8.253
 7775POPC   C3A36785  18.251  42.342   7.953
 7775POPC   C4A36786  18.274  42.375   7.653
 7775POPC   C1B36787  18.038  42.342   8.553
 7775POPC   C2B36788  18.076  42.305   8.253
 7775POPC   C3B36789  18.024  42.289   7.953
 7775POPC   C4B36790  18.038  42.320   7.653
 7776POPC   NC336791  26.856  36.868   9.453
 7776POPC   PO436792  26.785  36.868   9.153
 7776POPC   GL136793  26.813  36.941   8.853
 7776POPC   GL236794  26.914  36.763   8.853
 7776POPC   C1A36795  26.806  36.874   8.553
 7776POPC   D2A36796  26.812  36.916   8.253
 7776POPC   C3A36797  26.828  36.857   7.953
 7776POPC   C4A36798  26.779  36.937   7.653
 7776POPC   C1B36799  26.940  36.675   8.553
 7776POPC   C2B36800  26.947  36.681   8.253
 7776POPC   C3B36801  26.964  36.709   7.953
 7776POPC   C4B36802  26.958  36.698   7.653
 7777POPC   NC336803  11.321  29.874   9.453
 7777POPC   PO436804  11.340  29.931   9.153
 7777POPC   GL136805  11.320  29.946   8.853
 7777POPC   GL236806  11.339  29.997   8.853
 7777POPC   C1A36807  11.291  29.907   8.553
 7777POPC   D2A36808  11.319  29.884   8.253
 7777POPC   C3A36809  11.306  29.954   7.953
 7777POPC   C4A36810  11.280  29.920   7.653
 7777POPC   C1B36811  11.379  30.178   8.553
 7777POPC   C2B36812  11.323  30.168   8.253
 7777POPC   C3B36813  11.317  30.201   7.953
 7777POPC   C4B36814  11.380  30.137   7.653
 7778POPC   NC336815   7.397   1.185   9.453
 7778POPC   PO436816   7.408   1.230   9.153
 7778POPC   GL136817   7.395   1.211   8.853
 7778POPC   GL236818   7.287   1.198   8.853
 7778POPC   C1A36819   7.396   1.233   8.553
 7778POPC   D2A36820   7.407   1.177   8.253
 7778POPC   C3A36821   7.463   1.223   7.953
 7778POPC   C4A36822   7.460   1.238   7.653
 7778POPC   C1B36823   7.216   1.209   8.553
 7778POPC   C2B36824   7.207   1.147   8.253
 7778POPC   C3B36825   7.203   1.171   7.953
 7778POPC   C4B36826   7.186   1.200   7.653
 7779POPC   NC336827  43.132  13.603   9.453
 7779POPC   PO436828  43.090  13.608   9.153
 7779POPC   GL136829  43.104  13.635   8.853
 7779POPC   GL236830  43.072  13.714   8.853
 7779POPC   C1A36831  43.135  13.668   8.553
 7779POPC   D2A36832  43.089  13.585   8.253
 7779POPC   C3A36833  43.132  13.581   7.953
 7779POPC   C4A36834  43.159  13.621   7.653
 7779POPC   C1B36835  43.049  13.810   8.553
 7779POPC   C2B36836  42.963  13.885   8.253
 7779POPC   C3B36837  43.038  13.868   7.953
 7779POPC   C4B36838  43.005  13.841   7.653
 7780POPC   NC336839  36.161  19.095   9.453
 7780POPC   PO436840  36.083  19.010   9.153
 7780POPC   GL136841  36.167  19.032   8.853
 7780POPC   GL236842  35.994  18.999   8.853
 7780POPC   C1A36843  36.101  19.038   8.553
 7780POPC   D2A36844  36.153  19.024   8.253
 7780POPC   C3A36845  36.114  19.021   7.953
 7780POPC   C4A36846  36.146  19.071   7.653
 7780POPC   C1B36847  35.948  18.904   8.553
 7780POPC   C2B36848  35.980  18.849   8.253
 7780POPC   C3B36849  35.921  18.860   7.953
 7780POPC   C4B36850  35.924  18.890   7.653
 7781POPC   NC336851  19.801   5.080   9.453
 7781POPC   PO436852  19.802   5.117   9.153
 7781POPC   GL136853  19.788   5.102   8.853
 7781POPC   GL236854  19.843   5.230   8.853
 7781POPC   C1A36855  19.818   5.115   8.553
 7781POPC   D2A36856  19.805   5.113   8.253
 7781POPC   C3A36857  19.823   5.138   7.953
 7781POPC   C4A36858  19.873   5.133   7.653
 7781POPC   C1B36859  19.821   5.312   8.553
 7781POPC   C2B36860  19.900   5.293   8.253
 7781POPC   C3B36861  19.813   5.344   7.953
 7781POPC   C4B36862  19.854   5.318   7.653
 7782POPC   NC336863  18.301  30.742   9.453
 7782POPC   PO436864  18.260  30.693   9.153
 7782POPC   GL136865  18.239  30.738   8.853
 7782POPC   GL236866  18.383  30.696   8.853
 7782POPC   C1A36867  18.327  30.720   8.553
 7782POPC   D2A36868  18.247  30.661   8.253
 7782POPC   C3A36869  18.265  30.670   7.953
 7782POPC   C4A36870  18.288  30.674   7.653
 7782POPC   C1B36871  18.511  30.749   8.553
 7782POPC   C2B36872  18.530  30.720   8.253
 7782POPC   C3B36873  18.522  30.759   7.953
 7782POPC   C4B36874  18.543  30.696   7.653
 7783POPC   NC336875  35.307  25.298   9.453
 7783POPC   PO436876  35.397  25.293   9.153
 7783POPC   GL136877  35.312  25.314   8.853
 7783POPC   GL236878  35.388  25.374   8.853
 7783POPC   C1A36879  35.328  25.243   8.553
 7783POPC   D2A36880  35.320  25.223   8.253
 7783POPC   C3A36881  35.367  25.293   7.953
 7783POPC   C4A36882  35.325  25.235   7.653
 7783POPC   C1B36883  35.428  25.530   8.553
 7783POPC   C2B36884  35.437  25.482   8.253
 7783POPC   C3B36885  35.473  25.550   7.953
 7783POPC   C4B36886  35.387  25.503   7.653
 7784POPC   NC336887  10.509   5.912   9.453
 7784POPC   PO436888  10.491   5.871   9.153
 7784POPC   GL136889  10.515   5.864   8.853
 7784POPC   GL236890  10.661   5.932   8.853
 7784POPC   C1A36891  10.522   5.902   8.553
 7784POPC   D2A36892  10.513   5.839   8.253
 7784POPC   C3A36893  10.514   5.825   7.953
 7784POPC   C4A36894  10.477   5.882   7.653
 7784POPC   C1B36895  10.754   6.010   8.553
 7784POPC   C2B36896  10.752   5.969   8.253
 7784POPC   C3B36897  10.694   5.951   7.953
 7784POPC   C4B36898  10.737   6.012   7.653
 7785POPC   NC336899  26.069  23.729   9.453
 7785POPC   PO436900  26.041  23.712   9.153
 7785POPC   GL136901  26.020  23.759   8.853
 7785POPC   GL236902  26.123  23.725   8.853
 7785POPC   C1A36903  26.038  23.676   8.553
 7785POPC   D2A36904  26.027  23.671   8.253
 7785POPC   C3A36905  26.078  23.675   7.953
 7785POPC   C4A36906  26.050  23.717   7.653
 7785POPC   C1B36907  26.309  23.780   8.553
 7785POPC   C2B36908  26.333  23.791   8.253
 7785POPC   C3B36909  26.315  23.801   7.953
 7785POPC   C4B36910  26.261  23.792   7.653
 7786POPC   NC336911  25.260  41.533   9.453
 7786POPC   PO436912  25.297  41.582   9.153
 7786POPC   GL136913  25.287  41.547   8.853
 7786POPC   GL236914  25.336  41.535   8.853
 7786POPC   C1A36915  25.250  41.554   8.553
 7786POPC   D2A36916  25.248  41.512   8.253
 7786POPC   C3A36917  25.240  41.511   7.953
 7786POPC   C4A36918  25.275  41.520   7.653
 7786POPC   C1B36919  25.476  41.476   8.553
 7786POPC   C2B36920  25.444  41.463   8.253
 7786POPC   C3B36921  25.472  41.470   7.953
 7786POPC   C4B36922  25.501  41.437   7.653
 7787POPC   NC336923  35.308   0.407   9.453
 7787POPC   PO436924  35.350   0.399   9.153
 7787POPC   GL136925  35.309   0.426   8.853
 7787POPC   GL236926  35.482   0.474   8.853
 7787POPC   C1A36927  35.324   0.464   8.553
 7787POPC   D2A36928  35.385   0.425   8.253
 7787POPC   C3A36929  35.303   0.391   7.953
 7787POPC   C4A36930  35.378   0.419   7.653
 7787POPC   C1B36931  35.648   0.475   8.553
 7787POPC   C2B36932  35.564   0.470   8.253
 7787POPC   C3B36933  35.554   0.507   7.953
 7787POPC   C4B36934  35.579   0.431   7.653
 7788POPC   NC336935   8.924  19.827   9.453
 7788POPC   PO436936   8.926  19.790   9.153
 7788POPC   GL136937   9.003  19.812   8.853
 7788POPC   GL236938   9.056  19.910   8.853
 7788POPC   C1A36939   8.967  19.864   8.553
 7788POPC   D2A36940   8.992  19.791   8.253
 7788POPC   C3A36941   8.943  19.849   7.953
 7788POPC   C4A36942   8.986  19.845   7.653
 7788POPC   C1B36943   9.209  19.988   8.553
 7788POPC   C2B36944   9.157  19.951   8.253
 7788POPC   C3B36945   9.171  19.919   7.953
 7788POPC   C4B36946   9.223  19.992   7.653
 7789POPC   NC336947  15.191  22.177   9.453
 7789POPC   PO436948  15.187  22.166   9.153
 7789POPC   GL136949  15.194  22.140   8.853
 7789POPC   GL236950  15.213  22.260   8.853
 7789POPC   C1A36951  15.180  22.189   8.553
 7789POPC   D2A36952  15.228  22.134   8.253
 7789POPC   C3A36953  15.153  22.175   7.953
 7789POPC   C4A36954  15.211  22.167   7.653
 7789POPC   C1B36955  15.395  22.380   8.553
 7789POPC   C2B36956  15.333  22.314   8.253
 7789POPC   C3B36957  15.362  22.338   7.953
 7789POPC   C4B36958  15.339  22.396   7.653
 7790POPC   NC336959  16.002  21.366   9.453
 7790POPC   PO436960  15.995  21.374   9.153
 7790POPC   GL136961  15.977  21.401   8.853
 7790POPC   GL236962  15.967  21.215   8.853
 7790POPC   C1A36963  15.968  21.427   8.553
 7790POPC   D2A36964  15.913  21.433   8.253
 7790POPC   C3A36965  15.910  21.384   7.953
 7790POPC   C4A36966  15.975  21.395   7.653
 7790POPC   C1B36967  15.911  21.178   8.553
 7790POPC   C2B36968  15.936  21.141   8.253
 7790POPC   C3B36969  15.917  21.186   7.953
 7790POPC   C4B36970  15.992  21.087   7.653
 7791POPC   NC336971   9.745  33.780   9.453
 7791POPC   PO436972   9.740  33.782   9.153
 7791POPC   GL136973   9.793  33.832   8.853
 7791POPC   GL236974   9.664  33.734   8.853
 7791POPC   C1A36975   9.743  33.764   8.553
 7791POPC   D2A36976   9.792  33.833   8.253
 7791POPC   C3A36977   9.798  33.788   7.953
 7791POPC   C4A36978   9.727  33.777   7.653
 7791POPC   C1B36979   9.660  33.602   8.553
 7791POPC   C2B36980   9.647  33.550   8.253
 7791POPC   C3B36981   9.677  33.547   7.953
 7791POPC   C4B36982   9.686  33.557   7.653
 7792POPC   NC336983  26.827  43.914   9.453
 7792POPC   PO436984  26.862  43.861   9.153
 7792POPC   GL136985  26.796  43.921   8.853
 7792POPC   GL236986  26.831  43.754   8.853
 7792POPC   C1A36987  26.825  43.934   8.553
 7792POPC   D2A36988  26.823  43.885   8.253
 7792POPC   C3A36989  26.844  43.875   7.953
 7792POPC   C4A36990  26.847  43.887   7.653
 7792POPC   C1B36991  26.867  43.643   8.553
 7792POPC   C2B36992  26.796  43.588   8.253
 7792POPC   C3B36993  26.848  43.638   7.953
 7792POPC   C4B36994  26.831  43.666   7.653
 7793POPC   NC336995   3.536   4.358   9.453
 7793POPC   PO436996   3.505   4.351   9.153
 7793POPC   GL136997   3.542   4.337   8.853
 7793POPC   GL236998   3.415   4.281   8.853
 7793POPC   C1A36999   3.571   4.281   8.553
 7793POPC   D2A37000   3.563   4.309   8.253
 7793POPC   C3A37001   3.531   4.291   7.953
 7793POPC   C4A37002   3.525   4.312   7.653
 7793POPC   C1B37003   3.320   4.231   8.553
 7793POPC   C2B37004   3.326   4.245   8.253
 7793POPC   C3B37005   3.280   4.224   7.953
 7793POPC   C4B37006   3.326   4.147   7.653
 7794POPC   NC337007  32.291  43.135   9.453
 7794POPC   PO437008  32.229  43.109   9.153
 7794POPC   GL137009  32.276  43.069   8.853
 7794POPC   GL237010  32.343  43.233   8.853
 7794POPC   C1A37011  32.237  43.113   8.553
 7794POPC   D2A37012  32.254  43.157   8.253
 7794POPC   C3A37013  32.270  43.138   7.953
 7794POPC   C4A37014  32.205  43.120   7.653
 7794POPC   C1B37015  32.375  43.292   8.553
 7794POPC   C2B37016  32.368  43.376   8.253
 7794POPC   C3B37017  32.305  43.372   7.953
 7794POPC   C4B37018  32.328  43.305   7.653
 7795POPC   NC337019  37.715  17.465   9.453
 7795POPC   PO437020  37.646  17.524   9.153
 7795POPC   GL137021  37.725  17.460   8.853
 7795POPC   GL237022  37.704  17.617   8.853
 7795POPC   C1A37023  37.659  17.525   8.553
 7795POPC   D2A37024  37.653  17.544   8.253
 7795POPC   C3A37025  37.644  17.467   7.953
 7795POPC   C4A37026  37.644  17.542   7.653
 7795POPC   C1B37027  37.683  17.752   8.553
 7795POPC   C2B37028  37.663  17.787   8.253
 7795POPC   C3B37029  37.655  17.727   7.953
 7795POPC   C4B37030  37.653  17.707   7.653
 7796POPC   NC337031  43.160   8.989   9.453
 7796POPC   PO437032  43.120   8.927   9.153
 7796POPC   GL137033  43.109   8.944   8.853
 7796POPC   GL237034  43.029   8.901   8.853
 7796POPC   C1A37035  43.076   8.936   8.553
 7796POPC   D2A37036  43.074   8.949   8.253
 7796POPC   C3A37037  43.133   8.941   7.953
 7796POPC   C4A37038  43.069   8.948   7.653
 7796POPC   C1B37039  42.912   8.909   8.553
 7796POPC   C2B37040  42.849   8.887   8.253
 7796POPC   C3B37041  42.887   8.896   7.953
 7796POPC   C4B37042  42.845   8.938   7.653
 7797POPC   NC337043  15.928  36.093   9.453
 7797POPC   PO437044  16.003  36.107   9.153
 7797POPC   GL137045  15.953  36.128   8.853
 7797POPC   GL237046  16.021  36.202   8.853
 7797POPC   C1A37047  15.957  36.100   8.553
 7797POPC   D2A37048  15.985  36.142   8.253
 7797POPC   C3A37049  15.908  36.146   7.953
 7797POPC   C4A37050  15.971  36.122   7.653
 7797POPC   C1B37051  16.015  36.363   8.553
 7797POPC   C2B37052  16.071  36.397   8.253
 7797POPC   C3B37053  16.066  36.325   7.953
 7797POPC   C4B37054  16.016  36.315   7.653
 7798POPC   NC337055  11.268  38.439   9.453
 7798POPC   PO437056  11.268  38.441   9.153
 7798POPC   GL137057  11.265  38.442   8.853
 7798POPC   GL237058  11.162  38.401   8.853
 7798POPC   C1A37059  11.330  38.473   8.553
 7798POPC   D2A37060  11.281  38.484   8.253
 7798POPC   C3A37061  11.314  38.482   7.953
 7798POPC   C4A37062  11.313  38.453   7.653
 7798POPC   C1B37063  11.088  38.408   8.553
 7798POPC   C2B37064  11.087  38.395   8.253
 7798POPC   C3B37065  11.006  38.401   7.953
 7798POPC   C4B37066  11.036  38.415   7.653
 7799POPC   NC337067  25.224  14.383   9.453
 7799POPC   PO437068  25.219  14.369   9.153
 7799POPC   GL137069  25.233  14.420   8.853
 7799POPC   GL237070  25.273  14.555   8.853
 7799POPC   C1A37071  25.295  14.389   8.553
 7799POPC   D2A37072  25.233  14.413   8.253
 7799POPC   C3A37073  25.246  14.421   7.953
 7799POPC   C4A37074  25.269  14.394   7.653
 7799POPC   C1B37075  25.338  14.695   8.553
 7799POPC   C2B37076  25.361  14.694   8.253
 7799POPC   C3B37077  25.374  14.642   7.953
 7799POPC   C4B37078  25.330  14.648   7.653
 7800POPC   NC337079  38.466  12.849   9.453
 7800POPC   PO437080  38.441  12.804   9.153
 7800POPC   GL137081  38.455  12.873   8.853
 7800POPC   GL237082  38.363  12.766   8.853
 7800POPC   C1A37083  38.416  12.803   8.553
 7800POPC   D2A37084  38.501  12.899   8.253
 7800POPC   C3A37085  38.454  12.877   7.953
 7800POPC   C4A37086  38.469  12.851   7.653
 7800POPC   C1B37087  38.351  12.644   8.553
 7800POPC   C2B37088  38.335  12.665   8.253
 7800POPC   C3B37089  38.389  12.580   7.953
 7800POPC   C4B37090  38.369  12.601   7.653
 7801POPC   NC337091   0.410  32.977   9.453
 7801POPC   PO437092   0.463  33.022   9.153
 7801POPC   GL137093   0.388  32.993   8.853
 7801POPC   GL237094   0.423  33.114   8.853
 7801POPC   C1A37095   0.479  32.992   8.553
 7801POPC   D2A37096   0.455  33.064   8.253
 7801POPC   C3A37097   0.435  33.040   7.953
 7801POPC   C4A37098   0.442  32.998   7.653
 7801POPC   C1B37099   0.466  33.271   8.553
 7801POPC   C2B37100   0.438  33.309   8.253
 7801POPC   C3B37101   0.456  33.245   7.953
 7801POPC   C4B37102   0.496  33.322   7.653
 7802POPC   NC337103   5.044  38.429   9.453
 7802POPC   PO437104   5.128  38.417   9.153
 7802POPC   GL137105   5.080  38.446   8.853
 7802POPC   GL237106   5.250  38.490   8.853
 7802POPC   C1A37107   5.097  38.499   8.553
 7802POPC   D2A37108   5.125  38.475   8.253
 7802POPC   C3A37109   5.125  38.451   7.953
 7802POPC   C4A37110   5.115  38.483   7.653
 7802POPC   C1B37111   5.284  38.596   8.553
 7802POPC   C2B37112   5.293  38.524   8.253
 7802POPC   C3B37113   5.318  38.613   7.953
 7802POPC   C4B37114   5.364  38.515   7.653
 7803POPC   NC337115  14.389  19.818   9.453
 7803POPC   PO437116  14.374  19.790   9.153
 7803POPC   GL137117  14.428  19.824   8.853
 7803POPC   GL237118  14.509  19.737   8.853
 7803POPC   C1A37119  14.429  19.882   8.553
 7803POPC   D2A37120  14.414  19.856   8.253
 7803POPC   C3A37121  14.375  19.808   7.953
 7803POPC   C4A37122  14.432  19.793   7.653
 7803POPC   C1B37123  14.569  19.599   8.553
 7803POPC   C2B37124  14.538  19.590   8.253
 7803POPC   C3B37125  14.481  19.569   7.953
 7803POPC   C4B37126  14.534  19.634   7.653
 7804POPC   NC337127   0.398  29.191   9.453
 7804POPC   PO437128   0.455  29.192   9.153
 7804POPC   GL137129   0.427  29.163   8.853
 7804POPC   GL237130   0.537  29.025   8.853
 7804POPC   C1A37131   0.410  29.192   8.553
 7804POPC   D2A37132   0.393  29.153   8.253
 7804POPC   C3A37133   0.466  29.111   7.953
 7804POPC   C4A37134   0.428  29.122   7.653
 7804POPC   C1B37135   0.649  28.954   8.553
 7804POPC   C2B37136   0.608  28.997   8.253
 7804POPC   C3B37137   0.603  28.968   7.953
 7804POPC   C4B37138   0.655  28.995   7.653
 7805POPC   NC337139  43.091   9.737   9.453
 7805POPC   PO437140  43.134   9.741   9.153
 7805POPC   GL137141  43.085   9.775   8.853
 7805POPC   GL237142  43.201   9.833   8.853
 7805POPC   C1A37143  43.100   9.760   8.553
 7805POPC   D2A37144  43.120   9.735   8.253
 7805POPC   C3A37145  43.159   9.789   7.953
 7805POPC   C4A37146  43.150   9.728   7.653
 7805POPC   C1B37147  43.242   9.966   8.553
 7805POPC   C2B37148  43.261   9.958   8.253
 7805POPC   C3B37149  43.273   9.912   7.953
 7805POPC   C4B37150  43.241   9.988   7.653
 7806POPC   NC337151  44.691   0.466   9.453
 7806POPC   PO437152  44.641   0.454   9.153
 7806POPC   GL137153  44.616   0.471   8.853
 7806POPC   GL237154  44.623   0.562   8.853
 7806POPC   C1A37155  44.648   0.482   8.553
 7806POPC   D2A37156  44.671   0.406   8.253
 7806POPC   C3A37157  44.644   0.434   7.953
 7806POPC   C4A37158  44.663   0.445   7.653
 7806POPC   C1B37159  44.563   0.641   8.553
 7806POPC   C2B37160  44.565   0.664   8.253
 7806POPC   C3B37161  44.524   0.650   7.953
 7806POPC   C4B37162  44.529   0.692   7.653
 7807POPC   NC337163  43.855  15.955   9.453
 7807POPC   PO437164  43.925  15.969   9.153
 7807POPC   GL137165  43.868  15.996   8.853
 7807POPC   GL237166  43.852  15.840   8.853
 7807POPC   C1A37167  43.882  15.947   8.553
 7807POPC   D2A37168  43.879  15.922   8.253
 7807POPC   C3A37169  43.856  15.922   7.953
 7807POPC   C4A37170  43.920  15.972   7.653
 7807POPC   C1B37171  43.892  15.698   8.553
 7807POPC   C2B37172  43.846  15.673   8.253
 7807POPC   C3B37173  43.828  15.703   7.953
 7807POPC   C4B37174  43.908  15.753   7.653
 7808POPC   NC337175  27.600  19.090   9.453
 7808POPC   PO437176  27.566  19.048   9.153
 7808POPC   GL137177  27.598  19.072   8.853
 7808POPC   GL237178  27.698  19.102   8.853
 7808POPC   C1A37179  27.621  19.023   8.553
 7808POPC   D2A37180  27.642  19.019   8.253
 7808POPC   C3A37181  27.626  19.048   7.953
 7808POPC   C4A37182  27.571  19.023   7.653
 7808POPC   C1B37183  27.781  19.113   8.553
 7808POPC   C2B37184  27.800  19.110   8.253
 7808POPC   C3B37185  27.820  19.107   7.953
 7808POPC   C4B37186  27.796  19.100   7.653
 7809POPC   NC337187   4.291  26.085   9.453
 7809POPC   PO437188   4.290  26.012   9.153
 7809POPC   GL137189   4.367  26.017   8.853
 7809POPC   GL237190   4.376  26.196   8.853
 7809POPC   C1A37191   4.281  26.032   8.553
 7809POPC   D2A37192   4.303  26.053   8.253
 7809POPC   C3A37193   4.272  25.993   7.953
 7809POPC   C4A37194   4.367  26.001   7.653
 7809POPC   C1B37195   4.428  26.264   8.553
 7809POPC   C2B37196   4.402  26.240   8.253
 7809POPC   C3B37197   4.442  26.276   7.953
 7809POPC   C4B37198   4.435  26.301   7.653
 7810POPC   NC337199  32.260  23.762   9.453
 7810POPC   PO437200  32.286  23.721   9.153
 7810POPC   GL137201  32.236  23.749   8.853
 7810POPC   GL237202  32.090  23.726   8.853
 7810POPC   C1A37203  32.233  23.718   8.553
 7810POPC   D2A37204  32.264  23.732   8.253
 7810POPC   C3A37205  32.223  23.672   7.953
 7810POPC   C4A37206  32.276  23.672   7.653
 7810POPC   C1B37207  31.963  23.771   8.553
 7810POPC   C2B37208  32.017  23.701   8.253
 7810POPC   C3B37209  32.030  23.723   7.953
 7810POPC   C4B37210  32.031  23.738   7.653
 7811POPC   NC337211  17.518  36.134   9.453
 7811POPC   PO437212  17.542  36.102   9.153
 7811POPC   GL137213  17.485  36.157   8.853
 7811POPC   GL237214  17.541  36.272   8.853
 7811POPC   C1A37215  17.554  36.085   8.553
 7811POPC   D2A37216  17.556  36.080   8.253
 7811POPC   C3A37217  17.515  36.147   7.953
 7811POPC   C4A37218  17.552  36.152   7.653
 7811POPC   C1B37219  17.616  36.283   8.553
 7811POPC   C2B37220  17.663  36.347   8.253
 7811POPC   C3B37221  17.625  36.345   7.953
 7811POPC   C4B37222  17.662  36.343   7.653
 7812POPC   NC337223  35.303  13.674   9.453
 7812POPC   PO437224  35.377  13.630   9.153
 7812POPC   GL137225  35.313  13.637   8.853
 7812POPC   GL237226  35.434  13.584   8.853
 7812POPC   C1A37227  35.370  13.578   8.553
 7812POPC   D2A37228  35.376  13.578   8.253
 7812POPC   C3A37229  35.363  13.603   7.953
 7812POPC   C4A37230  35.325  13.669   7.653
 7812POPC   C1B37231  35.510  13.443   8.553
 7812POPC   C2B37232  35.545  13.473   8.253
 7812POPC   C3B37233  35.564  13.453   7.953
 7812POPC   C4B37234  35.533  13.479   7.653
 7813POPC   NC337235  21.413   5.822   9.453
 7813POPC   PO437236  21.426   5.902   9.153
 7813POPC   GL137237  21.421   5.853   8.853
 7813POPC   GL237238  21.449   5.979   8.853
 7813POPC   C1A37239  21.387   5.851   8.553
 7813POPC   D2A37240  21.370   5.885   8.253
 7813POPC   C3A37241  21.393   5.863   7.953
 7813POPC   C4A37242  21.401   5.877   7.653
 7813POPC   C1B37243  21.511   6.100   8.553
 7813POPC   C2B37244  21.517   6.068   8.253
 7813POPC   C3B37245  21.494   6.053   7.953
 7813POPC   C4B37246  21.584   6.059   7.653
 7814POPC   NC337247  12.878  30.691   9.453
 7814POPC   PO437248  12.836  30.671   9.153
 7814POPC   GL137249  12.858  30.669   8.853
 7814POPC   GL237250  12.900  30.813   8.853
 7814POPC   C1A37251  12.823  30.738   8.553
 7814POPC   D2A37252  12.855  30.737   8.253
 7814POPC   C3A37253  12.854  30.695   7.953
 7814POPC   C4A37254  12.839  30.666   7.653
 7814POPC   C1B37255  12.906  30.960   8.553
 7814POPC   C2B37256  12.987  30.891   8.253
 7814POPC   C3B37257  12.910  30.980   7.953
 7814POPC   C4B37258  12.899  30.912   7.653
 7815POPC   NC337259   6.634  11.258   9.453
 7815POPC   PO437260   6.682  11.334   9.153
 7815POPC   GL137261   6.631  11.311   8.853
 7815POPC   GL237262   6.720  11.160   8.853
 7815POPC   C1A37263   6.667  11.271   8.553
 7815POPC   D2A37264   6.662  11.345   8.253
 7815POPC   C3A37265   6.653  11.305   7.953
 7815POPC   C4A37266   6.624  11.329   7.653
 7815POPC   C1B37267   6.792  11.096   8.553
 7815POPC   C2B37268   6.754  11.076   8.253
 7815POPC   C3B37269   6.770  11.116   7.953
 7815POPC   C4B37270   6.725  11.095   7.653
 7816POPC   NC337271  13.655  12.847   9.453
 7816POPC   PO437272  13.599  12.899   9.153
 7816POPC   GL137273  13.630  12.826   8.853
 7816POPC   GL237274  13.749  12.843   8.853
 7816POPC   C1A37275  13.663  12.899   8.553
 7816POPC   D2A37276  13.654  12.888   8.253
 7816POPC   C3A37277  13.588  12.804   7.953
 7816POPC   C4A37278  13.665  12.851   7.653
 7816POPC   C1B37279  13.890  12.848   8.553
 7816POPC   C2B37280  13.904  12.839   8.253
 7816POPC   C3B37281  13.858  12.875   7.953
 7816POPC   C4B37282  13.904  12.865   7.653
 7817POPC   NC337283  18.276  12.123   9.453
 7817POPC   PO437284  18.314  12.035   9.153
 7817POPC   GL137285  18.283  12.036   8.853
 7817POPC   GL237286  18.399  12.059   8.853
 7817POPC   C1A37287  18.252  12.052   8.553
 7817POPC   D2A37288  18.248  12.069   8.253
 7817POPC   C3A37289  18.262  12.102   7.953
 7817POPC   C4A37290  18.257  12.027   7.653
 7817POPC   C1B37291  18.484  12.135   8.553
 7817POPC   C2B37292  18.525  12.111   8.253
 7817POPC   C3B37293  18.492  12.058   7.953
 7817POPC   C4B37294  18.505  12.072   7.653
 7818POPC   NC337295  44.704  32.992   9.453
 7818POPC   PO437296  44.679  33.002   9.153
 7818POPC   GL137297  44.699  32.980   8.853
 7818POPC   GL237298  44.803  33.025   8.853
 7818POPC   C1A37299  44.673  33.063   8.553
 7818POPC   D2A37300  44.618  32.983   8.253
 7818POPC   C3A37301  44.665  33.043   7.953
 7818POPC   C4A37302  44.706  33.063   7.653
 7818POPC   C1B37303  44.859  33.066   8.553
 7818POPC   C2B37304  44.934  33.092   8.253
 7818POPC   C3B37305  44.930  33.086   7.953
 7818POPC   C4B37306  44.919  33.042   7.653
 7819POPC   NC337307  25.308   2.813   9.453
 7819POPC   PO437308  25.312   2.750   9.153
 7819POPC   GL137309  25.221   2.763   8.853
 7819POPC   GL237310  25.341   2.742   8.853
 7819POPC   C1A37311  25.282   2.738   8.553
 7819POPC   D2A37312  25.286   2.797   8.253
 7819POPC   C3A37313  25.261   2.796   7.953
 7819POPC   C4A37314  25.260   2.775   7.653
 7819POPC   C1B37315  25.524   2.760   8.553
 7819POPC   C2B37316  25.511   2.798   8.253
 7819POPC   C3B37317  25.530   2.724   7.953
 7819POPC   C4B37318  25.564   2.776   7.653
 7820POPC   NC337319  38.491   3.539   9.453
 7820POPC   PO437320  38.468   3.497   9.153
 7820POPC   GL137321  38.445   3.555   8.853
 7820POPC   GL237322  38.487   3.643   8.853
 7820POPC   C1A37323  38.472   3.549   8.553
 7820POPC   D2A37324  38.460   3.492   8.253
 7820POPC   C3A37325  38.443   3.551   7.953
 7820POPC   C4A37326  38.485   3.515   7.653
 7820POPC   C1B37327  38.512   3.759   8.553
 7820POPC   C2B37328  38.462   3.753   8.253
 7820POPC   C3B37329  38.490   3.748   7.953
 7820POPC   C4B37330  38.507   3.827   7.653
 7821POPC   NC337331   2.002  13.673   9.453
 7821POPC   PO437332   2.026  13.654   9.153
 7821POPC   GL137333   2.010  13.621   8.853
 7821POPC   GL237334   1.897  13.633   8.853
 7821POPC   C1A37335   2.027  13.661   8.553
 7821POPC   D2A37336   2.017  13.606   8.253
 7821POPC   C3A37337   1.940  13.617   7.953
 7821POPC   C4A37338   2.023  13.608   7.653
 7821POPC   C1B37339   1.701  13.658   8.553
 7821POPC   C2B37340   1.715  13.722   8.253
 7821POPC   C3B37341   1.748  13.722   7.953
 7821POPC   C4B37342   1.768  13.728   7.653
 7822POPC   NC337343  15.177  39.236   9.453
 7822POPC   PO437344  15.151  39.227   9.153
 7822POPC   GL137345  15.140  39.193   8.853
 7822POPC   GL237346  15.248  39.080   8.853
 7822POPC   C1A37347  15.208  39.276   8.553
 7822POPC   D2A37348  15.220  39.238   8.253
 7822POPC   C3A37349  15.148  39.281   7.953
 7822POPC   C4A37350  15.210  39.225   7.653
 7822POPC   C1B37351  15.266  39.063   8.553
 7822POPC   C2B37352  15.262  39.038   8.253
 7822POPC   C3B37353  15.313  39.044   7.953
 7822POPC   C4B37354  15.297  39.011   7.653
 7823POPC   NC337355  33.018   2.019   9.453
 7823POPC   PO437356  33.017   1.987   9.153
 7823POPC   GL137357  32.990   2.019   8.853
 7823POPC   GL237358  33.184   1.991   8.853
 7823POPC   C1A37359  33.003   2.008   8.553
 7823POPC   D2A37360  33.037   2.015   8.253
 7823POPC   C3A37361  33.004   1.961   7.953
 7823POPC   C4A37362  33.020   1.958   7.653
 7823POPC   C1B37363  33.259   1.997   8.553
 7823POPC   C2B37364  33.266   1.987   8.253
 7823POPC   C3B37365  33.247   1.967   7.953
 7823POPC   C4B37366  33.268   2.000   7.653
 7824POPC   NC337367  30.736  43.898   9.453
 7824POPC   PO437368  30.680  43.921   9.153
 7824POPC   GL137369  30.725  43.844   8.853
 7824POPC   GL237370  30.598  44.019   8.853
 7824POPC   C1A37371  30.651  43.848   8.553
 7824POPC   D2A37372  30.661  43.910   8.253
 7824POPC   C3A37373  30.698  43.840   7.953
 7824POPC   C4A37374  30.746  43.895   7.653
 7824POPC   C1B37375  30.565  44.053   8.553
 7824POPC   C2B37376  30.585  44.084   8.253
 7824POPC   C3B37377  30.524  44.086   7.953
 7824POPC   C4B37378  30.546  44.057   7.653
 7825POPC   NC337379   3.501  36.122   9.453
 7825POPC   PO437380   3.583  36.140   9.153
 7825POPC   GL137381   3.580  36.102   8.853
 7825POPC   GL237382   3.480  36.101   8.853
 7825POPC   C1A37383   3.588  36.170   8.553
 7825POPC   D2A37384   3.524  36.105   8.253
 7825POPC   C3A37385   3.570  36.110   7.953
 7825POPC   C4A37386   3.555  36.109   7.653
 7825POPC   C1B37387   3.334  36.017   8.553
 7825POPC   C2B37388   3.308  36.025   8.253
 7825POPC   C3B37389   3.358  36.038   7.953
 7825POPC   C4B37390   3.360  36.040   7.653
 7826POPC   NC337391   0.410  28.414   9.453
 7826POPC   PO437392   0.426  28.411   9.153
 7826POPC   GL137393   0.447  28.402   8.853
 7826POPC   GL237394   0.395  28.458   8.853
 7826POPC   C1A37395   0.445  28.365   8.553
 7826POPC   D2A37396   0.436  28.384   8.253
 7826POPC   C3A37397   0.391  28.355   7.953
 7826POPC   C4A37398   0.476  28.347   7.653
 7826POPC   C1B37399   0.327  28.652   8.553
 7826POPC   C2B37400   0.328  28.611   8.253
 7826POPC   C3B37401   0.415  28.609   7.953
 7826POPC   C4B37402   0.369  28.602   7.653
 7827POPC   NC337403   2.038  22.923   9.453
 7827POPC   PO437404   2.009  22.901   9.153
 7827POPC   GL137405   2.039  22.947   8.853
 7827POPC   GL237406   1.921  22.957   8.853
 7827POPC   C1A37407   2.035  22.937   8.553
 7827POPC   D2A37408   2.021  22.929   8.253
 7827POPC   C3A37409   1.945  22.934   7.953
 7827POPC   C4A37410   2.011  22.921   7.653
 7827POPC   C1B37411   1.776  23.098   8.553
 7827POPC   C2B37412   1.776  23.081   8.253
 7827POPC   C3B37413   1.802  23.103   7.953
 7827POPC   C4B37414   1.821  23.069   7.653
 7828POPC   NC337415  23.699  24.455   9.453
 7828POPC   PO437416  23.732  24.458   9.153
 7828POPC   GL137417  23.691  24.453   8.853
 7828POPC   GL237418  23.721  24.611   8.853
 7828POPC   C1A37419  23.666  24.530   8.553
 7828POPC   D2A37420  23.666  24.524   8.253
 7828POPC   C3A37421  23.746  24.526   7.953
 7828POPC   C4A37422  23.667  24.492   7.653
 7828POPC   C1B37423  23.716  24.785   8.553
 7828POPC   C2B37424  23.730  24.769   8.253
 7828POPC   C3B37425  23.756  24.720   7.953
 7828POPC   C4B37426  23.769  24.736   7.653
 7829POPC   NC337427  43.858  11.335   9.453
 7829POPC   PO437428  43.908  11.311   9.153
 7829POPC   GL137429  43.925  11.280   8.853
 7829POPC   GL237430  43.934  11.438   8.853
 7829POPC   C1A37431  43.905  11.322   8.553
 7829POPC   D2A37432  43.929  11.280   8.253
 7829POPC   C3A37433  43.859  11.266   7.953
 7829POPC   C4A37434  43.850  11.331   7.653
 7829POPC   C1B37435  43.910  11.598   8.553
 7829POPC   C2B37436  43.868  11.541   8.253
 7829POPC   C3B37437  43.912  11.501   7.953
 7829POPC   C4B37438  43.884  11.562   7.653
 7830POPC   NC337439   2.756  13.640   9.453
 7830POPC   PO437440   2.786  13.657   9.153
 7830POPC   GL137441   2.797  13.604   8.853
 7830POPC   GL237442   2.737  13.699   8.853
 7830POPC   C1A37443   2.806  13.631   8.553
 7830POPC   D2A37444   2.798  13.633   8.253
 7830POPC   C3A37445   2.770  13.659   7.953
 7830POPC   C4A37446   2.747  13.612   7.653
 7830POPC   C1B37447   2.630  13.839   8.553
 7830POPC   C2B37448   2.713  13.909   8.253
 7830POPC   C3B37449   2.651  13.812   7.953
 7830POPC   C4B37450   2.636  13.890   7.653
 7831POPC   NC337451  36.127  43.107   9.453
 7831POPC   PO437452  36.090  43.063   9.153
 7831POPC   GL137453  36.117  43.071   8.853
 7831POPC   GL237454  36.131  43.281   8.853
 7831POPC   C1A37455  36.148  43.153   8.553
 7831POPC   D2A37456  36.155  43.113   8.253
 7831POPC   C3A37457  36.099  43.130   7.953
 7831POPC   C4A37458  36.111  43.132   7.653
 7831POPC   C1B37459  36.107  43.372   8.553
 7831POPC   C2B37460  36.105  43.322   8.253
 7831POPC   C3B37461  36.147  43.351   7.953
 7831POPC   C4B37462  36.086  43.400   7.653
 7832POPC   NC337463   8.206  30.716   9.453
 7832POPC   PO437464   8.222  30.734   9.153
 7832POPC   GL137465   8.194  30.653   8.853
 7832POPC   GL237466   8.083  30.686   8.853
 7832POPC   C1A37467   8.158  30.737   8.553
 7832POPC   D2A37468   8.202  30.704   8.253
 7832POPC   C3A37469   8.213  30.729   7.953
 7832POPC   C4A37470   8.173  30.654   7.653
 7832POPC   C1B37471   7.938  30.600   8.553
 7832POPC   C2B37472   7.922  30.665   8.253
 7832POPC   C3B37473   7.930  30.650   7.953
 7832POPC   C4B37474   7.930  30.574   7.653
 7833POPC   NC337475   5.082  23.737   9.453
 7833POPC   PO437476   5.107  23.760   9.153
 7833POPC   GL137477   5.046  23.666   8.853
 7833POPC   GL237478   5.258  23.749   8.853
 7833POPC   C1A37479   5.083  23.719   8.553
 7833POPC   D2A37480   5.118  23.740   8.253
 7833POPC   C3A37481   5.075  23.729   7.953
 7833POPC   C4A37482   5.132  23.758   7.653
 7833POPC   C1B37483   5.391  23.784   8.553
 7833POPC   C2B37484   5.311  23.730   8.253
 7833POPC   C3B37485   5.363  23.774   7.953
 7833POPC   C4B37486   5.367  23.736   7.653
 7834POPC   NC337487   2.029  35.327   9.453
 7834POPC   PO437488   1.966  35.366   9.153
 7834POPC   GL137489   2.010  35.351   8.853
 7834POPC   GL237490   2.022  35.483   8.853
 7834POPC   C1A37491   2.039  35.303   8.553
 7834POPC   D2A37492   1.989  35.374   8.253
 7834POPC   C3A37493   2.011  35.400   7.953
 7834POPC   C4A37494   1.989  35.399   7.653
 7834POPC   C1B37495   2.020  35.600   8.553
 7834POPC   C2B37496   1.982  35.592   8.253
 7834POPC   C3B37497   2.009  35.580   7.953
 7834POPC   C4B37498   2.062  35.604   7.653
 7835POPC   NC337499  29.156  41.591   9.453
 7835POPC   PO437500  29.184  41.569   9.153
 7835POPC   GL137501  29.167  41.595   8.853
 7835POPC   GL237502  29.032  41.537   8.853
 7835POPC   C1A37503  29.186  41.565   8.553
 7835POPC   D2A37504  29.103  41.521   8.253
 7835POPC   C3A37505  29.161  41.562   7.953
 7835POPC   C4A37506  29.183  41.564   7.653
 7835POPC   C1B37507  28.862  41.503   8.553
 7835POPC   C2B37508  28.897  41.510   8.253
 7835POPC   C3B37509  28.872  41.536   7.953
 7835POPC   C4B37510  28.917  41.493   7.653
 7836POPC   NC337511  25.265  24.474   9.453
 7836POPC   PO437512  25.257  24.451   9.153
 7836POPC   GL137513  25.252  24.533   8.853
 7836POPC   GL237514  25.123  24.540   8.853
 7836POPC   C1A37515  25.269  24.444   8.553
 7836POPC   D2A37516  25.307  24.488   8.253
 7836POPC   C3A37517  25.256  24.483   7.953
 7836POPC   C4A37518  25.235  24.507   7.653
 7836POPC   C1B37519  25.028  24.471   8.553
 7836POPC   C2B37520  25.032  24.525   8.253
 7836POPC   C3B37521  25.011  24.535   7.953
 7836POPC   C4B37522  25.034  24.546   7.653
 7837POPC   NC337523  26.831  36.153   9.453
 7837POPC   PO437524  26.849  36.135   9.153
 7837POPC   GL137525  26.837  36.138   8.853
 7837POPC   GL237526  26.805  36.025   8.853
 7837POPC   C1A37527  26.771  36.146   8.553
 7837POPC   D2A37528  26.784  36.125   8.253
 7837POPC   C3A37529  26.848  36.119   7.953
 7837POPC   C4A37530  26.819  36.093   7.653
 7837POPC   C1B37531  26.729  35.918   8.553
 7837POPC   C2B37532  26.770  35.928   8.253
 7837POPC   C3B37533  26.812  35.880   7.953
 7837POPC   C4B37534  26.768  35.858   7.653
 7838POPC   NC337535  36.888   1.975   9.453
 7838POPC   PO437536  36.923   1.964   9.153
 7838POPC   GL137537  36.910   1.975   8.853
 7838POPC   GL237538  36.880   2.089   8.853
 7838POPC   C1A37539  36.916   1.960   8.553
 7838POPC   D2A37540  36.952   2.017   8.253
 7838POPC   C3A37541  36.859   2.028   7.953
 7838POPC   C4A37542  36.863   2.007   7.653
 7838POPC   C1B37543  36.849   2.190   8.553
 7838POPC   C2B37544  36.770   2.245   8.253
 7838POPC   C3B37545  36.858   2.196   7.953
 7838POPC   C4B37546  36.854   2.258   7.653
 7839POPC   NC337547  12.117   8.929   9.453
 7839POPC   PO437548  12.110   8.951   9.153
 7839POPC   GL137549  12.077   8.954   8.853
 7839POPC   GL237550  12.057   9.120   8.853
 7839POPC   C1A37551  12.059   9.022   8.553
 7839POPC   D2A37552  12.104   9.015   8.253
 7839POPC   C3A37553  12.051   9.009   7.953
 7839POPC   C4A37554  12.121   8.974   7.653
 7839POPC   C1B37555  12.095   9.223   8.553
 7839POPC   C2B37556  12.137   9.255   8.253
 7839POPC   C3B37557  12.129   9.249   7.953
 7839POPC   C4B37558  12.136   9.253   7.653
 7840POPC   NC337559  43.888  32.283   9.453
 7840POPC   PO437560  43.874  32.298   9.153
 7840POPC   GL137561  43.884  32.292   8.853
 7840POPC   GL237562  43.899  32.098   8.853
 7840POPC   C1A37563  43.888  32.281   8.553
 7840POPC   D2A37564  43.841  32.222   8.253
 7840POPC   C3A37565  43.866  32.292   7.953
 7840POPC   C4A37566  43.901  32.213   7.653
 7840POPC   C1B37567  43.811  32.000   8.553
 7840POPC   C2B37568  43.880  32.035   8.253
 7840POPC   C3B37569  43.855  32.043   7.953
 7840POPC   C4B37570  43.838  31.996   7.653
 7841POPC   NC337571   8.154  19.080   9.453
 7841POPC   PO437572   8.189  19.094   9.153
 7841POPC   GL137573   8.212  19.098   8.853
 7841POPC   GL237574   8.206  18.892   8.853
 7841POPC   C1A37575   8.153  19.035   8.553
 7841POPC   D2A37576   8.174  19.044   8.253
 7841POPC   C3A37577   8.231  19.032   7.953
 7841POPC   C4A37578   8.222  19.013   7.653
 7841POPC   C1B37579   8.290  18.820   8.553
 7841POPC   C2B37580   8.301  18.837   8.253
 7841POPC   C3B37581   8.283  18.847   7.953
 7841POPC   C4B37582   8.257  18.795   7.653
 7842POPC   NC337583  38.500  33.822   9.453
 7842POPC   PO437584  38.412  33.761   9.153
 7842POPC   GL137585  38.418  33.785   8.853
 7842POPC   GL237586  38.550  33.706   8.853
 7842POPC   C1A37587  38.497  33.832   8.553
 7842POPC   D2A37588  38.452  33.835   8.253
 7842POPC   C3A37589  38.500  33.845   7.953
 7842POPC   C4A37590  38.454  33.769   7.653
 7842POPC   C1B37591  38.635  33.709   8.553
 7842POPC   C2B37592  38.719  33.710   8.253
 7842POPC   C3B37593  38.673  33.653   7.953
 7842POPC   C4B37594  38.711  33.709   7.653
 7843POPC   NC337595  11.319  39.231   9.453
 7843POPC   PO437596  11.253  39.272   9.153
 7843POPC   GL137597  11.288  39.218   8.853
 7843POPC   GL237598  11.207  39.241   8.853
 7843POPC   C1A37599  11.282  39.257   8.553
 7843POPC   D2A37600  11.278  39.222   8.253
 7843POPC   C3A37601  11.260  39.242   7.953
 7843POPC   C4A37602  11.258  39.256   7.653
 7843POPC   C1B37603  11.075  39.276   8.553
 7843POPC   C2B37604  11.051  39.317   8.253
 7843POPC   C3B37605  11.101  39.326   7.953
 7843POPC   C4B37606  11.018  39.331   7.653
 7844POPC   NC337607  43.840  28.358   9.453
 7844POPC   PO437608  43.841  28.389   9.153
 7844POPC   GL137609  43.932  28.354   8.853
 7844POPC   GL237610  43.789  28.346   8.853
 7844POPC   C1A37611  43.856  28.372   8.553
 7844POPC   D2A37612  43.907  28.335   8.253
 7844POPC   C3A37613  43.839  28.332   7.953
 7844POPC   C4A37614  43.905  28.323   7.653
 7844POPC   C1B37615  43.625  28.316   8.553
 7844POPC   C2B37616  43.673  28.375   8.253
 7844POPC   C3B37617  43.608  28.330   7.953
 7844POPC   C4B37618  43.588  28.331   7.653
 7845POPC   NC337619  44.701  40.050   9.453
 7845POPC   PO437620  44.702  39.984   9.153
 7845POPC   GL137621  44.682  39.958   8.853
 7845POPC   GL237622  44.615  39.875   8.853
 7845POPC   C1A37623  44.703  40.038   8.553
 7845POPC   D2A37624  44.710  39.968   8.253
 7845POPC   C3A37625  44.628  40.032   7.953
 7845POPC   C4A37626  44.708  40.003   7.653
 7845POPC   C1B37627  44.604  39.825   8.553
 7845POPC   C2B37628  44.603  39.813   8.253
 7845POPC   C3B37629  44.537  39.824   7.953
 7845POPC   C4B37630  44.545  39.739   7.653
 7846POPC   NC337631   1.974  39.194   9.453
 7846POPC   PO437632   1.991  39.227   9.153
 7846POPC   GL137633   1.991  39.226   8.853
 7846POPC   GL237634   1.948  39.362   8.853
 7846POPC   C1A37635   2.021  39.262   8.553
 7846POPC   D2A37636   2.003  39.262   8.253
 7846POPC   C3A37637   1.974  39.240   7.953
 7846POPC   C4A37638   2.008  39.197   7.653
 7846POPC   C1B37639   2.023  39.518   8.553
 7846POPC   C2B37640   1.956  39.475   8.253
 7846POPC   C3B37641   2.016  39.514   7.953
 7846POPC   C4B37642   2.017  39.466   7.653
 7847POPC   NC337643   5.857  41.561   9.453
 7847POPC   PO437644   5.827  41.530   9.153
 7847POPC   GL137645   5.844  41.527   8.853
 7847POPC   GL237646   5.906  41.482   8.853
 7847POPC   C1A37647   5.867  41.563   8.553
 7847POPC   D2A37648   5.855  41.514   8.253
 7847POPC   C3A37649   5.835  41.584   7.953
 7847POPC   C4A37650   5.853  41.582   7.653
 7847POPC   C1B37651   5.878  41.278   8.553
 7847POPC   C2B37652   5.931  41.276   8.253
 7847POPC   C3B37653   5.836  41.288   7.953
 7847POPC   C4B37654   5.924  41.295   7.653
 7848POPC   NC337655   1.247   1.985   9.453
 7848POPC   PO437656   1.220   2.010   9.153
 7848POPC   GL137657   1.173   2.002   8.853
 7848POPC   GL237658   1.043   2.046   8.853
 7848POPC   C1A37659   1.186   1.943   8.553
 7848POPC   D2A37660   1.190   2.022   8.253
 7848POPC   C3A37661   1.205   2.015   7.953
 7848POPC   C4A37662   1.188   1.972   7.653
 7848POPC   C1B37663   0.926   2.004   8.553
 7848POPC   C2B37664   0.936   1.966   8.253
 7848POPC   C3B37665   0.983   2.036   7.953
 7848POPC   C4B37666   0.941   1.991   7.653
 7849POPC   NC337667   2.020  12.038   9.453
 7849POPC   PO437668   1.943  12.069   9.153
 7849POPC   GL137669   1.960  12.039   8.853
 7849POPC   GL237670   1.868  12.000   8.853
 7849POPC   C1A37671   2.027  12.057   8.553
 7849POPC   D2A37672   1.950  12.060   8.253
 7849POPC   C3A37673   1.947  12.038   7.953
 7849POPC   C4A37674   1.946  12.111   7.653
 7849POPC   C1B37675   1.841  11.860   8.553
 7849POPC   C2B37676   1.821  11.902   8.253
 7849POPC   C3B37677   1.841  11.913   7.953
 7849POPC   C4B37678   1.802  11.862   7.653
 7850POPC   NC337679   2.035  40.010   9.453
 7850POPC   PO437680   1.977  39.978   9.153
 7850POPC   GL137681   2.004  40.006   8.853
 7850POPC   GL237682   2.033  40.097   8.853
 7850POPC   C1A37683   1.945  40.029   8.553
 7850POPC   D2A37684   1.970  40.018   8.253
 7850POPC   C3A37685   2.030  39.965   7.953
 7850POPC   C4A37686   2.034  39.978   7.653
 7850POPC   C1B37687   2.162  40.151   8.553
 7850POPC   C2B37688   2.121  40.240   8.253
 7850POPC   C3B37689   2.200  40.191   7.953
 7850POPC   C4B37690   2.187  40.200   7.653
 7851POPC   NC337691  20.643   0.466   9.453
 7851POPC   PO437692  20.617   0.485   9.153
 7851POPC   GL137693  20.634   0.453   8.853
 7851POPC   GL237694  20.494   0.428   8.853
 7851POPC   C1A37695  20.584   0.431   8.553
 7851POPC   D2A37696  20.649   0.455   8.253
 7851POPC   C3A37697  20.568   0.400   7.953
 7851POPC   C4A37698  20.583   0.391   7.653
 7851POPC   C1B37699  20.322   0.402   8.553
 7851POPC   C2B37700  20.380   0.399   8.253
 7851POPC   C3B37701  20.317   0.385   7.953
 7851POPC   C4B37702  20.318   0.434   7.653
 7852POPC   NC337703  15.205   0.430   9.453
 7852POPC   PO437704  15.210   0.405   9.153
 7852POPC   GL137705  15.170   0.442   8.853
 7852POPC   GL237706  15.080   0.589   8.853
 7852POPC   C1A37707  15.193   0.411   8.553
 7852POPC   D2A37708  15.176   0.484   8.253
 7852POPC   C3A37709  15.226   0.396   7.953
 7852POPC   C4A37710  15.148   0.418   7.653
 7852POPC   C1B37711  15.031   0.637   8.553
 7852POPC   C2B37712  15.081   0.632   8.253
 7852POPC   C3B37713  15.052   0.663   7.953
 7852POPC   C4B37714  15.087   0.675   7.653
 7853POPC   NC337715  28.415  28.337   9.453
 7853POPC   PO437716  28.343  28.403   9.153
 7853POPC   GL137717  28.325  28.334   8.853
 7853POPC   GL237718  28.236  28.376   8.853
 7853POPC   C1A37719  28.343  28.321   8.553
 7853POPC   D2A37720  28.404  28.362   8.253
 7853POPC   C3A37721  28.322  28.329   7.953
 7853POPC   C4A37722  28.373  28.339   7.653
 7853POPC   C1B37723  28.150  28.351   8.553
 7853POPC   C2B37724  28.153  28.343   8.253
 7853POPC   C3B37725  28.104  28.295   7.953
 7853POPC   C4B37726  28.123  28.268   7.653
 7854POPC   NC337727  22.191   5.049   9.453
 7854POPC   PO437728  22.135   5.095   9.153
 7854POPC   GL137729  22.158   5.098   8.853
 7854POPC   GL237730  22.205   5.187   8.853
 7854POPC   C1A37731  22.141   5.103   8.553
 7854POPC   D2A37732  22.120   5.085   8.253
 7854POPC   C3A37733  22.123   5.070   7.953
 7854POPC   C4A37734  22.117   5.045   7.653
 7854POPC   C1B37735  22.337   5.253   8.553
 7854POPC   C2B37736  22.352   5.235   8.253
 7854POPC   C3B37737  22.334   5.245   7.953
 7854POPC   C4B37738  22.316   5.260   7.653
 7855POPC   NC337739  15.936  31.473   9.453
 7855POPC   PO437740  15.921  31.485   9.153
 7855POPC   GL137741  15.999  31.434   8.853
 7855POPC   GL237742  15.899  31.387   8.853
 7855POPC   C1A37743  16.003  31.455   8.553
 7855POPC   D2A37744  15.929  31.522   8.253
 7855POPC   C3A37745  15.969  31.442   7.953
 7855POPC   C4A37746  15.929  31.510   7.653
 7855POPC   C1B37747  15.780  31.277   8.553
 7855POPC   C2B37748  15.731  31.302   8.253
 7855POPC   C3B37749  15.758  31.354   7.953
 7855POPC   C4B37750  15.757  31.295   7.653
 7856POPC   NC337751  25.300  35.386   9.453
 7856POPC   PO437752  25.238  35.366   9.153
 7856POPC   GL137753  25.221  35.311   8.853
 7856POPC   GL237754  25.302  35.419   8.853
 7856POPC   C1A37755  25.217  35.309   8.553
 7856POPC   D2A37756  25.242  35.370   8.253
 7856POPC   C3A37757  25.216  35.330   7.953
 7856POPC   C4A37758  25.235  35.371   7.653
 7856POPC   C1B37759  25.391  35.529   8.553
 7856POPC   C2B37760  25.393  35.515   8.253
 7856POPC   C3B37761  25.374  35.545   7.953
 7856POPC   C4B37762  25.436  35.504   7.653
 7857POPC   NC337763  35.360  17.478   9.453
 7857POPC   PO437764  35.365  17.506   9.153
 7857POPC   GL137765  35.365  17.500   8.853
 7857POPC   GL237766  35.219  17.470   8.853
 7857POPC   C1A37767  35.392  17.538   8.553
 7857POPC   D2A37768  35.352  17.485   8.253
 7857POPC   C3A37769  35.363  17.465   7.953
 7857POPC   C4A37770  35.325  17.466   7.653
 7857POPC   C1B37771  35.147  17.346   8.553
 7857POPC   C2B37772  35.156  17.422   8.253
 7857POPC   C3B37773  35.106  17.346   7.953
 7857POPC   C4B37774  35.088  17.379   7.653
 7858POPC   NC337775  43.862  39.260   9.453
 7858POPC   PO437776  43.914  39.197   9.153
 7858POPC   GL137777  43.845  39.253   8.853
 7858POPC   GL237778  43.953  39.262   8.853
 7858POPC   C1A37779  43.871  39.265   8.553
 7858POPC   D2A37780  43.891  39.229   8.253
 7858POPC   C3A37781  43.863  39.244   7.953
 7858POPC   C4A37782  43.857  39.240   7.653
 7858POPC   C1B37783  44.118  39.340   8.553
 7858POPC   C2B37784  44.057  39.325   8.253
 7858POPC   C3B37785  44.117  39.378   7.953
 7858POPC   C4B37786  44.123  39.326   7.653
 7859POPC   NC337787  40.818  12.889   9.453
 7859POPC   PO437788  40.774  12.839   9.153
 7859POPC   GL137789  40.760  12.880   8.853
 7859POPC   GL237790  40.906  12.864   8.853
 7859POPC   C1A37791  40.830  12.899   8.553
 7859POPC   D2A37792  40.800  12.893   8.253
 7859POPC   C3A37793  40.743  12.859   7.953
 7859POPC   C4A37794  40.789  12.815   7.653
 7859POPC   C1B37795  41.010  13.009   8.553
 7859POPC   C2B37796  41.054  13.004   8.253
 7859POPC   C3B37797  40.967  12.933   7.953
 7859POPC   C4B37798  40.982  12.939   7.653
 7860POPC   NC337799  21.365  15.214   9.453
 7860POPC   PO437800  21.436  15.186   9.153
 7860POPC   GL137801  21.338  15.179   8.853
 7860POPC   GL237802  21.543  15.223   8.853
 7860POPC   C1A37803  21.432  15.145   8.553
 7860POPC   D2A37804  21.397  15.175   8.253
 7860POPC   C3A37805  21.338  15.191   7.953
 7860POPC   C4A37806  21.405  15.182   7.653
 7860POPC   C1B37807  21.612  15.299   8.553
 7860POPC   C2B37808  21.629  15.297   8.253
 7860POPC   C3B37809  21.609  15.303   7.953
 7860POPC   C4B37810  21.593  15.278   7.653
 7861POPC   NC337811  29.965  22.210   9.453
 7861POPC   PO437812  29.968  22.178   9.153
 7861POPC   GL137813  29.947  22.209   8.853
 7861POPC   GL237814  29.860  22.310   8.853
 7861POPC   C1A37815  29.902  22.206   8.553
 7861POPC   D2A37816  29.895  22.142   8.253
 7861POPC   C3A37817  29.900  22.162   7.953
 7861POPC   C4A37818  29.911  22.161   7.653
 7861POPC   C1B37819  29.763  22.410   8.553
 7861POPC   C2B37820  29.849  22.342   8.253
 7861POPC   C3B37821  29.787  22.376   7.953
 7861POPC   C4B37822  29.767  22.415   7.653
 7862POPC   NC337823   2.794  26.846   9.453
 7862POPC   PO437824   2.804  26.797   9.153
 7862POPC   GL137825   2.781  26.809   8.853
 7862POPC   GL237826   2.628  26.827   8.853
 7862POPC   C1A37827   2.749  26.858   8.553
 7862POPC   D2A37828   2.768  26.793   8.253
 7862POPC   C3A37829   2.776  26.848   7.953
 7862POPC   C4A37830   2.770  26.804   7.653
 7862POPC   C1B37831   2.548  26.893   8.553
 7862POPC   C2B37832   2.518  26.795   8.253
 7862POPC   C3B37833   2.483  26.869   7.953
 7862POPC   C4B37834   2.545  26.860   7.653
 7863POPC   NC337835  25.260  43.078   9.453
 7863POPC   PO437836  25.223  43.088   9.153
 7863POPC   GL137837  25.250  43.143   8.853
 7863POPC   GL237838  25.380  43.111   8.853
 7863POPC   C1A37839  25.288  43.128   8.553
 7863POPC   D2A37840  25.248  43.156   8.253
 7863POPC   C3A37841  25.221  43.157   7.953
 7863POPC   C4A37842  25.220  43.068   7.653
 7863POPC   C1B37843  25.506  43.044   8.553
 7863POPC   C2B37844  25.548  43.041   8.253
 7863POPC   C3B37845  25.542  43.088   7.953
 7863POPC   C4B37846  25.529  43.051   7.653
 7864POPC   NC337847  39.186  22.144   9.453
 7864POPC   PO437848  39.222  22.114   9.153
 7864POPC   GL137849  39.213  22.136   8.853
 7864POPC   GL237850  39.194  22.046   8.853
 7864POPC   C1A37851  39.229  22.199   8.553
 7864POPC   D2A37852  39.258  22.125   8.253
 7864POPC   C3A37853  39.193  22.116   7.953
 7864POPC   C4A37854  39.204  22.165   7.653
 7864POPC   C1B37855  39.049  21.915   8.553
 7864POPC   C2B37856  39.123  21.984   8.253
 7864POPC   C3B37857  39.055  21.971   7.953
 7864POPC   C4B37858  39.073  21.971   7.653
 7865POPC   NC337859   8.986  39.208   9.453
 7865POPC   PO437860   8.993  39.192   9.153
 7865POPC   GL137861   8.937  39.204   8.853
 7865POPC   GL237862   8.883  39.202   8.853
 7865POPC   C1A37863   8.943  39.234   8.553
 7865POPC   D2A37864   8.957  39.224   8.253
 7865POPC   C3A37865   9.003  39.234   7.953
 7865POPC   C4A37866   8.989  39.222   7.653
 7865POPC   C1B37867   8.711  39.208   8.553
 7865POPC   C2B37868   8.698  39.266   8.253
 7865POPC   C3B37869   8.694  39.227   7.953
 7865POPC   C4B37870   8.714  39.238   7.653
 7866POPC   NC337871  20.650   8.221   9.453
 7866POPC   PO437872  20.643   8.207   9.153
 7866POPC   GL137873  20.624   8.203   8.853
 7866POPC   GL237874  20.523   8.149   8.853
 7866POPC   C1A37875  20.621   8.192   8.553
 7866POPC   D2A37876  20.562   8.191   8.253
 7866POPC   C3A37877  20.646   8.155   7.953
 7866POPC   C4A37878  20.607   8.220   7.653
 7866POPC   C1B37879  20.399   8.119   8.553
 7866POPC   C2B37880  20.335   8.128   8.253
 7866POPC   C3B37881  20.430   8.069   7.953
 7866POPC   C4B37882  20.417   8.118   7.653
 7867POPC   NC337883  39.245   9.767   9.453
 7867POPC   PO437884  39.222   9.783   9.153
 7867POPC   GL137885  39.189   9.753   8.853
 7867POPC   GL237886  39.298   9.728   8.853
 7867POPC   C1A37887  39.263   9.785   8.553
 7867POPC   D2A37888  39.270   9.725   8.253
 7867POPC   C3A37889  39.195   9.789   7.953
 7867POPC   C4A37890  39.233   9.795   7.653
 7867POPC   C1B37891  39.468   9.633   8.553
 7867POPC   C2B37892  39.472   9.605   8.253
 7867POPC   C3B37893  39.425   9.598   7.953
 7867POPC   C4B37894  39.484   9.592   7.653
 7868POPC   NC337895  31.514  44.690   9.453
 7868POPC   PO437896  31.489  44.683   9.153
 7868POPC   GL137897  31.485  44.613   8.853
 7868POPC   GL237898  31.515  44.751   8.853
 7868POPC   C1A37899  31.495  44.636   8.553
 7868POPC   D2A37900  31.457  44.694   8.253
 7868POPC   C3A37901  31.439  44.645   7.953
 7868POPC   C4A37902  31.509  44.684   7.653
 7868POPC   C1B37903  31.582  44.944   8.553
 7868POPC   C2B37904  31.549  44.898   8.253
 7868POPC   C3B37905  31.589  44.872   7.953
 7868POPC   C4B37906  31.556  44.913   7.653
 7869POPC   NC337907  21.422  35.379   9.453
 7869POPC   PO437908  21.347  35.401   9.153
 7869POPC   GL137909  21.426  35.390   8.853
 7869POPC   GL237910  21.360  35.244   8.853
 7869POPC   C1A37911  21.339  35.399   8.553
 7869POPC   D2A37912  21.379  35.306   8.253
 7869POPC   C3A37913  21.379  35.319   7.953
 7869POPC   C4A37914  21.349  35.345   7.653
 7869POPC   C1B37915  21.257  35.173   8.553
 7869POPC   C2B37916  21.317  35.143   8.253
 7869POPC   C3B37917  21.275  35.085   7.953
 7869POPC   C4B37918  21.228  35.165   7.653
 7870POPC   NC337919  32.212  22.927   9.453
 7870POPC   PO437920  32.284  22.922   9.153
 7870POPC   GL137921  32.226  22.929   8.853
 7870POPC   GL237922  32.210  22.804   8.853
 7870POPC   C1A37923  32.212  22.984   8.553
 7870POPC   D2A37924  32.231  22.892   8.253
 7870POPC   C3A37925  32.247  22.891   7.953
 7870POPC   C4A37926  32.263  22.973   7.653
 7870POPC   C1B37927  32.249  22.680   8.553
 7870POPC   C2B37928  32.200  22.739   8.253
 7870POPC   C3B37929  32.178  22.706   7.953
 7870POPC   C4B37930  32.190  22.644   7.653
 7871POPC   NC337931  13.673  35.354   9.453
 7871POPC   PO437932  13.597  35.303   9.153
 7871POPC   GL137933  13.589  35.398   8.853
 7871POPC   GL237934  13.529  35.282   8.853
 7871POPC   C1A37935  13.637  35.305   8.553
 7871POPC   D2A37936  13.677  35.373   8.253
 7871POPC   C3A37937  13.664  35.307   7.953
 7871POPC   C4A37938  13.583  35.375   7.653
 7871POPC   C1B37939  13.428  35.227   8.553
 7871POPC   C2B37940  13.397  35.305   8.253
 7871POPC   C3B37941  13.407  35.259   7.953
 7871POPC   C4B37942  13.429  35.317   7.653
 7872POPC   NC337943  38.485  23.739   9.453
 7872POPC   PO437944  38.475  23.665   9.153
 7872POPC   GL137945  38.476  23.739   8.853
 7872POPC   GL237946  38.609  23.655   8.853
 7872POPC   C1A37947  38.425  23.734   8.553
 7872POPC   D2A37948  38.412  23.752   8.253
 7872POPC   C3A37949  38.408  23.720   7.953
 7872POPC   C4A37950  38.437  23.669   7.653
 7872POPC   C1B37951  38.743  23.679   8.553
 7872POPC   C2B37952  38.704  23.683   8.253
 7872POPC   C3B37953  38.726  23.683   7.953
 7872POPC   C4B37954  38.734  23.701   7.653
 7873POPC   NC337955   7.450  21.363   9.453
 7873POPC   PO437956   7.440  21.391   9.153
 7873POPC   GL137957   7.415  21.400   8.853
 7873POPC   GL237958   7.334  21.247   8.853
 7873POPC   C1A37959   7.406  21.436   8.553
 7873POPC   D2A37960   7.374  21.339   8.253
 7873POPC   C3A37961   7.420  21.364   7.953
 7873POPC   C4A37962   7.371  21.373   7.653
 7873POPC   C1B37963   7.298  21.200   8.553
 7873POPC   C2B37964   7.314  21.138   8.253
 7873POPC   C3B37965   7.264  21.133   7.953
 7873POPC   C4B37966   7.308  21.187   7.653
 7874POPC   NC337967  38.475  27.605   9.453
 7874POPC   PO437968  38.490  27.574   9.153
 7874POPC   GL137969  38.490  27.578   8.853
 7874POPC   GL237970  38.566  27.707   8.853
 7874POPC   C1A37971  38.469  27.629   8.553
 7874POPC   D2A37972  38.484  27.548   8.253
 7874POPC   C3A37973  38.414  27.572   7.953
 7874POPC   C4A37974  38.430  27.629   7.653
 7874POPC   C1B37975  38.668  27.693   8.553
 7874POPC   C2B37976  38.663  27.753   8.253
 7874POPC   C3B37977  38.713  27.760   7.953
 7874POPC   C4B37978  38.622  27.751   7.653
 7875POPC   NC337979  19.014   3.543   9.453
 7875POPC   PO437980  19.098   3.521   9.153
 7875POPC   GL137981  19.091   3.505   8.853
 7875POPC   GL237982  18.922   3.467   8.853
 7875POPC   C1A37983  19.045   3.544   8.553
 7875POPC   D2A37984  19.023   3.588   8.253
 7875POPC   C3A37985  19.089   3.534   7.953
 7875POPC   C4A37986  19.098   3.579   7.653
 7875POPC   C1B37987  18.900   3.375   8.553
 7875POPC   C2B37988  18.830   3.351   8.253
 7875POPC   C3B37989  18.817   3.405   7.953
 7875POPC   C4B37990  18.869   3.427   7.653
 7876POPC   NC337991   8.971  33.057   9.453
 7876POPC   PO437992   9.009  33.072   9.153
 7876POPC   GL137993   9.022  32.980   8.853
 7876POPC   GL237994   9.084  33.098   8.853
 7876POPC   C1A37995   8.961  33.006   8.553
 7876POPC   D2A37996   8.970  33.057   8.253
 7876POPC   C3A37997   8.978  32.976   7.953
 7876POPC   C4A37998   8.971  32.983   7.653
 7876POPC   C1B37999   9.172  33.205   8.553
 7876POPC   C2B38000   9.188  33.138   8.253
 7876POPC   C3B38001   9.212  33.118   7.953
 7876POPC   C4B38002   9.152  33.192   7.653
 7877POPC   NC338003  43.884  42.301   9.453
 7877POPC   PO438004  43.881  42.302   9.153
 7877POPC   GL138005  43.932  42.288   8.853
 7877POPC   GL238006  43.953  42.258   8.853
 7877POPC   C1A38007  43.898  42.369   8.553
 7877POPC   D2A38008  43.844  42.328   8.253
 7877POPC   C3A38009  43.861  42.366   7.953
 7877POPC   C4A38010  43.905  42.299   7.653
 7877POPC   C1B38011  44.083  42.157   8.553
 7877POPC   C2B38012  44.123  42.189   8.253
 7877POPC   C3B38013  44.141  42.191   7.953
 7877POPC   C4B38014  44.058  42.173   7.653
 7878POPC   NC338015   3.555   7.390   9.453
 7878POPC   PO438016   3.503   7.421   9.153
 7878POPC   GL138017   3.570   7.449   8.853
 7878POPC   GL238018   3.483   7.501   8.853
 7878POPC   C1A38019   3.492   7.459   8.553
 7878POPC   D2A38020   3.510   7.414   8.253
 7878POPC   C3A38021   3.523   7.421   7.953
 7878POPC   C4A38022   3.531   7.426   7.653
 7878POPC   C1B38023   3.361   7.650   8.553
 7878POPC   C2B38024   3.324   7.555   8.253
 7878POPC   C3B38025   3.324   7.612   7.953
 7878POPC   C4B38026   3.410   7.555   7.653
 7879POPC   NC338027   8.183  21.385   9.453
 7879POPC   PO438028   8.219  21.343   9.153
 7879POPC   GL138029   8.211  21.354   8.853
 7879POPC   GL238030   8.216  21.475   8.853
 7879POPC   C1A38031   8.212  21.423   8.553
 7879POPC   D2A38032   8.217  21.432   8.253
 7879POPC   C3A38033   8.207  21.427   7.953
 7879POPC   C4A38034   8.240  21.383   7.653
 7879POPC   C1B38035   8.230  21.676   8.553
 7879POPC   C2B38036   8.172  21.656   8.253
 7879POPC   C3B38037   8.211  21.611   7.953
 7879POPC   C4B38038   8.182  21.626   7.653
 7880POPC   NC338039  29.119  24.534   9.453
 7880POPC   PO438040  29.172  24.512   9.153
 7880POPC   GL138041  29.178  24.523   8.853
 7880POPC   GL238042  29.226  24.574   8.853
 7880POPC   C1A38043  29.163  24.473   8.553
 7880POPC   D2A38044  29.105  24.482   8.253
 7880POPC   C3A38045  29.122  24.528   7.953
 7880POPC   C4A38046  29.144  24.466   7.653
 7880POPC   C1B38047  29.360  24.682   8.553
 7880POPC   C2B38048  29.337  24.674   8.253
 7880POPC   C3B38049  29.367  24.662   7.953
 7880POPC   C4B38050  29.315  24.657   7.653
 7881POPC   NC338051  10.522  34.547   9.453
 7881POPC   PO438052  10.483  34.624   9.153
 7881POPC   GL138053  10.493  34.532   8.853
 7881POPC   GL238054  10.665  34.571   8.853
 7881POPC   C1A38055  10.482  34.584   8.553
 7881POPC   D2A38056  10.556  34.585   8.253
 7881POPC   C3A38057  10.497  34.597   7.953
 7881POPC   C4A38058  10.534  34.576   7.653
 7881POPC   C1B38059  10.736  34.501   8.553
 7881POPC   C2B38060  10.737  34.482   8.253
 7881POPC   C3B38061  10.741  34.453   7.953
 7881POPC   C4B38062  10.727  34.549   7.653
 7882POPC   NC338063  21.364   1.974   9.453
 7882POPC   PO438064  21.362   2.039   9.153
 7882POPC   GL138065  21.407   2.004   8.853
 7882POPC   GL238066  21.404   1.842   8.853
 7882POPC   C1A38067  21.362   2.026   8.553
 7882POPC   D2A38068  21.371   1.957   8.253
 7882POPC   C3A38069  21.379   2.025   7.953
 7882POPC   C4A38070  21.391   1.988   7.653
 7882POPC   C1B38071  21.375   1.693   8.553
 7882POPC   C2B38072  21.414   1.778   8.253
 7882POPC   C3B38073  21.419   1.746   7.953
 7882POPC   C4B38074  21.383   1.731   7.653
 7883POPC   NC338075  27.581  44.650   9.453
 7883POPC   PO438076  27.558  44.640   9.153
 7883POPC   GL138077  27.589  44.637   8.853
 7883POPC   GL238078  27.552  44.533   8.853
 7883POPC   C1A38079  27.568  44.687   8.553
 7883POPC   D2A38080  27.580  44.629   8.253
 7883POPC   C3A38081  27.566  44.695   7.953
 7883POPC   C4A38082  27.563  44.660   7.653
 7883POPC   C1B38083  27.540  44.400   8.553
 7883POPC   C2B38084  27.541  44.442   8.253
 7883POPC   C3B38085  27.558  44.434   7.953
 7883POPC   C4B38086  27.560  44.453   7.653
 7884POPC   NC338087   1.168  28.366   9.453
 7884POPC   PO438088   1.191  28.365   9.153
 7884POPC   GL138089   1.203  28.350   8.853
 7884POPC   GL238090   1.115  28.281   8.853
 7884POPC   C1A38091   1.242  28.390   8.553
 7884POPC   D2A38092   1.248  28.362   8.253
 7884POPC   C3A38093   1.218  28.356   7.953
 7884POPC   C4A38094   1.164  28.350   7.653
 7884POPC   C1B38095   1.100  28.163   8.553
 7884POPC   C2B38096   1.043  28.165   8.253
 7884POPC   C3B38097   1.106  28.179   7.953
 7884POPC   C4B38098   1.041  28.217   7.653
 7885POPC   NC338099  34.533  22.957   9.453
 7885POPC   PO438100  34.542  22.891   9.153
 7885POPC   GL138101  34.610  22.911   8.853
 7885POPC   GL238102  34.720  22.966   8.853
 7885POPC   C1A38103  34.582  22.920   8.553
 7885POPC   D2A38104  34.534  22.891   8.253
 7885POPC   C3A38105  34.606  22.922   7.953
 7885POPC   C4A38106  34.592  22.913   7.653
 7885POPC   C1B38107  34.780  22.972   8.553
 7885POPC   C2B38108  34.807  22.935   8.253
 7885POPC   C3B38109  34.837  23.005   7.953
 7885POPC   C4B38110  34.799  22.929   7.653
 7886POPC   NC338111  12.056  35.397   9.453
 7886POPC   PO438112  12.042  35.364   9.153
 7886POPC   GL138113  12.108  35.362   8.853
 7886POPC   GL238114  12.127  35.464   8.853
 7886POPC   C1A38115  12.052  35.333   8.553
 7886POPC   D2A38116  12.046  35.342   8.253
 7886POPC   C3A38117  12.086  35.386   7.953
 7886POPC   C4A38118  12.105  35.358   7.653
 7886POPC   C1B38119  12.204  35.542   8.553
 7886POPC   C2B38120  12.228  35.534   8.253
 7886POPC   C3B38121  12.146  35.617   7.953
 7886POPC   C4B38122  12.184  35.601   7.653
 7887POPC   NC338123  39.194  10.541   9.453
 7887POPC   PO438124  39.196  10.551   9.153
 7887POPC   GL138125  39.235  10.541   8.853
 7887POPC   GL238126  39.270  10.448   8.853
 7887POPC   C1A38127  39.223  10.526   8.553
 7887POPC   D2A38128  39.182  10.534   8.253
 7887POPC   C3A38129  39.253  10.555   7.953
 7887POPC   C4A38130  39.271  10.559   7.653
 7887POPC   C1B38131  39.417  10.309   8.553
 7887POPC   C2B38132  39.400  10.332   8.253
 7887POPC   C3B38133  39.354  10.333   7.953
 7887POPC   C4B38134  39.375  10.332   7.653
 7888POPC   NC338135  14.426  33.775   9.453
 7888POPC   PO438136  14.426  33.846   9.153
 7888POPC   GL138137  14.394  33.818   8.853
 7888POPC   GL238138  14.467  33.640   8.853
 7888POPC   C1A38139  14.412  33.846   8.553
 7888POPC   D2A38140  14.430  33.785   8.253
 7888POPC   C3A38141  14.366  33.811   7.953
 7888POPC   C4A38142  14.392  33.810   7.653
 7888POPC   C1B38143  14.493  33.592   8.553
 7888POPC   C2B38144  14.453  33.524   8.253
 7888POPC   C3B38145  14.517  33.615   7.953
 7888POPC   C4B38146  14.460  33.601   7.653
 7889POPC   NC338147   7.432   3.588   9.453
 7889POPC   PO438148   7.443   3.555   9.153
 7889POPC   GL138149   7.437   3.539   8.853
 7889POPC   GL238150   7.502   3.460   8.853
 7889POPC   C1A38151   7.448   3.494   8.553
 7889POPC   D2A38152   7.421   3.566   8.253
 7889POPC   C3A38153   7.383   3.531   7.953
 7889POPC   C4A38154   7.439   3.575   7.653
 7889POPC   C1B38155   7.670   3.457   8.553
 7889POPC   C2B38156   7.682   3.430   8.253
 7889POPC   C3B38157   7.597   3.410   7.953
 7889POPC   C4B38158   7.596   3.395   7.653
 7890POPC   NC338159   2.810  11.345   9.453
 7890POPC   PO438160   2.770  11.320   9.153
 7890POPC   GL138161   2.808  11.254   8.853
 7890POPC   GL238162   2.875  11.244   8.853
 7890POPC   C1A38163   2.776  11.258   8.553
 7890POPC   D2A38164   2.800  11.328   8.253
 7890POPC   C3A38165   2.747  11.303   7.953
 7890POPC   C4A38166   2.782  11.311   7.653
 7890POPC   C1B38167   2.933  11.166   8.553
 7890POPC   C2B38168   2.943  11.099   8.253
 7890POPC   C3B38169   2.982  11.087   7.953
 7890POPC   C4B38170   2.916  11.105   7.653
 7891POPC   NC338171   8.987  25.221   9.453
 7891POPC   PO438172   8.980  25.278   9.153
 7891POPC   GL138173   8.933  25.302   8.853
 7891POPC   GL238174   9.050  25.166   8.853
 7891POPC   C1A38175   8.947  25.231   8.553
 7891POPC   D2A38176   8.932  25.230   8.253
 7891POPC   C3A38177   8.945  25.305   7.953
 7891POPC   C4A38178   8.941  25.260   7.653
 7891POPC   C1B38179   9.105  25.071   8.553
 7891POPC   C2B38180   9.130  25.092   8.253
 7891POPC   C3B38181   9.141  25.056   7.953
 7891POPC   C4B38182   9.124  25.075   7.653
 7892POPC   NC338183  27.626  20.622   9.453
 7892POPC   PO438184  27.574  20.608   9.153
 7892POPC   GL138185  27.558  20.579   8.853
 7892POPC   GL238186  27.661  20.698   8.853
 7892POPC   C1A38187  27.605  20.602   8.553
 7892POPC   D2A38188  27.612  20.657   8.253
 7892POPC   C3A38189  27.618  20.571   7.953
 7892POPC   C4A38190  27.610  20.647   7.653
 7892POPC   C1B38191  27.745  20.816   8.553
 7892POPC   C2B38192  27.757  20.735   8.253
 7892POPC   C3B38193  27.808  20.781   7.953
 7892POPC   C4B38194  27.790  20.721   7.653
 7893POPC   NC338195  21.420   0.444   9.453
 7893POPC   PO438196  21.425   0.414   9.153
 7893POPC   GL138197  21.373   0.402   8.853
 7893POPC   GL238198  21.284   0.556   8.853
 7893POPC   C1A38199  21.406   0.474   8.553
 7893POPC   D2A38200  21.387   0.474   8.253
 7893POPC   C3A38201  21.369   0.389   7.953
 7893POPC   C4A38202  21.433   0.476   7.653
 7893POPC   C1B38203  21.255   0.689   8.553
 7893POPC   C2B38204  21.290   0.669   8.253
 7893POPC   C3B38205  21.259   0.663   7.953
 7893POPC   C4B38206  21.255   0.672   7.653
 7894POPC   NC338207  21.341   9.724   9.453
 7894POPC   PO438208  21.429   9.779   9.153
 7894POPC   GL138209  21.377   9.761   8.853
 7894POPC   GL238210  21.459   9.693   8.853
 7894POPC   C1A38211  21.375   9.743   8.553
 7894POPC   D2A38212  21.410   9.781   8.253
 7894POPC   C3A38213  21.389   9.780   7.953
 7894POPC   C4A38214  21.399   9.729   7.653
 7894POPC   C1B38215  21.557   9.602   8.553
 7894POPC   C2B38216  21.518   9.608   8.253
 7894POPC   C3B38217  21.548   9.618   7.953
 7894POPC   C4B38218  21.573   9.608   7.653
 7895POPC   NC338219  35.315  16.687   9.453
 7895POPC   PO438220  35.361  16.685   9.153
 7895POPC   GL138221  35.378  16.716   8.853
 7895POPC   GL238222  35.342  16.622   8.853
 7895POPC   C1A38223  35.354  16.774   8.553
 7895POPC   D2A38224  35.384  16.735   8.253
 7895POPC   C3A38225  35.395  16.692   7.953
 7895POPC   C4A38226  35.302  16.765   7.653
 7895POPC   C1B38227  35.439  16.512   8.553
 7895POPC   C2B38228  35.426  16.486   8.253
 7895POPC   C3B38229  35.371  16.487   7.953
 7895POPC   C4B38230  35.428  16.458   7.653
 7896POPC   NC338231  34.572  43.839   9.453
 7896POPC   PO438232  34.559  43.906   9.153
 7896POPC   GL138233  34.555  43.854   8.853
 7896POPC   GL238234  34.646  43.984   8.853
 7896POPC   C1A38235  34.564  43.907   8.553
 7896POPC   D2A38236  34.547  43.873   8.253
 7896POPC   C3A38237  34.529  43.838   7.953
 7896POPC   C4A38238  34.575  43.922   7.653
 7896POPC   C1B38239  34.735  44.088   8.553
 7896POPC   C2B38240  34.778  44.028   8.253
 7896POPC   C3B38241  34.744  44.090   7.953
 7896POPC   C4B38242  34.774  44.011   7.653
 7897POPC   NC338243   6.664  26.069   9.453
 7897POPC   PO438244   6.635  26.050   9.153
 7897POPC   GL138245   6.690  25.995   8.853
 7897POPC   GL238246   6.547  25.985   8.853
 7897POPC   C1A38247   6.681  26.057   8.553
 7897POPC   D2A38248   6.687  26.071   8.253
 7897POPC   C3A38249   6.648  26.080   7.953
 7897POPC   C4A38250   6.630  26.040   7.653
 7897POPC   C1B38251   6.504  25.816   8.553
 7897POPC   C2B38252   6.507  25.883   8.253
 7897POPC   C3B38253   6.473  25.802   7.953
 7897POPC   C4B38254   6.479  25.822   7.653
 7898POPC   NC338255  42.301   1.170   9.453
 7898POPC   PO438256  42.308   1.213   9.153
 7898POPC   GL138257  42.314   1.205   8.853
 7898POPC   GL238258  42.399   1.361   8.853
 7898POPC   C1A38259  42.376   1.261   8.553
 7898POPC   D2A38260  42.328   1.236   8.253
 7898POPC   C3A38261  42.383   1.189   7.953
 7898POPC   C4A38262  42.299   1.234   7.653
 7898POPC   C1B38263  42.473   1.401   8.553
 7898POPC   C2B38264  42.470   1.466   8.253
 7898POPC   C3B38265  42.502   1.391   7.953
 7898POPC   C4B38266  42.488   1.464   7.653
 7899POPC   NC338267  43.917  20.618   9.453
 7899POPC   PO438268  43.880  20.586   9.153
 7899POPC   GL138269  43.855  20.656   8.853
 7899POPC   GL238270  43.901  20.689   8.853
 7899POPC   C1A38271  43.888  20.587   8.553
 7899POPC   D2A38272  43.857  20.595   8.253
 7899POPC   C3A38273  43.883  20.574   7.953
 7899POPC   C4A38274  43.853  20.576   7.653
 7899POPC   C1B38275  43.869  20.838   8.553
 7899POPC   C2B38276  43.958  20.892   8.253
 7899POPC   C3B38277  43.895  20.814   7.953
 7899POPC   C4B38278  43.963  20.831   7.653
 7900POPC   NC338279  17.503   1.246   5.553
 7900POPC   PO438280  17.508   1.198   5.853
 7900POPC   GL138281  17.544   1.238   6.153
 7900POPC   GL238282  17.552   1.361   6.153
 7900POPC   C1A38283  17.507   1.225   6.453
 7900POPC   D2A38284  17.551   1.193   6.753
 7900POPC   C3A38285  17.464   1.192   7.053
 7900POPC   C4A38286  17.493   1.179   7.353
 7900POPC   C1B38287  17.501   1.491   6.453
 7900POPC   C2B38288  17.477   1.507   6.753
 7900POPC   C3B38289  17.553   1.501   7.053
 7900POPC   C4B38290  17.514   1.513   7.353
 7901POPC   NC338291  27.584  12.082   5.553
 7901POPC   PO438292  27.621  12.123   5.853
 7901POPC   GL138293  27.607  12.079   6.153
 7901POPC   GL238294  27.477  12.194   6.153
 7901POPC   C1A38295  27.581  12.122   6.453
 7901POPC   D2A38296  27.602  12.045   6.753
 7901POPC   C3A38297  27.627  12.114   7.053
 7901POPC   C4A38298  27.635  12.102   7.353
 7901POPC   C1B38299  27.425  12.283   6.453
 7901POPC   C2B38300  27.402  12.237   6.753
 7901POPC   C3B38301  27.484  12.236   7.053
 7901POPC   C4B38302  27.396  12.240   7.353
 7902POPC   NC338303  33.065  23.720   5.553
 7902POPC   PO438304  33.067  23.684   5.853
 7902POPC   GL138305  33.009  23.707   6.153
 7902POPC   GL238306  33.129  23.646   6.153
 7902POPC   C1A38307  33.068  23.692   6.453
 7902POPC   D2A38308  33.053  23.757   6.753
 7902POPC   C3A38309  33.044  23.750   7.053
 7902POPC   C4A38310  32.998  23.722   7.353
 7902POPC   C1B38311  33.177  23.522   6.453
 7902POPC   C2B38312  33.157  23.540   6.753
 7902POPC   C3B38313  33.097  23.507   7.053
 7902POPC   C4B38314  33.177  23.505   7.353
 7903POPC   NC338315  42.307   1.241   5.553
 7903POPC   PO438316  42.369   1.170   5.853
 7903POPC   GL138317  42.327   1.204   6.153
 7903POPC   GL238318  42.180   1.278   6.153
 7903POPC   C1A38319  42.314   1.214   6.453
 7903POPC   D2A38320  42.349   1.210   6.753
 7903POPC   C3A38321  42.380   1.254   7.053
 7903POPC   C4A38322  42.302   1.225   7.353
 7903POPC   C1B38323  42.167   1.352   6.453
 7903POPC   C2B38324  42.161   1.374   6.753
 7903POPC   C3B38325  42.069   1.307   7.053
 7903POPC   C4B38326  42.109   1.351   7.353
 7904POPC   NC338327   1.972  39.192   5.553
 7904POPC   PO438328   1.984  39.235   5.853
 7904POPC   GL138329   1.942  39.189   6.153
 7904POPC   GL238330   2.024  39.382   6.153
 7904POPC   C1A38331   2.037  39.247   6.453
 7904POPC   D2A38332   1.994  39.280   6.753
 7904POPC   C3A38333   1.949  39.227   7.053
 7904POPC   C4A38334   2.028  39.273   7.353
 7904POPC   C1B38335   2.063  39.432   6.453
 7904POPC   C2B38336   2.106  39.480   6.753
 7904POPC   C3B38337   2.083  39.444   7.053
 7904POPC   C4B38338   2.115  39.444   7.353
 7905POPC   NC338339  31.473   9.012   5.553
 7905POPC   PO438340  31.465   9.013   5.853
 7905POPC   GL138341  31.426   9.013   6.153
 7905POPC   GL238342  31.376   8.957   6.153
 7905POPC   C1A38343  31.437   8.993   6.453
 7905POPC   D2A38344  31.509   9.004   6.753
 7905POPC   C3A38345  31.497   8.982   7.053
 7905POPC   C4A38346  31.468   8.959   7.353
 7905POPC   C1B38347  31.223   9.070   6.453
 7905POPC   C2B38348  31.208   9.018   6.753
 7905POPC   C3B38349  31.229   8.993   7.053
 7905POPC   C4B38350  31.217   8.990   7.353
 7906POPC   NC338351  12.849  44.666   5.553
 7906POPC   PO438352  12.806  44.689   5.853
 7906POPC   GL138353  12.874  44.703   6.153
 7906POPC   GL238354  12.920  44.673   6.153
 7906POPC   C1A38355  12.877  44.657   6.453
 7906POPC   D2A38356  12.899  44.641   6.753
 7906POPC   C3A38357  12.836  44.624   7.053
 7906POPC   C4A38358  12.842  44.615   7.353
 7906POPC   C1B38359  13.119  44.731   6.453
 7906POPC   C2B38360  13.076  44.737   6.753
 7906POPC   C3B38361  13.092  44.769   7.053
 7906POPC   C4B38362  13.117  44.740   7.353
 7907POPC   NC338363   8.229  33.839   5.553
 7907POPC   PO438364   8.187  33.834   5.853
 7907POPC   GL138365   8.239  33.771   6.153
 7907POPC   GL238366   8.275  33.805   6.153
 7907POPC   C1A38367   8.189  33.762   6.453
 7907POPC   D2A38368   8.147  33.780   6.753
 7907POPC   C3A38369   8.170  33.809   7.053
 7907POPC   C4A38370   8.229  33.827   7.353
 7907POPC   C1B38371   8.476  33.873   6.453
 7907POPC   C2B38372   8.438  33.852   6.753
 7907POPC   C3B38373   8.469  33.903   7.053
 7907POPC   C4B38374   8.435  33.878   7.353
 7908POPC   NC338375  10.542  33.003   5.553
 7908POPC   PO438376  10.505  33.042   5.853
 7908POPC   GL138377  10.512  33.043   6.153
 7908POPC   GL238378  10.466  32.964   6.153
 7908POPC   C1A38379  10.507  33.027   6.453
 7908POPC   D2A38380  10.488  32.986   6.753
 7908POPC   C3A38381  10.562  32.998   7.053
 7908POPC   C4A38382  10.498  32.988   7.353
 7908POPC   C1B38383  10.297  32.860   6.453
 7908POPC   C2B38384  10.343  32.832   6.753
 7908POPC   C3B38385  10.366  32.886   7.053
 7908POPC   C4B38386  10.322  32.824   7.353
 7909POPC   NC338387  40.821   5.056   5.553
 7909POPC   PO438388  40.769   5.088   5.853
 7909POPC   GL138389  40.767   5.136   6.153
 7909POPC   GL238390  40.774   4.994   6.153
 7909POPC   C1A38391  40.808   5.141   6.453
 7909POPC   D2A38392  40.745   5.100   6.753
 7909POPC   C3A38393  40.804   5.054   7.053
 7909POPC   C4A38394  40.758   5.094   7.353
 7909POPC   C1B38395  40.749   4.903   6.453
 7909POPC   C2B38396  40.722   4.881   6.753
 7909POPC   C3B38397  40.669   4.830   7.053
 7909POPC   C4B38398  40.671   4.853   7.353
 7910POPC   NC338399   0.390  29.137   5.553
 7910POPC   PO438400   0.487  29.150   5.853
 7910POPC   GL138401   0.411  29.110   6.153
 7910POPC   GL238402   0.339  29.195   6.153
 7910POPC   C1A38403   0.423  29.153   6.453
 7910POPC   D2A38404   0.451  29.123   6.753
 7910POPC   C3A38405   0.403  29.106   7.053
 7910POPC   C4A38406   0.444  29.190   7.353
 7910POPC   C1B38407   0.259  29.279   6.453
 7910POPC   C2B38408   0.209  29.364   6.753
 7910POPC   C3B38409   0.290  29.319   7.053
 7910POPC   C4B38410   0.221  29.364   7.353
 7911POPC   NC338411   3.590   7.393   5.553
 7911POPC   PO438412   3.568   7.463   5.853
 7911POPC   GL138413   3.569   7.470   6.153
 7911POPC   GL238414   3.417   7.496   6.153
 7911POPC   C1A38415   3.590   7.418   6.453
 7911POPC   D2A38416   3.532   7.416   6.753
 7911POPC   C3A38417   3.510   7.371   7.053
 7911POPC   C4A38418   3.499   7.469   7.353
 7911POPC   C1B38419   3.307   7.522   6.453
 7911POPC   C2B38420   3.319   7.485   6.753
 7911POPC   C3B38421   3.311   7.452   7.053
 7911POPC   C4B38422   3.329   7.481   7.353
 7912POPC   NC338423   5.097  13.582   5.553
 7912POPC   PO438424   5.112  13.652   5.853
 7912POPC   GL138425   5.111  13.672   6.153
 7912POPC   GL238426   5.078  13.503   6.153
 7912POPC   C1A38427   5.094  13.595   6.453
 7912POPC   D2A38428   5.097  13.641   6.753
 7912POPC   C3A38429   5.043  13.616   7.053
 7912POPC   C4A38430   5.116  13.628   7.353
 7912POPC   C1B38431   4.999  13.388   6.453
 7912POPC   C2B38432   5.015  13.371   6.753
 7912POPC   C3B38433   4.982  13.359   7.053
 7912POPC   C4B38434   4.975  13.354   7.353
 7913POPC   NC338435   0.406   3.566   5.553
 7913POPC   PO438436   0.457   3.563   5.853
 7913POPC   GL138437   0.400   3.576   6.153
 7913POPC   GL238438   0.551   3.471   6.153
 7913POPC   C1A38439   0.394   3.561   6.453
 7913POPC   D2A38440   0.427   3.513   6.753
 7913POPC   C3A38441   0.470   3.498   7.053
 7913POPC   C4A38442   0.464   3.587   7.353
 7913POPC   C1B38443   0.700   3.450   6.453
 7913POPC   C2B38444   0.690   3.472   6.753
 7913POPC   C3B38445   0.704   3.454   7.053
 7913POPC   C4B38446   0.668   3.510   7.353
 7914POPC   NC338447  29.944  29.907   5.553
 7914POPC   PO438448  29.962  29.891   5.853
 7914POPC   GL138449  29.907  29.908   6.153
 7914POPC   GL238450  29.897  30.020   6.153
 7914POPC   C1A38451  29.873  29.946   6.453
 7914POPC   D2A38452  29.899  29.916   6.753
 7914POPC   C3A38453  29.909  29.872   7.053
 7914POPC   C4A38454  29.937  29.908   7.353
 7914POPC   C1B38455  29.872  30.173   6.453
 7914POPC   C2B38456  29.906  30.175   6.753
 7914POPC   C3B38457  29.865  30.193   7.053
 7914POPC   C4B38458  29.893  30.185   7.353
 7915POPC   NC338459  29.935  19.823   5.553
 7915POPC   PO438460  29.884  19.858   5.853
 7915POPC   GL138461  29.936  19.788   6.153
 7915POPC   GL238462  29.987  19.913   6.153
 7915POPC   C1A38463  29.928  19.855   6.453
 7915POPC   D2A38464  29.909  19.839   6.753
 7915POPC   C3A38465  29.954  19.791   7.053
 7915POPC   C4A38466  29.926  19.824   7.353
 7915POPC   C1B38467  30.047  20.090   6.453
 7915POPC   C2B38468  30.059  20.020   6.753
 7915POPC   C3B38469  30.031  20.061   7.053
 7915POPC   C4B38470  30.008  20.010   7.353
 7916POPC   NC338471   0.394  13.629   5.553
 7916POPC   PO438472   0.409  13.649   5.853
 7916POPC   GL138473   0.402  13.617   6.153
 7916POPC   GL238474   0.573  13.616   6.153
 7916POPC   C1A38475   0.408  13.664   6.453
 7916POPC   D2A38476   0.395  13.612   6.753
 7916POPC   C3A38477   0.388  13.610   7.053
 7916POPC   C4A38478   0.449  13.628   7.353
 7916POPC   C1B38479   0.732  13.640   6.453
 7916POPC   C2B38480   0.683  13.647   6.753
 7916POPC   C3B38481   0.718  13.650   7.053
 7916POPC   C4B38482   0.735  13.642   7.353
 7917POPC   NC338483  40.001  26.804   5.553
 7917POPC   PO438484  40.015  26.807   5.853
 7917POPC   GL138485  40.017  26.851   6.153
 7917POPC   GL238486  40.071  26.707   6.153
 7917POPC   C1A38487  40.011  26.792   6.453
 7917POPC   D2A38488  40.055  26.797   6.753
 7917POPC   C3A38489  39.968  26.784   7.053
 7917POPC   C4A38490  40.032  26.865   7.353
 7917POPC   C1B38491  40.045  26.524   6.453
 7917POPC   C2B38492  40.085  26.595   6.753
 7917POPC   C3B38493  40.052  26.569   7.053
 7917POPC   C4B38494  40.047  26.572   7.353
 7918POPC   NC338495   1.215  35.376   5.553
 7918POPC   PO438496   1.196  35.353   5.853
 7918POPC   GL138497   1.227  35.385   6.153
 7918POPC   GL238498   1.134  35.421   6.153
 7918POPC   C1A38499   1.212  35.329   6.453
 7918POPC   D2A38500   1.192  35.310   6.753
 7918POPC   C3A38501   1.164  35.319   7.053
 7918POPC   C4A38502   1.203  35.324   7.353
 7918POPC   C1B38503   1.140  35.566   6.453
 7918POPC   C2B38504   1.122  35.531   6.753
 7918POPC   C3B38505   1.113  35.596   7.053
 7918POPC   C4B38506   1.070  35.556   7.353
 7919POPC   NC338507  34.578  27.568   5.553
 7919POPC   PO438508  34.530  27.554   5.853
 7919POPC   GL138509  34.541  27.623   6.153
 7919POPC   GL238510  34.726  27.533   6.153
 7919POPC   C1A38511  34.569  27.634   6.453
 7919POPC   D2A38512  34.570  27.605   6.753
 7919POPC   C3A38513  34.600  27.550   7.053
 7919POPC   C4A38514  34.618  27.567   7.353
 7919POPC   C1B38515  34.865  27.549   6.453
 7919POPC   C2B38516  34.851  27.481   6.753
 7919POPC   C3B38517  34.838  27.534   7.053
 7919POPC   C4B38518  34.821  27.504   7.353
 7920POPC   NC338519  33.830   8.960   5.553
 7920POPC   PO438520  33.762   8.924   5.853
 7920POPC   GL138521  33.771   8.979   6.153
 7920POPC   GL238522  33.944   8.961   6.153
 7920POPC   C1A38523  33.790   8.985   6.453
 7920POPC   D2A38524  33.774   8.923   6.753
 7920POPC   C3A38525  33.843   8.979   7.053
 7920POPC   C4A38526  33.784   9.001   7.353
 7920POPC   C1B38527  34.050   9.015   6.453
 7920POPC   C2B38528  34.081   9.014   6.753
 7920POPC   C3B38529  34.021   9.011   7.053
 7920POPC   C4B38530  34.083   9.009   7.353
 7921POPC   NC338531  26.861  23.700   5.553
 7921POPC   PO438532  26.864  23.748   5.853
 7921POPC   GL138533  26.833  23.755   6.153
 7921POPC   GL238534  26.861  23.847   6.153
 7921POPC   C1A38535  26.861  23.716   6.453
 7921POPC   D2A38536  26.853  23.712   6.753
 7921POPC   C3A38537  26.824  23.664   7.053
 7921POPC   C4A38538  26.767  23.723   7.353
 7921POPC   C1B38539  26.856  23.938   6.453
 7921POPC   C2B38540  26.940  23.961   6.753
 7921POPC   C3B38541  26.920  23.921   7.053
 7921POPC   C4B38542  26.908  23.949   7.353
 7922POPC   NC338543  33.807  39.182   5.553
 7922POPC   PO438544  33.842  39.202   5.853
 7922POPC   GL138545  33.800  39.273   6.153
 7922POPC   GL238546  33.912  39.177   6.153
 7922POPC   C1A38547  33.827  39.198   6.453
 7922POPC   D2A38548  33.798  39.255   6.753
 7922POPC   C3A38549  33.812  39.242   7.053
 7922POPC   C4A38550  33.754  39.245   7.353
 7922POPC   C1B38551  33.993  39.059   6.453
 7922POPC   C2B38552  34.050  39.088   6.753
 7922POPC   C3B38553  34.034  39.121   7.053
 7922POPC   C4B38554  34.041  39.068   7.353
 7923POPC   NC338555  36.859   3.551   5.553
 7923POPC   PO438556  36.927   3.529   5.853
 7923POPC   GL138557  36.882   3.586   6.153
 7923POPC   GL238558  36.931   3.637   6.153
 7923POPC   C1A38559  36.914   3.498   6.453
 7923POPC   D2A38560  36.952   3.498   6.753
 7923POPC   C3A38561  36.948   3.579   7.053
 7923POPC   C4A38562  36.950   3.591   7.353
 7923POPC   C1B38563  37.029   3.759   6.453
 7923POPC   C2B38564  36.974   3.798   6.753
 7923POPC   C3B38565  37.013   3.725   7.053
 7923POPC   C4B38566  37.040   3.820   7.353
 7924POPC   NC338567   4.349  44.671   5.553
 7924POPC   PO438568   4.321  44.698   5.853
 7924POPC   GL138569   4.287  44.614   6.153
 7924POPC   GL238570   4.186  44.716   6.153
 7924POPC   C1A38571   4.353  44.617   6.453
 7924POPC   D2A38572   4.337  44.689   6.753
 7924POPC   C3A38573   4.363  44.642   7.053
 7924POPC   C4A38574   4.336  44.696   7.353
 7924POPC   C1B38575   4.087  44.711   6.453
 7924POPC   C2B38576   4.045  44.658   6.753
 7924POPC   C3B38577   4.039  44.662   7.053
 7924POPC   C4B38578   4.089  44.621   7.353
 7925POPC   NC338579  36.134  12.057   5.553
 7925POPC   PO438580  36.134  12.111   5.853
 7925POPC   GL138581  36.107  12.078   6.153
 7925POPC   GL238582  36.154  12.184   6.153
 7925POPC   C1A38583  36.083  12.060   6.453
 7925POPC   D2A38584  36.165  12.063   6.753
 7925POPC   C3A38585  36.140  12.090   7.053
 7925POPC   C4A38586  36.081  12.029   7.353
 7925POPC   C1B38587  36.086  12.284   6.453
 7925POPC   C2B38588  36.117  12.298   6.753
 7925POPC   C3B38589  36.109  12.349   7.053
 7925POPC   C4B38590  36.074  12.303   7.353
 7926POPC   NC338591  39.999  20.596   5.553
 7926POPC   PO438592  40.030  20.606   5.853
 7926POPC   GL138593  40.056  20.643   6.153
 7926POPC   GL238594  40.086  20.675   6.153
 7926POPC   C1A38595  39.984  20.606   6.453
 7926POPC   D2A38596  39.981  20.614   6.753
 7926POPC   C3A38597  39.989  20.654   7.053
 7926POPC   C4A38598  40.038  20.575   7.353
 7926POPC   C1B38599  40.129  20.863   6.453
 7926POPC   C2B38600  40.071  20.884   6.753
 7926POPC   C3B38601  40.148  20.804   7.053
 7926POPC   C4B38602  40.098  20.867   7.353
 7927POPC   NC338603   9.764  39.206   5.553
 7927POPC   PO438604   9.743  39.182   5.853
 7927POPC   GL138605   9.757  39.251   6.153
 7927POPC   GL238606   9.848  39.177   6.153
 7927POPC   C1A38607   9.716  39.241   6.453
 7927POPC   D2A38608   9.798  39.213   6.753
 7927POPC   C3A38609   9.702  39.213   7.053
 7927POPC   C4A38610   9.732  39.274   7.353
 7927POPC   C1B38611   9.876  39.069   6.453
 7927POPC   C2B38612   9.873  39.001   6.753
 7927POPC   C3B38613   9.929  39.023   7.053
 7927POPC   C4B38614   9.941  39.016   7.353
 7928POPC   NC338615  18.300  44.657   5.553
 7928POPC   PO438616  18.281  44.673   5.853
 7928POPC   GL138617  18.300  44.635   6.153
 7928POPC   GL238618  18.384  44.597   6.153
 7928POPC   C1A38619  18.293  44.669   6.453
 7928POPC   D2A38620  18.283  44.646   6.753
 7928POPC   C3A38621  18.316  44.701   7.053
 7928POPC   C4A38622  18.318  44.644   7.353
 7928POPC   C1B38623  18.489  44.610   6.453
 7928POPC   C2B38624  18.570  44.606   6.753
 7928POPC   C3B38625  18.518  44.595   7.053
 7928POPC   C4B38626  18.513  44.570   7.353
 7929POPC   NC338627  22.900  34.584   5.553
 7929POPC   PO438628  22.937  34.541   5.853
 7929POPC   GL138629  22.939  34.586   6.153
 7929POPC   GL238630  22.996  34.511   6.153
 7929POPC   C1A38631  22.928  34.593   6.453
 7929POPC   D2A38632  22.918  34.601   6.753
 7929POPC   C3A38633  22.979  34.589   7.053
 7929POPC   C4A38634  22.939  34.528   7.353
 7929POPC   C1B38635  23.090  34.364   6.453
 7929POPC   C2B38636  23.123  34.372   6.753
 7929POPC   C3B38637  23.085  34.414   7.053
 7929POPC   C4B38638  23.107  34.407   7.353
 7930POPC   NC338639  35.393  25.230   5.553
 7930POPC   PO438640  35.384  25.273   5.853
 7930POPC   GL138641  35.377  25.237   6.153
 7930POPC   GL238642  35.503  25.321   6.153
 7930POPC   C1A38643  35.306  25.238   6.453
 7930POPC   D2A38644  35.399  25.291   6.753
 7930POPC   C3A38645  35.375  25.311   7.053
 7930POPC   C4A38646  35.349  25.300   7.353
 7930POPC   C1B38647  35.621  25.343   6.453
 7930POPC   C2B38648  35.616  25.273   6.753
 7930POPC   C3B38649  35.618  25.271   7.053
 7930POPC   C4B38650  35.643  25.331   7.353
 7931POPC   NC338651  35.350  27.544   5.553
 7931POPC   PO438652  35.331  27.587   5.853
 7931POPC   GL138653  35.390  27.556   6.153
 7931POPC   GL238654  35.253  27.579   6.153
 7931POPC   C1A38655  35.391  27.625   6.453
 7931POPC   D2A38656  35.396  27.632   6.753
 7931POPC   C3A38657  35.381  27.580   7.053
 7931POPC   C4A38658  35.319  27.582   7.353
 7931POPC   C1B38659  35.120  27.708   6.453
 7931POPC   C2B38660  35.160  27.683   6.753
 7931POPC   C3B38661  35.109  27.625   7.053
 7931POPC   C4B38662  35.159  27.613   7.353
 7932POPC   NC338663  22.929  22.121   5.553
 7932POPC   PO438664  22.912  22.148   5.853
 7932POPC   GL138665  22.901  22.149   6.153
 7932POPC   GL238666  23.071  22.130   6.153
 7932POPC   C1A38667  22.947  22.178   6.453
 7932POPC   D2A38668  22.915  22.135   6.753
 7932POPC   C3A38669  22.964  22.165   7.053
 7932POPC   C4A38670  22.899  22.118   7.353
 7932POPC   C1B38671  23.150  22.152   6.453
 7932POPC   C2B38672  23.187  22.143   6.753
 7932POPC   C3B38673  23.216  22.108   7.053
 7932POPC   C4B38674  23.152  22.143   7.353
 7933POPC   NC338675  15.920  19.840   5.553
 7933POPC   PO438676  15.995  19.880   5.853
 7933POPC   GL138677  15.957  19.868   6.153
 7933POPC   GL238678  15.903  19.940   6.153
 7933POPC   C1A38679  15.925  19.809   6.453
 7933POPC   D2A38680  15.955  19.816   6.753
 7933POPC   C3A38681  15.943  19.788   7.053
 7933POPC   C4A38682  16.002  19.804   7.353
 7933POPC   C1B38683  15.795  20.012   6.453
 7933POPC   C2B38684  15.703  19.949   6.753
 7933POPC   C3B38685  15.799  19.957   7.053
 7933POPC   C4B38686  15.768  19.949   7.353
 7934POPC   NC338687  28.340  38.477   5.553
 7934POPC   PO438688  28.388  38.479   5.853
 7934POPC   GL138689  28.334  38.469   6.153
 7934POPC   GL238690  28.347  38.300   6.153
 7934POPC   C1A38691  28.364  38.459   6.453
 7934POPC   D2A38692  28.354  38.491   6.753
 7934POPC   C3A38693  28.400  38.468   7.053
 7934POPC   C4A38694  28.373  38.428   7.353
 7934POPC   C1B38695  28.343  38.171   6.453
 7934POPC   C2B38696  28.339  38.192   6.753
 7934POPC   C3B38697  28.321  38.219   7.053
 7934POPC   C4B38698  28.371  38.206   7.353
 7935POPC   NC338699  32.272   8.223   5.553
 7935POPC   PO438700  32.221   8.213   5.853
 7935POPC   GL138701  32.272   8.208   6.153
 7935POPC   GL238702  32.274   8.088   6.153
 7935POPC   C1A38703  32.247   8.203   6.453
 7935POPC   D2A38704  32.280   8.193   6.753
 7935POPC   C3A38705  32.199   8.166   7.053
 7935POPC   C4A38706  32.266   8.171   7.353
 7935POPC   C1B38707  32.358   7.998   6.453
 7935POPC   C2B38708  32.280   7.931   6.753
 7935POPC   C3B38709  32.305   7.975   7.053
 7935POPC   C4B38710  32.343   7.919   7.353
 7936POPC   NC338711  36.123   8.923   5.553
 7936POPC   PO438712  36.125   8.960   5.853
 7936POPC   GL138713  36.151   8.953   6.153
 7936POPC   GL238714  36.112   9.054   6.153
 7936POPC   C1A38715  36.153   8.991   6.453
 7936POPC   D2A38716  36.133   8.945   6.753
 7936POPC   C3A38717  36.078   9.004   7.053
 7936POPC   C4A38718  36.141   8.991   7.353
 7936POPC   C1B38719  36.180   9.259   6.453
 7936POPC   C2B38720  36.160   9.206   6.753
 7936POPC   C3B38721  36.119   9.198   7.053
 7936POPC   C4B38722  36.185   9.249   7.353
 7937POPC   NC338723   1.165   0.425   5.553
 7937POPC   PO438724   1.220   0.445   5.853
 7937POPC   GL138725   1.195   0.468   6.153
 7937POPC   GL238726   1.341   0.391   6.153
 7937POPC   C1A38727   1.216   0.443   6.453
 7937POPC   D2A38728   1.206   0.395   6.753
 7937POPC   C3A38729   1.235   0.407   7.053
 7937POPC   C4A38730   1.220   0.481   7.353
 7937POPC   C1B38731   1.477   0.437   6.453
 7937POPC   C2B38732   1.480   0.454   6.753
 7937POPC   C3B38733   1.442   0.403   7.053
 7937POPC   C4B38734   1.487   0.384   7.353
 7938POPC   NC338735  40.033  36.108   5.553
 7938POPC   PO438736  40.013  36.110   5.853
 7938POPC   GL138737  40.038  36.148   6.153
 7938POPC   GL238738  40.054  36.001   6.153
 7938POPC   C1A38739  40.004  36.156   6.453
 7938POPC   D2A38740  40.018  36.148   6.753
 7938POPC   C3A38741  40.032  36.106   7.053
 7938POPC   C4A38742  39.998  36.128   7.353
 7938POPC   C1B38743  40.087  35.914   6.453
 7938POPC   C2B38744  40.130  35.889   6.753
 7938POPC   C3B38745  40.085  35.900   7.053
 7938POPC   C4B38746  40.103  35.884   7.353
 7939POPC   NC338747  11.291   9.765   5.553
 7939POPC   PO438748  11.323   9.761   5.853
 7939POPC   GL138749  11.259   9.702   6.153
 7939POPC   GL238750  11.205   9.754   6.153
 7939POPC   C1A38751  11.284   9.774   6.453
 7939POPC   D2A38752  11.295   9.767   6.753
 7939POPC   C3A38753  11.346   9.716   7.053
 7939POPC   C4A38754  11.311   9.752   7.353
 7939POPC   C1B38755  11.080   9.698   6.453
 7939POPC   C2B38756  11.091   9.644   6.753
 7939POPC   C3B38757  11.090   9.672   7.053
 7939POPC   C4B38758  11.097   9.661   7.353
 7940POPC   NC338759  19.057   1.178   5.553
 7940POPC   PO438760  19.071   1.235   5.853
 7940POPC   GL138761  19.083   1.245   6.153
 7940POPC   GL238762  18.938   1.212   6.153
 7940POPC   C1A38763  19.038   1.184   6.453
 7940POPC   D2A38764  19.065   1.178   6.753
 7940POPC   C3A38765  19.027   1.255   7.053
 7940POPC   C4A38766  19.087   1.253   7.353
 7940POPC   C1B38767  18.855   1.234   6.453
 7940POPC   C2B38768  18.827   1.221   6.753
 7940POPC   C3B38769  18.828   1.207   7.053
 7940POPC   C4B38770  18.844   1.282   7.353
 7941POPC   NC338771  16.771  40.032   5.553
 7941POPC   PO438772  16.697  40.024   5.853
 7941POPC   GL138773  16.775  39.998   6.153
 7941POPC   GL238774  16.649  40.109   6.153
 7941POPC   C1A38775  16.689  40.002   6.453
 7941POPC   D2A38776  16.697  39.963   6.753
 7941POPC   C3A38777  16.726  39.958   7.053
 7941POPC   C4A38778  16.713  40.036   7.353
 7941POPC   C1B38779  16.602  40.191   6.453
 7941POPC   C2B38780  16.589  40.216   6.753
 7941POPC   C3B38781  16.618  40.275   7.053
 7941POPC   C4B38782  16.642  40.208   7.353
 7942POPC   NC338783  20.635  32.213   5.553
 7942POPC   PO438784  20.599  32.256   5.853
 7942POPC   GL138785  20.578  32.261   6.153
 7942POPC   GL238786  20.526  32.095   6.153
 7942POPC   C1A38787  20.600  32.206   6.453
 7942POPC   D2A38788  20.586  32.268   6.753
 7942POPC   C3A38789  20.641  32.251   7.053
 7942POPC   C4A38790  20.654  32.259   7.353
 7942POPC   C1B38791  20.509  32.024   6.453
 7942POPC   C2B38792  20.513  32.024   6.753
 7942POPC   C3B38793  20.485  32.001   7.053
 7942POPC   C4B38794  20.450  32.068   7.353
 7943POPC   NC338795   5.063   8.930   5.553
 7943POPC   PO438796   5.045   8.980   5.853
 7943POPC   GL138797   5.064   8.992   6.153
 7943POPC   GL238798   5.233   9.024   6.153
 7943POPC   C1A38799   5.140   8.984   6.453
 7943POPC   D2A38800   5.132   9.000   6.753
 7943POPC   C3A38801   5.127   9.007   7.053
 7943POPC   C4A38802   5.142   9.000   7.353
 7943POPC   C1B38803   5.349   9.081   6.453
 7943POPC   C2B38804   5.294   9.052   6.753
 7943POPC   C3B38805   5.345   9.041   7.053
 7943POPC   C4B38806   5.349   9.010   7.353
 7944POPC   NC338807  43.148   2.036   5.553
 7944POPC   PO438808  43.127   1.957   5.853
 7944POPC   GL138809  43.147   2.015   6.153
 7944POPC   GL238810  43.223   2.013   6.153
 7944POPC   C1A38811  43.122   1.966   6.453
 7944POPC   D2A38812  43.158   1.980   6.753
 7944POPC   C3A38813  43.084   2.007   7.053
 7944POPC   C4A38814  43.074   1.960   7.353
 7944POPC   C1B38815  43.359   1.944   6.453
 7944POPC   C2B38816  43.310   1.925   6.753
 7944POPC   C3B38817  43.385   2.004   7.053
 7944POPC   C4B38818  43.329   1.963   7.353
 7945POPC   NC338819   8.238  22.176   5.553
 7945POPC   PO438820   8.239  22.204   5.853
 7945POPC   GL138821   8.169  22.200   6.153
 7945POPC   GL238822   8.278  22.032   6.153
 7945POPC   C1A38823   8.161  22.161   6.453
 7945POPC   D2A38824   8.172  22.119   6.753
 7945POPC   C3A38825   8.200  22.192   7.053
 7945POPC   C4A38826   8.196  22.140   7.353
 7945POPC   C1B38827   8.330  21.967   6.453
 7945POPC   C2B38828   8.328  21.904   6.753
 7945POPC   C3B38829   8.269  21.920   7.053
 7945POPC   C4B38830   8.263  21.889   7.353
 7946POPC   NC338831   8.956  37.719   5.553
 7946POPC   PO438832   8.964  37.717   5.853
 7946POPC   GL138833   8.978  37.713   6.153
 7946POPC   GL238834   8.840  37.775   6.153
 7946POPC   C1A38835   9.017  37.681   6.453
 7946POPC   D2A38836   8.924  37.681   6.753
 7946POPC   C3A38837   8.955  37.669   7.053
 7946POPC   C4A38838   8.930  37.633   7.353
 7946POPC   C1B38839   8.759  37.885   6.453
 7946POPC   C2B38840   8.766  37.838   6.753
 7946POPC   C3B38841   8.808  37.869   7.053
 7946POPC   C4B38842   8.807  37.874   7.353
 7947POPC   NC338843  13.586  43.868   5.553
 7947POPC   PO438844  13.621  43.874   5.853
 7947POPC   GL138845  13.659  43.910   6.153
 7947POPC   GL238846  13.670  43.981   6.153
 7947POPC   C1A38847  13.607  43.838   6.453
 7947POPC   D2A38848  13.654  43.930   6.753
 7947POPC   C3A38849  13.624  43.846   7.053
 7947POPC   C4A38850  13.601  43.848   7.353
 7947POPC   C1B38851  13.592  44.142   6.453
 7947POPC   C2B38852  13.638  44.099   6.753
 7947POPC   C3B38853  13.640  44.089   7.053
 7947POPC   C4B38854  13.662  44.162   7.353
 7948POPC   NC338855  28.411  22.132   5.553
 7948POPC   PO438856  28.402  22.114   5.853
 7948POPC   GL138857  28.355  22.131   6.153
 7948POPC   GL238858  28.538  22.140   6.153
 7948POPC   C1A38859  28.407  22.142   6.453
 7948POPC   D2A38860  28.354  22.209   6.753
 7948POPC   C3A38861  28.365  22.182   7.053
 7948POPC   C4A38862  28.337  22.192   7.353
 7948POPC   C1B38863  28.604  22.198   6.453
 7948POPC   C2B38864  28.597  22.202   6.753
 7948POPC   C3B38865  28.584  22.215   7.053
 7948POPC   C4B38866  28.641  22.257   7.353
 7949POPC   NC338867   6.597  20.659   5.553
 7949POPC   PO438868   6.631  20.634   5.853
 7949POPC   GL138869   6.673  20.571   6.153
 7949POPC   GL238870   6.569  20.587   6.153
 7949POPC   C1A38871   6.647  20.562   6.453
 7949POPC   D2A38872   6.636  20.566   6.753
 7949POPC   C3A38873   6.611  20.646   7.053
 7949POPC   C4A38874   6.650  20.597   7.353
 7949POPC   C1B38875   6.416  20.682   6.453
 7949POPC   C2B38876   6.412  20.671   6.753
 7949POPC   C3B38877   6.437  20.612   7.053
 7949POPC   C4B38878   6.375  20.698   7.353
 7950POPC   NC338879  20.626   0.422   5.553
 7950POPC   PO438880  20.594   0.426   5.853
 7950POPC   GL138881  20.657   0.450   6.153
 7950POPC   GL238882  20.489   0.536   6.153
 7950POPC   C1A38883  20.638   0.473   6.453
 7950POPC   D2A38884  20.605   0.401   6.753
 7950POPC   C3A38885  20.591   0.435   7.053
 7950POPC   C4A38886  20.628   0.414   7.353
 7950POPC   C1B38887  20.383   0.563   6.453
 7950POPC   C2B38888  20.390   0.619   6.753
 7950POPC   C3B38889  20.407   0.656   7.053
 7950POPC   C4B38890  20.395   0.563   7.353
 7951POPC   NC338891  41.520   1.960   5.553
 7951POPC   PO438892  41.524   2.016   5.853
 7951POPC   GL138893  41.555   1.958   6.153
 7951POPC   GL238894  41.670   1.987   6.153
 7951POPC   C1A38895  41.573   2.032   6.453
 7951POPC   D2A38896  41.517   1.998   6.753
 7951POPC   C3A38897  41.602   1.979   7.053
 7951POPC   C4A38898  41.547   2.026   7.353
 7951POPC   C1B38899  41.793   2.074   6.453
 7951POPC   C2B38900  41.794   2.049   6.753
 7951POPC   C3B38901  41.762   1.987   7.053
 7951POPC   C4B38902  41.850   2.038   7.353
 7952POPC   NC338903  42.310  38.486   5.553
 7952POPC   PO438904  42.337  38.442   5.853
 7952POPC   GL138905  42.338  38.428   6.153
 7952POPC   GL238906  42.239  38.517   6.153
 7952POPC   C1A38907  42.308  38.407   6.453
 7952POPC   D2A38908  42.353  38.428   6.753
 7952POPC   C3A38909  42.368  38.475   7.053
 7952POPC   C4A38910  42.375  38.472   7.353
 7952POPC   C1B38911  42.195  38.632   6.453
 7952POPC   C2B38912  42.225  38.658   6.753
 7952POPC   C3B38913  42.241  38.714   7.053
 7952POPC   C4B38914  42.205  38.668   7.353
 7953POPC   NC338915  20.604  25.268   5.553
 7953POPC   PO438916  20.622  25.276   5.853
 7953POPC   GL138917  20.617  25.217   6.153
 7953POPC   GL238918  20.512  25.295   6.153
 7953POPC   C1A38919  20.598  25.280   6.453
 7953POPC   D2A38920  20.569  25.298   6.753
 7953POPC   C3A38921  20.596  25.278   7.053
 7953POPC   C4A38922  20.629  25.228   7.353
 7953POPC   C1B38923  20.386  25.306   6.453
 7953POPC   C2B38924  20.325  25.300   6.753
 7953POPC   C3B38925  20.319  25.306   7.053
 7953POPC   C4B38926  20.373  25.359   7.353
 7954POPC   NC338927  43.064  16.780   5.553
 7954POPC   PO438928  43.133  16.712   5.853
 7954POPC   GL138929  43.107  16.779   6.153
 7954POPC   GL238930  43.082  16.852   6.153
 7954POPC   C1A38931  43.069  16.741   6.453
 7954POPC   D2A38932  43.077  16.772   6.753
 7954POPC   C3A38933  43.157  16.747   7.053
 7954POPC   C4A38934  43.159  16.763   7.353
 7954POPC   C1B38935  43.115  16.946   6.453
 7954POPC   C2B38936  43.047  16.988   6.753
 7954POPC   C3B38937  43.106  16.999   7.053
 7954POPC   C4B38938  43.056  17.014   7.353
 7955POPC   NC338939  22.200  24.539   5.553
 7955POPC   PO438940  22.177  24.490   5.853
 7955POPC   GL138941  22.197  24.472   6.153
 7955POPC   GL238942  22.053  24.487   6.153
 7955POPC   C1A38943  22.119  24.466   6.453
 7955POPC   D2A38944  22.138  24.529   6.753
 7955POPC   C3A38945  22.195  24.459   7.053
 7955POPC   C4A38946  22.209  24.453   7.353
 7955POPC   C1B38947  21.874  24.549   6.453
 7955POPC   C2B38948  21.938  24.531   6.753
 7955POPC   C3B38949  21.886  24.518   7.053
 7955POPC   C4B38950  21.965  24.589   7.353
 7956POPC   NC338951  35.310  33.825   5.553
 7956POPC   PO438952  35.363  33.843   5.853
 7956POPC   GL138953  35.351  33.781   6.153
 7956POPC   GL238954  35.364  33.642   6.153
 7956POPC   C1A38955  35.376  33.771   6.453
 7956POPC   D2A38956  35.368  33.791   6.753
 7956POPC   C3A38957  35.350  33.763   7.053
 7956POPC   C4A38958  35.335  33.766   7.353
 7956POPC   C1B38959  35.440  33.581   6.453
 7956POPC   C2B38960  35.435  33.592   6.753
 7956POPC   C3B38961  35.401  33.598   7.053
 7956POPC   C4B38962  35.415  33.529   7.353
 7957POPC   NC338963  18.273  31.509   5.553
 7957POPC   PO438964  18.290  31.501   5.853
 7957POPC   GL138965  18.261  31.495   6.153
 7957POPC   GL238966  18.235  31.350   6.153
 7957POPC   C1A38967  18.286  31.512   6.453
 7957POPC   D2A38968  18.259  31.473   6.753
 7957POPC   C3A38969  18.309  31.449   7.053
 7957POPC   C4A38970  18.300  31.495   7.353
 7957POPC   C1B38971  18.165  31.301   6.453
 7957POPC   C2B38972  18.104  31.327   6.753
 7957POPC   C3B38973  18.087  31.249   7.053
 7957POPC   C4B38974  18.078  31.322   7.353
 7958POPC   NC338975   0.429   1.227   5.553
 7958POPC   PO438976   0.483   1.182   5.853
 7958POPC   GL138977   0.461   1.254   6.153
 7958POPC   GL238978   0.482   1.149   6.153
 7958POPC   C1A38979   0.429   1.229   6.453
 7958POPC   D2A38980   0.400   1.248   6.753
 7958POPC   C3A38981   0.483   1.184   7.053
 7958POPC   C4A38982   0.409   1.216   7.353
 7958POPC   C1B38983   0.562   1.022   6.453
 7958POPC   C2B38984   0.563   1.032   6.753
 7958POPC   C3B38985   0.571   0.957   7.053
 7958POPC   C4B38986   0.602   0.991   7.353
 7959POPC   NC338987   1.245  34.616   5.553
 7959POPC   PO438988   1.226  34.540   5.853
 7959POPC   GL138989   1.201  34.568   6.153
 7959POPC   GL238990   1.264  34.645   6.153
 7959POPC   C1A38991   1.250  34.528   6.453
 7959POPC   D2A38992   1.248  34.554   6.753
 7959POPC   C3A38993   1.227  34.615   7.053
 7959POPC   C4A38994   1.186  34.526   7.353
 7959POPC   C1B38995   1.412  34.738   6.453
 7959POPC   C2B38996   1.343  34.790   6.753
 7959POPC   C3B38997   1.381  34.801   7.053
 7959POPC   C4B38998   1.348  34.738   7.353
 7960POPC   NC338999  14.399   8.201   5.553
 7960POPC   PO439000  14.398   8.220   5.853
 7960POPC   GL139001  14.445   8.193   6.153
 7960POPC   GL239002  14.235   8.198   6.153
 7960POPC   C1A39003  14.387   8.156   6.453
 7960POPC   D2A39004  14.386   8.178   6.753
 7960POPC   C3A39005  14.378   8.182   7.053
 7960POPC   C4A39006  14.371   8.233   7.353
 7960POPC   C1B39007  14.180   8.154   6.453
 7960POPC   C2B39008  14.153   8.098   6.753
 7960POPC   C3B39009  14.113   8.087   7.053
 7960POPC   C4B39010  14.129   8.153   7.353
 7961POPC   NC339011  32.214  28.406   5.553
 7961POPC   PO439012  32.286  28.406   5.853
 7961POPC   GL139013  32.272  28.413   6.153
 7961POPC   GL239014  32.413  28.403   6.153
 7961POPC   C1A39015  32.288  28.409   6.453
 7961POPC   D2A39016  32.213  28.374   6.753
 7961POPC   C3A39017  32.199  28.398   7.053
 7961POPC   C4A39018  32.261  28.381   7.353
 7961POPC   C1B39019  32.520  28.391   6.453
 7961POPC   C2B39020  32.535  28.374   6.753
 7961POPC   C3B39021  32.471  28.452   7.053
 7961POPC   C4B39022  32.457  28.381   7.353
 7962POPC   NC339023  23.757   3.524   5.553
 7962POPC   PO439024  23.682   3.539   5.853
 7962POPC   GL139025  23.705   3.591   6.153
 7962POPC   GL239026  23.850   3.480   6.153
 7962POPC   C1A39027  23.684   3.555   6.453
 7962POPC   D2A39028  23.743   3.524   6.753
 7962POPC   C3A39029  23.752   3.540   7.053
 7962POPC   C4A39030  23.738   3.576   7.353
 7962POPC   C1B39031  23.894   3.390   6.453
 7962POPC   C2B39032  23.902   3.383   6.753
 7962POPC   C3B39033  23.911   3.345   7.053
 7962POPC   C4B39034  23.934   3.410   7.353
 7963POPC   NC339035  27.549  32.231   5.553
 7963POPC   PO439036  27.640  32.254   5.853
 7963POPC   GL139037  27.634  32.252   6.153
 7963POPC   GL239038  27.672  32.096   6.153
 7963POPC   C1A39039  27.567  32.284   6.453
 7963POPC   D2A39040  27.617  32.287   6.753
 7963POPC   C3A39041  27.566  32.255   7.053
 7963POPC   C4A39042  27.551  32.272   7.353
 7963POPC   C1B39043  27.663  32.044   6.453
 7963POPC   C2B39044  27.667  31.964   6.753
 7963POPC   C3B39045  27.632  32.019   7.053
 7963POPC   C4B39046  27.682  31.970   7.353
 7964POPC   NC339047  32.218  13.636   5.553
 7964POPC   PO439048  32.236  13.638   5.853
 7964POPC   GL139049  32.230  13.603   6.153
 7964POPC   GL239050  32.143  13.737   6.153
 7964POPC   C1A39051  32.219  13.578   6.453
 7964POPC   D2A39052  32.266  13.650   6.753
 7964POPC   C3A39053  32.268  13.579   7.053
 7964POPC   C4A39054  32.218  13.607   7.353
 7964POPC   C1B39055  32.043  13.845   6.453
 7964POPC   C2B39056  32.079  13.774   6.753
 7964POPC   C3B39057  32.055  13.870   7.053
 7964POPC   C4B39058  32.087  13.771   7.353
 7965POPC   NC339059  31.466  39.977   5.553
 7965POPC   PO439060  31.473  40.009   5.853
 7965POPC   GL139061  31.448  40.033   6.153
 7965POPC   GL239062  31.480  39.909   6.153
 7965POPC   C1A39063  31.508  39.970   6.453
 7965POPC   D2A39064  31.497  39.991   6.753
 7965POPC   C3A39065  31.496  39.998   7.053
 7965POPC   C4A39066  31.457  39.964   7.353
 7965POPC   C1B39067  31.357  39.749   6.453
 7965POPC   C2B39068  31.356  39.792   6.753
 7965POPC   C3B39069  31.385  39.801   7.053
 7965POPC   C4B39070  31.365  39.815   7.353
 7966POPC   NC339071   2.764  35.388   5.553
 7966POPC   PO439072   2.808  35.318   5.853
 7966POPC   GL139073   2.766  35.373   6.153
 7966POPC   GL239074   2.855  35.248   6.153
 7966POPC   C1A39075   2.805  35.338   6.453
 7966POPC   D2A39076   2.774  35.360   6.753
 7966POPC   C3A39077   2.770  35.321   7.053
 7966POPC   C4A39078   2.807  35.329   7.353
 7966POPC   C1B39079   2.902  35.130   6.453
 7966POPC   C2B39080   2.915  35.109   6.753
 7966POPC   C3B39081   2.886  35.097   7.053
 7966POPC   C4B39082   2.834  35.126   7.353
 7967POPC   NC339083  17.497  38.411   5.553
 7967POPC   PO439084  17.530  38.411   5.853
 7967POPC   GL139085  17.471  38.412   6.153
 7967POPC   GL239086  17.363  38.440   6.153
 7967POPC   C1A39087  17.489  38.443   6.453
 7967POPC   D2A39088  17.507  38.432   6.753
 7967POPC   C3A39089  17.514  38.474   7.053
 7967POPC   C4A39090  17.509  38.454   7.353
 7967POPC   C1B39091  17.292  38.323   6.453
 7967POPC   C2B39092  17.236  38.391   6.753
 7967POPC   C3B39093  17.299  38.321   7.053
 7967POPC   C4B39094  17.229  38.389   7.353
 7968POPC   NC339095  20.653  17.545   5.553
 7968POPC   PO439096  20.591  17.498   5.853
 7968POPC   GL139097  20.638  17.476   6.153
 7968POPC   GL239098  20.525  17.586   6.153
 7968POPC   C1A39099  20.614  17.494   6.453
 7968POPC   D2A39100  20.630  17.465   6.753
 7968POPC   C3A39101  20.573  17.546   7.053
 7968POPC   C4A39102  20.600  17.532   7.353
 7968POPC   C1B39103  20.529  17.742   6.453
 7968POPC   C2B39104  20.547  17.699   6.753
 7968POPC   C3B39105  20.514  17.735   7.053
 7968POPC   C4B39106  20.544  17.788   7.353
 7969POPC   NC339107  41.557  22.979   5.553
 7969POPC   PO439108  41.540  22.894   5.853
 7969POPC   GL139109  41.563  22.984   6.153
 7969POPC   GL239110  41.561  22.804   6.153
 7969POPC   C1A39111  41.582  22.986   6.453
 7969POPC   D2A39112  41.510  22.906   6.753
 7969POPC   C3A39113  41.565  22.929   7.053
 7969POPC   C4A39114  41.556  22.956   7.353
 7969POPC   C1B39115  41.635  22.685   6.453
 7969POPC   C2B39116  41.675  22.720   6.753
 7969POPC   C3B39117  41.662  22.738   7.053
 7969POPC   C4B39118  41.667  22.662   7.353
 7970POPC   NC339119  13.592  18.305   5.553
 7970POPC   PO439120  13.613  18.332   5.853
 7970POPC   GL139121  13.662  18.330   6.153
 7970POPC   GL239122  13.542  18.204   6.153
 7970POPC   C1A39123  13.622  18.326   6.453
 7970POPC   D2A39124  13.645  18.312   6.753
 7970POPC   C3A39125  13.584  18.242   7.053
 7970POPC   C4A39126  13.629  18.331   7.353
 7970POPC   C1B39127  13.445  18.133   6.453
 7970POPC   C2B39128  13.426  18.091   6.753
 7970POPC   C3B39129  13.474  18.094   7.053
 7970POPC   C4B39130  13.466  18.100   7.353
 7971POPC   NC339131   9.707  36.124   5.553
 7971POPC   PO439132   9.700  36.110   5.853
 7971POPC   GL139133   9.748  36.144   6.153
 7971POPC   GL239134   9.879  36.202   6.153
 7971POPC   C1A39135   9.788  36.096   6.453
 7971POPC   D2A39136   9.781  36.107   6.753
 7971POPC   C3A39137   9.733  36.114   7.053
 7971POPC   C4A39138   9.731  36.141   7.353
 7971POPC   C1B39139  10.013  36.197   6.453
 7971POPC   C2B39140  10.009  36.217   6.753
 7971POPC   C3B39141  10.020  36.143   7.053
 7971POPC   C4B39142  10.040  36.222   7.353
 7972POPC   NC339143  41.545   8.972   5.553
 7972POPC   PO439144  41.571   8.954   5.853
 7972POPC   GL139145  41.563   8.947   6.153
 7972POPC   GL239146  41.684   9.006   6.153
 7972POPC   C1A39147  41.600   8.928   6.453
 7972POPC   D2A39148  41.509   8.977   6.753
 7972POPC   C3A39149  41.571   8.934   7.053
 7972POPC   C4A39150  41.591   8.955   7.353
 7972POPC   C1B39151  41.779   9.014   6.453
 7972POPC   C2B39152  41.787   9.089   6.753
 7972POPC   C3B39153  41.782   9.018   7.053
 7972POPC   C4B39154  41.831   9.078   7.353
 7973POPC   NC339155  39.252  16.734   5.553
 7973POPC   PO439156  39.183  16.707   5.853
 7973POPC   GL139157  39.227  16.713   6.153
 7973POPC   GL239158  39.355  16.818   6.153
 7973POPC   C1A39159  39.227  16.743   6.453
 7973POPC   D2A39160  39.241  16.775   6.753
 7973POPC   C3A39161  39.233  16.749   7.053
 7973POPC   C4A39162  39.221  16.735   7.353
 7973POPC   C1B39163  39.369  16.900   6.453
 7973POPC   C2B39164  39.341  16.881   6.753
 7973POPC   C3B39165  39.343  16.964   7.053
 7973POPC   C4B39166  39.381  16.888   7.353
 7974POPC   NC339167   9.713   8.169   5.553
 7974POPC   PO439168   9.714   8.209   5.853
 7974POPC   GL139169   9.714   8.221   6.153
 7974POPC   GL239170   9.671   8.117   6.153
 7974POPC   C1A39171   9.794   8.174   6.453
 7974POPC   D2A39172   9.743   8.192   6.753
 7974POPC   C3A39173   9.765   8.245   7.053
 7974POPC   C4A39174   9.728   8.177   7.353
 7974POPC   C1B39175   9.602   7.948   6.453
 7974POPC   C2B39176   9.677   7.940   6.753
 7974POPC   C3B39177   9.599   8.004   7.053
 7974POPC   C4B39178   9.680   7.965   7.353
 7975POPC   NC339179  12.807  28.356   5.553
 7975POPC   PO439180  12.884  28.401   5.853
 7975POPC   GL139181  12.850  28.334   6.153
 7975POPC   GL239182  12.927  28.356   6.153
 7975POPC   C1A39183  12.866  28.380   6.453
 7975POPC   D2A39184  12.849  28.324   6.753
 7975POPC   C3A39185  12.812  28.335   7.053
 7975POPC   C4A39186  12.828  28.355   7.353
 7975POPC   C1B39187  13.051  28.220   6.453
 7975POPC   C2B39188  13.106  28.314   6.753
 7975POPC   C3B39189  13.061  28.267   7.053
 7975POPC   C4B39190  13.068  28.311   7.353
 7976POPC   NC339191  19.822  10.508   5.553
 7976POPC   PO439192  19.821  10.504   5.853
 7976POPC   GL139193  19.842  10.556   6.153
 7976POPC   GL239194  19.841  10.636   6.153
 7976POPC   C1A39195  19.794  10.482   6.453
 7976POPC   D2A39196  19.843  10.533   6.753
 7976POPC   C3A39197  19.805  10.493   7.053
 7976POPC   C4A39198  19.866  10.567   7.353
 7976POPC   C1B39199  19.794  10.762   6.453
 7976POPC   C2B39200  19.854  10.754   6.753
 7976POPC   C3B39201  19.833  10.814   7.053
 7976POPC   C4B39202  19.865  10.765   7.353
 7977POPC   NC339203  26.016  34.586   5.553
 7977POPC   PO439204  26.044  34.596   5.853
 7977POPC   GL139205  26.080  34.602   6.153
 7977POPC   GL239206  25.916  34.648   6.153
 7977POPC   C1A39207  26.060  34.599   6.453
 7977POPC   D2A39208  26.063  34.583   6.753
 7977POPC   C3A39209  26.073  34.549   7.053
 7977POPC   C4A39210  26.028  34.550   7.353
 7977POPC   C1B39211  25.768  34.674   6.453
 7977POPC   C2B39212  25.822  34.617   6.753
 7977POPC   C3B39213  25.795  34.661   7.053
 7977POPC   C4B39214  25.760  34.643   7.353
 7978POPC   NC339215  29.108  29.924   5.553
 7978POPC   PO439216  29.131  29.872   5.853
 7978POPC   GL139217  29.146  29.945   6.153
 7978POPC   GL239218  29.231  30.032   6.153
 7978POPC   C1A39219  29.170  29.942   6.453
 7978POPC   D2A39220  29.115  29.944   6.753
 7978POPC   C3A39221  29.164  29.871   7.053
 7978POPC   C4A39222  29.118  29.918   7.353
 7978POPC   C1B39223  29.349  30.101   6.453
 7978POPC   C2B39224  29.339  30.121   6.753
 7978POPC   C3B39225  29.338  30.125   7.053
 7978POPC   C4B39226  29.334  30.078   7.353
 7979POPC   NC339227  43.850  18.245   5.553
 7979POPC   PO439228  43.850  18.322   5.853
 7979POPC   GL139229  43.918  18.242   6.153
 7979POPC   GL239230  43.726  18.238   6.153
 7979POPC   C1A39231  43.926  18.245   6.453
 7979POPC   D2A39232  43.851  18.318   6.753
 7979POPC   C3A39233  43.900  18.327   7.053
 7979POPC   C4A39234  43.932  18.280   7.353
 7979POPC   C1B39235  43.595  18.248   6.453
 7979POPC   C2B39236  43.631  18.276   6.753
 7979POPC   C3B39237  43.631  18.227   7.053
 7979POPC   C4B39238  43.612  18.195   7.353
 7980POPC   NC339239  35.318  12.104   5.553
 7980POPC   PO439240  35.376  12.041   5.853
 7980POPC   GL139241  35.337  12.115   6.153
 7980POPC   GL239242  35.198  12.001   6.153
 7980POPC   C1A39243  35.308  12.125   6.453
 7980POPC   D2A39244  35.362  12.082   6.753
 7980POPC   C3A39245  35.394  12.101   7.053
 7980POPC   C4A39246  35.377  12.044   7.353
 7980POPC   C1B39247  35.152  11.997   6.453
 7980POPC   C2B39248  35.152  11.923   6.753
 7980POPC   C3B39249  35.095  11.940   7.053
 7980POPC   C4B39250  35.124  11.989   7.353
 7981POPC   NC339251   5.056  35.344   5.553
 7981POPC   PO439252   5.101  35.334   5.853
 7981POPC   GL139253   5.059  35.312   6.153
 7981POPC   GL239254   5.041  35.489   6.153
 7981POPC   C1A39255   5.077  35.346   6.453
 7981POPC   D2A39256   5.083  35.367   6.753
 7981POPC   C3A39257   5.067  35.303   7.053
 7981POPC   C4A39258   5.080  35.312   7.353
 7981POPC   C1B39259   4.960  35.542   6.453
 7981POPC   C2B39260   4.956  35.541   6.753
 7981POPC   C3B39261   4.964  35.524   7.053
 7981POPC   C4B39262   4.958  35.501   7.353
 7982POPC   NC339263   8.229   8.962   5.553
 7982POPC   PO439264   8.190   9.021   5.853
 7982POPC   GL139265   8.183   8.949   6.153
 7982POPC   GL239266   8.140   8.893   6.153
 7982POPC   C1A39267   8.180   9.009   6.453
 7982POPC   D2A39268   8.153   9.017   6.753
 7982POPC   C3A39269   8.206   8.965   7.053
 7982POPC   C4A39270   8.229   8.990   7.353
 7982POPC   C1B39271   8.038   8.813   6.453
 7982POPC   C2B39272   8.051   8.732   6.753
 7982POPC   C3B39273   8.057   8.777   7.053
 7982POPC   C4B39274   8.056   8.817   7.353
 7983POPC   NC339275  19.789   5.046   5.553
 7983POPC   PO439276  19.822   5.064   5.853
 7983POPC   GL139277  19.835   5.095   6.153
 7983POPC   GL239278  19.860   4.937   6.153
 7983POPC   C1A39279  19.852   5.098   6.453
 7983POPC   D2A39280  19.792   5.051   6.753
 7983POPC   C3A39281  19.823   5.123   7.053
 7983POPC   C4A39282  19.844   5.088   7.353
 7983POPC   C1B39283  19.826   4.891   6.453
 7983POPC   C2B39284  19.795   4.823   6.753
 7983POPC   C3B39285  19.824   4.802   7.053
 7983POPC   C4B39286  19.847   4.850   7.353
 7984POPC   NC339287  39.216   0.487   5.553
 7984POPC   PO439288  39.241   0.415   5.853
 7984POPC   GL139289  39.201   0.479   6.153
 7984POPC   GL239290  39.294   0.578   6.153
 7984POPC   C1A39291  39.207   0.422   6.453
 7984POPC   D2A39292  39.244   0.437   6.753
 7984POPC   C3A39293  39.276   0.403   7.053
 7984POPC   C4A39294  39.269   0.483   7.353
 7984POPC   C1B39295  39.338   0.597   6.453
 7984POPC   C2B39296  39.403   0.670   6.753
 7984POPC   C3B39297  39.399   0.658   7.053
 7984POPC   C4B39298  39.400   0.642   7.353
 7985POPC   NC339299   0.423   8.191   5.553
 7985POPC   PO439300   0.426   8.221   5.853
 7985POPC   GL139301   0.413   8.243   6.153
 7985POPC   GL239302   0.352   8.149   6.153
 7985POPC   C1A39303   0.471   8.190   6.453
 7985POPC   D2A39304   0.423   8.245   6.753
 7985POPC   C3A39305   0.431   8.244   7.053
 7985POPC   C4A39306   0.438   8.232   7.353
 7985POPC   C1B39307   0.158   8.144   6.453
 7985POPC   C2B39308   0.220   8.128   6.753
 7985POPC   C3B39309   0.144   8.132   7.053
 7985POPC   C4B39310   0.187   8.185   7.353
 7986POPC   NC339311   1.201   5.074   5.553
 7986POPC   PO439312   1.249   5.125   5.853
 7986POPC   GL139313   1.173   5.062   6.153
 7986POPC   GL239314   1.291   4.961   6.153
 7986POPC   C1A39315   1.234   5.129   6.453
 7986POPC   D2A39316   1.200   5.133   6.753
 7986POPC   C3A39317   1.188   5.108   7.053
 7986POPC   C4A39318   1.240   5.118   7.353
 7986POPC   C1B39319   1.409   4.878   6.453
 7986POPC   C2B39320   1.374   4.933   6.753
 7986POPC   C3B39321   1.406   4.963   7.053
 7986POPC   C4B39322   1.347   4.895   7.353
 7987POPC   NC339323   6.643  12.823   5.553
 7987POPC   PO439324   6.683  12.885   5.853
 7987POPC   GL139325   6.643  12.804   6.153
 7987POPC   GL239326   6.695  12.732   6.153
 7987POPC   C1A39327   6.683  12.890   6.453
 7987POPC   D2A39328   6.646  12.836   6.753
 7987POPC   C3A39329   6.676  12.866   7.053
 7987POPC   C4A39330   6.681  12.839   7.353
 7987POPC   C1B39331   6.726  12.599   6.453
 7987POPC   C2B39332   6.677  12.574   6.753
 7987POPC   C3B39333   6.692  12.637   7.053
 7987POPC   C4B39334   6.674  12.581   7.353
 7988POPC   NC339335   2.015  44.644   5.553
 7988POPC   PO439336   1.962  44.648   5.853
 7988POPC   GL139337   1.967  44.652   6.153
 7988POPC   GL239338   1.999  44.783   6.153
 7988POPC   C1A39339   1.994  44.639   6.453
 7988POPC   D2A39340   1.995  44.621   6.753
 7988POPC   C3A39341   2.024  44.687   7.053
 7988POPC   C4A39342   2.019  44.709   7.353
 7988POPC   C1B39343   2.018  44.890   6.453
 7988POPC   C2B39344   2.032  44.907   6.753
 7988POPC   C3B39345   2.018  44.877   7.053
 7988POPC   C4B39346   1.955  44.869   7.353
 7989POPC   NC339347  41.597   0.397   5.553
 7989POPC   PO439348  41.569   0.453   5.853
 7989POPC   GL139349  41.565   0.428   6.153
 7989POPC   GL239350  41.578   0.324   6.153
 7989POPC   C1A39351  41.579   0.392   6.453
 7989POPC   D2A39352  41.510   0.397   6.753
 7989POPC   C3A39353  41.518   0.413   7.053
 7989POPC   C4A39354  41.548   0.441   7.353
 7989POPC   C1B39355  41.565   0.151   6.453
 7989POPC   C2B39356  41.557   0.167   6.753
 7989POPC   C3B39357  41.595   0.177   7.053
 7989POPC   C4B39358  41.561   0.186   7.353
 7990POPC   NC339359  44.708  22.209   5.553
 7990POPC   PO439360  44.653  22.181   5.853
 7990POPC   GL139361  44.688  22.174   6.153
 7990POPC   GL239362  44.732  22.174   6.153
 7990POPC   C1A39363  44.668  22.198   6.453
 7990POPC   D2A39364  44.711  22.187   6.753
 7990POPC   C3A39365  44.646  22.197   7.053
 7990POPC   C4A39366  44.705  22.164   7.353
 7990POPC   C1B39367  44.891  22.282   6.453
 7990POPC   C2B39368  44.901  22.219   6.753
 7990POPC   C3B39369  44.864  22.276   7.053
 7990POPC   C4B39370  44.857  22.250   7.353
 7991POPC   NC339371   6.661  21.417   5.553
 7991POPC   PO439372   6.675  21.384   5.853
 7991POPC   GL139373   6.645  21.392   6.153
 7991POPC   GL239374   6.744  21.415   6.153
 7991POPC   C1A39375   6.654  21.409   6.453
 7991POPC   D2A39376   6.668  21.340   6.753
 7991POPC   C3A39377   6.639  21.396   7.053
 7991POPC   C4A39378   6.681  21.404   7.353
 7991POPC   C1B39379   6.901  21.378   6.453
 7991POPC   C2B39380   6.856  21.418   6.753
 7991POPC   C3B39381   6.864  21.436   7.053
 7991POPC   C4B39382   6.889  21.383   7.353
 7992POPC   NC339383  40.046  33.826   5.553
 7992POPC   PO439384  40.040  33.823   5.853
 7992POPC   GL139385  39.957  33.763   6.153
 7992POPC   GL239386  40.028  33.903   6.153
 7992POPC   C1A39387  39.961  33.779   6.453
 7992POPC   D2A39388  40.001  33.832   6.753
 7992POPC   C3A39389  40.057  33.802   7.053
 7992POPC   C4A39390  40.007  33.801   7.353
 7992POPC   C1B39391  40.012  34.034   6.453
 7992POPC   C2B39392  40.006  34.047   6.753
 7992POPC   C3B39393  40.009  34.099   7.053
 7992POPC   C4B39394  40.052  34.097   7.353
 7993POPC   NC339395   2.013   8.983   5.553
 7993POPC   PO439396   1.948   8.985   5.853
 7993POPC   GL139397   1.958   8.978   6.153
 7993POPC   GL239398   2.102   8.962   6.153
 7993POPC   C1A39399   2.000   8.925   6.453
 7993POPC   D2A39400   1.948   8.998   6.753
 7993POPC   C3A39401   2.024   9.004   7.053
 7993POPC   C4A39402   2.040   8.992   7.353
 7993POPC   C1B39403   2.205   8.895   6.453
 7993POPC   C2B39404   2.258   8.912   6.753
 7993POPC   C3B39405   2.199   8.917   7.053
 7993POPC   C4B39406   2.249   8.873   7.353
 7994POPC   NC339407  18.325  34.569   5.553
 7994POPC   PO439408  18.249  34.620   5.853
 7994POPC   GL139409  18.318  34.558   6.153
 7994POPC   GL239410  18.379  34.538   6.153
 7994POPC   C1A39411  18.312  34.546   6.453
 7994POPC   D2A39412  18.313  34.556   6.753
 7994POPC   C3A39413  18.280  34.558   7.053
 7994POPC   C4A39414  18.260  34.530   7.353
 7994POPC   C1B39415  18.509  34.608   6.453
 7994POPC   C2B39416  18.527  34.546   6.753
 7994POPC   C3B39417  18.536  34.582   7.053
 7994POPC   C4B39418  18.486  34.612   7.353
 7995POPC   NC339419  16.707  10.509   5.553
 7995POPC   PO439420  16.715  10.489   5.853
 7995POPC   GL139421  16.696  10.508   6.153
 7995POPC   GL239422  16.761  10.666   6.153
 7995POPC   C1A39423  16.693  10.561   6.453
 7995POPC   D2A39424  16.777  10.523   6.753
 7995POPC   C3A39425  16.768  10.521   7.053
 7995POPC   C4A39426  16.740  10.480   7.353
 7995POPC   C1B39427  16.752  10.788   6.453
 7995POPC   C2B39428  16.814  10.778   6.753
 7995POPC   C3B39429  16.740  10.747   7.053
 7995POPC   C4B39430  16.771  10.818   7.353
 7996POPC   NC339431  12.082  30.721   5.553
 7996POPC   PO439432  12.112  30.735   5.853
 7996POPC   GL139433  12.122  30.692   6.153
 7996POPC   GL239434  12.039  30.627   6.153
 7996POPC   C1A39435  12.086  30.732   6.453
 7996POPC   D2A39436  12.073  30.666   6.753
 7996POPC   C3A39437  12.089  30.728   7.053
 7996POPC   C4A39438  12.059  30.713   7.353
 7996POPC   C1B39439  11.965  30.499   6.453
 7996POPC   C2B39440  11.965  30.475   6.753
 7996POPC   C3B39441  12.018  30.422   7.053
 7996POPC   C4B39442  11.927  30.452   7.353
 7997POPC   NC339443   0.471   0.407   5.553
 7997POPC   PO439444   0.485   0.396   5.853
 7997POPC   GL139445   0.413   0.480   6.153
 7997POPC   GL239446   0.301   0.540   6.153
 7997POPC   C1A39447   0.483   0.476   6.453
 7997POPC   D2A39448   0.413   0.476   6.753
 7997POPC   C3A39449   0.487   0.389   7.053
 7997POPC   C4A39450   0.462   0.423   7.353
 7997POPC   C1B39451   0.257   0.617   6.453
 7997POPC   C2B39452   0.229   0.560   6.753
 7997POPC   C3B39453   0.231   0.603   7.053
 7997POPC   C4B39454   0.223   0.585   7.353
 7998POPC   NC339455  15.190  33.792   5.553
 7998POPC   PO439456  15.227  33.771   5.853
 7998POPC   GL139457  15.193  33.770   6.153
 7998POPC   GL239458  15.071  33.679   6.153
 7998POPC   C1A39459  15.200  33.841   6.453
 7998POPC   D2A39460  15.195  33.793   6.753
 7998POPC   C3A39461  15.176  33.841   7.053
 7998POPC   C4A39462  15.222  33.788   7.353
 7998POPC   C1B39463  14.959  33.597   6.453
 7998POPC   C2B39464  15.022  33.690   6.753
 7998POPC   C3B39465  14.993  33.606   7.053
 7998POPC   C4B39466  14.949  33.641   7.353
 7999POPC   NC339467  19.041   5.836   5.553
 7999POPC   PO439468  19.075   5.857   5.853
 7999POPC   GL139469  19.023   5.899   6.153
 7999POPC   GL239470  19.016   6.025   6.153
 7999POPC   C1A39471  19.013   5.876   6.453
 7999POPC   D2A39472  19.036   5.823   6.753
 7999POPC   C3A39473  19.016   5.834   7.053
 7999POPC   C4A39474  19.048   5.896   7.353
 7999POPC   C1B39475  19.040   6.081   6.453
 7999POPC   C2B39476  19.078   6.135   6.753
 7999POPC   C3B39477  19.045   6.169   7.053
 7999POPC   C4B39478  19.042   6.134   7.353
 8000POPC   NC339479  11.321   6.621   5.553
 8000POPC   PO439480  11.338   6.598   5.853
 8000POPC   GL139481  11.256   6.656   6.153
 8000POPC   GL239482  11.293   6.562   6.153
 8000POPC   C1A39483  11.310   6.643   6.453
 8000POPC   D2A39484  11.278   6.596   6.753
 8000POPC   C3A39485  11.322   6.628   7.053
 8000POPC   C4A39486  11.293   6.611   7.353
 8000POPC   C1B39487  11.307   6.384   6.453
 8000POPC   C2B39488  11.360   6.392   6.753
 8000POPC   C3B39489  11.327   6.373   7.053
 8000POPC   C4B39490  11.349   6.401   7.353
 8001POPC   NC339491  16.765  36.170   5.553
 8001POPC   PO439492  16.726  36.131   5.853
 8001POPC   GL139493  16.736  36.111   6.153
 8001POPC   GL239494  16.637  36.093   6.153
 8001POPC   C1A39495  16.733  36.129   6.453
 8001POPC   D2A39496  16.747  36.086   6.753
 8001POPC   C3A39497  16.721  36.123   7.053
 8001POPC   C4A39498  16.759  36.109   7.353
 8001POPC   C1B39499  16.465  36.109   6.453
 8001POPC   C2B39500  16.509  36.074   6.753
 8001POPC   C3B39501  16.457  36.080   7.053
 8001POPC   C4B39502  16.486  36.069   7.353
 8002POPC   NC339503  17.540  40.793   5.553
 8002POPC   PO439504  17.540  40.750   5.853
 8002POPC   GL139505  17.527  40.746   6.153
 8002POPC   GL239506  17.604  40.650   6.153
 8002POPC   C1A39507  17.522  40.806   6.453
 8002POPC   D2A39508  17.522  40.742   6.753
 8002POPC   C3A39509  17.519  40.735   7.053
 8002POPC   C4A39510  17.544  40.815   7.353
 8002POPC   C1B39511  17.635  40.599   6.453
 8002POPC   C2B39512  17.626  40.592   6.753
 8002POPC   C3B39513  17.573  40.562   7.053
 8002POPC   C4B39514  17.564  40.515   7.353
 8003POPC   NC339515   2.777   1.181   5.553
 8003POPC   PO439516   2.727   1.217   5.853
 8003POPC   GL139517   2.772   1.173   6.153
 8003POPC   GL239518   2.655   1.309   6.153
 8003POPC   C1A39519   2.769   1.205   6.453
 8003POPC   D2A39520   2.760   1.221   6.753
 8003POPC   C3A39521   2.730   1.225   7.053
 8003POPC   C4A39522   2.802   1.245   7.353
 8003POPC   C1B39523   2.626   1.387   6.453
 8003POPC   C2B39524   2.603   1.423   6.753
 8003POPC   C3B39525   2.613   1.420   7.053
 8003POPC   C4B39526   2.603   1.362   7.353
 8004POPC   NC339527  19.840   0.468   5.553
 8004POPC   PO439528  19.787   0.486   5.853
 8004POPC   GL139529  19.827   0.407   6.153
 8004POPC   GL239530  19.835   0.523   6.153
 8004POPC   C1A39531  19.858   0.467   6.453
 8004POPC   D2A39532  19.831   0.441   6.753
 8004POPC   C3A39533  19.801   0.410   7.053
 8004POPC   C4A39534  19.877   0.427   7.353
 8004POPC   C1B39535  19.771   0.631   6.453
 8004POPC   C2B39536  19.801   0.651   6.753
 8004POPC   C3B39537  19.749   0.689   7.053
 8004POPC   C4B39538  19.781   0.637   7.353
 8005POPC   NC339539  26.037  44.653   5.553
 8005POPC   PO439540  26.003  44.676   5.853
 8005POPC   GL139541  26.046  44.638   6.153
 8005POPC   GL239542  26.123  44.763   6.153
 8005POPC   C1A39543  26.027  44.677   6.453
 8005POPC   D2A39544  26.039  44.654   6.753
 8005POPC   C3A39545  26.043  44.613   7.053
 8005POPC   C4A39546  26.087  44.676   7.353
 8005POPC   C1B39547  26.155  44.892   6.453
 8005POPC   C2B39548  26.212  44.900   6.753
 8005POPC   C3B39549  26.146  44.863   7.053
 8005POPC   C4B39550  26.144  44.905   7.353
 8006POPC   NC339551   1.217  38.462   5.553
 8006POPC   PO439552   1.243  38.407   5.853
 8006POPC   GL139553   1.246  38.485   6.153
 8006POPC   GL239554   1.298  38.598   6.153
 8006POPC   C1A39555   1.224  38.449   6.453
 8006POPC   D2A39556   1.196  38.473   6.753
 8006POPC   C3A39557   1.201  38.430   7.053
 8006POPC   C4A39558   1.197  38.417   7.353
 8006POPC   C1B39559   1.392  38.682   6.453
 8006POPC   C2B39560   1.296  38.669   6.753
 8006POPC   C3B39561   1.335  38.655   7.053
 8006POPC   C4B39562   1.325  38.649   7.353
 8007POPC   NC339563  29.131  36.154   5.553
 8007POPC   PO439564  29.171  36.160   5.853
 8007POPC   GL139565  29.191  36.115   6.153
 8007POPC   GL239566  29.144  36.218   6.153
 8007POPC   C1A39567  29.184  36.079   6.453
 8007POPC   D2A39568  29.174  36.146   6.753
 8007POPC   C3A39569  29.177  36.164   7.053
 8007POPC   C4A39570  29.095  36.124   7.353
 8007POPC   C1B39571  29.093  36.418   6.453
 8007POPC   C2B39572  29.140  36.398   6.753
 8007POPC   C3B39573  29.136  36.354   7.053
 8007POPC   C4B39574  29.170  36.405   7.353
 8008POPC   NC339575  18.265  10.527   5.553
 8008POPC   PO439576  18.245  10.559   5.853
 8008POPC   GL139577  18.311  10.496   6.153
 8008POPC   GL239578  18.181  10.604   6.153
 8008POPC   C1A39579  18.312  10.548   6.453
 8008POPC   D2A39580  18.306  10.551   6.753
 8008POPC   C3A39581  18.252  10.523   7.053
 8008POPC   C4A39582  18.285  10.571   7.353
 8008POPC   C1B39583  18.008  10.579   6.453
 8008POPC   C2B39584  18.061  10.602   6.753
 8008POPC   C3B39585  18.030  10.604   7.053
 8008POPC   C4B39586  18.067  10.571   7.353
 8009POPC   NC339587  14.428  12.120   5.553
 8009POPC   PO439588  14.423  12.031   5.853
 8009POPC   GL139589  14.449  12.047   6.153
 8009POPC   GL239590  14.479  12.038   6.153
 8009POPC   C1A39591  14.421  12.119   6.453
 8009POPC   D2A39592  14.403  12.034   6.753
 8009POPC   C3A39593  14.414  12.048   7.053
 8009POPC   C4A39594  14.433  12.086   7.353
 8009POPC   C1B39595  14.616  12.098   6.453
 8009POPC   C2B39596  14.628  12.059   6.753
 8009POPC   C3B39597  14.615  12.052   7.053
 8009POPC   C4B39598  14.618  12.041   7.353
 8010POPC   NC339599  43.859   6.602   5.553
 8010POPC   PO439600  43.850   6.669   5.853
 8010POPC   GL139601  43.872   6.679   6.153
 8010POPC   GL239602  43.806   6.612   6.153
 8010POPC   C1A39603  43.848   6.630   6.453
 8010POPC   D2A39604  43.881   6.673   6.753
 8010POPC   C3A39605  43.928   6.647   7.053
 8010POPC   C4A39606  43.891   6.627   7.353
 8010POPC   C1B39607  43.627   6.660   6.453
 8010POPC   C2B39608  43.660   6.666   6.753
 8010POPC   C3B39609  43.617   6.587   7.053
 8010POPC   C4B39610  43.627   6.622   7.353
 8011POPC   NC339611   9.701  20.636   5.553
 8011POPC   PO439612   9.779  20.563   5.853
 8011POPC   GL139613   9.769  20.638   6.153
 8011POPC   GL239614   9.826  20.499   6.153
 8011POPC   C1A39615   9.713  20.654   6.453
 8011POPC   D2A39616   9.792  20.633   6.753
 8011POPC   C3A39617   9.759  20.567   7.053
 8011POPC   C4A39618   9.793  20.586   7.353
 8011POPC   C1B39619   9.864  20.368   6.453
 8011POPC   C2B39620   9.899  20.390   6.753
 8011POPC   C3B39621   9.889  20.450   7.053
 8011POPC   C4B39622   9.902  20.360   7.353
 8012POPC   NC339623  37.671   9.736   5.553
 8012POPC   PO439624  37.689   9.782   5.853
 8012POPC   GL139625  37.675   9.776   6.153
 8012POPC   GL239626  37.611   9.631   6.153
 8012POPC   C1A39627  37.668   9.739   6.453
 8012POPC   D2A39628  37.688   9.780   6.753
 8012POPC   C3A39629  37.638   9.775   7.053
 8012POPC   C4A39630  37.664   9.780   7.353
 8012POPC   C1B39631  37.584   9.518   6.453
 8012POPC   C2B39632  37.578   9.553   6.753
 8012POPC   C3B39633  37.617   9.567   7.053
 8012POPC   C4B39634  37.555   9.479   7.353
 8013POPC   NC339635  40.737   6.691   5.553
 8013POPC   PO439636  40.774   6.664   5.853
 8013POPC   GL139637  40.769   6.640   6.153
 8013POPC   GL239638  40.709   6.602   6.153
 8013POPC   C1A39639  40.789   6.630   6.453
 8013POPC   D2A39640  40.769   6.687   6.753
 8013POPC   C3A39641  40.746   6.601   7.053
 8013POPC   C4A39642  40.763   6.619   7.353
 8013POPC   C1B39643  40.499   6.552   6.453
 8013POPC   C2B39644  40.554   6.645   6.753
 8013POPC   C3B39645  40.508   6.557   7.053
 8013POPC   C4B39646  40.536   6.622   7.353
 8014POPC   NC339647  42.367   9.795   5.553
 8014POPC   PO439648  42.291   9.702   5.853
 8014POPC   GL139649  42.357   9.711   6.153
 8014POPC   GL239650  42.471   9.786   6.153
 8014POPC   C1A39651  42.373   9.745   6.453
 8014POPC   D2A39652  42.317   9.718   6.753
 8014POPC   C3A39653  42.305   9.787   7.053
 8014POPC   C4A39654  42.309   9.791   7.353
 8014POPC   C1B39655  42.587   9.902   6.453
 8014POPC   C2B39656  42.568   9.850   6.753
 8014POPC   C3B39657  42.563   9.870   7.053
 8014POPC   C4B39658  42.556   9.897   7.353
 8015POPC   NC339659  23.733  12.111   5.553
 8015POPC   PO439660  23.706  12.032   5.853
 8015POPC   GL139661  23.689  12.122   6.153
 8015POPC   GL239662  23.792  12.161   6.153
 8015POPC   C1A39663  23.687  12.046   6.453
 8015POPC   D2A39664  23.665  12.122   6.753
 8015POPC   C3A39665  23.699  12.052   7.053
 8015POPC   C4A39666  23.723  12.052   7.353
 8015POPC   C1B39667  23.896  12.287   6.453
 8015POPC   C2B39668  23.878  12.259   6.753
 8015POPC   C3B39669  23.855  12.319   7.053
 8015POPC   C4B39670  23.816  12.325   7.353
 8016POPC   NC339671  37.714  19.026   5.553
 8016POPC   PO439672  37.680  19.010   5.853
 8016POPC   GL139673  37.725  19.090   6.153
 8016POPC   GL239674  37.567  19.109   6.153
 8016POPC   C1A39675  37.659  19.073   6.453
 8016POPC   D2A39676  37.653  19.052   6.753
 8016POPC   C3A39677  37.672  19.073   7.053
 8016POPC   C4A39678  37.646  19.032   7.353
 8016POPC   C1B39679  37.560  19.219   6.453
 8016POPC   C2B39680  37.500  19.248   6.753
 8016POPC   C3B39681  37.464  19.252   7.053
 8016POPC   C4B39682  37.534  19.248   7.353
 8017POPC   NC339683  37.681  19.860   5.553
 8017POPC   PO439684  37.669  19.808   5.853
 8017POPC   GL139685  37.687  19.880   6.153
 8017POPC   GL239686  37.786  19.887   6.153
 8017POPC   C1A39687  37.689  19.813   6.453
 8017POPC   D2A39688  37.674  19.798   6.753
 8017POPC   C3A39689  37.654  19.833   7.053
 8017POPC   C4A39690  37.641  19.827   7.353
 8017POPC   C1B39691  37.923  20.039   6.453
 8017POPC   C2B39692  37.832  19.949   6.753
 8017POPC   C3B39693  37.918  20.012   7.053
 8017POPC   C4B39694  37.853  19.995   7.353
 8018POPC   NC339695  11.345  17.546   5.553
 8018POPC   PO439696  11.336  17.476   5.853
 8018POPC   GL139697  11.340  17.463   6.153
 8018POPC   GL239698  11.231  17.623   6.153
 8018POPC   C1A39699  11.320  17.492   6.453
 8018POPC   D2A39700  11.259  17.467   6.753
 8018POPC   C3A39701  11.337  17.472   7.053
 8018POPC   C4A39702  11.340  17.457   7.353
 8018POPC   C1B39703  11.198  17.747   6.453
 8018POPC   C2B39704  11.191  17.694   6.753
 8018POPC   C3B39705  11.196  17.749   7.053
 8018POPC   C4B39706  11.168  17.730   7.353
 8019POPC   NC339707  36.160  26.021   5.553
 8019POPC   PO439708  36.097  26.087   5.853
 8019POPC   GL139709  36.174  26.071   6.153
 8019POPC   GL239710  36.021  26.159   6.153
 8019POPC   C1A39711  36.129  26.047   6.453
 8019POPC   D2A39712  36.108  26.083   6.753
 8019POPC   C3A39713  36.115  26.025   7.053
 8019POPC   C4A39714  36.146  26.005   7.353
 8019POPC   C1B39715  35.958  26.171   6.453
 8019POPC   C2B39716  35.896  26.207   6.753
 8019POPC   C3B39717  35.949  26.188   7.053
 8019POPC   C4B39718  35.908  26.231   7.353
 8020POPC   NC339719  22.916  12.066   5.553
 8020POPC   PO439720  22.948  12.102   5.853
 8020POPC   GL139721  22.900  12.065   6.153
 8020POPC   GL239722  23.019  12.021   6.153
 8020POPC   C1A39723  22.897  12.044   6.453
 8020POPC   D2A39724  22.984  12.121   6.753
 8020POPC   C3A39725  22.941  12.056   7.053
 8020POPC   C4A39726  22.962  12.107   7.353
 8020POPC   C1B39727  23.150  11.937   6.453
 8020POPC   C2B39728  23.197  11.969   6.753
 8020POPC   C3B39729  23.186  11.950   7.053
 8020POPC   C4B39730  23.171  11.989   7.353
 8021POPC   NC339731   0.473  30.651   5.553
 8021POPC   PO439732   0.421  30.698   5.853
 8021POPC   GL139733   0.444  30.717   6.153
 8021POPC   GL239734   0.380  30.817   6.153
 8021POPC   C1A39735   0.425  30.678   6.453
 8021POPC   D2A39736   0.452  30.670   6.753
 8021POPC   C3A39737   0.459  30.672   7.053
 8021POPC   C4A39738   0.436  30.676   7.353
 8021POPC   C1B39739   0.376  30.989   6.453
 8021POPC   C2B39740   0.407  30.923   6.753
 8021POPC   C3B39741   0.377  30.985   7.053
 8021POPC   C4B39742   0.336  30.972   7.353
 8022POPC   NC339743  44.618  19.103   5.553
 8022POPC   PO439744  44.698  19.092   5.853
 8022POPC   GL139745  44.672  19.077   6.153
 8022POPC   GL239746  44.556  19.115   6.153
 8022POPC   C1A39747  44.693  19.085   6.453
 8022POPC   D2A39748  44.615  19.076   6.753
 8022POPC   C3A39749  44.710  19.035   7.053
 8022POPC   C4A39750  44.638  19.095   7.353
 8022POPC   C1B39751  44.422  19.143   6.453
 8022POPC   C2B39752  44.459  19.156   6.753
 8022POPC   C3B39753  44.404  19.147   7.053
 8022POPC   C4B39754  44.439  19.108   7.353
 8023POPC   NC339755  19.863   8.243   5.553
 8023POPC   PO439756  19.804   8.165   5.853
 8023POPC   GL139757  19.804   8.150   6.153
 8023POPC   GL239758  19.915   8.073   6.153
 8023POPC   C1A39759  19.843   8.226   6.453
 8023POPC   D2A39760  19.838   8.163   6.753
 8023POPC   C3A39761  19.860   8.197   7.053
 8023POPC   C4A39762  19.846   8.201   7.353
 8023POPC   C1B39763  20.009   7.994   6.453
 8023POPC   C2B39764  19.996   8.016   6.753
 8023POPC   C3B39765  19.964   7.956   7.053
 8023POPC   C4B39766  19.956   7.955   7.353
 8024POPC   NC339767  20.628  43.137   5.553
 8024POPC   PO439768  20.634  43.111   5.853
 8024POPC   GL139769  20.604  43.101   6.153
 8024POPC   GL239770  20.472  43.155   6.153
 8024POPC   C1A39771  20.648  43.124   6.453
 8024POPC   D2A39772  20.604  43.077   6.753
 8024POPC   C3A39773  20.635  43.153   7.053
 8024POPC   C4A39774  20.650  43.109   7.353
 8024POPC   C1B39775  20.335  43.206   6.453
 8024POPC   C2B39776  20.343  43.188   6.753
 8024POPC   C3B39777  20.362  43.193   7.053
 8024POPC   C4B39778  20.406  43.190   7.353
 8025POPC   NC339779  34.603  23.730   5.553
 8025POPC   PO439780  34.556  23.680   5.853
 8025POPC   GL139781  34.614  23.671   6.153
 8025POPC   GL239782  34.491  23.717   6.153
 8025POPC   C1A39783  34.623  23.700   6.453
 8025POPC   D2A39784  34.564  23.675   6.753
 8025POPC   C3A39785  34.612  23.726   7.053
 8025POPC   C4A39786  34.620  23.676   7.353
 8025POPC   C1B39787  34.314  23.756   6.453
 8025POPC   C2B39788  34.289  23.780   6.753
 8025POPC   C3B39789  34.341  23.746   7.053
 8025POPC   C4B39790  34.349  23.780   7.353
 8026POPC   NC339791  22.191  16.771   5.553
 8026POPC   PO439792  22.176  16.707   5.853
 8026POPC   GL139793  22.167  16.748   6.153
 8026POPC   GL239794  22.071  16.633   6.153
 8026POPC   C1A39795  22.174  16.776   6.453
 8026POPC   D2A39796  22.202  16.775   6.753
 8026POPC   C3A39797  22.127  16.767   7.053
 8026POPC   C4A39798  22.125  16.729   7.353
 8026POPC   C1B39799  22.002  16.550   6.453
 8026POPC   C2B39800  21.986  16.552   6.753
 8026POPC   C3B39801  22.035  16.488   7.053
 8026POPC   C4B39802  21.997  16.540   7.353
 8027POPC   NC339803  15.951  30.658   5.553
 8027POPC   PO439804  15.922  30.677   5.853
 8027POPC   GL139805  15.994  30.717   6.153
 8027POPC   GL239806  16.073  30.666   6.153
 8027POPC   C1A39807  15.933  30.705   6.453
 8027POPC   D2A39808  15.910  30.684   6.753
 8027POPC   C3A39809  15.969  30.653   7.053
 8027POPC   C4A39810  15.940  30.724   7.353
 8027POPC   C1B39811  16.235  30.651   6.453
 8027POPC   C2B39812  16.213  30.596   6.753
 8027POPC   C3B39813  16.202  30.657   7.053
 8027POPC   C4B39814  16.152  30.657   7.353
 8028POPC   NC339815  33.773   5.912   5.553
 8028POPC   PO439816  33.786   5.907   5.853
 8028POPC   GL139817  33.758   5.853   6.153
 8028POPC   GL239818  33.888   5.974   6.153
 8028POPC   C1A39819  33.808   5.851   6.453
 8028POPC   D2A39820  33.753   5.912   6.753
 8028POPC   C3A39821  33.781   5.867   7.053
 8028POPC   C4A39822  33.762   5.904   7.353
 8028POPC   C1B39823  33.988   6.066   6.453
 8028POPC   C2B39824  33.929   6.074   6.753
 8028POPC   C3B39825  33.939   6.082   7.053
 8028POPC   C4B39826  33.940   6.022   7.353
 8029POPC   NC339827  31.509  28.364   5.553
 8029POPC   PO439828  31.454  28.412   5.853
 8029POPC   GL139829  31.436  28.401   6.153
 8029POPC   GL239830  31.510  28.463   6.153
 8029POPC   C1A39831  31.499  28.358   6.453
 8029POPC   D2A39832  31.455  28.372   6.753
 8029POPC   C3A39833  31.517  28.404   7.053
 8029POPC   C4A39834  31.488  28.329   7.353
 8029POPC   C1B39835  31.555  28.580   6.453
 8029POPC   C2B39836  31.516  28.643   6.753
 8029POPC   C3B39837  31.597  28.589   7.053
 8029POPC   C4B39838  31.525  28.595   7.353
 8030POPC   NC339839   8.167  31.471   5.553
 8030POPC   PO439840   8.156  31.511   5.853
 8030POPC   GL139841   8.236  31.484   6.153
 8030POPC   GL239842   8.078  31.440   6.153
 8030POPC   C1A39843   8.199  31.520   6.453
 8030POPC   D2A39844   8.241  31.463   6.753
 8030POPC   C3A39845   8.226  31.455   7.053
 8030POPC   C4A39846   8.203  31.511   7.353
 8030POPC   C1B39847   7.990  31.434   6.453
 8030POPC   C2B39848   7.916  31.456   6.753
 8030POPC   C3B39849   7.950  31.406   7.053
 8030POPC   C4B39850   7.933  31.434   7.353
 8031POPC   NC339851  43.902  33.753   5.553
 8031POPC   PO439852  43.900  33.764   5.853
 8031POPC   GL139853  43.934  33.805   6.153
 8031POPC   GL239854  43.964  33.859   6.153
 8031POPC   C1A39855  43.922  33.842   6.453
 8031POPC   D2A39856  43.841  33.777   6.753
 8031POPC   C3A39857  43.895  33.753   7.053
 8031POPC   C4A39858  43.840  33.764   7.353
 8031POPC   C1B39859  44.102  33.938   6.453
 8031POPC   C2B39860  44.084  33.920   6.753
 8031POPC   C3B39861  44.066  33.970   7.053
 8031POPC   C4B39862  44.103  33.912   7.353
 8032POPC   NC339863  12.078  42.301   5.553
 8032POPC   PO439864  12.026  42.297   5.853
 8032POPC   GL139865  12.034  42.374   6.153
 8032POPC   GL239866  12.201  42.357   6.153
 8032POPC   C1A39867  12.100  42.325   6.453
 8032POPC   D2A39868  12.098  42.299   6.753
 8032POPC   C3A39869  12.120  42.352   7.053
 8032POPC   C4A39870  12.027  42.322   7.353
 8032POPC   C1B39871  12.290  42.523   6.453
 8032POPC   C2B39872  12.276  42.485   6.753
 8032POPC   C3B39873  12.244  42.491   7.053
 8032POPC   C4B39874  12.238  42.448   7.353
 8033POPC   NC339875  12.899  15.998   5.553
 8033POPC   PO439876  12.879  15.994   5.853
 8033POPC   GL139877  12.872  15.909   6.153
 8033POPC   GL239878  12.705  15.964   6.153
 8033POPC   C1A39879  12.869  15.931   6.453
 8033POPC   D2A39880  12.863  15.933   6.753
 8033POPC   C3A39881  12.872  15.911   7.053
 8033POPC   C4A39882  12.808  15.998   7.353
 8033POPC   C1B39883  12.575  15.963   6.453
 8033POPC   C2B39884  12.570  16.015   6.753
 8033POPC   C3B39885  12.595  15.999   7.053
 8033POPC   C4B39886  12.567  15.974   7.353
 8034POPC   NC339887   4.294  36.874   5.553
 8034POPC   PO439888   4.284  36.881   5.853
 8034POPC   GL139889   4.335  36.885   6.153
 8034POPC   GL239890   4.238  36.827   6.153
 8034POPC   C1A39891   4.343  36.916   6.453
 8034POPC   D2A39892   4.319  36.939   6.753
 8034POPC   C3A39893   4.271  36.876   7.053
 8034POPC   C4A39894   4.357  36.881   7.353
 8034POPC   C1B39895   4.072  36.796   6.453
 8034POPC   C2B39896   4.111  36.735   6.753
 8034POPC   C3B39897   4.087  36.745   7.053
 8034POPC   C4B39898   4.090  36.783   7.353
 8035POPC   NC339899  25.308  41.566   5.553
 8035POPC   PO439900  25.263  41.531   5.853
 8035POPC   GL139901  25.268  41.514   6.153
 8035POPC   GL239902  25.426  41.559   6.153
 8035POPC   C1A39903  25.310  41.526   6.453
 8035POPC   D2A39904  25.293  41.592   6.753
 8035POPC   C3A39905  25.273  41.577   7.053
 8035POPC   C4A39906  25.291  41.587   7.353
 8035POPC   C1B39907  25.556  41.567   6.453
 8035POPC   C2B39908  25.524  41.517   6.753
 8035POPC   C3B39909  25.481  41.518   7.053
 8035POPC   C4B39910  25.556  41.550   7.353
 8036POPC   NC339911  17.545  36.174   5.553
 8036POPC   PO439912  17.491  36.088   5.853
 8036POPC   GL139913  17.553  36.157   6.153
 8036POPC   GL239914  17.347  36.197   6.153
 8036POPC   C1A39915  17.551  36.172   6.453
 8036POPC   D2A39916  17.484  36.158   6.753
 8036POPC   C3A39917  17.498  36.137   7.053
 8036POPC   C4A39918  17.537  36.096   7.353
 8036POPC   C1B39919  17.308  36.254   6.453
 8036POPC   C2B39920  17.295  36.194   6.753
 8036POPC   C3B39921  17.255  36.237   7.053
 8036POPC   C4B39922  17.229  36.211   7.353
 8037POPC   NC339923  34.605  19.845   5.553
 8037POPC   PO439924  34.605  19.797   5.853
 8037POPC   GL139925  34.590  19.870   6.153
 8037POPC   GL239926  34.628  19.742   6.153
 8037POPC   C1A39927  34.540  19.835   6.453
 8037POPC   D2A39928  34.551  19.799   6.753
 8037POPC   C3A39929  34.562  19.793   7.053
 8037POPC   C4A39930  34.533  19.834   7.353
 8037POPC   C1B39931  34.611  19.602   6.453
 8037POPC   C2B39932  34.652  19.585   6.753
 8037POPC   C3B39933  34.616  19.602   7.053
 8037POPC   C4B39934  34.685  19.617   7.353
 8038POPC   NC339935  30.678  34.544   5.553
 8038POPC   PO439936  30.663  34.590   5.853
 8038POPC   GL139937  30.695  34.558   6.153
 8038POPC   GL239938  30.746  34.490   6.153
 8038POPC   C1A39939  30.714  34.584   6.453
 8038POPC   D2A39940  30.718  34.605   6.753
 8038POPC   C3A39941  30.699  34.620   7.053
 8038POPC   C4A39942  30.692  34.584   7.353
 8038POPC   C1B39943  30.798  34.295   6.453
 8038POPC   C2B39944  30.730  34.336   6.753
 8038POPC   C3B39945  30.750  34.311   7.053
 8038POPC   C4B39946  30.752  34.297   7.353
 8039POPC   NC339947  13.614  19.833   5.553
 8039POPC   PO439948  13.597  19.839   5.853
 8039POPC   GL139949  13.601  19.870   6.153
 8039POPC   GL239950  13.647  19.672   6.153
 8039POPC   C1A39951  13.650  19.795   6.453
 8039POPC   D2A39952  13.642  19.810   6.753
 8039POPC   C3A39953  13.659  19.836   7.053
 8039POPC   C4A39954  13.621  19.866   7.353
 8039POPC   C1B39955  13.692  19.628   6.453
 8039POPC   C2B39956  13.694  19.563   6.753
 8039POPC   C3B39957  13.672  19.611   7.053
 8039POPC   C4B39958  13.725  19.591   7.353
 8040POPC   NC339959  33.781  33.848   5.553
 8040POPC   PO439960  33.779  33.810   5.853
 8040POPC   GL139961  33.787  33.798   6.153
 8040POPC   GL239962  33.908  33.822   6.153
 8040POPC   C1A39963  33.776  33.838   6.453
 8040POPC   D2A39964  33.768  33.821   6.753
 8040POPC   C3A39965  33.783  33.812   7.053
 8040POPC   C4A39966  33.807  33.804   7.353
 8040POPC   C1B39967  34.076  33.897   6.453
 8040POPC   C2B39968  34.052  33.903   6.753
 8040POPC   C3B39969  34.068  33.905   7.053
 8040POPC   C4B39970  34.021  33.893   7.353
 8041POPC   NC339971  43.916   3.582   5.553
 8041POPC   PO439972  43.877   3.572   5.853
 8041POPC   GL139973  43.890   3.562   6.153
 8041POPC   GL239974  43.976   3.584   6.153
 8041POPC   C1A39975  43.855   3.571   6.453
 8041POPC   D2A39976  43.888   3.538   6.753
 8041POPC   C3A39977  43.866   3.581   7.053
 8041POPC   C4A39978  43.856   3.547   7.353
 8041POPC   C1B39979  44.097   3.612   6.453
 8041POPC   C2B39980  44.140   3.639   6.753
 8041POPC   C3B39981  44.091   3.641   7.053
 8041POPC   C4B39982  44.138   3.665   7.353
 8042POPC   NC339983  13.653  38.431   5.553
 8042POPC   PO439984  13.615  38.446   5.853
 8042POPC   GL139985  13.635  38.423   6.153
 8042POPC   GL239986  13.644  38.528   6.153
 8042POPC   C1A39987  13.657  38.426   6.453
 8042POPC   D2A39988  13.613  38.419   6.753
 8042POPC   C3A39989  13.592  38.461   7.053
 8042POPC   C4A39990  13.618  38.417   7.353
 8042POPC   C1B39991  13.545  38.712   6.453
 8042POPC   C2B39992  13.562  38.711   6.753
 8042POPC   C3B39993  13.579  38.702   7.053
 8042POPC   C4B39994  13.626  38.697   7.353
 8043POPC   NC339995  32.249  21.383   5.553
 8043POPC   PO439996  32.287  21.365   5.853
 8043POPC   GL139997  32.201  21.348   6.153
 8043POPC   GL239998  32.295  21.242   6.153
 8043POPC   C1A39999  32.229  21.366   6.453
 8043POPC   D2A40000  32.219  21.422   6.753
 8043POPC   C3A40001  32.293  21.373   7.053
 8043POPC   C4A40002  32.225  21.436   7.353
 8043POPC   C1B40003  32.268  21.115   6.453
 8043POPC   C2B40004  32.244  21.170   6.753
 8043POPC   C3B40005  32.294  21.110   7.053
 8043POPC   C4B40006  32.309  21.101   7.353
 8044POPC   NC340007  32.256  15.999   5.553
 8044POPC   PO440008  32.222  15.933   5.853
 8044POPC   GL140009  32.254  15.943   6.153
 8044POPC   GL240010  32.097  15.987   6.153
 8044POPC   C1A40011  32.217  15.956   6.453
 8044POPC   D2A40012  32.234  15.939   6.753
 8044POPC   C3A40013  32.293  15.984   7.053
 8044POPC   C4A40014  32.229  16.005   7.353
 8044POPC   C1B40015  32.049  16.089   6.453
 8044POPC   C2B40016  32.047  16.055   6.753
 8044POPC   C3B40017  31.998  16.074   7.053
 8044POPC   C4B40018  32.012  16.092   7.353
 8045POPC   NC340019  38.427  19.812   5.553
 8045POPC   PO440020  38.478  19.788   5.853
 8045POPC   GL140021  38.453  19.816   6.153
 8045POPC   GL240022  38.386  19.712   6.153
 8045POPC   C1A40023  38.487  19.802   6.453
 8045POPC   D2A40024  38.425  19.827   6.753
 8045POPC   C3A40025  38.431  19.855   7.053
 8045POPC   C4A40026  38.425  19.879   7.353
 8045POPC   C1B40027  38.451  19.598   6.453
 8045POPC   C2B40028  38.440  19.565   6.753
 8045POPC   C3B40029  38.364  19.593   7.053
 8045POPC   C4B40030  38.368  19.594   7.353
 8046POPC   NC340031  41.561  37.679   5.553
 8046POPC   PO440032  41.545  37.637   5.853
 8046POPC   GL140033  41.519  37.668   6.153
 8046POPC   GL240034  41.422  37.776   6.153
 8046POPC   C1A40035  41.527  37.659   6.453
 8046POPC   D2A40036  41.517  37.691   6.753
 8046POPC   C3A40037  41.533  37.694   7.053
 8046POPC   C4A40038  41.545  37.632   7.353
 8046POPC   C1B40039  41.358  37.797   6.453
 8046POPC   C2B40040  41.356  37.862   6.753
 8046POPC   C3B40041  41.404  37.810   7.053
 8046POPC   C4B40042  41.332  37.779   7.353
 8047POPC   NC340043  27.593  22.895   5.553
 8047POPC   PO440044  27.576  22.970   5.853
 8047POPC   GL140045  27.622  22.912   6.153
 8047POPC   GL240046  27.657  23.036   6.153
 8047POPC   C1A40047  27.638  22.973   6.453
 8047POPC   D2A40048  27.615  22.939   6.753
 8047POPC   C3A40049  27.641  22.980   7.053
 8047POPC   C4A40050  27.630  22.905   7.353
 8047POPC   C1B40051  27.821  23.037   6.453
 8047POPC   C2B40052  27.841  23.068   6.753
 8047POPC   C3B40053  27.824  23.035   7.053
 8047POPC   C4B40054  27.773  23.111   7.353
 8048POPC   NC340055  35.338  15.142   5.553
 8048POPC   PO440056  35.387  15.161   5.853
 8048POPC   GL140057  35.346  15.131   6.153
 8048POPC   GL240058  35.435  15.143   6.153
 8048POPC   C1A40059  35.314  15.142   6.453
 8048POPC   D2A40060  35.381  15.160   6.753
 8048POPC   C3A40061  35.349  15.202   7.053
 8048POPC   C4A40062  35.398  15.208   7.353
 8048POPC   C1B40063  35.630  15.107   6.453
 8048POPC   C2B40064  35.562  15.145   6.753
 8048POPC   C3B40065  35.609  15.187   7.053
 8048POPC   C4B40066  35.583  15.192   7.353
 8049POPC   NC340067  43.065  26.018   5.553
 8049POPC   PO440068  43.067  25.998   5.853
 8049POPC   GL140069  43.072  26.087   6.153
 8049POPC   GL240070  43.271  26.082   6.153
 8049POPC   C1A40071  43.111  25.995   6.453
 8049POPC   D2A40072  43.124  26.018   6.753
 8049POPC   C3A40073  43.063  26.076   7.053
 8049POPC   C4A40074  43.081  26.029   7.353
 8049POPC   C1B40075  43.313  26.197   6.453
 8049POPC   C2B40076  43.380  26.157   6.753
 8049POPC   C3B40077  43.372  26.189   7.053
 8049POPC   C4B40078  43.318  26.100   7.353
 8050POPC   NC340079  43.156   6.621   5.553
 8050POPC   PO440080  43.128   6.678   5.853
 8050POPC   GL140081  43.087   6.608   6.153
 8050POPC   GL240082  43.130   6.513   6.153
 8050POPC   C1A40083  43.104   6.675   6.453
 8050POPC   D2A40084  43.121   6.676   6.753
 8050POPC   C3A40085  43.076   6.611   7.053
 8050POPC   C4A40086  43.132   6.681   7.353
 8050POPC   C1B40087  43.215   6.459   6.453
 8050POPC   C2B40088  43.263   6.460   6.753
 8050POPC   C3B40089  43.201   6.391   7.053
 8050POPC   C4B40090  43.251   6.469   7.353
 8051POPC   NC340091   9.720   4.319   5.553
 8051POPC   PO440092   9.795   4.340   5.853
 8051POPC   GL140093   9.710   4.307   6.153
 8051POPC   GL240094   9.700   4.464   6.153
 8051POPC   C1A40095   9.698   4.340   6.453
 8051POPC   D2A40096   9.741   4.310   6.753
 8051POPC   C3A40097   9.720   4.315   7.053
 8051POPC   C4A40098   9.766   4.292   7.353
 8051POPC   C1B40099   9.601   4.496   6.453
 8051POPC   C2B40100   9.659   4.507   6.753
 8051POPC   C3B40101   9.624   4.505   7.053
 8051POPC   C4B40102   9.651   4.482   7.353
 8052POPC   NC340103   9.723  40.735   5.553
 8052POPC   PO440104   9.703  40.803   5.853
 8052POPC   GL140105   9.792  40.819   6.153
 8052POPC   GL240106   9.794  40.683   6.153
 8052POPC   C1A40107   9.719  40.807   6.453
 8052POPC   D2A40108   9.720  40.778   6.753
 8052POPC   C3A40109   9.717  40.736   7.053
 8052POPC   C4A40110   9.712  40.824   7.353
 8052POPC   C1B40111   9.881  40.543   6.453
 8052POPC   C2B40112   9.918  40.545   6.753
 8052POPC   C3B40113   9.868  40.610   7.053
 8052POPC   C4B40114   9.860  40.565   7.353
 8053POPC   NC340115  29.181  34.572   5.553
 8053POPC   PO440116  29.180  34.553   5.853
 8053POPC   GL140117  29.187  34.583   6.153
 8053POPC   GL240118  29.286  34.596   6.153
 8053POPC   C1A40119  29.179  34.532   6.453
 8053POPC   D2A40120  29.189  34.587   6.753
 8053POPC   C3A40121  29.103  34.562   7.053
 8053POPC   C4A40122  29.108  34.577   7.353
 8053POPC   C1B40123  29.369  34.666   6.453
 8053POPC   C2B40124  29.403  34.664   6.753
 8053POPC   C3B40125  29.339  34.616   7.053
 8053POPC   C4B40126  29.368  34.676   7.353
 8054POPC   NC340127  33.799  12.111   5.553
 8054POPC   PO440128  33.845  12.112   5.853
 8054POPC   GL140129  33.842  12.060   6.153
 8054POPC   GL240130  33.740  12.238   6.153
 8054POPC   C1A40131  33.836  12.081   6.453
 8054POPC   D2A40132  33.808  12.066   6.753
 8054POPC   C3A40133  33.753  12.030   7.053
 8054POPC   C4A40134  33.753  12.114   7.353
 8054POPC   C1B40135  33.746  12.329   6.453
 8054POPC   C2B40136  33.718  12.336   6.753
 8054POPC   C3B40137  33.758  12.315   7.053
 8054POPC   C4B40138  33.711  12.266   7.353
 8055POPC   NC340139  19.831  19.104   5.553
 8055POPC   PO440140  19.821  19.101   5.853
 8055POPC   GL140141  19.787  19.078   6.153
 8055POPC   GL240142  19.913  18.952   6.153
 8055POPC   C1A40143  19.873  19.013   6.453
 8055POPC   D2A40144  19.882  19.068   6.753
 8055POPC   C3A40145  19.832  19.094   7.053
 8055POPC   C4A40146  19.819  19.042   7.353
 8055POPC   C1B40147  19.988  18.814   6.453
 8055POPC   C2B40148  19.967  18.871   6.753
 8055POPC   C3B40149  20.001  18.840   7.053
 8055POPC   C4B40150  19.947  18.800   7.353
 8056POPC   NC340151  40.780  35.316   5.553
 8056POPC   PO440152  40.832  35.378   5.853
 8056POPC   GL140153  40.743  35.323   6.153
 8056POPC   GL240154  40.753  35.452   6.153
 8056POPC   C1A40155  40.777  35.372   6.453
 8056POPC   D2A40156  40.832  35.314   6.753
 8056POPC   C3A40157  40.788  35.355   7.053
 8056POPC   C4A40158  40.793  35.315   7.353
 8056POPC   C1B40159  40.751  35.553   6.453
 8056POPC   C2B40160  40.780  35.581   6.753
 8056POPC   C3B40161  40.752  35.621   7.053
 8056POPC   C4B40162  40.776  35.646   7.353
 8057POPC   NC340163   2.800  19.048   5.553
 8057POPC   PO440164   2.770  19.096   5.853
 8057POPC   GL140165   2.762  19.023   6.153
 8057POPC   GL240166   2.838  18.973   6.153
 8057POPC   C1A40167   2.806  19.026   6.453
 8057POPC   D2A40168   2.795  19.092   6.753
 8057POPC   C3A40169   2.778  19.030   7.053
 8057POPC   C4A40170   2.756  19.016   7.353
 8057POPC   C1B40171   2.963  18.937   6.453
 8057POPC   C2B40172   3.022  18.999   6.753
 8057POPC   C3B40173   2.987  19.011   7.053
 8057POPC   C4B40174   3.009  18.992   7.353
 8058POPC   NC340175  30.700  39.223   5.553
 8058POPC   PO440176  30.701  39.228   5.853
 8058POPC   GL140177  30.735  39.247   6.153
 8058POPC   GL240178  30.542  39.294   6.153
 8058POPC   C1A40179  30.724  39.278   6.453
 8058POPC   D2A40180  30.670  39.225   6.753
 8058POPC   C3A40181  30.671  39.196   7.053
 8058POPC   C4A40182  30.713  39.263   7.353
 8058POPC   C1B40183  30.453  39.383   6.453
 8058POPC   C2B40184  30.514  39.398   6.753
 8058POPC   C3B40185  30.496  39.360   7.053
 8058POPC   C4B40186  30.489  39.375   7.353
 8059POPC   NC340187   1.212  13.656   5.553
 8059POPC   PO440188   1.205  13.672   5.853
 8059POPC   GL140189   1.201  13.664   6.153
 8059POPC   GL240190   1.120  13.783   6.153
 8059POPC   C1A40191   1.262  13.604   6.453
 8059POPC   D2A40192   1.197  13.593   6.753
 8059POPC   C3A40193   1.249  13.635   7.053
 8059POPC   C4A40194   1.222  13.620   7.353
 8059POPC   C1B40195   1.067  13.818   6.453
 8059POPC   C2B40196   1.133  13.890   6.753
 8059POPC   C3B40197   1.124  13.860   7.053
 8059POPC   C4B40198   1.146  13.897   7.353
 8060POPC   NC340199  38.406   1.242   5.553
 8060POPC   PO440200  38.423   1.169   5.853
 8060POPC   GL140201  38.489   1.198   6.153
 8060POPC   GL240202  38.456   1.044   6.153
 8060POPC   C1A40203  38.459   1.228   6.453
 8060POPC   D2A40204  38.464   1.171   6.753
 8060POPC   C3A40205  38.443   1.221   7.053
 8060POPC   C4A40206  38.476   1.223   7.353
 8060POPC   C1B40207  38.513   1.006   6.453
 8060POPC   C2B40208  38.455   0.971   6.753
 8060POPC   C3B40209  38.515   0.991   7.053
 8060POPC   C4B40210  38.470   0.993   7.353
 8061POPC   NC340211  41.585  17.554   5.553
 8061POPC   PO440212  41.599  17.480   5.853
 8061POPC   GL140213  41.542  17.555   6.153
 8061POPC   GL240214  41.636  17.417   6.153
 8061POPC   C1A40215  41.540  17.495   6.453
 8061POPC   D2A40216  41.598  17.541   6.753
 8061POPC   C3A40217  41.597  17.463   7.053
 8061POPC   C4A40218  41.524  17.515   7.353
 8061POPC   C1B40219  41.730  17.340   6.453
 8061POPC   C2B40220  41.762  17.371   6.753
 8061POPC   C3B40221  41.717  17.348   7.053
 8061POPC   C4B40222  41.807  17.326   7.353
 8062POPC   NC340223  28.356  26.082   5.553
 8062POPC   PO440224  28.371  26.014   5.853
 8062POPC   GL140225  28.408  26.090   6.153
 8062POPC   GL240226  28.329  25.930   6.153
 8062POPC   C1A40227  28.398  26.037   6.453
 8062POPC   D2A40228  28.362  26.030   6.753
 8062POPC   C3A40229  28.358  26.049   7.053
 8062POPC   C4A40230  28.405  26.008   7.353
 8062POPC   C1B40231  28.187  25.787   6.453
 8062POPC   C2B40232  28.235  25.836   6.753
 8062POPC   C3B40233  28.257  25.849   7.053
 8062POPC   C4B40234  28.246  25.805   7.353
 8063POPC   NC340235   8.986  35.361   5.553
 8063POPC   PO440236   8.927  35.373   5.853
 8063POPC   GL140237   9.011  35.358   6.153
 8063POPC   GL240238   9.001  35.416   6.153
 8063POPC   C1A40239   8.939  35.382   6.453
 8063POPC   D2A40240   9.010  35.399   6.753
 8063POPC   C3A40241   8.959  35.393   7.053
 8063POPC   C4A40242   8.970  35.368   7.353
 8063POPC   C1B40243   9.128  35.553   6.453
 8063POPC   C2B40244   9.084  35.605   6.753
 8063POPC   C3B40245   9.112  35.589   7.053
 8063POPC   C4B40246   9.060  35.517   7.353
 8064POPC   NC340247   7.395  24.530   5.553
 8064POPC   PO440248   7.380  24.529   5.853
 8064POPC   GL140249   7.402  24.462   6.153
 8064POPC   GL240250   7.477  24.435   6.153
 8064POPC   C1A40251   7.374  24.526   6.453
 8064POPC   D2A40252   7.421  24.499   6.753
 8064POPC   C3A40253   7.388  24.485   7.053
 8064POPC   C4A40254   7.400  24.534   7.353
 8064POPC   C1B40255   7.622  24.308   6.453
 8064POPC   C2B40256   7.595  24.318   6.753
 8064POPC   C3B40257   7.596  24.289   7.053
 8064POPC   C4B40258   7.569  24.266   7.353
 8065POPC   NC340259  41.523  29.144   5.553
 8065POPC   PO440260  41.540  29.162   5.853
 8065POPC   GL140261  41.546  29.120   6.153
 8065POPC   GL240262  41.649  29.081   6.153
 8065POPC   C1A40263  41.530  29.127   6.453
 8065POPC   D2A40264  41.531  29.148   6.753
 8065POPC   C3A40265  41.580  29.194   7.053
 8065POPC   C4A40266  41.593  29.161   7.353
 8065POPC   C1B40267  41.828  29.076   6.453
 8065POPC   C2B40268  41.825  29.059   6.753
 8065POPC   C3B40269  41.811  29.051   7.053
 8065POPC   C4B40270  41.817  29.028   7.353
 8066POPC   NC340271  19.054  22.940   5.553
 8066POPC   PO440272  19.020  22.936   5.853
 8066POPC   GL140273  19.031  22.926   6.153
 8066POPC   GL240274  19.106  22.789   6.153
 8066POPC   C1A40275  19.057  22.961   6.453
 8066POPC   D2A40276  19.045  22.964   6.753
 8066POPC   C3A40277  19.085  22.899   7.053
 8066POPC   C4A40278  19.039  22.924   7.353
 8066POPC   C1B40279  19.103  22.696   6.453
 8066POPC   C2B40280  19.026  22.697   6.753
 8066POPC   C3B40281  19.043  22.670   7.053
 8066POPC   C4B40282  19.027  22.724   7.353
 8067POPC   NC340283   1.958  13.637   5.553
 8067POPC   PO440284   2.010  13.599   5.853
 8067POPC   GL140285   2.003  13.658   6.153
 8067POPC   GL240286   1.912  13.598   6.153
 8067POPC   C1A40287   1.948  13.675   6.453
 8067POPC   D2A40288   2.022  13.622   6.753
 8067POPC   C3A40289   1.952  13.669   7.053
 8067POPC   C4A40290   1.996  13.665   7.353
 8067POPC   C1B40291   1.759  13.645   6.453
 8067POPC   C2B40292   1.692  13.603   6.753
 8067POPC   C3B40293   1.784  13.651   7.053
 8067POPC   C4B40294   1.772  13.658   7.353
 8068POPC   NC340295  28.417  39.966   5.553
 8068POPC   PO440296  28.399  40.026   5.853
 8068POPC   GL140297  28.373  40.030   6.153
 8068POPC   GL240298  28.232  40.083   6.153
 8068POPC   C1A40299  28.406  39.960   6.453
 8068POPC   D2A40300  28.327  40.000   6.753
 8068POPC   C3A40301  28.397  39.985   7.053
 8068POPC   C4A40302  28.397  39.981   7.353
 8068POPC   C1B40303  28.169  40.180   6.453
 8068POPC   C2B40304  28.204  40.128   6.753
 8068POPC   C3B40305  28.161  40.197   7.053
 8068POPC   C4B40306  28.199  40.142   7.353
 8069POPC   NC340307  15.941   1.203   5.553
 8069POPC   PO440308  15.978   1.175   5.853
 8069POPC   GL140309  15.936   1.175   6.153
 8069POPC   GL240310  15.917   1.303   6.153
 8069POPC   C1A40311  15.913   1.183   6.453
 8069POPC   D2A40312  15.997   1.258   6.753
 8069POPC   C3A40313  15.937   1.182   7.053
 8069POPC   C4A40314  15.977   1.177   7.353
 8069POPC   C1B40315  15.812   1.399   6.453
 8069POPC   C2B40316  15.820   1.422   6.753
 8069POPC   C3B40317  15.841   1.456   7.053
 8069POPC   C4B40318  15.848   1.484   7.353
 8070POPC   NC340319   2.000  17.499   5.553
 8070POPC   PO440320   1.968  17.500   5.853
 8070POPC   GL140321   1.987  17.534   6.153
 8070POPC   GL240322   2.092  17.490   6.153
 8070POPC   C1A40323   1.956  17.496   6.453
 8070POPC   D2A40324   1.946  17.552   6.753
 8070POPC   C3A40325   1.965  17.526   7.053
 8070POPC   C4A40326   2.021  17.535   7.353
 8070POPC   C1B40327   2.225  17.438   6.453
 8070POPC   C2B40328   2.184  17.418   6.753
 8070POPC   C3B40329   2.252  17.389   7.053
 8070POPC   C4B40330   2.220  17.410   7.353
 8071POPC   NC340331  25.994   5.082   5.553
 8071POPC   PO440332  26.028   5.118   5.853
 8071POPC   GL140333  26.009   5.062   6.153
 8071POPC   GL240334  26.096   5.195   6.153
 8071POPC   C1A40335  26.005   5.085   6.453
 8071POPC   D2A40336  26.044   5.110   6.753
 8071POPC   C3A40337  26.027   5.089   7.053
 8071POPC   C4A40338  26.013   5.100   7.353
 8071POPC   C1B40339  26.023   5.376   6.453
 8071POPC   C2B40340  26.022   5.302   6.753
 8071POPC   C3B40341  26.039   5.331   7.053
 8071POPC   C4B40342  26.053   5.367   7.353
 8072POPC   NC340343  12.881  42.295   5.553
 8072POPC   PO440344  12.874  42.372   5.853
 8072POPC   GL140345  12.879  42.383   6.153
 8072POPC   GL240346  12.767  42.225   6.153
 8072POPC   C1A40347  12.829  42.357   6.453
 8072POPC   D2A40348  12.845  42.287   6.753
 8072POPC   C3A40349  12.863  42.374   7.053
 8072POPC   C4A40350  12.810  42.358   7.353
 8072POPC   C1B40351  12.630  42.170   6.453
 8072POPC   C2B40352  12.700  42.154   6.753
 8072POPC   C3B40353  12.655  42.161   7.053
 8072POPC   C4B40354  12.675  42.233   7.353
 8073POPC   NC340355  43.931  22.899   5.553
 8073POPC   PO440356  43.893  22.930   5.853
 8073POPC   GL140357  43.905  22.901   6.153
 8073POPC   GL240358  43.930  22.781   6.153
 8073POPC   C1A40359  43.861  22.923   6.453
 8073POPC   D2A40360  43.910  22.937   6.753
 8073POPC   C3A40361  43.837  22.964   7.053
 8073POPC   C4A40362  43.875  22.891   7.353
 8073POPC   C1B40363  43.915  22.692   6.453
 8073POPC   C2B40364  43.981  22.711   6.753
 8073POPC   C3B40365  43.982  22.725   7.053
 8073POPC   C4B40366  43.933  22.713   7.353
 8074POPC   NC340367  32.228   9.742   5.553
 8074POPC   PO440368  32.283   9.786   5.853
 8074POPC   GL140369  32.258   9.795   6.153
 8074POPC   GL240370  32.386   9.652   6.153
 8074POPC   C1A40371  32.216   9.707   6.453
 8074POPC   D2A40372  32.260   9.786   6.753
 8074POPC   C3A40373  32.253   9.795   7.053
 8074POPC   C4A40374  32.215   9.779   7.353
 8074POPC   C1B40375  32.432   9.603   6.453
 8074POPC   C2B40376  32.426   9.622   6.753
 8074POPC   C3B40377  32.495   9.648   7.053
 8074POPC   C4B40378  32.472   9.645   7.353
 8075POPC   NC340379  14.368  32.221   5.553
 8075POPC   PO440380  14.395  32.292   5.853
 8075POPC   GL140381  14.433  32.253   6.153
 8075POPC   GL240382  14.328  32.106   6.153
 8075POPC   C1A40383  14.373  32.209   6.453
 8075POPC   D2A40384  14.412  32.267   6.753
 8075POPC   C3A40385  14.378  32.281   7.053
 8075POPC   C4A40386  14.397  32.251   7.353
 8075POPC   C1B40387  14.307  32.018   6.453
 8075POPC   C2B40388  14.369  32.009   6.753
 8075POPC   C3B40389  14.327  32.035   7.053
 8075POPC   C4B40390  14.297  31.991   7.353
 8076POPC   NC340391   3.501  23.726   5.553
 8076POPC   PO440392   3.529  23.741   5.853
 8076POPC   GL140393   3.576  23.735   6.153
 8076POPC   GL240394   3.454  23.655   6.153
 8076POPC   C1A40395   3.501  23.723   6.453
 8076POPC   D2A40396   3.568  23.690   6.753
 8076POPC   C3A40397   3.589  23.708   7.053
 8076POPC   C4A40398   3.582  23.667   7.353
 8076POPC   C1B40399   3.378  23.502   6.453
 8076POPC   C2B40400   3.391  23.518   6.753
 8076POPC   C3B40401   3.349  23.549   7.053
 8076POPC   C4B40402   3.391  23.520   7.353
 8077POPC   NC340403  12.105   5.892   5.553
 8077POPC   PO440404  12.085   5.893   5.853
 8077POPC   GL140405  12.118   5.890   6.153
 8077POPC   GL240406  11.989   5.932   6.153
 8077POPC   C1A40407  12.058   5.907   6.453
 8077POPC   D2A40408  12.078   5.840   6.753
 8077POPC   C3A40409  12.073   5.871   7.053
 8077POPC   C4A40410  12.067   5.907   7.353
 8077POPC   C1B40411  11.786   5.956   6.453
 8077POPC   C2B40412  11.847   5.928   6.753
 8077POPC   C3B40413  11.847   5.907   7.053
 8077POPC   C4B40414  11.875   5.913   7.353
 8078POPC   NC340415  11.334  38.493   5.553
 8078POPC   PO440416  11.312  38.467   5.853
 8078POPC   GL140417  11.284  38.503   6.153
 8078POPC   GL240418  11.338  38.291   6.153
 8078POPC   C1A40419  11.286  38.478   6.453
 8078POPC   D2A40420  11.342  38.416   6.753
 8078POPC   C3A40421  11.261  38.457   7.053
 8078POPC   C4A40422  11.339  38.419   7.353
 8078POPC   C1B40423  11.380  38.212   6.453
 8078POPC   C2B40424  11.329  38.194   6.753
 8078POPC   C3B40425  11.337  38.253   7.053
 8078POPC   C4B40426  11.303  38.203   7.353
 8079POPC   NC340427   0.463  40.741   5.553
 8079POPC   PO440428   0.487  40.753   5.853
 8079POPC   GL140429   0.406  40.823   6.153
 8079POPC   GL240430   0.582  40.785   6.153
 8079POPC   C1A40431   0.395  40.774   6.453
 8079POPC   D2A40432   0.417  40.813   6.753
 8079POPC   C3A40433   0.474  40.822   7.053
 8079POPC   C4A40434   0.470  40.812   7.353
 8079POPC   C1B40435   0.683  40.838   6.453
 8079POPC   C2B40436   0.724  40.771   6.753
 8079POPC   C3B40437   0.715  40.786   7.053
 8079POPC   C4B40438   0.639  40.787   7.353
 8080POPC   NC340439  23.726  44.707   5.553
 8080POPC   PO440440  23.665  44.638   5.853
 8080POPC   GL140441  23.759  44.676   6.153
 8080POPC   GL240442  23.792  44.609   6.153
 8080POPC   C1A40443  23.687  44.615   6.453
 8080POPC   D2A40444  23.701  44.658   6.753
 8080POPC   C3A40445  23.724  44.651   7.053
 8080POPC   C4A40446  23.685  44.659   7.353
 8080POPC   C1B40447  23.974  44.493   6.453
 8080POPC   C2B40448  23.969  44.498   6.753
 8080POPC   C3B40449  23.911  44.574   7.053
 8080POPC   C4B40450  23.963  44.493   7.353
 8081POPC   NC340451  12.816  29.949   5.553
 8081POPC   PO440452  12.823  29.917   5.853
 8081POPC   GL140453  12.818  29.960   6.153
 8081POPC   GL240454  12.928  29.811   6.153
 8081POPC   C1A40455  12.829  29.888   6.453
 8081POPC   D2A40456  12.882  29.948   6.753
 8081POPC   C3A40457  12.881  29.927   7.053
 8081POPC   C4A40458  12.828  29.928   7.353
 8081POPC   C1B40459  12.927  29.736   6.453
 8081POPC   C2B40460  12.906  29.722   6.753
 8081POPC   C3B40461  12.957  29.689   7.053
 8081POPC   C4B40462  12.937  29.663   7.353
 8082POPC   NC340463  29.149  19.799   5.553
 8082POPC   PO440464  29.184  19.853   5.853
 8082POPC   GL140465  29.177  19.788   6.153
 8082POPC   GL240466  29.091  19.914   6.153
 8082POPC   C1A40467  29.148  19.788   6.453
 8082POPC   D2A40468  29.160  19.860   6.753
 8082POPC   C3A40469  29.155  19.832   7.053
 8082POPC   C4A40470  29.190  19.846   7.353
 8082POPC   C1B40471  29.158  20.080   6.453
 8082POPC   C2B40472  29.119  20.040   6.753
 8082POPC   C3B40473  29.115  20.074   7.053
 8082POPC   C4B40474  29.127  20.118   7.353
 8083POPC   NC340475  43.070  43.136   5.553
 8083POPC   PO440476  43.106  43.116   5.853
 8083POPC   GL140477  43.102  43.091   6.153
 8083POPC   GL240478  43.009  43.168   6.153
 8083POPC   C1A40479  43.099  43.129   6.453
 8083POPC   D2A40480  43.096  43.132   6.753
 8083POPC   C3A40481  43.133  43.109   7.053
 8083POPC   C4A40482  43.107  43.157   7.353
 8083POPC   C1B40483  42.876  43.192   6.453
 8083POPC   C2B40484  42.852  43.247   6.753
 8083POPC   C3B40485  42.884  43.273   7.053
 8083POPC   C4B40486  42.920  43.192   7.353
 8084POPC   NC340487  40.049   6.691   5.553
 8084POPC   PO440488  40.038   6.614   5.853
 8084POPC   GL140489  40.011   6.688   6.153
 8084POPC   GL240490  39.910   6.629   6.153
 8084POPC   C1A40491  39.996   6.672   6.453
 8084POPC   D2A40492  39.963   6.625   6.753
 8084POPC   C3A40493  40.047   6.665   7.053
 8084POPC   C4A40494  40.003   6.610   7.353
 8084POPC   C1B40495  39.787   6.551   6.453
 8084POPC   C2B40496  39.798   6.523   6.753
 8084POPC   C3B40497  39.779   6.515   7.053
 8084POPC   C4B40498  39.802   6.549   7.353
 8085POPC   NC340499  21.349  26.036   5.553
 8085POPC   PO440500  21.354  26.057   5.853
 8085POPC   GL140501  21.356  26.089   6.153
 8085POPC   GL240502  21.259  26.086   6.153
 8085POPC   C1A40503  21.433  26.059   6.453
 8085POPC   D2A40504  21.395  26.067   6.753
 8085POPC   C3A40505  21.429  26.062   7.053
 8085POPC   C4A40506  21.370  26.020   7.353
 8085POPC   C1B40507  21.132  26.057   6.453
 8085POPC   C2B40508  21.170  26.046   6.753
 8085POPC   C3B40509  21.155  26.097   7.053
 8085POPC   C4B40510  21.140  26.084   7.353
 8086POPC   NC340511  22.956   9.020   5.553
 8086POPC   PO440512  22.940   9.015   5.853
 8086POPC   GL140513  22.942   9.018   6.153
 8086POPC   GL240514  23.099   8.963   6.153
 8086POPC   C1A40515  22.943   8.934   6.453
 8086POPC   D2A40516  22.938   8.932   6.753
 8086POPC   C3A40517  22.895   8.999   7.053
 8086POPC   C4A40518  22.904   9.018   7.353
 8086POPC   C1B40519  23.226   8.954   6.453
 8086POPC   C2B40520  23.197   8.981   6.753
 8086POPC   C3B40521  23.213   8.935   7.053
 8086POPC   C4B40522  23.154   8.974   7.353
 8087POPC   NC340523   1.978  43.844   5.553
 8087POPC   PO440524   1.956  43.894   5.853
 8087POPC   GL140525   2.016  43.854   6.153
 8087POPC   GL240526   1.877  43.995   6.153
 8087POPC   C1A40527   1.984  43.849   6.453
 8087POPC   D2A40528   2.018  43.859   6.753
 8087POPC   C3A40529   1.983  43.912   7.053
 8087POPC   C4A40530   2.032  43.919   7.353
 8087POPC   C1B40531   1.776  44.090   6.453
 8087POPC   C2B40532   1.819  44.067   6.753
 8087POPC   C3B40533   1.823  44.084   7.053
 8087POPC   C4B40534   1.794  44.048   7.353
 8088POPC   NC340535  35.312  23.763   5.553
 8088POPC   PO440536  35.351  23.705   5.853
 8088POPC   GL140537  35.313  23.695   6.153
 8088POPC   GL240538  35.469  23.708   6.153
 8088POPC   C1A40539  35.351  23.679   6.453
 8088POPC   D2A40540  35.307  23.713   6.753
 8088POPC   C3A40541  35.325  23.714   7.053
 8088POPC   C4A40542  35.314  23.694   7.353
 8088POPC   C1B40543  35.625  23.733   6.453
 8088POPC   C2B40544  35.631  23.712   6.753
 8088POPC   C3B40545  35.619  23.748   7.053
 8088POPC   C4B40546  35.620  23.772   7.353
 8089POPC   NC340547  33.046  21.380   5.553
 8089POPC   PO440548  33.014  21.350   5.853
 8089POPC   GL140549  32.990  21.362   6.153
 8089POPC   GL240550  33.065  21.274   6.153
 8089POPC   C1A40551  33.014  21.391   6.453
 8089POPC   D2A40552  33.035  21.403   6.753
 8089POPC   C3A40553  33.028  21.383   7.053
 8089POPC   C4A40554  32.980  21.359   7.353
 8089POPC   C1B40555  33.136  21.174   6.453
 8089POPC   C2B40556  33.185  21.222   6.753
 8089POPC   C3B40557  33.195  21.155   7.053
 8089POPC   C4B40558  33.110  21.153   7.353
 8090POPC   NC340559  31.484  35.365   5.553
 8090POPC   PO440560  31.455  35.333   5.853
 8090POPC   GL140561  31.495  35.353   6.153
 8090POPC   GL240562  31.436  35.227   6.153
 8090POPC   C1A40563  31.425  35.368   6.453
 8090POPC   D2A40564  31.481  35.351   6.753
 8090POPC   C3A40565  31.438  35.309   7.053
 8090POPC   C4A40566  31.445  35.338   7.353
 8090POPC   C1B40567  31.270  35.143   6.453
 8090POPC   C2B40568  31.283  35.191   6.753
 8090POPC   C3B40569  31.364  35.201   7.053
 8090POPC   C4B40570  31.310  35.121   7.353
 8091POPC   NC340571  11.288  36.109   5.553
 8091POPC   PO440572  11.329  36.135   5.853
 8091POPC   GL140573  11.308  36.162   6.153
 8091POPC   GL240574  11.223  36.216   6.153
 8091POPC   C1A40575  11.298  36.114   6.453
 8091POPC   D2A40576  11.325  36.143   6.753
 8091POPC   C3A40577  11.266  36.121   7.053
 8091POPC   C4A40578  11.320  36.086   7.353
 8091POPC   C1B40579  11.072  36.310   6.453
 8091POPC   C2B40580  11.061  36.278   6.753
 8091POPC   C3B40581  11.089  36.288   7.053
 8091POPC   C4B40582  11.124  36.263   7.353
 8092POPC   NC340583  19.093  32.985   5.553
 8092POPC   PO440584  19.068  33.046   5.853
 8092POPC   GL140585  19.107  33.017   6.153
 8092POPC   GL240586  19.129  32.912   6.153
 8092POPC   C1A40587  19.012  32.999   6.453
 8092POPC   D2A40588  19.067  33.014   6.753
 8092POPC   C3A40589  19.020  33.043   7.053
 8092POPC   C4A40590  19.056  33.042   7.353
 8092POPC   C1B40591  19.076  32.791   6.453
 8092POPC   C2B40592  19.094  32.737   6.753
 8092POPC   C3B40593  19.092  32.763   7.053
 8092POPC   C4B40594  19.102  32.792   7.353
 8093POPC   NC340595  30.718  23.669   5.553
 8093POPC   PO440596  30.717  23.665   5.853
 8093POPC   GL140597  30.742  23.743   6.153
 8093POPC   GL240598  30.765  23.632   6.153
 8093POPC   C1A40599  30.662  23.751   6.453
 8093POPC   D2A40600  30.730  23.726   6.753
 8093POPC   C3A40601  30.682  23.669   7.053
 8093POPC   C4A40602  30.663  23.665   7.353
 8093POPC   C1B40603  30.802  23.510   6.453
 8093POPC   C2B40604  30.808  23.482   6.753
 8093POPC   C3B40605  30.766  23.512   7.053
 8093POPC   C4B40606  30.842  23.454   7.353
 8094POPC   NC340607  15.922   8.155   5.553
 8094POPC   PO440608  15.977   8.218   5.853
 8094POPC   GL140609  15.976   8.147   6.153
 8094POPC   GL240610  15.922   8.116   6.153
 8094POPC   C1A40611  15.906   8.235   6.453
 8094POPC   D2A40612  15.959   8.204   6.753
 8094POPC   C3A40613  15.925   8.173   7.053
 8094POPC   C4A40614  15.930   8.176   7.353
 8094POPC   C1B40615  15.792   7.998   6.453
 8094POPC   C2B40616  15.777   8.017   6.753
 8094POPC   C3B40617  15.752   8.001   7.053
 8094POPC   C4B40618  15.755   7.990   7.353
 8095POPC   NC340619   1.959   6.665   5.553
 8095POPC   PO440620   2.039   6.640   5.853
 8095POPC   GL140621   2.001   6.695   6.153
 8095POPC   GL240622   2.128   6.571   6.153
 8095POPC   C1A40623   1.950   6.612   6.453
 8095POPC   D2A40624   2.007   6.682   6.753
 8095POPC   C3A40625   1.984   6.608   7.053
 8095POPC   C4A40626   1.987   6.665   7.353
 8095POPC   C1B40627   2.188   6.612   6.453
 8095POPC   C2B40628   2.259   6.604   6.753
 8095POPC   C3B40629   2.207   6.602   7.053
 8095POPC   C4B40630   2.178   6.524   7.353
 8096POPC   NC340631  24.467  11.297   5.553
 8096POPC   PO440632  24.491  11.299   5.853
 8096POPC   GL140633  24.449  11.311   6.153
 8096POPC   GL240634  24.543  11.212   6.153
 8096POPC   C1A40635  24.492  11.251   6.453
 8096POPC   D2A40636  24.487  11.277   6.753
 8096POPC   C3A40637  24.522  11.337   7.053
 8096POPC   C4A40638  24.537  11.288   7.353
 8096POPC   C1B40639  24.570  11.093   6.453
 8096POPC   C2B40640  24.582  11.053   6.753
 8096POPC   C3B40641  24.555  11.081   7.053
 8096POPC   C4B40642  24.632  11.096   7.353
 8097POPC   NC340643  29.931  27.635   5.553
 8097POPC   PO440644  29.872  27.627   5.853
 8097POPC   GL140645  29.891  27.579   6.153
 8097POPC   GL240646  29.771  27.613   6.153
 8097POPC   C1A40647  29.875  27.640   6.453
 8097POPC   D2A40648  29.960  27.585   6.753
 8097POPC   C3A40649  29.969  27.606   7.053
 8097POPC   C4A40650  29.966  27.632   7.353
 8097POPC   C1B40651  29.710  27.608   6.453
 8097POPC   C2B40652  29.676  27.630   6.753
 8097POPC   C3B40653  29.659  27.611   7.053
 8097POPC   C4B40654  29.646  27.590   7.353
 8098POPC   NC340655  39.977  14.430   5.553
 8098POPC   PO440656  40.015  14.379   5.853
 8098POPC   GL140657  40.054  14.430   6.153
 8098POPC   GL240658  39.868  14.491   6.153
 8098POPC   C1A40659  40.057  14.409   6.453
 8098POPC   D2A40660  40.033  14.387   6.753
 8098POPC   C3A40661  40.000  14.403   7.053
 8098POPC   C4A40662  40.021  14.421   7.353
 8098POPC   C1B40663  39.781  14.544   6.453
 8098POPC   C2B40664  39.792  14.495   6.753
 8098POPC   C3B40665  39.750  14.505   7.053
 8098POPC   C4B40666  39.740  14.475   7.353
 8099POPC   NC340667  33.043  43.091   5.553
 8099POPC   PO440668  33.034  43.102   5.853
 8099POPC   GL140669  32.994  43.145   6.153
 8099POPC   GL240670  32.990  42.984   6.153
 8099POPC   C1A40671  33.050  43.071   6.453
 8099POPC   D2A40672  33.051  43.084   6.753
 8099POPC   C3A40673  33.026  43.132   7.053
 8099POPC   C4A40674  33.031  43.116   7.353
 8099POPC   C1B40675  32.948  42.850   6.453
 8099POPC   C2B40676  32.892  42.930   6.753
 8099POPC   C3B40677  32.924  42.852   7.053
 8099POPC   C4B40678  32.956  42.927   7.353
 8100POPC   NC340679  30.701  19.018   5.553
 8100POPC   PO440680  30.719  19.071   5.853
 8100POPC   GL140681  30.647  19.017   6.153
 8100POPC   GL240682  30.644  19.152   6.153
 8100POPC   C1A40683  30.672  19.027   6.453
 8100POPC   D2A40684  30.665  19.086   6.753
 8100POPC   C3A40685  30.687  19.076   7.053
 8100POPC   C4A40686  30.709  19.057   7.353
 8100POPC   C1B40687  30.643  19.297   6.453
 8100POPC   C2B40688  30.652  19.310   6.753
 8100POPC   C3B40689  30.609  19.318   7.053
 8100POPC   C4B40690  30.590  19.336   7.353
 8101POPC   NC340691   8.976   5.820   5.553
 8101POPC   PO440692   9.008   5.827   5.853
 8101POPC   GL140693   9.000   5.912   6.153
 8101POPC   GL240694   8.910   5.964   6.153
 8101POPC   C1A40695   8.924   5.863   6.453
 8101POPC   D2A40696   8.949   5.879   6.753
 8101POPC   C3A40697   8.965   5.848   7.053
 8101POPC   C4A40698   8.995   5.864   7.353
 8101POPC   C1B40699   8.804   6.046   6.453
 8101POPC   C2B40700   8.812   6.054   6.753
 8101POPC   C3B40701   8.782   6.080   7.053
 8101POPC   C4B40702   8.780   6.028   7.353
 8102POPC   NC340703  10.494  21.404   5.553
 8102POPC   PO440704  10.485  21.423   5.853
 8102POPC   GL140705  10.545  21.357   6.153
 8102POPC   GL240706  10.626  21.544   6.153
 8102POPC   C1A40707  10.496  21.393   6.453
 8102POPC   D2A40708  10.548  21.428   6.753
 8102POPC   C3A40709  10.475  21.406   7.053
 8102POPC   C4A40710  10.484  21.366   7.353
 8102POPC   C1B40711  10.675  21.598   6.453
 8102POPC   C2B40712  10.635  21.585   6.753
 8102POPC   C3B40713  10.661  21.569   7.053
 8102POPC   C4B40714  10.618  21.626   7.353
 8103POPC   NC340715  39.193  15.180   5.553
 8103POPC   PO440716  39.208  15.152   5.853
 8103POPC   GL140717  39.230  15.208   6.153
 8103POPC   GL240718  39.277  15.107   6.153
 8103POPC   C1A40719  39.211  15.197   6.453
 8103POPC   D2A40720  39.249  15.185   6.753
 8103POPC   C3A40721  39.272  15.199   7.053
 8103POPC   C4A40722  39.259  15.202   7.353
 8103POPC   C1B40723  39.341  14.918   6.453
 8103POPC   C2B40724  39.357  14.977   6.753
 8103POPC   C3B40725  39.396  14.985   7.053
 8103POPC   C4B40726  39.379  14.918   7.353
 8104POPC   NC340727  14.369  31.440   5.553
 8104POPC   PO440728  14.404  31.497   5.853
 8104POPC   GL140729  14.421  31.488   6.153
 8104POPC   GL240730  14.374  31.322   6.153
 8104POPC   C1A40731  14.453  31.508   6.453
 8104POPC   D2A40732  14.412  31.449   6.753
 8104POPC   C3A40733  14.405  31.462   7.053
 8104POPC   C4A40734  14.400  31.439   7.353
 8104POPC   C1B40735  14.318  31.202   6.453
 8104POPC   C2B40736  14.327  31.265   6.753
 8104POPC   C3B40737  14.313  31.262   7.053
 8104POPC   C4B40738  14.374  31.244   7.353
 8105POPC   NC340739  43.125   5.869   5.553
 8105POPC   PO440740  43.120   5.909   5.853
 8105POPC   GL140741  43.061   5.843   6.153
 8105POPC   GL240742  43.220   5.924   6.153
 8105POPC   C1A40743  43.144   5.859   6.453
 8105POPC   D2A40744  43.111   5.884   6.753
 8105POPC   C3A40745  43.143   5.860   7.053
 8105POPC   C4A40746  43.138   5.888   7.353
 8105POPC   C1B40747  43.223   6.121   6.453
 8105POPC   C2B40748  43.219   6.043   6.753
 8105POPC   C3B40749  43.254   6.085   7.053
 8105POPC   C4B40750  43.284   6.110   7.353
 8106POPC   NC340751   5.918  19.074   5.553
 8106POPC   PO440752   5.889  19.046   5.853
 8106POPC   GL140753   5.916  19.019   6.153
 8106POPC   GL240754   5.798  18.963   6.153
 8106POPC   C1A40755   5.858  19.049   6.453
 8106POPC   D2A40756   5.857  19.031   6.753
 8106POPC   C3A40757   5.839  19.021   7.053
 8106POPC   C4A40758   5.892  19.019   7.353
 8106POPC   C1B40759   5.692  18.876   6.453
 8106POPC   C2B40760   5.700  18.886   6.753
 8106POPC   C3B40761   5.714  18.919   7.053
 8106POPC   C4B40762   5.649  18.933   7.353
 8107POPC   NC340763  33.847  19.817   5.553
 8107POPC   PO440764  33.824  19.864   5.853
 8107POPC   GL140765  33.817  19.831   6.153
 8107POPC   GL240766  33.900  19.926   6.153
 8107POPC   C1A40767  33.844  19.829   6.453
 8107POPC   D2A40768  33.761  19.856   6.753
 8107POPC   C3A40769  33.842  19.795   7.053
 8107POPC   C4A40770  33.836  19.874   7.353
 8107POPC   C1B40771  34.009  19.991   6.453
 8107POPC   C2B40772  34.008  20.009   6.753
 8107POPC   C3B40773  33.978  19.993   7.053
 8107POPC   C4B40774  33.968  20.037   7.353
 8108POPC   NC340775  12.071  27.577   5.553
 8108POPC   PO440776  12.062  27.617   5.853
 8108POPC   GL140777  12.107  27.628   6.153
 8108POPC   GL240778  12.077  27.488   6.153
 8108POPC   C1A40779  12.123  27.624   6.453
 8108POPC   D2A40780  12.118  27.553   6.753
 8108POPC   C3A40781  12.072  27.561   7.053
 8108POPC   C4A40782  12.099  27.560   7.353
 8108POPC   C1B40783  12.112  27.333   6.453
 8108POPC   C2B40784  12.071  27.308   6.753
 8108POPC   C3B40785  12.084  27.341   7.053
 8108POPC   C4B40786  12.103  27.326   7.353
 8109POPC   NC340787  38.483  44.626   5.553
 8109POPC   PO440788  38.473  44.679   5.853
 8109POPC   GL140789  38.406  44.677   6.153
 8109POPC   GL240790  38.489  44.735   6.153
 8109POPC   C1A40791  38.466  44.687   6.453
 8109POPC   D2A40792  38.414  44.646   6.753
 8109POPC   C3A40793  38.423  44.687   7.053
 8109POPC   C4A40794  38.474  44.646   7.353
 8109POPC   C1B40795  38.628  44.823   6.453
 8109POPC   C2B40796  38.586  44.865   6.753
 8109POPC   C3B40797  38.602  44.894   7.053
 8109POPC   C4B40798  38.564  44.838   7.353
 8110POPC   NC340799  11.326  11.346   5.553
 8110POPC   PO440800  11.329  11.330   5.853
 8110POPC   GL140801  11.320  11.281   6.153
 8110POPC   GL240802  11.437  11.227   6.153
 8110POPC   C1A40803  11.346  11.347   6.453
 8110POPC   D2A40804  11.295  11.287   6.753
 8110POPC   C3A40805  11.298  11.317   7.053
 8110POPC   C4A40806  11.255  11.299   7.353
 8110POPC   C1B40807  11.501  11.213   6.453
 8110POPC   C2B40808  11.499  11.158   6.753
 8110POPC   C3B40809  11.535  11.208   7.053
 8110POPC   C4B40810  11.570  11.153   7.353
 8111POPC   NC340811   4.324   4.295   5.553
 8111POPC   PO440812   4.317   4.330   5.853
 8111POPC   GL140813   4.361   4.304   6.153
 8111POPC   GL240814   4.168   4.362   6.153
 8111POPC   C1A40815   4.292   4.350   6.453
 8111POPC   D2A40816   4.329   4.359   6.753
 8111POPC   C3A40817   4.351   4.331   7.053
 8111POPC   C4A40818   4.268   4.336   7.353
 8111POPC   C1B40819   4.091   4.381   6.453
 8111POPC   C2B40820   4.103   4.449   6.753
 8111POPC   C3B40821   4.067   4.381   7.053
 8111POPC   C4B40822   4.107   4.454   7.353
 8112POPC   NC340823  16.773   7.450   5.553
 8112POPC   PO440824  16.763   7.462   5.853
 8112POPC   GL140825  16.707   7.376   6.153
 8112POPC   GL240826  16.801   7.483   6.153
 8112POPC   C1A40827  16.752   7.427   6.453
 8112POPC   D2A40828  16.691   7.394   6.753
 8112POPC   C3A40829  16.741   7.445   7.053
 8112POPC   C4A40830  16.723   7.402   7.353
 8112POPC   C1B40831  16.824   7.642   6.453
 8112POPC   C2B40832  16.882   7.601   6.753
 8112POPC   C3B40833  16.834   7.617   7.053
 8112POPC   C4B40834  16.821   7.615   7.353
 8113POPC   NC340835  40.792  22.205   5.553
 8113POPC   PO440836  40.771  22.129   5.853
 8113POPC   GL140837  40.789  22.116   6.153
 8113POPC   GL240838  40.668  22.198   6.153
 8113POPC   C1A40839  40.756  22.199   6.453
 8113POPC   D2A40840  40.830  22.155   6.753
 8113POPC   C3A40841  40.785  22.199   7.053
 8113POPC   C4A40842  40.766  22.208   7.353
 8113POPC   C1B40843  40.616  22.321   6.453
 8113POPC   C2B40844  40.610  22.313   6.753
 8113POPC   C3B40845  40.608  22.302   7.053
 8113POPC   C4B40846  40.610  22.336   7.353
 8114POPC   NC340847   7.423  23.762   5.553
 8114POPC   PO440848   7.373  23.722   5.853
 8114POPC   GL140849   7.457  23.699   6.153
 8114POPC   GL240850   7.516  23.609   6.153
 8114POPC   C1A40851   7.379  23.759   6.453
 8114POPC   D2A40852   7.398  23.680   6.753
 8114POPC   C3A40853   7.427  23.722   7.053
 8114POPC   C4A40854   7.414  23.721   7.353
 8114POPC   C1B40855   7.558  23.479   6.453
 8114POPC   C2B40856   7.555  23.497   6.753
 8114POPC   C3B40857   7.536  23.435   7.053
 8114POPC   C4B40858   7.567  23.448   7.353
 8115POPC   NC340859  43.077  22.198   5.553
 8115POPC   PO440860  43.095  22.171   5.853
 8115POPC   GL140861  43.067  22.191   6.153
 8115POPC   GL240862  43.108  22.309   6.153
 8115POPC   C1A40863  43.098  22.198   6.453
 8115POPC   D2A40864  43.093  22.156   6.753
 8115POPC   C3A40865  43.148  22.141   7.053
 8115POPC   C4A40866  43.149  22.120   7.353
 8115POPC   C1B40867  43.121  22.410   6.453
 8115POPC   C2B40868  43.119  22.412   6.753
 8115POPC   C3B40869  43.068  22.404   7.053
 8115POPC   C4B40870  43.112  22.379   7.353
 8116POPC   NC340871   1.202   3.582   5.553
 8116POPC   PO440872   1.166   3.556   5.853
 8116POPC   GL140873   1.222   3.547   6.153
 8116POPC   GL240874   1.130   3.421   6.153
 8116POPC   C1A40875   1.210   3.492   6.453
 8116POPC   D2A40876   1.251   3.537   6.753
 8116POPC   C3A40877   1.248   3.554   7.053
 8116POPC   C4A40878   1.171   3.533   7.353
 8116POPC   C1B40879   1.152   3.298   6.453
 8116POPC   C2B40880   1.123   3.285   6.753
 8116POPC   C3B40881   1.166   3.338   7.053
 8116POPC   C4B40882   1.149   3.350   7.353
 8117POPC   NC340883   3.493  40.001   5.553
 8117POPC   PO440884   3.543  39.973   5.853
 8117POPC   GL140885   3.554  40.040   6.153
 8117POPC   GL240886   3.477  39.939   6.153
 8117POPC   C1A40887   3.537  39.962   6.453
 8117POPC   D2A40888   3.503  40.057   6.753
 8117POPC   C3A40889   3.534  39.963   7.053
 8117POPC   C4A40890   3.549  40.020   7.353
 8117POPC   C1B40891   3.337  39.933   6.453
 8117POPC   C2B40892   3.295  39.863   6.753
 8117POPC   C3B40893   3.278  39.866   7.053
 8117POPC   C4B40894   3.332  39.907   7.353
 8118POPC   NC340895  36.123   9.739   5.553
 8118POPC   PO440896  36.166   9.755   5.853
 8118POPC   GL140897  36.134   9.774   6.153
 8118POPC   GL240898  36.246   9.697   6.153
 8118POPC   C1A40899  36.108   9.769   6.453
 8118POPC   D2A40900  36.115   9.732   6.753
 8118POPC   C3A40901  36.103   9.793   7.053
 8118POPC   C4A40902  36.089   9.759   7.353
 8118POPC   C1B40903  36.335   9.651   6.453
 8118POPC   C2B40904  36.320   9.657   6.753
 8118POPC   C3B40905  36.314   9.662   7.053
 8118POPC   C4B40906  36.400   9.597   7.353
 8119POPC   NC340907  10.546   1.213   5.553
 8119POPC   PO440908  10.533   1.241   5.853
 8119POPC   GL140909  10.515   1.230   6.153
 8119POPC   GL240910  10.392   1.242   6.153
 8119POPC   C1A40911  10.511   1.171   6.453
 8119POPC   D2A40912  10.477   1.197   6.753
 8119POPC   C3A40913  10.482   1.260   7.053
 8119POPC   C4A40914  10.492   1.180   7.353
 8119POPC   C1B40915  10.266   1.280   6.453
 8119POPC   C2B40916  10.295   1.258   6.753
 8119POPC   C3B40917  10.230   1.300   7.053
 8119POPC   C4B40918  10.276   1.285   7.353
 8120POPC   NC340919   6.606  24.484   5.553
 8120POPC   PO440920   6.638  24.536   5.853
 8120POPC   GL140921   6.691  24.535   6.153
 8120POPC   GL240922   6.564  24.420   6.153
 8120POPC   C1A40923   6.600  24.490   6.453
 8120POPC   D2A40924   6.646  24.465   6.753
 8120POPC   C3A40925   6.628  24.462   7.053
 8120POPC   C4A40926   6.693  24.458   7.353
 8120POPC   C1B40927   6.524  24.247   6.453
 8120POPC   C2B40928   6.611  24.301   6.753
 8120POPC   C3B40929   6.538  24.294   7.053
 8120POPC   C4B40930   6.547  24.258   7.353
 8121POPC   NC340931  29.144  44.656   5.553
 8121POPC   PO440932  29.125  44.693   5.853
 8121POPC   GL140933  29.124  44.709   6.153
 8121POPC   GL240934  29.081  44.568   6.153
 8121POPC   C1A40935  29.101  44.620   6.453
 8121POPC   D2A40936  29.172  44.636   6.753
 8121POPC   C3A40937  29.157  44.667   7.053
 8121POPC   C4A40938  29.189  44.701   7.353
 8121POPC   C1B40939  28.904  44.530   6.453
 8121POPC   C2B40940  28.950  44.517   6.753
 8121POPC   C3B40941  28.969  44.489   7.053
 8121POPC   C4B40942  28.944  44.524   7.353
 8122POPC   NC340943  43.861  39.247   5.553
 8122POPC   PO440944  43.842  39.279   5.853
 8122POPC   GL140945  43.934  39.207   6.153
 8122POPC   GL240946  43.787  39.220   6.153
 8122POPC   C1A40947  43.883  39.212   6.453
 8122POPC   D2A40948  43.883  39.251   6.753
 8122POPC   C3A40949  43.898  39.269   7.053
 8122POPC   C4A40950  43.913  39.264   7.353
 8122POPC   C1B40951  43.638  39.130   6.453
 8122POPC   C2B40952  43.668  39.161   6.753
 8122POPC   C3B40953  43.658  39.166   7.053
 8122POPC   C4B40954  43.663  39.166   7.353
 8123POPC   NC340955  20.631   8.162   5.553
 8123POPC   PO440956  20.604   8.237   5.853
 8123POPC   GL140957  20.621   8.201   6.153
 8123POPC   GL240958  20.734   8.199   6.153
 8123POPC   C1A40959  20.596   8.150   6.453
 8123POPC   D2A40960  20.642   8.164   6.753
 8123POPC   C3A40961  20.628   8.177   7.053
 8123POPC   C4A40962  20.629   8.171   7.353
 8123POPC   C1B40963  20.899   8.173   6.453
 8123POPC   C2B40964  20.862   8.214   6.753
 8123POPC   C3B40965  20.910   8.196   7.053
 8123POPC   C4B40966  20.878   8.154   7.353
 8124POPC   NC340967   8.155   1.943   5.553
 8124POPC   PO440968   8.226   1.971   5.853
 8124POPC   GL140969   8.219   2.018   6.153
 8124POPC   GL240970   8.226   2.070   6.153
 8124POPC   C1A40971   8.216   1.986   6.453
 8124POPC   D2A40972   8.180   2.039   6.753
 8124POPC   C3A40973   8.205   1.992   7.053
 8124POPC   C4A40974   8.196   1.989   7.353
 8124POPC   C1B40975   8.199   2.272   6.453
 8124POPC   C2B40976   8.242   2.287   6.753
 8124POPC   C3B40977   8.186   2.212   7.053
 8124POPC   C4B40978   8.219   2.243   7.353
 8125POPC   NC340979  29.954   9.764   5.553
 8125POPC   PO440980  29.954   9.716   5.853
 8125POPC   GL140981  29.903   9.701   6.153
 8125POPC   GL240982  29.805   9.649   6.153
 8125POPC   C1A40983  29.957   9.698   6.453
 8125POPC   D2A40984  29.956   9.725   6.753
 8125POPC   C3A40985  29.942   9.740   7.053
 8125POPC   C4A40986  29.907   9.727   7.353
 8125POPC   C1B40987  29.724   9.562   6.453
 8125POPC   C2B40988  29.714   9.560   6.753
 8125POPC   C3B40989  29.763   9.581   7.053
 8125POPC   C4B40990  29.709   9.615   7.353
 8126POPC   NC340991  20.644  27.606   5.553
 8126POPC   PO440992  20.643  27.573   5.853
 8126POPC   GL140993  20.604  27.642   6.153
 8126POPC   GL240994  20.742  27.579   6.153
 8126POPC   C1A40995  20.586  27.638   6.453
 8126POPC   D2A40996  20.620  27.561   6.753
 8126POPC   C3A40997  20.586  27.604   7.053
 8126POPC   C4A40998  20.595  27.603   7.353
 8126POPC   C1B40999  20.816  27.553   6.453
 8126POPC   C2B41000  20.886  27.553   6.753
 8126POPC   C3B41001  20.853  27.544   7.053
 8126POPC   C4B41002  20.880  27.542   7.353
 8127POPC   NC341003  30.716  41.562   5.553
 8127POPC   PO441004  30.677  41.534   5.853
 8127POPC   GL141005  30.711  41.538   6.153
 8127POPC   GL241006  30.580  41.620   6.153
 8127POPC   C1A41007  30.688  41.548   6.453
 8127POPC   D2A41008  30.691  41.593   6.753
 8127POPC   C3A41009  30.715  41.533   7.053
 8127POPC   C4A41010  30.681  41.524   7.353
 8127POPC   C1B41011  30.466  41.716   6.453
 8127POPC   C2B41012  30.546  41.679   6.753
 8127POPC   C3B41013  30.466  41.723   7.053
 8127POPC   C4B41014  30.511  41.718   7.353
 8128POPC   NC341015  33.004  20.616   5.553
 8128POPC   PO441016  33.013  20.563   5.853
 8128POPC   GL141017  33.000  20.572   6.153
 8128POPC   GL241018  33.001  20.719   6.153
 8128POPC   C1A41019  32.982  20.609   6.453
 8128POPC   D2A41020  33.044  20.630   6.753
 8128POPC   C3A41021  33.036  20.644   7.053
 8128POPC   C4A41022  33.045  20.646   7.353
 8128POPC   C1B41023  32.944  20.891   6.453
 8128POPC   C2B41024  32.960  20.806   6.753
 8128POPC   C3B41025  32.924  20.829   7.053
 8128POPC   C4B41026  32.936  20.845   7.353
 8129POPC   NC341027  13.606  30.712   5.553
 8129POPC   PO441028  13.606  30.670   5.853
 8129POPC   GL141029  13.620  30.649   6.153
 8129POPC   GL241030  13.533  30.813   6.153
 8129POPC   C1A41031  13.633  30.696   6.453
 8129POPC   D2A41032  13.637  30.682   6.753
 8129POPC   C3A41033  13.666  30.727   7.053
 8129POPC   C4A41034  13.587  30.707   7.353
 8129POPC   C1B41035  13.464  30.896   6.453
 8129POPC   C2B41036  13.490  30.863   6.753
 8129POPC   C3B41037  13.470  30.896   7.053
 8129POPC   C4B41038  13.440  30.851   7.353
 8130POPC   NC341039  44.678  24.478   5.553
 8130POPC   PO441040  44.653  24.519   5.853
 8130POPC   GL141041  44.699  24.513   6.153
 8130POPC   GL241042  44.492  24.504   6.153
 8130POPC   C1A41043  44.669  24.523   6.453
 8130POPC   D2A41044  44.710  24.473   6.753
 8130POPC   C3A41045  44.652  24.508   7.053
 8130POPC   C4A41046  44.706  24.466   7.353
 8130POPC   C1B41047  44.376  24.516   6.453
 8130POPC   C2B41048  44.373  24.497   6.753
 8130POPC   C3B41049  44.416  24.496   7.053
 8130POPC   C4B41050  44.404  24.530   7.353
 8131POPC   NC341051   1.989   5.876   5.553
 8131POPC   PO441052   2.014   5.902   5.853
 8131POPC   GL141053   1.952   5.897   6.153
 8131POPC   GL241054   2.140   5.795   6.153
 8131POPC   C1A41055   2.030   5.830   6.453
 8131POPC   D2A41056   1.955   5.846   6.753
 8131POPC   C3A41057   1.984   5.839   7.053
 8131POPC   C4A41058   2.000   5.887   7.353
 8131POPC   C1B41059   2.263   5.755   6.453
 8131POPC   C2B41060   2.273   5.840   6.753
 8131POPC   C3B41061   2.235   5.749   7.053
 8131POPC   C4B41062   2.202   5.843   7.353
 8132POPC   NC341063   4.278  33.074   5.553
 8132POPC   PO441064   4.327  33.001   5.853
 8132POPC   GL141065   4.342  33.006   6.153
 8132POPC   GL241066   4.233  32.933   6.153
 8132POPC   C1A41067   4.281  32.990   6.453
 8132POPC   D2A41068   4.346  33.006   6.753
 8132POPC   C3A41069   4.366  32.986   7.053
 8132POPC   C4A41070   4.307  33.001   7.353
 8132POPC   C1B41071   4.156  32.846   6.453
 8132POPC   C2B41072   4.148  32.850   6.753
 8132POPC   C3B41073   4.170  32.830   7.053
 8132POPC   C4B41074   4.100  32.828   7.353
 8133POPC   NC341075  29.965  22.962   5.553
 8133POPC   PO441076  29.935  22.961   5.853
 8133POPC   GL141077  29.935  22.950   6.153
 8133POPC   GL241078  30.040  22.934   6.153
 8133POPC   C1A41079  29.944  22.936   6.453
 8133POPC   D2A41080  29.964  22.922   6.753
 8133POPC   C3A41081  29.954  22.951   7.053
 8133POPC   C4A41082  29.945  22.905   7.353
 8133POPC   C1B41083  30.127  23.020   6.453
 8133POPC   C2B41084  30.216  22.999   6.753
 8133POPC   C3B41085  30.180  22.976   7.053
 8133POPC   C4B41086  30.157  23.022   7.353
 8134POPC   NC341087  10.516  15.168   5.553
 8134POPC   PO441088  10.528  15.177   5.853
 8134POPC   GL141089  10.562  15.131   6.153
 8134POPC   GL241090  10.604  15.205   6.153
 8134POPC   C1A41091  10.521  15.185   6.453
 8134POPC   D2A41092  10.567  15.169   6.753
 8134POPC   C3A41093  10.494  15.174   7.053
 8134POPC   C4A41094  10.522  15.181   7.353
 8134POPC   C1B41095  10.714  15.264   6.453
 8134POPC   C2B41096  10.765  15.277   6.753
 8134POPC   C3B41097  10.776  15.242   7.053
 8134POPC   C4B41098  10.803  15.281   7.353
 8135POPC   NC341099  39.980  32.257   5.553
 8135POPC   PO441100  39.964  32.246   5.853
 8135POPC   GL141101  40.042  32.295   6.153
 8135POPC   GL241102  40.174  32.228   6.153
 8135POPC   C1A41103  39.974  32.272   6.453
 8135POPC   D2A41104  40.018  32.218   6.753
 8135POPC   C3A41105  40.027  32.257   7.053
 8135POPC   C4A41106  40.018  32.204   7.353
 8135POPC   C1B41107  40.208  32.184   6.453
 8135POPC   C2B41108  40.209  32.157   6.753
 8135POPC   C3B41109  40.201  32.143   7.053
 8135POPC   C4B41110  40.240  32.233   7.353
 8136POPC   NC341111  38.478  43.850   5.553
 8136POPC   PO441112  38.411  43.865   5.853
 8136POPC   GL141113  38.437  43.916   6.153
 8136POPC   GL241114  38.520  43.967   6.153
 8136POPC   C1A41115  38.458  43.868   6.453
 8136POPC   D2A41116  38.497  43.888   6.753
 8136POPC   C3A41117  38.447  43.874   7.053
 8136POPC   C4A41118  38.438  43.920   7.353
 8136POPC   C1B41119  38.581  44.093   6.453
 8136POPC   C2B41120  38.577  44.055   6.753
 8136POPC   C3B41121  38.594  44.065   7.053
 8136POPC   C4B41122  38.604  44.078   7.353
 8137POPC   NC341123  44.657   3.526   5.553
 8137POPC   PO441124  44.686   3.547   5.853
 8137POPC   GL141125  44.621   3.566   6.153
 8137POPC   GL241126  44.685   3.636   6.153
 8137POPC   C1A41127  44.650   3.539   6.453
 8137POPC   D2A41128  44.674   3.540   6.753
 8137POPC   C3A41129  44.664   3.524   7.053
 8137POPC   C4A41130  44.688   3.566   7.353
 8137POPC   C1B41131  44.604   3.789   6.453
 8137POPC   C2B41132  44.644   3.750   6.753
 8137POPC   C3B41133  44.638   3.762   7.053
 8137POPC   C4B41134  44.663   3.772   7.353
 8138POPC   NC341135  10.506  26.858   5.553
 8138POPC   PO441136  10.497  26.791   5.853
 8138POPC   GL141137  10.535  26.785   6.153
 8138POPC   GL241138  10.658  26.882   6.153
 8138POPC   C1A41139  10.532  26.770   6.453
 8138POPC   D2A41140  10.570  26.793   6.753
 8138POPC   C3A41141  10.558  26.779   7.053
 8138POPC   C4A41142  10.519  26.807   7.353
 8138POPC   C1B41143  10.740  26.924   6.453
 8138POPC   C2B41144  10.764  26.993   6.753
 8138POPC   C3B41145  10.760  26.958   7.053
 8138POPC   C4B41146  10.697  26.959   7.353
 8139POPC   NC341147   7.444  36.886   5.553
 8139POPC   PO441148   7.427  36.951   5.853
 8139POPC   GL141149   7.424  36.870   6.153
 8139POPC   GL241150   7.310  36.990   6.153
 8139POPC   C1A41151   7.447  36.920   6.453
 8139POPC   D2A41152   7.378  36.867   6.753
 8139POPC   C3A41153   7.437  36.909   7.053
 8139POPC   C4A41154   7.413  36.858   7.353
 8139POPC   C1B41155   7.232  37.089   6.453
 8139POPC   C2B41156   7.212  37.057   6.753
 8139POPC   C3B41157   7.242  37.048   7.053
 8139POPC   C4B41158   7.233  37.109   7.353
 8140POPC   NC341159  11.326  19.017   5.553
 8140POPC   PO441160  11.345  19.091   5.853
 8140POPC   GL141161  11.309  19.011   6.153
 8140POPC   GL241162  11.390  19.085   6.153
 8140POPC   C1A41163  11.320  19.104   6.453
 8140POPC   D2A41164  11.303  19.087   6.753
 8140POPC   C3A41165  11.256  19.073   7.053
 8140POPC   C4A41166  11.339  19.098   7.353
 8140POPC   C1B41167  11.559  19.067   6.453
 8140POPC   C2B41168  11.526  19.010   6.753
 8140POPC   C3B41169  11.527  19.012   7.053
 8140POPC   C4B41170  11.545  19.043   7.353
 8141POPC   NC341171   8.152   4.304   5.553
 8141POPC   PO441172   8.237   4.323   5.853
 8141POPC   GL141173   8.170   4.318   6.153
 8141POPC   GL241174   8.276   4.274   6.153
 8141POPC   C1A41175   8.198   4.267   6.453
 8141POPC   D2A41176   8.225   4.311   6.753
 8141POPC   C3A41177   8.239   4.356   7.053
 8141POPC   C4A41178   8.162   4.324   7.353
 8141POPC   C1B41179   8.445   4.207   6.453
 8141POPC   C2B41180   8.407   4.230   6.753
 8141POPC   C3B41181   8.401   4.234   7.053
 8141POPC   C4B41182   8.477   4.280   7.353
 8142POPC   NC341183  44.646  10.544   5.553
 8142POPC   PO441184  44.695  10.478   5.853
 8142POPC   GL141185  44.697  10.557   6.153
 8142POPC   GL241186  44.623  10.446   6.153
 8142POPC   C1A41187  44.614  10.552   6.453
 8142POPC   D2A41188  44.699  10.544   6.753
 8142POPC   C3A41189  44.695  10.491   7.053
 8142POPC   C4A41190  44.686  10.524   7.353
 8142POPC   C1B41191  44.507  10.258   6.453
 8142POPC   C2B41192  44.526  10.280   6.753
 8142POPC   C3B41193  44.556  10.332   7.053
 8142POPC   C4B41194  44.491  10.350   7.353
 8143POPC   NC341195  31.464  32.981   5.553
 8143POPC   PO441196  31.484  33.037   5.853
 8143POPC   GL141197  31.472  33.050   6.153
 8143POPC   GL241198  31.399  33.082   6.153
 8143POPC   C1A41199  31.496  33.011   6.453
 8143POPC   D2A41200  31.440  33.055   6.753
 8143POPC   C3A41201  31.503  33.032   7.053
 8143POPC   C4A41202  31.504  32.979   7.353
 8143POPC   C1B41203  31.189  33.044   6.453
 8143POPC   C2B41204  31.215  33.121   6.753
 8143POPC   C3B41205  31.275  33.051   7.053
 8143POPC   C4B41206  31.272  33.112   7.353
 8144POPC   NC341207  34.559  43.906   5.553
 8144POPC   PO441208  34.550  43.884   5.853
 8144POPC   GL141209  34.544  43.915   6.153
 8144POPC   GL241210  34.415  43.866   6.153
 8144POPC   C1A41211  34.554  43.885   6.453
 8144POPC   D2A41212  34.569  43.928   6.753
 8144POPC   C3A41213  34.568  43.843   7.053
 8144POPC   C4A41214  34.611  43.883   7.353
 8144POPC   C1B41215  34.344  43.910   6.453
 8144POPC   C2B41216  34.335  43.913   6.753
 8144POPC   C3B41217  34.337  43.921   7.053
 8144POPC   C4B41218  34.330  43.912   7.353
 8145POPC   NC341219  26.806  22.954   5.553
 8145POPC   PO441220  26.862  22.920   5.853
 8145POPC   GL141221  26.773  22.963   6.153
 8145POPC   GL241222  26.882  22.980   6.153
 8145POPC   C1A41223  26.865  22.988   6.453
 8145POPC   D2A41224  26.833  22.904   6.753
 8145POPC   C3A41225  26.819  22.906   7.053
 8145POPC   C4A41226  26.820  22.975   7.353
 8145POPC   C1B41227  27.033  23.024   6.453
 8145POPC   C2B41228  27.025  23.061   6.753
 8145POPC   C3B41229  27.033  23.078   7.053
 8145POPC   C4B41230  27.008  23.045   7.353
 8146POPC   NC341231  39.242  33.814   5.553
 8146POPC   PO441232  39.274  33.846   5.853
 8146POPC   GL141233  39.184  33.752   6.153
 8146POPC   GL241234  39.121  33.844   6.153
 8146POPC   C1A41235  39.190  33.765   6.453
 8146POPC   D2A41236  39.213  33.838   6.753
 8146POPC   C3A41237  39.216  33.786   7.053
 8146POPC   C4A41238  39.278  33.835   7.353
 8146POPC   C1B41239  39.016  33.752   6.453
 8146POPC   C2B41240  38.975  33.767   6.753
 8146POPC   C3B41241  38.941  33.775   7.053
 8146POPC   C4B41242  38.981  33.772   7.353
 8147POPC   NC341243  13.611  35.375   5.553
 8147POPC   PO441244  13.649  35.318   5.853
 8147POPC   GL141245  13.640  35.384   6.153
 8147POPC   GL241246  13.721  35.455   6.153
 8147POPC   C1A41247  13.644  35.379   6.453
 8147POPC   D2A41248  13.600  35.376   6.753
 8147POPC   C3A41249  13.581  35.356   7.053
 8147POPC   C4A41250  13.639  35.326   7.353
 8147POPC   C1B41251  13.730  35.585   6.453
 8147POPC   C2B41252  13.784  35.538   6.753
 8147POPC   C3B41253  13.705  35.602   7.053
 8147POPC   C4B41254  13.747  35.568   7.353
 8148POPC   NC341255   0.483  12.038   5.553
 8148POPC   PO441256   0.414  12.057   5.853
 8148POPC   GL141257   0.481  12.125   6.153
 8148POPC   GL241258   0.439  11.965   6.153
 8148POPC   C1A41259   0.486  12.072   6.453
 8148POPC   D2A41260   0.477  12.106   6.753
 8148POPC   C3A41261   0.443  12.100   7.053
 8148POPC   C4A41262   0.471  12.113   7.353
 8148POPC   C1B41263   0.542  11.789   6.453
 8148POPC   C2B41264   0.522  11.847   6.753
 8148POPC   C3B41265   0.488  11.871   7.053
 8148POPC   C4B41266   0.490  11.813   7.353
 8149POPC   NC341267  19.023   7.452   5.553
 8149POPC   PO441268  19.106   7.395   5.853
 8149POPC   GL141269  19.085   7.389   6.153
 8149POPC   GL241270  19.024   7.498   6.153
 8149POPC   C1A41271  19.047   7.460   6.453
 8149POPC   D2A41272  19.016   7.406   6.753
 8149POPC   C3A41273  19.105   7.410   7.053
 8149POPC   C4A41274  19.018   7.418   7.353
 8149POPC   C1B41275  18.935   7.644   6.453
 8149POPC   C2B41276  18.995   7.635   6.753
 8149POPC   C3B41277  18.955   7.614   7.053
 8149POPC   C4B41278  18.931   7.664   7.353
 8150POPC   NC341279  39.960   1.189   5.553
 8150POPC   PO441280  40.036   1.196   5.853
 8150POPC   GL141281  39.995   1.177   6.153
 8150POPC   GL241282  40.159   1.277   6.153
 8150POPC   C1A41283  39.985   1.243   6.453
 8150POPC   D2A41284  39.999   1.239   6.753
 8150POPC   C3A41285  40.000   1.177   7.053
 8150POPC   C4A41286  39.975   1.218   7.353
 8150POPC   C1B41287  40.234   1.273   6.453
 8150POPC   C2B41288  40.230   1.249   6.753
 8150POPC   C3B41289  40.261   1.273   7.053
 8150POPC   C4B41290  40.233   1.333   7.353
 8151POPC   NC341291   4.335  28.358   5.553
 8151POPC   PO441292   4.278  28.352   5.853
 8151POPC   GL141293   4.363  28.331   6.153
 8151POPC   GL241294   4.425  28.296   6.153
 8151POPC   C1A41295   4.285  28.336   6.453
 8151POPC   D2A41296   4.324  28.360   6.753
 8151POPC   C3A41297   4.304  28.383   7.053
 8151POPC   C4A41298   4.351  28.362   7.353
 8151POPC   C1B41299   4.486  28.166   6.453
 8151POPC   C2B41300   4.431  28.157   6.753
 8151POPC   C3B41301   4.497  28.188   7.053
 8151POPC   C4B41302   4.497  28.150   7.353
 8152POPC   NC341303  20.599   7.416   5.553
 8152POPC   PO441304  20.657   7.409   5.853
 8152POPC   GL141305  20.600   7.444   6.153
 8152POPC   GL241306  20.594   7.286   6.153
 8152POPC   C1A41307  20.595   7.461   6.453
 8152POPC   D2A41308  20.572   7.432   6.753
 8152POPC   C3A41309  20.631   7.417   7.053
 8152POPC   C4A41310  20.608   7.410   7.353
 8152POPC   C1B41311  20.568   7.214   6.453
 8152POPC   C2B41312  20.587   7.161   6.753
 8152POPC   C3B41313  20.550   7.206   7.053
 8152POPC   C4B41314  20.537   7.157   7.353
 8153POPC   NC341315   8.213  43.892   5.553
 8153POPC   PO441316   8.185  43.905   5.853
 8153POPC   GL141317   8.216  43.836   6.153
 8153POPC   GL241318   8.337  43.837   6.153
 8153POPC   C1A41319   8.162  43.914   6.453
 8153POPC   D2A41320   8.228  43.891   6.753
 8153POPC   C3A41321   8.219  43.848   7.053
 8153POPC   C4A41322   8.215  43.918   7.353
 8153POPC   C1B41323   8.408  43.705   6.453
 8153POPC   C2B41324   8.406  43.761   6.753
 8153POPC   C3B41325   8.427  43.691   7.053
 8153POPC   C4B41326   8.381  43.716   7.353
 8154POPC   NC341327   6.626  22.945   5.553
 8154POPC   PO441328   6.662  22.911   5.853
 8154POPC   GL141329   6.669  22.965   6.153
 8154POPC   GL241330   6.621  23.041   6.153
 8154POPC   C1A41331   6.668  22.942   6.453
 8154POPC   D2A41332   6.667  22.962   6.753
 8154POPC   C3A41333   6.606  22.957   7.053
 8154POPC   C4A41334   6.661  22.934   7.353
 8154POPC   C1B41335   6.518  23.214   6.453
 8154POPC   C2B41336   6.520  23.171   6.753
 8154POPC   C3B41337   6.503  23.176   7.053
 8154POPC   C4B41338   6.557  23.194   7.353
 8155POPC   NC341339  39.196  14.424   5.553
 8155POPC   PO441340  39.270  14.365   5.853
 8155POPC   GL141341  39.193  14.445   6.153
 8155POPC   GL241342  39.365  14.380   6.153
 8155POPC   C1A41343  39.218  14.397   6.453
 8155POPC   D2A41344  39.210  14.410   6.753
 8155POPC   C3A41345  39.261  14.433   7.053
 8155POPC   C4A41346  39.189  14.401   7.353
 8155POPC   C1B41347  39.484  14.306   6.453
 8155POPC   C2B41348  39.500  14.322   6.753
 8155POPC   C3B41349  39.471  14.306   7.053
 8155POPC   C4B41350  39.473  14.330   7.353
 8156POPC   NC341351  39.272  23.758   5.553
 8156POPC   PO441352  39.193  23.739   5.853
 8156POPC   GL141353  39.190  23.739   6.153
 8156POPC   GL241354  39.332  23.614   6.153
 8156POPC   C1A41355  39.205  23.745   6.453
 8156POPC   D2A41356  39.237  23.754   6.753
 8156POPC   C3A41357  39.191  23.736   7.053
 8156POPC   C4A41358  39.185  23.683   7.353
 8156POPC   C1B41359  39.367  23.517   6.453
 8156POPC   C2B41360  39.415  23.574   6.753
 8156POPC   C3B41361  39.406  23.521   7.053
 8156POPC   C4B41362  39.414  23.552   7.353
 8157POPC   NC341363  36.919   4.299   5.553
 8157POPC   PO441364  36.874   4.343   5.853
 8157POPC   GL141365  36.865   4.302   6.153
 8157POPC   GL241366  36.973   4.199   6.153
 8157POPC   C1A41367  36.899   4.322   6.453
 8157POPC   D2A41368  36.900   4.313   6.753
 8157POPC   C3A41369  36.944   4.303   7.053
 8157POPC   C4A41370  36.916   4.339   7.353
 8157POPC   C1B41371  37.076   4.131   6.453
 8157POPC   C2B41372  36.997   4.093   6.753
 8157POPC   C3B41373  37.043   4.103   7.053
 8157POPC   C4B41374  37.060   4.149   7.353
 8158POPC   NC341375  36.902  18.294   5.553
 8158POPC   PO441376  36.867  18.308   5.853
 8158POPC   GL141377  36.869  18.320   6.153
 8158POPC   GL241378  36.823  18.142   6.153
 8158POPC   C1A41379  36.923  18.318   6.453
 8158POPC   D2A41380  36.918  18.291   6.753
 8158POPC   C3A41381  36.867  18.252   7.053
 8158POPC   C4A41382  36.928  18.241   7.353
 8158POPC   C1B41383  36.794  18.124   6.453
 8158POPC   C2B41384  36.752  18.051   6.753
 8158POPC   C3B41385  36.714  18.102   7.053
 8158POPC   C4B41386  36.757  18.077   7.353
 8159POPC   NC341387   1.961   8.148   5.553
 8159POPC   PO441388   1.955   8.230   5.853
 8159POPC   GL141389   1.959   8.182   6.153
 8159POPC   GL241390   1.830   8.158   6.153
 8159POPC   C1A41391   2.034   8.214   6.453
 8159POPC   D2A41392   1.942   8.169   6.753
 8159POPC   C3A41393   1.969   8.242   7.053
 8159POPC   C4A41394   2.017   8.213   7.353
 8159POPC   C1B41395   1.738   8.226   6.453
 8159POPC   C2B41396   1.759   8.175   6.753
 8159POPC   C3B41397   1.733   8.253   7.053
 8159POPC   C4B41398   1.788   8.250   7.353
 8160POPC   NC341399  25.283  33.755   5.553
 8160POPC   PO441400  25.306  33.820   5.853
 8160POPC   GL141401  25.261  33.787   6.153
 8160POPC   GL241402  25.268  33.966   6.153
 8160POPC   C1A41403  25.280  33.771   6.453
 8160POPC   D2A41404  25.237  33.838   6.753
 8160POPC   C3A41405  25.224  33.790   7.053
 8160POPC   C4A41406  25.307  33.845   7.353
 8160POPC   C1B41407  25.204  34.040   6.453
 8160POPC   C2B41408  25.238  34.035   6.753
 8160POPC   C3B41409  25.262  34.016   7.053
 8160POPC   C4B41410  25.229  34.095   7.353
 8161POPC   NC341411  43.083  29.914   5.553
 8161POPC   PO441412  43.154  29.913   5.853
 8161POPC   GL141413  43.138  29.941   6.153
 8161POPC   GL241414  43.090  30.036   6.153
 8161POPC   C1A41415  43.091  29.914   6.453
 8161POPC   D2A41416  43.120  29.918   6.753
 8161POPC   C3A41417  43.066  29.922   7.053
 8161POPC   C4A41418  43.159  29.951   7.353
 8161POPC   C1B41419  42.996  30.089   6.453
 8161POPC   C2B41420  42.963  30.159   6.753
 8161POPC   C3B41421  43.008  30.103   7.053
 8161POPC   C4B41422  42.931  30.129   7.353
 8162POPC   NC341423  40.027  13.670   5.553
 8162POPC   PO441424  39.990  13.586   5.853
 8162POPC   GL141425  39.970  13.594   6.153
 8162POPC   GL241426  39.878  13.550   6.153
 8162POPC   C1A41427  40.007  13.610   6.453
 8162POPC   D2A41428  39.967  13.634   6.753
 8162POPC   C3A41429  40.036  13.633   7.053
 8162POPC   C4A41430  40.041  13.656   7.353
 8162POPC   C1B41431  39.817  13.479   6.453
 8162POPC   C2B41432  39.831  13.468   6.753
 8162POPC   C3B41433  39.833  13.392   7.053
 8162POPC   C4B41434  39.817  13.406   7.353
 8163POPC   NC341435  39.235  39.224   5.553
 8163POPC   PO441436  39.250  39.182   5.853
 8163POPC   GL141437  39.240  39.188   6.153
 8163POPC   GL241438  39.399  39.220   6.153
 8163POPC   C1A41439  39.264  39.247   6.453
 8163POPC   D2A41440  39.229  39.264   6.753
 8163POPC   C3A41441  39.272  39.241   7.053
 8163POPC   C4A41442  39.183  39.238   7.353
 8163POPC   C1B41443  39.504  39.287   6.453
 8163POPC   C2B41444  39.512  39.233   6.753
 8163POPC   C3B41445  39.490  39.301   7.053
 8163POPC   C4B41446  39.489  39.274   7.353
 8164POPC   NC341447  37.637   5.874   5.553
 8164POPC   PO441448  37.716   5.874   5.853
 8164POPC   GL141449  37.687   5.892   6.153
 8164POPC   GL241450  37.559   5.786   6.153
 8164POPC   C1A41451  37.638   5.919   6.453
 8164POPC   D2A41452  37.680   5.869   6.753
 8164POPC   C3A41453  37.728   5.918   7.053
 8164POPC   C4A41454  37.719   5.874   7.353
 8164POPC   C1B41455  37.417   5.723   6.453
 8164POPC   C2B41456  37.422   5.713   6.753
 8164POPC   C3B41457  37.456   5.753   7.053
 8164POPC   C4B41458  37.499   5.757   7.353
 8165POPC   NC341459  36.170  15.913   5.553
 8165POPC   PO441460  36.085  15.915   5.853
 8165POPC   GL141461  36.143  15.953   6.153
 8165POPC   GL241462  36.002  15.989   6.153
 8165POPC   C1A41463  36.105  15.982   6.453
 8165POPC   D2A41464  36.091  15.929   6.753
 8165POPC   C3A41465  36.124  15.983   7.053
 8165POPC   C4A41466  36.148  15.974   7.353
 8165POPC   C1B41467  35.883  16.127   6.453
 8165POPC   C2B41468  35.888  16.108   6.753
 8165POPC   C3B41469  35.969  16.062   7.053
 8165POPC   C4B41470  35.930  16.060   7.353
 8166POPC   NC341471  34.528  35.391   5.553
 8166POPC   PO441472  34.581  35.340   5.853
 8166POPC   GL141473  34.581  35.314   6.153
 8166POPC   GL241474  34.658  35.265   6.153
 8166POPC   C1A41475  34.571  35.393   6.453
 8166POPC   D2A41476  34.558  35.314   6.753
 8166POPC   C3A41477  34.548  35.304   7.053
 8166POPC   C4A41478  34.568  35.311   7.353
 8166POPC   C1B41479  34.782  35.133   6.453
 8166POPC   C2B41480  34.787  35.210   6.753
 8166POPC   C3B41481  34.719  35.176   7.053
 8166POPC   C4B41482  34.726  35.226   7.353
 8167POPC   NC341483  16.765  21.419   5.553
 8167POPC   PO441484  16.713  21.419   5.853
 8167POPC   GL141485  16.704  21.398   6.153
 8167POPC   GL241486  16.577  21.358   6.153
 8167POPC   C1A41487  16.779  21.424   6.453
 8167POPC   D2A41488  16.698  21.413   6.753
 8167POPC   C3A41489  16.780  21.346   7.053
 8167POPC   C4A41490  16.776  21.424   7.353
 8167POPC   C1B41491  16.526  21.360   6.453
 8167POPC   C2B41492  16.464  21.292   6.753
 8167POPC   C3B41493  16.445  21.352   7.053
 8167POPC   C4B41494  16.517  21.372   7.353
 8168POPC   NC341495   8.160  30.732   5.553
 8168POPC   PO441496   8.186  30.714   5.853
 8168POPC   GL141497   8.213  30.741   6.153
 8168POPC   GL241498   8.282  30.633   6.153
 8168POPC   C1A41499   8.167  30.687   6.453
 8168POPC   D2A41500   8.210  30.725   6.753
 8168POPC   C3A41501   8.245  30.703   7.053
 8168POPC   C4A41502   8.173  30.734   7.353
 8168POPC   C1B41503   8.464  30.562   6.453
 8168POPC   C2B41504   8.403  30.553   6.753
 8168POPC   C3B41505   8.471  30.551   7.053
 8168POPC   C4B41506   8.381  30.590   7.353
 8169POPC   NC341507  22.953   9.798   5.553
 8169POPC   PO441508  22.931   9.768   5.853
 8169POPC   GL141509  22.985   9.723   6.153
 8169POPC   GL241510  23.073   9.689   6.153
 8169POPC   C1A41511  22.950   9.742   6.453
 8169POPC   D2A41512  22.893   9.749   6.753
 8169POPC   C3A41513  22.899   9.768   7.053
 8169POPC   C4A41514  22.985   9.737   7.353
 8169POPC   C1B41515  23.171   9.659   6.453
 8169POPC   C2B41516  23.180   9.724   6.753
 8169POPC   C3B41517  23.146   9.705   7.053
 8169POPC   C4B41518  23.189   9.644   7.353
 8170POPC   NC341519  17.513  27.588   5.553
 8170POPC   PO441520  17.518  27.608   5.853
 8170POPC   GL141521  17.555  27.625   6.153
 8170POPC   GL241522  17.383  27.691   6.153
 8170POPC   C1A41523  17.506  27.612   6.453
 8170POPC   D2A41524  17.549  27.581   6.753
 8170POPC   C3A41525  17.533  27.575   7.053
 8170POPC   C4A41526  17.542  27.621   7.353
 8170POPC   C1B41527  17.299  27.734   6.453
 8170POPC   C2B41528  17.324  27.799   6.753
 8170POPC   C3B41529  17.293  27.754   7.053
 8170POPC   C4B41530  17.330  27.806   7.353
 8171POPC   NC341531  43.155  26.859   5.553
 8171POPC   PO441532  43.067  26.843   5.853
 8171POPC   GL141533  43.095  26.788   6.153
 8171POPC   GL241534  43.129  26.986   6.153
 8171POPC   C1A41535  43.117  26.811   6.453
 8171POPC   D2A41536  43.073  26.844   6.753
 8171POPC   C3A41537  43.154  26.838   7.053
 8171POPC   C4A41538  43.146  26.841   7.353
 8171POPC   C1B41539  43.072  27.077   6.453
 8171POPC   C2B41540  43.086  27.032   6.753
 8171POPC   C3B41541  43.096  27.015   7.053
 8171POPC   C4B41542  43.023  27.017   7.353
 8172POPC   NC341543  29.140  43.918   5.553
 8172POPC   PO441544  29.106  43.893   5.853
 8172POPC   GL141545  29.117  43.865   6.153
 8172POPC   GL241546  29.294  43.800   6.153
 8172POPC   C1A41547  29.112  43.923   6.453
 8172POPC   D2A41548  29.174  43.857   6.753
 8172POPC   C3A41549  29.108  43.865   7.053
 8172POPC   C4A41550  29.111  43.918   7.353
 8172POPC   C1B41551  29.369  43.691   6.453
 8172POPC   C2B41552  29.298  43.768   6.753
 8172POPC   C3B41553  29.341  43.708   7.053
 8172POPC   C4B41554  29.347  43.780   7.353
 8173POPC   NC341555  36.928   0.406   5.553
 8173POPC   PO441556  36.901   0.393   5.853
 8173POPC   GL141557  36.928   0.475   6.153
 8173POPC   GL241558  36.854   0.512   6.153
 8173POPC   C1A41559  36.903   0.419   6.453
 8173POPC   D2A41560  36.941   0.397   6.753
 8173POPC   C3A41561  36.909   0.431   7.053
 8173POPC   C4A41562  36.884   0.428   7.353
 8173POPC   C1B41563  36.735   0.663   6.453
 8173POPC   C2B41564  36.701   0.625   6.753
 8173POPC   C3B41565  36.697   0.664   7.053
 8173POPC   C4B41566  36.741   0.640   7.353
 8174POPC   NC341567   5.900  33.806   5.553
 8174POPC   PO441568   5.886  33.847   5.853
 8174POPC   GL141569   5.897  33.750   6.153
 8174POPC   GL241570   6.025  33.756   6.153
 8174POPC   C1A41571   5.881  33.822   6.453
 8174POPC   D2A41572   5.825  33.807   6.753
 8174POPC   C3A41573   5.885  33.840   7.053
 8174POPC   C4A41574   5.870  33.796   7.353
 8174POPC   C1B41575   6.052  33.735   6.453
 8174POPC   C2B41576   6.137  33.674   6.753
 8174POPC   C3B41577   6.124  33.738   7.053
 8174POPC   C4B41578   6.071  33.688   7.353
 8175POPC   NC341579  32.236  30.721   5.553
 8175POPC   PO441580  32.199  30.713   5.853
 8175POPC   GL141581  32.260  30.732   6.153
 8175POPC   GL241582  32.099  30.713   6.153
 8175POPC   C1A41583  32.270  30.725   6.453
 8175POPC   D2A41584  32.271  30.675   6.753
 8175POPC   C3A41585  32.216  30.675   7.053
 8175POPC   C4A41586  32.233  30.688   7.353
 8175POPC   C1B41587  31.977  30.706   6.453
 8175POPC   C2B41588  31.983  30.786   6.753
 8175POPC   C3B41589  32.017  30.731   7.053
 8175POPC   C4B41590  31.973  30.780   7.353
 8176POPC   NC341591  28.389  37.662   5.553
 8176POPC   PO441592  28.386  37.649   5.853
 8176POPC   GL141593  28.350  37.679   6.153
 8176POPC   GL241594  28.210  37.617   6.153
 8176POPC   C1A41595  28.344  37.729   6.453
 8176POPC   D2A41596  28.400  37.657   6.753
 8176POPC   C3A41597  28.389  37.681   7.053
 8176POPC   C4A41598  28.380  37.651   7.353
 8176POPC   C1B41599  28.185  37.558   6.453
 8176POPC   C2B41600  28.183  37.547   6.753
 8176POPC   C3B41601  28.138  37.634   7.053
 8176POPC   C4B41602  28.180  37.640   7.353
 8177POPC   NC341603  25.300  34.587   5.553
 8177POPC   PO441604  25.309  34.528   5.853
 8177POPC   GL141605  25.220  34.569   6.153
 8177POPC   GL241606  25.287  34.743   6.153
 8177POPC   C1A41607  25.247  34.531   6.453
 8177POPC   D2A41608  25.272  34.552   6.753
 8177POPC   C3A41609  25.224  34.583   7.053
 8177POPC   C4A41610  25.223  34.539   7.353
 8177POPC   C1B41611  25.342  34.846   6.453
 8177POPC   C2B41612  25.391  34.769   6.753
 8177POPC   C3B41613  25.308  34.769   7.053
 8177POPC   C4B41614  25.336  34.842   7.353
 8178POPC   NC341615   2.814   8.164   5.553
 8178POPC   PO441616   2.736   8.185   5.853
 8178POPC   GL141617   2.744   8.213   6.153
 8178POPC   GL241618   2.928   8.266   6.153
 8178POPC   C1A41619   2.731   8.162   6.453
 8178POPC   D2A41620   2.763   8.235   6.753
 8178POPC   C3A41621   2.800   8.172   7.053
 8178POPC   C4A41622   2.808   8.197   7.353
 8178POPC   C1B41623   3.037   8.289   6.453
 8178POPC   C2B41624   3.046   8.241   6.753
 8178POPC   C3B41625   3.032   8.239   7.053
 8178POPC   C4B41626   3.022   8.245   7.353
 8179POPC   NC341627  35.337   6.694   5.553
 8179POPC   PO441628  35.348   6.623   5.853
 8179POPC   GL141629  35.325   6.606   6.153
 8179POPC   GL241630  35.208   6.595   6.153
 8179POPC   C1A41631  35.337   6.686   6.453
 8179POPC   D2A41632  35.323   6.694   6.753
 8179POPC   C3A41633  35.344   6.602   7.053
 8179POPC   C4A41634  35.361   6.623   7.353
 8179POPC   C1B41635  35.104   6.573   6.453
 8179POPC   C2B41636  35.101   6.575   6.753
 8179POPC   C3B41637  35.147   6.583   7.053
 8179POPC   C4B41638  35.142   6.546   7.353
 8180POPC   NC341639  41.518   1.252   5.553
 8180POPC   PO441640  41.592   1.241   5.853
 8180POPC   GL141641  41.574   1.172   6.153
 8180POPC   GL241642  41.471   1.261   6.153
 8180POPC   C1A41643  41.561   1.184   6.453
 8180POPC   D2A41644  41.552   1.171   6.753
 8180POPC   C3A41645  41.511   1.221   7.053
 8180POPC   C4A41646  41.521   1.217   7.353
 8180POPC   C1B41647  41.351   1.404   6.453
 8180POPC   C2B41648  41.358   1.363   6.753
 8180POPC   C3B41649  41.368   1.391   7.053
 8180POPC   C4B41650  41.356   1.385   7.353
 8181POPC   NC341651   0.416  43.864   5.553
 8181POPC   PO441652   0.406  43.916   5.853
 8181POPC   GL141653   0.390  43.846   6.153
 8181POPC   GL241654   0.500  43.807   6.153
 8181POPC   C1A41655   0.392  43.876   6.453
 8181POPC   D2A41656   0.407  43.901   6.753
 8181POPC   C3A41657   0.480  43.863   7.053
 8181POPC   C4A41658   0.421  43.862   7.353
 8181POPC   C1B41659   0.640  43.748   6.453
 8181POPC   C2B41660   0.609  43.756   6.753
 8181POPC   C3B41661   0.652  43.661   7.053
 8181POPC   C4B41662   0.633  43.748   7.353
 8182POPC   NC341663   6.664  26.020   5.553
 8182POPC   PO441664   6.662  25.995   5.853
 8182POPC   GL141665   6.655  26.015   6.153
 8182POPC   GL241666   6.752  25.972   6.153
 8182POPC   C1A41667   6.605  26.031   6.453
 8182POPC   D2A41668   6.621  26.066   6.753
 8182POPC   C3A41669   6.648  26.015   7.053
 8182POPC   C4A41670   6.661  26.014   7.353
 8182POPC   C1B41671   6.854  25.942   6.453
 8182POPC   C2B41672   6.861  25.960   6.753
 8182POPC   C3B41673   6.926  26.000   7.053
 8182POPC   C4B41674   6.847  25.936   7.353
 8183POPC   NC341675  36.873  25.284   5.553
 8183POPC   PO441676  36.887  25.226   5.853
 8183POPC   GL141677  36.943  25.282   6.153
 8183POPC   GL241678  37.032  25.279   6.153
 8183POPC   C1A41679  36.908  25.262   6.453
 8183POPC   D2A41680  36.892  25.233   6.753
 8183POPC   C3A41681  36.883  25.216   7.053
 8183POPC   C4A41682  36.916  25.282   7.353
 8183POPC   C1B41683  37.128  25.372   6.453
 8183POPC   C2B41684  37.106  25.356   6.753
 8183POPC   C3B41685  37.192  25.309   7.053
 8183POPC   C4B41686  37.180  25.358   7.353
 8184POPC   NC341687  42.309   2.733   5.553
 8184POPC   PO441688  42.366   2.752   5.853
 8184POPC   GL141689  42.349   2.746   6.153
 8184POPC   GL241690  42.420   2.881   6.153
 8184POPC   C1A41691  42.358   2.734   6.453
 8184POPC   D2A41692  42.360   2.811   6.753
 8184POPC   C3A41693  42.330   2.716   7.053
 8184POPC   C4A41694  42.330   2.732   7.353
 8184POPC   C1B41695  42.462   2.935   6.453
 8184POPC   C2B41696  42.559   2.950   6.753
 8184POPC   C3B41697  42.498   2.968   7.053
 8184POPC   C4B41698  42.469   2.981   7.353
 8185POPC   NC341699   1.263  26.820   5.553
 8185POPC   PO441700   1.198  26.792   5.853
 8185POPC   GL141701   1.227  26.838   6.153
 8185POPC   GL241702   1.104  26.715   6.153
 8185POPC   C1A41703   1.199  26.853   6.453
 8185POPC   D2A41704   1.243  26.828   6.753
 8185POPC   C3A41705   1.187  26.844   7.053
 8185POPC   C4A41706   1.227  26.849   7.353
 8185POPC   C1B41707   1.121  26.579   6.453
 8185POPC   C2B41708   1.117  26.638   6.753
 8185POPC   C3B41709   1.077  26.643   7.053
 8185POPC   C4B41710   1.116  26.634   7.353
 8186POPC   NC341711  22.902  24.524   5.553
 8186POPC   PO441712  22.947  24.528   5.853
 8186POPC   GL141713  22.893  24.443   6.153
 8186POPC   GL241714  23.068  24.502   6.153
 8186POPC   C1A41715  22.888  24.442   6.453
 8186POPC   D2A41716  22.927  24.518   6.753
 8186POPC   C3A41717  22.958  24.492   7.053
 8186POPC   C4A41718  22.936  24.477   7.353
 8186POPC   C1B41719  23.215  24.456   6.453
 8186POPC   C2B41720  23.203  24.466   6.753
 8186POPC   C3B41721  23.160  24.414   7.053
 8186POPC   C4B41722  23.229  24.425   7.353
 8187POPC   NC341723  19.865   8.959   5.553
 8187POPC   PO441724  19.807   8.940   5.853
 8187POPC   GL141725  19.829   9.015   6.153
 8187POPC   GL241726  19.976   8.948   6.153
 8187POPC   C1A41727  19.794   8.929   6.453
 8187POPC   D2A41728  19.840   8.937   6.753
 8187POPC   C3A41729  19.871   8.956   7.053
 8187POPC   C4A41730  19.831   8.977   7.353
 8187POPC   C1B41731  20.053   8.909   6.453
 8187POPC   C2B41732  20.037   8.919   6.753
 8187POPC   C3B41733  20.103   8.927   7.053
 8187POPC   C4B41734  20.075   8.892   7.353
 8188POPC   NC341735  43.104  36.177   5.553
 8188POPC   PO441736  43.105  36.135   5.853
 8188POPC   GL141737  43.062  36.100   6.153
 8188POPC   GL241738  43.142  36.016   6.153
 8188POPC   C1A41739  43.102  36.110   6.453
 8188POPC   D2A41740  43.097  36.117   6.753
 8188POPC   C3A41741  43.117  36.162   7.053
 8188POPC   C4A41742  43.151  36.175   7.353
 8188POPC   C1B41743  43.176  35.931   6.453
 8188POPC   C2B41744  43.171  35.927   6.753
 8188POPC   C3B41745  43.213  35.931   7.053
 8188POPC   C4B41746  43.160  35.866   7.353
 8189POPC   NC341747   0.429  16.765   5.553
 8189POPC   PO441748   0.454  16.695   5.853
 8189POPC   GL141749   0.484  16.711   6.153
 8189POPC   GL241750   0.450  16.573   6.153
 8189POPC   C1A41751   0.430  16.705   6.453
 8189POPC   D2A41752   0.419  16.691   6.753
 8189POPC   C3A41753   0.418  16.723   7.053
 8189POPC   C4A41754   0.431  16.718   7.353
 8189POPC   C1B41755   0.498  16.527   6.453
 8189POPC   C2B41756   0.551  16.473   6.753
 8189POPC   C3B41757   0.474  16.503   7.053
 8189POPC   C4B41758   0.494  16.522   7.353
 8190POPC   NC341759  26.858  43.910   5.553
 8190POPC   PO441760  26.800  43.921   5.853
 8190POPC   GL141761  26.808  43.935   6.153
 8190POPC   GL241762  26.808  44.049   6.153
 8190POPC   C1A41763  26.866  43.933   6.453
 8190POPC   D2A41764  26.858  43.849   6.753
 8190POPC   C3A41765  26.779  43.889   7.053
 8190POPC   C4A41766  26.835  43.857   7.353
 8190POPC   C1B41767  26.773  44.081   6.453
 8190POPC   C2B41768  26.708  44.160   6.753
 8190POPC   C3B41769  26.701  44.145   7.053
 8190POPC   C4B41770  26.722  44.157   7.353
 8191POPC   NC341771  12.848   7.459   5.553
 8191POPC   PO441772  12.863   7.464   5.853
 8191POPC   GL141773  12.897   7.442   6.153
 8191POPC   GL241774  12.942   7.491   6.153
 8191POPC   C1A41775  12.851   7.470   6.453
 8191POPC   D2A41776  12.863   7.444   6.753
 8191POPC   C3A41777  12.839   7.395   7.053
 8191POPC   C4A41778  12.862   7.454   7.353
 8191POPC   C1B41779  13.060   7.440   6.453
 8191POPC   C2B41780  13.070   7.521   6.753
 8191POPC   C3B41781  13.119   7.423   7.053
 8191POPC   C4B41782  13.055   7.443   7.353
 8192POPC   NC341783  36.134  17.523   5.553
 8192POPC   PO441784  36.148  17.529   5.853
 8192POPC   GL141785  36.110  17.541   6.153
 8192POPC   GL241786  36.016  17.502   6.153
 8192POPC   C1A41787  36.170  17.465   6.453
 8192POPC   D2A41788  36.152  17.537   6.753
 8192POPC   C3A41789  36.108  17.507   7.053
 8192POPC   C4A41790  36.143  17.544   7.353
 8192POPC   C1B41791  35.844  17.525   6.453
 8192POPC   C2B41792  35.854  17.494   6.753
 8192POPC   C3B41793  35.894  17.485   7.053
 8192POPC   C4B41794  35.875  17.506   7.353
 8193POPC   NC341795   6.695  36.118   5.553
 8193POPC   PO441796   6.633  36.122   5.853
 8193POPC   GL141797   6.683  36.120   6.153
 8193POPC   GL241798   6.702  36.183   6.153
 8193POPC   C1A41799   6.610  36.156   6.453
 8193POPC   D2A41800   6.677  36.147   6.753
 8193POPC   C3A41801   6.635  36.098   7.053
 8193POPC   C4A41802   6.600  36.169   7.353
 8193POPC   C1B41803   6.827  36.268   6.453
 8193POPC   C2B41804   6.775  36.351   6.753
 8193POPC   C3B41805   6.799  36.342   7.053
 8193POPC   C4B41806   6.780  36.320   7.353
 8194POPC   NC341807  20.658  35.302   5.553
 8194POPC   PO441808  20.618  35.310   5.853
 8194POPC   GL141809  20.571  35.393   6.153
 8194POPC   GL241810  20.547  35.267   6.153
 8194POPC   C1A41811  20.640  35.351   6.453
 8194POPC   D2A41812  20.602  35.378   6.753
 8194POPC   C3A41813  20.581  35.325   7.053
 8194POPC   C4A41814  20.640  35.368   7.353
 8194POPC   C1B41815  20.446  35.107   6.453
 8194POPC   C2B41816  20.502  35.120   6.753
 8194POPC   C3B41817  20.483  35.124   7.053
 8194POPC   C4B41818  20.426  35.166   7.353
 8195POPC   NC341819  29.135  16.766   5.553
 8195POPC   PO441820  29.118  16.729   5.853
 8195POPC   GL141821  29.135  16.735   6.153
 8195POPC   GL241822  29.143  16.605   6.153
 8195POPC   C1A41823  29.105  16.778   6.453
 8195POPC   D2A41824  29.156  16.757   6.753
 8195POPC   C3A41825  29.139  16.729   7.053
 8195POPC   C4A41826  29.143  16.724   7.353
 8195POPC   C1B41827  29.068  16.502   6.453
 8195POPC   C2B41828  29.106  16.455   6.753
 8195POPC   C3B41829  29.104  16.498   7.053
 8195POPC   C4B41830  29.090  16.461   7.353
 8196POPC   NC341831   8.996  36.103   5.553
 8196POPC   PO441832   9.016  36.112   5.853
 8196POPC   GL141833   8.996  36.083   6.153
 8196POPC   GL241834   8.843  36.211   6.153
 8196POPC   C1A41835   8.982  36.136   6.453
 8196POPC   D2A41836   8.948  36.169   6.753
 8196POPC   C3A41837   8.924  36.149   7.053
 8196POPC   C4A41838   8.943  36.171   7.353
 8196POPC   C1B41839   8.761  36.280   6.453
 8196POPC   C2B41840   8.836  36.317   6.753
 8196POPC   C3B41841   8.778  36.298   7.053
 8196POPC   C4B41842   8.746  36.338   7.353
 8197POPC   NC341843  40.762  32.287   5.553
 8197POPC   PO441844  40.744  32.249   5.853
 8197POPC   GL141845  40.832  32.281   6.153
 8197POPC   GL241846  40.913  32.244   6.153
 8197POPC   C1A41847  40.795  32.280   6.453
 8197POPC   D2A41848  40.781  32.251   6.753
 8197POPC   C3A41849  40.799  32.210   7.053
 8197POPC   C4A41850  40.803  32.265   7.353
 8197POPC   C1B41851  41.028  32.291   6.453
 8197POPC   C2B41852  41.023  32.338   6.753
 8197POPC   C3B41853  41.038  32.269   7.053
 8197POPC   C4B41854  41.043  32.271   7.353
 8198POPC   NC341855  40.760  10.548   5.553
 8198POPC   PO441856  40.807  10.500   5.853
 8198POPC   GL141857  40.818  10.529   6.153
 8198POPC   GL241858  40.667  10.387   6.153
 8198POPC   C1A41859  40.805  10.486   6.453
 8198POPC   D2A41860  40.769  10.481   6.753
 8198POPC   C3A41861  40.762  10.567   7.053
 8198POPC   C4A41862  40.818  10.503   7.353
 8198POPC   C1B41863  40.621  10.354   6.453
 8198POPC   C2B41864  40.677  10.345   6.753
 8198POPC   C3B41865  40.645  10.347   7.053
 8198POPC   C4B41866  40.608  10.328   7.353
 8199POPC   NC341867   8.192   3.563   5.553
 8199POPC   PO441868   8.240   3.527   5.853
 8199POPC   GL141869   8.171   3.561   6.153
 8199POPC   GL241870   8.085   3.424   6.153
 8199POPC   C1A41871   8.246   3.525   6.453
 8199POPC   D2A41872   8.171   3.558   6.753
 8199POPC   C3A41873   8.235   3.502   7.053
 8199POPC   C4A41874   8.238   3.519   7.353
 8199POPC   C1B41875   7.980   3.364   6.453
 8199POPC   C2B41876   8.029   3.368   6.753
 8199POPC   C3B41877   7.977   3.379   7.053
 8199POPC   C4B41878   8.025   3.402   7.353
 8200POPC   NC341879  33.052   4.282   5.553
 8200POPC   PO441880  32.986   4.269   5.853
 8200POPC   GL141881  32.980   4.343   6.153
 8200POPC   GL241882  33.001   4.474   6.153
 8200POPC   C1A41883  32.976   4.327   6.453
 8200POPC   D2A41884  33.062   4.272   6.753
 8200POPC   C3A41885  33.024   4.301   7.053
 8200POPC   C4A41886  33.012   4.307   7.353
 8200POPC   C1B41887  32.923   4.598   6.453
 8200POPC   C2B41888  32.899   4.569   6.753
 8200POPC   C3B41889  32.895   4.504   7.053
 8200POPC   C4B41890  32.981   4.514   7.353
 8201POPC   NC341891  15.219  36.887   5.553
 8201POPC   PO441892  15.184  36.943   5.853
 8201POPC   GL141893  15.181  36.946   6.153
 8201POPC   GL241894  15.181  36.761   6.153
 8201POPC   C1A41895  15.200  36.863   6.453
 8201POPC   D2A41896  15.173  36.870   6.753
 8201POPC   C3A41897  15.228  36.875   7.053
 8201POPC   C4A41898  15.134  36.872   7.353
 8201POPC   C1B41899  15.120  36.652   6.453
 8201POPC   C2B41900  15.128  36.659   6.753
 8201POPC   C3B41901  15.193  36.678   7.053
 8201POPC   C4B41902  15.190  36.686   7.353
 8202POPC   NC341903   1.971   5.081   5.553
 8202POPC   PO441904   2.018   5.055   5.853
 8202POPC   GL141905   1.971   5.055   6.153
 8202POPC   GL241906   1.944   5.260   6.153
 8202POPC   C1A41907   1.959   5.124   6.453
 8202POPC   D2A41908   1.966   5.078   6.753
 8202POPC   C3A41909   2.031   5.091   7.053
 8202POPC   C4A41910   1.941   5.131   7.353
 8202POPC   C1B41911   1.918   5.325   6.453
 8202POPC   C2B41912   1.874   5.347   6.753
 8202POPC   C3B41913   1.914   5.358   7.053
 8202POPC   C4B41914   1.857   5.354   7.353
 8203POPC   NC341915  28.407  36.942   5.553
 8203POPC   PO441916  28.378  36.856   5.853
 8203POPC   GL141917  28.378  36.926   6.153
 8203POPC   GL241918  28.298  36.833   6.153
 8203POPC   C1A41919  28.340  36.946   6.453
 8203POPC   D2A41920  28.326  36.888   6.753
 8203POPC   C3A41921  28.323  36.936   7.053
 8203POPC   C4A41922  28.323  36.938   7.353
 8203POPC   C1B41923  28.240  36.668   6.453
 8203POPC   C2B41924  28.233  36.659   6.753
 8203POPC   C3B41925  28.270  36.704   7.053
 8203POPC   C4B41926  28.286  36.687   7.353
 8204POPC   NC341927  28.337   0.408   5.553
 8204POPC   PO441928  28.392   0.483   5.853
 8204POPC   GL141929  28.385   0.442   6.153
 8204POPC   GL241930  28.445   0.530   6.153
 8204POPC   C1A41931  28.319   0.405   6.453
 8204POPC   D2A41932  28.348   0.484   6.753
 8204POPC   C3A41933  28.340   0.476   7.053
 8204POPC   C4A41934  28.360   0.431   7.353
 8204POPC   C1B41935  28.500   0.592   6.453
 8204POPC   C2B41936  28.569   0.670   6.753
 8204POPC   C3B41937  28.480   0.611   7.053
 8204POPC   C4B41938  28.527   0.668   7.353
 8205POPC   NC341939  39.973   0.476   5.553
 8205POPC   PO441940  40.008   0.454   5.853
 8205POPC   GL141941  39.959   0.432   6.153
 8205POPC   GL241942  39.971   0.324   6.153
 8205POPC   C1A41943  40.023   0.457   6.453
 8205POPC   D2A41944  40.007   0.465   6.753
 8205POPC   C3A41945  39.960   0.392   7.053
 8205POPC   C4A41946  40.031   0.389   7.353
 8205POPC   C1B41947  39.947   0.199   6.453
 8205POPC   C2B41948  39.952   0.204   6.753
 8205POPC   C3B41949  39.922   0.239   7.053
 8205POPC   C4B41950  39.975   0.161   7.353
 8206POPC   NC341951  34.594  34.526   5.553
 8206POPC   PO441952  34.608  34.614   5.853
 8206POPC   GL141953  34.578  34.531   6.153
 8206POPC   GL241954  34.537  34.705   6.153
 8206POPC   C1A41955  34.546  34.580   6.453
 8206POPC   D2A41956  34.562  34.546   6.753
 8206POPC   C3A41957  34.605  34.589   7.053
 8206POPC   C4A41958  34.552  34.569   7.353
 8206POPC   C1B41959  34.602  34.797   6.453
 8206POPC   C2B41960  34.561  34.777   6.753
 8206POPC   C3B41961  34.564  34.831   7.053
 8206POPC   C4B41962  34.581  34.820   7.353
 8207POPC   NC341963  38.484  43.147   5.553
 8207POPC   PO441964  38.474  43.101   5.853
 8207POPC   GL141965  38.448  43.114   6.153
 8207POPC   GL241966  38.458  43.007   6.153
 8207POPC   C1A41967  38.408  43.096   6.453
 8207POPC   D2A41968  38.455  43.084   6.753
 8207POPC   C3A41969  38.407  43.154   7.053
 8207POPC   C4A41970  38.478  43.126   7.353
 8207POPC   C1B41971  38.490  42.835   6.453
 8207POPC   C2B41972  38.498  42.832   6.753
 8207POPC   C3B41973  38.530  42.916   7.053
 8207POPC   C4B41974  38.507  42.876   7.353
 8208POPC   NC341975  37.671   8.180   5.553
 8208POPC   PO441976  37.671   8.148   5.853
 8208POPC   GL141977  37.713   8.191   6.153
 8208POPC   GL241978  37.676   8.091   6.153
 8208POPC   C1A41979  37.682   8.199   6.453
 8208POPC   D2A41980  37.716   8.152   6.753
 8208POPC   C3A41981  37.709   8.205   7.053
 8208POPC   C4A41982  37.706   8.199   7.353
 8208POPC   C1B41983  37.647   7.910   6.453
 8208POPC   C2B41984  37.696   7.924   6.753
 8208POPC   C3B41985  37.634   7.953   7.053
 8208POPC   C4B41986  37.643   7.949   7.353
 8209POPC   NC341987  40.003   3.527   5.553
 8209POPC   PO441988  40.035   3.568   5.853
 8209POPC   GL141989  40.040   3.535   6.153
 8209POPC   GL241990  39.990   3.404   6.153
 8209POPC   C1A41991  39.968   3.531   6.453
 8209POPC   D2A41992  40.000   3.559   6.753
 8209POPC   C3A41993  40.014   3.515   7.053
 8209POPC   C4A41994  40.031   3.514   7.353
 8209POPC   C1B41995  40.051   3.261   6.453
 8209POPC   C2B41996  40.050   3.286   6.753
 8209POPC   C3B41997  40.082   3.275   7.053
 8209POPC   C4B41998  40.018   3.332   7.353
 8210POPC   NC341999  12.126  18.245   5.553
 8210POPC   PO442000  12.029  18.311   5.853
 8210POPC   GL142001  12.076  18.273   6.153
 8210POPC   GL242002  12.144  18.409   6.153
 8210POPC   C1A42003  12.080  18.315   6.453
 8210POPC   D2A42004  12.071  18.308   6.753
 8210POPC   C3A42005  12.122  18.258   7.053
 8210POPC   C4A42006  12.069  18.249   7.353
 8210POPC   C1B42007  12.230  18.454   6.453
 8210POPC   C2B42008  12.223  18.530   6.753
 8210POPC   C3B42009  12.233  18.465   7.053
 8210POPC   C4B42010  12.209  18.459   7.353
 8211POPC   NC342011  19.064   4.354   5.553
 8211POPC   PO442012  19.088   4.342   5.853
 8211POPC   GL142013  19.091   4.270   6.153
 8211POPC   GL242014  18.947   4.249   6.153
 8211POPC   C1A42015  19.098   4.300   6.453
 8211POPC   D2A42016  19.049   4.279   6.753
 8211POPC   C3A42017  19.073   4.285   7.053
 8211POPC   C4A42018  19.073   4.323   7.353
 8211POPC   C1B42019  18.778   4.186   6.453
 8211POPC   C2B42020  18.793   4.257   6.753
 8211POPC   C3B42021  18.783   4.210   7.053
 8211POPC   C4B42022  18.795   4.192   7.353
 8212POPC   NC342023   0.453  25.289   5.553
 8212POPC   PO442024   0.461  25.233   5.853
 8212POPC   GL142025   0.444  25.275   6.153
 8212POPC   GL242026   0.569  25.252   6.153
 8212POPC   C1A42027   0.398  25.309   6.453
 8212POPC   D2A42028   0.404  25.295   6.753
 8212POPC   C3A42029   0.400  25.311   7.053
 8212POPC   C4A42030   0.449  25.264   7.353
 8212POPC   C1B42031   0.672  25.301   6.453
 8212POPC   C2B42032   0.689  25.304   6.753
 8212POPC   C3B42033   0.678  25.256   7.053
 8212POPC   C4B42034   0.721  25.213   7.353
 8213POPC   NC342035  14.449  16.751   5.553
 8213POPC   PO442036  14.356  16.779   5.853
 8213POPC   GL142037  14.411  16.750   6.153
 8213POPC   GL242038  14.416  16.585   6.153
 8213POPC   C1A42039  14.354  16.705   6.453
 8213POPC   D2A42040  14.439  16.781   6.753
 8213POPC   C3A42041  14.451  16.727   7.053
 8213POPC   C4A42042  14.449  16.700   7.353
 8213POPC   C1B42043  14.364  16.442   6.453
 8213POPC   C2B42044  14.362  16.504   6.753
 8213POPC   C3B42045  14.297  16.490   7.053
 8213POPC   C4B42046  14.317  16.452   7.353
 8214POPC   NC342047  39.207  35.340   5.553
 8214POPC   PO442048  39.228  35.328   5.853
 8214POPC   GL142049  39.273  35.324   6.153
 8214POPC   GL242050  39.058  35.359   6.153
 8214POPC   C1A42051  39.250  35.364   6.453
 8214POPC   D2A42052  39.243  35.365   6.753
 8214POPC   C3A42053  39.266  35.373   7.053
 8214POPC   C4A42054  39.254  35.342   7.353
 8214POPC   C1B42055  38.970  35.445   6.453
 8214POPC   C2B42056  38.940  35.446   6.753
 8214POPC   C3B42057  38.959  35.358   7.053
 8214POPC   C4B42058  38.963  35.352   7.353
 8215POPC   NC342059  36.905   8.960   5.553
 8215POPC   PO442060  36.940   8.995   5.853
 8215POPC   GL142061  36.946   9.015   6.153
 8215POPC   GL242062  36.881   9.064   6.153
 8215POPC   C1A42063  36.868   8.972   6.453
 8215POPC   D2A42064  36.927   8.986   6.753
 8215POPC   C3A42065  36.953   8.967   7.053
 8215POPC   C4A42066  36.874   8.981   7.353
 8215POPC   C1B42067  36.885   9.188   6.453
 8215POPC   C2B42068  36.927   9.200   6.753
 8215POPC   C3B42069  36.863   9.258   7.053
 8215POPC   C4B42070  36.855   9.202   7.353
 8216POPC   NC342071  31.467  26.786   5.553
 8216POPC   PO442072  31.471  26.786   5.853
 8216POPC   GL142073  31.432  26.803   6.153
 8216POPC   GL242074  31.587  26.775   6.153
 8216POPC   C1A42075  31.511  26.843   6.453
 8216POPC   D2A42076  31.493  26.846   6.753
 8216POPC   C3A42077  31.520  26.812   7.053
 8216POPC   C4A42078  31.501  26.858   7.353
 8216POPC   C1B42079  31.619  26.630   6.453
 8216POPC   C2B42080  31.620  26.620   6.753
 8216POPC   C3B42081  31.657  26.617   7.053
 8216POPC   C4B42082  31.660  26.602   7.353
 8217POPC   NC342083  41.575  40.782   5.553
 8217POPC   PO442084  41.533  40.756   5.853
 8217POPC   GL142085  41.578  40.819   6.153
 8217POPC   GL242086  41.706  40.796   6.153
 8217POPC   C1A42087  41.557  40.787   6.453
 8217POPC   D2A42088  41.537  40.754   6.753
 8217POPC   C3A42089  41.591  40.759   7.053
 8217POPC   C4A42090  41.540  40.758   7.353
 8217POPC   C1B42091  41.793  40.758   6.453
 8217POPC   C2B42092  41.764  40.803   6.753
 8217POPC   C3B42093  41.847  40.759   7.053
 8217POPC   C4B42094  41.797  40.822   7.353
 8218POPC   NC342095  12.069  21.385   5.553
 8218POPC   PO442096  12.086  21.348   5.853
 8218POPC   GL142097  12.075  21.412   6.153
 8218POPC   GL242098  11.913  21.415   6.153
 8218POPC   C1A42099  12.055  21.424   6.453
 8218POPC   D2A42100  12.039  21.368   6.753
 8218POPC   C3A42101  12.075  21.393   7.053
 8218POPC   C4A42102  12.086  21.371   7.353
 8218POPC   C1B42103  11.884  21.525   6.453
 8218POPC   C2B42104  11.886  21.502   6.753
 8218POPC   C3B42105  11.814  21.542   7.053
 8218POPC   C4B42106  11.896  21.515   7.353
 8219POPC   NC342107  14.379   6.640   5.553
 8219POPC   PO442108  14.354   6.610   5.853
 8219POPC   GL142109  14.363   6.676   6.153
 8219POPC   GL242110  14.460   6.539   6.153
 8219POPC   C1A42111  14.445   6.638   6.453
 8219POPC   D2A42112  14.402   6.677   6.753
 8219POPC   C3A42113  14.397   6.632   7.053
 8219POPC   C4A42114  14.407   6.618   7.353
 8219POPC   C1B42115  14.646   6.525   6.453
 8219POPC   C2B42116  14.649   6.511   6.753
 8219POPC   C3B42117  14.663   6.550   7.053
 8219POPC   C4B42118  14.616   6.539   7.353
 8220POPC   NC342119   3.587  12.809   5.553
 8220POPC   PO442120   3.505  12.841   5.853
 8220POPC   GL142121   3.513  12.876   6.153
 8220POPC   GL242122   3.695  12.925   6.153
 8220POPC   C1A42123   3.531  12.886   6.453
 8220POPC   D2A42124   3.513  12.856   6.753
 8220POPC   C3A42125   3.579  12.880   7.053
 8220POPC   C4A42126   3.563  12.849   7.353
 8220POPC   C1B42127   3.740  13.001   6.453
 8220POPC   C2B42128   3.788  12.999   6.753
 8220POPC   C3B42129   3.767  12.987   7.053
 8220POPC   C4B42130   3.746  12.956   7.353
 8221POPC   NC342131  40.782   8.177   5.553
 8221POPC   PO442132  40.766   8.226   5.853
 8221POPC   GL142133  40.779   8.243   6.153
 8221POPC   GL242134  40.848   8.109   6.153
 8221POPC   C1A42135  40.758   8.158   6.453
 8221POPC   D2A42136  40.812   8.183   6.753
 8221POPC   C3A42137  40.827   8.234   7.053
 8221POPC   C4A42138  40.819   8.237   7.353
 8221POPC   C1B42139  40.813   7.981   6.453
 8221POPC   C2B42140  40.856   7.957   6.753
 8221POPC   C3B42141  40.808   7.951   7.053
 8221POPC   C4B42142  40.866   7.945   7.353
 8222POPC   NC342143  32.281  36.929   5.553
 8222POPC   PO442144  32.252  36.907   5.853
 8222POPC   GL142145  32.297  36.912   6.153
 8222POPC   GL242146  32.340  36.855   6.153
 8222POPC   C1A42147  32.292  36.910   6.453
 8222POPC   D2A42148  32.263  36.871   6.753
 8222POPC   C3A42149  32.292  36.943   7.053
 8222POPC   C4A42150  32.291  36.947   7.353
 8222POPC   C1B42151  32.509  36.883   6.453
 8222POPC   C2B42152  32.473  36.860   6.753
 8222POPC   C3B42153  32.529  36.818   7.053
 8222POPC   C4B42154  32.501  36.858   7.353
 8223POPC   NC342155  12.108  35.308   5.553
 8223POPC   PO442156  12.116  35.399   5.853
 8223POPC   GL142157  12.106  35.339   6.153
 8223POPC   GL242158  12.038  35.201   6.153
 8223POPC   C1A42159  12.067  35.337   6.453
 8223POPC   D2A42160  12.107  35.349   6.753
 8223POPC   C3A42161  12.107  35.391   7.053
 8223POPC   C4A42162  12.054  35.353   7.353
 8223POPC   C1B42163  12.096  35.125   6.453
 8223POPC   C2B42164  12.045  35.145   6.753
 8223POPC   C3B42165  12.022  35.114   7.053
 8223POPC   C4B42166  12.051  35.151   7.353
 8224POPC   NC342167   4.291   1.242   5.553
 8224POPC   PO442168   4.293   1.209   5.853
 8224POPC   GL142169   4.351   1.213   6.153
 8224POPC   GL242170   4.208   1.132   6.153
 8224POPC   C1A42171   4.342   1.170   6.453
 8224POPC   D2A42172   4.323   1.213   6.753
 8224POPC   C3A42173   4.271   1.211   7.053
 8224POPC   C4A42174   4.329   1.245   7.353
 8224POPC   C1B42175   4.138   1.050   6.453
 8224POPC   C2B42176   4.129   1.052   6.753
 8224POPC   C3B42177   4.112   1.024   7.053
 8224POPC   C4B42178   4.183   1.049   7.353
 8225POPC   NC342179  36.884  44.687   5.553
 8225POPC   PO442180  36.914  44.638   5.853
 8225POPC   GL142181  36.890  44.673   6.153
 8225POPC   GL242182  36.753  44.707   6.153
 8225POPC   C1A42183  36.920  44.694   6.453
 8225POPC   D2A42184  36.946  44.689   6.753
 8225POPC   C3A42185  36.939  44.692   7.053
 8225POPC   C4A42186  36.952  44.676   7.353
 8225POPC   C1B42187  36.709  44.739   6.453
 8225POPC   C2B42188  36.656  44.755   6.753
 8225POPC   C3B42189  36.661  44.750   7.053
 8225POPC   C4B42190  36.694  44.745   7.353
 8226POPC   NC342191   8.955   4.286   5.553
 8226POPC   PO442192   9.013   4.329   5.853
 8226POPC   GL142193   8.969   4.345   6.153
 8226POPC   GL242194   9.019   4.218   6.153
 8226POPC   C1A42195   8.986   4.277   6.453
 8226POPC   D2A42196   8.954   4.333   6.753
 8226POPC   C3A42197   8.923   4.284   7.053
 8226POPC   C4A42198   8.936   4.300   7.353
 8226POPC   C1B42199   9.053   4.116   6.453
 8226POPC   C2B42200   9.039   4.050   6.753
 8226POPC   C3B42201   9.044   4.065   7.053
 8226POPC   C4B42202   8.992   4.086   7.353
 8227POPC   NC342203  20.572  30.716   5.553
 8227POPC   PO442204  20.656  30.673   5.853
 8227POPC   GL142205  20.630  30.721   6.153
 8227POPC   GL242206  20.458  30.693   6.153
 8227POPC   C1A42207  20.629  30.662   6.453
 8227POPC   D2A42208  20.603  30.708   6.753
 8227POPC   C3A42209  20.610  30.712   7.053
 8227POPC   C4A42210  20.591  30.690   7.353
 8227POPC   C1B42211  20.399  30.635   6.453
 8227POPC   C2B42212  20.345  30.659   6.753
 8227POPC   C3B42213  20.408  30.644   7.053
 8227POPC   C4B42214  20.330  30.687   7.353
 8228POPC   NC342215  22.169  12.104   5.553
 8228POPC   PO442216  22.138  12.108   5.853
 8228POPC   GL142217  22.204  12.070   6.153
 8228POPC   GL242218  22.247  12.045   6.153
 8228POPC   C1A42219  22.142  12.048   6.453
 8228POPC   D2A42220  22.188  12.123   6.753
 8228POPC   C3A42221  22.131  12.085   7.053
 8228POPC   C4A42222  22.210  12.075   7.353
 8228POPC   C1B42223  22.339  11.911   6.453
 8228POPC   C2B42224  22.369  11.916   6.753
 8228POPC   C3B42225  22.348  11.946   7.053
 8228POPC   C4B42226  22.398  11.946   7.353
 8229POPC   NC342227  17.535   7.427   5.553
 8229POPC   PO442228  17.500   7.453   5.853
 8229POPC   GL142229  17.548   7.387   6.153
 8229POPC   GL242230  17.369   7.391   6.153
 8229POPC   C1A42231  17.544   7.442   6.453
 8229POPC   D2A42232  17.507   7.460   6.753
 8229POPC   C3A42233  17.508   7.392   7.053
 8229POPC   C4A42234  17.471   7.452   7.353
 8229POPC   C1B42235  17.231   7.410   6.453
 8229POPC   C2B42236  17.288   7.403   6.753
 8229POPC   C3B42237  17.236   7.326   7.053
 8229POPC   C4B42238  17.232   7.390   7.353
 8230POPC   NC342239  33.755  21.381   5.553
 8230POPC   PO442240  33.822  21.350   5.853
 8230POPC   GL142241  33.836  21.424   6.153
 8230POPC   GL242242  33.706  21.387   6.153
 8230POPC   C1A42243  33.784  21.412   6.453
 8230POPC   D2A42244  33.753  21.394   6.753
 8230POPC   C3A42245  33.838  21.417   7.053
 8230POPC   C4A42246  33.841  21.343   7.353
 8230POPC   C1B42247  33.536  21.480   6.453
 8230POPC   C2B42248  33.604  21.477   6.753
 8230POPC   C3B42249  33.599  21.458   7.053
 8230POPC   C4B42250  33.560  21.397   7.353
 8231POPC   NC342251  24.538  13.591   5.553
 8231POPC   PO442252  24.481  13.590   5.853
 8231POPC   GL142253  24.440  13.643   6.153
 8231POPC   GL242254  24.615  13.574   6.153
 8231POPC   C1A42255  24.442  13.602   6.453
 8231POPC   D2A42256  24.517  13.630   6.753
 8231POPC   C3A42257  24.507  13.613   7.053
 8231POPC   C4A42258  24.502  13.591   7.353
 8231POPC   C1B42259  24.711  13.600   6.453
 8231POPC   C2B42260  24.682  13.549   6.753
 8231POPC   C3B42261  24.759  13.549   7.053
 8231POPC   C4B42262  24.685  13.565   7.353
 8232POPC   NC342263   9.010  43.846   5.553
 8232POPC   PO442264   8.981  43.889   5.853
 8232POPC   GL142265   8.947  43.856   6.153
 8232POPC   GL242266   9.081  44.017   6.153
 8232POPC   C1A42267   8.974  43.858   6.453
 8232POPC   D2A42268   8.932  43.898   6.753
 8232POPC   C3A42269   9.022  43.928   7.053
 8232POPC   C4A42270   8.963  43.848   7.353
 8232POPC   C1B42271   9.136  44.124   6.453
 8232POPC   C2B42272   9.067  44.050   6.753
 8232POPC   C3B42273   9.159  44.142   7.053
 8232POPC   C4B42274   9.147  44.141   7.353
 8233POPC   NC342275  37.726   2.812   5.553
 8233POPC   PO442276  37.671   2.737   5.853
 8233POPC   GL142277  37.699   2.782   6.153
 8233POPC   GL242278  37.805   2.720   6.153
 8233POPC   C1A42279  37.724   2.726   6.453
 8233POPC   D2A42280  37.631   2.784   6.753
 8233POPC   C3A42281  37.675   2.808   7.053
 8233POPC   C4A42282  37.705   2.771   7.353
 8233POPC   C1B42283  37.893   2.723   6.453
 8233POPC   C2B42284  37.876   2.698   6.753
 8233POPC   C3B42285  37.883   2.652   7.053
 8233POPC   C4B42286  37.872   2.660   7.353
 8234POPC   NC342287  22.123  36.898   5.553
 8234POPC   PO442288  22.205  36.946   5.853
 8234POPC   GL142289  22.188  36.892   6.153
 8234POPC   GL242290  22.276  37.034   6.153
 8234POPC   C1A42291  22.192  36.924   6.453
 8234POPC   D2A42292  22.170  36.918   6.753
 8234POPC   C3A42293  22.141  36.862   7.053
 8234POPC   C4A42294  22.209  36.857   7.353
 8234POPC   C1B42295  22.371  37.024   6.453
 8234POPC   C2B42296  22.358  37.080   6.753
 8234POPC   C3B42297  22.348  37.024   7.053
 8234POPC   C4B42298  22.365  37.073   7.353
 8235POPC   NC342299  28.408  19.797   5.553
 8235POPC   PO442300  28.357  19.825   5.853
 8235POPC   GL142301  28.341  19.881   6.153
 8235POPC   GL242302  28.268  19.817   6.153
 8235POPC   C1A42303  28.330  19.827   6.453
 8235POPC   D2A42304  28.399  19.837   6.753
 8235POPC   C3A42305  28.371  19.827   7.053
 8235POPC   C4A42306  28.357  19.878   7.353
 8235POPC   C1B42307  28.173  19.697   6.453
 8235POPC   C2B42308  28.180  19.749   6.753
 8235POPC   C3B42309  28.197  19.698   7.053
 8235POPC   C4B42310  28.166  19.706   7.353
 8236POPC   NC342311  44.626  13.660   5.553
 8236POPC   PO442312  44.666  13.627   5.853
 8236POPC   GL142313  44.643  13.645   6.153
 8236POPC   GL242314  44.812  13.618   6.153
 8236POPC   C1A42315  44.673  13.631   6.453
 8236POPC   D2A42316  44.673  13.609   6.753
 8236POPC   C3A42317  44.656  13.626   7.053
 8236POPC   C4A42318  44.685  13.614   7.353
 8236POPC   C1B42319  44.902  13.586   6.453
 8236POPC   C2B42320  44.897  13.662   6.753
 8236POPC   C3B42321  44.934  13.592   7.053
 8236POPC   C4B42322  44.919  13.646   7.353
 8237POPC   NC342323  10.521  28.325   5.553
 8237POPC   PO442324  10.486  28.412   5.853
 8237POPC   GL142325  10.546  28.359   6.153
 8237POPC   GL242326  10.517  28.511   6.153
 8237POPC   C1A42327  10.486  28.407   6.453
 8237POPC   D2A42328  10.499  28.418   6.753
 8237POPC   C3A42329  10.507  28.340   7.053
 8237POPC   C4A42330  10.527  28.418   7.353
 8237POPC   C1B42331  10.513  28.624   6.453
 8237POPC   C2B42332  10.488  28.658   6.753
 8237POPC   C3B42333  10.475  28.568   7.053
 8237POPC   C4B42334  10.507  28.619   7.353
 8238POPC   NC342335  36.130  24.518   5.553
 8238POPC   PO442336  36.119  24.446   5.853
 8238POPC   GL142337  36.099  24.486   6.153
 8238POPC   GL242338  36.208  24.540   6.153
 8238POPC   C1A42339  36.157  24.495   6.453
 8238POPC   D2A42340  36.094  24.464   6.753
 8238POPC   C3A42341  36.129  24.516   7.053
 8238POPC   C4A42342  36.150  24.442   7.353
 8238POPC   C1B42343  36.317  24.637   6.453
 8238POPC   C2B42344  36.256  24.701   6.753
 8238POPC   C3B42345  36.282  24.715   7.053
 8238POPC   C4B42346  36.310  24.634   7.353
 8239POPC   NC342347  17.542   8.995   5.553
 8239POPC   PO442348  17.517   8.982   5.853
 8239POPC   GL142349  17.502   8.994   6.153
 8239POPC   GL242350  17.487   8.863   6.153
 8239POPC   C1A42351  17.519   8.924   6.453
 8239POPC   D2A42352  17.537   8.943   6.753
 8239POPC   C3A42353  17.492   9.006   7.053
 8239POPC   C4A42354  17.550   8.922   7.353
 8239POPC   C1B42355  17.446   8.697   6.453
 8239POPC   C2B42356  17.388   8.755   6.753
 8239POPC   C3B42357  17.417   8.779   7.053
 8239POPC   C4B42358  17.420   8.713   7.353
 8240POPC   NC342359  33.764  31.460   5.553
 8240POPC   PO442360  33.758  31.478   5.853
 8240POPC   GL142361  33.799  31.513   6.153
 8240POPC   GL242362  33.892  31.552   6.153
 8240POPC   C1A42363  33.826  31.445   6.453
 8240POPC   D2A42364  33.777  31.490   6.753
 8240POPC   C3A42365  33.815  31.477   7.053
 8240POPC   C4A42366  33.824  31.453   7.353
 8240POPC   C1B42367  33.938  31.630   6.453
 8240POPC   C2B42368  33.959  31.607   6.753
 8240POPC   C3B42369  33.977  31.624   7.053
 8240POPC   C4B42370  33.999  31.679   7.353
 8241POPC   NC342371   6.619  34.528   5.553
 8241POPC   PO442372   6.638  34.598   5.853
 8241POPC   GL142373   6.662  34.558   6.153
 8241POPC   GL242374   6.660  34.718   6.153
 8241POPC   C1A42375   6.683  34.539   6.453
 8241POPC   D2A42376   6.653  34.564   6.753
 8241POPC   C3A42377   6.629  34.538   7.053
 8241POPC   C4A42378   6.677  34.588   7.353
 8241POPC   C1B42379   6.659  34.773   6.453
 8241POPC   C2B42380   6.680  34.845   6.753
 8241POPC   C3B42381   6.734  34.807   7.053
 8241POPC   C4B42382   6.675  34.863   7.353
 8242POPC   NC342383  39.998  36.858   5.553
 8242POPC   PO442384  40.037  36.879   5.853
 8242POPC   GL142385  39.973  36.917   6.153
 8242POPC   GL242386  39.915  36.849   6.153
 8242POPC   C1A42387  40.041  36.930   6.453
 8242POPC   D2A42388  39.987  36.887   6.753
 8242POPC   C3A42389  39.987  36.913   7.053
 8242POPC   C4A42390  40.009  36.886   7.353
 8242POPC   C1B42391  39.806  36.768   6.453
 8242POPC   C2B42392  39.783  36.808   6.753
 8242POPC   C3B42393  39.792  36.776   7.053
 8242POPC   C4B42394  39.792  36.816   7.353
 8243POPC   NC342395  10.543  27.587   5.553
 8243POPC   PO442396  10.502  27.643   5.853
 8243POPC   GL142397  10.536  27.628   6.153
 8243POPC   GL242398  10.575  27.471   6.153
 8243POPC   C1A42399  10.522  27.621   6.453
 8243POPC   D2A42400  10.480  27.605   6.753
 8243POPC   C3A42401  10.541  27.618   7.053
 8243POPC   C4A42402  10.532  27.584   7.353
 8243POPC   C1B42403  10.625  27.395   6.453
 8243POPC   C2B42404  10.613  27.379   6.753
 8243POPC   C3B42405  10.579  27.369   7.053
 8243POPC   C4B42406  10.618  27.395   7.353
 8244POPC   NC342407  31.498  19.103   5.553
 8244POPC   PO442408  31.468  19.044   5.853
 8244POPC   GL142409  31.492  19.013   6.153
 8244POPC   GL242410  31.406  19.212   6.153
 8244POPC   C1A42411  31.470  19.087   6.453
 8244POPC   D2A42412  31.453  19.076   6.753
 8244POPC   C3A42413  31.436  19.037   7.053
 8244POPC   C4A42414  31.474  19.029   7.353
 8244POPC   C1B42415  31.441  19.292   6.453
 8244POPC   C2B42416  31.421  19.259   6.753
 8244POPC   C3B42417  31.362  19.333   7.053
 8244POPC   C4B42418  31.395  19.289   7.353
 8245POPC   NC342419  11.252   7.442   5.553
 8245POPC   PO442420  11.291   7.388   5.853
 8245POPC   GL142421  11.330   7.383   6.153
 8245POPC   GL242422  11.238   7.538   6.153
 8245POPC   C1A42423  11.292   7.397   6.453
 8245POPC   D2A42424  11.253   7.448   6.753
 8245POPC   C3A42425  11.350   7.434   7.053
 8245POPC   C4A42426  11.312   7.458   7.353
 8245POPC   C1B42427  11.091   7.567   6.453
 8245POPC   C2B42428  11.059   7.581   6.753
 8245POPC   C3B42429  11.114   7.606   7.053
 8245POPC   C4B42430  11.121   7.547   7.353
 8246POPC   NC342431  38.470  26.802   5.553
 8246POPC   PO442432  38.434  26.782   5.853
 8246POPC   GL142433  38.425  26.833   6.153
 8246POPC   GL242434  38.580  26.752   6.153
 8246POPC   C1A42435  38.406  26.819   6.453
 8246POPC   D2A42436  38.429  26.794   6.753
 8246POPC   C3A42437  38.465  26.788   7.053
 8246POPC   C4A42438  38.424  26.776   7.353
 8246POPC   C1B42439  38.651  26.679   6.453
 8246POPC   C2B42440  38.711  26.674   6.753
 8246POPC   C3B42441  38.639  26.692   7.053
 8246POPC   C4B42442  38.626  26.658   7.353
 8247POPC   NC342443   2.813  28.354   5.553
 8247POPC   PO442444   2.804  28.364   5.853
 8247POPC   GL142445   2.806  28.409   6.153
 8247POPC   GL242446   2.908  28.438   6.153
 8247POPC   C1A42447   2.769  28.344   6.453
 8247POPC   D2A42448   2.723  28.388   6.753
 8247POPC   C3A42449   2.767  28.365   7.053
 8247POPC   C4A42450   2.791  28.393   7.353
 8247POPC   C1B42451   2.974  28.500   6.453
 8247POPC   C2B42452   3.014  28.484   6.753
 8247POPC   C3B42453   3.010  28.509   7.053
 8247POPC   C4B42454   2.948  28.476   7.353
 8248POPC   NC342455  26.808   9.764   5.553
 8248POPC   PO442456  26.839   9.720   5.853
 8248POPC   GL142457  26.798   9.757   6.153
 8248POPC   GL242458  26.723   9.669   6.153
 8248POPC   C1A42459  26.863   9.797   6.453
 8248POPC   D2A42460  26.770   9.723   6.753
 8248POPC   C3A42461  26.839   9.701   7.053
 8248POPC   C4A42462  26.794   9.781   7.353
 8248POPC   C1B42463  26.573   9.616   6.453
 8248POPC   C2B42464  26.566   9.599   6.753
 8248POPC   C3B42465  26.575   9.635   7.053
 8248POPC   C4B42466  26.630   9.693   7.353
 8249POPC   NC342467  34.586  16.760   5.553
 8249POPC   PO442468  34.575  16.698   5.853
 8249POPC   GL142469  34.536  16.724   6.153
 8249POPC   GL242470  34.526  16.789   6.153
 8249POPC   C1A42471  34.617  16.772   6.453
 8249POPC   D2A42472  34.555  16.735   6.753
 8249POPC   C3A42473  34.595  16.744   7.053
 8249POPC   C4A42474  34.612  16.742   7.353
 8249POPC   C1B42475  34.401  16.911   6.453
 8249POPC   C2B42476  34.391  16.888   6.753
 8249POPC   C3B42477  34.352  16.883   7.053
 8249POPC   C4B42478  34.368  16.934   7.353
 8250POPC   NC342479  12.041  38.453   5.553
 8250POPC   PO442480  12.037  38.406   5.853
 8250POPC   GL142481  12.110  38.490   6.153
 8250POPC   GL242482  11.911  38.515   6.153
 8250POPC   C1A42483  12.118  38.476   6.453
 8250POPC   D2A42484  12.039  38.428   6.753
 8250POPC   C3A42485  12.055  38.503   7.053
 8250POPC   C4A42486  12.056  38.481   7.353
 8250POPC   C1B42487  11.852  38.572   6.453
 8250POPC   C2B42488  11.819  38.548   6.753
 8250POPC   C3B42489  11.837  38.529   7.053
 8250POPC   C4B42490  11.799  38.487   7.353
 8251POPC   NC342491  15.150  19.037   5.553
 8251POPC   PO442492  15.214  19.089   5.853
 8251POPC   GL142493  15.134  19.012   6.153
 8251POPC   GL242494  15.124  18.960   6.153
 8251POPC   C1A42495  15.162  19.091   6.453
 8251POPC   D2A42496  15.229  19.035   6.753
 8251POPC   C3A42497  15.192  19.081   7.053
 8251POPC   C4A42498  15.194  19.077   7.353
 8251POPC   C1B42499  15.139  18.793   6.453
 8251POPC   C2B42500  15.152  18.786   6.753
 8251POPC   C3B42501  15.110  18.848   7.053
 8251POPC   C4B42502  15.142  18.795   7.353
 8252POPC   NC342503  35.308   8.992   5.553
 8252POPC   PO442504  35.395   9.021   5.853
 8252POPC   GL142505  35.383   8.952   6.153
 8252POPC   GL242506  35.438   9.098   6.153
 8252POPC   C1A42507  35.321   8.945   6.453
 8252POPC   D2A42508  35.303   8.964   6.753
 8252POPC   C3A42509  35.393   8.955   7.053
 8252POPC   C4A42510  35.347   9.001   7.353
 8252POPC   C1B42511  35.443   9.150   6.453
 8252POPC   C2B42512  35.520   9.231   6.753
 8252POPC   C3B42513  35.485   9.179   7.053
 8252POPC   C4B42514  35.440   9.227   7.353
 8253POPC   NC342515  31.452  23.704   5.553
 8253POPC   PO442516  31.456  23.712   5.853
 8253POPC   GL142517  31.512  23.737   6.153
 8253POPC   GL242518  31.353  23.697   6.153
 8253POPC   C1A42519  31.483  23.736   6.453
 8253POPC   D2A42520  31.435  23.691   6.753
 8253POPC   C3A42521  31.440  23.751   7.053
 8253POPC   C4A42522  31.520  23.713   7.353
 8253POPC   C1B42523  31.253  23.750   6.453
 8253POPC   C2B42524  31.181  23.752   6.753
 8253POPC   C3B42525  31.237  23.690   7.053
 8253POPC   C4B42526  31.210  23.737   7.353
 8254POPC   NC342527  42.360   9.006   5.553
 8254POPC   PO442528  42.378   8.952   5.853
 8254POPC   GL142529  42.330   8.960   6.153
 8254POPC   GL242530  42.307   9.084   6.153
 8254POPC   C1A42531  42.321   9.010   6.453
 8254POPC   D2A42532  42.359   8.991   6.753
 8254POPC   C3A42533  42.379   8.952   7.053
 8254POPC   C4A42534  42.336   9.009   7.353
 8254POPC   C1B42535  42.221   9.166   6.453
 8254POPC   C2B42536  42.261   9.174   6.753
 8254POPC   C3B42537  42.273   9.234   7.053
 8254POPC   C4B42538  42.265   9.261   7.353
 8255POPC   NC342539  40.805  36.896   5.553
 8255POPC   PO442540  40.753  36.940   5.853
 8255POPC   GL142541  40.796  36.889   6.153
 8255POPC   GL242542  40.759  37.003   6.153
 8255POPC   C1A42543  40.806  36.914   6.453
 8255POPC   D2A42544  40.760  36.937   6.753
 8255POPC   C3A42545  40.823  36.879   7.053
 8255POPC   C4A42546  40.770  36.939   7.353
 8255POPC   C1B42547  40.687  37.143   6.453
 8255POPC   C2B42548  40.694  37.155   6.753
 8255POPC   C3B42549  40.662  37.106   7.053
 8255POPC   C4B42550  40.687  37.138   7.353
 8256POPC   NC342551  29.182  31.440   5.553
 8256POPC   PO442552  29.125  31.513   5.853
 8256POPC   GL142553  29.178  31.501   6.153
 8256POPC   GL242554  29.148  31.389   6.153
 8256POPC   C1A42555  29.152  31.502   6.453
 8256POPC   D2A42556  29.147  31.451   6.753
 8256POPC   C3A42557  29.185  31.453   7.053
 8256POPC   C4A42558  29.192  31.441   7.353
 8256POPC   C1B42559  29.042  31.262   6.453
 8256POPC   C2B42560  29.073  31.248   6.753
 8256POPC   C3B42561  29.065  31.237   7.053
 8256POPC   C4B42562  29.070  31.228   7.353
 8257POPC   NC342563  10.486  30.737   5.553
 8257POPC   PO442564  10.570  30.738   5.853
 8257POPC   GL142565  10.567  30.735   6.153
 8257POPC   GL242566  10.489  30.604   6.153
 8257POPC   C1A42567  10.544  30.685   6.453
 8257POPC   D2A42568  10.562  30.698   6.753
 8257POPC   C3A42569  10.527  30.730   7.053
 8257POPC   C4A42570  10.481  30.683   7.353
 8257POPC   C1B42571  10.599  30.421   6.453
 8257POPC   C2B42572  10.547  30.420   6.753
 8257POPC   C3B42573  10.583  30.474   7.053
 8257POPC   C4B42574  10.560  30.435   7.353
 8258POPC   NC342575  33.848  22.118   5.553
 8258POPC   PO442576  33.847  22.116   5.853
 8258POPC   GL142577  33.840  22.181   6.153
 8258POPC   GL242578  33.693  22.195   6.153
 8258POPC   C1A42579  33.803  22.178   6.453
 8258POPC   D2A42580  33.805  22.118   6.753
 8258POPC   C3A42581  33.816  22.141   7.053
 8258POPC   C4A42582  33.793  22.180   7.353
 8258POPC   C1B42583  33.568  22.251   6.453
 8258POPC   C2B42584  33.576  22.252   6.753
 8258POPC   C3B42585  33.529  22.264   7.053
 8258POPC   C4B42586  33.570  22.231   7.353
 8259POPC   NC342587  41.527  11.334   5.553
 8259POPC   PO442588  41.565  11.269   5.853
 8259POPC   GL142589  41.520  11.290   6.153
 8259POPC   GL242590  41.446  11.269   6.153
 8259POPC   C1A42591  41.603  11.287   6.453
 8259POPC   D2A42592  41.520  11.300   6.753
 8259POPC   C3A42593  41.522  11.296   7.053
 8259POPC   C4A42594  41.585  11.295   7.353
 8259POPC   C1B42595  41.316  11.258   6.453
 8259POPC   C2B42596  41.333  11.176   6.753
 8259POPC   C3B42597  41.367  11.185   7.053
 8259POPC   C4B42598  41.372  11.254   7.353
 8260POPC   NC342599   1.191  28.378   5.553
 8260POPC   PO442600   1.195  28.355   5.853
 8260POPC   GL142601   1.260  28.375   6.153
 8260POPC   GL242602   1.053  28.312   6.153
 8260POPC   C1A42603   1.224  28.357   6.453
 8260POPC   D2A42604   1.260  28.402   6.753
 8260POPC   C3A42605   1.206  28.320   7.053
 8260POPC   C4A42606   1.211  28.365   7.353
 8260POPC   C1B42607   1.028  28.317   6.453
 8260POPC   C2B42608   1.005  28.301   6.753
 8260POPC   C3B42609   0.979  28.228   7.053
 8260POPC   C4B42610   0.934  28.301   7.353
 8261POPC   NC342611  32.235  31.474   5.553
 8261POPC   PO442612  32.275  31.516   5.853
 8261POPC   GL142613  32.268  31.471   6.153
 8261POPC   GL242614  32.197  31.406   6.153
 8261POPC   C1A42615  32.245  31.469   6.453
 8261POPC   D2A42616  32.222  31.493   6.753
 8261POPC   C3A42617  32.220  31.464   7.053
 8261POPC   C4A42618  32.289  31.438   7.353
 8261POPC   C1B42619  32.093  31.300   6.453
 8261POPC   C2B42620  32.101  31.214   6.753
 8261POPC   C3B42621  32.085  31.247   7.053
 8261POPC   C4B42622  32.087  31.286   7.353
 8262POPC   NC342623  17.462  43.857   5.553
 8262POPC   PO442624  17.480  43.930   5.853
 8262POPC   GL142625  17.487  43.873   6.153
 8262POPC   GL242626  17.407  43.905   6.153
 8262POPC   C1A42627  17.557  43.868   6.453
 8262POPC   D2A42628  17.477  43.855   6.753
 8262POPC   C3A42629  17.515  43.926   7.053
 8262POPC   C4A42630  17.467  43.887   7.353
 8262POPC   C1B42631  17.306  43.909   6.453
 8262POPC   C2B42632  17.284  43.950   6.753
 8262POPC   C3B42633  17.211  43.898   7.053
 8262POPC   C4B42634  17.260  43.932   7.353
 8263POPC   NC342635  12.900   1.251   5.553
 8263POPC   PO442636  12.841   1.166   5.853
 8263POPC   GL142637  12.804   1.183   6.153
 8263POPC   GL242638  12.818   1.342   6.153
 8263POPC   C1A42639  12.851   1.189   6.453
 8263POPC   D2A42640  12.832   1.263   6.753
 8263POPC   C3A42641  12.833   1.191   7.053
 8263POPC   C4A42642  12.826   1.235   7.353
 8263POPC   C1B42643  12.677   1.406   6.453
 8263POPC   C2B42644  12.738   1.411   6.753
 8263POPC   C3B42645  12.669   1.386   7.053
 8263POPC   C4B42646  12.708   1.408   7.353
 8264POPC   NC342647   2.792  32.213   5.553
 8264POPC   PO442648   2.777  32.216   5.853
 8264POPC   GL142649   2.801  32.268   6.153
 8264POPC   GL242650   2.859  32.328   6.153
 8264POPC   C1A42651   2.758  32.297   6.453
 8264POPC   D2A42652   2.793  32.230   6.753
 8264POPC   C3A42653   2.753  32.204   7.053
 8264POPC   C4A42654   2.732  32.287   7.353
 8264POPC   C1B42655   2.932  32.457   6.453
 8264POPC   C2B42656   2.872  32.440   6.753
 8264POPC   C3B42657   2.910  32.444   7.053
 8264POPC   C4B42658   2.855  32.493   7.353
 8265POPC   NC342659  41.579   8.232   5.553
 8265POPC   PO442660  41.602   8.200   5.853
 8265POPC   GL142661  41.608   8.200   6.153
 8265POPC   GL242662  41.661   8.146   6.153
 8265POPC   C1A42663  41.600   8.198   6.453
 8265POPC   D2A42664  41.558   8.185   6.753
 8265POPC   C3A42665  41.525   8.174   7.053
 8265POPC   C4A42666  41.549   8.184   7.353
 8265POPC   C1B42667  41.834   8.136   6.453
 8265POPC   C2B42668  41.818   8.117   6.753
 8265POPC   C3B42669  41.825   8.146   7.053
 8265POPC   C4B42670  41.845   8.128   7.353
 8266POPC   NC342671   5.122   0.463   5.553
 8266POPC   PO442672   5.057   0.435   5.853
 8266POPC   GL142673   5.063   0.413   6.153
 8266POPC   GL242674   5.077   0.373   6.153
 8266POPC   C1A42675   5.070   0.451   6.453
 8266POPC   D2A42676   5.046   0.427   6.753
 8266POPC   C3A42677   5.101   0.445   7.053
 8266POPC   C4A42678   5.117   0.427   7.353
 8266POPC   C1B42679   4.998   0.197   6.453
 8266POPC   C2B42680   4.989   0.264   6.753
 8266POPC   C3B42681   5.013   0.246   7.053
 8266POPC   C4B42682   4.942   0.219   7.353
 8267POPC   NC342683  32.240  25.294   5.553
 8267POPC   PO442684  32.237  25.280   5.853
 8267POPC   GL142685  32.220  25.306   6.153
 8267POPC   GL242686  32.274  25.395   6.153
 8267POPC   C1A42687  32.251  25.225   6.453
 8267POPC   D2A42688  32.221  25.268   6.753
 8267POPC   C3A42689  32.233  25.241   7.053
 8267POPC   C4A42690  32.221  25.242   7.353
 8267POPC   C1B42691  32.198  25.504   6.453
 8267POPC   C2B42692  32.175  25.536   6.753
 8267POPC   C3B42693  32.188  25.490   7.053
 8267POPC   C4B42694  32.262  25.493   7.353
 8268POPC   NC342695  15.152  38.477   5.553
 8268POPC   PO442696  15.229  38.428   5.853
 8268POPC   GL142697  15.210  38.424   6.153
 8268POPC   GL242698  15.191  38.366   6.153
 8268POPC   C1A42699  15.151  38.436   6.453
 8268POPC   D2A42700  15.152  38.484   6.753
 8268POPC   C3A42701  15.217  38.471   7.053
 8268POPC   C4A42702  15.179  38.503   7.353
 8268POPC   C1B42703  15.056  38.206   6.453
 8268POPC   C2B42704  15.064  38.219   6.753
 8268POPC   C3B42705  15.132  38.252   7.053
 8268POPC   C4B42706  15.092  38.178   7.353
 8269POPC   NC342707  23.699  10.531   5.553
 8269POPC   PO442708  23.682  10.547   5.853
 8269POPC   GL142709  23.693  10.552   6.153
 8269POPC   GL242710  23.768  10.619   6.153
 8269POPC   C1A42711  23.696  10.492   6.453
 8269POPC   D2A42712  23.727  10.525   6.753
 8269POPC   C3A42713  23.704  10.529   7.053
 8269POPC   C4A42714  23.743  10.529   7.353
 8269POPC   C1B42715  23.789  10.812   6.453
 8269POPC   C2B42716  23.799  10.733   6.753
 8269POPC   C3B42717  23.733  10.810   7.053
 8269POPC   C4B42718  23.744  10.758   7.353
 8270POPC   NC342719  40.792  36.081   5.553
 8270POPC   PO442720  40.800  36.114   5.853
 8270POPC   GL142721  40.739  36.160   6.153
 8270POPC   GL242722  40.867  36.188   6.153
 8270POPC   C1A42723  40.804  36.129   6.453
 8270POPC   D2A42724  40.791  36.096   6.753
 8270POPC   C3A42725  40.748  36.128   7.053
 8270POPC   C4A42726  40.811  36.131   7.353
 8270POPC   C1B42727  40.898  36.290   6.453
 8270POPC   C2B42728  40.923  36.308   6.753
 8270POPC   C3B42729  40.914  36.362   7.053
 8270POPC   C4B42730  40.911  36.375   7.353
 8271POPC   NC342731  27.624  43.925   5.553
 8271POPC   PO442732  27.583  43.908   5.853
 8271POPC   GL142733  27.589  43.906   6.153
 8271POPC   GL242734  27.715  43.909   6.153
 8271POPC   C1A42735  27.583  43.923   6.453
 8271POPC   D2A42736  27.625  43.916   6.753
 8271POPC   C3A42737  27.618  43.918   7.053
 8271POPC   C4A42738  27.587  43.867   7.353
 8271POPC   C1B42739  27.866  43.939   6.453
 8271POPC   C2B42740  27.859  43.921   6.753
 8271POPC   C3B42741  27.870  43.946   7.053
 8271POPC   C4B42742  27.822  43.941   7.353
 8272POPC   NC342743  32.255  24.532   5.553
 8272POPC   PO442744  32.265  24.535   5.853
 8272POPC   GL142745  32.208  24.465   6.153
 8272POPC   GL242746  32.174  24.432   6.153
 8272POPC   C1A42747  32.230  24.504   6.453
 8272POPC   D2A42748  32.279  24.516   6.753
 8272POPC   C3A42749  32.281  24.487   7.053
 8272POPC   C4A42750  32.261  24.475   7.353
 8272POPC   C1B42751  32.090  24.257   6.453
 8272POPC   C2B42752  32.098  24.327   6.753
 8272POPC   C3B42753  32.069  24.244   7.053
 8272POPC   C4B42754  32.104  24.289   7.353
 8273POPC   NC342755  43.877  31.465   5.553
 8273POPC   PO442756  43.889  31.518   5.853
 8273POPC   GL142757  43.924  31.511   6.153
 8273POPC   GL242758  43.865  31.594   6.153
 8273POPC   C1A42759  43.854  31.465   6.453
 8273POPC   D2A42760  43.848  31.505   6.753
 8273POPC   C3A42761  43.861  31.505   7.053
 8273POPC   C4A42762  43.921  31.511   7.353
 8273POPC   C1B42763  43.797  31.650   6.453
 8273POPC   C2B42764  43.789  31.657   6.753
 8273POPC   C3B42765  43.802  31.698   7.053
 8273POPC   C4B42766  43.789  31.709   7.353
 8274POPC   NC342767  15.989  29.948   5.553
 8274POPC   PO442768  15.936  29.886   5.853
 8274POPC   GL142769  15.917  29.915   6.153
 8274POPC   GL242770  15.923  29.999   6.153
 8274POPC   C1A42771  15.977  29.901   6.453
 8274POPC   D2A42772  15.940  29.899   6.753
 8274POPC   C3A42773  15.972  29.917   7.053
 8274POPC   C4A42774  15.988  29.892   7.353
 8274POPC   C1B42775  16.022  30.125   6.453
 8274POPC   C2B42776  15.983  30.192   6.753
 8274POPC   C3B42777  16.000  30.129   7.053
 8274POPC   C4B42778  15.988  30.179   7.353
 8275POPC   NC342779  22.915  42.300   5.553
 8275POPC   PO442780  22.947  42.312   5.853
 8275POPC   GL142781  22.956  42.326   6.153
 8275POPC   GL242782  22.905  42.281   6.153
 8275POPC   C1A42783  22.958  42.358   6.453
 8275POPC   D2A42784  22.976  42.366   6.753
 8275POPC   C3A42785  22.964  42.312   7.053
 8275POPC   C4A42786  22.941  42.356   7.353
 8275POPC   C1B42787  22.801  42.121   6.453
 8275POPC   C2B42788  22.763  42.106   6.753
 8275POPC   C3B42789  22.822  42.108   7.053
 8275POPC   C4B42790  22.746  42.139   7.353
 8276POPC   NC342791  19.031   5.100   5.553
 8276POPC   PO442792  19.071   5.132   5.853
 8276POPC   GL142793  19.089   5.051   6.153
 8276POPC   GL242794  19.119   4.943   6.153
 8276POPC   C1A42795  19.070   5.048   6.453
 8276POPC   D2A42796  19.031   5.052   6.753
 8276POPC   C3A42797  19.024   5.050   7.053
 8276POPC   C4A42798  19.047   5.110   7.353
 8276POPC   C1B42799  19.129   4.864   6.453
 8276POPC   C2B42800  19.115   4.860   6.753
 8276POPC   C3B42801  19.095   4.806   7.053
 8276POPC   C4B42802  19.161   4.857   7.353
 8277POPC   NC342803   5.834   0.472   5.553
 8277POPC   PO442804   5.844   0.486   5.853
 8277POPC   GL142805   5.909   0.459   6.153
 8277POPC   GL242806   5.924   0.504   6.153
 8277POPC   C1A42807   5.851   0.452   6.453
 8277POPC   D2A42808   5.907   0.484   6.753
 8277POPC   C3A42809   5.840   0.425   7.053
 8277POPC   C4A42810   5.850   0.397   7.353
 8277POPC   C1B42811   5.988   0.675   6.453
 8277POPC   C2B42812   6.006   0.644   6.753
 8277POPC   C3B42813   5.976   0.704   7.053
 8277POPC   C4B42814   5.952   0.637   7.353
 8278POPC   NC342815  20.660  14.382   5.553
 8278POPC   PO442816  20.600  14.386   5.853
 8278POPC   GL142817  20.613  14.387   6.153
 8278POPC   GL242818  20.535  14.537   6.153
 8278POPC   C1A42819  20.580  14.419   6.453
 8278POPC   D2A42820  20.568  14.408   6.753
 8278POPC   C3A42821  20.650  14.448   7.053
 8278POPC   C4A42822  20.632  14.364   7.353
 8278POPC   C1B42823  20.503  14.590   6.453
 8278POPC   C2B42824  20.499  14.583   6.753
 8278POPC   C3B42825  20.462  14.671   7.053
 8278POPC   C4B42826  20.467  14.644   7.353
 8279POPC   NC342827  11.314   5.820   5.553
 8279POPC   PO442828  11.325   5.838   5.853
 8279POPC   GL142829  11.331   5.872   6.153
 8279POPC   GL242830  11.170   5.921   6.153
 8279POPC   C1A42831  11.344   5.896   6.453
 8279POPC   D2A42832  11.270   5.855   6.753
 8279POPC   C3A42833  11.311   5.903   7.053
 8279POPC   C4A42834  11.327   5.870   7.353
 8279POPC   C1B42835  11.075   6.034   6.453
 8279POPC   C2B42836  11.152   6.072   6.753
 8279POPC   C3B42837  11.095   6.021   7.053
 8279POPC   C4B42838  11.073   6.032   7.353
 8280POPC   NC342839  32.277  33.070   5.553
 8280POPC   PO442840  32.268  33.000   5.853
 8280POPC   GL142841  32.243  33.070   6.153
 8280POPC   GL242842  32.170  33.030   6.153
 8280POPC   C1A42843  32.219  33.014   6.453
 8280POPC   D2A42844  32.285  33.032   6.753
 8280POPC   C3A42845  32.288  33.072   7.053
 8280POPC   C4A42846  32.207  32.985   7.353
 8280POPC   C1B42847  32.022  32.908   6.453
 8280POPC   C2B42848  32.050  32.970   6.753
 8280POPC   C3B42849  32.005  32.907   7.053
 8280POPC   C4B42850  31.990  32.966   7.353
 8281POPC   NC342851  31.438  44.655   5.553
 8281POPC   PO442852  31.496  44.675   5.853
 8281POPC   GL142853  31.478  44.679   6.153
 8281POPC   GL242854  31.420  44.596   6.153
 8281POPC   C1A42855  31.483  44.650   6.453
 8281POPC   D2A42856  31.501  44.667   6.753
 8281POPC   C3A42857  31.440  44.705   7.053
 8281POPC   C4A42858  31.434  44.642   7.353
 8281POPC   C1B42859  31.379  44.448   6.453
 8281POPC   C2B42860  31.343  44.463   6.753
 8281POPC   C3B42861  31.316  44.399   7.053
 8281POPC   C4B42862  31.353  44.465   7.353
 8282POPC   NC342863  21.387  24.462   5.553
 8282POPC   PO442864  21.406  24.489   5.853
 8282POPC   GL142865  21.351  24.502   6.153
 8282POPC   GL242866  21.546  24.543   6.153
 8282POPC   C1A42867  21.399  24.537   6.453
 8282POPC   D2A42868  21.405  24.456   6.753
 8282POPC   C3A42869  21.393  24.464   7.053
 8282POPC   C4A42870  21.425  24.481   7.353
 8282POPC   C1B42871  21.579  24.613   6.453
 8282POPC   C2B42872  21.617  24.604   6.753
 8282POPC   C3B42873  21.645  24.596   7.053
 8282POPC   C4B42874  21.620  24.636   7.353
 8283POPC   NC342875  19.022  32.276   5.553
 8283POPC   PO442876  19.027  32.211   5.853
 8283POPC   GL142877  19.105  32.231   6.153
 8283POPC   GL242878  19.129  32.375   6.153
 8283POPC   C1A42879  19.055  32.270   6.453
 8283POPC   D2A42880  19.082  32.218   6.753
 8283POPC   C3A42881  19.059  32.263   7.053
 8283POPC   C4A42882  19.097  32.235   7.353
 8283POPC   C1B42883  19.159  32.462   6.453
 8283POPC   C2B42884  19.091  32.459   6.753
 8283POPC   C3B42885  19.141  32.525   7.053
 8283POPC   C4B42886  19.134  32.485   7.353
 8284POPC   NC342887  23.743   8.985   5.553
 8284POPC   PO442888  23.671   8.926   5.853
 8284POPC   GL142889  23.731   9.019   6.153
 8284POPC   GL242890  23.750   9.084   6.153
 8284POPC   C1A42891  23.665   8.989   6.453
 8284POPC   D2A42892  23.738   8.975   6.753
 8284POPC   C3A42893  23.741   9.006   7.053
 8284POPC   C4A42894  23.727   8.964   7.353
 8284POPC   C1B42895  23.861   9.195   6.453
 8284POPC   C2B42896  23.837   9.183   6.753
 8284POPC   C3B42897  23.898   9.163   7.053
 8284POPC   C4B42898  23.874   9.134   7.353
 8285POPC   NC342899  34.533  22.904   5.553
 8285POPC   PO442900  34.619  22.899   5.853
 8285POPC   GL142901  34.581  22.915   6.153
 8285POPC   GL242902  34.519  22.907   6.153
 8285POPC   C1A42903  34.612  22.905   6.453
 8285POPC   D2A42904  34.576  22.964   6.753
 8285POPC   C3A42905  34.552  22.923   7.053
 8285POPC   C4A42906  34.607  22.985   7.353
 8285POPC   C1B42907  34.407  22.820   6.453
 8285POPC   C2B42908  34.406  22.813   6.753
 8285POPC   C3B42909  34.351  22.830   7.053
 8285POPC   C4B42910  34.392  22.838   7.353
 8286POPC   NC342911   8.163  26.001   5.553
 8286POPC   PO442912   8.189  26.066   5.853
 8286POPC   GL142913   8.170  26.013   6.153
 8286POPC   GL242914   8.160  25.965   6.153
 8286POPC   C1A42915   8.217  26.016   6.453
 8286POPC   D2A42916   8.212  25.996   6.753
 8286POPC   C3A42917   8.221  25.999   7.053
 8286POPC   C4A42918   8.154  26.007   7.353
 8286POPC   C1B42919   8.087  25.828   6.453
 8286POPC   C2B42920   8.073  25.848   6.753
 8286POPC   C3B42921   8.024  25.787   7.053
 8286POPC   C4B42922   8.103  25.823   7.353
 8287POPC   NC342923  35.303  36.085   5.553
 8287POPC   PO442924  35.319  36.165   5.853
 8287POPC   GL142925  35.352  36.107   6.153
 8287POPC   GL242926  35.283  36.255   6.153
 8287POPC   C1A42927  35.396  36.087   6.453
 8287POPC   D2A42928  35.400  36.172   6.753
 8287POPC   C3A42929  35.332  36.127   7.053
 8287POPC   C4A42930  35.322  36.095   7.353
 8287POPC   C1B42931  35.291  36.378   6.453
 8287POPC   C2B42932  35.273  36.390   6.753
 8287POPC   C3B42933  35.318  36.413   7.053
 8287POPC   C4B42934  35.275  36.404   7.353
 8288POPC   NC342935   3.564  26.816   5.553
 8288POPC   PO442936   3.581  26.788   5.853
 8288POPC   GL142937   3.533  26.851   6.153
 8288POPC   GL242938   3.382  26.831   6.153
 8288POPC   C1A42939   3.567  26.856   6.453
 8288POPC   D2A42940   3.504  26.796   6.753
 8288POPC   C3A42941   3.591  26.860   7.053
 8288POPC   C4A42942   3.565  26.818   7.353
 8288POPC   C1B42943   3.294  26.732   6.453
 8288POPC   C2B42944   3.328  26.726   6.753
 8288POPC   C3B42945   3.282  26.717   7.053
 8288POPC   C4B42946   3.276  26.779   7.353
 8289POPC   NC342947  38.498  11.305   5.553
 8289POPC   PO442948  38.498  11.290   5.853
 8289POPC   GL142949  38.406  11.257   6.153
 8289POPC   GL242950  38.395  11.175   6.153
 8289POPC   C1A42951  38.499  11.276   6.453
 8289POPC   D2A42952  38.429  11.268   6.753
 8289POPC   C3A42953  38.500  11.285   7.053
 8289POPC   C4A42954  38.500  11.320   7.353
 8289POPC   C1B42955  38.262  11.132   6.453
 8289POPC   C2B42956  38.255  11.149   6.753
 8289POPC   C3B42957  38.332  11.115   7.053
 8289POPC   C4B42958  38.251  11.076   7.353
 8290POPC   NC342959  30.732  29.948   5.553
 8290POPC   PO442960  30.687  29.918   5.853
 8290POPC   GL142961  30.744  29.939   6.153
 8290POPC   GL242962  30.563  29.825   6.153
 8290POPC   C1A42963  30.728  29.913   6.453
 8290POPC   D2A42964  30.657  29.872   6.753
 8290POPC   C3A42965  30.698  29.908   7.053
 8290POPC   C4A42966  30.658  29.876   7.353
 8290POPC   C1B42967  30.486  29.809   6.453
 8290POPC   C2B42968  30.521  29.738   6.753
 8290POPC   C3B42969  30.451  29.803   7.053
 8290POPC   C4B42970  30.525  29.761   7.353
 8291POPC   NC342971  10.483  34.547   5.553
 8291POPC   PO442972  10.494  34.579   5.853
 8291POPC   GL142973  10.492  34.574   6.153
 8291POPC   GL242974  10.618  34.474   6.153
 8291POPC   C1A42975  10.562  34.620   6.453
 8291POPC   D2A42976  10.554  34.606   6.753
 8291POPC   C3A42977  10.558  34.580   7.053
 8291POPC   C4A42978  10.506  34.605   7.353
 8291POPC   C1B42979  10.722  34.383   6.453
 8291POPC   C2B42980  10.731  34.397   6.753
 8291POPC   C3B42981  10.670  34.410   7.053
 8291POPC   C4B42982  10.707  34.383   7.353
 8292POPC   NC342983   9.002  25.298   5.553
 8292POPC   PO442984   9.007  25.276   5.853
 8292POPC   GL142985   8.928  25.256   6.153
 8292POPC   GL242986   9.009  25.387   6.153
 8292POPC   C1A42987   8.932  25.252   6.453
 8292POPC   D2A42988   8.945  25.274   6.753
 8292POPC   C3A42989   8.977  25.315   7.053
 8292POPC   C4A42990   8.951  25.230   7.353
 8292POPC   C1B42991   9.040  25.487   6.453
 8292POPC   C2B42992   9.086  25.486   6.753
 8292POPC   C3B42993   9.089  25.470   7.053
 8292POPC   C4B42994   9.050  25.505   7.353
 8293POPC   NC342995   4.277  29.926   5.553
 8293POPC   PO442996   4.347  29.876   5.853
 8293POPC   GL142997   4.353  29.936   6.153
 8293POPC   GL242998   4.422  29.874   6.153
 8293POPC   C1A42999   4.344  29.945   6.453
 8293POPC   D2A43000   4.311  29.956   6.753
 8293POPC   C3A43001   4.322  29.921   7.053
 8293POPC   C4A43002   4.328  29.929   7.353
 8293POPC   C1B43003   4.530  29.774   6.453
 8293POPC   C2B43004   4.534  29.774   6.753
 8293POPC   C3B43005   4.539  29.711   7.053
 8293POPC   C4B43006   4.521  29.803   7.353
 8294POPC   NC343007  29.936  16.715   5.553
 8294POPC   PO443008  29.900  16.781   5.853
 8294POPC   GL143009  29.903  16.767   6.153
 8294POPC   GL243010  29.886  16.614   6.153
 8294POPC   C1A43011  29.943  16.684   6.453
 8294POPC   D2A43012  29.890  16.758   6.753
 8294POPC   C3A43013  29.915  16.776   7.053
 8294POPC   C4A43014  29.903  16.681   7.353
 8294POPC   C1B43015  29.768  16.544   6.453
 8294POPC   C2B43016  29.769  16.531   6.753
 8294POPC   C3B43017  29.810  16.539   7.053
 8294POPC   C4B43018  29.756  16.550   7.353
 8295POPC   NC343019  13.674  12.900   5.553
 8295POPC   PO443020  13.624  12.816   5.853
 8295POPC   GL143021  13.621  12.878   6.153
 8295POPC   GL243022  13.526  12.945   6.153
 8295POPC   C1A43023  13.607  12.859   6.453
 8295POPC   D2A43024  13.672  12.832   6.753
 8295POPC   C3A43025  13.647  12.865   7.053
 8295POPC   C4A43026  13.580  12.883   7.353
 8295POPC   C1B43027  13.394  12.987   6.453
 8295POPC   C2B43028  13.397  12.979   6.753
 8295POPC   C3B43029  13.390  13.043   7.053
 8295POPC   C4B43030  13.419  13.030   7.353
 8296POPC   NC343031  35.360  12.873   5.553
 8296POPC   PO443032  35.305  12.846   5.853
 8296POPC   GL143033  35.385  12.842   6.153
 8296POPC   GL243034  35.298  12.952   6.153
 8296POPC   C1A43035  35.372  12.884   6.453
 8296POPC   D2A43036  35.321  12.851   6.753
 8296POPC   C3A43037  35.372  12.841   7.053
 8296POPC   C4A43038  35.399  12.890   7.353
 8296POPC   C1B43039  35.223  13.050   6.453
 8296POPC   C2B43040  35.236  13.047   6.753
 8296POPC   C3B43041  35.216  13.022   7.053
 8296POPC   C4B43042  35.263  13.090   7.353
 8297POPC   NC343043   6.618  38.469   5.553
 8297POPC   PO443044   6.661  38.479   5.853
 8297POPC   GL143045   6.619  38.464   6.153
 8297POPC   GL243046   6.636  38.357   6.153
 8297POPC   C1A43047   6.626  38.412   6.453
 8297POPC   D2A43048   6.686  38.412   6.753
 8297POPC   C3A43049   6.627  38.419   7.053
 8297POPC   C4A43050   6.649  38.438   7.353
 8297POPC   C1B43051   6.602  38.245   6.453
 8297POPC   C2B43052   6.597  38.260   6.753
 8297POPC   C3B43053   6.547  38.204   7.053
 8297POPC   C4B43054   6.603  38.193   7.353
 8298POPC   NC343055  23.682  36.131   5.553
 8298POPC   PO443056  23.672  36.129   5.853
 8298POPC   GL143057  23.678  36.172   6.153
 8298POPC   GL243058  23.766  36.246   6.153
 8298POPC   C1A43059  23.731  36.080   6.453
 8298POPC   D2A43060  23.736  36.148   6.753
 8298POPC   C3A43061  23.742  36.089   7.053
 8298POPC   C4A43062  23.717  36.118   7.353
 8298POPC   C1B43063  23.896  36.296   6.453
 8298POPC   C2B43064  23.864  36.377   6.753
 8298POPC   C3B43065  23.877  36.324   7.053
 8298POPC   C4B43066  23.887  36.289   7.353
 8299POPC   NC343067  23.739   5.865   5.553
 8299POPC   PO443068  23.718   5.885   5.853
 8299POPC   GL143069  23.713   5.878   6.153
 8299POPC   GL243070  23.556   5.919   6.153
 8299POPC   C1A43071  23.710   5.914   6.453
 8299POPC   D2A43072  23.676   5.823   6.753
 8299POPC   C3A43073  23.684   5.874   7.053
 8299POPC   C4A43074  23.749   5.862   7.353
 8299POPC   C1B43075  23.454   6.013   6.453
 8299POPC   C2B43076  23.443   5.950   6.753
 8299POPC   C3B43077  23.510   5.950   7.053
 8299POPC   C4B43078  23.479   6.009   7.353
 8300POPC   NC343079  33.776  17.553   5.553
 8300POPC   PO443080  33.846  17.557   5.853
 8300POPC   GL143081  33.809  17.509   6.153
 8300POPC   GL243082  33.860  17.663   6.153
 8300POPC   C1A43083  33.825  17.520   6.453
 8300POPC   D2A43084  33.825  17.510   6.753
 8300POPC   C3A43085  33.816  17.529   7.053
 8300POPC   C4A43086  33.818  17.549   7.353
 8300POPC   C1B43087  33.921  17.736   6.453
 8300POPC   C2B43088  33.925  17.678   6.753
 8300POPC   C3B43089  33.928  17.699   7.053
 8300POPC   C4B43090  33.967  17.693   7.353
 8301POPC   NC343091  40.768  29.953   5.553
 8301POPC   PO443092  40.739  29.883   5.853
 8301POPC   GL143093  40.817  29.946   6.153
 8301POPC   GL243094  40.726  29.952   6.153
 8301POPC   C1A43095  40.816  29.958   6.453
 8301POPC   D2A43096  40.757  29.887   6.753
 8301POPC   C3A43097  40.791  29.930   7.053
 8301POPC   C4A43098  40.818  29.957   7.353
 8301POPC   C1B43099  40.531  30.056   6.453
 8301POPC   C2B43100  40.601  30.040   6.753
 8301POPC   C3B43101  40.560  30.045   7.053
 8301POPC   C4B43102  40.547  30.097   7.353
 8302POPC   NC343103   5.878  22.182   5.553
 8302POPC   PO443104   5.888  22.126   5.853
 8302POPC   GL143105   5.871  22.207   6.153
 8302POPC   GL243106   5.824  22.288   6.153
 8302POPC   C1A43107   5.887  22.115   6.453
 8302POPC   D2A43108   5.891  22.192   6.753
 8302POPC   C3A43109   5.826  22.137   7.053
 8302POPC   C4A43110   5.844  22.161   7.353
 8302POPC   C1B43111   5.766  22.369   6.453
 8302POPC   C2B43112   5.708  22.321   6.753
 8302POPC   C3B43113   5.772  22.389   7.053
 8302POPC   C4B43114   5.730  22.356   7.353
 8303POPC   NC343115  32.254  29.907   5.553
 8303POPC   PO443116  32.204  29.952   5.853
 8303POPC   GL143117  32.203  29.896   6.153
 8303POPC   GL243118  32.389  29.929   6.153
 8303POPC   C1A43119  32.238  29.928   6.453
 8303POPC   D2A43120  32.251  29.894   6.753
 8303POPC   C3A43121  32.260  29.910   7.053
 8303POPC   C4A43122  32.283  29.921   7.353
 8303POPC   C1B43123  32.510  29.842   6.453
 8303POPC   C2B43124  32.462  29.871   6.753
 8303POPC   C3B43125  32.460  29.881   7.053
 8303POPC   C4B43126  32.448  29.819   7.353
 8304POPC   NC343127  33.007  13.640   5.553
 8304POPC   PO443128  33.066  13.660   5.853
 8304POPC   GL143129  33.019  13.669   6.153
 8304POPC   GL243130  33.000  13.739   6.153
 8304POPC   C1A43131  32.996  13.605   6.453
 8304POPC   D2A43132  33.028  13.643   6.753
 8304POPC   C3A43133  33.019  13.661   7.053
 8304POPC   C4A43134  33.020  13.658   7.353
 8304POPC   C1B43135  32.891  13.904   6.453
 8304POPC   C2B43136  32.946  13.884   6.753
 8304POPC   C3B43137  32.952  13.888   7.053
 8304POPC   C4B43138  32.911  13.882   7.353
 8305POPC   NC343139  12.055  19.011   5.553
 8305POPC   PO443140  12.057  19.029   5.853
 8305POPC   GL143141  12.120  19.077   6.153
 8305POPC   GL243142  12.062  19.135   6.153
 8305POPC   C1A43143  12.048  19.094   6.453
 8305POPC   D2A43144  12.058  19.073   6.753
 8305POPC   C3A43145  12.048  19.101   7.053
 8305POPC   C4A43146  12.052  19.057   7.353
 8305POPC   C1B43147  12.080  19.324   6.453
 8305POPC   C2B43148  12.052  19.302   6.753
 8305POPC   C3B43149  12.006  19.305   7.053
 8305POPC   C4B43150  12.005  19.327   7.353
 8306POPC   NC343151  29.922   1.172   5.553
 8306POPC   PO443152  29.941   1.207   5.853
 8306POPC   GL143153  29.899   1.181   6.153
 8306POPC   GL243154  29.933   1.085   6.153
 8306POPC   C1A43155  29.889   1.180   6.453
 8306POPC   D2A43156  29.953   1.193   6.753
 8306POPC   C3A43157  29.889   1.186   7.053
 8306POPC   C4A43158  29.944   1.207   7.353
 8306POPC   C1B43159  29.995   0.986   6.453
 8306POPC   C2B43160  29.981   0.968   6.753
 8306POPC   C3B43161  29.940   0.943   7.053
 8306POPC   C4B43162  29.940   0.992   7.353
 8307POPC   NC343163  43.102  33.806   5.553
 8307POPC   PO443164  43.138  33.755   5.853
 8307POPC   GL143165  43.135  33.758   6.153
 8307POPC   GL243166  43.057  33.918   6.153
 8307POPC   C1A43167  43.089  33.830   6.453
 8307POPC   D2A43168  43.123  33.846   6.753
 8307POPC   C3A43169  43.088  33.782   7.053
 8307POPC   C4A43170  43.143  33.761   7.353
 8307POPC   C1B43171  43.087  34.032   6.453
 8307POPC   C2B43172  43.003  34.015   6.753
 8307POPC   C3B43173  43.058  34.015   7.053
 8307POPC   C4B43174  43.080  34.086   7.353
 8308POPC   NC343175   8.169  36.173   5.553
 8308POPC   PO443176   8.183  36.082   5.853
 8308POPC   GL143177   8.233  36.098   6.153
 8308POPC   GL243178   8.262  36.052   6.153
 8308POPC   C1A43179   8.240  36.153   6.453
 8308POPC   D2A43180   8.240  36.134   6.753
 8308POPC   C3A43181   8.194  36.087   7.053
 8308POPC   C4A43182   8.225  36.134   7.353
 8308POPC   C1B43183   8.415  36.001   6.453
 8308POPC   C2B43184   8.440  35.953   6.753
 8308POPC   C3B43185   8.348  36.016   7.053
 8308POPC   C4B43186   8.401  36.021   7.353
 8309POPC   NC343187  42.344  23.681   5.553
 8309POPC   PO443188  42.353  23.756   5.853
 8309POPC   GL143189  42.340  23.697   6.153
 8309POPC   GL243190  42.458  23.625   6.153
 8309POPC   C1A43191  42.372  23.704   6.453
 8309POPC   D2A43192  42.313  23.757   6.753
 8309POPC   C3A43193  42.295  23.665   7.053
 8309POPC   C4A43194  42.297  23.726   7.353
 8309POPC   C1B43195  42.550  23.626   6.453
 8309POPC   C2B43196  42.608  23.603   6.753
 8309POPC   C3B43197  42.591  23.622   7.053
 8309POPC   C4B43198  42.569  23.594   7.353
 8310POPC   NC343199  12.114  16.693   5.553
 8310POPC   PO443200  12.105  16.780   5.853
 8310POPC   GL143201  12.098  16.718   6.153
 8310POPC   GL243202  12.182  16.853   6.153
 8310POPC   C1A43203  12.109  16.723   6.453
 8310POPC   D2A43204  12.034  16.684   6.753
 8310POPC   C3A43205  12.051  16.716   7.053
 8310POPC   C4A43206  12.105  16.758   7.353
 8310POPC   C1B43207  12.248  16.895   6.453
 8310POPC   C2B43208  12.183  16.974   6.753
 8310POPC   C3B43209  12.208  16.887   7.053
 8310POPC   C4B43210  12.215  16.937   7.353
 8311POPC   NC343211  17.476  20.626   5.553
 8311POPC   PO443212  17.531  20.644   5.853
 8311POPC   GL143213  17.490  20.624   6.153
 8311POPC   GL243214  17.413  20.621   6.153
 8311POPC   C1A43215  17.496  20.624   6.453
 8311POPC   D2A43216  17.519  20.643   6.753
 8311POPC   C3A43217  17.459  20.609   7.053
 8311POPC   C4A43218  17.516  20.580   7.353
 8311POPC   C1B43219  17.216  20.675   6.453
 8311POPC   C2B43220  17.274  20.639   6.753
 8311POPC   C3B43221  17.249  20.658   7.053
 8311POPC   C4B43222  17.247  20.645   7.353
 8312POPC   NC343223   2.716  37.654   5.553
 8312POPC   PO443224   2.798  37.679   5.853
 8312POPC   GL143225   2.724  37.719   6.153
 8312POPC   GL243226   2.827  37.725   6.153
 8312POPC   C1A43227   2.810  37.640   6.453
 8312POPC   D2A43228   2.722  37.633   6.753
 8312POPC   C3A43229   2.730  37.697   7.053
 8312POPC   C4A43230   2.766  37.659   7.353
 8312POPC   C1B43231   2.985  37.880   6.453
 8312POPC   C2B43232   2.965  37.800   6.753
 8312POPC   C3B43233   2.936  37.792   7.053
 8312POPC   C4B43234   2.994  37.784   7.353
 8313POPC   NC343235  27.622   2.767   5.553
 8313POPC   PO443236  27.632   2.723   5.853
 8313POPC   GL143237  27.561   2.809   6.153
 8313POPC   GL243238  27.654   2.720   6.153
 8313POPC   C1A43239  27.580   2.796   6.453
 8313POPC   D2A43240  27.546   2.727   6.753
 8313POPC   C3A43241  27.601   2.800   7.053
 8313POPC   C4A43242  27.618   2.744   7.353
 8313POPC   C1B43243  27.780   2.679   6.453
 8313POPC   C2B43244  27.773   2.666   6.753
 8313POPC   C3B43245  27.802   2.650   7.053
 8313POPC   C4B43246  27.848   2.665   7.353
 8314POPC   NC343247  27.560  40.046   5.553
 8314POPC   PO443248  27.555  39.992   5.853
 8314POPC   GL143249  27.557  39.979   6.153
 8314POPC   GL243250  27.580  40.122   6.153
 8314POPC   C1A43251  27.602  40.050   6.453
 8314POPC   D2A43252  27.620  39.978   6.753
 8314POPC   C3A43253  27.565  39.981   7.053
 8314POPC   C4A43254  27.596  40.033   7.353
 8314POPC   C1B43255  27.444  40.224   6.453
 8314POPC   C2B43256  27.447  40.264   6.753
 8314POPC   C3B43257  27.461  40.273   7.053
 8314POPC   C4B43258  27.448  40.252   7.353
 8315POPC   NC343259  12.901  19.022   5.553
 8315POPC   PO443260  12.809  19.072   5.853
 8315POPC   GL143261  12.855  19.023   6.153
 8315POPC   GL243262  12.972  19.127   6.153
 8315POPC   C1A43263  12.856  19.063   6.453
 8315POPC   D2A43264  12.836  19.063   6.753
 8315POPC   C3A43265  12.807  19.036   7.053
 8315POPC   C4A43266  12.811  19.088   7.353
 8315POPC   C1B43267  13.006  19.297   6.453
 8315POPC   C2B43268  13.061  19.275   6.753
 8315POPC   C3B43269  13.031  19.213   7.053
 8315POPC   C4B43270  13.044  19.251   7.353
 8316POPC   NC343271   1.181   9.738   5.553
 8316POPC   PO443272   1.251   9.779   5.853
 8316POPC   GL143273   1.192   9.785   6.153
 8316POPC   GL243274   1.140   9.816   6.153
 8316POPC   C1A43275   1.203   9.764   6.453
 8316POPC   D2A43276   1.261   9.748   6.753
 8316POPC   C3A43277   1.215   9.724   7.053
 8316POPC   C4A43278   1.259   9.763   7.353
 8316POPC   C1B43279   1.106  10.015   6.453
 8316POPC   C2B43280   1.082   9.931   6.753
 8316POPC   C3B43281   1.151   9.947   7.053
 8316POPC   C4B43282   1.155   9.977   7.353
 8317POPC   NC343283  29.118  36.920   5.553
 8317POPC   PO443284  29.180  36.948   5.853
 8317POPC   GL143285  29.190  36.906   6.153
 8317POPC   GL243286  29.051  36.999   6.153
 8317POPC   C1A43287  29.188  36.866   6.453
 8317POPC   D2A43288  29.107  36.859   6.753
 8317POPC   C3A43289  29.175  36.940   7.053
 8317POPC   C4A43290  29.140  36.912   7.353
 8317POPC   C1B43291  29.040  37.109   6.453
 8317POPC   C2B43292  29.063  37.159   6.753
 8317POPC   C3B43293  29.055  37.137   7.053
 8317POPC   C4B43294  29.002  37.143   7.353
 8318POPC   NC343295  25.225   3.525   5.553
 8318POPC   PO443296  25.303   3.568   5.853
 8318POPC   GL143297  25.311   3.572   6.153
 8318POPC   GL243298  25.225   3.700   6.153
 8318POPC   C1A43299  25.277   3.586   6.453
 8318POPC   D2A43300  25.249   3.532   6.753
 8318POPC   C3A43301  25.255   3.553   7.053
 8318POPC   C4A43302  25.239   3.518   7.353
 8318POPC   C1B43303  25.143   3.741   6.453
 8318POPC   C2B43304  25.138   3.730   6.753
 8318POPC   C3B43305  25.215   3.818   7.053
 8318POPC   C4B43306  25.130   3.773   7.353
 8319POPC   NC343307   2.789  19.851   5.553
 8319POPC   PO443308   2.750  19.841   5.853
 8319POPC   GL143309   2.802  19.796   6.153
 8319POPC   GL243310   2.778  19.697   6.153
 8319POPC   C1A43311   2.728  19.790   6.453
 8319POPC   D2A43312   2.815  19.833   6.753
 8319POPC   C3A43313   2.731  19.837   7.053
 8319POPC   C4A43314   2.771  19.800   7.353
 8319POPC   C1B43315   2.775  19.628   6.453
 8319POPC   C2B43316   2.777  19.634   6.753
 8319POPC   C3B43317   2.802  19.552   7.053
 8319POPC   C4B43318   2.772  19.605   7.353
 8320POPC   NC343319   9.787  30.662   5.553
 8320POPC   PO443320   9.701  30.715   5.853
 8320POPC   GL143321   9.749  30.673   6.153
 8320POPC   GL243322   9.840  30.637   6.153
 8320POPC   C1A43323   9.711  30.658   6.453
 8320POPC   D2A43324   9.774  30.709   6.753
 8320POPC   C3A43325   9.706  30.701   7.053
 8320POPC   C4A43326   9.782  30.673   7.353
 8320POPC   C1B43327  10.027  30.649   6.453
 8320POPC   C2B43328   9.955  30.572   6.753
 8320POPC   C3B43329  10.022  30.649   7.053
 8320POPC   C4B43330   9.940  30.601   7.353
 8321POPC   NC343331   9.775  19.884   5.553
 8321POPC   PO443332   9.771  19.867   5.853
 8321POPC   GL143333   9.792  19.810   6.153
 8321POPC   GL243334   9.776  19.727   6.153
 8321POPC   C1A43335   9.722  19.798   6.453
 8321POPC   D2A43336   9.724  19.806   6.753
 8321POPC   C3A43337   9.749  19.831   7.053
 8321POPC   C4A43338   9.786  19.818   7.353
 8321POPC   C1B43339   9.875  19.614   6.453
 8321POPC   C2B43340   9.839  19.549   6.753
 8321POPC   C3B43341   9.855  19.561   7.053
 8321POPC   C4B43342   9.803  19.641   7.353
 8322POPC   NC343343  18.255  29.942   5.553
 8322POPC   PO443344  18.244  29.944   5.853
 8322POPC   GL143345  18.303  29.899   6.153
 8322POPC   GL243346  18.187  29.848   6.153
 8322POPC   C1A43347  18.239  29.898   6.453
 8322POPC   D2A43348  18.243  29.872   6.753
 8322POPC   C3A43349  18.319  29.898   7.053
 8322POPC   C4A43350  18.301  29.947   7.353
 8322POPC   C1B43351  18.151  29.700   6.453
 8322POPC   C2B43352  18.124  29.785   6.753
 8322POPC   C3B43353  18.100  29.742   7.053
 8322POPC   C4B43354  18.097  29.750   7.353
 8323POPC   NC343355   4.304  25.247   5.553
 8323POPC   PO443356   4.289  25.309   5.853
 8323POPC   GL143357   4.313  25.217   6.153
 8323POPC   GL243358   4.356  25.371   6.153
 8323POPC   C1A43359   4.334  25.291   6.453
 8323POPC   D2A43360   4.279  25.283   6.753
 8323POPC   C3A43361   4.305  25.231   7.053
 8323POPC   C4A43362   4.359  25.231   7.353
 8323POPC   C1B43363   4.465  25.451   6.453
 8323POPC   C2B43364   4.503  25.476   6.753
 8323POPC   C3B43365   4.472  25.479   7.053
 8323POPC   C4B43366   4.516  25.464   7.353
 8324POPC   NC343367   5.840  40.811   5.553
 8324POPC   PO443368   5.848  40.741   5.853
 8324POPC   GL143369   5.845  40.769   6.153
 8324POPC   GL243370   5.772  40.784   6.153
 8324POPC   C1A43371   5.906  40.814   6.453
 8324POPC   D2A43372   5.836  40.811   6.753
 8324POPC   C3A43373   5.866  40.828   7.053
 8324POPC   C4A43374   5.879  40.751   7.353
 8324POPC   C1B43375   5.622  40.689   6.453
 8324POPC   C2B43376   5.602  40.668   6.753
 8324POPC   C3B43377   5.618  40.711   7.053
 8324POPC   C4B43378   5.627  40.702   7.353
 8325POPC   NC343379  29.150  24.442   5.553
 8325POPC   PO443380  29.132  24.453   5.853
 8325POPC   GL143381  29.097  24.499   6.153
 8325POPC   GL243382  29.096  24.635   6.153
 8325POPC   C1A43383  29.115  24.463   6.453
 8325POPC   D2A43384  29.114  24.483   6.753
 8325POPC   C3A43385  29.192  24.522   7.053
 8325POPC   C4A43386  29.106  24.452   7.353
 8325POPC   C1B43387  29.080  24.714   6.453
 8325POPC   C2B43388  29.059  24.700   6.753
 8325POPC   C3B43389  29.095  24.742   7.053
 8325POPC   C4B43390  29.078  24.710   7.353
 8326POPC   NC343391  19.086  42.324   5.553
 8326POPC   PO443392  19.055  42.308   5.853
 8326POPC   GL143393  19.075  42.348   6.153
 8326POPC   GL243394  19.109  42.449   6.153
 8326POPC   C1A43395  19.028  42.337   6.453
 8326POPC   D2A43396  19.086  42.306   6.753
 8326POPC   C3A43397  19.076  42.321   7.053
 8326POPC   C4A43398  19.077  42.306   7.353
 8326POPC   C1B43399  19.138  42.537   6.453
 8326POPC   C2B43400  19.161  42.521   6.753
 8326POPC   C3B43401  19.157  42.546   7.053
 8326POPC   C4B43402  19.172  42.531   7.353
 8327POPC   NC343403  26.036  43.120   5.553
 8327POPC   PO443404  26.035  43.151   5.853
 8327POPC   GL143405  26.071  43.078   6.153
 8327POPC   GL243406  26.004  43.241   6.153
 8327POPC   C1A43407  26.087  43.108   6.453
 8327POPC   D2A43408  26.077  43.135   6.753
 8327POPC   C3A43409  26.019  43.119   7.053
 8327POPC   C4A43410  26.063  43.149   7.353
 8327POPC   C1B43411  25.992  43.381   6.453
 8327POPC   C2B43412  26.066  43.341   6.753
 8327POPC   C3B43413  26.010  43.388   7.053
 8327POPC   C4B43414  26.005  43.351   7.353
 8328POPC   NC343415  26.826  13.654   5.553
 8328POPC   PO443416  26.774  13.659   5.853
 8328POPC   GL143417  26.845  13.587   6.153
 8328POPC   GL243418  26.820  13.493   6.153
 8328POPC   C1A43419  26.799  13.677   6.453
 8328POPC   D2A43420  26.770  13.589   6.753
 8328POPC   C3A43421  26.789  13.648   7.053
 8328POPC   C4A43422  26.822  13.578   7.353
 8328POPC   C1B43423  26.778  13.427   6.453
 8328POPC   C2B43424  26.782  13.379   6.753
 8328POPC   C3B43425  26.819  13.361   7.053
 8328POPC   C4B43426  26.864  13.392   7.353
 8329POPC   NC343427  35.400   5.828   5.553
 8329POPC   PO443428  35.343   5.847   5.853
 8329POPC   GL143429  35.320   5.856   6.153
 8329POPC   GL243430  35.259   5.919   6.153
 8329POPC   C1A43431  35.327   5.838   6.453
 8329POPC   D2A43432  35.388   5.885   6.753
 8329POPC   C3A43433  35.336   5.855   7.053
 8329POPC   C4A43434  35.302   5.874   7.353
 8329POPC   C1B43435  35.162   5.981   6.453
 8329POPC   C2B43436  35.129   6.031   6.753
 8329POPC   C3B43437  35.156   6.016   7.053
 8329POPC   C4B43438  35.167   5.980   7.353
 8330POPC   NC343439  40.796   0.447   5.553
 8330POPC   PO443440  40.771   0.407   5.853
 8330POPC   GL143441  40.794   0.467   6.153
 8330POPC   GL243442  40.741   0.280   6.153
 8330POPC   C1A43443  40.826   0.441   6.453
 8330POPC   D2A43444  40.754   0.479   6.753
 8330POPC   C3A43445  40.832   0.454   7.053
 8330POPC   C4A43446  40.785   0.459   7.353
 8330POPC   C1B43447  40.789   0.212   6.453
 8330POPC   C2B43448  40.762   0.144   6.753
 8330POPC   C3B43449  40.712   0.163   7.053
 8330POPC   C4B43450  40.776   0.215   7.353
 8331POPC   NC343451  22.953  15.214   5.553
 8331POPC   PO443452  22.906  15.148   5.853
 8331POPC   GL143453  22.907  15.219   6.153
 8331POPC   GL243454  23.007  15.140   6.153
 8331POPC   C1A43455  22.920  15.169   6.453
 8331POPC   D2A43456  22.889  15.156   6.753
 8331POPC   C3A43457  22.902  15.145   7.053
 8331POPC   C4A43458  22.933  15.168   7.353
 8331POPC   C1B43459  23.180  15.048   6.453
 8331POPC   C2B43460  23.120  15.053   6.753
 8331POPC   C3B43461  23.215  15.063   7.053
 8331POPC   C4B43462  23.211  15.115   7.353
 8332POPC   NC343463  33.835  14.393   5.553
 8332POPC   PO443464  33.822  14.364   5.853
 8332POPC   GL143465  33.752  14.368   6.153
 8332POPC   GL243466  33.957  14.404   6.153
 8332POPC   C1A43467  33.820  14.376   6.453
 8332POPC   D2A43468  33.834  14.391   6.753
 8332POPC   C3A43469  33.839  14.442   7.053
 8332POPC   C4A43470  33.820  14.401   7.353
 8332POPC   C1B43471  34.020  14.397   6.453
 8332POPC   C2B43472  34.016  14.353   6.753
 8332POPC   C3B43473  34.061  14.415   7.053
 8332POPC   C4B43474  34.017  14.429   7.353
 8333POPC   NC343475  36.118   8.240   5.553
 8333POPC   PO443476  36.133   8.208   5.853
 8333POPC   GL143477  36.160   8.220   6.153
 8333POPC   GL243478  36.023   8.220   6.153
 8333POPC   C1A43479  36.122   8.181   6.453
 8333POPC   D2A43480  36.178   8.188   6.753
 8333POPC   C3A43481  36.157   8.155   7.053
 8333POPC   C4A43482  36.139   8.159   7.353
 8333POPC   C1B43483  35.933   8.362   6.453
 8333POPC   C2B43484  35.915   8.327   6.753
 8333POPC   C3B43485  35.885   8.297   7.053
 8333POPC   C4B43486  35.942   8.278   7.353
 8334POPC   NC343487  27.553  17.541   5.553
 8334POPC   PO443488  27.568  17.502   5.853
 8334POPC   GL143489  27.576  17.533   6.153
 8334POPC   GL243490  27.656  17.618   6.153
 8334POPC   C1A43491  27.623  17.529   6.453
 8334POPC   D2A43492  27.583  17.545   6.753
 8334POPC   C3A43493  27.571  17.553   7.053
 8334POPC   C4A43494  27.628  17.504   7.353
 8334POPC   C1B43495  27.679  17.766   6.453
 8334POPC   C2B43496  27.666  17.763   6.753
 8334POPC   C3B43497  27.689  17.733   7.053
 8334POPC   C4B43498  27.667  17.698   7.353
 8335POPC   NC343499   2.784  39.995   5.553
 8335POPC   PO443500   2.798  40.016   5.853
 8335POPC   GL143501   2.808  40.003   6.153
 8335POPC   GL243502   2.820  40.052   6.153
 8335POPC   C1A43503   2.741  40.032   6.453
 8335POPC   D2A43504   2.720  39.981   6.753
 8335POPC   C3A43505   2.720  39.992   7.053
 8335POPC   C4A43506   2.808  39.959   7.353
 8335POPC   C1B43507   2.925  40.121   6.453
 8335POPC   C2B43508   2.990  40.213   6.753
 8335POPC   C3B43509   2.961  40.175   7.053
 8335POPC   C4B43510   2.936  40.152   7.353
 8336POPC   NC343511  42.376  33.763   5.553
 8336POPC   PO443512  42.295  33.790   5.853
 8336POPC   GL143513  42.296  33.843   6.153
 8336POPC   GL243514  42.224  33.772   6.153
 8336POPC   C1A43515  42.296  33.796   6.453
 8336POPC   D2A43516  42.289  33.827   6.753
 8336POPC   C3A43517  42.334  33.821   7.053
 8336POPC   C4A43518  42.380  33.811   7.353
 8336POPC   C1B43519  42.109  33.806   6.453
 8336POPC   C2B43520  42.126  33.795   6.753
 8336POPC   C3B43521  42.039  33.846   7.053
 8336POPC   C4B43522  42.079  33.840   7.353
 8337POPC   NC343523   2.779  31.471   5.553
 8337POPC   PO443524   2.726  31.481   5.853
 8337POPC   GL143525   2.774  31.477   6.153
 8337POPC   GL243526   2.764  31.333   6.153
 8337POPC   C1A43527   2.728  31.513   6.453
 8337POPC   D2A43528   2.803  31.491   6.753
 8337POPC   C3A43529   2.757  31.439   7.053
 8337POPC   C4A43530   2.807  31.503   7.353
 8337POPC   C1B43531   2.779  31.254   6.453
 8337POPC   C2B43532   2.786  31.225   6.753
 8337POPC   C3B43533   2.819  31.267   7.053
 8337POPC   C4B43534   2.757  31.241   7.353
 8338POPC   NC343535  10.571   5.046   5.553
 8338POPC   PO443536  10.513   5.126   5.853
 8338POPC   GL143537  10.525   5.118   6.153
 8338POPC   GL243538  10.473   4.982   6.153
 8338POPC   C1A43539  10.570   5.087   6.453
 8338POPC   D2A43540  10.511   5.138   6.753
 8338POPC   C3A43541  10.505   5.066   7.053
 8338POPC   C4A43542  10.507   5.044   7.353
 8338POPC   C1B43543  10.378   4.885   6.453
 8338POPC   C2B43544  10.307   4.933   6.753
 8338POPC   C3B43545  10.322   4.903   7.053
 8338POPC   C4B43546  10.318   4.890   7.353
 8339POPC   NC343547  28.334  36.103   5.553
 8339POPC   PO443548  28.336  36.083   5.853
 8339POPC   GL143549  28.367  36.107   6.153
 8339POPC   GL243550  28.470  36.126   6.153
 8339POPC   C1A43551  28.391  36.138   6.453
 8339POPC   D2A43552  28.417  36.137   6.753
 8339POPC   C3A43553  28.353  36.089   7.053
 8339POPC   C4A43554  28.385  36.158   7.353
 8339POPC   C1B43555  28.610  36.118   6.453
 8339POPC   C2B43556  28.574  36.137   6.753
 8339POPC   C3B43557  28.667  36.098   7.053
 8339POPC   C4B43558  28.650  36.128   7.353
 8340POPC   NC343559  35.337  26.793   5.553
 8340POPC   PO443560  35.324  26.791   5.853
 8340POPC   GL143561  35.390  26.785   6.153
 8340POPC   GL243562  35.252  26.831   6.153
 8340POPC   C1A43563  35.330  26.789   6.453
 8340POPC   D2A43564  35.394  26.862   6.753
 8340POPC   C3A43565  35.387  26.863   7.053
 8340POPC   C4A43566  35.363  26.784   7.353
 8340POPC   C1B43567  35.072  26.923   6.453
 8340POPC   C2B43568  35.074  26.854   6.753
 8340POPC   C3B43569  35.134  26.833   7.053
 8340POPC   C4B43570  35.156  26.844   7.353
 8341POPC   NC343571   4.359  13.608   5.553
 8341POPC   PO443572   4.272  13.613   5.853
 8341POPC   GL143573   4.280  13.582   6.153
 8341POPC   GL243574   4.225  13.565   6.153
 8341POPC   C1A43575   4.360  13.667   6.453
 8341POPC   D2A43576   4.329  13.590   6.753
 8341POPC   C3A43577   4.360  13.649   7.053
 8341POPC   C4A43578   4.297  13.629   7.353
 8341POPC   C1B43579   4.212  13.355   6.453
 8341POPC   C2B43580   4.181  13.394   6.753
 8341POPC   C3B43581   4.224  13.424   7.053
 8341POPC   C4B43582   4.158  13.378   7.353
 8342POPC   NC343583  17.467  11.297   5.553
 8342POPC   PO443584  17.465  11.289   5.853
 8342POPC   GL143585  17.470  11.301   6.153
 8342POPC   GL243586  17.533  11.441   6.153
 8342POPC   C1A43587  17.493  11.282   6.453
 8342POPC   D2A43588  17.516  11.291   6.753
 8342POPC   C3A43589  17.479  11.252   7.053
 8342POPC   C4A43590  17.462  11.275   7.353
 8342POPC   C1B43591  17.496  11.587   6.453
 8342POPC   C2B43592  17.546  11.584   6.753
 8342POPC   C3B43593  17.503  11.540   7.053
 8342POPC   C4B43594  17.530  11.581   7.353
 8343POPC   NC343595  19.093  41.535   5.553
 8343POPC   PO443596  19.041  41.557   5.853
 8343POPC   GL143597  19.079  41.548   6.153
 8343POPC   GL243598  19.180  41.686   6.153
 8343POPC   C1A43599  19.080  41.571   6.453
 8343POPC   D2A43600  19.057  41.606   6.753
 8343POPC   C3A43601  19.080  41.558   7.053
 8343POPC   C4A43602  19.067  41.557   7.353
 8343POPC   C1B43603  19.244  41.739   6.453
 8343POPC   C2B43604  19.219  41.706   6.753
 8343POPC   C3B43605  19.254  41.703   7.053
 8343POPC   C4B43606  19.247  41.681   7.353
 8344POPC   NC343607  29.134  41.560   5.553
 8344POPC   PO443608  29.182  41.584   5.853
 8344POPC   GL143609  29.149  41.511   6.153
 8344POPC   GL243610  29.083  41.621   6.153
 8344POPC   C1A43611  29.107  41.530   6.453
 8344POPC   D2A43612  29.157  41.602   6.753
 8344POPC   C3A43613  29.121  41.589   7.053
 8344POPC   C4A43614  29.108  41.584   7.353
 8344POPC   C1B43615  28.952  41.759   6.453
 8344POPC   C2B43616  28.944  41.798   6.753
 8344POPC   C3B43617  28.968  41.764   7.053
 8344POPC   C4B43618  28.946  41.773   7.353
 8345POPC   NC343619   7.382   7.398   5.553
 8345POPC   PO443620   7.422   7.443   5.853
 8345POPC   GL143621   7.461   7.469   6.153
 8345POPC   GL243622   7.510   7.516   6.153
 8345POPC   C1A43623   7.436   7.378   6.453
 8345POPC   D2A43624   7.452   7.409   6.753
 8345POPC   C3A43625   7.413   7.454   7.053
 8345POPC   C4A43626   7.390   7.408   7.353
 8345POPC   C1B43627   7.689   7.493   6.453
 8345POPC   C2B43628   7.601   7.553   6.753
 8345POPC   C3B43629   7.654   7.496   7.053
 8345POPC   C4B43630   7.638   7.538   7.353
 8346POPC   NC343631  19.813  14.361   5.553
 8346POPC   PO443632  19.882  14.369   5.853
 8346POPC   GL143633  19.811  14.362   6.153
 8346POPC   GL243634  19.674  14.471   6.153
 8346POPC   C1A43635  19.818  14.412   6.453
 8346POPC   D2A43636  19.802  14.452   6.753
 8346POPC   C3A43637  19.816  14.373   7.053
 8346POPC   C4A43638  19.877  14.394   7.353
 8346POPC   C1B43639  19.547  14.508   6.453
 8346POPC   C2B43640  19.637  14.522   6.753
 8346POPC   C3B43641  19.601  14.435   7.053
 8346POPC   C4B43642  19.547  14.452   7.353
 8347POPC   NC343643  27.547  35.331   5.553
 8347POPC   PO443644  27.559  35.381   5.853
 8347POPC   GL143645  27.561  35.395   6.153
 8347POPC   GL243646  27.552  35.196   6.153
 8347POPC   C1A43647  27.602  35.396   6.453
 8347POPC   D2A43648  27.640  35.324   6.753
 8347POPC   C3A43649  27.597  35.371   7.053
 8347POPC   C4A43650  27.623  35.361   7.353
 8347POPC   C1B43651  27.550  35.094   6.453
 8347POPC   C2B43652  27.532  35.096   6.753
 8347POPC   C3B43653  27.493  35.114   7.053
 8347POPC   C4B43654  27.557  35.141   7.353
 8348POPC   NC343655  29.930  32.221   5.553
 8348POPC   PO443656  29.959  32.203   5.853
 8348POPC   GL143657  29.882  32.260   6.153
 8348POPC   GL243658  29.799  32.274   6.153
 8348POPC   C1A43659  29.967  32.279   6.453
 8348POPC   D2A43660  29.928  32.273   6.753
 8348POPC   C3A43661  29.887  32.294   7.053
 8348POPC   C4A43662  29.881  32.238   7.353
 8348POPC   C1B43663  29.727  32.376   6.453
 8348POPC   C2B43664  29.741  32.376   6.753
 8348POPC   C3B43665  29.757  32.424   7.053
 8348POPC   C4B43666  29.750  32.402   7.353
 8349POPC   NC343667   6.606   1.976   5.553
 8349POPC   PO443668   6.606   2.006   5.853
 8349POPC   GL143669   6.607   1.952   6.153
 8349POPC   GL243670   6.662   1.831   6.153
 8349POPC   C1A43671   6.686   1.957   6.453
 8349POPC   D2A43672   6.625   1.963   6.753
 8349POPC   C3A43673   6.688   2.034   7.053
 8349POPC   C4A43674   6.647   1.961   7.353
 8349POPC   C1B43675   6.581   1.706   6.453
 8349POPC   C2B43676   6.558   1.697   6.753
 8349POPC   C3B43677   6.570   1.753   7.053
 8349POPC   C4B43678   6.563   1.750   7.353
 8350POPC   NC343679   8.182  44.632   5.553
 8350POPC   PO443680   8.147  44.671   5.853
 8350POPC   GL143681   8.240  44.636   6.153
 8350POPC   GL243682   8.206  44.588   6.153
 8350POPC   C1A43683   8.240  44.644   6.453
 8350POPC   D2A43684   8.193  44.661   6.753
 8350POPC   C3A43685   8.156  44.657   7.053
 8350POPC   C4A43686   8.213  44.708   7.353
 8350POPC   C1B43687   8.348  44.432   6.453
 8350POPC   C2B43688   8.319  44.478   6.753
 8350POPC   C3B43689   8.258  44.446   7.053
 8350POPC   C4B43690   8.336  44.411   7.353
 8351POPC   NC343691  35.386  22.161   5.553
 8351POPC   PO443692  35.394  22.158   5.853
 8351POPC   GL143693  35.335  22.197   6.153
 8351POPC   GL243694  35.224  22.108   6.153
 8351POPC   C1A43695  35.336  22.193   6.453
 8351POPC   D2A43696  35.335  22.191   6.753
 8351POPC   C3A43697  35.380  22.181   7.053
 8351POPC   C4A43698  35.369  22.125   7.353
 8351POPC   C1B43699  35.210  22.017   6.453
 8351POPC   C2B43700  35.232  22.013   6.753
 8351POPC   C3B43701  35.228  21.998   7.053
 8351POPC   C4B43702  35.204  21.976   7.353
 8352POPC   NC343703  37.688  35.368   5.553
 8352POPC   PO443704  37.726  35.334   5.853
 8352POPC   GL143705  37.714  35.308   6.153
 8352POPC   GL243706  37.582  35.455   6.153
 8352POPC   C1A43707  37.690  35.334   6.453
 8352POPC   D2A43708  37.641  35.319   6.753
 8352POPC   C3A43709  37.711  35.323   7.053
 8352POPC   C4A43710  37.649  35.398   7.353
 8352POPC   C1B43711  37.510  35.568   6.453
 8352POPC   C2B43712  37.592  35.594   6.753
 8352POPC   C3B43713  37.506  35.540   7.053
 8352POPC   C4B43714  37.557  35.540   7.353
 8353POPC   NC343715  22.176  22.988   5.553
 8353POPC   PO443716  22.146  22.905   5.853
 8353POPC   GL143717  22.178  22.982   6.153
 8353POPC   GL243718  22.003  22.912   6.153
 8353POPC   C1A43719  22.170  22.951   6.453
 8353POPC   D2A43720  22.117  22.896   6.753
 8353POPC   C3A43721  22.159  22.937   7.053
 8353POPC   C4A43722  22.163  22.898   7.353
 8353POPC   C1B43723  21.935  22.832   6.453
 8353POPC   C2B43724  21.901  22.852   6.753
 8353POPC   C3B43725  21.971  22.773   7.053
 8353POPC   C4B43726  21.952  22.811   7.353
 8354POPC   NC343727  35.390  34.601   5.553
 8354POPC   PO443728  35.313  34.601   5.853
 8354POPC   GL143729  35.347  34.579   6.153
 8354POPC   GL243730  35.368  34.465   6.153
 8354POPC   C1A43731  35.324  34.568   6.453
 8354POPC   D2A43732  35.350  34.588   6.753
 8354POPC   C3A43733  35.362  34.561   7.053
 8354POPC   C4A43734  35.378  34.622   7.353
 8354POPC   C1B43735  35.462  34.375   6.453
 8354POPC   C2B43736  35.438  34.391   6.753
 8354POPC   C3B43737  35.442  34.370   7.053
 8354POPC   C4B43738  35.499  34.395   7.353
 8355POPC   NC343739  20.631  42.286   5.553
 8355POPC   PO443740  20.647  42.320   5.853
 8355POPC   GL143741  20.577  42.310   6.153
 8355POPC   GL243742  20.752  42.274   6.153
 8355POPC   C1A43743  20.571  42.290   6.453
 8355POPC   D2A43744  20.604  42.333   6.753
 8355POPC   C3A43745  20.603  42.358   7.053
 8355POPC   C4A43746  20.619  42.320   7.353
 8355POPC   C1B43747  20.863  42.182   6.453
 8355POPC   C2B43748  20.839  42.181   6.753
 8355POPC   C3B43749  20.810  42.236   7.053
 8355POPC   C4B43750  20.812  42.228   7.353
 8356POPC   NC343751  31.456  43.864   5.553
 8356POPC   PO443752  31.472  43.902   5.853
 8356POPC   GL143753  31.426  43.893   6.153
 8356POPC   GL243754  31.448  43.765   6.153
 8356POPC   C1A43755  31.460  43.852   6.453
 8356POPC   D2A43756  31.430  43.865   6.753
 8356POPC   C3A43757  31.429  43.863   7.053
 8356POPC   C4A43758  31.492  43.852   7.353
 8356POPC   C1B43759  31.333  43.676   6.453
 8356POPC   C2B43760  31.334  43.692   6.753
 8356POPC   C3B43761  31.384  43.675   7.053
 8356POPC   C4B43762  31.378  43.628   7.353
 8357POPC   NC343763   7.406  21.379   5.553
 8357POPC   PO443764   7.398  21.342   5.853
 8357POPC   GL143765   7.469  21.417   6.153
 8357POPC   GL243766   7.410  21.243   6.153
 8357POPC   C1A43767   7.380  21.385   6.453
 8357POPC   D2A43768   7.404  21.373   6.753
 8357POPC   C3A43769   7.403  21.435   7.053
 8357POPC   C4A43770   7.425  21.341   7.353
 8357POPC   C1B43771   7.438  21.093   6.453
 8357POPC   C2B43772   7.438  21.122   6.753
 8357POPC   C3B43773   7.484  21.090   7.053
 8357POPC   C4B43774   7.450  21.145   7.353
 8358POPC   NC343775  43.114  20.613   5.553
 8358POPC   PO443776  43.120  20.656   5.853
 8358POPC   GL143777  43.125  20.575   6.153
 8358POPC   GL243778  43.105  20.493   6.153
 8358POPC   C1A43779  43.082  20.651   6.453
 8358POPC   D2A43780  43.101  20.654   6.753
 8358POPC   C3A43781  43.159  20.632   7.053
 8358POPC   C4A43782  43.095  20.561   7.353
 8358POPC   C1B43783  43.125  20.387   6.453
 8358POPC   C2B43784  43.039  20.387   6.753
 8358POPC   C3B43785  43.080  20.394   7.053
 8358POPC   C4B43786  43.126  20.392   7.353
 8359POPC   NC343787  40.042  44.637   5.553
 8359POPC   PO443788  39.968  44.710   5.853
 8359POPC   GL143789  40.004  44.645   6.153
 8359POPC   GL243790  39.855  44.628   6.153
 8359POPC   C1A43791  39.988  44.710   6.453
 8359POPC   D2A43792  40.020  44.653   6.753
 8359POPC   C3A43793  40.008  44.645   7.053
 8359POPC   C4A43794  40.049  44.669   7.353
 8359POPC   C1B43795  39.732  44.673   6.453
 8359POPC   C2B43796  39.805  44.600   6.753
 8359POPC   C3B43797  39.768  44.618   7.053
 8359POPC   C4B43798  39.773  44.686   7.353
 8360POPC   NC343799  37.675  11.305   5.553
 8360POPC   PO443800  37.704  11.251   5.853
 8360POPC   GL143801  37.689  11.328   6.153
 8360POPC   GL243802  37.589  11.316   6.153
 8360POPC   C1A43803  37.698  11.311   6.453
 8360POPC   D2A43804  37.691  11.323   6.753
 8360POPC   C3A43805  37.640  11.321   7.053
 8360POPC   C4A43806  37.683  11.257   7.353
 8360POPC   C1B43807  37.449  11.455   6.453
 8360POPC   C2B43808  37.433  11.459   6.753
 8360POPC   C3B43809  37.454  11.402   7.053
 8360POPC   C4B43810  37.514  11.430   7.353
 8361POPC   NC343811  33.800  13.646   5.553
 8361POPC   PO443812  33.837  13.662   5.853
 8361POPC   GL143813  33.808  13.651   6.153
 8361POPC   GL243814  33.680  13.600   6.153
 8361POPC   C1A43815  33.775  13.632   6.453
 8361POPC   D2A43816  33.835  13.660   6.753
 8361POPC   C3A43817  33.791  13.663   7.053
 8361POPC   C4A43818  33.769  13.612   7.353
 8361POPC   C1B43819  33.637  13.533   6.453
 8361POPC   C2B43820  33.628  13.465   6.753
 8361POPC   C3B43821  33.585  13.542   7.053
 8361POPC   C4B43822  33.574  13.544   7.353
 8362POPC   NC343823  15.952  35.375   5.553
 8362POPC   PO443824  15.944  35.362   5.853
 8362POPC   GL143825  15.975  35.308   6.153
 8362POPC   GL243826  15.857  35.321   6.153
 8362POPC   C1A43827  15.982  35.376   6.453
 8362POPC   D2A43828  15.961  35.384   6.753
 8362POPC   C3A43829  15.984  35.345   7.053
 8362POPC   C4A43830  16.001  35.356   7.353
 8362POPC   C1B43831  15.785  35.212   6.453
 8362POPC   C2B43832  15.705  35.246   6.753
 8362POPC   C3B43833  15.761  35.192   7.053
 8362POPC   C4B43834  15.756  35.181   7.353
 8363POPC   NC343835  10.551  39.190   5.553
 8363POPC   PO443836  10.497  39.238   5.853
 8363POPC   GL143837  10.478  39.190   6.153
 8363POPC   GL243838  10.397  39.179   6.153
 8363POPC   C1A43839  10.483  39.248   6.453
 8363POPC   D2A43840  10.530  39.260   6.753
 8363POPC   C3A43841  10.498  39.193   7.053
 8363POPC   C4A43842  10.525  39.202   7.353
 8363POPC   C1B43843  10.334  39.181   6.453
 8363POPC   C2B43844  10.320  39.124   6.753
 8363POPC   C3B43845  10.305  39.130   7.053
 8363POPC   C4B43846  10.335  39.107   7.353
 8364POPC   NC343847  20.626  24.455   5.553
 8364POPC   PO443848  20.591  24.513   5.853
 8364POPC   GL143849  20.611  24.458   6.153
 8364POPC   GL243850  20.681  24.429   6.153
 8364POPC   C1A43851  20.649  24.464   6.453
 8364POPC   D2A43852  20.630  24.536   6.753
 8364POPC   C3A43853  20.618  24.442   7.053
 8364POPC   C4A43854  20.609  24.480   7.353
 8364POPC   C1B43855  20.773  24.285   6.453
 8364POPC   C2B43856  20.763  24.355   6.753
 8364POPC   C3B43857  20.812  24.358   7.053
 8364POPC   C4B43858  20.831  24.359   7.353
 8365POPC   NC343859   4.296   2.800   5.553
 8365POPC   PO443860   4.313   2.792   5.853
 8365POPC   GL143861   4.341   2.724   6.153
 8365POPC   GL243862   4.317   2.907   6.153
 8365POPC   C1A43863   4.318   2.740   6.453
 8365POPC   D2A43864   4.356   2.748   6.753
 8365POPC   C3A43865   4.341   2.718   7.053
 8365POPC   C4A43866   4.304   2.773   7.353
 8365POPC   C1B43867   4.304   3.052   6.453
 8365POPC   C2B43868   4.220   3.049   6.753
 8365POPC   C3B43869   4.270   2.990   7.053
 8365POPC   C4B43870   4.303   3.017   7.353
 8366POPC   NC343871  11.282   1.204   5.553
 8366POPC   PO443872  11.255   1.224   5.853
 8366POPC   GL143873  11.328   1.213   6.153
 8366POPC   GL243874  11.161   1.323   6.153
 8366POPC   C1A43875  11.326   1.214   6.453
 8366POPC   D2A43876  11.329   1.189   6.753
 8366POPC   C3A43877  11.319   1.220   7.053
 8366POPC   C4A43878  11.265   1.201   7.353
 8366POPC   C1B43879  11.120   1.325   6.453
 8366POPC   C2B43880  11.039   1.332   6.753
 8366POPC   C3B43881  11.085   1.325   7.053
 8366POPC   C4B43882  11.127   1.381   7.353
 8367POPC   NC343883  29.097  11.286   5.553
 8367POPC   PO443884  29.096  11.335   5.853
 8367POPC   GL143885  29.183  11.326   6.153
 8367POPC   GL243886  28.999  11.337   6.153
 8367POPC   C1A43887  29.175  11.273   6.453
 8367POPC   D2A43888  29.138  11.263   6.753
 8367POPC   C3A43889  29.148  11.278   7.053
 8367POPC   C4A43890  29.169  11.251   7.353
 8367POPC   C1B43891  28.882  11.367   6.453
 8367POPC   C2B43892  28.920  11.353   6.753
 8367POPC   C3B43893  28.918  11.328   7.053
 8367POPC   C4B43894  28.875  11.375   7.353
 8368POPC   NC343895  25.284  44.649   5.553
 8368POPC   PO443896  25.271  44.619   5.853
 8368POPC   GL143897  25.250  44.643   6.153
 8368POPC   GL243898  25.110  44.629   6.153
 8368POPC   C1A43899  25.217  44.677   6.453
 8368POPC   D2A43900  25.279  44.617   6.753
 8368POPC   C3A43901  25.299  44.629   7.053
 8368POPC   C4A43902  25.294  44.687   7.353
 8368POPC   C1B43903  25.024  44.576   6.453
 8368POPC   C2B43904  25.013  44.641   6.753
 8368POPC   C3B43905  25.064  44.600   7.053
 8368POPC   C4B43906  25.050  44.577   7.353
 8369POPC   NC343907  24.444  23.763   5.553
 8369POPC   PO443908  24.467  23.738   5.853
 8369POPC   GL143909  24.493  23.699   6.153
 8369POPC   GL243910  24.506  23.566   6.153
 8369POPC   C1A43911  24.476  23.761   6.453
 8369POPC   D2A43912  24.459  23.665   6.753
 8369POPC   C3A43913  24.486  23.722   7.053
 8369POPC   C4A43914  24.497  23.749   7.353
 8369POPC   C1B43915  24.597  23.455   6.453
 8369POPC   C2B43916  24.561  23.440   6.753
 8369POPC   C3B43917  24.548  23.499   7.053
 8369POPC   C4B43918  24.600  23.438   7.353
 8370POPC   NC343919  36.930  11.314   5.553
 8370POPC   PO443920  36.894  11.314   5.853
 8370POPC   GL143921  36.932  11.277   6.153
 8370POPC   GL243922  36.817  11.323   6.153
 8370POPC   C1A43923  36.932  11.339   6.453
 8370POPC   D2A43924  36.878  11.342   6.753
 8370POPC   C3A43925  36.917  11.350   7.053
 8370POPC   C4A43926  36.926  11.336   7.353
 8370POPC   C1B43927  36.634  11.272   6.453
 8370POPC   C2B43928  36.661  11.229   6.753
 8370POPC   C3B43929  36.643  11.274   7.053
 8370POPC   C4B43930  36.697  11.228   7.353
 8371POPC   NC343931  28.388  11.256   5.553
 8371POPC   PO443932  28.412  11.256   5.853
 8371POPC   GL143933  28.381  11.276   6.153
 8371POPC   GL243934  28.308  11.256   6.153
 8371POPC   C1A43935  28.395  11.346   6.453
 8371POPC   D2A43936  28.360  11.290   6.753
 8371POPC   C3A43937  28.365  11.286   7.053
 8371POPC   C4A43938  28.419  11.276   7.353
 8371POPC   C1B43939  28.168  11.204   6.453
 8371POPC   C2B43940  28.148  11.156   6.753
 8371POPC   C3B43941  28.115  11.152   7.053
 8371POPC   C4B43942  28.152  11.184   7.353
 8372POPC   NC343943  26.852  34.593   5.553
 8372POPC   PO443944  26.771  34.552   5.853
 8372POPC   GL143945  26.837  34.625   6.153
 8372POPC   GL243946  26.803  34.489   6.153
 8372POPC   C1A43947  26.850  34.547   6.453
 8372POPC   D2A43948  26.772  34.535   6.753
 8372POPC   C3A43949  26.799  34.618   7.053
 8372POPC   C4A43950  26.836  34.589   7.353
 8372POPC   C1B43951  26.800  34.352   6.453
 8372POPC   C2B43952  26.761  34.332   6.753
 8372POPC   C3B43953  26.829  34.369   7.053
 8372POPC   C4B43954  26.768  34.333   7.353
 8373POPC   NC343955  30.690  10.538   5.553
 8373POPC   PO443956  30.691  10.549   5.853
 8373POPC   GL143957  30.723  10.514   6.153
 8373POPC   GL243958  30.639  10.442   6.153
 8373POPC   C1A43959  30.660  10.479   6.453
 8373POPC   D2A43960  30.676  10.514   6.753
 8373POPC   C3A43961  30.661  10.522   7.053
 8373POPC   C4A43962  30.670  10.527   7.353
 8373POPC   C1B43963  30.633  10.257   6.453
 8373POPC   C2B43964  30.667  10.292   6.753
 8373POPC   C3B43965  30.615  10.303   7.053
 8373POPC   C4B43966  30.629  10.289   7.353
 8374POPC   NC343967  40.785  11.251   5.553
 8374POPC   PO443968  40.824  11.254   5.853
 8374POPC   GL143969  40.774  11.284   6.153
 8374POPC   GL243970  40.826  11.203   6.153
 8374POPC   C1A43971  40.772  11.338   6.453
 8374POPC   D2A43972  40.815  11.342   6.753
 8374POPC   C3A43973  40.808  11.323   7.053
 8374POPC   C4A43974  40.774  11.256   7.353
 8374POPC   C1B43975  40.908  11.078   6.453
 8374POPC   C2B43976  40.918  11.091   6.753
 8374POPC   C3B43977  40.880  11.025   7.053
 8374POPC   C4B43978  40.917  11.083   7.353
 8375POPC   NC343979  40.019  18.310   5.553
 8375POPC   PO443980  40.040  18.241   5.853
 8375POPC   GL143981  39.964  18.285   6.153
 8375POPC   GL243982  39.958  18.395   6.153
 8375POPC   C1A43983  39.999  18.250   6.453
 8375POPC   D2A43984  40.000  18.308   6.753
 8375POPC   C3A43985  40.017  18.292   7.053
 8375POPC   C4A43986  40.017  18.295   7.353
 8375POPC   C1B43987  39.951  18.563   6.453
 8375POPC   C2B43988  39.899  18.537   6.753
 8375POPC   C3B43989  39.898  18.526   7.053
 8375POPC   C4B43990  39.913  18.529   7.353
 8376POPC   NC343991  21.371  26.800   5.553
 8376POPC   PO443992  21.346  26.832   5.853
 8376POPC   GL143993  21.405  26.768   6.153
 8376POPC   GL243994  21.419  26.900   6.153
 8376POPC   C1A43995  21.371  26.851   6.453
 8376POPC   D2A43996  21.382  26.834   6.753
 8376POPC   C3A43997  21.360  26.820   7.053
 8376POPC   C4A43998  21.405  26.807   7.353
 8376POPC   C1B43999  21.437  27.045   6.453
 8376POPC   C2B44000  21.486  27.030   6.753
 8376POPC   C3B44001  21.489  27.089   7.053
 8376POPC   C4B44002  21.492  27.049   7.353
 8377POPC   NC344003   2.784  25.259   5.553
 8377POPC   PO444004   2.809  25.290   5.853
 8377POPC   GL144005   2.774  25.244   6.153
 8377POPC   GL244006   2.827  25.330   6.153
 8377POPC   C1A44007   2.798  25.249   6.453
 8377POPC   D2A44008   2.784  25.246   6.753
 8377POPC   C3A44009   2.780  25.263   7.053
 8377POPC   C4A44010   2.728  25.298   7.353
 8377POPC   C1B44011   2.972  25.470   6.453
 8377POPC   C2B44012   3.001  25.413   6.753
 8377POPC   C3B44013   2.984  25.411   7.053
 8377POPC   C4B44014   2.917  25.445   7.353
 8378POPC   NC344015  12.890  38.464   5.553
 8378POPC   PO444016  12.810  38.419   5.853
 8378POPC   GL144017  12.821  38.478   6.153
 8378POPC   GL244018  12.723  38.405   6.153
 8378POPC   C1A44019  12.871  38.405   6.453
 8378POPC   D2A44020  12.857  38.489   6.753
 8378POPC   C3A44021  12.802  38.454   7.053
 8378POPC   C4A44022  12.817  38.428   7.353
 8378POPC   C1B44023  12.604  38.319   6.453
 8378POPC   C2B44024  12.652  38.353   6.753
 8378POPC   C3B44025  12.642  38.291   7.053
 8378POPC   C4B44026  12.696  38.265   7.353
 8379POPC   NC344027  36.110  20.617   5.553
 8379POPC   PO444028  36.175  20.572   5.853
 8379POPC   GL144029  36.105  20.642   6.153
 8379POPC   GL244030  36.231  20.712   6.153
 8379POPC   C1A44031  36.121  20.597   6.453
 8379POPC   D2A44032  36.126  20.582   6.753
 8379POPC   C3A44033  36.088  20.594   7.053
 8379POPC   C4A44034  36.085  20.577   7.353
 8379POPC   C1B44035  36.263  20.783   6.453
 8379POPC   C2B44036  36.307  20.792   6.753
 8379POPC   C3B44037  36.271  20.793   7.053
 8379POPC   C4B44038  36.281  20.832   7.353
 8380POPC   NC344039  12.125  43.073   5.553
 8380POPC   PO444040  12.065  43.133   5.853
 8380POPC   GL144041  12.028  43.089   6.153
 8380POPC   GL244042  12.169  43.006   6.153
 8380POPC   C1A44043  12.108  43.137   6.453
 8380POPC   D2A44044  12.077  43.122   6.753
 8380POPC   C3A44045  12.082  43.147   7.053
 8380POPC   C4A44046  12.067  43.153   7.353
 8380POPC   C1B44047  12.229  42.872   6.453
 8380POPC   C2B44048  12.170  42.879   6.753
 8380POPC   C3B44049  12.252  42.899   7.053
 8380POPC   C4B44050  12.242  42.861   7.353
 8381POPC   NC344051  37.711  16.690   5.553
 8381POPC   PO444052  37.635  16.725   5.853
 8381POPC   GL144053  37.719  16.746   6.153
 8381POPC   GL244054  37.550  16.708   6.153
 8381POPC   C1A44055  37.710  16.716   6.453
 8381POPC   D2A44056  37.714  16.728   6.753
 8381POPC   C3A44057  37.652  16.703   7.053
 8381POPC   C4A44058  37.646  16.703   7.353
 8381POPC   C1B44059  37.466  16.769   6.453
 8381POPC   C2B44060  37.450  16.805   6.753
 8381POPC   C3B44061  37.387  16.745   7.053
 8381POPC   C4B44062  37.389  16.776   7.353
 8382POPC   NC344063  22.171  23.738   5.553
 8382POPC   PO444064  22.159  23.711   5.853
 8382POPC   GL144065  22.204  23.690   6.153
 8382POPC   GL244066  22.048  23.803   6.153
 8382POPC   C1A44067  22.137  23.745   6.453
 8382POPC   D2A44068  22.133  23.690   6.753
 8382POPC   C3A44069  22.191  23.686   7.053
 8382POPC   C4A44070  22.115  23.687   7.353
 8382POPC   C1B44071  21.929  23.824   6.453
 8382POPC   C2B44072  21.986  23.804   6.753
 8382POPC   C3B44073  21.938  23.836   7.053
 8382POPC   C4B44074  21.899  23.811   7.353
 8383POPC   NC344075  35.307   3.537   5.553
 8383POPC   PO444076  35.377   3.494   5.853
 8383POPC   GL144077  35.398   3.533   6.153
 8383POPC   GL244078  35.443   3.583   6.153
 8383POPC   C1A44079  35.379   3.527   6.453
 8383POPC   D2A44080  35.372   3.512   6.753
 8383POPC   C3A44081  35.363   3.579   7.053
 8383POPC   C4A44082  35.340   3.545   7.353
 8383POPC   C1B44083  35.610   3.586   6.453
 8383POPC   C2B44084  35.628   3.607   6.753
 8383POPC   C3B44085  35.595   3.542   7.053
 8383POPC   C4B44086  35.638   3.533   7.353
 8384POPC   NC344087  32.266  25.999   5.553
 8384POPC   PO444088  32.254  26.020   5.853
 8384POPC   GL144089  32.206  26.053   6.153
 8384POPC   GL244090  32.159  26.120   6.153
 8384POPC   C1A44091  32.259  26.062   6.453
 8384POPC   D2A44092  32.202  26.060   6.753
 8384POPC   C3A44093  32.205  26.090   7.053
 8384POPC   C4A44094  32.251  26.045   7.353
 8384POPC   C1B44095  32.145  26.260   6.453
 8384POPC   C2B44096  32.105  26.301   6.753
 8384POPC   C3B44097  32.159  26.249   7.053
 8384POPC   C4B44098  32.132  26.232   7.353
 8385POPC   NC344099  40.006  25.230   5.553
 8385POPC   PO444100  39.963  25.238   5.853
 8385POPC   GL144101  39.975  25.249   6.153
 8385POPC   GL244102  40.140  25.384   6.153
 8385POPC   C1A44103  40.019  25.258   6.453
 8385POPC   D2A44104  40.045  25.216   6.753
 8385POPC   C3A44105  39.967  25.286   7.053
 8385POPC   C4A44106  39.962  25.312   7.353
 8385POPC   C1B44107  40.216  25.416   6.453
 8385POPC   C2B44108  40.192  25.465   6.753
 8385POPC   C3B44109  40.158  25.390   7.053
 8385POPC   C4B44110  40.220  25.367   7.353
 8386POPC   NC344111  44.684  42.364   5.553
 8386POPC   PO444112  44.670  42.363   5.853
 8386POPC   GL144113  44.640  42.339   6.153
 8386POPC   GL244114  44.591  42.216   6.153
 8386POPC   C1A44115  44.695  42.316   6.453
 8386POPC   D2A44116  44.630  42.355   6.753
 8386POPC   C3A44117  44.630  42.349   7.053
 8386POPC   C4A44118  44.636  42.382   7.353
 8386POPC   C1B44119  44.484  42.126   6.453
 8386POPC   C2B44120  44.449  42.200   6.753
 8386POPC   C3B44121  44.475  42.149   7.053
 8386POPC   C4B44122  44.488  42.167   7.353
 8387POPC   NC344123   5.076  40.053   5.553
 8387POPC   PO444124   5.121  39.986   5.853
 8387POPC   GL144125   5.130  39.986   6.153
 8387POPC   GL244126   5.070  40.104   6.153
 8387POPC   C1A44127   5.137  39.961   6.453
 8387POPC   D2A44128   5.074  40.016   6.753
 8387POPC   C3A44129   5.100  40.011   7.053
 8387POPC   C4A44130   5.090  40.029   7.353
 8387POPC   C1B44131   4.928  40.259   6.453
 8387POPC   C2B44132   4.988  40.186   6.753
 8387POPC   C3B44133   4.959  40.225   7.053
 8387POPC   C4B44134   4.909  40.174   7.353
 8388POPC   NC344135  11.321  15.216   5.553
 8388POPC   PO444136  11.286  15.176   5.853
 8388POPC   GL144137  11.276  15.150   6.153
 8388POPC   GL244138  11.434  15.271   6.153
 8388POPC   C1A44139  11.277  15.176   6.453
 8388POPC   D2A44140  11.274  15.217   6.753
 8388POPC   C3A44141  11.348  15.167   7.053
 8388POPC   C4A44142  11.340  15.143   7.353
 8388POPC   C1B44143  11.534  15.312   6.453
 8388POPC   C2B44144  11.493  15.305   6.753
 8388POPC   C3B44145  11.516  15.356   7.053
 8388POPC   C4B44146  11.517  15.276   7.353
 8389POPC   NC344147  26.842  17.537   5.553
 8389POPC   PO444148  26.862  17.531   5.853
 8389POPC   GL144149  26.768  17.508   6.153
 8389POPC   GL244150  26.677  17.591   6.153
 8389POPC   C1A44151  26.834  17.469   6.453
 8389POPC   D2A44152  26.829  17.491   6.753
 8389POPC   C3A44153  26.810  17.517   7.053
 8389POPC   C4A44154  26.781  17.546   7.353
 8389POPC   C1B44155  26.658  17.621   6.453
 8389POPC   C2B44156  26.610  17.664   6.753
 8389POPC   C3B44157  26.634  17.660   7.053
 8389POPC   C4B44158  26.619  17.659   7.353
 8390POPC   NC344159   9.778  38.453   5.553
 8390POPC   PO444160   9.780  38.471   5.853
 8390POPC   GL144161   9.712  38.455   6.153
 8390POPC   GL244162   9.679  38.403   6.153
 8390POPC   C1A44163   9.717  38.423   6.453
 8390POPC   D2A44164   9.798  38.491   6.753
 8390POPC   C3A44165   9.739  38.477   7.053
 8390POPC   C4A44166   9.795  38.451   7.353
 8390POPC   C1B44167   9.495  38.311   6.453
 8390POPC   C2B44168   9.522  38.332   6.753
 8390POPC   C3B44169   9.498  38.387   7.053
 8390POPC   C4B44170   9.540  38.310   7.353
 8391POPC   NC344171  34.597  18.277   5.553
 8391POPC   PO444172  34.596  18.252   5.853
 8391POPC   GL144173  34.617  18.255   6.153
 8391POPC   GL244174  34.432  18.220   6.153
 8391POPC   C1A44175  34.555  18.265   6.453
 8391POPC   D2A44176  34.535  18.304   6.753
 8391POPC   C3A44177  34.564  18.291   7.053
 8391POPC   C4A44178  34.585  18.320   7.353
 8391POPC   C1B44179  34.290  18.195   6.453
 8391POPC   C2B44180  34.358  18.238   6.753
 8391POPC   C3B44181  34.342  18.251   7.053
 8391POPC   C4B44182  34.369  18.260   7.353
 8392POPC   NC344183   5.066  32.997   5.553
 8392POPC   PO444184   5.121  33.027   5.853
 8392POPC   GL144185   5.138  32.997   6.153
 8392POPC   GL244186   5.235  33.100   6.153
 8392POPC   C1A44187   5.054  33.032   6.453
 8392POPC   D2A44188   5.128  33.050   6.753
 8392POPC   C3A44189   5.102  33.044   7.053
 8392POPC   C4A44190   5.052  33.038   7.353
 8392POPC   C1B44191   5.341  33.117   6.453
 8392POPC   C2B44192   5.275  33.108   6.753
 8392POPC   C3B44193   5.313  33.163   7.053
 8392POPC   C4B44194   5.283  33.096   7.353
 8393POPC   NC344195   7.459  35.383   5.553
 8393POPC   PO444196   7.380  35.310   5.853
 8393POPC   GL144197   7.407  35.383   6.153
 8393POPC   GL244198   7.540  35.286   6.153
 8393POPC   C1A44199   7.392  35.321   6.453
 8393POPC   D2A44200   7.461  35.377   6.753
 8393POPC   C3A44201   7.418  35.400   7.053
 8393POPC   C4A44202   7.409  35.395   7.353
 8393POPC   C1B44203   7.668  35.296   6.453
 8393POPC   C2B44204   7.679  35.268   6.753
 8393POPC   C3B44205   7.619  35.212   7.053
 8393POPC   C4B44206   7.657  35.294   7.353
 8394POPC   NC344207  24.483   8.994   5.553
 8394POPC   PO444208  24.495   8.946   5.853
 8394POPC   GL144209  24.533   9.022   6.153
 8394POPC   GL244210  24.606   8.950   6.153
 8394POPC   C1A44211  24.535   9.002   6.453
 8394POPC   D2A44212  24.492   8.954   6.753
 8394POPC   C3A44213  24.491   8.931   7.053
 8394POPC   C4A44214  24.464   8.994   7.353
 8394POPC   C1B44215  24.749   9.008   6.453
 8394POPC   C2B44216  24.774   8.993   6.753
 8394POPC   C3B44217  24.717   8.990   7.053
 8394POPC   C4B44218  24.748   8.962   7.353
 8395POPC   NC344219   5.078  39.218   5.553
 8395POPC   PO444220   5.105  39.181   5.853
 8395POPC   GL144221   5.085  39.223   6.153
 8395POPC   GL244222   4.986  39.344   6.153
 8395POPC   C1A44223   5.044  39.186   6.453
 8395POPC   D2A44224   5.114  39.234   6.753
 8395POPC   C3A44225   5.078  39.204   7.053
 8395POPC   C4A44226   5.046  39.195   7.353
 8395POPC   C1B44227   4.949  39.373   6.453
 8395POPC   C2B44228   4.945  39.439   6.753
 8395POPC   C3B44229   4.955  39.460   7.053
 8395POPC   C4B44230   4.898  39.419   7.353
 8396POPC   NC344231   5.078  12.063   5.553
 8396POPC   PO444232   5.120  12.063   5.853
 8396POPC   GL144233   5.113  12.059   6.153
 8396POPC   GL244234   5.239  12.150   6.153
 8396POPC   C1A44235   5.131  12.123   6.453
 8396POPC   D2A44236   5.126  12.098   6.753
 8396POPC   C3A44237   5.113  12.044   7.053
 8396POPC   C4A44238   5.048  12.122   7.353
 8396POPC   C1B44239   5.334  12.211   6.453
 8396POPC   C2B44240   5.277  12.191   6.753
 8396POPC   C3B44241   5.372  12.140   7.053
 8396POPC   C4B44242   5.328  12.188   7.353
 8397POPC   NC344243  10.538  12.868   5.553
 8397POPC   PO444244  10.570  12.838   5.853
 8397POPC   GL144245  10.490  12.828   6.153
 8397POPC   GL244246  10.496  12.749   6.153
 8397POPC   C1A44247  10.535  12.884   6.453
 8397POPC   D2A44248  10.541  12.829   6.753
 8397POPC   C3A44249  10.549  12.901   7.053
 8397POPC   C4A44250  10.574  12.812   7.353
 8397POPC   C1B44251  10.384  12.624   6.453
 8397POPC   C2B44252  10.431  12.625   6.753
 8397POPC   C3B44253  10.344  12.685   7.053
 8397POPC   C4B44254  10.396  12.664   7.353
 8398POPC   NC344255  22.123  10.560   5.553
 8398POPC   PO444256  22.123  10.512   5.853
 8398POPC   GL144257  22.148  10.526   6.153
 8398POPC   GL244258  22.045  10.477   6.153
 8398POPC   C1A44259  22.189  10.525   6.453
 8398POPC   D2A44260  22.119  10.560   6.753
 8398POPC   C3A44261  22.154  10.549   7.053
 8398POPC   C4A44262  22.158  10.525   7.353
 8398POPC   C1B44263  21.949  10.459   6.453
 8398POPC   C2B44264  21.911  10.473   6.753
 8398POPC   C3B44265  21.875  10.517   7.053
 8398POPC   C4B44266  21.932  10.464   7.353
 8399POPC   NC344267  18.234   0.444   5.553
 8399POPC   PO444268  18.246   0.440   5.853
 8399POPC   GL144269  18.256   0.473   6.153
 8399POPC   GL244270  18.388   0.488   6.153
 8399POPC   C1A44271  18.271   0.409   6.453
 8399POPC   D2A44272  18.235   0.395   6.753
 8399POPC   C3A44273  18.295   0.471   7.053
 8399POPC   C4A44274  18.283   0.446   7.353
 8399POPC   C1B44275  18.510   0.430   6.453
 8399POPC   C2B44276  18.577   0.479   6.753
 8399POPC   C3B44277  18.527   0.418   7.053
 8399POPC   C4B44278  18.483   0.419   7.353
 8400POPC   NC344279  15.938  31.424   5.553
 8400POPC   PO444280  15.941  31.441   5.853
 8400POPC   GL144281  16.000  31.489   6.153
 8400POPC   GL244282  15.918  31.562   6.153
 8400POPC   C1A44283  15.979  31.498   6.453
 8400POPC   D2A44284  15.940  31.504   6.753
 8400POPC   C3A44285  15.925  31.444   7.053
 8400POPC   C4A44286  15.913  31.492   7.353
 8400POPC   C1B44287  15.859  31.661   6.453
 8400POPC   C2B44288  15.847  31.682   6.753
 8400POPC   C3B44289  15.839  31.682   7.053
 8400POPC   C4B44290  15.871  31.684   7.353
 8401POPC   NC344291   6.617   4.324   5.553
 8401POPC   PO444292   6.662   4.281   5.853
 8401POPC   GL144293   6.645   4.285   6.153
 8401POPC   GL244294   6.587   4.237   6.153
 8401POPC   C1A44295   6.633   4.273   6.453
 8401POPC   D2A44296   6.631   4.315   6.753
 8401POPC   C3A44297   6.682   4.354   7.053
 8401POPC   C4A44298   6.617   4.308   7.353
 8401POPC   C1B44299   6.488   4.129   6.453
 8401POPC   C2B44300   6.453   4.141   6.753
 8401POPC   C3B44301   6.441   4.132   7.053
 8401POPC   C4B44302   6.413   4.186   7.353
 8402POPC   NC344303  38.448  26.038   5.553
 8402POPC   PO444304  38.480  26.011   5.853
 8402POPC   GL144305  38.406  26.034   6.153
 8402POPC   GL244306  38.373  26.101   6.153
 8402POPC   C1A44307  38.491  26.011   6.453
 8402POPC   D2A44308  38.486  26.078   6.753
 8402POPC   C3A44309  38.458  26.021   7.053
 8402POPC   C4A44310  38.501  26.040   7.353
 8402POPC   C1B44311  38.188  26.061   6.453
 8402POPC   C2B44312  38.252  26.052   6.753
 8402POPC   C3B44313  38.256  26.052   7.053
 8402POPC   C4B44314  38.181  26.086   7.353
 8403POPC   NC344315  33.050  35.387   5.553
 8403POPC   PO444316  33.014  35.336   5.853
 8403POPC   GL144317  33.022  35.317   6.153
 8403POPC   GL244318  32.872  35.361   6.153
 8403POPC   C1A44319  33.070  35.371   6.453
 8403POPC   D2A44320  33.039  35.395   6.753
 8403POPC   C3A44321  33.062  35.320   7.053
 8403POPC   C4A44322  33.067  35.381   7.353
 8403POPC   C1B44323  32.823  35.324   6.453
 8403POPC   C2B44324  32.774  35.291   6.753
 8403POPC   C3B44325  32.751  35.296   7.053
 8403POPC   C4B44326  32.744  35.240   7.353
 8404POPC   NC344327  43.117  23.681   5.553
 8404POPC   PO444328  43.098  23.737   5.853
 8404POPC   GL144329  43.074  23.710   6.153
 8404POPC   GL244330  43.190  23.844   6.153
 8404POPC   C1A44331  43.081  23.697   6.453
 8404POPC   D2A44332  43.095  23.691   6.753
 8404POPC   C3A44333  43.107  23.728   7.053
 8404POPC   C4A44334  43.143  23.687   7.353
 8404POPC   C1B44335  43.244  23.933   6.453
 8404POPC   C2B44336  43.233  23.954   6.753
 8404POPC   C3B44337  43.289  23.887   7.053
 8404POPC   C4B44338  43.292  23.870   7.353
 8405POPC   NC344339   8.232  36.928   5.553
 8405POPC   PO444340   8.212  36.926   5.853
 8405POPC   GL144341   8.206  36.918   6.153
 8405POPC   GL244342   8.327  36.919   6.153
 8405POPC   C1A44343   8.154  36.884   6.453
 8405POPC   D2A44344   8.223  36.936   6.753
 8405POPC   C3A44345   8.237  36.916   7.053
 8405POPC   C4A44346   8.160  36.881   7.353
 8405POPC   C1B44347   8.394  36.973   6.453
 8405POPC   C2B44348   8.480  36.988   6.753
 8405POPC   C3B44349   8.481  36.979   7.053
 8405POPC   C4B44350   8.400  36.947   7.353
 8406POPC   NC344351  36.161  43.095   5.553
 8406POPC   PO444352  36.132  43.157   5.853
 8406POPC   GL144353  36.093  43.117   6.153
 8406POPC   GL244354  36.225  43.054   6.153
 8406POPC   C1A44355  36.150  43.155   6.453
 8406POPC   D2A44356  36.174  43.102   6.753
 8406POPC   C3A44357  36.097  43.102   7.053
 8406POPC   C4A44358  36.123  43.111   7.353
 8406POPC   C1B44359  36.348  43.091   6.453
 8406POPC   C2B44360  36.402  43.055   6.753
 8406POPC   C3B44361  36.322  43.105   7.053
 8406POPC   C4B44362  36.339  43.022   7.353
 8407POPC   NC344363   1.955  38.406   5.553
 8407POPC   PO444364   1.999  38.443   5.853
 8407POPC   GL144365   1.948  38.432   6.153
 8407POPC   GL244366   1.915  38.569   6.153
 8407POPC   C1A44367   2.032  38.437   6.453
 8407POPC   D2A44368   2.018  38.467   6.753
 8407POPC   C3A44369   1.976  38.427   7.053
 8407POPC   C4A44370   2.018  38.453   7.353
 8407POPC   C1B44371   1.850  38.716   6.453
 8407POPC   C2B44372   1.854  38.644   6.753
 8407POPC   C3B44373   1.885  38.694   7.053
 8407POPC   C4B44374   1.866  38.730   7.353
 8408POPC   NC344375  26.019   0.433   5.553
 8408POPC   PO444376  25.997   0.455   5.853
 8408POPC   GL144377  26.042   0.479   6.153
 8408POPC   GL244378  25.978   0.343   6.153
 8408POPC   C1A44379  26.019   0.394   6.453
 8408POPC   D2A44380  26.040   0.417   6.753
 8408POPC   C3A44381  26.047   0.429   7.053
 8408POPC   C4A44382  25.993   0.395   7.353
 8408POPC   C1B44383  26.008   0.242   6.453
 8408POPC   C2B44384  25.923   0.157   6.753
 8408POPC   C3B44385  25.954   0.185   7.053
 8408POPC   C4B44386  25.979   0.238   7.353
 8409POPC   NC344387  18.273  28.388   5.553
 8409POPC   PO444388  18.324  28.359   5.853
 8409POPC   GL144389  18.322  28.330   6.153
 8409POPC   GL244390  18.191  28.447   6.153
 8409POPC   C1A44391  18.269  28.383   6.453
 8409POPC   D2A44392  18.233  28.402   6.753
 8409POPC   C3A44393  18.297  28.343   7.053
 8409POPC   C4A44394  18.328  28.363   7.353
 8409POPC   C1B44395  18.054  28.507   6.453
 8409POPC   C2B44396  18.040  28.437   6.753
 8409POPC   C3B44397  18.089  28.486   7.053
 8409POPC   C4B44398  18.060  28.414   7.353
 8410POPC   NC344399   6.681  27.595   5.553
 8410POPC   PO444400   6.673  27.628   5.853
 8410POPC   GL144401   6.600  27.604   6.153
 8410POPC   GL244402   6.673  27.744   6.153
 8410POPC   C1A44403   6.621  27.641   6.453
 8410POPC   D2A44404   6.658  27.613   6.753
 8410POPC   C3A44405   6.641  27.574   7.053
 8410POPC   C4A44406   6.687  27.625   7.353
 8410POPC   C1B44407   6.713  27.804   6.453
 8410POPC   C2B44408   6.762  27.857   6.753
 8410POPC   C3B44409   6.715  27.777   7.053
 8410POPC   C4B44410   6.769  27.823   7.353
 8411POPC   NC344411  17.459  41.520   5.553
 8411POPC   PO444412  17.523  41.549   5.853
 8411POPC   GL144413  17.546  41.589   6.153
 8411POPC   GL244414  17.545  41.433   6.153
 8411POPC   C1A44415  17.512  41.589   6.453
 8411POPC   D2A44416  17.465  41.522   6.753
 8411POPC   C3A44417  17.549  41.599   7.053
 8411POPC   C4A44418  17.502  41.557   7.353
 8411POPC   C1B44419  17.574  41.345   6.453
 8411POPC   C2B44420  17.557  41.300   6.753
 8411POPC   C3B44421  17.594  41.276   7.053
 8411POPC   C4B44422  17.581  41.328   7.353
 8412POPC   NC344423  44.685  30.661   5.553
 8412POPC   PO444424  44.636  30.659   5.853
 8412POPC   GL144425  44.613  30.731   6.153
 8412POPC   GL244426  44.779  30.679   6.153
 8412POPC   C1A44427  44.647  30.653   6.453
 8412POPC   D2A44428  44.622  30.706   6.753
 8412POPC   C3A44429  44.696  30.695   7.053
 8412POPC   C4A44430  44.617  30.740   7.353
 8412POPC   C1B44431  44.940  30.630   6.453
 8412POPC   C2B44432  44.884  30.638   6.753
 8412POPC   C3B44433  44.928  30.597   7.053
 8412POPC   C4B44434  44.931  30.609   7.353
 8413POPC   NC344435   5.137  27.575   5.553
 8413POPC   PO444436   5.079  27.580   5.853
 8413POPC   GL144437   5.143  27.583   6.153
 8413POPC   GL244438   5.066  27.732   6.153
 8413POPC   C1A44439   5.095  27.635   6.453
 8413POPC   D2A44440   5.142  27.548   6.753
 8413POPC   C3A44441   5.138  27.573   7.053
 8413POPC   C4A44442   5.062  27.585   7.353
 8413POPC   C1B44443   5.085  27.867   6.453
 8413POPC   C2B44444   5.121  27.800   6.753
 8413POPC   C3B44445   5.061  27.806   7.053
 8413POPC   C4B44446   5.094  27.822   7.353
 8414POPC   NC344447  31.424  24.490   5.553
 8414POPC   PO444448  31.509  24.460   5.853
 8414POPC   GL144449  31.436  24.440   6.153
 8414POPC   GL244450  31.369  24.632   6.153
 8414POPC   C1A44451  31.514  24.510   6.453
 8414POPC   D2A44452  31.438  24.445   6.753
 8414POPC   C3A44453  31.423  24.489   7.053
 8414POPC   C4A44454  31.441  24.476   7.353
 8414POPC   C1B44455  31.324  24.711   6.453
 8414POPC   C2B44456  31.394  24.728   6.753
 8414POPC   C3B44457  31.388  24.734   7.053
 8414POPC   C4B44458  31.324  24.711   7.353
 8415POPC   NC344459  31.489  10.499   5.553
 8415POPC   PO444460  31.504  10.520   5.853
 8415POPC   GL144461  31.458  10.502   6.153
 8415POPC   GL244462  31.585  10.622   6.153
 8415POPC   C1A44463  31.476  10.565   6.453
 8415POPC   D2A44464  31.495  10.572   6.753
 8415POPC   C3A44465  31.454  10.537   7.053
 8415POPC   C4A44466  31.456  10.567   7.353
 8415POPC   C1B44467  31.643  10.666   6.453
 8415POPC   C2B44468  31.668  10.672   6.753
 8415POPC   C3B44469  31.667  10.717   7.053
 8415POPC   C4B44470  31.684  10.707   7.353
 8416POPC   NC344471  42.332   1.982   5.553
 8416POPC   PO444472  42.293   1.942   5.853
 8416POPC   GL144473  42.315   1.990   6.153
 8416POPC   GL244474  42.359   1.887   6.153
 8416POPC   C1A44475  42.332   2.032   6.453
 8416POPC   D2A44476  42.320   1.950   6.753
 8416POPC   C3A44477  42.290   1.988   7.053
 8416POPC   C4A44478  42.286   1.960   7.353
 8416POPC   C1B44479  42.439   1.761   6.453
 8416POPC   C2B44480  42.410   1.708   6.753
 8416POPC   C3B44481  42.433   1.735   7.053
 8416POPC   C4B44482  42.467   1.745   7.353
 8417POPC   NC344483  38.504  33.824   5.553
 8417POPC   PO444484  38.456  33.774   5.853
 8417POPC   GL144485  38.449  33.808   6.153
 8417POPC   GL244486  38.366  33.660   6.153
 8417POPC   C1A44487  38.411  33.788   6.453
 8417POPC   D2A44488  38.493  33.810   6.753
 8417POPC   C3A44489  38.427  33.817   7.053
 8417POPC   C4A44490  38.487  33.755   7.353
 8417POPC   C1B44491  38.337  33.558   6.453
 8417POPC   C2B44492  38.260  33.576   6.753
 8417POPC   C3B44493  38.326  33.632   7.053
 8417POPC   C4B44494  38.308  33.595   7.353
 8418POPC   NC344495  32.280  43.117   5.553
 8418POPC   PO444496  32.242  43.142   5.853
 8418POPC   GL144497  32.279  43.116   6.153
 8418POPC   GL244498  32.311  43.189   6.153
 8418POPC   C1A44499  32.263  43.107   6.453
 8418POPC   D2A44500  32.237  43.078   6.753
 8418POPC   C3A44501  32.251  43.131   7.053
 8418POPC   C4A44502  32.248  43.126   7.353
 8418POPC   C1B44503  32.425  43.243   6.453
 8418POPC   C2B44504  32.431  43.281   6.753
 8418POPC   C3B44505  32.458  43.273   7.053
 8418POPC   C4B44506  32.491  43.268   7.353
 8419POPC   NC344507   7.401  29.884   5.553
 8419POPC   PO444508   7.383  29.944   5.853
 8419POPC   GL144509   7.434  29.914   6.153
 8419POPC   GL244510   7.467  29.771   6.153
 8419POPC   C1A44511   7.378  29.936   6.453
 8419POPC   D2A44512   7.395  29.950   6.753
 8419POPC   C3A44513   7.447  29.945   7.053
 8419POPC   C4A44514   7.426  29.926   7.353
 8419POPC   C1B44515   7.523  29.695   6.453
 8419POPC   C2B44516   7.525  29.678   6.753
 8419POPC   C3B44517   7.514  29.633   7.053
 8419POPC   C4B44518   7.495  29.680   7.353
 8420POPC   NC344519   1.223  19.102   5.553
 8420POPC   PO444520   1.190  19.043   5.853
 8420POPC   GL144521   1.185  19.107   6.153
 8420POPC   GL244522   1.219  18.932   6.153
 8420POPC   C1A44523   1.186  19.107   6.453
 8420POPC   D2A44524   1.201  19.107   6.753
 8420POPC   C3A44525   1.218  19.080   7.053
 8420POPC   C4A44526   1.256  19.030   7.353
 8420POPC   C1B44527   1.176  18.825   6.453
 8420POPC   C2B44528   1.138  18.856   6.753
 8420POPC   C3B44529   1.159  18.825   7.053
 8420POPC   C4B44530   1.146  18.839   7.353
 8421POPC   NC344531  36.124   2.016   5.553
 8421POPC   PO444532  36.083   2.039   5.853
 8421POPC   GL144533  36.083   2.037   6.153
 8421POPC   GL244534  36.153   1.817   6.153
 8421POPC   C1A44535  36.128   2.022   6.453
 8421POPC   D2A44536  36.150   1.969   6.753
 8421POPC   C3A44537  36.117   1.983   7.053
 8421POPC   C4A44538  36.141   1.948   7.353
 8421POPC   C1B44539  36.087   1.711   6.453
 8421POPC   C2B44540  36.084   1.739   6.753
 8421POPC   C3B44541  36.120   1.712   7.053
 8421POPC   C4B44542  36.114   1.765   7.353
 8422POPC   NC344543  19.090  10.520   5.553
 8422POPC   PO444544  19.096  10.566   5.853
 8422POPC   GL144545  19.061  10.491   6.153
 8422POPC   GL244546  19.152  10.431   6.153
 8422POPC   C1A44547  19.049  10.485   6.453
 8422POPC   D2A44548  19.108  10.573   6.753
 8422POPC   C3A44549  19.020  10.547   7.053
 8422POPC   C4A44550  19.103  10.538   7.353
 8422POPC   C1B44551  19.218  10.357   6.453
 8422POPC   C2B44552  19.249  10.307   6.753
 8422POPC   C3B44553  19.255  10.335   7.053
 8422POPC   C4B44554  19.276  10.307   7.353
 8423POPC   NC344555  13.601  21.342   5.553
 8423POPC   PO444556  13.654  21.371   5.853
 8423POPC   GL144557  13.594  21.436   6.153
 8423POPC   GL244558  13.592  21.527   6.153
 8423POPC   C1A44559  13.580  21.359   6.453
 8423POPC   D2A44560  13.644  21.416   6.753
 8423POPC   C3A44561  13.644  21.365   7.053
 8423POPC   C4A44562  13.665  21.351   7.353
 8423POPC   C1B44563  13.500  21.587   6.453
 8423POPC   C2B44564  13.471  21.592   6.753
 8423POPC   C3B44565  13.437  21.630   7.053
 8423POPC   C4B44566  13.504  21.564   7.353
 8424POPC   NC344567  34.560  44.693   5.553
 8424POPC   PO444568  34.624  44.656   5.853
 8424POPC   GL144569  34.585  44.635   6.153
 8424POPC   GL244570  34.671  44.583   6.153
 8424POPC   C1A44571  34.549  44.711   6.453
 8424POPC   D2A44572  34.619  44.630   6.753
 8424POPC   C3A44573  34.556  44.651   7.053
 8424POPC   C4A44574  34.552  44.686   7.353
 8424POPC   C1B44575  34.796  44.534   6.453
 8424POPC   C2B44576  34.815  44.562   6.753
 8424POPC   C3B44577  34.800  44.564   7.053
 8424POPC   C4B44578  34.835  44.539   7.353
 8425POPC   NC344579  43.071  36.948   5.553
 8425POPC   PO444580  43.063  36.910   5.853
 8425POPC   GL144581  43.100  36.930   6.153
 8425POPC   GL244582  43.213  36.880   6.153
 8425POPC   C1A44583  43.080  36.907   6.453
 8425POPC   D2A44584  43.129  36.861   6.753
 8425POPC   C3A44585  43.113  36.893   7.053
 8425POPC   C4A44586  43.074  36.934   7.353
 8425POPC   C1B44587  43.353  36.897   6.453
 8425POPC   C2B44588  43.359  36.829   6.753
 8425POPC   C3B44589  43.344  36.832   7.053
 8425POPC   C4B44590  43.362  36.880   7.353
 8426POPC   NC344591  30.661  39.959   5.553
 8426POPC   PO444592  30.677  39.988   5.853
 8426POPC   GL144593  30.719  40.033   6.153
 8426POPC   GL244594  30.752  40.123   6.153
 8426POPC   C1A44595  30.690  40.039   6.453
 8426POPC   D2A44596  30.715  40.019   6.753
 8426POPC   C3A44597  30.730  40.024   7.053
 8426POPC   C4A44598  30.746  40.004   7.353
 8426POPC   C1B44599  30.768  40.209   6.453
 8426POPC   C2B44600  30.790  40.215   6.753
 8426POPC   C3B44601  30.834  40.255   7.053
 8426POPC   C4B44602  30.855  40.215   7.353
 8427POPC   NC344603   7.383   8.938   5.553
 8427POPC   PO444604   7.392   8.955   5.853
 8427POPC   GL144605   7.374   8.937   6.153
 8427POPC   GL244606   7.410   8.889   6.153
 8427POPC   C1A44607   7.384   8.936   6.453
 8427POPC   D2A44608   7.447   9.004   6.753
 8427POPC   C3A44609   7.449   9.018   7.053
 8427POPC   C4A44610   7.373   8.943   7.353
 8427POPC   C1B44611   7.337   8.697   6.453
 8427POPC   C2B44612   7.350   8.772   6.753
 8427POPC   C3B44613   7.297   8.705   7.053
 8427POPC   C4B44614   7.311   8.718   7.353
 8428POPC   NC344615  43.073  40.786   5.553
 8428POPC   PO444616  43.155  40.827   5.853
 8428POPC   GL144617  43.083  40.786   6.153
 8428POPC   GL244618  43.123  40.932   6.153
 8428POPC   C1A44619  43.113  40.748   6.453
 8428POPC   D2A44620  43.117  40.783   6.753
 8428POPC   C3A44621  43.075  40.808   7.053
 8428POPC   C4A44622  43.070  40.741   7.353
 8428POPC   C1B44623  43.234  41.057   6.453
 8428POPC   C2B44624  43.208  40.982   6.753
 8428POPC   C3B44625  43.161  40.988   7.053
 8428POPC   C4B44626  43.168  41.022   7.353
 8429POPC   NC344627  32.262  17.504   5.553
 8429POPC   PO444628  32.263  17.482   5.853
 8429POPC   GL144629  32.248  17.516   6.153
 8429POPC   GL244630  32.085  17.506   6.153
 8429POPC   C1A44631  32.282  17.498   6.453
 8429POPC   D2A44632  32.199  17.552   6.753
 8429POPC   C3A44633  32.245  17.540   7.053
 8429POPC   C4A44634  32.270  17.516   7.353
 8429POPC   C1B44635  31.983  17.447   6.453
 8429POPC   C2B44636  32.029  17.493   6.753
 8429POPC   C3B44637  32.030  17.492   7.053
 8429POPC   C4B44638  32.021  17.418   7.353
 8430POPC   NC344639  16.734  33.788   5.553
 8430POPC   PO444640  16.704  33.777   5.853
 8430POPC   GL144641  16.722  33.836   6.153
 8430POPC   GL244642  16.580  33.760   6.153
 8430POPC   C1A44643  16.771  33.845   6.453
 8430POPC   D2A44644  16.768  33.773   6.753
 8430POPC   C3A44645  16.710  33.821   7.053
 8430POPC   C4A44646  16.688  33.763   7.353
 8430POPC   C1B44647  16.492  33.800   6.453
 8430POPC   C2B44648  16.506  33.810   6.753
 8430POPC   C3B44649  16.472  33.774   7.053
 8430POPC   C4B44650  16.525  33.791   7.353
 8431POPC   NC344651  28.410  12.831   5.553
 8431POPC   PO444652  28.333  12.819   5.853
 8431POPC   GL144653  28.407  12.841   6.153
 8431POPC   GL244654  28.413  12.763   6.153
 8431POPC   C1A44655  28.359  12.893   6.453
 8431POPC   D2A44656  28.379  12.865   6.753
 8431POPC   C3A44657  28.376  12.842   7.053
 8431POPC   C4A44658  28.343  12.813   7.353
 8431POPC   C1B44659  28.409  12.561   6.453
 8431POPC   C2B44660  28.389  12.560   6.753
 8431POPC   C3B44661  28.345  12.602   7.053
 8431POPC   C4B44662  28.349  12.615   7.353
 8432POPC   NC344663  12.088  12.094   5.553
 8432POPC   PO444664  12.056  12.030   5.853
 8432POPC   GL144665  12.107  12.042   6.153
 8432POPC   GL244666  12.085  12.182   6.153
 8432POPC   C1A44667  12.068  12.033   6.453
 8432POPC   D2A44668  12.050  12.056   6.753
 8432POPC   C3A44669  12.029  12.031   7.053
 8432POPC   C4A44670  12.079  12.099   7.353
 8432POPC   C1B44671  12.130  12.287   6.453
 8432POPC   C2B44672  12.133  12.372   6.753
 8432POPC   C3B44673  12.077  12.365   7.053
 8432POPC   C4B44674  12.090  12.364   7.353
 8433POPC   NC344675   0.412  11.325   5.553
 8433POPC   PO444676   0.419  11.266   5.853
 8433POPC   GL144677   0.446  11.309   6.153
 8433POPC   GL244678   0.284  11.262   6.153
 8433POPC   C1A44679   0.413  11.339   6.453
 8433POPC   D2A44680   0.393  11.277   6.753
 8433POPC   C3A44681   0.462  11.348   7.053
 8433POPC   C4A44682   0.398  11.328   7.353
 8433POPC   C1B44683   0.191  11.237   6.453
 8433POPC   C2B44684   0.201  11.314   6.753
 8433POPC   C3B44685   0.155  11.262   7.053
 8433POPC   C4B44686   0.146  11.281   7.353
 8434POPC   NC344687   1.234  37.704   5.553
 8434POPC   PO444688   1.197  37.690   5.853
 8434POPC   GL144689   1.257  37.691   6.153
 8434POPC   GL244690   1.358  37.692   6.153
 8434POPC   C1A44691   1.252  37.632   6.453
 8434POPC   D2A44692   1.166  37.722   6.753
 8434POPC   C3A44693   1.194  37.724   7.053
 8434POPC   C4A44694   1.167  37.709   7.353
 8434POPC   C1B44695   1.419  37.616   6.453
 8434POPC   C2B44696   1.500  37.577   6.753
 8434POPC   C3B44697   1.437  37.665   7.053
 8434POPC   C4B44698   1.484  37.605   7.353
 8435POPC   NC344699  34.619   4.295   5.553
 8435POPC   PO444700  34.614   4.329   5.853
 8435POPC   GL144701  34.595   4.293   6.153
 8435POPC   GL244702  34.465   4.309   6.153
 8435POPC   C1A44703  34.590   4.319   6.453
 8435POPC   D2A44704  34.625   4.362   6.753
 8435POPC   C3A44705  34.563   4.275   7.053
 8435POPC   C4A44706  34.529   4.359   7.353
 8435POPC   C1B44707  34.362   4.301   6.453
 8435POPC   C2B44708  34.344   4.309   6.753
 8435POPC   C3B44709  34.368   4.293   7.053
 8435POPC   C4B44710  34.316   4.244   7.353
 8436POPC   NC344711   1.954  21.405   5.553
 8436POPC   PO444712   1.952  21.386   5.853
 8436POPC   GL144713   2.025  21.370   6.153
 8436POPC   GL244714   2.021  21.219   6.153
 8436POPC   C1A44715   1.943  21.363   6.453
 8436POPC   D2A44716   1.978  21.382   6.753
 8436POPC   C3A44717   1.940  21.392   7.053
 8436POPC   C4A44718   1.969  21.367   7.353
 8436POPC   C1B44719   2.007  21.178   6.453
 8436POPC   C2B44720   2.012  21.090   6.753
 8436POPC   C3B44721   2.042  21.125   7.053
 8436POPC   C4B44722   2.006  21.099   7.353
 8437POPC   NC344723  11.343  42.289   5.553
 8437POPC   PO444724  11.276  42.343   5.853
 8437POPC   GL144725  11.330  42.303   6.153
 8437POPC   GL244726  11.212  42.377   6.153
 8437POPC   C1A44727  11.254  42.381   6.453
 8437POPC   D2A44728  11.296  42.361   6.753
 8437POPC   C3A44729  11.348  42.304   7.053
 8437POPC   C4A44730  11.329  42.372   7.353
 8437POPC   C1B44731  11.092  42.451   6.453
 8437POPC   C2B44732  11.042  42.462   6.753
 8437POPC   C3B44733  11.105  42.406   7.053
 8437POPC   C4B44734  11.071  42.447   7.353
 8438POPC   NC344735   9.004  41.582   5.553
 8438POPC   PO444736   8.927  41.534   5.853
 8438POPC   GL144737   8.943  41.536   6.153
 8438POPC   GL244738   8.914  41.474   6.153
 8438POPC   C1A44739   9.002  41.556   6.453
 8438POPC   D2A44740   9.015  41.537   6.753
 8438POPC   C3A44741   9.017  41.521   7.053
 8438POPC   C4A44742   8.951  41.572   7.353
 8438POPC   C1B44743   8.945  41.347   6.453
 8438POPC   C2B44744   8.936  41.322   6.753
 8438POPC   C3B44745   8.949  41.305   7.053
 8438POPC   C4B44746   8.900  41.360   7.353
 8439POPC   NC344747   5.869  29.140   5.553
 8439POPC   PO444748   5.847  29.113   5.853
 8439POPC   GL144749   5.892  29.165   6.153
 8439POPC   GL244750   5.787  29.093   6.153
 8439POPC   C1A44751   5.901  29.166   6.453
 8439POPC   D2A44752   5.917  29.129   6.753
 8439POPC   C3A44753   5.831  29.135   7.053
 8439POPC   C4A44754   5.915  29.120   7.353
 8439POPC   C1B44755   5.573  29.137   6.453
 8439POPC   C2B44756   5.632  29.135   6.753
 8439POPC   C3B44757   5.631  29.108   7.053
 8439POPC   C4B44758   5.621  29.119   7.353
 8440POPC   NC344759   9.784   8.966   5.553
 8440POPC   PO444760   9.783   8.970   5.853
 8440POPC   GL144761   9.785   9.018   6.153
 8440POPC   GL244762   9.890   8.911   6.153
 8440POPC   C1A44763   9.703   8.942   6.453
 8440POPC   D2A44764   9.757   8.992   6.753
 8440POPC   C3A44765   9.718   8.939   7.053
 8440POPC   C4A44766   9.748   8.954   7.353
 8440POPC   C1B44767   9.989   8.953   6.453
 8440POPC   C2B44768  10.041   8.904   6.753
 8440POPC   C3B44769  10.001   8.965   7.053
 8440POPC   C4B44770  10.038   8.953   7.353
 8441POPC   NC344771  12.887   8.209   5.553
 8441POPC   PO444772  12.899   8.186   5.853
 8441POPC   GL144773  12.885   8.221   6.153
 8441POPC   GL244774  12.991   8.158   6.153
 8441POPC   C1A44775  12.835   8.171   6.453
 8441POPC   D2A44776  12.858   8.151   6.753
 8441POPC   C3A44777  12.822   8.196   7.053
 8441POPC   C4A44778  12.812   8.218   7.353
 8441POPC   C1B44779  13.137   8.207   6.453
 8441POPC   C2B44780  13.085   8.191   6.753
 8441POPC   C3B44781  13.150   8.151   7.053
 8441POPC   C4B44782  13.098   8.166   7.353
 8442POPC   NC344783  38.437   9.742   5.553
 8442POPC   PO444784  38.434   9.705   5.853
 8442POPC   GL144785  38.444   9.714   6.153
 8442POPC   GL244786  38.553   9.719   6.153
 8442POPC   C1A44787  38.498   9.759   6.453
 8442POPC   D2A44788  38.407   9.784   6.753
 8442POPC   C3A44789  38.477   9.780   7.053
 8442POPC   C4A44790  38.418   9.701   7.353
 8442POPC   C1B44791  38.738   9.675   6.453
 8442POPC   C2B44792  38.692   9.752   6.753
 8442POPC   C3B44793  38.711   9.719   7.053
 8442POPC   C4B44794  38.730   9.679   7.353
 8443POPC   NC344795   7.441  42.362   5.553
 8443POPC   PO444796   7.436  42.313   5.853
 8443POPC   GL144797   7.406  42.341   6.153
 8443POPC   GL244798   7.547  42.470   6.153
 8443POPC   C1A44799   7.463  42.345   6.453
 8443POPC   D2A44800   7.440  42.309   6.753
 8443POPC   C3A44801   7.380  42.371   7.053
 8443POPC   C4A44802   7.431  42.320   7.353
 8443POPC   C1B44803   7.552  42.519   6.453
 8443POPC   C2B44804   7.568  42.520   6.753
 8443POPC   C3B44805   7.627  42.560   7.053
 8443POPC   C4B44806   7.624  42.488   7.353
 8444POPC   NC344807  29.116  19.020   5.553
 8444POPC   PO444808  29.129  19.035   5.853
 8444POPC   GL144809  29.144  19.041   6.153
 8444POPC   GL244810  29.048  19.155   6.153
 8444POPC   C1A44811  29.120  19.035   6.453
 8444POPC   D2A44812  29.144  19.075   6.753
 8444POPC   C3A44813  29.186  19.051   7.053
 8444POPC   C4A44814  29.125  19.033   7.353
 8444POPC   C1B44815  28.881  19.144   6.453
 8444POPC   C2B44816  28.961  19.170   6.753
 8444POPC   C3B44817  28.957  19.202   7.053
 8444POPC   C4B44818  28.916  19.134   7.353
 8445POPC   NC344819  13.594   0.473   5.553
 8445POPC   PO444820  13.651   0.421   5.853
 8445POPC   GL144821  13.624   0.402   6.153
 8445POPC   GL244822  13.582   0.518   6.153
 8445POPC   C1A44823  13.663   0.430   6.453
 8445POPC   D2A44824  13.586   0.424   6.753
 8445POPC   C3A44825  13.620   0.483   7.053
 8445POPC   C4A44826  13.590   0.425   7.353
 8445POPC   C1B44827  13.607   0.640   6.453
 8445POPC   C2B44828  13.608   0.706   6.753
 8445POPC   C3B44829  13.599   0.688   7.053
 8445POPC   C4B44830  13.590   0.654   7.353
 8446POPC   NC344831   2.035  35.340   5.553
 8446POPC   PO444832   1.996  35.367   5.853
 8446POPC   GL144833   1.974  35.382   6.153
 8446POPC   GL244834   1.943  35.459   6.153
 8446POPC   C1A44835   1.961  35.360   6.453
 8446POPC   D2A44836   1.968  35.319   6.753
 8446POPC   C3A44837   1.960  35.358   7.053
 8446POPC   C4A44838   1.941  35.307   7.353
 8446POPC   C1B44839   1.820  35.513   6.453
 8446POPC   C2B44840   1.789  35.517   6.753
 8446POPC   C3B44841   1.776  35.545   7.053
 8446POPC   C4B44842   1.748  35.526   7.353
 8447POPC   NC344843   0.419  33.056   5.553
 8447POPC   PO444844   0.485  33.044   5.853
 8447POPC   GL144845   0.466  32.987   6.153
 8447POPC   GL244846   0.498  33.156   6.153
 8447POPC   C1A44847   0.439  33.061   6.453
 8447POPC   D2A44848   0.411  33.072   6.753
 8447POPC   C3A44849   0.428  32.997   7.053
 8447POPC   C4A44850   0.459  33.049   7.353
 8447POPC   C1B44851   0.555  33.270   6.453
 8447POPC   C2B44852   0.521  33.225   6.753
 8447POPC   C3B44853   0.545  33.254   7.053
 8447POPC   C4B44854   0.580  33.280   7.353
 8448POPC   NC344855  15.135  30.735   5.553
 8448POPC   PO444856  15.214  30.732   5.853
 8448POPC   GL144857  15.159  30.694   6.153
 8448POPC   GL244858  15.067  30.638   6.153
 8448POPC   C1A44859  15.209  30.699   6.453
 8448POPC   D2A44860  15.162  30.649   6.753
 8448POPC   C3A44861  15.161  30.743   7.053
 8448POPC   C4A44862  15.192  30.682   7.353
 8448POPC   C1B44863  15.046  30.497   6.453
 8448POPC   C2B44864  14.981  30.505   6.753
 8448POPC   C3B44865  15.030  30.516   7.053
 8448POPC   C4B44866  15.012  30.452   7.353
 8449POPC   NC344867   8.237  12.116   5.553
 8449POPC   PO444868   8.175  12.101   5.853
 8449POPC   GL144869   8.225  12.103   6.153
 8449POPC   GL244870   8.067  11.965   6.153
 8449POPC   C1A44871   8.241  12.113   6.453
 8449POPC   D2A44872   8.244  12.119   6.753
 8449POPC   C3A44873   8.172  12.028   7.053
 8449POPC   C4A44874   8.200  12.050   7.353
 8449POPC   C1B44875   8.011  11.963   6.453
 8449POPC   C2B44876   8.027  11.913   6.753
 8449POPC   C3B44877   8.017  11.965   7.053
 8449POPC   C4B44878   8.042  11.901   7.353
 8450POPC   NC344879  11.303  28.399   5.553
 8450POPC   PO444880  11.312  28.352   5.853
 8450POPC   GL144881  11.266  28.351   6.153
 8450POPC   GL244882  11.341  28.487   6.153
 8450POPC   C1A44883  11.261  28.380   6.453
 8450POPC   D2A44884  11.267  28.366   6.753
 8450POPC   C3A44885  11.325  28.365   7.053
 8450POPC   C4A44886  11.256  28.355   7.353
 8450POPC   C1B44887  11.398  28.617   6.453
 8450POPC   C2B44888  11.471  28.586   6.753
 8450POPC   C3B44889  11.422  28.553   7.053
 8450POPC   C4B44890  11.476  28.594   7.353
 8451POPC   NC344891  35.347   4.292   5.553
 8451POPC   PO444892  35.305   4.306   5.853
 8451POPC   GL144893  35.344   4.271   6.153
 8451POPC   GL244894  35.420   4.391   6.153
 8451POPC   C1A44895  35.358   4.307   6.453
 8451POPC   D2A44896  35.350   4.352   6.753
 8451POPC   C3A44897  35.337   4.321   7.053
 8451POPC   C4A44898  35.339   4.269   7.353
 8451POPC   C1B44899  35.601   4.399   6.453
 8451POPC   C2B44900  35.583   4.405   6.753
 8451POPC   C3B44901  35.588   4.437   7.053
 8451POPC   C4B44902  35.585   4.400   7.353
 8452POPC   NC344903   9.797  19.076   5.553
 8452POPC   PO444904   9.702  19.016   5.853
 8452POPC   GL144905   9.727  19.058   6.153
 8452POPC   GL244906   9.747  19.207   6.153
 8452POPC   C1A44907   9.757  19.075   6.453
 8452POPC   D2A44908   9.751  19.082   6.753
 8452POPC   C3A44909   9.706  19.105   7.053
 8452POPC   C4A44910   9.765  19.055   7.353
 8452POPC   C1B44911   9.614  19.258   6.453
 8452POPC   C2B44912   9.645  19.284   6.753
 8452POPC   C3B44913   9.696  19.241   7.053
 8452POPC   C4B44914   9.654  19.263   7.353
 8453POPC   NC344915  39.198  13.638   5.553
 8453POPC   PO444916  39.224  13.660   5.853
 8453POPC   GL144917  39.277  13.652   6.153
 8453POPC   GL244918  39.129  13.700   6.153
 8453POPC   C1A44919  39.182  13.590   6.453
 8453POPC   D2A44920  39.280  13.635   6.753
 8453POPC   C3A44921  39.264  13.654   7.053
 8453POPC   C4A44922  39.192  13.648   7.353
 8453POPC   C1B44923  38.948  13.698   6.453
 8453POPC   C2B44924  38.944  13.695   6.753
 8453POPC   C3B44925  38.941  13.745   7.053
 8453POPC   C4B44926  38.989  13.723   7.353
 8454POPC   NC344927  33.832  15.196   5.553
 8454POPC   PO444928  33.817  15.226   5.853
 8454POPC   GL144929  33.756  15.228   6.153
 8454POPC   GL244930  33.695  15.049   6.153
 8454POPC   C1A44931  33.758  15.207   6.453
 8454POPC   D2A44932  33.755  15.176   6.753
 8454POPC   C3A44933  33.782  15.147   7.053
 8454POPC   C4A44934  33.836  15.139   7.353
 8454POPC   C1B44935  33.650  15.046   6.453
 8454POPC   C2B44936  33.591  14.963   6.753
 8454POPC   C3B44937  33.652  15.000   7.053
 8454POPC   C4B44938  33.651  14.985   7.353
 8455POPC   NC344939   1.993   4.341   5.553
 8455POPC   PO444940   1.986   4.287   5.853
 8455POPC   GL144941   1.950   4.330   6.153
 8455POPC   GL244942   1.882   4.276   6.153
 8455POPC   C1A44943   2.026   4.300   6.453
 8455POPC   D2A44944   2.022   4.362   6.753
 8455POPC   C3A44945   1.959   4.303   7.053
 8455POPC   C4A44946   1.955   4.289   7.353
 8455POPC   C1B44947   1.780   4.176   6.453
 8455POPC   C2B44948   1.795   4.181   6.753
 8455POPC   C3B44949   1.816   4.151   7.053
 8455POPC   C4B44950   1.809   4.118   7.353
 8456POPC   NC344951   8.925   1.247   5.553
 8456POPC   PO444952   8.985   1.198   5.853
 8456POPC   GL144953   8.979   1.242   6.153
 8456POPC   GL244954   8.908   1.380   6.153
 8456POPC   C1A44955   9.004   1.237   6.453
 8456POPC   D2A44956   8.953   1.224   6.753
 8456POPC   C3A44957   8.974   1.224   7.053
 8456POPC   C4A44958   8.976   1.184   7.353
 8456POPC   C1B44959   8.899   1.449   6.453
 8456POPC   C2B44960   8.954   1.474   6.753
 8456POPC   C3B44961   8.966   1.461   7.053
 8456POPC   C4B44962   8.929   1.483   7.353
 8457POPC   NC344963  21.415  15.197   5.553
 8457POPC   PO444964  21.369  15.130   5.853
 8457POPC   GL144965  21.394  15.178   6.153
 8457POPC   GL244966  21.365  15.025   6.153
 8457POPC   C1A44967  21.426  15.185   6.453
 8457POPC   D2A44968  21.418  15.196   6.753
 8457POPC   C3A44969  21.342  15.188   7.053
 8457POPC   C4A44970  21.406  15.186   7.353
 8457POPC   C1B44971  21.326  14.958   6.453
 8457POPC   C2B44972  21.267  14.936   6.753
 8457POPC   C3B44973  21.317  14.995   7.053
 8457POPC   C4B44974  21.320  14.931   7.353
 8458POPC   NC344975  15.940  39.197   5.553
 8458POPC   PO444976  15.941  39.256   5.853
 8458POPC   GL144977  15.926  39.214   6.153
 8458POPC   GL244978  15.804  39.273   6.153
 8458POPC   C1A44979  15.946  39.194   6.453
 8458POPC   D2A44980  15.906  39.270   6.753
 8458POPC   C3A44981  15.948  39.266   7.053
 8458POPC   C4A44982  15.928  39.254   7.353
 8458POPC   C1B44983  15.692  39.226   6.453
 8458POPC   C2B44984  15.720  39.227   6.753
 8458POPC   C3B44985  15.731  39.201   7.053
 8458POPC   C4B44986  15.718  39.185   7.353
 8459POPC   NC344987  15.169  33.044   5.553
 8459POPC   PO444988  15.186  32.992   5.853
 8459POPC   GL144989  15.209  33.026   6.153
 8459POPC   GL244990  15.021  33.074   6.153
 8459POPC   C1A44991  15.204  32.980   6.453
 8459POPC   D2A44992  15.143  32.999   6.753
 8459POPC   C3A44993  15.188  33.046   7.053
 8459POPC   C4A44994  15.156  33.015   7.353
 8459POPC   C1B44995  14.940  33.091   6.453
 8459POPC   C2B44996  14.993  33.158   6.753
 8459POPC   C3B44997  14.917  33.125   7.053
 8459POPC   C4B44998  14.916  33.148   7.353
 8460POPC   NC344999  24.525  42.330   5.553
 8460POPC   PO445000  24.454  42.373   5.853
 8460POPC   GL145001  24.479  42.324   6.153
 8460POPC   GL245002  24.343  42.311   6.153
 8460POPC   C1A45003  24.459  42.376   6.453
 8460POPC   D2A45004  24.451  42.305   6.753
 8460POPC   C3A45005  24.446  42.367   7.053
 8460POPC   C4A45006  24.476  42.354   7.353
 8460POPC   C1B45007  24.239  42.322   6.453
 8460POPC   C2B45008  24.286  42.308   6.753
 8460POPC   C3B45009  24.246  42.326   7.053
 8460POPC   C4B45010  24.254  42.304   7.353
 8461POPC   NC345011  37.655   9.011   5.553
 8461POPC   PO445012  37.705   8.984   5.853
 8461POPC   GL145013  37.729   8.944   6.153
 8461POPC   GL245014  37.580   8.867   6.153
 8461POPC   C1A45015  37.629   8.949   6.453
 8461POPC   D2A45016  37.694   8.975   6.753
 8461POPC   C3A45017  37.669   8.957   7.053
 8461POPC   C4A45018  37.655   8.968   7.353
 8461POPC   C1B45019  37.524   8.730   6.453
 8461POPC   C2B45020  37.514   8.757   6.753
 8461POPC   C3B45021  37.518   8.743   7.053
 8461POPC   C4B45022  37.550   8.793   7.353
 8462POPC   NC345023   1.171  20.580   5.553
 8462POPC   PO445024   1.191  20.606   5.853
 8462POPC   GL145025   1.215  20.589   6.153
 8462POPC   GL245026   1.307  20.734   6.153
 8462POPC   C1A45027   1.192  20.565   6.453
 8462POPC   D2A45028   1.179  20.591   6.753
 8462POPC   C3A45029   1.256  20.601   7.053
 8462POPC   C4A45030   1.252  20.568   7.353
 8462POPC   C1B45031   1.358  20.856   6.453
 8462POPC   C2B45032   1.406  20.847   6.753
 8462POPC   C3B45033   1.333  20.824   7.053
 8462POPC   C4B45034   1.401  20.812   7.353
 8463POPC   NC345035   1.946  15.176   5.553
 8463POPC   PO445036   2.005  15.184   5.853
 8463POPC   GL145037   1.981  15.213   6.153
 8463POPC   GL245038   2.002  15.067   6.153
 8463POPC   C1A45039   1.955  15.188   6.453
 8463POPC   D2A45040   2.011  15.140   6.753
 8463POPC   C3A45041   1.972  15.181   7.053
 8463POPC   C4A45042   1.943  15.136   7.353
 8463POPC   C1B45043   1.916  14.898   6.453
 8463POPC   C2B45044   1.926  14.902   6.753
 8463POPC   C3B45045   1.876  14.923   7.053
 8463POPC   C4B45046   1.904  14.898   7.353
 8464POPC   NC345047   7.433   1.183   5.553
 8464POPC   PO445048   7.437   1.261   5.853
 8464POPC   GL145049   7.378   1.191   6.153
 8464POPC   GL245050   7.308   1.329   6.153
 8464POPC   C1A45051   7.467   1.179   6.453
 8464POPC   D2A45052   7.381   1.230   6.753
 8464POPC   C3A45053   7.385   1.189   7.053
 8464POPC   C4A45054   7.439   1.187   7.353
 8464POPC   C1B45055   7.274   1.416   6.453
 8464POPC   C2B45056   7.243   1.375   6.753
 8464POPC   C3B45057   7.306   1.446   7.053
 8464POPC   C4B45058   7.234   1.439   7.353
 8465POPC   NC345059   5.052  38.465   5.553
 8465POPC   PO445060   5.115  38.486   5.853
 8465POPC   GL145061   5.080  38.488   6.153
 8465POPC   GL245062   5.113  38.327   6.153
 8465POPC   C1A45063   5.100  38.500   6.453
 8465POPC   D2A45064   5.060  38.487   6.753
 8465POPC   C3A45065   5.110  38.474   7.053
 8465POPC   C4A45066   5.141  38.440   7.353
 8465POPC   C1B45067   5.161  38.175   6.453
 8465POPC   C2B45068   5.146  38.226   6.753
 8465POPC   C3B45069   5.197  38.184   7.053
 8465POPC   C4B45070   5.203  38.172   7.353
 8466POPC   NC345071  33.027   7.470   5.553
 8466POPC   PO445072  33.012   7.386   5.853
 8466POPC   GL145073  33.062   7.396   6.153
 8466POPC   GL245074  33.048   7.261   6.153
 8466POPC   C1A45075  33.010   7.445   6.453
 8466POPC   D2A45076  33.018   7.464   6.753
 8466POPC   C3A45077  33.015   7.406   7.053
 8466POPC   C4A45078  33.008   7.470   7.353
 8466POPC   C1B45079  33.030   7.164   6.453
 8466POPC   C2B45080  33.050   7.157   6.753
 8466POPC   C3B45081  33.023   7.142   7.053
 8466POPC   C4B45082  32.989   7.220   7.353
 8467POPC   NC345083  43.867  30.727   5.553
 8467POPC   PO445084  43.935  30.684   5.853
 8467POPC   GL145085  43.901  30.672   6.153
 8467POPC   GL245086  43.770  30.776   6.153
 8467POPC   C1A45087  43.864  30.723   6.453
 8467POPC   D2A45088  43.934  30.664   6.753
 8467POPC   C3A45089  43.881  30.684   7.053
 8467POPC   C4A45090  43.929  30.709   7.353
 8467POPC   C1B45091  43.709  30.790   6.453
 8467POPC   C2B45092  43.637  30.850   6.753
 8467POPC   C3B45093  43.710  30.819   7.053
 8467POPC   C4B45094  43.663  30.762   7.353
 8468POPC   NC345095  29.181   4.303   5.553
 8468POPC   PO445096  29.164   4.280   5.853
 8468POPC   GL145097  29.176   4.308   6.153
 8468POPC   GL245098  29.042   4.394   6.153
 8468POPC   C1A45099  29.187   4.347   6.453
 8468POPC   D2A45100  29.099   4.340   6.753
 8468POPC   C3A45101  29.152   4.273   7.053
 8468POPC   C4A45102  29.161   4.300   7.353
 8468POPC   C1B45103  28.934   4.514   6.453
 8468POPC   C2B45104  28.973   4.463   6.753
 8468POPC   C3B45105  28.953   4.501   7.053
 8468POPC   C4B45106  28.910   4.439   7.353
 8469POPC   NC345107  25.302   8.191   5.553
 8469POPC   PO445108  25.258   8.201   5.853
 8469POPC   GL145109  25.281   8.182   6.153
 8469POPC   GL245110  25.399   8.244   6.153
 8469POPC   C1A45111  25.306   8.227   6.453
 8469POPC   D2A45112  25.219   8.218   6.753
 8469POPC   C3A45113  25.236   8.174   7.053
 8469POPC   C4A45114  25.314   8.242   7.353
 8469POPC   C1B45115  25.545   8.198   6.453
 8469POPC   C2B45116  25.557   8.186   6.753
 8469POPC   C3B45117  25.466   8.203   7.053
 8469POPC   C4B45118  25.483   8.211   7.353
 8470POPC   NC345119  30.673  16.748   5.553
 8470POPC   PO445120  30.658  16.723   5.853
 8470POPC   GL145121  30.676  16.728   6.153
 8470POPC   GL245122  30.835  16.699   6.153
 8470POPC   C1A45123  30.704  16.771   6.453
 8470POPC   D2A45124  30.666  16.712   6.753
 8470POPC   C3A45125  30.662  16.684   7.053
 8470POPC   C4A45126  30.698  16.702   7.353
 8470POPC   C1B45127  30.932  16.694   6.453
 8470POPC   C2B45128  30.978  16.688   6.753
 8470POPC   C3B45129  30.991  16.718   7.053
 8470POPC   C4B45130  30.905  16.732   7.353
 8471POPC   NC345131  17.476   9.745   5.553
 8471POPC   PO445132  17.523   9.768   5.853
 8471POPC   GL145133  17.513   9.705   6.153
 8471POPC   GL245134  17.474   9.690   6.153
 8471POPC   C1A45135  17.463   9.754   6.453
 8471POPC   D2A45136  17.476   9.699   6.753
 8471POPC   C3A45137  17.497   9.717   7.053
 8471POPC   C4A45138  17.474   9.754   7.353
 8471POPC   C1B45139  17.338   9.543   6.453
 8471POPC   C2B45140  17.401   9.559   6.753
 8471POPC   C3B45141  17.389   9.549   7.053
 8471POPC   C4B45142  17.367   9.537   7.353
 8472POPC   NC345143  39.222  43.104   5.553
 8472POPC   PO445144  39.231  43.097   5.853
 8472POPC   GL145145  39.232  43.072   6.153
 8472POPC   GL245146  39.143  43.098   6.153
 8472POPC   C1A45147  39.240  43.066   6.453
 8472POPC   D2A45148  39.230  43.065   6.753
 8472POPC   C3A45149  39.192  43.075   7.053
 8472POPC   C4A45150  39.248  43.160   7.353
 8472POPC   C1B45151  38.952  43.043   6.453
 8472POPC   C2B45152  38.964  42.990   6.753
 8472POPC   C3B45153  38.989  43.015   7.053
 8472POPC   C4B45154  38.964  43.009   7.353
 8473POPC   NC345155  33.042  19.023   5.553
 8473POPC   PO445156  32.994  19.065   5.853
 8473POPC   GL145157  33.068  19.043   6.153
 8473POPC   GL245158  33.122  19.061   6.153
 8473POPC   C1A45159  32.977  19.067   6.453
 8473POPC   D2A45160  33.012  19.086   6.753
 8473POPC   C3A45161  32.976  19.015   7.053
 8473POPC   C4A45162  33.071  19.028   7.353
 8473POPC   C1B45163  33.256  19.116   6.453
 8473POPC   C2B45164  33.259  19.164   6.753
 8473POPC   C3B45165  33.231  19.153   7.053
 8473POPC   C4B45166  33.263  19.137   7.353
 8474POPC   NC345167  19.054  27.561   5.553
 8474POPC   PO445168  19.026  27.566   5.853
 8474POPC   GL145169  19.041  27.636   6.153
 8474POPC   GL245170  18.911  27.694   6.153
 8474POPC   C1A45171  19.066  27.564   6.453
 8474POPC   D2A45172  19.048  27.624   6.753
 8474POPC   C3A45173  19.026  27.568   7.053
 8474POPC   C4A45174  19.096  27.580   7.353
 8474POPC   C1B45175  18.855  27.703   6.453
 8474POPC   C2B45176  18.797  27.681   6.753
 8474POPC   C3B45177  18.841  27.705   7.053
 8474POPC   C4B45178  18.831  27.695   7.353
 8475POPC   NC345179   3.552  13.584   5.553
 8475POPC   PO445180   3.492  13.620   5.853
 8475POPC   GL145181   3.520  13.591   6.153
 8475POPC   GL245182   3.454  13.688   6.153
 8475POPC   C1A45183   3.515  13.641   6.453
 8475POPC   D2A45184   3.552  13.618   6.753
 8475POPC   C3A45185   3.528  13.587   7.053
 8475POPC   C4A45186   3.535  13.636   7.353
 8475POPC   C1B45187   3.299  13.779   6.453
 8475POPC   C2B45188   3.342  13.697   6.753
 8475POPC   C3B45189   3.304  13.721   7.053
 8475POPC   C4B45190   3.293  13.713   7.353
 8476POPC   NC345191  24.518  35.346   5.553
 8476POPC   PO445192  24.482  35.323   5.853
 8476POPC   GL145193  24.471  35.402   6.153
 8476POPC   GL245194  24.526  35.266   6.153
 8476POPC   C1A45195  24.452  35.341   6.453
 8476POPC   D2A45196  24.517  35.369   6.753
 8476POPC   C3A45197  24.474  35.324   7.053
 8476POPC   C4A45198  24.531  35.372   7.353
 8476POPC   C1B45199  24.555  35.056   6.453
 8476POPC   C2B45200  24.549  35.076   6.753
 8476POPC   C3B45201  24.577  35.122   7.053
 8476POPC   C4B45202  24.580  35.143   7.353
 8477POPC   NC345203   6.623   3.540   5.553
 8477POPC   PO445204   6.654   3.546   5.853
 8477POPC   GL145205   6.674   3.584   6.153
 8477POPC   GL245206   6.738   3.570   6.153
 8477POPC   C1A45207   6.611   3.565   6.453
 8477POPC   D2A45208   6.655   3.527   6.753
 8477POPC   C3A45209   6.619   3.579   7.053
 8477POPC   C4A45210   6.683   3.510   7.353
 8477POPC   C1B45211   6.895   3.639   6.453
 8477POPC   C2B45212   6.859   3.615   6.753
 8477POPC   C3B45213   6.908   3.557   7.053
 8477POPC   C4B45214   6.905   3.629   7.353
 8478POPC   NC345215   1.210  40.793   5.553
 8478POPC   PO445216   1.167  40.737   5.853
 8478POPC   GL145217   1.184  40.808   6.153
 8478POPC   GL245218   1.189  40.860   6.153
 8478POPC   C1A45219   1.192  40.829   6.453
 8478POPC   D2A45220   1.173  40.817   6.753
 8478POPC   C3A45221   1.264  40.756   7.053
 8478POPC   C4A45222   1.173  40.799   7.353
 8478POPC   C1B45223   1.209  41.043   6.453
 8478POPC   C2B45224   1.240  41.077   6.753
 8478POPC   C3B45225   1.217  41.069   7.053
 8478POPC   C4B45226   1.230  41.052   7.353
 8479POPC   NC345227  19.884  26.017   5.553
 8479POPC   PO445228  19.818  26.039   5.853
 8479POPC   GL145229  19.856  26.021   6.153
 8479POPC   GL245230  19.736  26.026   6.153
 8479POPC   C1A45231  19.798  26.070   6.453
 8479POPC   D2A45232  19.789  26.077   6.753
 8479POPC   C3A45233  19.853  26.088   7.053
 8479POPC   C4A45234  19.880  26.048   7.353
 8479POPC   C1B45235  19.590  25.980   6.453
 8479POPC   C2B45236  19.600  25.947   6.753
 8479POPC   C3B45237  19.601  25.934   7.053
 8479POPC   C4B45238  19.547  25.987   7.353
 8480POPC   NC345239   2.783   5.840   5.553
 8480POPC   PO445240   2.723   5.874   5.853
 8480POPC   GL145241   2.757   5.819   6.153
 8480POPC   GL245242   2.832   5.987   6.153
 8480POPC   C1A45243   2.780   5.895   6.453
 8480POPC   D2A45244   2.768   5.821   6.753
 8480POPC   C3A45245   2.815   5.848   7.053
 8480POPC   C4A45246   2.722   5.869   7.353
 8480POPC   C1B45247   2.978   6.091   6.453
 8480POPC   C2B45248   2.937   6.048   6.753
 8480POPC   C3B45249   2.946   6.027   7.053
 8480POPC   C4B45250   2.896   6.021   7.353
 8481POPC   NC345251  21.345  30.718   5.553
 8481POPC   PO445252  21.395  30.665   5.853
 8481POPC   GL145253  21.380  30.713   6.153
 8481POPC   GL245254  21.455  30.614   6.153
 8481POPC   C1A45255  21.407  30.744   6.453
 8481POPC   D2A45256  21.378  30.706   6.753
 8481POPC   C3A45257  21.366  30.662   7.053
 8481POPC   C4A45258  21.376  30.736   7.353
 8481POPC   C1B45259  21.541  30.423   6.453
 8481POPC   C2B45260  21.500  30.477   6.753
 8481POPC   C3B45261  21.467  30.431   7.053
 8481POPC   C4B45262  21.455  30.501   7.353
 8482POPC   NC345263  29.136  25.246   5.553
 8482POPC   PO445264  29.159  25.244   5.853
 8482POPC   GL145265  29.108  25.277   6.153
 8482POPC   GL245266  28.983  25.228   6.153
 8482POPC   C1A45267  29.163  25.257   6.453
 8482POPC   D2A45268  29.127  25.299   6.753
 8482POPC   C3A45269  29.157  25.255   7.053
 8482POPC   C4A45270  29.151  25.285   7.353
 8482POPC   C1B45271  28.893  25.173   6.453
 8482POPC   C2B45272  28.909  25.171   6.753
 8482POPC   C3B45273  28.947  25.202   7.053
 8482POPC   C4B45274  28.885  25.215   7.353
 8483POPC   NC345275  32.217  43.914   5.553
 8483POPC   PO445276  32.246  43.862   5.853
 8483POPC   GL145277  32.256  43.928   6.153
 8483POPC   GL245278  32.409  43.875   6.153
 8483POPC   C1A45279  32.266  43.914   6.453
 8483POPC   D2A45280  32.227  43.856   6.753
 8483POPC   C3A45281  32.205  43.882   7.053
 8483POPC   C4A45282  32.296  43.904   7.353
 8483POPC   C1B45283  32.511  43.873   6.453
 8483POPC   C2B45284  32.498  43.828   6.753
 8483POPC   C3B45285  32.484  43.815   7.053
 8483POPC   C4B45286  32.445  43.842   7.353
 8484POPC   NC345287  32.221   5.918   5.553
 8484POPC   PO445288  32.268   5.895   5.853
 8484POPC   GL145289  32.256   5.837   6.153
 8484POPC   GL245290  32.404   5.930   6.153
 8484POPC   C1A45291  32.239   5.852   6.453
 8484POPC   D2A45292  32.238   5.843   6.753
 8484POPC   C3A45293  32.295   5.849   7.053
 8484POPC   C4A45294  32.268   5.871   7.353
 8484POPC   C1B45295  32.468   5.892   6.453
 8484POPC   C2B45296  32.453   5.876   6.753
 8484POPC   C3B45297  32.532   5.967   7.053
 8484POPC   C4B45298  32.484   5.897   7.353
 8485POPC   NC345299   1.188  24.521   5.553
 8485POPC   PO445300   1.173  24.440   5.853
 8485POPC   GL145301   1.196  24.440   6.153
 8485POPC   GL245302   1.077  24.428   6.153
 8485POPC   C1A45303   1.247  24.539   6.453
 8485POPC   D2A45304   1.199  24.496   6.753
 8485POPC   C3A45305   1.186  24.511   7.053
 8485POPC   C4A45306   1.263  24.498   7.353
 8485POPC   C1B45307   1.002  24.409   6.453
 8485POPC   C2B45308   0.988  24.377   6.753
 8485POPC   C3B45309   0.987  24.403   7.053
 8485POPC   C4B45310   1.042  24.390   7.353
 8486POPC   NC345311  16.698  32.978   5.553
 8486POPC   PO445312  16.718  33.071   5.853
 8486POPC   GL145313  16.744  33.046   6.153
 8486POPC   GL245314  16.580  33.080   6.153
 8486POPC   C1A45315  16.751  33.068   6.453
 8486POPC   D2A45316  16.760  33.045   6.753
 8486POPC   C3A45317  16.778  33.019   7.053
 8486POPC   C4A45318  16.748  33.032   7.353
 8486POPC   C1B45319  16.475  33.128   6.453
 8486POPC   C2B45320  16.476  33.069   6.753
 8486POPC   C3B45321  16.487  33.107   7.053
 8486POPC   C4B45322  16.447  33.041   7.353
 8487POPC   NC345323   8.966  12.810   5.553
 8487POPC   PO445324   8.949  12.802   5.853
 8487POPC   GL145325   8.981  12.851   6.153
 8487POPC   GL245326   9.013  12.744   6.153
 8487POPC   C1A45327   8.941  12.855   6.453
 8487POPC   D2A45328   8.999  12.826   6.753
 8487POPC   C3A45329   8.939  12.879   7.053
 8487POPC   C4A45330   9.010  12.822   7.353
 8487POPC   C1B45331   9.013  12.562   6.453
 8487POPC   C2B45332   9.037  12.645   6.753
 8487POPC   C3B45333   8.990  12.630   7.053
 8487POPC   C4B45334   8.961  12.563   7.353
 8488POPC   NC345335  29.145  29.147   5.553
 8488POPC   PO445336  29.144  29.147   5.853
 8488POPC   GL145337  29.168  29.110   6.153
 8488POPC   GL245338  29.060  29.207   6.153
 8488POPC   C1A45339  29.157  29.152   6.453
 8488POPC   D2A45340  29.124  29.111   6.753
 8488POPC   C3A45341  29.137  29.131   7.053
 8488POPC   C4A45342  29.144  29.139   7.353
 8488POPC   C1B45343  28.987  29.302   6.453
 8488POPC   C2B45344  28.953  29.310   6.753
 8488POPC   C3B45345  28.923  29.326   7.053
 8488POPC   C4B45346  28.946  29.320   7.353
 8489POPC   NC345347   2.782  34.603   5.553
 8489POPC   PO445348   2.722  34.563   5.853
 8489POPC   GL145349   2.811  34.586   6.153
 8489POPC   GL245350   2.676  34.565   6.153
 8489POPC   C1A45351   2.747  34.556   6.453
 8489POPC   D2A45352   2.768  34.553   6.753
 8489POPC   C3A45353   2.739  34.614   7.053
 8489POPC   C4A45354   2.747  34.600   7.353
 8489POPC   C1B45355   2.531  34.594   6.453
 8489POPC   C2B45356   2.507  34.542   6.753
 8489POPC   C3B45357   2.521  34.542   7.053
 8489POPC   C4B45358   2.514  34.552   7.353
 8490POPC   NC345359  14.403  19.056   5.553
 8490POPC   PO445360  14.408  19.089   5.853
 8490POPC   GL145361  14.392  19.088   6.153
 8490POPC   GL245362  14.504  18.983   6.153
 8490POPC   C1A45363  14.414  19.106   6.453
 8490POPC   D2A45364  14.367  19.100   6.753
 8490POPC   C3A45365  14.383  19.058   7.053
 8490POPC   C4A45366  14.383  19.063   7.353
 8490POPC   C1B45367  14.658  18.963   6.453
 8490POPC   C2B45368  14.627  18.928   6.753
 8490POPC   C3B45369  14.670  18.983   7.053
 8490POPC   C4B45370  14.670  18.919   7.353
 8491POPC   NC345371  38.462   3.528   5.553
 8491POPC   PO445372  38.470   3.512   5.853
 8491POPC   GL145373  38.459   3.522   6.153
 8491POPC   GL245374  38.584   3.510   6.153
 8491POPC   C1A45375  38.447   3.530   6.453
 8491POPC   D2A45376  38.421   3.558   6.753
 8491POPC   C3A45377  38.424   3.569   7.053
 8491POPC   C4A45378  38.437   3.531   7.353
 8491POPC   C1B45379  38.673   3.431   6.453
 8491POPC   C2B45380  38.685   3.514   6.753
 8491POPC   C3B45381  38.648   3.496   7.053
 8491POPC   C4B45382  38.680   3.519   7.353
 8492POPC   NC345383  26.796  43.135   5.553
 8492POPC   PO445384  26.773  43.117   5.853
 8492POPC   GL145385  26.803  43.110   6.153
 8492POPC   GL245386  26.973  43.153   6.153
 8492POPC   C1A45387  26.786  43.123   6.453
 8492POPC   D2A45388  26.824  43.152   6.753
 8492POPC   C3A45389  26.855  43.143   7.053
 8492POPC   C4A45390  26.823  43.150   7.353
 8492POPC   C1B45391  27.110  43.131   6.453
 8492POPC   C2B45392  27.052  43.168   6.753
 8492POPC   C3B45393  27.085  43.106   7.053
 8492POPC   C4B45394  27.082  43.135   7.353
 8493POPC   NC345395  36.953   2.800   5.553
 8493POPC   PO445396  36.885   2.810   5.853
 8493POPC   GL145397  36.945   2.796   6.153
 8493POPC   GL245398  36.912   2.595   6.153
 8493POPC   C1A45399  36.886   2.750   6.453
 8493POPC   D2A45400  36.949   2.724   6.753
 8493POPC   C3A45401  36.944   2.798   7.053
 8493POPC   C4A45402  36.932   2.719   7.353
 8493POPC   C1B45403  36.981   2.544   6.453
 8493POPC   C2B45404  36.970   2.480   6.753
 8493POPC   C3B45405  36.949   2.556   7.053
 8493POPC   C4B45406  36.902   2.547   7.353
 8494POPC   NC345407   4.332  35.378   5.553
 8494POPC   PO445408   4.330  35.365   5.853
 8494POPC   GL145409   4.320  35.372   6.153
 8494POPC   GL245410   4.313  35.268   6.153
 8494POPC   C1A45411   4.339  35.367   6.453
 8494POPC   D2A45412   4.344  35.308   6.753
 8494POPC   C3A45413   4.364  35.307   7.053
 8494POPC   C4A45414   4.281  35.357   7.353
 8494POPC   C1B45415   4.305  35.148   6.453
 8494POPC   C2B45416   4.275  35.132   6.753
 8494POPC   C3B45417   4.308  35.053   7.053
 8494POPC   C4B45418   4.338  35.119   7.353
 8495POPC   NC345419  44.695  29.942   5.553
 8495POPC   PO445420  44.674  29.937   5.853
 8495POPC   GL145421  44.691  29.899   6.153
 8495POPC   GL245422  44.601  29.766   6.153
 8495POPC   C1A45423  44.653  29.894   6.453
 8495POPC   D2A45424  44.680  29.893   6.753
 8495POPC   C3A45425  44.681  29.888   7.053
 8495POPC   C4A45426  44.613  29.965   7.353
 8495POPC   C1B45427  44.586  29.715   6.453
 8495POPC   C2B45428  44.575  29.730   6.753
 8495POPC   C3B45429  44.531  29.664   7.053
 8495POPC   C4B45430  44.568  29.706   7.353
 8496POPC   NC345431   4.361   2.002   5.553
 8496POPC   PO445432   4.269   1.966   5.853
 8496POPC   GL145433   4.353   1.941   6.153
 8496POPC   GL245434   4.413   1.922   6.153
 8496POPC   C1A45435   4.355   1.976   6.453
 8496POPC   D2A45436   4.362   1.991   6.753
 8496POPC   C3A45437   4.364   2.027   7.053
 8496POPC   C4A45438   4.343   2.033   7.353
 8496POPC   C1B45439   4.422   1.791   6.453
 8496POPC   C2B45440   4.449   1.741   6.753
 8496POPC   C3B45441   4.504   1.778   7.053
 8496POPC   C4B45442   4.415   1.827   7.353
 8497POPC   NC345443  44.706  31.454   5.553
 8497POPC   PO445444  44.693  31.451   5.853
 8497POPC   GL145445  44.680  31.485   6.153
 8497POPC   GL245446  44.713  31.353   6.153
 8497POPC   C1A45447  44.615  31.493   6.453
 8497POPC   D2A45448  44.637  31.495   6.753
 8497POPC   C3A45449  44.625  31.445   7.053
 8497POPC   C4A45450  44.621  31.443   7.353
 8497POPC   C1B45451  44.796  31.265   6.453
 8497POPC   C2B45452  44.756  31.225   6.753
 8497POPC   C3B45453  44.797  31.273   7.053
 8497POPC   C4B45454  44.773  31.264   7.353
 8498POPC   NC345455  13.609  39.965   5.553
 8498POPC   PO445456  13.596  40.021   5.853
 8498POPC   GL145457  13.667  40.037   6.153
 8498POPC   GL245458  13.763  40.061   6.153
 8498POPC   C1A45459  13.639  39.967   6.453
 8498POPC   D2A45460  13.653  40.012   6.753
 8498POPC   C3A45461  13.600  40.047   7.053
 8498POPC   C4A45462  13.663  40.054   7.353
 8498POPC   C1B45463  13.886  40.001   6.453
 8498POPC   C2B45464  13.922  40.007   6.753
 8498POPC   C3B45465  13.884  40.063   7.053
 8498POPC   C4B45466  13.892  39.984   7.353
 8499POPC   NC345467  15.217  44.635   5.553
 8499POPC   PO445468  15.185  44.625   5.853
 8499POPC   GL145469  15.185  44.675   6.153
 8499POPC   GL245470  15.227  44.517   6.153
 8499POPC   C1A45471  15.150  44.691   6.453
 8499POPC   D2A45472  15.224  44.692   6.753
 8499POPC   C3A45473  15.152  44.639   7.053
 8499POPC   C4A45474  15.154  44.641   7.353
 8499POPC   C1B45475  15.232  44.381   6.453
 8499POPC   C2B45476  15.179  44.429   6.753
 8499POPC   C3B45477  15.168  44.439   7.053
 8499POPC   C4B45478  15.226  44.430   7.353
 8500POPC   NC345479  17.474  22.986   5.553
 8500POPC   PO445480  17.497  22.899   5.853
 8500POPC   GL145481  17.485  22.963   6.153
 8500POPC   GL245482  17.542  23.006   6.153
 8500POPC   C1A45483  17.497  22.891   6.453
 8500POPC   D2A45484  17.492  22.924   6.753
 8500POPC   C3A45485  17.547  22.919   7.053
 8500POPC   C4A45486  17.551  22.978   7.353
 8500POPC   C1B45487  17.597  23.196   6.453
 8500POPC   C2B45488  17.641  23.164   6.753
 8500POPC   C3B45489  17.677  23.155   7.053
 8500POPC   C4B45490  17.627  23.185   7.353
 8501POPC   NC345491  29.959  26.001   5.553
 8501POPC   PO445492  29.930  26.002   5.853
 8501POPC   GL145493  29.942  26.070   6.153
 8501POPC   GL245494  29.963  26.137   6.153
 8501POPC   C1A45495  29.889  26.066   6.453
 8501POPC   D2A45496  29.949  26.090   6.753
 8501POPC   C3A45497  29.907  25.994   7.053
 8501POPC   C4A45498  29.938  26.013   7.353
 8501POPC   C1B45499  30.088  26.210   6.453
 8501POPC   C2B45500  30.063  26.220   6.753
 8501POPC   C3B45501  30.073  26.255   7.053
 8501POPC   C4B45502  30.021  26.292   7.353
 8502POPC   NC345503  33.818  36.937   5.553
 8502POPC   PO445504  33.818  36.946   5.853
 8502POPC   GL145505  33.773  36.925   6.153
 8502POPC   GL245506  33.745  36.969   6.153
 8502POPC   C1A45507  33.837  36.928   6.453
 8502POPC   D2A45508  33.808  36.920   6.753
 8502POPC   C3A45509  33.766  36.879   7.053
 8502POPC   C4A45510  33.816  36.894   7.353
 8502POPC   C1B45511  33.621  37.053   6.453
 8502POPC   C2B45512  33.618  37.108   6.753
 8502POPC   C3B45513  33.619  37.124   7.053
 8502POPC   C4B45514  33.672  37.126   7.353
 8503POPC   NC345515   1.942   1.232   5.553
 8503POPC   PO445516   2.002   1.244   5.853
 8503POPC   GL145517   1.953   1.232   6.153
 8503POPC   GL245518   1.942   1.146   6.153
 8503POPC   C1A45519   1.976   1.255   6.453
 8503POPC   D2A45520   2.012   1.259   6.753
 8503POPC   C3A45521   1.961   1.236   7.053
 8503POPC   C4A45522   2.033   1.197   7.353
 8503POPC   C1B45523   1.866   1.048   6.453
 8503POPC   C2B45524   1.891   1.041   6.753
 8503POPC   C3B45525   1.804   1.021   7.053
 8503POPC   C4B45526   1.819   1.007   7.353
 8504POPC   NC345527  31.435   1.980   5.553
 8504POPC   PO445528  31.432   2.021   5.853
 8504POPC   GL145529  31.485   1.996   6.153
 8504POPC   GL245530  31.511   1.903   6.153
 8504POPC   C1A45531  31.473   1.953   6.453
 8504POPC   D2A45532  31.521   2.029   6.753
 8504POPC   C3A45533  31.475   2.013   7.053
 8504POPC   C4A45534  31.503   1.978   7.353
 8504POPC   C1B45535  31.580   1.750   6.453
 8504POPC   C2B45536  31.634   1.771   6.753
 8504POPC   C3B45537  31.638   1.814   7.053
 8504POPC   C4B45538  31.616   1.813   7.353
 8505POPC   NC345539  25.233  40.820   5.553
 8505POPC   PO445540  25.218  40.769   5.853
 8505POPC   GL145541  25.231  40.764   6.153
 8505POPC   GL245542  25.303  40.660   6.153
 8505POPC   C1A45543  25.273  40.783   6.453
 8505POPC   D2A45544  25.292  40.780   6.753
 8505POPC   C3A45545  25.246  40.786   7.053
 8505POPC   C4A45546  25.260  40.739   7.353
 8505POPC   C1B45547  25.387  40.605   6.453
 8505POPC   C2B45548  25.447  40.567   6.753
 8505POPC   C3B45549  25.405  40.594   7.053
 8505POPC   C4B45550  25.397  40.580   7.353
 8506POPC   NC345551  29.962  15.196   5.553
 8506POPC   PO445552  29.914  15.151   5.853
 8506POPC   GL145553  29.963  15.203   6.153
 8506POPC   GL245554  30.022  15.198   6.153
 8506POPC   C1A45555  29.900  15.223   6.453
 8506POPC   D2A45556  29.917  15.176   6.753
 8506POPC   C3A45557  29.940  15.154   7.053
 8506POPC   C4A45558  29.905  15.144   7.353
 8506POPC   C1B45559  30.157  15.256   6.453
 8506POPC   C2B45560  30.107  15.283   6.753
 8506POPC   C3B45561  30.122  15.307   7.053
 8506POPC   C4B45562  30.140  15.258   7.353
 8507POPC   NC345563  43.873  21.356   5.553
 8507POPC   PO445564  43.843  21.339   5.853
 8507POPC   GL145565  43.866  21.387   6.153
 8507POPC   GL245566  43.711  21.395   6.153
 8507POPC   C1A45567  43.836  21.400   6.453
 8507POPC   D2A45568  43.867  21.373   6.753
 8507POPC   C3A45569  43.880  21.413   7.053
 8507POPC   C4A45570  43.909  21.376   7.353
 8507POPC   C1B45571  43.671  21.353   6.453
 8507POPC   C2B45572  43.622  21.379   6.753
 8507POPC   C3B45573  43.607  21.378   7.053
 8507POPC   C4B45574  43.636  21.360   7.353
 8508POPC   NC345575  32.210  20.631   5.553
 8508POPC   PO445576  32.272  20.597   5.853
 8508POPC   GL145577  32.288  20.568   6.153
 8508POPC   GL245578  32.328  20.518   6.153
 8508POPC   C1A45579  32.287  20.621   6.453
 8508POPC   D2A45580  32.243  20.599   6.753
 8508POPC   C3A45581  32.249  20.639   7.053
 8508POPC   C4A45582  32.264  20.572   7.353
 8508POPC   C1B45583  32.413  20.395   6.453
 8508POPC   C2B45584  32.404  20.439   6.753
 8508POPC   C3B45585  32.417  20.411   7.053
 8508POPC   C4B45586  32.365  20.413   7.353
 8509POPC   NC345587  34.555  15.926   5.553
 8509POPC   PO445588  34.605  15.986   5.853
 8509POPC   GL145589  34.613  15.994   6.153
 8509POPC   GL245590  34.566  16.108   6.153
 8509POPC   C1A45591  34.610  15.981   6.453
 8509POPC   D2A45592  34.553  15.949   6.753
 8509POPC   C3A45593  34.572  15.918   7.053
 8509POPC   C4A45594  34.584  15.960   7.353
 8509POPC   C1B45595  34.485  16.159   6.453
 8509POPC   C2B45596  34.448  16.233   6.753
 8509POPC   C3B45597  34.494  16.162   7.053
 8509POPC   C4B45598  34.434  16.200   7.353
 8510POPC   NC345599  41.518  19.098   5.553
 8510POPC   PO445600  41.529  19.022   5.853
 8510POPC   GL145601  41.574  19.064   6.153
 8510POPC   GL245602  41.647  19.126   6.153
 8510POPC   C1A45603  41.533  19.088   6.453
 8510POPC   D2A45604  41.606  19.106   6.753
 8510POPC   C3A45605  41.561  19.032   7.053
 8510POPC   C4A45606  41.591  19.055   7.353
 8510POPC   C1B45607  41.783  19.108   6.453
 8510POPC   C2B45608  41.757  19.174   6.753
 8510POPC   C3B45609  41.758  19.137   7.053
 8510POPC   C4B45610  41.824  19.163   7.353
 8511POPC   NC345611  40.823  39.201   5.553
 8511POPC   PO445612  40.786  39.230   5.853
 8511POPC   GL145613  40.756  39.239   6.153
 8511POPC   GL245614  40.714  39.295   6.153
 8511POPC   C1A45615  40.745  39.246   6.453
 8511POPC   D2A45616  40.812  39.199   6.753
 8511POPC   C3A45617  40.750  39.238   7.053
 8511POPC   C4A45618  40.793  39.203   7.353
 8511POPC   C1B45619  40.708  39.412   6.453
 8511POPC   C2B45620  40.644  39.428   6.753
 8511POPC   C3B45621  40.685  39.472   7.053
 8511POPC   C4B45622  40.726  39.439   7.353
 8512POPC   NC345623  21.346  11.300   5.553
 8512POPC   PO445624  21.376  11.325   5.853
 8512POPC   GL145625  21.379  11.272   6.153
 8512POPC   GL245626  21.377  11.412   6.153
 8512POPC   C1A45627  21.378  11.340   6.453
 8512POPC   D2A45628  21.376  11.334   6.753
 8512POPC   C3A45629  21.354  11.253   7.053
 8512POPC   C4A45630  21.340  11.299   7.353
 8512POPC   C1B45631  21.377  11.563   6.453
 8512POPC   C2B45632  21.410  11.592   6.753
 8512POPC   C3B45633  21.394  11.565   7.053
 8512POPC   C4B45634  21.384  11.593   7.353
 8513POPC   NC345635   3.528   8.923   5.553
 8513POPC   PO445636   3.504   8.973   5.853
 8513POPC   GL145637   3.546   9.018   6.153
 8513POPC   GL245638   3.615   9.027   6.153
 8513POPC   C1A45639   3.527   8.934   6.453
 8513POPC   D2A45640   3.567   9.022   6.753
 8513POPC   C3A45641   3.560   8.942   7.053
 8513POPC   C4A45642   3.491   8.999   7.353
 8513POPC   C1B45643   3.780   9.022   6.453
 8513POPC   C2B45644   3.783   9.090   6.753
 8513POPC   C3B45645   3.785   9.051   7.053
 8513POPC   C4B45646   3.795   9.031   7.353
 8514POPC   NC345647  25.260  15.225   5.553
 8514POPC   PO445648  25.249  15.157   5.853
 8514POPC   GL145649  25.251  15.217   6.153
 8514POPC   GL245650  25.378  15.248   6.153
 8514POPC   C1A45651  25.297  15.194   6.453
 8514POPC   D2A45652  25.261  15.164   6.753
 8514POPC   C3A45653  25.275  15.175   7.053
 8514POPC   C4A45654  25.259  15.200   7.353
 8514POPC   C1B45655  25.454  15.387   6.453
 8514POPC   C2B45656  25.494  15.292   6.753
 8514POPC   C3B45657  25.468  15.342   7.053
 8514POPC   C4B45658  25.453  15.356   7.353
 8515POPC   NC345659  18.237   8.929   5.553
 8515POPC   PO445660  18.242   8.960   5.853
 8515POPC   GL145661  18.305   8.952   6.153
 8515POPC   GL245662  18.395   8.994   6.153
 8515POPC   C1A45663  18.296   8.936   6.453
 8515POPC   D2A45664  18.243   9.017   6.753
 8515POPC   C3A45665  18.285   8.979   7.053
 8515POPC   C4A45666  18.319   8.963   7.353
 8515POPC   C1B45667  18.486   8.913   6.453
 8515POPC   C2B45668  18.523   8.976   6.753
 8515POPC   C3B45669  18.488   8.928   7.053
 8515POPC   C4B45670  18.507   8.970   7.353
 8516POPC   NC345671  11.255  36.905   5.553
 8516POPC   PO445672  11.285  36.921   5.853
 8516POPC   GL145673  11.286  36.896   6.153
 8516POPC   GL245674  11.199  36.967   6.153
 8516POPC   C1A45675  11.339  36.944   6.453
 8516POPC   D2A45676  11.348  36.895   6.753
 8516POPC   C3A45677  11.288  36.920   7.053
 8516POPC   C4A45678  11.344  36.890   7.353
 8516POPC   C1B45679  11.150  37.077   6.453
 8516POPC   C2B45680  11.185  37.162   6.753
 8516POPC   C3B45681  11.150  37.136   7.053
 8516POPC   C4B45682  11.119  37.141   7.353
 8517POPC   NC345683  40.002  22.985   5.553
 8517POPC   PO445684  39.990  22.974   5.853
 8517POPC   GL145685  40.049  22.985   6.153
 8517POPC   GL245686  40.015  23.054   6.153
 8517POPC   C1A45687  39.963  22.962   6.453
 8517POPC   D2A45688  40.045  22.888   6.753
 8517POPC   C3A45689  40.032  22.965   7.053
 8517POPC   C4A45690  39.995  22.933   7.353
 8517POPC   C1B45691  39.963  23.186   6.453
 8517POPC   C2B45692  39.901  23.211   6.753
 8517POPC   C3B45693  39.987  23.151   7.053
 8517POPC   C4B45694  39.898  23.196   7.353
 8518POPC   NC345695  36.158   4.326   5.553
 8518POPC   PO445696  36.155   4.312   5.853
 8518POPC   GL145697  36.122   4.357   6.153
 8518POPC   GL245698  35.983   4.286   6.153
 8518POPC   C1A45699  36.174   4.324   6.453
 8518POPC   D2A45700  36.084   4.325   6.753
 8518POPC   C3A45701  36.170   4.288   7.053
 8518POPC   C4A45702  36.149   4.331   7.353
 8518POPC   C1B45703  35.869   4.351   6.453
 8518POPC   C2B45704  35.898   4.376   6.753
 8518POPC   C3B45705  35.838   4.389   7.053
 8518POPC   C4B45706  35.848   4.323   7.353
 8519POPC   NC345707  11.320  19.795   5.553
 8519POPC   PO445708  11.257  19.832   5.853
 8519POPC   GL145709  11.269  19.880   6.153
 8519POPC   GL245710  11.158  19.829   6.153
 8519POPC   C1A45711  11.326  19.850   6.453
 8519POPC   D2A45712  11.315  19.877   6.753
 8519POPC   C3A45713  11.304  19.826   7.053
 8519POPC   C4A45714  11.284  19.846   7.353
 8519POPC   C1B45715  11.042  19.703   6.453
 8519POPC   C2B45716  11.111  19.783   6.753
 8519POPC   C3B45717  11.096  19.733   7.053
 8519POPC   C4B45718  11.109  19.792   7.353
 8520POPC   NC345719  25.277  10.567   5.553
 8520POPC   PO445720  25.282  10.574   5.853
 8520POPC   GL145721  25.227  10.556   6.153
 8520POPC   GL245722  25.180  10.631   6.153
 8520POPC   C1A45723  25.216  10.541   6.453
 8520POPC   D2A45724  25.242  10.530   6.753
 8520POPC   C3A45725  25.275  10.509   7.053
 8520POPC   C4A45726  25.302  10.568   7.353
 8520POPC   C1B45727  25.179  10.750   6.453
 8520POPC   C2B45728  25.150  10.747   6.753
 8520POPC   C3B45729  25.172  10.799   7.053
 8520POPC   C4B45730  25.219  10.791   7.353
 8521POPC   NC345731  17.470  10.548   5.553
 8521POPC   PO445732  17.533  10.510   5.853
 8521POPC   GL145733  17.471  10.572   6.153
 8521POPC   GL245734  17.485  10.649   6.153
 8521POPC   C1A45735  17.495  10.500   6.453
 8521POPC   D2A45736  17.459  10.526   6.753
 8521POPC   C3A45737  17.497  10.486   7.053
 8521POPC   C4A45738  17.537  10.541   7.353
 8521POPC   C1B45739  17.434  10.748   6.453
 8521POPC   C2B45740  17.410  10.767   6.753
 8521POPC   C3B45741  17.403  10.793   7.053
 8521POPC   C4B45742  17.460  10.776   7.353
 8522POPC   NC345743   4.359  25.994   5.553
 8522POPC   PO445744   4.354  26.086   5.853
 8522POPC   GL145745   4.363  26.025   6.153
 8522POPC   GL245746   4.168  26.082   6.153
 8522POPC   C1A45747   4.321  26.006   6.453
 8522POPC   D2A45748   4.300  26.048   6.753
 8522POPC   C3A45749   4.297  26.083   7.053
 8522POPC   C4A45750   4.308  26.057   7.353
 8522POPC   C1B45751   4.046  26.090   6.453
 8522POPC   C2B45752   4.025  26.081   6.753
 8522POPC   C3B45753   4.111  26.052   7.053
 8522POPC   C4B45754   4.078  26.062   7.353
 8523POPC   NC345755  34.559  12.049   5.553
 8523POPC   PO445756  34.590  12.084   5.853
 8523POPC   GL145757  34.617  12.056   6.153
 8523POPC   GL245758  34.531  12.189   6.153
 8523POPC   C1A45759  34.552  12.103   6.453
 8523POPC   D2A45760  34.543  12.112   6.753
 8523POPC   C3A45761  34.600  12.037   7.053
 8523POPC   C4A45762  34.578  12.120   7.353
 8523POPC   C1B45763  34.391  12.304   6.453
 8523POPC   C2B45764  34.383  12.233   6.753
 8523POPC   C3B45765  34.426  12.272   7.053
 8523POPC   C4B45766  34.411  12.243   7.353
 8524POPC   NC345767  24.513  12.856   5.553
 8524POPC   PO445768  24.464  12.809   5.853
 8524POPC   GL145769  24.484  12.861   6.153
 8524POPC   GL245770  24.383  12.847   6.153
 8524POPC   C1A45771  24.465  12.830   6.453
 8524POPC   D2A45772  24.449  12.869   6.753
 8524POPC   C3A45773  24.450  12.885   7.053
 8524POPC   C4A45774  24.481  12.815   7.353
 8524POPC   C1B45775  24.235  12.807   6.453
 8524POPC   C2B45776  24.222  12.809   6.753
 8524POPC   C3B45777  24.197  12.874   7.053
 8524POPC   C4B45778  24.272  12.815   7.353
 8525POPC   NC345779  33.788  39.975   5.553
 8525POPC   PO445780  33.836  40.029   5.853
 8525POPC   GL145781  33.828  39.983   6.153
 8525POPC   GL245782  33.748  40.079   6.153
 8525POPC   C1A45783  33.775  40.039   6.453
 8525POPC   D2A45784  33.820  40.054   6.753
 8525POPC   C3A45785  33.759  40.025   7.053
 8525POPC   C4A45786  33.782  39.978   7.353
 8525POPC   C1B45787  33.608  40.215   6.453
 8525POPC   C2B45788  33.676  40.235   6.753
 8525POPC   C3B45789  33.670  40.164   7.053
 8525POPC   C4B45790  33.634  40.219   7.353
 8526POPC   NC345791  12.093  33.807   5.553
 8526POPC   PO445792  12.115  33.819   5.853
 8526POPC   GL145793  12.062  33.789   6.153
 8526POPC   GL245794  12.199  33.888   6.153
 8526POPC   C1A45795  12.055  33.830   6.453
 8526POPC   D2A45796  12.107  33.828   6.753
 8526POPC   C3A45797  12.082  33.813   7.053
 8526POPC   C4A45798  12.035  33.796   7.353
 8526POPC   C1B45799  12.316  33.894   6.453
 8526POPC   C2B45800  12.331  33.938   6.753
 8526POPC   C3B45801  12.299  33.967   7.053
 8526POPC   C4B45802  12.290  33.935   7.353
 8527POPC   NC345803  18.240  22.122   5.553
 8527POPC   PO445804  18.329  22.160   5.853
 8527POPC   GL145805  18.253  22.122   6.153
 8527POPC   GL245806  18.381  22.303   6.153
 8527POPC   C1A45807  18.304  22.116   6.453
 8527POPC   D2A45808  18.241  22.135   6.753
 8527POPC   C3A45809  18.240  22.148   7.053
 8527POPC   C4A45810  18.251  22.122   7.353
 8527POPC   C1B45811  18.451  22.404   6.453
 8527POPC   C2B45812  18.384  22.341   6.753
 8527POPC   C3B45813  18.443  22.383   7.053
 8527POPC   C4B45814  18.391  22.353   7.353
 8528POPC   NC345815   4.306  36.129   5.553
 8528POPC   PO445816   4.300  36.163   5.853
 8528POPC   GL145817   4.320  36.131   6.153
 8528POPC   GL245818   4.212  36.093   6.153
 8528POPC   C1A45819   4.282  36.129   6.453
 8528POPC   D2A45820   4.332  36.146   6.753
 8528POPC   C3A45821   4.329  36.119   7.053
 8528POPC   C4A45822   4.331  36.084   7.353
 8528POPC   C1B45823   4.082  35.992   6.453
 8528POPC   C2B45824   4.063  35.989   6.753
 8528POPC   C3B45825   4.116  36.035   7.053
 8528POPC   C4B45826   4.105  35.994   7.353
 8529POPC   NC345827   5.116   2.719   5.553
 8529POPC   PO445828   5.067   2.807   5.853
 8529POPC   GL145829   5.050   2.774   6.153
 8529POPC   GL245830   5.069   2.833   6.153
 8529POPC   C1A45831   5.121   2.796   6.453
 8529POPC   D2A45832   5.078   2.728   6.753
 8529POPC   C3A45833   5.107   2.754   7.053
 8529POPC   C4A45834   5.087   2.812   7.353
 8529POPC   C1B45835   4.972   3.001   6.453
 8529POPC   C2B45836   5.021   2.989   6.753
 8529POPC   C3B45837   5.030   3.011   7.053
 8529POPC   C4B45838   5.017   2.947   7.353
 8530POPC   NC345839   6.647  41.587   5.553
 8530POPC   PO445840   6.622  41.539   5.853
 8530POPC   GL145841   6.659  41.509   6.153
 8530POPC   GL245842   6.640  41.464   6.153
 8530POPC   C1A45843   6.646  41.536   6.453
 8530POPC   D2A45844   6.611  41.574   6.753
 8530POPC   C3A45845   6.648  41.593   7.053
 8530POPC   C4A45846   6.626  41.597   7.353
 8530POPC   C1B45847   6.534  41.339   6.453
 8530POPC   C2B45848   6.527  41.340   6.753
 8530POPC   C3B45849   6.541  41.369   7.053
 8530POPC   C4B45850   6.541  41.334   7.353
 8531POPC   NC345851  29.911  14.378   5.553
 8531POPC   PO445852  29.952  14.442   5.853
 8531POPC   GL145853  29.942  14.356   6.153
 8531POPC   GL245854  30.004  14.406   6.153
 8531POPC   C1A45855  29.898  14.452   6.453
 8531POPC   D2A45856  29.961  14.396   6.753
 8531POPC   C3A45857  29.958  14.409   7.053
 8531POPC   C4A45858  29.928  14.357   7.353
 8531POPC   C1B45859  30.188  14.374   6.453
 8531POPC   C2B45860  30.217  14.411   6.753
 8531POPC   C3B45861  30.136  14.371   7.053
 8531POPC   C4B45862  30.173  14.334   7.353
 8532POPC   NC345863  18.317  29.127   5.553
 8532POPC   PO445864  18.294  29.161   5.853
 8532POPC   GL145865  18.302  29.105   6.153
 8532POPC   GL245866  18.204  29.102   6.153
 8532POPC   C1A45867  18.282  29.104   6.453
 8532POPC   D2A45868  18.328  29.122   6.753
 8532POPC   C3A45869  18.317  29.187   7.053
 8532POPC   C4A45870  18.255  29.109   7.353
 8532POPC   C1B45871  18.120  28.980   6.453
 8532POPC   C2B45872  18.103  28.967   6.753
 8532POPC   C3B45873  18.100  29.037   7.053
 8532POPC   C4B45874  18.094  29.025   7.353
 8533POPC   NC345875  23.698  26.784   5.553
 8533POPC   PO445876  23.736  26.779   5.853
 8533POPC   GL145877  23.683  26.778   6.153
 8533POPC   GL245878  23.659  26.679   6.153
 8533POPC   C1A45879  23.757  26.777   6.453
 8533POPC   D2A45880  23.759  26.846   6.753
 8533POPC   C3A45881  23.745  26.843   7.053
 8533POPC   C4A45882  23.687  26.812   7.353
 8533POPC   C1B45883  23.592  26.635   6.453
 8533POPC   C2B45884  23.539  26.609   6.753
 8533POPC   C3B45885  23.580  26.595   7.053
 8533POPC   C4B45886  23.539  26.604   7.353
 8534POPC   NC345887  33.073  30.719   5.553
 8534POPC   PO445888  32.975  30.662   5.853
 8534POPC   GL145889  33.017  30.709   6.153
 8534POPC   GL245890  32.940  30.663   6.153
 8534POPC   C1A45891  33.012  30.652   6.453
 8534POPC   D2A45892  33.072  30.692   6.753
 8534POPC   C3A45893  32.990  30.655   7.053
 8534POPC   C4A45894  33.024  30.681   7.353
 8534POPC   C1B45895  32.809  30.633   6.453
 8534POPC   C2B45896  32.765  30.600   6.753
 8534POPC   C3B45897  32.827  30.572   7.053
 8534POPC   C4B45898  32.817  30.653   7.353
 8535POPC   NC345899   3.590   0.466   5.553
 8535POPC   PO445900   3.507   0.463   5.853
 8535POPC   GL145901   3.500   0.389   6.153
 8535POPC   GL245902   3.489   0.517   6.153
 8535POPC   C1A45903   3.500   0.464   6.453
 8535POPC   D2A45904   3.497   0.425   6.753
 8535POPC   C3A45905   3.529   0.413   7.053
 8535POPC   C4A45906   3.546   0.439   7.353
 8535POPC   C1B45907   3.469   0.659   6.453
 8535POPC   C2B45908   3.499   0.715   6.753
 8535POPC   C3B45909   3.414   0.693   7.053
 8535POPC   C4B45910   3.407   0.675   7.353
 8536POPC   NC345911  39.280  20.628   5.553
 8536POPC   PO445912  39.237  20.610   5.853
 8536POPC   GL145913  39.243  20.574   6.153
 8536POPC   GL245914  39.272  20.458   6.153
 8536POPC   C1A45915  39.280  20.643   6.453
 8536POPC   D2A45916  39.228  20.644   6.753
 8536POPC   C3A45917  39.221  20.595   7.053
 8536POPC   C4A45918  39.258  20.600   7.353
 8536POPC   C1B45919  39.223  20.339   6.453
 8536POPC   C2B45920  39.280  20.341   6.753
 8536POPC   C3B45921  39.286  20.328   7.053
 8536POPC   C4B45922  39.235  20.377   7.353
 8537POPC   NC345923  15.142   9.766   5.553
 8537POPC   PO445924  15.221   9.789   5.853
 8537POPC   GL145925  15.174   9.769   6.153
 8537POPC   GL245926  15.067   9.801   6.153
 8537POPC   C1A45927  15.144   9.768   6.453
 8537POPC   D2A45928  15.133   9.781   6.753
 8537POPC   C3A45929  15.171   9.798   7.053
 8537POPC   C4A45930  15.144   9.709   7.353
 8537POPC   C1B45931  14.951   9.950   6.453
 8537POPC   C2B45932  14.948   9.859   6.753
 8537POPC   C3B45933  15.034   9.886   7.053
 8537POPC   C4B45934  14.983   9.955   7.353
 8538POPC   NC345935  35.338   9.734   5.553
 8538POPC   PO445936  35.362   9.710   5.853
 8538POPC   GL145937  35.323   9.727   6.153
 8538POPC   GL245938  35.465   9.826   6.153
 8538POPC   C1A45939  35.373   9.752   6.453
 8538POPC   D2A45940  35.390   9.793   6.753
 8538POPC   C3A45941  35.387   9.786   7.053
 8538POPC   C4A45942  35.375   9.784   7.353
 8538POPC   C1B45943  35.481   9.891   6.453
 8538POPC   C2B45944  35.499   9.940   6.753
 8538POPC   C3B45945  35.548   9.937   7.053
 8538POPC   C4B45946  35.512   9.976   7.353
 8539POPC   NC345947   6.685  22.205   5.553
 8539POPC   PO445948   6.668  22.148   5.853
 8539POPC   GL145949   6.615  22.201   6.153
 8539POPC   GL245950   6.547  22.091   6.153
 8539POPC   C1A45951   6.639  22.147   6.453
 8539POPC   D2A45952   6.621  22.164   6.753
 8539POPC   C3A45953   6.621  22.148   7.053
 8539POPC   C4A45954   6.682  22.154   7.353
 8539POPC   C1B45955   6.542  21.944   6.453
 8539POPC   C2B45956   6.498  21.932   6.753
 8539POPC   C3B45957   6.554  21.994   7.053
 8539POPC   C4B45958   6.507  21.983   7.353
 8540POPC   NC345959  22.198   5.099   5.553
 8540POPC   PO445960  22.162   5.094   5.853
 8540POPC   GL145961  22.159   5.097   6.153
 8540POPC   GL245962  22.232   5.202   6.153
 8540POPC   C1A45963  22.195   5.113   6.453
 8540POPC   D2A45964  22.133   5.087   6.753
 8540POPC   C3A45965  22.130   5.097   7.053
 8540POPC   C4A45966  22.172   5.126   7.353
 8540POPC   C1B45967  22.279   5.358   6.453
 8540POPC   C2B45968  22.278   5.294   6.753
 8540POPC   C3B45969  22.240   5.271   7.053
 8540POPC   C4B45970  22.279   5.295   7.353
 8541POPC   NC345971  12.085  31.507   5.553
 8541POPC   PO445972  12.047  31.495   5.853
 8541POPC   GL145973  12.056  31.498   6.153
 8541POPC   GL245974  12.020  31.578   6.153
 8541POPC   C1A45975  12.038  31.481   6.453
 8541POPC   D2A45976  12.034  31.448   6.753
 8541POPC   C3A45977  12.054  31.445   7.053
 8541POPC   C4A45978  12.112  31.505   7.353
 8541POPC   C1B45979  11.885  31.637   6.453
 8541POPC   C2B45980  11.896  31.710   6.753
 8541POPC   C3B45981  11.945  31.660   7.053
 8541POPC   C4B45982  11.913  31.660   7.353
 8542POPC   NC345983   5.142  42.350   5.553
 8542POPC   PO445984   5.046  42.369   5.853
 8542POPC   GL145985   5.132  42.365   6.153
 8542POPC   GL245986   5.005  42.249   6.153
 8542POPC   C1A45987   5.126  42.319   6.453
 8542POPC   D2A45988   5.139  42.291   6.753
 8542POPC   C3A45989   5.117  42.341   7.053
 8542POPC   C4A45990   5.064  42.321   7.353
 8542POPC   C1B45991   4.881  42.297   6.453
 8542POPC   C2B45992   4.806  42.292   6.753
 8542POPC   C3B45993   4.827  42.263   7.053
 8542POPC   C4B45994   4.857  42.300   7.353
 8543POPC   NC345995   0.416  14.376   5.553
 8543POPC   PO445996   0.458  14.452   5.853
 8543POPC   GL145997   0.461  14.399   6.153
 8543POPC   GL245998   0.367  14.533   6.153
 8543POPC   C1A45999   0.394  14.392   6.453
 8543POPC   D2A46000   0.455  14.419   6.753
 8543POPC   C3A46001   0.457  14.428   7.053
 8543POPC   C4A46002   0.481  14.399   7.353
 8543POPC   C1B46003   0.427  14.681   6.453
 8543POPC   C2B46004   0.365  14.692   6.753
 8543POPC   C3B46005   0.367  14.697   7.053
 8543POPC   C4B46006   0.400  14.695   7.353
 8544POPC   NC346007  11.279  34.529   5.553
 8544POPC   PO446008  11.349  34.594   5.853
 8544POPC   GL146009  11.313  34.604   6.153
 8544POPC   GL246010  11.373  34.470   6.153
 8544POPC   C1A46011  11.311  34.580   6.453
 8544POPC   D2A46012  11.264  34.592   6.753
 8544POPC   C3A46013  11.275  34.553   7.053
 8544POPC   C4A46014  11.317  34.542   7.353
 8544POPC   C1B46015  11.466  34.438   6.453
 8544POPC   C2B46016  11.489  34.438   6.753
 8544POPC   C3B46017  11.457  34.384   7.053
 8544POPC   C4B46018  11.469  34.401   7.353
 8545POPC   NC346019  42.294  44.657   5.553
 8545POPC   PO446020  42.350  44.688   5.853
 8545POPC   GL146021  42.316  44.613   6.153
 8545POPC   GL246022  42.217  44.757   6.153
 8545POPC   C1A46023  42.338  44.627   6.453
 8545POPC   D2A46024  42.317  44.651   6.753
 8545POPC   C3A46025  42.301  44.685   7.053
 8545POPC   C4A46026  42.366  44.676   7.353
 8545POPC   C1B46027  42.183  44.897   6.453
 8545POPC   C2B46028  42.147  44.819   6.753
 8545POPC   C3B46029  42.156  44.835   7.053
 8545POPC   C4B46030  42.178  44.892   7.353
 8546POPC   NC346031   5.132  23.713   5.553
 8546POPC   PO446032   5.076  23.716   5.853
 8546POPC   GL146033   5.111  23.718   6.153
 8546POPC   GL246034   5.024  23.548   6.153
 8546POPC   C1A46035   5.085  23.705   6.453
 8546POPC   D2A46036   5.045  23.688   6.753
 8546POPC   C3A46037   5.089  23.705   7.053
 8546POPC   C4A46038   5.103  23.692   7.353
 8546POPC   C1B46039   5.097  23.489   6.453
 8546POPC   C2B46040   5.014  23.464   6.753
 8546POPC   C3B46041   5.040  23.469   7.053
 8546POPC   C4B46042   5.068  23.448   7.353
 8547POPC   NC346043   0.470  21.400   5.553
 8547POPC   PO446044   0.448  21.366   5.853
 8547POPC   GL146045   0.420  21.410   6.153
 8547POPC   GL246046   0.398  21.535   6.153
 8547POPC   C1A46047   0.411  21.388   6.453
 8547POPC   D2A46048   0.465  21.367   6.753
 8547POPC   C3A46049   0.435  21.386   7.053
 8547POPC   C4A46050   0.440  21.388   7.353
 8547POPC   C1B46051   0.309  21.591   6.453
 8547POPC   C2B46052   0.330  21.612   6.753
 8547POPC   C3B46053   0.341  21.657   7.053
 8547POPC   C4B46054   0.387  21.646   7.353
 8548POPC   NC346055  24.477  36.854   5.553
 8548POPC   PO446056  24.526  36.952   5.853
 8548POPC   GL146057  24.540  36.889   6.153
 8548POPC   GL246058  24.419  36.942   6.153
 8548POPC   C1A46059  24.535  36.884   6.453
 8548POPC   D2A46060  24.444  36.940   6.753
 8548POPC   C3A46061  24.450  36.881   7.053
 8548POPC   C4A46062  24.507  36.857   7.353
 8548POPC   C1B46063  24.252  36.966   6.453
 8548POPC   C2B46064  24.289  36.973   6.753
 8548POPC   C3B46065  24.235  37.020   7.053
 8548POPC   C4B46066  24.219  36.937   7.353
 8549POPC   NC346067  39.268  16.004   5.553
 8549POPC   PO446068  39.224  15.908   5.853
 8549POPC   GL146069  39.275  15.937   6.153
 8549POPC   GL246070  39.309  15.968   6.153
 8549POPC   C1A46071  39.276  15.944   6.453
 8549POPC   D2A46072  39.209  15.911   6.753
 8549POPC   C3A46073  39.220  15.976   7.053
 8549POPC   C4A46074  39.236  15.985   7.353
 8549POPC   C1B46075  39.475  15.879   6.453
 8549POPC   C2B46076  39.448  15.940   6.753
 8549POPC   C3B46077  39.500  15.846   7.053
 8549POPC   C4B46078  39.438  15.914   7.353
 8550POPC   NC346079  42.362  29.158   5.553
 8550POPC   PO446080  42.334  29.121   5.853
 8550POPC   GL146081  42.352  29.155   6.153
 8550POPC   GL246082  42.286  29.052   6.153
 8550POPC   C1A46083  42.382  29.160   6.453
 8550POPC   D2A46084  42.293  29.165   6.753
 8550POPC   C3A46085  42.374  29.115   7.053
 8550POPC   C4A46086  42.362  29.138   7.353
 8550POPC   C1B46087  42.298  28.859   6.453
 8550POPC   C2B46088  42.301  28.914   6.753
 8550POPC   C3B46089  42.251  28.905   7.053
 8550POPC   C4B46090  42.321  28.949   7.353
 8551POPC   NC346091  39.217  30.739   5.553
 8551POPC   PO446092  39.244  30.671   5.853
 8551POPC   GL146093  39.260  30.661   6.153
 8551POPC   GL246094  39.201  30.776   6.153
 8551POPC   C1A46095  39.263  30.722   6.453
 8551POPC   D2A46096  39.264  30.698   6.753
 8551POPC   C3A46097  39.269  30.697   7.053
 8551POPC   C4A46098  39.222  30.678   7.353
 8551POPC   C1B46099  39.062  30.938   6.453
 8551POPC   C2B46100  39.149  30.929   6.753
 8551POPC   C3B46101  39.133  30.865   7.053
 8551POPC   C4B46102  39.109  30.924   7.353
 8552POPC   NC346103  19.042  21.361   5.553
 8552POPC   PO446104  19.014  21.384   5.853
 8552POPC   GL146105  19.014  21.389   6.153
 8552POPC   GL246106  19.131  21.466   6.153
 8552POPC   C1A46107  19.014  21.353   6.453
 8552POPC   D2A46108  19.071  21.350   6.753
 8552POPC   C3A46109  19.034  21.402   7.053
 8552POPC   C4A46110  19.042  21.432   7.353
 8552POPC   C1B46111  19.286  21.535   6.453
 8552POPC   C2B46112  19.269  21.455   6.753
 8552POPC   C3B46113  19.264  21.516   7.053
 8552POPC   C4B46114  19.315  21.518   7.353
 8553POPC   NC346115   1.220   2.802   5.553
 8553POPC   PO446116   1.202   2.755   5.853
 8553POPC   GL146117   1.205   2.718   6.153
 8553POPC   GL246118   1.212   2.930   6.153
 8553POPC   C1A46119   1.210   2.721   6.453
 8553POPC   D2A46120   1.186   2.804   6.753
 8553POPC   C3A46121   1.194   2.799   7.053
 8553POPC   C4A46122   1.198   2.726   7.353
 8553POPC   C1B46123   1.321   3.043   6.453
 8553POPC   C2B46124   1.280   3.018   6.753
 8553POPC   C3B46125   1.239   2.978   7.053
 8553POPC   C4B46126   1.268   3.055   7.353
 8554POPC   NC346127  26.029  22.117   5.553
 8554POPC   PO446128  26.081  22.161   5.853
 8554POPC   GL146129  26.034  22.119   6.153
 8554POPC   GL246130  26.145  22.260   6.153
 8554POPC   C1A46131  26.077  22.194   6.453
 8554POPC   D2A46132  26.081  22.154   6.753
 8554POPC   C3A46133  26.071  22.163   7.053
 8554POPC   C4A46134  26.069  22.204   7.353
 8554POPC   C1B46135  26.146  22.412   6.453
 8554POPC   C2B46136  26.148  22.365   6.753
 8554POPC   C3B46137  26.233  22.413   7.053
 8554POPC   C4B46138  26.193  22.328   7.353
 8555POPC   NC346139  20.658   8.949   5.553
 8555POPC   PO446140  20.654   8.964   5.853
 8555POPC   GL146141  20.656   8.954   6.153
 8555POPC   GL246142  20.612   9.080   6.153
 8555POPC   C1A46143  20.659   8.979   6.453
 8555POPC   D2A46144  20.599   9.021   6.753
 8555POPC   C3A46145  20.609   8.943   7.053
 8555POPC   C4A46146  20.648   8.937   7.353
 8555POPC   C1B46147  20.529   9.182   6.453
 8555POPC   C2B46148  20.559   9.182   6.753
 8555POPC   C3B46149  20.597   9.213   7.053
 8555POPC   C4B46150  20.512   9.225   7.353
 8556POPC   NC346151  42.296   7.463   5.553
 8556POPC   PO446152  42.306   7.462   5.853
 8556POPC   GL146153  42.341   7.452   6.153
 8556POPC   GL246154  42.205   7.392   6.153
 8556POPC   C1A46155  42.290   7.395   6.453
 8556POPC   D2A46156  42.322   7.429   6.753
 8556POPC   C3A46157  42.297   7.459   7.053
 8556POPC   C4A46158  42.300   7.411   7.353
 8556POPC   C1B46159  42.171   7.263   6.453
 8556POPC   C2B46160  42.083   7.299   6.753
 8556POPC   C3B46161  42.115   7.297   7.053
 8556POPC   C4B46162  42.090   7.279   7.353
 8557POPC   NC346163   2.750   5.082   5.553
 8557POPC   PO446164   2.750   5.092   5.853
 8557POPC   GL146165   2.795   5.142   6.153
 8557POPC   GL246166   2.763   4.966   6.153
 8557POPC   C1A46167   2.783   5.055   6.453
 8557POPC   D2A46168   2.763   5.084   6.753
 8557POPC   C3A46169   2.815   5.130   7.053
 8557POPC   C4A46170   2.772   5.128   7.353
 8557POPC   C1B46171   2.720   4.824   6.453
 8557POPC   C2B46172   2.672   4.812   6.753
 8557POPC   C3B46173   2.668   4.897   7.053
 8557POPC   C4B46174   2.663   4.853   7.353
 8558POPC   NC346175  26.813  11.294   5.553
 8558POPC   PO446176  26.861  11.346   5.853
 8558POPC   GL146177  26.828  11.338   6.153
 8558POPC   GL246178  26.905  11.398   6.153
 8558POPC   C1A46179  26.799  11.296   6.453
 8558POPC   D2A46180  26.778  11.305   6.753
 8558POPC   C3A46181  26.863  11.328   7.053
 8558POPC   C4A46182  26.770  11.317   7.353
 8558POPC   C1B46183  27.020  11.477   6.453
 8558POPC   C2B46184  27.032  11.417   6.753
 8558POPC   C3B46185  27.077  11.456   7.053
 8558POPC   C4B46186  27.043  11.383   7.353
 8559POPC   NC346187  24.533  41.583   5.553
 8559POPC   PO446188  24.493  41.572   5.853
 8559POPC   GL146189  24.462  41.522   6.153
 8559POPC   GL246190  24.470  41.473   6.153
 8559POPC   C1A46191  24.514  41.541   6.453
 8559POPC   D2A46192  24.527  41.537   6.753
 8559POPC   C3A46193  24.459  41.600   7.053
 8559POPC   C4A46194  24.486  41.572   7.353
 8559POPC   C1B46195  24.423  41.343   6.453
 8559POPC   C2B46196  24.467  41.358   6.753
 8559POPC   C3B46197  24.400  41.268   7.053
 8559POPC   C4B46198  24.472  41.360   7.353
 8560POPC   NC346199   1.183   6.627   5.553
 8560POPC   PO446200   1.205   6.636   5.853
 8560POPC   GL146201   1.177   6.629   6.153
 8560POPC   GL246202   1.368   6.554   6.153
 8560POPC   C1A46203   1.247   6.625   6.453
 8560POPC   D2A46204   1.251   6.662   6.753
 8560POPC   C3A46205   1.208   6.596   7.053
 8560POPC   C4A46206   1.196   6.678   7.353
 8560POPC   C1B46207   1.471   6.562   6.453
 8560POPC   C2B46208   1.455   6.477   6.753
 8560POPC   C3B46209   1.434   6.554   7.053
 8560POPC   C4B46210   1.453   6.490   7.353
 8561POPC   NC346211   8.207   1.246   5.553
 8561POPC   PO446212   8.217   1.172   5.853
 8561POPC   GL146213   8.209   1.173   6.153
 8561POPC   GL246214   8.059   1.096   6.153
 8561POPC   C1A46215   8.214   1.206   6.453
 8561POPC   D2A46216   8.153   1.256   6.753
 8561POPC   C3A46217   8.153   1.178   7.053
 8561POPC   C4A46218   8.181   1.258   7.353
 8561POPC   C1B46219   7.968   1.039   6.453
 8561POPC   C2B46220   7.980   1.080   6.753
 8561POPC   C3B46221   7.957   1.061   7.053
 8561POPC   C4B46222   8.030   1.062   7.353
 8562POPC   NC346223  42.315  10.491   5.553
 8562POPC   PO446224  42.313  10.520   5.853
 8562POPC   GL146225  42.355  10.477   6.153
 8562POPC   GL246226  42.436  10.505   6.153
 8562POPC   C1A46227  42.292  10.552   6.453
 8562POPC   D2A46228  42.364  10.490   6.753
 8562POPC   C3A46229  42.315  10.561   7.053
 8562POPC   C4A46230  42.329  10.497   7.353
 8562POPC   C1B46231  42.549  10.541   6.453
 8562POPC   C2B46232  42.590  10.553   6.753
 8562POPC   C3B46233  42.592  10.521   7.053
 8562POPC   C4B46234  42.540  10.550   7.353
 8563POPC   NC346235  13.593  36.948   5.553
 8563POPC   PO446236  13.676  36.950   5.853
 8563POPC   GL146237  13.660  36.872   6.153
 8563POPC   GL246238  13.551  36.995   6.153
 8563POPC   C1A46239  13.588  36.871   6.453
 8563POPC   D2A46240  13.675  36.885   6.753
 8563POPC   C3A46241  13.636  36.913   7.053
 8563POPC   C4A46242  13.647  36.857   7.353
 8563POPC   C1B46243  13.438  37.054   6.453
 8563POPC   C2B46244  13.418  37.127   6.753
 8563POPC   C3B46245  13.417  37.061   7.053
 8563POPC   C4B46246  13.451  37.063   7.353
 8564POPC   NC346247   2.014   7.434   5.553
 8564POPC   PO446248   1.950   7.440   5.853
 8564POPC   GL146249   2.033   7.407   6.153
 8564POPC   GL246250   1.866   7.340   6.153
 8564POPC   C1A46251   2.018   7.387   6.453
 8564POPC   D2A46252   1.954   7.372   6.753
 8564POPC   C3A46253   1.963   7.424   7.053
 8564POPC   C4A46254   1.962   7.429   7.353
 8564POPC   C1B46255   1.819   7.254   6.453
 8564POPC   C2B46256   1.812   7.295   6.753
 8564POPC   C3B46257   1.829   7.246   7.053
 8564POPC   C4B46258   1.825   7.287   7.353
 8565POPC   NC346259  37.712  14.397   5.553
 8565POPC   PO446260  37.652  14.418   5.853
 8565POPC   GL146261  37.634  14.413   6.153
 8565POPC   GL246262  37.523  14.412   6.153
 8565POPC   C1A46263  37.677  14.394   6.453
 8565POPC   D2A46264  37.695  14.376   6.753
 8565POPC   C3A46265  37.696  14.386   7.053
 8565POPC   C4A46266  37.633  14.393   7.353
 8565POPC   C1B46267  37.466  14.350   6.453
 8565POPC   C2B46268  37.420  14.378   6.753
 8565POPC   C3B46269  37.476  14.366   7.053
 8565POPC   C4B46270  37.436  14.354   7.353
 8566POPC   NC346271  22.138   8.963   5.553
 8566POPC   PO446272  22.143   8.929   5.853
 8566POPC   GL146273  22.192   8.935   6.153
 8566POPC   GL246274  22.285   9.051   6.153
 8566POPC   C1A46275  22.210   8.947   6.453
 8566POPC   D2A46276  22.158   8.939   6.753
 8566POPC   C3A46277  22.142   8.978   7.053
 8566POPC   C4A46278  22.210   8.924   7.353
 8566POPC   C1B46279  22.317   9.147   6.453
 8566POPC   C2B46280  22.383   9.112   6.753
 8566POPC   C3B46281  22.315   9.113   7.053
 8566POPC   C4B46282  22.303   9.141   7.353
 8567POPC   NC346283   7.398  22.150   5.553
 8567POPC   PO446284   7.374  22.135   5.853
 8567POPC   GL146285   7.376  22.198   6.153
 8567POPC   GL246286   7.528  22.172   6.153
 8567POPC   C1A46287   7.446  22.158   6.453
 8567POPC   D2A46288   7.410  22.183   6.753
 8567POPC   C3A46289   7.395  22.165   7.053
 8567POPC   C4A46290   7.407  22.155   7.353
 8567POPC   C1B46291   7.615  22.271   6.453
 8567POPC   C2B46292   7.709  22.205   6.753
 8567POPC   C3B46293   7.676  22.198   7.053
 8567POPC   C4B46294   7.625  22.213   7.353
 8568POPC   NC346295  40.741  28.360   5.553
 8568POPC   PO446296  40.761  28.331   5.853
 8568POPC   GL146297  40.755  28.367   6.153
 8568POPC   GL246298  40.862  28.301   6.153
 8568POPC   C1A46299  40.775  28.350   6.453
 8568POPC   D2A46300  40.815  28.340   6.753
 8568POPC   C3A46301  40.782  28.346   7.053
 8568POPC   C4A46302  40.733  28.322   7.353
 8568POPC   C1B46303  40.912  28.109   6.453
 8568POPC   C2B46304  40.893  28.095   6.753
 8568POPC   C3B46305  40.896  28.142   7.053
 8568POPC   C4B46306  40.899  28.118   7.353
 8569POPC   NC346307  27.567   1.993   5.553
 8569POPC   PO446308  27.573   1.953   5.853
 8569POPC   GL146309  27.562   1.990   6.153
 8569POPC   GL246310  27.712   1.952   6.153
 8569POPC   C1A46311  27.597   1.988   6.453
 8569POPC   D2A46312  27.553   1.993   6.753
 8569POPC   C3A46313  27.548   1.950   7.053
 8569POPC   C4A46314  27.576   2.006   7.353
 8569POPC   C1B46315  27.814   1.969   6.453
 8569POPC   C2B46316  27.832   1.950   6.753
 8569POPC   C3B46317  27.892   1.940   7.053
 8569POPC   C4B46318  27.834   1.928   7.353
 8570POPC   NC346319   1.989  31.514   5.553
 8570POPC   PO446320   1.978  31.430   5.853
 8570POPC   GL146321   2.018  31.521   6.153
 8570POPC   GL246322   2.095  31.344   6.153
 8570POPC   C1A46323   2.018  31.495   6.453
 8570POPC   D2A46324   1.981  31.453   6.753
 8570POPC   C3A46325   1.958  31.423   7.053
 8570POPC   C4A46326   1.956  31.466   7.353
 8570POPC   C1B46327   2.087  31.222   6.453
 8570POPC   C2B46328   2.149  31.307   6.753
 8570POPC   C3B46329   2.098  31.247   7.053
 8570POPC   C4B46330   2.148  31.310   7.353
 8571POPC   NC346331  29.110  32.202   5.553
 8571POPC   PO446332  29.168  32.247   5.853
 8571POPC   GL146333  29.185  32.268   6.153
 8571POPC   GL246334  29.147  32.129   6.153
 8571POPC   C1A46335  29.098  32.256   6.453
 8571POPC   D2A46336  29.146  32.273   6.753
 8571POPC   C3A46337  29.160  32.286   7.053
 8571POPC   C4A46338  29.111  32.241   7.353
 8571POPC   C1B46339  29.113  32.025   6.453
 8571POPC   C2B46340  29.108  31.966   6.753
 8571POPC   C3B46341  29.065  31.986   7.053
 8571POPC   C4B46342  29.095  32.010   7.353
 8572POPC   NC346343  36.108  36.093   5.553
 8572POPC   PO446344  36.080  36.104   5.853
 8572POPC   GL146345  36.101  36.159   6.153
 8572POPC   GL246346  36.164  35.999   6.153
 8572POPC   C1A46347  36.123  36.144   6.453
 8572POPC   D2A46348  36.156  36.086   6.753
 8572POPC   C3A46349  36.155  36.113   7.053
 8572POPC   C4A46350  36.138  36.123   7.353
 8572POPC   C1B46351  36.127  35.884   6.453
 8572POPC   C2B46352  36.181  35.902   6.753
 8572POPC   C3B46353  36.154  35.921   7.053
 8572POPC   C4B46354  36.184  35.852   7.353
 8573POPC   NC346355  28.405   1.232   5.553
 8573POPC   PO446356  28.418   1.223   5.853
 8573POPC   GL146357  28.403   1.226   6.153
 8573POPC   GL246358  28.276   1.097   6.153
 8573POPC   C1A46359  28.407   1.165   6.453
 8573POPC   D2A46360  28.397   1.199   6.753
 8573POPC   C3A46361  28.327   1.212   7.053
 8573POPC   C4A46362  28.399   1.179   7.353
 8573POPC   C1B46363  28.256   1.018   6.453
 8573POPC   C2B46364  28.193   0.984   6.753
 8573POPC   C3B46365  28.216   1.051   7.053
 8573POPC   C4B46366  28.192   1.019   7.353
 8574POPC   NC346367  44.694  28.385   5.553
 8574POPC   PO446368  44.695  28.359   5.853
 8574POPC   GL146369  44.673  28.411   6.153
 8574POPC   GL246370  44.784  28.454   6.153
 8574POPC   C1A46371  44.698  28.418   6.453
 8574POPC   D2A46372  44.654  28.345   6.753
 8574POPC   C3A46373  44.645  28.322   7.053
 8574POPC   C4A46374  44.697  28.367   7.353
 8574POPC   C1B46375  44.798  28.553   6.453
 8574POPC   C2B46376  44.823  28.572   6.753
 8574POPC   C3B46377  44.790  28.600   7.053
 8574POPC   C4B46378  44.804  28.520   7.353
 8575POPC   NC346379  43.149   8.217   5.553
 8575POPC   PO446380  43.151   8.175   5.853
 8575POPC   GL146381  43.151   8.215   6.153
 8575POPC   GL246382  42.992   8.277   6.153
 8575POPC   C1A46383  43.155   8.158   6.453
 8575POPC   D2A46384  43.137   8.197   6.753
 8575POPC   C3A46385  43.106   8.171   7.053
 8575POPC   C4A46386  43.081   8.237   7.353
 8575POPC   C1B46387  42.874   8.322   6.453
 8575POPC   C2B46388  42.827   8.313   6.753
 8575POPC   C3B46389  42.902   8.237   7.053
 8575POPC   C4B46390  42.879   8.274   7.353
 8576POPC   NC346391  29.108  23.691   5.553
 8576POPC   PO446392  29.105  23.712   5.853
 8576POPC   GL146393  29.104  23.733   6.153
 8576POPC   GL246394  29.203  23.771   6.153
 8576POPC   C1A46395  29.134  23.706   6.453
 8576POPC   D2A46396  29.177  23.698   6.753
 8576POPC   C3A46397  29.170  23.740   7.053
 8576POPC   C4A46398  29.160  23.744   7.353
 8576POPC   C1B46399  29.345  23.896   6.453
 8576POPC   C2B46400  29.329  23.882   6.753
 8576POPC   C3B46401  29.328  23.880   7.053
 8576POPC   C4B46402  29.332  23.924   7.353
 8577POPC   NC346403  44.697  20.659   5.553
 8577POPC   PO446404  44.633  20.644   5.853
 8577POPC   GL146405  44.636  20.632   6.153
 8577POPC   GL246406  44.782  20.587   6.153
 8577POPC   C1A46407  44.693  20.601   6.453
 8577POPC   D2A46408  44.624  20.659   6.753
 8577POPC   C3A46409  44.655  20.566   7.053
 8577POPC   C4A46410  44.619  20.616   7.353
 8577POPC   C1B46411  44.929  20.577   6.453
 8577POPC   C2B46412  44.882  20.625   6.753
 8577POPC   C3B46413  44.879  20.534   7.053
 8577POPC   C4B46414  44.921  20.622   7.353
 8578POPC   NC346415  36.150  12.865   5.553
 8578POPC   PO446416  36.104  12.894   5.853
 8578POPC   GL146417  36.132  12.817   6.153
 8578POPC   GL246418  36.217  12.754   6.153
 8578POPC   C1A46419  36.167  12.835   6.453
 8578POPC   D2A46420  36.120  12.875   6.753
 8578POPC   C3A46421  36.155  12.886   7.053
 8578POPC   C4A46422  36.085  12.869   7.353
 8578POPC   C1B46423  36.201  12.614   6.453
 8578POPC   C2B46424  36.235  12.580   6.753
 8578POPC   C3B46425  36.225  12.632   7.053
 8578POPC   C4B46426  36.266  12.580   7.353
 8579POPC   NC346427   2.724  18.250   5.553
 8579POPC   PO446428   2.716  18.284   5.853
 8579POPC   GL146429   2.799  18.255   6.153
 8579POPC   GL246430   2.858  18.151   6.153
 8579POPC   C1A46431   2.722  18.326   6.453
 8579POPC   D2A46432   2.762  18.289   6.753
 8579POPC   C3A46433   2.747  18.242   7.053
 8579POPC   C4A46434   2.720  18.279   7.353
 8579POPC   C1B46435   2.896  18.027   6.453
 8579POPC   C2B46436   2.923  18.066   6.753
 8579POPC   C3B46437   2.838  18.101   7.053
 8579POPC   C4B46438   2.878  18.077   7.353
 8580POPC   NC346439  36.880  15.155   5.553
 8580POPC   PO446440  36.936  15.183   5.853
 8580POPC   GL146441  36.873  15.147   6.153
 8580POPC   GL246442  36.769  15.173   6.153
 8580POPC   C1A46443  36.905  15.187   6.453
 8580POPC   D2A46444  36.926  15.226   6.753
 8580POPC   C3A46445  36.920  15.223   7.053
 8580POPC   C4A46446  36.942  15.170   7.353
 8580POPC   C1B46447  36.710  15.237   6.453
 8580POPC   C2B46448  36.642  15.266   6.753
 8580POPC   C3B46449  36.714  15.234   7.053
 8580POPC   C4B46450  36.631  15.301   7.353
 8581POPC   NC346451  23.701  14.442   5.553
 8581POPC   PO446452  23.731  14.380   5.853
 8581POPC   GL146453  23.670  14.357   6.153
 8581POPC   GL246454  23.722  14.569   6.153
 8581POPC   C1A46455  23.753  14.371   6.453
 8581POPC   D2A46456  23.721  14.445   6.753
 8581POPC   C3A46457  23.710  14.368   7.053
 8581POPC   C4A46458  23.745  14.440   7.353
 8581POPC   C1B46459  23.707  14.677   6.453
 8581POPC   C2B46460  23.712  14.647   6.753
 8581POPC   C3B46461  23.679  14.683   7.053
 8581POPC   C4B46462  23.740  14.678   7.353
 8582POPC   NC346463  28.415  22.968   5.553
 8582POPC   PO446464  28.414  22.976   5.853
 8582POPC   GL146465  28.372  22.925   6.153
 8582POPC   GL246466  28.443  22.876   6.153
 8582POPC   C1A46467  28.362  22.933   6.453
 8582POPC   D2A46468  28.344  22.934   6.753
 8582POPC   C3A46469  28.320  22.898   7.053
 8582POPC   C4A46470  28.378  22.905   7.353
 8582POPC   C1B46471  28.661  22.874   6.453
 8582POPC   C2B46472  28.650  22.915   6.753
 8582POPC   C3B46473  28.634  22.910   7.053
 8582POPC   C4B46474  28.606  22.908   7.353
 8583POPC   NC346475  28.404  25.261   5.553
 8583POPC   PO446476  28.385  25.236   5.853
 8583POPC   GL146477  28.391  25.226   6.153
 8583POPC   GL246478  28.459  25.388   6.153
 8583POPC   C1A46479  28.401  25.217   6.453
 8583POPC   D2A46480  28.337  25.246   6.753
 8583POPC   C3A46481  28.373  25.307   7.053
 8583POPC   C4A46482  28.359  25.304   7.353
 8583POPC   C1B46483  28.496  25.494   6.453
 8583POPC   C2B46484  28.535  25.475   6.753
 8583POPC   C3B46485  28.497  25.429   7.053
 8583POPC   C4B46486  28.499  25.412   7.353
 8584POPC   NC346487   3.506  24.504   5.553
 8584POPC   PO446488   3.564  24.525   5.853
 8584POPC   GL146489   3.587  24.510   6.153
 8584POPC   GL246490   3.433  24.482   6.153
 8584POPC   C1A46491   3.591  24.483   6.453
 8584POPC   D2A46492   3.508  24.464   6.753
 8584POPC   C3A46493   3.579  24.457   7.053
 8584POPC   C4A46494   3.530  24.467   7.353
 8584POPC   C1B46495   3.316  24.536   6.453
 8584POPC   C2B46496   3.296  24.518   6.753
 8584POPC   C3B46497   3.305  24.595   7.053
 8584POPC   C4B46498   3.347  24.509   7.353
 8585POPC   NC346499  42.336   6.625   5.553
 8585POPC   PO446500  42.381   6.638   5.853
 8585POPC   GL146501  42.288   6.616   6.153
 8585POPC   GL246502  42.373   6.536   6.153
 8585POPC   C1A46503  42.290   6.671   6.453
 8585POPC   D2A46504  42.337   6.607   6.753
 8585POPC   C3A46505  42.309   6.595   7.053
 8585POPC   C4A46506  42.374   6.669   7.353
 8585POPC   C1B46507  42.473   6.429   6.453
 8585POPC   C2B46508  42.466   6.415   6.753
 8585POPC   C3B46509  42.446   6.448   7.053
 8585POPC   C4B46510  42.485   6.394   7.353
 8586POPC   NC346511  22.177   4.335   5.553
 8586POPC   PO446512  22.186   4.322   5.853
 8586POPC   GL146513  22.203   4.327   6.153
 8586POPC   GL246514  22.110   4.226   6.153
 8586POPC   C1A46515  22.161   4.365   6.453
 8586POPC   D2A46516  22.176   4.365   6.753
 8586POPC   C3A46517  22.138   4.284   7.053
 8586POPC   C4A46518  22.127   4.356   7.353
 8586POPC   C1B46519  21.941   4.091   6.453
 8586POPC   C2B46520  21.981   4.139   6.753
 8586POPC   C3B46521  21.950   4.181   7.053
 8586POPC   C4B46522  21.980   4.157   7.353
 8587POPC   NC346523   2.791  22.152   5.553
 8587POPC   PO446524   2.732  22.167   5.853
 8587POPC   GL146525   2.764  22.145   6.153
 8587POPC   GL246526   2.635  22.199   6.153
 8587POPC   C1A46527   2.765  22.169   6.453
 8587POPC   D2A46528   2.718  22.124   6.753
 8587POPC   C3A46529   2.741  22.202   7.053
 8587POPC   C4A46530   2.770  22.134   7.353
 8587POPC   C1B46531   2.530  22.205   6.453
 8587POPC   C2B46532   2.548  22.159   6.753
 8587POPC   C3B46533   2.489  22.196   7.053
 8587POPC   C4B46534   2.526  22.161   7.353
 8588POPC   NC346535  29.956  21.401   5.553
 8588POPC   PO446536  29.956  21.421   5.853
 8588POPC   GL146537  29.955  21.343   6.153
 8588POPC   GL246538  29.796  21.444   6.153
 8588POPC   C1A46539  29.897  21.429   6.453
 8588POPC   D2A46540  29.920  21.369   6.753
 8588POPC   C3A46541  29.959  21.426   7.053
 8588POPC   C4A46542  29.961  21.340   7.353
 8588POPC   C1B46543  29.691  21.399   6.453
 8588POPC   C2B46544  29.711  21.476   6.753
 8588POPC   C3B46545  29.667  21.451   7.053
 8588POPC   C4B46546  29.654  21.410   7.353
 8589POPC   NC346547   4.324  32.271   5.553
 8589POPC   PO446548   4.343  32.253   5.853
 8589POPC   GL146549   4.326  32.289   6.153
 8589POPC   GL246550   4.274  32.177   6.153
 8589POPC   C1A46551   4.272  32.261   6.453
 8589POPC   D2A46552   4.295  32.264   6.753
 8589POPC   C3A46553   4.356  32.279   7.053
 8589POPC   C4A46554   4.302  32.272   7.353
 8589POPC   C1B46555   4.283  32.040   6.453
 8589POPC   C2B46556   4.273  32.025   6.753
 8589POPC   C3B46557   4.260  32.045   7.053
 8589POPC   C4B46558   4.269  32.023   7.353
 8590POPC   NC346559  39.973   4.326   5.553
 8590POPC   PO446560  39.976   4.329   5.853
 8590POPC   GL146561  40.009   4.291   6.153
 8590POPC   GL246562  39.912   4.207   6.153
 8590POPC   C1A46563  40.014   4.310   6.453
 8590POPC   D2A46564  39.996   4.365   6.753
 8590POPC   C3A46565  39.974   4.306   7.053
 8590POPC   C4A46566  39.973   4.289   7.353
 8590POPC   C1B46567  39.805   4.146   6.453
 8590POPC   C2B46568  39.826   4.086   6.753
 8590POPC   C3B46569  39.853   4.103   7.053
 8590POPC   C4B46570  39.803   4.137   7.353
 8591POPC   NC346571  28.328  17.519   5.553
 8591POPC   PO446572  28.343  17.484   5.853
 8591POPC   GL146573  28.353  17.488   6.153
 8591POPC   GL246574  28.293  17.664   6.153
 8591POPC   C1A46575  28.341  17.501   6.453
 8591POPC   D2A46576  28.386  17.469   6.753
 8591POPC   C3A46577  28.410  17.555   7.053
 8591POPC   C4A46578  28.412  17.511   7.353
 8591POPC   C1B46579  28.282  17.740   6.453
 8591POPC   C2B46580  28.230  17.770   6.753
 8591POPC   C3B46581  28.239  17.738   7.053
 8591POPC   C4B46582  28.309  17.690   7.353
 8592POPC   NC346583  19.876  42.337   5.553
 8592POPC   PO446584  19.859  42.368   5.853
 8592POPC   GL146585  19.884  42.306   6.153
 8592POPC   GL246586  19.712  42.347   6.153
 8592POPC   C1A46587  19.878  42.373   6.453
 8592POPC   D2A46588  19.846  42.327   6.753
 8592POPC   C3A46589  19.792  42.324   7.053
 8592POPC   C4A46590  19.817  42.336   7.353
 8592POPC   C1B46591  19.568  42.435   6.453
 8592POPC   C2B46592  19.655  42.473   6.753
 8592POPC   C3B46593  19.636  42.462   7.053
 8592POPC   C4B46594  19.619  42.486   7.353
 8593POPC   NC346595  42.319  22.144   5.553
 8593POPC   PO446596  42.367  22.139   5.853
 8593POPC   GL146597  42.310  22.147   6.153
 8593POPC   GL246598  42.240  22.170   6.153
 8593POPC   C1A46599  42.319  22.121   6.453
 8593POPC   D2A46600  42.343  22.181   6.753
 8593POPC   C3A46601  42.306  22.130   7.053
 8593POPC   C4A46602  42.345  22.196   7.353
 8593POPC   C1B46603  42.057  22.187   6.453
 8593POPC   C2B46604  42.085  22.183   6.753
 8593POPC   C3B46605  42.081  22.207   7.053
 8593POPC   C4B46606  42.138  22.204   7.353
 8594POPC   NC346607  35.323  13.668   5.553
 8594POPC   PO446608  35.322  13.649   5.853
 8594POPC   GL146609  35.349  13.639   6.153
 8594POPC   GL246610  35.318  13.484   6.153
 8594POPC   C1A46611  35.323  13.611   6.453
 8594POPC   D2A46612  35.357  13.626   6.753
 8594POPC   C3A46613  35.312  13.663   7.053
 8594POPC   C4A46614  35.400  13.602   7.353
 8594POPC   C1B46615  35.320  13.406   6.453
 8594POPC   C2B46616  35.276  13.422   6.753
 8594POPC   C3B46617  35.301  13.402   7.053
 8594POPC   C4B46618  35.266  13.394   7.353
 8595POPC   NC346619   5.840  26.804   5.553
 8595POPC   PO446620   5.853  26.807   5.853
 8595POPC   GL146621   5.902  26.851   6.153
 8595POPC   GL246622   5.779  26.973   6.153
 8595POPC   C1A46623   5.864  26.846   6.453
 8595POPC   D2A46624   5.825  26.807   6.753
 8595POPC   C3A46625   5.852  26.829   7.053
 8595POPC   C4A46626   5.825  26.838   7.353
 8595POPC   C1B46627   5.782  27.100   6.453
 8595POPC   C2B46628   5.733  27.035   6.753
 8595POPC   C3B46629   5.764  27.044   7.053
 8595POPC   C4B46630   5.767  27.020   7.353
 8596POPC   NC346631  27.612  33.031   5.553
 8596POPC   PO446632  27.623  33.050   5.853
 8596POPC   GL146633  27.566  33.070   6.153
 8596POPC   GL246634  27.561  32.897   6.153
 8596POPC   C1A46635  27.569  32.975   6.453
 8596POPC   D2A46636  27.629  32.989   6.753
 8596POPC   C3A46637  27.571  32.975   7.053
 8596POPC   C4A46638  27.605  33.019   7.353
 8596POPC   C1B46639  27.541  32.754   6.453
 8596POPC   C2B46640  27.610  32.757   6.753
 8596POPC   C3B46641  27.573  32.773   7.053
 8596POPC   C4B46642  27.538  32.811   7.353
 8597POPC   NC346643   2.739  29.147   5.553
 8597POPC   PO446644   2.733  29.173   5.853
 8597POPC   GL146645   2.762  29.177   6.153
 8597POPC   GL246646   2.664  29.022   6.153
 8597POPC   C1A46647   2.716  29.128   6.453
 8597POPC   D2A46648   2.782  29.170   6.753
 8597POPC   C3A46649   2.754  29.134   7.053
 8597POPC   C4A46650   2.813  29.182   7.353
 8597POPC   C1B46651   2.687  28.920   6.453
 8597POPC   C2B46652   2.686  28.951   6.753
 8597POPC   C3B46653   2.661  28.958   7.053
 8597POPC   C4B46654   2.677  28.891   7.353
 8598POPC   NC346655  12.116  22.165   5.553
 8598POPC   PO446656  12.113  22.170   5.853
 8598POPC   GL146657  12.085  22.121   6.153
 8598POPC   GL246658  11.968  22.092   6.153
 8598POPC   C1A46659  12.118  22.200   6.453
 8598POPC   D2A46660  12.109  22.199   6.753
 8598POPC   C3A46661  12.123  22.116   7.053
 8598POPC   C4A46662  12.030  22.163   7.353
 8598POPC   C1B46663  11.888  22.111   6.453
 8598POPC   C2B46664  11.861  22.053   6.753
 8598POPC   C3B46665  11.858  22.116   7.053
 8598POPC   C4B46666  11.825  22.100   7.353
 8599POPC   NC346667  43.849  43.125   5.553
 8599POPC   PO446668  43.903  43.120   5.853
 8599POPC   GL146669  43.847  43.105   6.153
 8599POPC   GL246670  43.833  43.156   6.153
 8599POPC   C1A46671  43.850  43.074   6.453
 8599POPC   D2A46672  43.901  43.082   6.753
 8599POPC   C3A46673  43.912  43.112   7.053
 8599POPC   C4A46674  43.861  43.145   7.353
 8599POPC   C1B46675  43.738  43.300   6.453
 8599POPC   C2B46676  43.688  43.303   6.753
 8599POPC   C3B46677  43.703  43.298   7.053
 8599POPC   C4B46678  43.704  43.328   7.353
 8600POPC   NC346679  17.495  19.855   5.553
 8600POPC   PO446680  17.516  19.860   5.853
 8600POPC   GL146681  17.505  19.872   6.153
 8600POPC   GL246682  17.478  20.005   6.153
 8600POPC   C1A46683  17.460  19.795   6.453
 8600POPC   D2A46684  17.513  19.790   6.753
 8600POPC   C3A46685  17.476  19.798   7.053
 8600POPC   C4A46686  17.523  19.791   7.353
 8600POPC   C1B46687  17.453  20.053   6.453
 8600POPC   C2B46688  17.505  20.051   6.753
 8600POPC   C3B46689  17.417  20.060   7.053
 8600POPC   C4B46690  17.451  20.105   7.353
 8601POPC   NC346691  13.581  15.984   5.553
 8601POPC   PO446692  13.598  15.958   5.853
 8601POPC   GL146693  13.642  16.001   6.153
 8601POPC   GL246694  13.725  16.064   6.153
 8601POPC   C1A46695  13.598  15.915   6.453
 8601POPC   D2A46696  13.608  15.982   6.753
 8601POPC   C3A46697  13.637  15.968   7.053
 8601POPC   C4A46698  13.648  15.912   7.353
 8601POPC   C1B46699  13.742  16.222   6.453
 8601POPC   C2B46700  13.687  16.178   6.753
 8601POPC   C3B46701  13.702  16.200   7.053
 8601POPC   C4B46702  13.682  16.158   7.353
 8602POPC   NC346703   8.150  34.597   5.553
 8602POPC   PO446704   8.204  34.611   5.853
 8602POPC   GL146705   8.219  34.565   6.153
 8602POPC   GL246706   8.118  34.476   6.153
 8602POPC   C1A46707   8.235  34.538   6.453
 8602POPC   D2A46708   8.184  34.602   6.753
 8602POPC   C3A46709   8.160  34.571   7.053
 8602POPC   C4A46710   8.188  34.614   7.353
 8602POPC   C1B46711   8.097  34.364   6.453
 8602POPC   C2B46712   8.147  34.370   6.753
 8602POPC   C3B46713   8.139  34.295   7.053
 8602POPC   C4B46714   8.091  34.310   7.353
 8603POPC   NC346715  31.489  15.912   5.553
 8603POPC   PO446716  31.445  15.987   5.853
 8603POPC   GL146717  31.424  15.950   6.153
 8603POPC   GL246718  31.446  16.105   6.153
 8603POPC   C1A46719  31.468  15.974   6.453
 8603POPC   D2A46720  31.486  15.922   6.753
 8603POPC   C3A46721  31.476  15.929   7.053
 8603POPC   C4A46722  31.490  15.985   7.353
 8603POPC   C1B46723  31.284  16.180   6.453
 8603POPC   C2B46724  31.308  16.187   6.753
 8603POPC   C3B46725  31.293  16.177   7.053
 8603POPC   C4B46726  31.301  16.169   7.353
 8604POPC   NC346727   7.457  26.837   5.553
 8604POPC   PO446728   7.390  26.770   5.853
 8604POPC   GL146729   7.406  26.833   6.153
 8604POPC   GL246730   7.542  26.893   6.153
 8604POPC   C1A46731   7.431  26.776   6.453
 8604POPC   D2A46732   7.393  26.844   6.753
 8604POPC   C3A46733   7.411  26.812   7.053
 8604POPC   C4A46734   7.389  26.777   7.353
 8604POPC   C1B46735   7.657  26.931   6.453
 8604POPC   C2B46736   7.659  26.892   6.753
 8604POPC   C3B46737   7.661  26.890   7.053
 8604POPC   C4B46738   7.621  26.934   7.353
 8605POPC   NC346739  16.697  35.386   5.553
 8605POPC   PO446740  16.781  35.357   5.853
 8605POPC   GL146741  16.767  35.334   6.153
 8605POPC   GL246742  16.704  35.406   6.153
 8605POPC   C1A46743  16.772  35.380   6.453
 8605POPC   D2A46744  16.780  35.362   6.753
 8605POPC   C3A46745  16.762  35.342   7.053
 8605POPC   C4A46746  16.730  35.347   7.353
 8605POPC   C1B46747  16.625  35.502   6.453
 8605POPC   C2B46748  16.589  35.584   6.753
 8605POPC   C3B46749  16.573  35.502   7.053
 8605POPC   C4B46750  16.584  35.519   7.353
 8606POPC   NC346751  30.680  35.357   5.553
 8606POPC   PO446752  30.685  35.329   5.853
 8606POPC   GL146753  30.709  35.383   6.153
 8606POPC   GL246754  30.709  35.494   6.153
 8606POPC   C1A46755  30.703  35.377   6.453
 8606POPC   D2A46756  30.737  35.321   6.753
 8606POPC   C3A46757  30.744  35.397   7.053
 8606POPC   C4A46758  30.723  35.361   7.353
 8606POPC   C1B46759  30.765  35.620   6.453
 8606POPC   C2B46760  30.781  35.568   6.753
 8606POPC   C3B46761  30.722  35.572   7.053
 8606POPC   C4B46762  30.727  35.558   7.353
 8607POPC   NC346763  19.856  24.466   5.553
 8607POPC   PO446764  19.855  24.480   5.853
 8607POPC   GL146765  19.871  24.467   6.153
 8607POPC   GL246766  19.752  24.362   6.153
 8607POPC   C1A46767  19.828  24.508   6.453
 8607POPC   D2A46768  19.871  24.489   6.753
 8607POPC   C3A46769  19.854  24.447   7.053
 8607POPC   C4A46770  19.837  24.473   7.353
 8607POPC   C1B46771  19.707  24.310   6.453
 8607POPC   C2B46772  19.702  24.308   6.753
 8607POPC   C3B46773  19.709  24.251   7.053
 8607POPC   C4B46774  19.742  24.284   7.353
 8608POPC   NC346775  31.437  12.886   5.553
 8608POPC   PO446776  31.452  12.866   5.853
 8608POPC   GL146777  31.487  12.851   6.153
 8608POPC   GL246778  31.447  13.024   6.153
 8608POPC   C1A46779  31.425  12.835   6.453
 8608POPC   D2A46780  31.450  12.812   6.753
 8608POPC   C3A46781  31.459  12.827   7.053
 8608POPC   C4A46782  31.489  12.813   7.353
 8608POPC   C1B46783  31.484  13.069   6.453
 8608POPC   C2B46784  31.426  13.069   6.753
 8608POPC   C3B46785  31.438  13.062   7.053
 8608POPC   C4B46786  31.471  13.128   7.353
 8609POPC   NC346787   2.775  42.346   5.553
 8609POPC   PO446788   2.729  42.343   5.853
 8609POPC   GL146789   2.792  42.381   6.153
 8609POPC   GL246790   2.620  42.436   6.153
 8609POPC   C1A46791   2.811  42.358   6.453
 8609POPC   D2A46792   2.765  42.335   6.753
 8609POPC   C3A46793   2.792  42.314   7.053
 8609POPC   C4A46794   2.759  42.364   7.353
 8609POPC   C1B46795   2.518  42.483   6.453
 8609POPC   C2B46796   2.550  42.453   6.753
 8609POPC   C3B46797   2.493  42.459   7.053
 8609POPC   C4B46798   2.563  42.411   7.353
 8610POPC   NC346799  43.881  25.220   5.553
 8610POPC   PO446800  43.844  25.249   5.853
 8610POPC   GL146801  43.926  25.285   6.153
 8610POPC   GL246802  43.778  25.370   6.153
 8610POPC   C1A46803  43.875  25.253   6.453
 8610POPC   D2A46804  43.874  25.272   6.753
 8610POPC   C3A46805  43.931  25.231   7.053
 8610POPC   C4A46806  43.841  25.254   7.353
 8610POPC   C1B46807  43.685  25.400   6.453
 8610POPC   C2B46808  43.683  25.381   6.753
 8610POPC   C3B46809  43.690  25.441   7.053
 8610POPC   C4B46810  43.735  25.464   7.353
 8611POPC   NC346811  38.428   8.173   5.553
 8611POPC   PO446812  38.460   8.197   5.853
 8611POPC   GL146813  38.505   8.182   6.153
 8611POPC   GL246814  38.525   8.298   6.153
 8611POPC   C1A46815  38.409   8.235   6.453
 8611POPC   D2A46816  38.491   8.164   6.753
 8611POPC   C3A46817  38.421   8.235   7.053
 8611POPC   C4A46818  38.477   8.224   7.353
 8611POPC   C1B46819  38.575   8.366   6.453
 8611POPC   C2B46820  38.647   8.418   6.753
 8611POPC   C3B46821  38.644   8.397   7.053
 8611POPC   C4B46822  38.622   8.435   7.353
 8612POPC   NC346823   9.011   8.990   5.553
 8612POPC   PO446824   8.933   8.977   5.853
 8612POPC   GL146825   8.971   9.004   6.153
 8612POPC   GL246826   9.099   8.948   6.153
 8612POPC   C1A46827   8.991   8.961   6.453
 8612POPC   D2A46828   8.938   9.022   6.753
 8612POPC   C3A46829   8.950   8.942   7.053
 8612POPC   C4A46830   8.931   8.998   7.353
 8612POPC   C1B46831   9.210   8.929   6.453
 8612POPC   C2B46832   9.215   8.895   6.753
 8612POPC   C3B46833   9.180   8.867   7.053
 8612POPC   C4B46834   9.192   8.871   7.353
 8613POPC   NC346835  20.654   4.331   5.553
 8613POPC   PO446836  20.601   4.310   5.853
 8613POPC   GL146837  20.650   4.307   6.153
 8613POPC   GL246838  20.678   4.407   6.153
 8613POPC   C1A46839  20.601   4.340   6.453
 8613POPC   D2A46840  20.645   4.284   6.753
 8613POPC   C3A46841  20.603   4.292   7.053
 8613POPC   C4A46842  20.606   4.303   7.353
 8613POPC   C1B46843  20.684   4.565   6.453
 8613POPC   C2B46844  20.668   4.577   6.753
 8613POPC   C3B46845  20.679   4.499   7.053
 8613POPC   C4B46846  20.708   4.517   7.353
 8614POPC   NC346847  37.640  13.606   5.553
 8614POPC   PO446848  37.693  13.609   5.853
 8614POPC   GL146849  37.631  13.648   6.153
 8614POPC   GL246850  37.564  13.641   6.153
 8614POPC   C1A46851  37.694  13.648   6.453
 8614POPC   D2A46852  37.681  13.584   6.753
 8614POPC   C3A46853  37.647  13.625   7.053
 8614POPC   C4A46854  37.634  13.677   7.353
 8614POPC   C1B46855  37.475  13.673   6.453
 8614POPC   C2B46856  37.477  13.693   6.753
 8614POPC   C3B46857  37.414  13.629   7.053
 8614POPC   C4B46858  37.469  13.701   7.353
 8615POPC   NC346859   7.449  44.680   5.553
 8615POPC   PO446860   7.410  44.635   5.853
 8615POPC   GL146861   7.403  44.695   6.153
 8615POPC   GL246862   7.561  44.688   6.153
 8615POPC   C1A46863   7.385  44.622   6.453
 8615POPC   D2A46864   7.406  44.638   6.753
 8615POPC   C3A46865   7.430  44.627   7.053
 8615POPC   C4A46866   7.406  44.653   7.353
 8615POPC   C1B46867   7.641  44.608   6.453
 8615POPC   C2B46868   7.642  44.675   6.753
 8615POPC   C3B46869   7.651  44.654   7.053
 8615POPC   C4B46870   7.656  44.627   7.353
 8616POPC   NC346871  42.331  25.256   5.553
 8616POPC   PO446872  42.361  25.219   5.853
 8616POPC   GL146873  42.293  25.223   6.153
 8616POPC   GL246874  42.301  25.334   6.153
 8616POPC   C1A46875  42.308  25.249   6.453
 8616POPC   D2A46876  42.308  25.234   6.753
 8616POPC   C3A46877  42.341  25.236   7.053
 8616POPC   C4A46878  42.323  25.315   7.353
 8616POPC   C1B46879  42.210  25.493   6.453
 8616POPC   C2B46880  42.153  25.429   6.753
 8616POPC   C3B46881  42.226  25.449   7.053
 8616POPC   C4B46882  42.201  25.524   7.353
 8617POPC   NC346883  14.388  44.638   5.553
 8617POPC   PO446884  14.377  44.654   5.853
 8617POPC   GL146885  14.429  44.694   6.153
 8617POPC   GL246886  14.411  44.593   6.153
 8617POPC   C1A46887  14.362  44.688   6.453
 8617POPC   D2A46888  14.387  44.681   6.753
 8617POPC   C3A46889  14.386  44.642   7.053
 8617POPC   C4A46890  14.408  44.616   7.353
 8617POPC   C1B46891  14.457  44.448   6.453
 8617POPC   C2B46892  14.532  44.447   6.753
 8617POPC   C3B46893  14.530  44.452   7.053
 8617POPC   C4B46894  14.510  44.399   7.353
 8618POPC   NC346895   8.954  39.962   5.553
 8618POPC   PO446896   8.972  40.010   5.853
 8618POPC   GL146897   8.935  39.959   6.153
 8618POPC   GL246898   8.986  39.931   6.153
 8618POPC   C1A46899   8.936  40.045   6.453
 8618POPC   D2A46900   8.945  40.013   6.753
 8618POPC   C3A46901   9.000  40.015   7.053
 8618POPC   C4A46902   9.007  40.040   7.353
 8618POPC   C1B46903   8.976  39.810   6.453
 8618POPC   C2B46904   9.054  39.799   6.753
 8618POPC   C3B46905   9.030  39.792   7.053
 8618POPC   C4B46906   9.029  39.786   7.353
 8619POPC   NC346907  16.697  28.418   5.553
 8619POPC   PO446908  16.751  28.335   5.853
 8619POPC   GL146909  16.735  28.404   6.153
 8619POPC   GL246910  16.832  28.430   6.153
 8619POPC   C1A46911  16.712  28.358   6.453
 8619POPC   D2A46912  16.774  28.335   6.753
 8619POPC   C3A46913  16.740  28.322   7.053
 8619POPC   C4A46914  16.724  28.352   7.353
 8619POPC   C1B46915  16.977  28.486   6.453
 8619POPC   C2B46916  16.937  28.504   6.753
 8619POPC   C3B46917  16.965  28.435   7.053
 8619POPC   C4B46918  16.912  28.437   7.353
 8620POPC   NC346919  12.870  35.351   5.553
 8620POPC   PO446920  12.900  35.344   5.853
 8620POPC   GL146921  12.845  35.364   6.153
 8620POPC   GL246922  12.861  35.181   6.153
 8620POPC   C1A46923  12.846  35.369   6.453
 8620POPC   D2A46924  12.817  35.336   6.753
 8620POPC   C3A46925  12.867  35.321   7.053
 8620POPC   C4A46926  12.838  35.382   7.353
 8620POPC   C1B46927  12.917  35.130   6.453
 8620POPC   C2B46928  12.839  35.125   6.753
 8620POPC   C3B46929  12.902  35.091   7.053
 8620POPC   C4B46930  12.922  35.095   7.353
 8621POPC   NC346931   4.294  41.595   5.553
 8621POPC   PO446932   4.366  41.561   5.853
 8621POPC   GL146933   4.286  41.512   6.153
 8621POPC   GL246934   4.417  41.567   6.153
 8621POPC   C1A46935   4.364  41.572   6.453
 8621POPC   D2A46936   4.354  41.584   6.753
 8621POPC   C3A46937   4.269  41.513   7.053
 8621POPC   C4A46938   4.328  41.558   7.353
 8621POPC   C1B46939   4.535  41.558   6.453
 8621POPC   C2B46940   4.551  41.595   6.753
 8621POPC   C3B46941   4.559  41.566   7.053
 8621POPC   C4B46942   4.542  41.543   7.353
 8622POPC   NC346943  43.066  43.850   5.553
 8622POPC   PO446944  43.144  43.878   5.853
 8622POPC   GL146945  43.080  43.934   6.153
 8622POPC   GL246946  43.246  43.861   6.153
 8622POPC   C1A46947  43.130  43.836   6.453
 8622POPC   D2A46948  43.087  43.890   6.753
 8622POPC   C3A46949  43.094  43.905   7.053
 8622POPC   C4A46950  43.151  43.876   7.353
 8622POPC   C1B46951  43.408  43.908   6.453
 8622POPC   C2B46952  43.396  43.912   6.753
 8622POPC   C3B46953  43.382  43.861   7.053
 8622POPC   C4B46954  43.373  43.856   7.353
 8623POPC   NC346955  12.872  14.384   5.553
 8623POPC   PO446956  12.847  14.425   5.853
 8623POPC   GL146957  12.823  14.428   6.153
 8623POPC   GL246958  12.771  14.509   6.153
 8623POPC   C1A46959  12.844  14.387   6.453
 8623POPC   D2A46960  12.803  14.407   6.753
 8623POPC   C3A46961  12.843  14.359   7.053
 8623POPC   C4A46962  12.815  14.360   7.353
 8623POPC   C1B46963  12.643  14.534   6.453
 8623POPC   C2B46964  12.703  14.531   6.753
 8623POPC   C3B46965  12.680  14.597   7.053
 8623POPC   C4B46966  12.655  14.521   7.353
 8624POPC   NC346967  12.056  13.597   5.553
 8624POPC   PO446968  12.119  13.614   5.853
 8624POPC   GL146969  12.096  13.664   6.153
 8624POPC   GL246970  12.111  13.565   6.153
 8624POPC   C1A46971  12.034  13.660   6.453
 8624POPC   D2A46972  12.048  13.607   6.753
 8624POPC   C3A46973  12.053  13.653   7.053
 8624POPC   C4A46974  12.058  13.657   7.353
 8624POPC   C1B46975  12.207  13.400   6.453
 8624POPC   C2B46976  12.226  13.461   6.753
 8624POPC   C3B46977  12.161  13.369   7.053
 8624POPC   C4B46978  12.212  13.406   7.353
 8625POPC   NC346979   9.746  32.987   5.553
 8625POPC   PO446980   9.727  32.988   5.853
 8625POPC   GL146981   9.783  32.980   6.153
 8625POPC   GL246982   9.866  33.025   6.153
 8625POPC   C1A46983   9.797  33.004   6.453
 8625POPC   D2A46984   9.785  33.060   6.753
 8625POPC   C3A46985   9.789  32.998   7.053
 8625POPC   C4A46986   9.781  32.994   7.353
 8625POPC   C1B46987   9.982  33.050   6.453
 8625POPC   C2B46988   9.945  33.085   6.753
 8625POPC   C3B46989   9.959  33.026   7.053
 8625POPC   C4B46990   9.948  33.037   7.353
 8626POPC   NC346991  42.348  29.912   5.553
 8626POPC   PO446992  42.378  29.951   5.853
 8626POPC   GL146993  42.340  29.965   6.153
 8626POPC   GL246994  42.384  29.839   6.153
 8626POPC   C1A46995  42.328  29.915   6.453
 8626POPC   D2A46996  42.297  29.874   6.753
 8626POPC   C3A46997  42.382  29.970   7.053
 8626POPC   C4A46998  42.355  29.914   7.353
 8626POPC   C1B46999  42.473  29.710   6.453
 8626POPC   C2B47000  42.518  29.694   6.753
 8626POPC   C3B47001  42.495  29.735   7.053
 8626POPC   C4B47002  42.466  29.738   7.353
 8627POPC   NC347003   0.487   1.975   5.553
 8627POPC   PO447004   0.464   1.990   5.853
 8627POPC   GL147005   0.459   1.997   6.153
 8627POPC   GL247006   0.499   2.044   6.153
 8627POPC   C1A47007   0.484   1.957   6.453
 8627POPC   D2A47008   0.391   1.967   6.753
 8627POPC   C3A47009   0.474   1.966   7.053
 8627POPC   C4A47010   0.417   2.026   7.353
 8627POPC   C1B47011   0.612   2.111   6.453
 8627POPC   C2B47012   0.679   2.103   6.753
 8627POPC   C3B47013   0.654   2.142   7.053
 8627POPC   C4B47014   0.662   2.103   7.353
 8628POPC   NC347015  41.511  12.817   5.553
 8628POPC   PO447016  41.560  12.869   5.853
 8628POPC   GL147017  41.581  12.862   6.153
 8628POPC   GL247018  41.473  12.780   6.153
 8628POPC   C1A47019  41.561  12.886   6.453
 8628POPC   D2A47020  41.551  12.860   6.753
 8628POPC   C3A47021  41.582  12.852   7.053
 8628POPC   C4A47022  41.573  12.843   7.353
 8628POPC   C1B47023  41.486  12.656   6.453
 8628POPC   C2B47024  41.424  12.581   6.753
 8628POPC   C3B47025  41.430  12.644   7.053
 8628POPC   C4B47026  41.450  12.580   7.353
 8629POPC   NC347027   1.211  16.683   5.553
 8629POPC   PO447028   1.182  16.749   5.853
 8629POPC   GL147029   1.218  16.779   6.153
 8629POPC   GL247030   1.123  16.783   6.153
 8629POPC   C1A47031   1.255  16.715   6.453
 8629POPC   D2A47032   1.215  16.732   6.753
 8629POPC   C3A47033   1.243  16.779   7.053
 8629POPC   C4A47034   1.182  16.708   7.353
 8629POPC   C1B47035   0.931  16.700   6.453
 8629POPC   C2B47036   1.013  16.704   6.753
 8629POPC   C3B47037   0.947  16.762   7.053
 8629POPC   C4B47038   0.991  16.700   7.353
 8630POPC   NC347039  15.214  40.014   5.553
 8630POPC   PO447040  15.163  40.027   5.853
 8630POPC   GL147041  15.187  39.957   6.153
 8630POPC   GL247042  15.196  39.856   6.153
 8630POPC   C1A47043  15.212  40.045   6.453
 8630POPC   D2A47044  15.186  39.983   6.753
 8630POPC   C3A47045  15.202  39.982   7.053
 8630POPC   C4A47046  15.169  40.040   7.353
 8630POPC   C1B47047  15.182  39.743   6.453
 8630POPC   C2B47048  15.177  39.714   6.753
 8630POPC   C3B47049  15.215  39.760   7.053
 8630POPC   C4B47050  15.184  39.767   7.353
 8631POPC   NC347051  16.766  40.740   5.553
 8631POPC   PO447052  16.754  40.807   5.853
 8631POPC   GL147053  16.760  40.824   6.153
 8631POPC   GL247054  16.711  40.653   6.153
 8631POPC   C1A47055  16.718  40.831   6.453
 8631POPC   D2A47056  16.751  40.831   6.753
 8631POPC   C3A47057  16.748  40.787   7.053
 8631POPC   C4A47058  16.731  40.785   7.353
 8631POPC   C1B47059  16.572  40.586   6.453
 8631POPC   C2B47060  16.564  40.520   6.753
 8631POPC   C3B47061  16.624  40.582   7.053
 8631POPC   C4B47062  16.566  40.520   7.353
 8632POPC   NC347063  15.975  29.191   5.553
 8632POPC   PO447064  15.991  29.150   5.853
 8632POPC   GL147065  15.913  29.127   6.153
 8632POPC   GL247066  16.011  29.261   6.153
 8632POPC   C1A47067  15.937  29.106   6.453
 8632POPC   D2A47068  15.945  29.193   6.753
 8632POPC   C3A47069  15.983  29.182   7.053
 8632POPC   C4A47070  15.907  29.099   7.353
 8632POPC   C1B47071  15.934  29.356   6.453
 8632POPC   C2B47072  15.955  29.346   6.753
 8632POPC   C3B47073  15.953  29.406   7.053
 8632POPC   C4B47074  15.961  29.364   7.353
 8633POPC   NC347075  15.181  31.447   5.553
 8633POPC   PO447076  15.195  31.498   5.853
 8633POPC   GL147077  15.172  31.446   6.153
 8633POPC   GL247078  15.224  31.637   6.153
 8633POPC   C1A47079  15.217  31.477   6.453
 8633POPC   D2A47080  15.133  31.487   6.753
 8633POPC   C3A47081  15.187  31.502   7.053
 8633POPC   C4A47082  15.186  31.508   7.353
 8633POPC   C1B47083  15.238  31.657   6.453
 8633POPC   C2B47084  15.243  31.676   6.753
 8633POPC   C3B47085  15.237  31.710   7.053
 8633POPC   C4B47086  15.226  31.706   7.353
 8634POPC   NC347087  43.115  12.085   5.553
 8634POPC   PO447088  43.097  12.068   5.853
 8634POPC   GL147089  43.136  12.067   6.153
 8634POPC   GL247090  42.978  12.016   6.153
 8634POPC   C1A47091  43.152  12.098   6.453
 8634POPC   D2A47092  43.154  12.070   6.753
 8634POPC   C3A47093  43.073  12.049   7.053
 8634POPC   C4A47094  43.091  12.099   7.353
 8634POPC   C1B47095  42.914  11.896   6.453
 8634POPC   C2B47096  42.938  11.942   6.753
 8634POPC   C3B47097  42.890  11.943   7.053
 8634POPC   C4B47098  42.904  11.896   7.353
 8635POPC   NC347099  25.241  24.534   5.553
 8635POPC   PO447100  25.238  24.484   5.853
 8635POPC   GL147101  25.237  24.443   6.153
 8635POPC   GL247102  25.163  24.476   6.153
 8635POPC   C1A47103  25.311  24.476   6.453
 8635POPC   D2A47104  25.287  24.477   6.753
 8635POPC   C3A47105  25.218  24.531   7.053
 8635POPC   C4A47106  25.263  24.445   7.353
 8635POPC   C1B47107  24.967  24.512   6.453
 8635POPC   C2B47108  25.057  24.526   6.753
 8635POPC   C3B47109  25.007  24.524   7.053
 8635POPC   C4B47110  25.056  24.524   7.353
 8636POPC   NC347111  32.990   9.006   5.553
 8636POPC   PO447112  33.032   8.945   5.853
 8636POPC   GL147113  33.066   8.968   6.153
 8636POPC   GL247114  33.106   8.973   6.153
 8636POPC   C1A47115  33.046   9.018   6.453
 8636POPC   D2A47116  32.996   8.974   6.753
 8636POPC   C3A47117  33.052   8.970   7.053
 8636POPC   C4A47118  32.982   8.968   7.353
 8636POPC   C1B47119  33.293   9.054   6.453
 8636POPC   C2B47120  33.236   9.045   6.753
 8636POPC   C3B47121  33.225   8.984   7.053
 8636POPC   C4B47122  33.310   9.004   7.353
 8637POPC   NC347123  40.765  30.723   5.553
 8637POPC   PO447124  40.827  30.731   5.853
 8637POPC   GL147125  40.736  30.731   6.153
 8637POPC   GL247126  40.881  30.737   6.153
 8637POPC   C1A47127  40.766  30.647   6.453
 8637POPC   D2A47128  40.815  30.716   6.753
 8637POPC   C3A47129  40.735  30.702   7.053
 8637POPC   C4A47130  40.754  30.708   7.353
 8637POPC   C1B47131  41.053  30.773   6.453
 8637POPC   C2B47132  41.031  30.843   6.753
 8637POPC   C3B47133  41.035  30.859   7.053
 8637POPC   C4B47134  40.971  30.800   7.353
 8638POPC   NC347135  43.911  36.130   5.553
 8638POPC   PO447136  43.884  36.092   5.853
 8638POPC   GL147137  43.883  36.127   6.153
 8638POPC   GL247138  43.923  35.982   6.153
 8638POPC   C1A47139  43.935  36.113   6.453
 8638POPC   D2A47140  43.884  36.123   6.753
 8638POPC   C3A47141  43.853  36.112   7.053
 8638POPC   C4A47142  43.840  36.093   7.353
 8638POPC   C1B47143  43.999  35.961   6.453
 8638POPC   C2B47144  44.076  35.936   6.753
 8638POPC   C3B47145  44.063  35.973   7.053
 8638POPC   C4B47146  43.990  35.904   7.353
 8639POPC   NC347147  28.339  15.967   5.553
 8639POPC   PO447148  28.349  15.972   5.853
 8639POPC   GL147149  28.381  15.987   6.153
 8639POPC   GL247150  28.471  15.998   6.153
 8639POPC   C1A47151  28.337  15.962   6.453
 8639POPC   D2A47152  28.384  15.985   6.753
 8639POPC   C3A47153  28.401  15.919   7.053
 8639POPC   C4A47154  28.325  15.952   7.353
 8639POPC   C1B47155  28.515  16.119   6.453
 8639POPC   C2B47156  28.494  16.130   6.753
 8639POPC   C3B47157  28.591  16.165   7.053
 8639POPC   C4B47158  28.498  16.164   7.353
 8640POPC   NC347159  12.034  15.942   5.553
 8640POPC   PO447160  12.035  15.920   5.853
 8640POPC   GL147161  12.101  15.907   6.153
 8640POPC   GL247162  12.099  16.118   6.153
 8640POPC   C1A47163  12.036  15.983   6.453
 8640POPC   D2A47164  12.074  15.921   6.753
 8640POPC   C3A47165  12.049  15.932   7.053
 8640POPC   C4A47166  12.053  15.950   7.353
 8640POPC   C1B47167  12.008  16.189   6.453
 8640POPC   C2B47168  12.090  16.228   6.753
 8640POPC   C3B47169  12.054  16.155   7.053
 8640POPC   C4B47170  12.079  16.216   7.353
 8641POPC   NC347171  15.144  43.933   5.553
 8641POPC   PO447172  15.222  43.894   5.853
 8641POPC   GL147173  15.218  43.911   6.153
 8641POPC   GL247174  15.313  43.829   6.153
 8641POPC   C1A47175  15.172  43.882   6.453
 8641POPC   D2A47176  15.198  43.914   6.753
 8641POPC   C3A47177  15.155  43.922   7.053
 8641POPC   C4A47178  15.226  43.863   7.353
 8641POPC   C1B47179  15.376  43.814   6.453
 8641POPC   C2B47180  15.374  43.751   6.753
 8641POPC   C3B47181  15.432  43.773   7.053
 8641POPC   C4B47182  15.409  43.784   7.353
 8642POPC   NC347183  40.800   3.586   5.553
 8642POPC   PO447184  40.748   3.496   5.853
 8642POPC   GL147185  40.801   3.517   6.153
 8642POPC   GL247186  40.729   3.662   6.153
 8642POPC   C1A47187  40.795   3.532   6.453
 8642POPC   D2A47188  40.753   3.520   6.753
 8642POPC   C3A47189  40.784   3.498   7.053
 8642POPC   C4A47190  40.747   3.557   7.353
 8642POPC   C1B47191  40.640   3.785   6.453
 8642POPC   C2B47192  40.609   3.763   6.753
 8642POPC   C3B47193  40.604   3.704   7.053
 8642POPC   C4B47194  40.636   3.711   7.353
 8643POPC   NC347195  41.520  35.380   5.553
 8643POPC   PO447196  41.607  35.377   5.853
 8643POPC   GL147197  41.511  35.339   6.153
 8643POPC   GL247198  41.655  35.352   6.153
 8643POPC   C1A47199  41.538  35.339   6.453
 8643POPC   D2A47200  41.558  35.312   6.753
 8643POPC   C3A47201  41.549  35.383   7.053
 8643POPC   C4A47202  41.530  35.395   7.353
 8643POPC   C1B47203  41.823  35.405   6.453
 8643POPC   C2B47204  41.813  35.418   6.753
 8643POPC   C3B47205  41.765  35.455   7.053
 8643POPC   C4B47206  41.760  35.482   7.353
 8644POPC   NC347207   7.379  43.915   5.553
 8644POPC   PO447208   7.426  43.879   5.853
 8644POPC   GL147209   7.385  43.918   6.153
 8644POPC   GL247210   7.562  43.887   6.153
 8644POPC   C1A47211   7.442  43.926   6.453
 8644POPC   D2A47212   7.400  43.935   6.753
 8644POPC   C3A47213   7.451  43.906   7.053
 8644POPC   C4A47214   7.433  43.916   7.353
 8644POPC   C1B47215   7.632  43.841   6.453
 8644POPC   C2B47216   7.677  43.878   6.753
 8644POPC   C3B47217   7.666  43.832   7.053
 8644POPC   C4B47218   7.628  43.814   7.353
 8645POPC   NC347219   0.427  37.667   5.553
 8645POPC   PO447220   0.409  37.700   5.853
 8645POPC   GL147221   0.429  37.691   6.153
 8645POPC   GL247222   0.544  37.712   6.153
 8645POPC   C1A47223   0.431  37.656   6.453
 8645POPC   D2A47224   0.413  37.672   6.753
 8645POPC   C3A47225   0.473  37.689   7.053
 8645POPC   C4A47226   0.486  37.696   7.353
 8645POPC   C1B47227   0.663  37.730   6.453
 8645POPC   C2B47228   0.719  37.774   6.753
 8645POPC   C3B47229   0.707  37.751   7.053
 8645POPC   C4B47230   0.704  37.727   7.353
 8646POPC   NC347231   1.221  10.544   5.553
 8646POPC   PO447232   1.220  10.475   5.853
 8646POPC   GL147233   1.254  10.512   6.153
 8646POPC   GL247234   1.142  10.537   6.153
 8646POPC   C1A47235   1.199  10.547   6.453
 8646POPC   D2A47236   1.191  10.562   6.753
 8646POPC   C3A47237   1.256  10.480   7.053
 8646POPC   C4A47238   1.206  10.515   7.353
 8646POPC   C1B47239   0.983  10.636   6.453
 8646POPC   C2B47240   0.974  10.653   6.753
 8646POPC   C3B47241   0.975  10.607   7.053
 8646POPC   C4B47242   1.023  10.683   7.353
 8647POPC   NC347243  13.614  32.204   5.553
 8647POPC   PO447244  13.613  32.272   5.853
 8647POPC   GL147245  13.667  32.211   6.153
 8647POPC   GL247246  13.611  32.343   6.153
 8647POPC   C1A47247  13.663  32.207   6.453
 8647POPC   D2A47248  13.641  32.221   6.753
 8647POPC   C3A47249  13.600  32.273   7.053
 8647POPC   C4A47250  13.613  32.252   7.353
 8647POPC   C1B47251  13.649  32.524   6.453
 8647POPC   C2B47252  13.685  32.545   6.753
 8647POPC   C3B47253  13.655  32.501   7.053
 8647POPC   C4B47254  13.623  32.466   7.353
 8648POPC   NC347255  42.367  26.852   5.553
 8648POPC   PO447256  42.288  26.772   5.853
 8648POPC   GL147257  42.374  26.810   6.153
 8648POPC   GL247258  42.394  26.683   6.153
 8648POPC   C1A47259  42.291  26.849   6.453
 8648POPC   D2A47260  42.314  26.809   6.753
 8648POPC   C3A47261  42.301  26.807   7.053
 8648POPC   C4A47262  42.325  26.769   7.353
 8648POPC   C1B47263  42.489  26.655   6.453
 8648POPC   C2B47264  42.498  26.619   6.753
 8648POPC   C3B47265  42.458  26.595   7.053
 8648POPC   C4B47266  42.452  26.664   7.353
 8649POPC   NC347267  40.764   2.023   5.553
 8649POPC   PO447268  40.818   2.004   5.853
 8649POPC   GL147269  40.752   1.975   6.153
 8649POPC   GL247270  40.823   1.882   6.153
 8649POPC   C1A47271  40.825   2.023   6.453
 8649POPC   D2A47272  40.764   2.038   6.753
 8649POPC   C3A47273  40.782   1.961   7.053
 8649POPC   C4A47274  40.757   1.981   7.353
 8649POPC   C1B47275  40.808   1.733   6.453
 8649POPC   C2B47276  40.869   1.721   6.753
 8649POPC   C3B47277  40.833   1.795   7.053
 8649POPC   C4B47278  40.880   1.789   7.353
 8650POPC   NC347279  11.251  31.451   5.553
 8650POPC   PO447280  11.326  31.510   5.853
 8650POPC   GL147281  11.345  31.522   6.153
 8650POPC   GL247282  11.233  31.394   6.153
 8650POPC   C1A47283  11.256  31.471   6.453
 8650POPC   D2A47284  11.315  31.460   6.753
 8650POPC   C3A47285  11.326  31.510   7.053
 8650POPC   C4A47286  11.310  31.495   7.353
 8650POPC   C1B47287  11.048  31.372   6.453
 8650POPC   C2B47288  11.086  31.334   6.753
 8650POPC   C3B47289  11.065  31.355   7.053
 8650POPC   C4B47290  11.049  31.344   7.353
 8651POPC   NC347291  27.624  10.570   5.553
 8651POPC   PO447292  27.549  10.501   5.853
 8651POPC   GL147293  27.606  10.558   6.153
 8651POPC   GL247294  27.705  10.610   6.153
 8651POPC   C1A47295  27.583  10.475   6.453
 8651POPC   D2A47296  27.604  10.494   6.753
 8651POPC   C3A47297  27.547  10.517   7.053
 8651POPC   C4A47298  27.625  10.557   7.353
 8651POPC   C1B47299  27.741  10.739   6.453
 8651POPC   C2B47300  27.722  10.759   6.753
 8651POPC   C3B47301  27.715  10.731   7.053
 8651POPC   C4B47302  27.745  10.697   7.353
 8652POPC   NC347303  40.040   8.216   5.553
 8652POPC   PO447304  40.042   8.195   5.853
 8652POPC   GL147305  40.053   8.149   6.153
 8652POPC   GL247306  39.997   8.356   6.153
 8652POPC   C1A47307  39.998   8.246   6.453
 8652POPC   D2A47308  39.961   8.228   6.753
 8652POPC   C3A47309  40.005   8.176   7.053
 8652POPC   C4A47310  40.026   8.206   7.353
 8652POPC   C1B47311  40.015   8.491   6.453
 8652POPC   C2B47312  40.075   8.402   6.753
 8652POPC   C3B47313  40.050   8.470   7.053
 8652POPC   C4B47314  40.003   8.473   7.353
 8653POPC   NC347315  25.237  15.997   5.553
 8653POPC   PO447316  25.271  15.944   5.853
 8653POPC   GL147317  25.295  15.994   6.153
 8653POPC   GL247318  25.099  16.009   6.153
 8653POPC   C1A47319  25.314  15.986   6.453
 8653POPC   D2A47320  25.219  15.911   6.753
 8653POPC   C3A47321  25.307  15.912   7.053
 8653POPC   C4A47322  25.266  15.986   7.353
 8653POPC   C1B47323  24.988  16.051   6.453
 8653POPC   C2B47324  25.004  15.983   6.753
 8653POPC   C3B47325  25.029  15.966   7.053
 8653POPC   C4B47326  25.052  16.027   7.353
 8654POPC   NC347327  43.071   9.772   5.553
 8654POPC   PO447328  43.096   9.714   5.853
 8654POPC   GL147329  43.152   9.708   6.153
 8654POPC   GL247330  43.047   9.791   6.153
 8654POPC   C1A47331  43.065   9.782   6.453
 8654POPC   D2A47332  43.146   9.731   6.753
 8654POPC   C3A47333  43.126   9.703   7.053
 8654POPC   C4A47334  43.106   9.731   7.353
 8654POPC   C1B47335  42.894   9.900   6.453
 8654POPC   C2B47336  42.877   9.903   6.753
 8654POPC   C3B47337  42.932   9.901   7.053
 8654POPC   C4B47338  42.909   9.933   7.353
 8655POPC   NC347339  36.129   2.717   5.553
 8655POPC   PO447340  36.108   2.767   5.853
 8655POPC   GL147341  36.097   2.718   6.153
 8655POPC   GL247342  36.005   2.659   6.153
 8655POPC   C1A47343  36.170   2.747   6.453
 8655POPC   D2A47344  36.109   2.747   6.753
 8655POPC   C3A47345  36.089   2.810   7.053
 8655POPC   C4A47346  36.141   2.789   7.353
 8655POPC   C1B47347  35.930   2.671   6.453
 8655POPC   C2B47348  35.876   2.608   6.753
 8655POPC   C3B47349  35.957   2.639   7.053
 8655POPC   C4B47350  35.921   2.605   7.353
 8656POPC   NC347351  44.669   8.958   5.553
 8656POPC   PO447352  44.699   8.951   5.853
 8656POPC   GL147353  44.634   8.932   6.153
 8656POPC   GL247354  44.834   8.956   6.153
 8656POPC   C1A47355  44.659   8.939   6.453
 8656POPC   D2A47356  44.673   8.960   6.753
 8656POPC   C3A47357  44.629   8.935   7.053
 8656POPC   C4A47358  44.630   8.931   7.353
 8656POPC   C1B47359  44.900   8.935   6.453
 8656POPC   C2B47360  44.950   8.871   6.753
 8656POPC   C3B47361  44.888   8.942   7.053
 8656POPC   C4B47362  44.894   8.896   7.353
 8657POPC   NC347363  11.278  29.926   5.553
 8657POPC   PO447364  11.288  29.878   5.853
 8657POPC   GL147365  11.341  29.871   6.153
 8657POPC   GL247366  11.423  29.973   6.153
 8657POPC   C1A47367  11.307  29.927   6.453
 8657POPC   D2A47368  11.292  29.963   6.753
 8657POPC   C3A47369  11.321  29.900   7.053
 8657POPC   C4A47370  11.303  29.912   7.353
 8657POPC   C1B47371  11.474  30.131   6.453
 8657POPC   C2B47372  11.476  30.097   6.753
 8657POPC   C3B47373  11.429  30.125   7.053
 8657POPC   C4B47374  11.476  30.051   7.353
 8658POPC   NC347375  29.907  38.474   5.553
 8658POPC   PO447376  29.900  38.458   5.853
 8658POPC   GL147377  29.894  38.479   6.153
 8658POPC   GL247378  29.941  38.618   6.153
 8658POPC   C1A47379  29.905  38.463   6.453
 8658POPC   D2A47380  29.969  38.460   6.753
 8658POPC   C3A47381  29.968  38.504   7.053
 8658POPC   C4A47382  29.882  38.438   7.353
 8658POPC   C1B47383  29.996  38.692   6.453
 8658POPC   C2B47384  30.046  38.701   6.753
 8658POPC   C3B47385  30.040  38.703   7.053
 8658POPC   C4B47386  30.041  38.640   7.353
 8659POPC   NC347387  30.701  42.380   5.553
 8659POPC   PO447388  30.724  42.353   5.853
 8659POPC   GL147389  30.688  42.285   6.153
 8659POPC   GL247390  30.774  42.291   6.153
 8659POPC   C1A47391  30.744  42.372   6.453
 8659POPC   D2A47392  30.739  42.361   6.753
 8659POPC   C3A47393  30.736  42.348   7.053
 8659POPC   C4A47394  30.735  42.373   7.353
 8659POPC   C1B47395  30.904  42.243   6.453
 8659POPC   C2B47396  30.905  42.250   6.753
 8659POPC   C3B47397  30.923  42.309   7.053
 8659POPC   C4B47398  30.911  42.238   7.353
 8660POPC   NC347399  37.664  26.068   5.553
 8660POPC   PO447400  37.725  26.063   5.853
 8660POPC   GL147401  37.722  26.087   6.153
 8660POPC   GL247402  37.613  26.186   6.153
 8660POPC   C1A47403  37.635  26.065   6.453
 8660POPC   D2A47404  37.661  26.061   6.753
 8660POPC   C3A47405  37.674  26.002   7.053
 8660POPC   C4A47406  37.709  26.068   7.353
 8660POPC   C1B47407  37.584  26.292   6.453
 8660POPC   C2B47408  37.616  26.253   6.753
 8660POPC   C3B47409  37.582  26.263   7.053
 8660POPC   C4B47410  37.609  26.282   7.353
 8661POPC   NC347411  44.645  32.223   5.553
 8661POPC   PO447412  44.683  32.219   5.853
 8661POPC   GL147413  44.634  32.232   6.153
 8661POPC   GL247414  44.826  32.203   6.153
 8661POPC   C1A47415  44.613  32.295   6.453
 8661POPC   D2A47416  44.668  32.214   6.753
 8661POPC   C3A47417  44.694  32.226   7.053
 8661POPC   C4A47418  44.613  32.214   7.353
 8661POPC   C1B47419  44.928  32.196   6.453
 8661POPC   C2B47420  44.880  32.180   6.753
 8661POPC   C3B47421  44.938  32.210   7.053
 8661POPC   C4B47422  44.944  32.175   7.353
 8662POPC   NC347423  28.398  13.659   5.553
 8662POPC   PO447424  28.338  13.592   5.853
 8662POPC   GL147425  28.412  13.596   6.153
 8662POPC   GL247426  28.397  13.755   6.153
 8662POPC   C1A47427  28.383  13.591   6.453
 8662POPC   D2A47428  28.397  13.642   6.753
 8662POPC   C3A47429  28.392  13.661   7.053
 8662POPC   C4A47430  28.378  13.644   7.353
 8662POPC   C1B47431  28.335  13.832   6.453
 8662POPC   C2B47432  28.376  13.906   6.753
 8662POPC   C3B47433  28.311  13.902   7.053
 8662POPC   C4B47434  28.325  13.830   7.353
 8663POPC   NC347435  21.423   4.346   5.553
 8663POPC   PO447436  21.360   4.339   5.853
 8663POPC   GL147437  21.373   4.301   6.153
 8663POPC   GL247438  21.261   4.189   6.153
 8663POPC   C1A47439  21.379   4.321   6.453
 8663POPC   D2A47440  21.401   4.310   6.753
 8663POPC   C3A47441  21.374   4.307   7.053
 8663POPC   C4A47442  21.412   4.328   7.353
 8663POPC   C1B47443  21.237   4.131   6.453
 8663POPC   C2B47444  21.233   4.164   6.753
 8663POPC   C3B47445  21.191   4.123   7.053
 8663POPC   C4B47446  21.257   4.079   7.353
 8664POPC   NC347447  10.518  38.464   5.553
 8664POPC   PO447448  10.494  38.407   5.853
 8664POPC   GL147449  10.484  38.414   6.153
 8664POPC   GL247450  10.539  38.312   6.153
 8664POPC   C1A47451  10.504  38.482   6.453
 8664POPC   D2A47452  10.571  38.490   6.753
 8664POPC   C3A47453  10.547  38.430   7.053
 8664POPC   C4A47454  10.479  38.502   7.353
 8664POPC   C1B47455  10.426  38.174   6.453
 8664POPC   C2B47456  10.504  38.259   6.753
 8664POPC   C3B47457  10.448  38.191   7.053
 8664POPC   C4B47458  10.501  38.224   7.353
 8665POPC   NC347459  20.645   1.197   5.553
 8665POPC   PO447460  20.631   1.244   5.853
 8665POPC   GL147461  20.605   1.217   6.153
 8665POPC   GL247462  20.466   1.299   6.153
 8665POPC   C1A47463  20.566   1.264   6.453
 8665POPC   D2A47464  20.616   1.182   6.753
 8665POPC   C3A47465  20.654   1.172   7.053
 8665POPC   C4A47466  20.615   1.190   7.353
 8665POPC   C1B47467  20.374   1.315   6.453
 8665POPC   C2B47468  20.401   1.284   6.753
 8665POPC   C3B47469  20.377   1.303   7.053
 8665POPC   C4B47470  20.361   1.327   7.353
 8666POPC   NC347471  11.325   8.975   5.553
 8666POPC   PO447472  11.280   8.993   5.853
 8666POPC   GL147473  11.313   9.009   6.153
 8666POPC   GL247474  11.196   8.997   6.153
 8666POPC   C1A47475  11.303   9.020   6.453
 8666POPC   D2A47476  11.304   8.976   6.753
 8666POPC   C3A47477  11.304   8.980   7.053
 8666POPC   C4A47478  11.287   9.005   7.353
 8666POPC   C1B47479  11.108   9.054   6.453
 8666POPC   C2B47480  11.030   9.080   6.753
 8666POPC   C3B47481  11.039   9.082   7.053
 8666POPC   C4B47482  11.073   9.073   7.353
 8667POPC   NC347483  10.573  37.648   5.553
 8667POPC   PO447484  10.497  37.685   5.853
 8667POPC   GL147485  10.508  37.693   6.153
 8667POPC   GL247486  10.446  37.753   6.153
 8667POPC   C1A47487  10.519  37.667   6.453
 8667POPC   D2A47488  10.562  37.660   6.753
 8667POPC   C3A47489  10.553  37.701   7.053
 8667POPC   C4A47490  10.513  37.682   7.353
 8667POPC   C1B47491  10.374  37.847   6.453
 8667POPC   C2B47492  10.342  37.885   6.753
 8667POPC   C3B47493  10.369  37.840   7.053
 8667POPC   C4B47494  10.384  37.820   7.353
 8668POPC   NC347495  25.305  26.799   5.553
 8668POPC   PO447496  25.277  26.839   5.853
 8668POPC   GL147497  25.275  26.830   6.153
 8668POPC   GL247498  25.167  26.840   6.153
 8668POPC   C1A47499  25.222  26.789   6.453
 8668POPC   D2A47500  25.248  26.773   6.753
 8668POPC   C3A47501  25.223  26.832   7.053
 8668POPC   C4A47502  25.259  26.841   7.353
 8668POPC   C1B47503  25.065  26.866   6.453
 8668POPC   C2B47504  25.017  26.839   6.753
 8668POPC   C3B47505  24.982  26.848   7.053
 8668POPC   C4B47506  25.064  26.823   7.353
 8669POPC   NC347507  32.283  32.289   5.553
 8669POPC   PO447508  32.228  32.232   5.853
 8669POPC   GL147509  32.280  32.282   6.153
 8669POPC   GL247510  32.342  32.366   6.153
 8669POPC   C1A47511  32.290  32.276   6.453
 8669POPC   D2A47512  32.267  32.206   6.753
 8669POPC   C3A47513  32.251  32.278   7.053
 8669POPC   C4A47514  32.260  32.258   7.353
 8669POPC   C1B47515  32.438  32.428   6.453
 8669POPC   C2B47516  32.405  32.473   6.753
 8669POPC   C3B47517  32.469  32.399   7.053
 8669POPC   C4B47518  32.383  32.452   7.353
 8670POPC   NC347519  44.667  19.880   5.553
 8670POPC   PO447520  44.645  19.810   5.853
 8670POPC   GL147521  44.656  19.827   6.153
 8670POPC   GL247522  44.567  19.869   6.153
 8670POPC   C1A47523  44.644  19.883   6.453
 8670POPC   D2A47524  44.680  19.837   6.753
 8670POPC   C3A47525  44.700  19.825   7.053
 8670POPC   C4A47526  44.649  19.863   7.353
 8670POPC   C1B47527  44.431  19.839   6.453
 8670POPC   C2B47528  44.455  19.917   6.753
 8670POPC   C3B47529  44.387  19.850   7.053
 8670POPC   C4B47530  44.418  19.862   7.353
 8671POPC   NC347531  14.446  18.283   5.553
 8671POPC   PO447532  14.434  18.277   5.853
 8671POPC   GL147533  14.449  18.261   6.153
 8671POPC   GL247534  14.344  18.192   6.153
 8671POPC   C1A47535  14.361  18.244   6.453
 8671POPC   D2A47536  14.443  18.314   6.753
 8671POPC   C3A47537  14.426  18.255   7.053
 8671POPC   C4A47538  14.453  18.235   7.353
 8671POPC   C1B47539  14.276  18.031   6.453
 8671POPC   C2B47540  14.266  18.082   6.753
 8671POPC   C3B47541  14.242  18.040   7.053
 8671POPC   C4B47542  14.281  18.117   7.353
 8672POPC   NC347543   2.781  20.639   5.553
 8672POPC   PO447544   2.788  20.654   5.853
 8672POPC   GL147545   2.726  20.650   6.153
 8672POPC   GL247546   2.813  20.777   6.153
 8672POPC   C1A47547   2.756  20.611   6.453
 8672POPC   D2A47548   2.753  20.589   6.753
 8672POPC   C3A47549   2.722  20.656   7.053
 8672POPC   C4A47550   2.718  20.589   7.353
 8672POPC   C1B47551   2.813  20.888   6.453
 8672POPC   C2B47552   2.868  20.874   6.753
 8672POPC   C3B47553   2.795  20.833   7.053
 8672POPC   C4B47554   2.860  20.819   7.353
 8673POPC   NC347555  24.464  25.994   5.553
 8673POPC   PO447556  24.503  26.059   5.853
 8673POPC   GL147557  24.448  26.006   6.153
 8673POPC   GL247558  24.336  26.069   6.153
 8673POPC   C1A47559  24.446  26.013   6.453
 8673POPC   D2A47560  24.478  26.038   6.753
 8673POPC   C3A47561  24.469  26.058   7.053
 8673POPC   C4A47562  24.492  26.004   7.353
 8673POPC   C1B47563  24.298  26.185   6.453
 8673POPC   C2B47564  24.303  26.187   6.753
 8673POPC   C3B47565  24.243  26.182   7.053
 8673POPC   C4B47566  24.222  26.123   7.353
 8674POPC   NC347567  28.387  12.094   5.553
 8674POPC   PO447568  28.368  12.091   5.853
 8674POPC   GL147569  28.372  12.047   6.153
 8674POPC   GL247570  28.499  12.071   6.153
 8674POPC   C1A47571  28.319  12.027   6.453
 8674POPC   D2A47572  28.374  12.046   6.753
 8674POPC   C3A47573  28.402  12.096   7.053
 8674POPC   C4A47574  28.349  12.044   7.353
 8674POPC   C1B47575  28.589  12.103   6.453
 8674POPC   C2B47576  28.577  12.111   6.753
 8674POPC   C3B47577  28.598  12.056   7.053
 8674POPC   C4B47578  28.614  12.081   7.353
 8675POPC   NC347579  36.863  24.500   5.553
 8675POPC   PO447580  36.897  24.517   5.853
 8675POPC   GL147581  36.927  24.511   6.153
 8675POPC   GL247582  36.797  24.505   6.153
 8675POPC   C1A47583  36.892  24.472   6.453
 8675POPC   D2A47584  36.921  24.487   6.753
 8675POPC   C3A47585  36.866  24.495   7.053
 8675POPC   C4A47586  36.910  24.451   7.353
 8675POPC   C1B47587  36.613  24.580   6.453
 8675POPC   C2B47588  36.624  24.502   6.753
 8675POPC   C3B47589  36.686  24.499   7.053
 8675POPC   C4B47590  36.683  24.525   7.353
 8676POPC   NC347591  21.430  25.266   5.553
 8676POPC   PO447592  21.412  25.286   5.853
 8676POPC   GL147593  21.430  25.250   6.153
 8676POPC   GL247594  21.447  25.192   6.153
 8676POPC   C1A47595  21.365  25.280   6.453
 8676POPC   D2A47596  21.398  25.290   6.753
 8676POPC   C3A47597  21.382  25.237   7.053
 8676POPC   C4A47598  21.435  25.246   7.353
 8676POPC   C1B47599  21.534  25.078   6.453
 8676POPC   C2B47600  21.555  25.099   6.753
 8676POPC   C3B47601  21.560  25.003   7.053
 8676POPC   C4B47602  21.483  25.053   7.353
 8677POPC   NC347603  40.001   5.836   5.553
 8677POPC   PO447604  40.031   5.901   5.853
 8677POPC   GL147605  39.994   5.899   6.153
 8677POPC   GL247606  39.939   5.904   6.153
 8677POPC   C1A47607  39.985   5.891   6.453
 8677POPC   D2A47608  40.040   5.912   6.753
 8677POPC   C3A47609  40.009   5.822   7.053
 8677POPC   C4A47610  39.999   5.888   7.353
 8677POPC   C1B47611  39.733   5.923   6.453
 8677POPC   C2B47612  39.744   5.985   6.753
 8677POPC   C3B47613  39.748   5.999   7.053
 8677POPC   C4B47614  39.761   5.911   7.353
 8678POPC   NC347615  26.802  24.452   5.553
 8678POPC   PO447616  26.860  24.472   5.853
 8678POPC   GL147617  26.798  24.450   6.153
 8678POPC   GL247618  26.728  24.571   6.153
 8678POPC   C1A47619  26.812  24.494   6.453
 8678POPC   D2A47620  26.768  24.503   6.753
 8678POPC   C3A47621  26.819  24.457   7.053
 8678POPC   C4A47622  26.844  24.510   7.353
 8678POPC   C1B47623  26.680  24.677   6.453
 8678POPC   C2B47624  26.691  24.643   6.753
 8678POPC   C3B47625  26.623  24.728   7.053
 8678POPC   C4B47626  26.698  24.697   7.353
 8679POPC   NC347627   5.819  30.702   5.553
 8679POPC   PO447628   5.895  30.690   5.853
 8679POPC   GL147629   5.866  30.677   6.153
 8679POPC   GL247630   5.747  30.655   6.153
 8679POPC   C1A47631   5.859  30.697   6.453
 8679POPC   D2A47632   5.874  30.649   6.753
 8679POPC   C3A47633   5.887  30.718   7.053
 8679POPC   C4A47634   5.864  30.730   7.353
 8679POPC   C1B47635   5.616  30.640   6.453
 8679POPC   C2B47636   5.627  30.646   6.753
 8679POPC   C3B47637   5.663  30.582   7.053
 8679POPC   C4B47638   5.653  30.593   7.353
 8680POPC   NC347639  13.657  19.099   5.553
 8680POPC   PO447640  13.665  19.036   5.853
 8680POPC   GL147641  13.616  19.095   6.153
 8680POPC   GL247642  13.477  18.970   6.153
 8680POPC   C1A47643  13.598  19.068   6.453
 8680POPC   D2A47644  13.665  19.016   6.753
 8680POPC   C3A47645  13.613  19.108   7.053
 8680POPC   C4A47646  13.667  19.068   7.353
 8680POPC   C1B47647  13.387  18.960   6.453
 8680POPC   C2B47648  13.366  18.965   6.753
 8680POPC   C3B47649  13.374  18.954   7.053
 8680POPC   C4B47650  13.365  18.944   7.353
 8681POPC   NC347651  43.152  34.547   5.553
 8681POPC   PO447652  43.134  34.624   5.853
 8681POPC   GL147653  43.080  34.626   6.153
 8681POPC   GL247654  43.085  34.440   6.153
 8681POPC   C1A47655  43.120  34.588   6.453
 8681POPC   D2A47656  43.128  34.613   6.753
 8681POPC   C3A47657  43.142  34.544   7.053
 8681POPC   C4A47658  43.079  34.551   7.353
 8681POPC   C1B47659  43.033  34.367   6.453
 8681POPC   C2B47660  43.071  34.349   6.753
 8681POPC   C3B47661  43.032  34.297   7.053
 8681POPC   C4B47662  43.079  34.382   7.353
 8682POPC   NC347663  11.251  32.203   5.553
 8682POPC   PO447664  11.347  32.210   5.853
 8682POPC   GL147665  11.286  32.240   6.153
 8682POPC   GL247666  11.222  32.248   6.153
 8682POPC   C1A47667  11.328  32.211   6.453
 8682POPC   D2A47668  11.317  32.270   6.753
 8682POPC   C3A47669  11.299  32.262   7.053
 8682POPC   C4A47670  11.287  32.274   7.353
 8682POPC   C1B47671  11.020  32.349   6.453
 8682POPC   C2B47672  11.058  32.330   6.753
 8682POPC   C3B47673  11.047  32.313   7.053
 8682POPC   C4B47674  11.019  32.313   7.353
 8683POPC   NC347675   3.566   8.161   5.553
 8683POPC   PO447676   3.551   8.160   5.853
 8683POPC   GL147677   3.504   8.223   6.153
 8683POPC   GL247678   3.595   8.129   6.153
 8683POPC   C1A47679   3.523   8.154   6.453
 8683POPC   D2A47680   3.524   8.179   6.753
 8683POPC   C3A47681   3.563   8.213   7.053
 8683POPC   C4A47682   3.579   8.226   7.353
 8683POPC   C1B47683   3.705   8.017   6.453
 8683POPC   C2B47684   3.700   8.050   6.753
 8683POPC   C3B47685   3.731   8.024   7.053
 8683POPC   C4B47686   3.714   8.082   7.353
 8684POPC   NC347687  22.152   2.806   5.553
 8684POPC   PO447688  22.147   2.745   5.853
 8684POPC   GL147689  22.176   2.796   6.153
 8684POPC   GL247690  22.208   2.825   6.153
 8684POPC   C1A47691  22.197   2.802   6.453
 8684POPC   D2A47692  22.152   2.726   6.753
 8684POPC   C3A47693  22.190   2.801   7.053
 8684POPC   C4A47694  22.137   2.752   7.353
 8684POPC   C1B47695  22.304   2.919   6.453
 8684POPC   C2B47696  22.344   2.912   6.753
 8684POPC   C3B47697  22.347   2.978   7.053
 8684POPC   C4B47698  22.357   2.979   7.353
 8685POPC   NC347699  38.406  34.551   5.553
 8685POPC   PO447700  38.408  34.569   5.853
 8685POPC   GL147701  38.451  34.617   6.153
 8685POPC   GL247702  38.319  34.650   6.153
 8685POPC   C1A47703  38.458  34.546   6.453
 8685POPC   D2A47704  38.447  34.559   6.753
 8685POPC   C3A47705  38.438  34.586   7.053
 8685POPC   C4A47706  38.428  34.564   7.353
 8685POPC   C1B47707  38.263  34.741   6.453
 8685POPC   C2B47708  38.299  34.763   6.753
 8685POPC   C3B47709  38.276  34.741   7.053
 8685POPC   C4B47710  38.241  34.750   7.353
 8686POPC   NC347711  27.593  39.238   5.553
 8686POPC   PO447712  27.583  39.238   5.853
 8686POPC   GL147713  27.587  39.190   6.153
 8686POPC   GL247714  27.465  39.183   6.153
 8686POPC   C1A47715  27.568  39.210   6.453
 8686POPC   D2A47716  27.568  39.250   6.753
 8686POPC   C3A47717  27.583  39.188   7.053
 8686POPC   C4A47718  27.614  39.268   7.353
 8686POPC   C1B47719  27.371  39.131   6.453
 8686POPC   C2B47720  27.327  39.096   6.753
 8686POPC   C3B47721  27.386  39.076   7.053
 8686POPC   C4B47722  27.373  39.154   7.353
 8687POPC   NC347723  30.648  32.987   5.553
 8687POPC   PO447724  30.688  33.030   5.853
 8687POPC   GL147725  30.656  33.050   6.153
 8687POPC   GL247726  30.767  33.099   6.153
 8687POPC   C1A47727  30.745  33.063   6.453
 8687POPC   D2A47728  30.647  33.059   6.753
 8687POPC   C3A47729  30.670  33.009   7.053
 8687POPC   C4A47730  30.725  33.037   7.353
 8687POPC   C1B47731  30.714  33.313   6.453
 8687POPC   C2B47732  30.738  33.315   6.753
 8687POPC   C3B47733  30.772  33.269   7.053
 8687POPC   C4B47734  30.728  33.316   7.353
 8688POPC   NC347735   2.803   2.732   5.553
 8688POPC   PO447736   2.810   2.723   5.853
 8688POPC   GL147737   2.743   2.744   6.153
 8688POPC   GL247738   2.886   2.865   6.153
 8688POPC   C1A47739   2.731   2.805   6.453
 8688POPC   D2A47740   2.810   2.750   6.753
 8688POPC   C3A47741   2.731   2.792   7.053
 8688POPC   C4A47742   2.720   2.811   7.353
 8688POPC   C1B47743   2.903   2.977   6.453
 8688POPC   C2B47744   2.907   2.948   6.753
 8688POPC   C3B47745   2.913   2.928   7.053
 8688POPC   C4B47746   2.968   2.967   7.353
 8689POPC   NC347747   9.776   6.629   5.553
 8689POPC   PO447748   9.709   6.603   5.853
 8689POPC   GL147749   9.796   6.650   6.153
 8689POPC   GL247750   9.596   6.662   6.153
 8689POPC   C1A47751   9.700   6.636   6.453
 8689POPC   D2A47752   9.703   6.617   6.753
 8689POPC   C3A47753   9.729   6.622   7.053
 8689POPC   C4A47754   9.789   6.625   7.353
 8689POPC   C1B47755   9.545   6.764   6.453
 8689POPC   C2B47756   9.493   6.807   6.753
 8689POPC   C3B47757   9.512   6.811   7.053
 8689POPC   C4B47758   9.517   6.722   7.353
 8690POPC   NC347759  29.966  31.500   5.553
 8690POPC   PO447760  29.919  31.485   5.853
 8690POPC   GL147761  29.952  31.480   6.153
 8690POPC   GL247762  30.000  31.428   6.153
 8690POPC   C1A47763  29.911  31.516   6.453
 8690POPC   D2A47764  29.923  31.454   6.753
 8690POPC   C3A47765  29.896  31.455   7.053
 8690POPC   C4A47766  29.953  31.433   7.353
 8690POPC   C1B47767  30.178  31.416   6.453
 8690POPC   C2B47768  30.137  31.431   6.753
 8690POPC   C3B47769  30.193  31.375   7.053
 8690POPC   C4B47770  30.207  31.421   7.353
 8691POPC   NC347771  43.114  15.174   5.553
 8691POPC   PO447772  43.137  15.210   5.853
 8691POPC   GL147773  43.133  15.202   6.153
 8691POPC   GL247774  43.084  15.025   6.153
 8691POPC   C1A47775  43.147  15.219   6.453
 8691POPC   D2A47776  43.147  15.157   6.753
 8691POPC   C3A47777  43.148  15.216   7.053
 8691POPC   C4A47778  43.118  15.166   7.353
 8691POPC   C1B47779  43.087  14.940   6.453
 8691POPC   C2B47780  43.013  14.937   6.753
 8691POPC   C3B47781  43.094  14.928   7.053
 8691POPC   C4B47782  43.091  14.919   7.353
 8692POPC   NC347783  24.514   3.528   5.553
 8692POPC   PO447784  24.535   3.518   5.853
 8692POPC   GL147785  24.481   3.591   6.153
 8692POPC   GL247786  24.331   3.575   6.153
 8692POPC   C1A47787  24.484   3.536   6.453
 8692POPC   D2A47788  24.519   3.517   6.753
 8692POPC   C3A47789  24.529   3.507   7.053
 8692POPC   C4A47790  24.528   3.504   7.353
 8692POPC   C1B47791  24.217   3.578   6.453
 8692POPC   C2B47792  24.237   3.574   6.753
 8692POPC   C3B47793  24.248   3.620   7.053
 8692POPC   C4B47794  24.271   3.635   7.353
 8693POPC   NC347795  13.665  36.108   5.553
 8693POPC   PO447796  13.675  36.120   5.853
 8693POPC   GL147797  13.651  36.080   6.153
 8693POPC   GL247798  13.689  36.192   6.153
 8693POPC   C1A47799  13.614  36.159   6.453
 8693POPC   D2A47800  13.659  36.136   6.753
 8693POPC   C3A47801  13.626  36.125   7.053
 8693POPC   C4A47802  13.655  36.144   7.353
 8693POPC   C1B47803  13.742  36.287   6.453
 8693POPC   C2B47804  13.762  36.359   6.753
 8693POPC   C3B47805  13.782  36.323   7.053
 8693POPC   C4B47806  13.728  36.309   7.353
 8694POPC   NC347807  19.009   6.633   5.553
 8694POPC   PO447808  19.102   6.647   5.853
 8694POPC   GL147809  19.013   6.601   6.153
 8694POPC   GL247810  19.192   6.552   6.153
 8694POPC   C1A47811  19.042   6.693   6.453
 8694POPC   D2A47812  19.052   6.598   6.753
 8694POPC   C3A47813  19.067   6.690   7.053
 8694POPC   C4A47814  19.024   6.645   7.353
 8694POPC   C1B47815  19.286   6.568   6.453
 8694POPC   C2B47816  19.267   6.551   6.753
 8694POPC   C3B47817  19.283   6.553   7.053
 8694POPC   C4B47818  19.297   6.587   7.353
 8695POPC   NC347819  10.572  40.830   5.553
 8695POPC   PO447820  10.552  40.750   5.853
 8695POPC   GL147821  10.500  40.805   6.153
 8695POPC   GL247822  10.480  40.916   6.153
 8695POPC   C1A47823  10.541  40.781   6.453
 8695POPC   D2A47824  10.498  40.787   6.753
 8695POPC   C3A47825  10.527  40.784   7.053
 8695POPC   C4A47826  10.499  40.792   7.353
 8695POPC   C1B47827  10.422  40.942   6.453
 8695POPC   C2B47828  10.367  41.008   6.753
 8695POPC   C3B47829  10.403  40.999   7.053
 8695POPC   C4B47830  10.348  40.939   7.353
 8696POPC   NC347831   1.244  33.054   5.553
 8696POPC   PO447832   1.254  32.977   5.853
 8696POPC   GL147833   1.259  32.979   6.153
 8696POPC   GL247834   1.209  33.161   6.153
 8696POPC   C1A47835   1.198  32.985   6.453
 8696POPC   D2A47836   1.188  33.071   6.753
 8696POPC   C3A47837   1.201  33.036   7.053
 8696POPC   C4A47838   1.208  33.064   7.353
 8696POPC   C1B47839   1.295  33.308   6.453
 8696POPC   C2B47840   1.288  33.310   6.753
 8696POPC   C3B47841   1.255  33.306   7.053
 8696POPC   C4B47842   1.306  33.285   7.353
 8697POPC   NC347843  21.418   5.098   5.553
 8697POPC   PO447844  21.390   5.065   5.853
 8697POPC   GL147845  21.428   5.100   6.153
 8697POPC   GL247846  21.508   5.007   6.153
 8697POPC   C1A47847  21.346   5.106   6.453
 8697POPC   D2A47848  21.344   5.063   6.753
 8697POPC   C3A47849  21.423   5.097   7.053
 8697POPC   C4A47850  21.347   5.094   7.353
 8697POPC   C1B47851  21.666   4.974   6.453
 8697POPC   C2B47852  21.650   5.064   6.753
 8697POPC   C3B47853  21.643   5.053   7.053
 8697POPC   C4B47854  21.587   5.045   7.353
 8698POPC   NC347855  38.409  41.599   5.553
 8698POPC   PO447856  38.432  41.548   5.853
 8698POPC   GL147857  38.460  41.535   6.153
 8698POPC   GL247858  38.611  41.656   6.153
 8698POPC   C1A47859  38.441  41.570   6.453
 8698POPC   D2A47860  38.412  41.586   6.753
 8698POPC   C3A47861  38.495  41.588   7.053
 8698POPC   C4A47862  38.442  41.515   7.353
 8698POPC   C1B47863  38.697  41.664   6.453
 8698POPC   C2B47864  38.700  41.725   6.753
 8698POPC   C3B47865  38.634  41.726   7.053
 8698POPC   C4B47866  38.664  41.644   7.353
 8699POPC   NC347867  39.195  44.674   5.553
 8699POPC   PO447868  39.212  44.675   5.853
 8699POPC   GL147869  39.188  44.658   6.153
 8699POPC   GL247870  39.177  44.732   6.153
 8699POPC   C1A47871  39.252  44.698   6.453
 8699POPC   D2A47872  39.278  44.624   6.753
 8699POPC   C3A47873  39.274  44.626   7.053
 8699POPC   C4A47874  39.273  44.681   7.353
 8699POPC   C1B47875  39.066  44.774   6.453
 8699POPC   C2B47876  39.062  44.849   6.753
 8699POPC   C3B47877  39.034  44.844   7.053
 8699POPC   C4B47878  39.016  44.856   7.353
 8700POPC   NC347879  22.958   3.503   5.553
 8700POPC   PO447880  22.959   3.496   5.853
 8700POPC   GL147881  22.922   3.572   6.153
 8700POPC   GL247882  23.001   3.661   6.153
 8700POPC   C1A47883  22.952   3.520   6.453
 8700POPC   D2A47884  22.930   3.590   6.753
 8700POPC   C3A47885  22.895   3.508   7.053
 8700POPC   C4A47886  22.976   3.579   7.353
 8700POPC   C1B47887  23.026   3.803   6.453
 8700POPC   C2B47888  23.023   3.714   6.753
 8700POPC   C3B47889  23.106   3.730   7.053
 8700POPC   C4B47890  23.111   3.742   7.353
 8701POPC   NC347891  12.872  12.899   5.553
 8701POPC   PO447892  12.813  12.811   5.853
 8701POPC   GL147893  12.886  12.885   6.153
 8701POPC   GL247894  12.762  12.913   6.153
 8701POPC   C1A47895  12.868  12.819   6.453
 8701POPC   D2A47896  12.899  12.855   6.753
 8701POPC   C3A47897  12.898  12.860   7.053
 8701POPC   C4A47898  12.841  12.839   7.353
 8701POPC   C1B47899  12.723  13.053   6.453
 8701POPC   C2B47900  12.765  13.041   6.753
 8701POPC   C3B47901  12.751  13.059   7.053
 8701POPC   C4B47902  12.754  13.026   7.353
 8702POPC   NC347903  43.918  27.549   5.553
 8702POPC   PO447904  43.860  27.565   5.853
 8702POPC   GL147905  43.903  27.624   6.153
 8702POPC   GL247906  43.879  27.731   6.153
 8702POPC   C1A47907  43.894  27.619   6.453
 8702POPC   D2A47908  43.884  27.610   6.753
 8702POPC   C3A47909  43.885  27.544   7.053
 8702POPC   C4A47910  43.913  27.544   7.353
 8702POPC   C1B47911  43.752  27.859   6.453
 8702POPC   C2B47912  43.798  27.807   6.753
 8702POPC   C3B47913  43.766  27.790   7.053
 8702POPC   C4B47914  43.818  27.818   7.353
 8703POPC   NC347915  32.297   7.413   5.553
 8703POPC   PO447916  32.259   7.456   5.853
 8703POPC   GL147917  32.246   7.422   6.153
 8703POPC   GL247918  32.098   7.351   6.153
 8703POPC   C1A47919  32.219   7.382   6.453
 8703POPC   D2A47920  32.209   7.379   6.753
 8703POPC   C3A47921  32.203   7.400   7.053
 8703POPC   C4A47922  32.204   7.456   7.353
 8703POPC   C1B47923  32.056   7.341   6.453
 8703POPC   C2B47924  32.027   7.397   6.753
 8703POPC   C3B47925  32.017   7.383   7.053
 8703POPC   C4B47926  32.047   7.312   7.353
 8704POPC   NC347927  41.589  13.654   5.553
 8704POPC   PO447928  41.574  13.651   5.853
 8704POPC   GL147929  41.522  13.585   6.153
 8704POPC   GL247930  41.426  13.609   6.153
 8704POPC   C1A47931  41.588  13.677   6.453
 8704POPC   D2A47932  41.559  13.653   6.753
 8704POPC   C3A47933  41.604  13.634   7.053
 8704POPC   C4A47934  41.534  13.668   7.353
 8704POPC   C1B47935  41.371  13.475   6.453
 8704POPC   C2B47936  41.326  13.523   6.753
 8704POPC   C3B47937  41.333  13.478   7.053
 8704POPC   C4B47938  41.286  13.492   7.353
 8705POPC   NC347939  11.267  20.612   5.553
 8705POPC   PO447940  11.321  20.568   5.853
 8705POPC   GL147941  11.288  20.574   6.153
 8705POPC   GL247942  11.186  20.747   6.153
 8705POPC   C1A47943  11.259  20.654   6.453
 8705POPC   D2A47944  11.330  20.582   6.753
 8705POPC   C3A47945  11.326  20.644   7.053
 8705POPC   C4A47946  11.323  20.572   7.353
 8705POPC   C1B47947  11.203  20.830   6.453
 8705POPC   C2B47948  11.130  20.808   6.753
 8705POPC   C3B47949  11.147  20.809   7.053
 8705POPC   C4B47950  11.208  20.842   7.353
 8706POPC   NC347951  26.044  37.727   5.553
 8706POPC   PO447952  26.002  37.662   5.853
 8706POPC   GL147953  26.008  37.729   6.153
 8706POPC   GL247954  26.109  37.757   6.153
 8706POPC   C1A47955  26.033  37.716   6.453
 8706POPC   D2A47956  26.064  37.710   6.753
 8706POPC   C3A47957  26.030  37.633   7.053
 8706POPC   C4A47958  26.053  37.698   7.353
 8706POPC   C1B47959  26.236  37.874   6.453
 8706POPC   C2B47960  26.183  37.850   6.753
 8706POPC   C3B47961  26.246  37.837   7.053
 8706POPC   C4B47962  26.249  37.861   7.353
 8707POPC   NC347963   9.756  10.534   5.553
 8707POPC   PO447964   9.756  10.491   5.853
 8707POPC   GL147965   9.730  10.479   6.153
 8707POPC   GL247966   9.858  10.478   6.153
 8707POPC   C1A47967   9.733  10.494   6.453
 8707POPC   D2A47968   9.722  10.513   6.753
 8707POPC   C3A47969   9.747  10.479   7.053
 8707POPC   C4A47970   9.708  10.504   7.353
 8707POPC   C1B47971   9.985  10.539   6.453
 8707POPC   C2B47972   9.953  10.525   6.753
 8707POPC   C3B47973  10.024  10.546   7.053
 8707POPC   C4B47974  10.014  10.475   7.353
 8708POPC   NC347975  12.836  39.236   5.553
 8708POPC   PO447976  12.839  39.210   5.853
 8708POPC   GL147977  12.871  39.238   6.153
 8708POPC   GL247978  12.859  39.065   6.153
 8708POPC   C1A47979  12.889  39.206   6.453
 8708POPC   D2A47980  12.854  39.193   6.753
 8708POPC   C3A47981  12.894  39.233   7.053
 8708POPC   C4A47982  12.881  39.254   7.353
 8708POPC   C1B47983  12.880  38.943   6.453
 8708POPC   C2B47984  12.903  38.954   6.753
 8708POPC   C3B47985  12.859  38.949   7.053
 8708POPC   C4B47986  12.837  38.972   7.353
 8709POPC   NC347987  32.975  39.263   5.553
 8709POPC   PO447988  32.989  39.222   5.853
 8709POPC   GL147989  33.023  39.194   6.153
 8709POPC   GL247990  33.143  39.161   6.153
 8709POPC   C1A47991  32.979  39.215   6.453
 8709POPC   D2A47992  33.071  39.260   6.753
 8709POPC   C3A47993  32.981  39.229   7.053
 8709POPC   C4A47994  33.051  39.239   7.353
 8709POPC   C1B47995  33.276  39.122   6.453
 8709POPC   C2B47996  33.249  39.124   6.753
 8709POPC   C3B47997  33.288  39.123   7.053
 8709POPC   C4B47998  33.275  39.121   7.353
 8710POPC   NC347999  17.541  33.850   5.553
 8710POPC   PO448000  17.545  33.850   5.853
 8710POPC   GL148001  17.506  33.765   6.153
 8710POPC   GL248002  17.624  33.798   6.153
 8710POPC   C1A48003  17.459  33.754   6.453
 8710POPC   D2A48004  17.493  33.795   6.753
 8710POPC   C3A48005  17.528  33.844   7.053
 8710POPC   C4A48006  17.545  33.824   7.353
 8710POPC   C1B48007  17.773  33.794   6.453
 8710POPC   C2B48008  17.790  33.771   6.753
 8710POPC   C3B48009  17.772  33.748   7.053
 8710POPC   C4B48010  17.740  33.754   7.353
 8711POPC   NC348011  33.008   5.074   5.553
 8711POPC   PO448012  32.983   5.124   5.853
 8711POPC   GL148013  33.073   5.113   6.153
 8711POPC   GL248014  32.977   5.170   6.153
 8711POPC   C1A48015  33.033   5.117   6.453
 8711POPC   D2A48016  33.031   5.115   6.753
 8711POPC   C3A48017  32.992   5.043   7.053
 8711POPC   C4A48018  32.980   5.075   7.353
 8711POPC   C1B48019  32.847   5.307   6.453
 8711POPC   C2B48020  32.894   5.317   6.753
 8711POPC   C3B48021  32.847   5.287   7.053
 8711POPC   C4B48022  32.877   5.251   7.353
 8712POPC   NC348023  44.628   5.135   5.553
 8712POPC   PO448024  44.648   5.091   5.853
 8712POPC   GL148025  44.704   5.050   6.153
 8712POPC   GL248026  44.531   5.112   6.153
 8712POPC   C1A48027  44.637   5.140   6.453
 8712POPC   D2A48028  44.690   5.072   6.753
 8712POPC   C3A48029  44.704   5.083   7.053
 8712POPC   C4A48030  44.641   5.138   7.353
 8712POPC   C1B48031  44.389   5.105   6.453
 8712POPC   C2B48032  44.368   5.104   6.753
 8712POPC   C3B48033  44.413   5.149   7.053
 8712POPC   C4B48034  44.376   5.122   7.353
 8713POPC   NC348035   8.929  43.071   5.553
 8713POPC   PO448036   9.000  43.105   5.853
 8713POPC   GL148037   9.010  43.104   6.153
 8713POPC   GL248038   9.036  43.048   6.153
 8713POPC   C1A48039   8.950  43.120   6.453
 8713POPC   D2A48040   8.936  43.122   6.753
 8713POPC   C3A48041   9.010  43.147   7.053
 8713POPC   C4A48042   8.945  43.064   7.353
 8713POPC   C1B48043   9.184  42.970   6.453
 8713POPC   C2B48044   9.182  43.009   6.753
 8713POPC   C3B48045   9.185  42.995   7.053
 8713POPC   C4B48046   9.149  43.017   7.353
 8714POPC   NC348047  23.671  34.621   5.553
 8714POPC   PO448048  23.696  34.563   5.853
 8714POPC   GL148049  23.703  34.588   6.153
 8714POPC   GL248050  23.633  34.681   6.153
 8714POPC   C1A48051  23.749  34.601   6.453
 8714POPC   D2A48052  23.757  34.542   6.753
 8714POPC   C3A48053  23.701  34.607   7.053
 8714POPC   C4A48054  23.670  34.573   7.353
 8714POPC   C1B48055  23.513  34.686   6.453
 8714POPC   C2B48056  23.484  34.724   6.753
 8714POPC   C3B48057  23.507  34.761   7.053
 8714POPC   C4B48058  23.531  34.752   7.353
 8715POPC   NC348059  37.672  15.908   5.553
 8715POPC   PO448060  37.715  15.917   5.853
 8715POPC   GL148061  37.674  15.989   6.153
 8715POPC   GL248062  37.774  16.074   6.153
 8715POPC   C1A48063  37.665  15.944   6.453
 8715POPC   D2A48064  37.716  15.929   6.753
 8715POPC   C3A48065  37.674  15.907   7.053
 8715POPC   C4A48066  37.700  15.910   7.353
 8715POPC   C1B48067  37.839  16.164   6.453
 8715POPC   C2B48068  37.767  16.136   6.753
 8715POPC   C3B48069  37.847  16.152   7.053
 8715POPC   C4B48070  37.847  16.144   7.353
 8716POPC   NC348071  10.526  23.692   5.553
 8716POPC   PO448072  10.518  23.763   5.853
 8716POPC   GL148073  10.516  23.683   6.153
 8716POPC   GL248074  10.515  23.811   6.153
 8716POPC   C1A48075  10.572  23.761   6.453
 8716POPC   D2A48076  10.509  23.669   6.753
 8716POPC   C3A48077  10.562  23.738   7.053
 8716POPC   C4A48078  10.530  23.698   7.353
 8716POPC   C1B48079  10.456  23.984   6.453
 8716POPC   C2B48080  10.511  23.986   6.753
 8716POPC   C3B48081  10.517  23.916   7.053
 8716POPC   C4B48082  10.472  23.967   7.353
 8717POPC   NC348083  34.530   7.394   5.553
 8717POPC   PO448084  34.610   7.438   5.853
 8717POPC   GL148085  34.580   7.445   6.153
 8717POPC   GL248086  34.609   7.508   6.153
 8717POPC   C1A48087  34.539   7.411   6.453
 8717POPC   D2A48088  34.575   7.379   6.753
 8717POPC   C3A48089  34.595   7.454   7.053
 8717POPC   C4A48090  34.586   7.384   7.353
 8717POPC   C1B48091  34.577   7.683   6.453
 8717POPC   C2B48092  34.594   7.675   6.753
 8717POPC   C3B48093  34.575   7.695   7.053
 8717POPC   C4B48094  34.589   7.678   7.353
 8718POPC   NC348095  37.652  17.507   5.553
 8718POPC   PO448096  37.729  17.554   5.853
 8718POPC   GL148097  37.690  17.537   6.153
 8718POPC   GL248098  37.582  17.508   6.153
 8718POPC   C1A48099  37.655  17.520   6.453
 8718POPC   D2A48100  37.722  17.457   6.753
 8718POPC   C3A48101  37.649  17.484   7.053
 8718POPC   C4A48102  37.635  17.530   7.353
 8718POPC   C1B48103  37.443  17.420   6.453
 8718POPC   C2B48104  37.486  17.391   6.753
 8718POPC   C3B48105  37.421  17.450   7.053
 8718POPC   C4B48106  37.453  17.466   7.353
 8719POPC   NC348107  22.928   4.347   5.553
 8719POPC   PO448108  22.958   4.282   5.853
 8719POPC   GL148109  22.987   4.281   6.153
 8719POPC   GL248110  22.836   4.291   6.153
 8719POPC   C1A48111  22.891   4.298   6.453
 8719POPC   D2A48112  22.893   4.330   6.753
 8719POPC   C3A48113  22.901   4.356   7.053
 8719POPC   C4A48114  22.917   4.311   7.353
 8719POPC   C1B48115  22.706   4.222   6.453
 8719POPC   C2B48116  22.694   4.220   6.753
 8719POPC   C3B48117  22.673   4.207   7.053
 8719POPC   C4B48118  22.756   4.217   7.353
 8720POPC   NC348119   5.113  31.506   5.553
 8720POPC   PO448120   5.050  31.461   5.853
 8720POPC   GL148121   5.098  31.499   6.153
 8720POPC   GL248122   5.201  31.514   6.153
 8720POPC   C1A48123   5.112  31.429   6.453
 8720POPC   D2A48124   5.123  31.438   6.753
 8720POPC   C3A48125   5.089  31.519   7.053
 8720POPC   C4A48126   5.094  31.518   7.353
 8720POPC   C1B48127   5.294  31.507   6.453
 8720POPC   C2B48128   5.390  31.510   6.753
 8720POPC   C3B48129   5.300  31.486   7.053
 8720POPC   C4B48130   5.303  31.443   7.353
 8721POPC   NC348131  31.488  29.114   5.553
 8721POPC   PO448132  31.455  29.147   5.853
 8721POPC   GL148133  31.510  29.113   6.153
 8721POPC   GL248134  31.600  29.194   6.153
 8721POPC   C1A48135  31.466  29.173   6.453
 8721POPC   D2A48136  31.441  29.149   6.753
 8721POPC   C3A48137  31.479  29.161   7.053
 8721POPC   C4A48138  31.455  29.138   7.353
 8721POPC   C1B48139  31.736  29.128   6.453
 8721POPC   C2B48140  31.702  29.186   6.753
 8721POPC   C3B48141  31.750  29.203   7.053
 8721POPC   C4B48142  31.674  29.135   7.353
 8722POPC   NC348143  41.520  33.050   5.553
 8722POPC   PO448144  41.555  33.018   5.853
 8722POPC   GL148145  41.539  32.997   6.153
 8722POPC   GL248146  41.637  32.988   6.153
 8722POPC   C1A48147  41.589  33.016   6.453
 8722POPC   D2A48148  41.575  33.065   6.753
 8722POPC   C3A48149  41.532  32.986   7.053
 8722POPC   C4A48150  41.604  33.069   7.353
 8722POPC   C1B48151  41.842  32.945   6.453
 8722POPC   C2B48152  41.826  33.008   6.753
 8722POPC   C3B48153  41.767  32.950   7.053
 8722POPC   C4B48154  41.774  32.950   7.353
 8723POPC   NC348155  27.551  15.924   5.553
 8723POPC   PO448156  27.581  15.997   5.853
 8723POPC   GL148157  27.546  15.970   6.153
 8723POPC   GL248158  27.667  16.098   6.153
 8723POPC   C1A48159  27.592  15.943   6.453
 8723POPC   D2A48160  27.605  15.975   6.753
 8723POPC   C3A48161  27.578  15.943   7.053
 8723POPC   C4A48162  27.548  15.952   7.353
 8723POPC   C1B48163  27.737  16.193   6.453
 8723POPC   C2B48164  27.783  16.158   6.753
 8723POPC   C3B48165  27.777  16.196   7.053
 8723POPC   C4B48166  27.778  16.198   7.353
 8724POPC   NC348167  33.027  12.895   5.553
 8724POPC   PO448168  33.048  12.899   5.853
 8724POPC   GL148169  33.029  12.859   6.153
 8724POPC   GL248170  33.099  12.853   6.153
 8724POPC   C1A48171  33.027  12.850   6.453
 8724POPC   D2A48172  33.060  12.812   6.753
 8724POPC   C3A48173  32.987  12.818   7.053
 8724POPC   C4A48174  33.013  12.877   7.353
 8724POPC   C1B48175  33.234  12.870   6.453
 8724POPC   C2B48176  33.277  12.940   6.753
 8724POPC   C3B48177  33.240  12.948   7.053
 8724POPC   C4B48178  33.297  12.952   7.353
 8725POPC   NC348179  33.031  22.945   5.553
 8725POPC   PO448180  33.046  22.980   5.853
 8725POPC   GL148181  33.007  22.975   6.153
 8725POPC   GL248182  33.108  23.003   6.153
 8725POPC   C1A48183  33.033  22.970   6.453
 8725POPC   D2A48184  32.976  22.946   6.753
 8725POPC   C3A48185  33.000  22.962   7.053
 8725POPC   C4A48186  33.009  22.964   7.353
 8725POPC   C1B48187  33.273  23.097   6.453
 8725POPC   C2B48188  33.234  23.095   6.753
 8725POPC   C3B48189  33.276  23.074   7.053
 8725POPC   C4B48190  33.203  23.073   7.353
 8726POPC   NC348191   5.093  20.572   5.553
 8726POPC   PO448192   5.130  20.622   5.853
 8726POPC   GL148193   5.105  20.631   6.153
 8726POPC   GL248194   5.006  20.576   6.153
 8726POPC   C1A48195   5.078  20.637   6.453
 8726POPC   D2A48196   5.082  20.596   6.753
 8726POPC   C3A48197   5.089  20.605   7.053
 8726POPC   C4A48198   5.067  20.632   7.353
 8726POPC   C1B48199   4.879  20.529   6.453
 8726POPC   C2B48200   4.826  20.573   6.753
 8726POPC   C3B48201   4.821  20.543   7.053
 8726POPC   C4B48202   4.797  20.610   7.353
 8727POPC   NC348203  23.753  39.249   5.553
 8727POPC   PO448204  23.749  39.191   5.853
 8727POPC   GL148205  23.691  39.193   6.153
 8727POPC   GL248206  23.802  39.190   6.153
 8727POPC   C1A48207  23.726  39.255   6.453
 8727POPC   D2A48208  23.669  39.241   6.753
 8727POPC   C3A48209  23.695  39.251   7.053
 8727POPC   C4A48210  23.695  39.215   7.353
 8727POPC   C1B48211  23.978  39.205   6.453
 8727POPC   C2B48212  23.923  39.184   6.753
 8727POPC   C3B48213  23.916  39.201   7.053
 8727POPC   C4B48214  23.916  39.193   7.353
 8728POPC   NC348215  32.246  39.980   5.553
 8728POPC   PO448216  32.283  39.995   5.853
 8728POPC   GL148217  32.281  40.053   6.153
 8728POPC   GL248218  32.216  39.930   6.153
 8728POPC   C1A48219  32.248  39.992   6.453
 8728POPC   D2A48220  32.278  40.044   6.753
 8728POPC   C3A48221  32.263  39.958   7.053
 8728POPC   C4A48222  32.262  39.990   7.353
 8728POPC   C1B48223  32.167  39.736   6.453
 8728POPC   C2B48224  32.246  39.733   6.753
 8728POPC   C3B48225  32.235  39.782   7.053
 8728POPC   C4B48226  32.196  39.760   7.353
 8729POPC   NC348227  32.275  27.615   5.553
 8729POPC   PO448228  32.220  27.549   5.853
 8729POPC   GL148229  32.214  27.581   6.153
 8729POPC   GL248230  32.296  27.439   6.153
 8729POPC   C1A48231  32.227  27.547   6.453
 8729POPC   D2A48232  32.275  27.619   6.753
 8729POPC   C3A48233  32.247  27.634   7.053
 8729POPC   C4A48234  32.252  27.600   7.353
 8729POPC   C1B48235  32.293  27.314   6.453
 8729POPC   C2B48236  32.288  27.364   6.753
 8729POPC   C3B48237  32.275  27.300   7.053
 8729POPC   C4B48238  32.276  27.387   7.353
 8730POPC   NC348239  36.142  26.865   5.553
 8730POPC   PO448240  36.122  26.770   5.853
 8730POPC   GL148241  36.117  26.769   6.153
 8730POPC   GL248242  36.004  26.791   6.153
 8730POPC   C1A48243  36.127  26.861   6.453
 8730POPC   D2A48244  36.119  26.845   6.753
 8730POPC   C3A48245  36.107  26.815   7.053
 8730POPC   C4A48246  36.117  26.804   7.353
 8730POPC   C1B48247  35.843  26.730   6.453
 8730POPC   C2B48248  35.933  26.768   6.753
 8730POPC   C3B48249  35.883  26.734   7.053
 8730POPC   C4B48250  35.915  26.751   7.353
 8731POPC   NC348251  15.970  44.693   5.553
 8731POPC   PO448252  15.993  44.670   5.853
 8731POPC   GL148253  15.926  44.639   6.153
 8731POPC   GL248254  15.997  44.517   6.153
 8731POPC   C1A48255  15.993  44.653   6.453
 8731POPC   D2A48256  15.963  44.708   6.753
 8731POPC   C3A48257  16.004  44.697   7.053
 8731POPC   C4A48258  15.921  44.678   7.353
 8731POPC   C1B48259  16.050  44.433   6.453
 8731POPC   C2B48260  16.081  44.494   6.753
 8731POPC   C3B48261  16.099  44.457   7.053
 8731POPC   C4B48262  16.089  44.408   7.353
 8732POPC   NC348263  26.863  33.030   5.553
 8732POPC   PO448264  26.827  33.028   5.853
 8732POPC   GL148265  26.855  33.053   6.153
 8732POPC   GL248266  26.917  32.903   6.153
 8732POPC   C1A48267  26.834  33.004   6.453
 8732POPC   D2A48268  26.770  33.017   6.753
 8732POPC   C3A48269  26.832  33.068   7.053
 8732POPC   C4A48270  26.772  33.011   7.353
 8732POPC   C1B48271  27.040  32.880   6.453
 8732POPC   C2B48272  27.043  32.844   6.753
 8732POPC   C3B48273  26.963  32.882   7.053
 8732POPC   C4B48274  27.050  32.899   7.353
 8733POPC   NC348275  13.651  14.367   5.553
 8733POPC   PO448276  13.620  14.446   5.853
 8733POPC   GL148277  13.604  14.419   6.153
 8733POPC   GL248278  13.715  14.416   6.153
 8733POPC   C1A48279  13.605  14.367   6.453
 8733POPC   D2A48280  13.601  14.380   6.753
 8733POPC   C3A48281  13.605  14.428   7.053
 8733POPC   C4A48282  13.666  14.365   7.353
 8733POPC   C1B48283  13.858  14.526   6.453
 8733POPC   C2B48284  13.870  14.536   6.753
 8733POPC   C3B48285  13.821  14.512   7.053
 8733POPC   C4B48286  13.899  14.506   7.353
 8734POPC   NC348287  44.655  11.282   5.553
 8734POPC   PO448288  44.662  11.292   5.853
 8734POPC   GL148289  44.642  11.257   6.153
 8734POPC   GL248290  44.736  11.156   6.153
 8734POPC   C1A48291  44.613  11.297   6.453
 8734POPC   D2A48292  44.693  11.267   6.753
 8734POPC   C3A48293  44.704  11.311   7.053
 8734POPC   C4A48294  44.658  11.263   7.353
 8734POPC   C1B48295  44.806  11.117   6.453
 8734POPC   C2B48296  44.821  11.154   6.753
 8734POPC   C3B48297  44.794  11.082   7.053
 8734POPC   C4B48298  44.804  11.105   7.353
 8735POPC   NC348299  11.320  39.199   5.553
 8735POPC   PO448300  11.306  39.189   5.853
 8735POPC   GL148301  11.321  39.215   6.153
 8735POPC   GL248302  11.329  39.140   6.153
 8735POPC   C1A48303  11.318  39.236   6.453
 8735POPC   D2A48304  11.349  39.250   6.753
 8735POPC   C3A48305  11.303  39.218   7.053
 8735POPC   C4A48306  11.274  39.274   7.353
 8735POPC   C1B48307  11.314  39.026   6.453
 8735POPC   C2B48308  11.331  38.948   6.753
 8735POPC   C3B48309  11.317  38.970   7.053
 8735POPC   C4B48310  11.330  39.025   7.353
 8736POPC   NC348311  26.037   1.941   5.553
 8736POPC   PO448312  26.085   1.979   5.853
 8736POPC   GL148313  26.014   1.974   6.153
 8736POPC   GL248314  26.110   1.896   6.153
 8736POPC   C1A48315  25.992   1.988   6.453
 8736POPC   D2A48316  26.091   1.970   6.753
 8736POPC   C3A48317  26.087   1.947   7.053
 8736POPC   C4A48318  25.999   1.970   7.353
 8736POPC   C1B48319  26.194   1.765   6.453
 8736POPC   C2B48320  26.192   1.830   6.753
 8736POPC   C3B48321  26.250   1.848   7.053
 8736POPC   C4B48322  26.193   1.845   7.353
 8737POPC   NC348323   2.811  30.710   5.553
 8737POPC   PO448324   2.783  30.680   5.853
 8737POPC   GL148325   2.783  30.729   6.153
 8737POPC   GL248326   2.849  30.626   6.153
 8737POPC   C1A48327   2.754  30.706   6.453
 8737POPC   D2A48328   2.721  30.738   6.753
 8737POPC   C3A48329   2.807  30.738   7.053
 8737POPC   C4A48330   2.767  30.718   7.353
 8737POPC   C1B48331   2.912  30.547   6.453
 8737POPC   C2B48332   2.978  30.579   6.753
 8737POPC   C3B48333   2.942  30.570   7.053
 8737POPC   C4B48334   2.999  30.521   7.353
 8738POPC   NC348335  14.443  28.339   5.553
 8738POPC   PO448336  14.368  28.322   5.853
 8738POPC   GL148337  14.363  28.342   6.153
 8738POPC   GL248338  14.360  28.220   6.153
 8738POPC   C1A48339  14.407  28.402   6.453
 8738POPC   D2A48340  14.453  28.398   6.753
 8738POPC   C3A48341  14.413  28.357   7.053
 8738POPC   C4A48342  14.438  28.342   7.353
 8738POPC   C1B48343  14.346  28.096   6.453
 8738POPC   C2B48344  14.367  28.163   6.753
 8738POPC   C3B48345  14.417  28.073   7.053
 8738POPC   C4B48346  14.405  28.134   7.353
 8739POPC   NC348347   3.522   5.074   5.553
 8739POPC   PO448348   3.581   5.108   5.853
 8739POPC   GL148349   3.562   5.045   6.153
 8739POPC   GL248350   3.686   5.139   6.153
 8739POPC   C1A48351   3.563   5.116   6.453
 8739POPC   D2A48352   3.537   5.097   6.753
 8739POPC   C3A48353   3.548   5.086   7.053
 8739POPC   C4A48354   3.569   5.052   7.353
 8739POPC   C1B48355   3.726   5.240   6.453
 8739POPC   C2B48356   3.717   5.270   6.753
 8739POPC   C3B48357   3.754   5.242   7.053
 8739POPC   C4B48358   3.704   5.270   7.353
 8740POPC   NC348359  42.322  14.400   5.553
 8740POPC   PO448360  42.366  14.406   5.853
 8740POPC   GL148361  42.360  14.428   6.153
 8740POPC   GL248362  42.478  14.456   6.153
 8740POPC   C1A48363  42.309  14.410   6.453
 8740POPC   D2A48364  42.378  14.403   6.753
 8740POPC   C3A48365  42.349  14.411   7.053
 8740POPC   C4A48366  42.321  14.400   7.353
 8740POPC   C1B48367  42.611  14.510   6.453
 8740POPC   C2B48368  42.617  14.476   6.753
 8740POPC   C3B48369  42.599  14.492   7.053
 8740POPC   C4B48370  42.531  14.444   7.353
 8741POPC   NC348371  18.319   9.770   5.553
 8741POPC   PO448372  18.239   9.699   5.853
 8741POPC   GL148373  18.323   9.751   6.153
 8741POPC   GL248374  18.397   9.800   6.153
 8741POPC   C1A48375  18.246   9.737   6.453
 8741POPC   D2A48376  18.256   9.778   6.753
 8741POPC   C3A48377  18.239   9.708   7.053
 8741POPC   C4A48378  18.255   9.720   7.353
 8741POPC   C1B48379  18.513   9.774   6.453
 8741POPC   C2B48380  18.558   9.784   6.753
 8741POPC   C3B48381  18.520   9.747   7.053
 8741POPC   C4B48382  18.566   9.797   7.353
 8742POPC   NC348383  37.634  28.340   5.553
 8742POPC   PO448384  37.722  28.410   5.853
 8742POPC   GL148385  37.652  28.321   6.153
 8742POPC   GL248386  37.787  28.373   6.153
 8742POPC   C1A48387  37.698  28.394   6.453
 8742POPC   D2A48388  37.693  28.357   6.753
 8742POPC   C3A48389  37.685  28.337   7.053
 8742POPC   C4A48390  37.720  28.389   7.353
 8742POPC   C1B48391  37.947  28.406   6.453
 8742POPC   C2B48392  37.901  28.389   6.753
 8742POPC   C3B48393  37.936  28.437   7.053
 8742POPC   C4B48394  37.921  28.402   7.353
 8743POPC   NC348395  26.069  33.819   5.553
 8743POPC   PO448396  26.032  33.816   5.853
 8743POPC   GL148397  26.032  33.793   6.153
 8743POPC   GL248398  26.127  33.689   6.153
 8743POPC   C1A48399  26.020  33.805   6.453
 8743POPC   D2A48400  26.082  33.815   6.753
 8743POPC   C3A48401  26.085  33.815   7.053
 8743POPC   C4A48402  26.016  33.823   7.353
 8743POPC   C1B48403  26.159  33.653   6.453
 8743POPC   C2B48404  26.235  33.616   6.753
 8743POPC   C3B48405  26.160  33.563   7.053
 8743POPC   C4B48406  26.224  33.597   7.353
 8744POPC   NC348407  21.339  34.605   5.553
 8744POPC   PO448408  21.399  34.562   5.853
 8744POPC   GL148409  21.357  34.584   6.153
 8744POPC   GL248410  21.311  34.699   6.153
 8744POPC   C1A48411  21.423  34.535   6.453
 8744POPC   D2A48412  21.351  34.615   6.753
 8744POPC   C3A48413  21.420  34.617   7.053
 8744POPC   C4A48414  21.356  34.617   7.353
 8744POPC   C1B48415  21.186  34.730   6.453
 8744POPC   C2B48416  21.183  34.732   6.753
 8744POPC   C3B48417  21.239  34.714   7.053
 8744POPC   C4B48418  21.184  34.725   7.353
 8745POPC   NC348419  17.462  39.214   5.553
 8745POPC   PO448420  17.527  39.242   5.853
 8745POPC   GL148421  17.531  39.278   6.153
 8745POPC   GL248422  17.616  39.154   6.153
 8745POPC   C1A48423  17.509  39.236   6.453
 8745POPC   D2A48424  17.500  39.275   6.753
 8745POPC   C3A48425  17.528  39.238   7.053
 8745POPC   C4A48426  17.482  39.261   7.353
 8745POPC   C1B48427  17.638  39.002   6.453
 8745POPC   C2B48428  17.622  39.049   6.753
 8745POPC   C3B48429  17.615  39.014   7.053
 8745POPC   C4B48430  17.600  39.022   7.353
 8746POPC   NC348431   1.994  32.220   5.553
 8746POPC   PO448432   2.028  32.250   5.853
 8746POPC   GL148433   2.030  32.279   6.153
 8746POPC   GL248434   1.919  32.233   6.153
 8746POPC   C1A48435   1.946  32.235   6.453
 8746POPC   D2A48436   1.996  32.295   6.753
 8746POPC   C3A48437   2.039  32.237   7.053
 8746POPC   C4A48438   1.944  32.211   7.353
 8746POPC   C1B48439   1.752  32.166   6.453
 8746POPC   C2B48440   1.762  32.150   6.753
 8746POPC   C3B48441   1.743  32.170   7.053
 8746POPC   C4B48442   1.798  32.107   7.353
 8747POPC   NC348443  43.868  14.414   5.553
 8747POPC   PO448444  43.900  14.382   5.853
 8747POPC   GL148445  43.881  14.419   6.153
 8747POPC   GL248446  43.887  14.498   6.153
 8747POPC   C1A48447  43.841  14.373   6.453
 8747POPC   D2A48448  43.892  14.399   6.753
 8747POPC   C3A48449  43.931  14.422   7.053
 8747POPC   C4A48450  43.885  14.427   7.353
 8747POPC   C1B48451  43.857  14.625   6.453
 8747POPC   C2B48452  43.865  14.662   6.753
 8747POPC   C3B48453  43.813  14.624   7.053
 8747POPC   C4B48454  43.835  14.640   7.353
 8748POPC   NC348455  10.495  36.864   5.553
 8748POPC   PO448456  10.559  36.868   5.853
 8748POPC   GL148457  10.481  36.858   6.153
 8748POPC   GL248458  10.524  37.021   6.153
 8748POPC   C1A48459  10.476  36.940   6.453
 8748POPC   D2A48460  10.563  36.922   6.753
 8748POPC   C3A48461  10.485  36.930   7.053
 8748POPC   C4A48462  10.569  36.914   7.353
 8748POPC   C1B48463  10.484  37.141   6.453
 8748POPC   C2B48464  10.525  37.187   6.753
 8748POPC   C3B48465  10.499  37.146   7.053
 8748POPC   C4B48466  10.447  37.118   7.353
 8749POPC   NC348467  43.091  18.256   5.553
 8749POPC   PO448468  43.140  18.307   5.853
 8749POPC   GL148469  43.122  18.281   6.153
 8749POPC   GL248470  43.190  18.153   6.153
 8749POPC   C1A48471  43.156  18.257   6.453
 8749POPC   D2A48472  43.117  18.244   6.753
 8749POPC   C3A48473  43.096  18.305   7.053
 8749POPC   C4A48474  43.106  18.263   7.353
 8749POPC   C1B48475  43.163  18.067   6.453
 8749POPC   C2B48476  43.161  18.057   6.753
 8749POPC   C3B48477  43.223  18.040   7.053
 8749POPC   C4B48478  43.235  18.085   7.353
 8750POPC   NC348479  10.494  39.998   5.553
 8750POPC   PO448480  10.574  39.963   5.853
 8750POPC   GL148481  10.553  39.961   6.153
 8750POPC   GL248482  10.443  39.954   6.153
 8750POPC   C1A48483  10.525  40.029   6.453
 8750POPC   D2A48484  10.571  39.992   6.753
 8750POPC   C3A48485  10.505  40.006   7.053
 8750POPC   C4A48486  10.484  40.011   7.353
 8750POPC   C1B48487  10.353  39.825   6.453
 8750POPC   C2B48488  10.386  39.825   6.753
 8750POPC   C3B48489  10.389  39.868   7.053
 8750POPC   C4B48490  10.323  39.852   7.353
 8751POPC   NC348491  39.194  10.540   5.553
 8751POPC   PO448492  39.225  10.487   5.853
 8751POPC   GL148493  39.268  10.551   6.153
 8751POPC   GL248494  39.164  10.616   6.153
 8751POPC   C1A48495  39.265  10.502   6.453
 8751POPC   D2A48496  39.225  10.483   6.753
 8751POPC   C3A48497  39.213  10.573   7.053
 8751POPC   C4A48498  39.235  10.523   7.353
 8751POPC   C1B48499  39.013  10.679   6.453
 8751POPC   C2B48500  39.015  10.654   6.753
 8751POPC   C3B48501  39.069  10.635   7.053
 8751POPC   C4B48502  39.015  10.677   7.353
 8752POPC   NC348503   7.456  20.644   5.553
 8752POPC   PO448504   7.408  20.587   5.853
 8752POPC   GL148505   7.395  20.602   6.153
 8752POPC   GL248506   7.348  20.503   6.153
 8752POPC   C1A48507   7.410  20.586   6.453
 8752POPC   D2A48508   7.420  20.583   6.753
 8752POPC   C3A48509   7.438  20.584   7.053
 8752POPC   C4A48510   7.452  20.607   7.353
 8752POPC   C1B48511   7.356  20.349   6.453
 8752POPC   C2B48512   7.391  20.341   6.753
 8752POPC   C3B48513   7.328  20.384   7.053
 8752POPC   C4B48514   7.394  20.327   7.353
 8753POPC   NC348515   7.393  12.872   5.553
 8753POPC   PO448516   7.446  12.880   5.853
 8753POPC   GL148517   7.389  12.858   6.153
 8753POPC   GL248518   7.501  12.842   6.153
 8753POPC   C1A48519   7.441  12.805   6.453
 8753POPC   D2A48520   7.375  12.897   6.753
 8753POPC   C3A48521   7.423  12.809   7.053
 8753POPC   C4A48522   7.443  12.864   7.353
 8753POPC   C1B48523   7.609  12.723   6.453
 8753POPC   C2B48524   7.650  12.800   6.753
 8753POPC   C3B48525   7.619  12.751   7.053
 8753POPC   C4B48526   7.672  12.757   7.353
 8754POPC   NC348527  30.725  12.096   5.553
 8754POPC   PO448528  30.716  12.034   5.853
 8754POPC   GL148529  30.692  12.125   6.153
 8754POPC   GL248530  30.865  12.057   6.153
 8754POPC   C1A48531  30.697  12.093   6.453
 8754POPC   D2A48532  30.682  12.052   6.753
 8754POPC   C3A48533  30.715  12.067   7.053
 8754POPC   C4A48534  30.691  12.047   7.353
 8754POPC   C1B48535  30.939  11.984   6.453
 8754POPC   C2B48536  30.923  12.045   6.753
 8754POPC   C3B48537  30.982  11.996   7.053
 8754POPC   C4B48538  30.921  12.017   7.353
 8755POPC   NC348539  36.080   0.452   5.553
 8755POPC   PO448540  36.157   0.454   5.853
 8755POPC   GL148541  36.123   0.429   6.153
 8755POPC   GL248542  36.095   0.297   6.153
 8755POPC   C1A48543  36.167   0.422   6.453
 8755POPC   D2A48544  36.099   0.486   6.753
 8755POPC   C3A48545  36.109   0.439   7.053
 8755POPC   C4A48546  36.143   0.397   7.353
 8755POPC   C1B48547  36.128   0.226   6.453
 8755POPC   C2B48548  36.095   0.228   6.753
 8755POPC   C3B48549  36.139   0.143   7.053
 8755POPC   C4B48550  36.135   0.196   7.353
 8756POPC   NC348551  15.188   8.245   5.553
 8756POPC   PO448552  15.139   8.188   5.853
 8756POPC   GL148553  15.136   8.201   6.153
 8756POPC   GL248554  15.248   8.328   6.153
 8756POPC   C1A48555  15.130   8.184   6.453
 8756POPC   D2A48556  15.141   8.214   6.753
 8756POPC   C3A48557  15.227   8.148   7.053
 8756POPC   C4A48558  15.181   8.220   7.353
 8756POPC   C1B48559  15.317   8.395   6.453
 8756POPC   C2B48560  15.353   8.424   6.753
 8756POPC   C3B48561  15.311   8.343   7.053
 8756POPC   C4B48562  15.313   8.430   7.353
 8757POPC   NC348563   9.752  11.255   5.553
 8757POPC   PO448564   9.753  11.269   5.853
 8757POPC   GL148565   9.701  11.301   6.153
 8757POPC   GL248566   9.669  11.278   6.153
 8757POPC   C1A48567   9.734  11.326   6.453
 8757POPC   D2A48568   9.733  11.291   6.753
 8757POPC   C3A48569   9.718  11.338   7.053
 8757POPC   C4A48570   9.733  11.274   7.353
 8757POPC   C1B48571   9.480  11.219   6.453
 8757POPC   C2B48572   9.535  11.237   6.753
 8757POPC   C3B48573   9.453  11.265   7.053
 8757POPC   C4B48574   9.456  11.230   7.353
 8758POPC   NC348575   9.726  31.514   5.553
 8758POPC   PO448576   9.783  31.465   5.853
 8758POPC   GL148577   9.768  31.509   6.153
 8758POPC   GL248578   9.690  31.640   6.153
 8758POPC   C1A48579   9.769  31.515   6.453
 8758POPC   D2A48580   9.781  31.454   6.753
 8758POPC   C3A48581   9.795  31.442   7.053
 8758POPC   C4A48582   9.798  31.463   7.353
 8758POPC   C1B48583   9.709  31.731   6.453
 8758POPC   C2B48584   9.662  31.735   6.753
 8758POPC   C3B48585   9.711  31.763   7.053
 8758POPC   C4B48586   9.673  31.699   7.353
 8759POPC   NC348587  18.294  32.297   5.553
 8759POPC   PO448588  18.332  32.239   5.853
 8759POPC   GL148589  18.312  32.272   6.153
 8759POPC   GL248590  18.321  32.170   6.153
 8759POPC   C1A48591  18.323  32.258   6.453
 8759POPC   D2A48592  18.275  32.241   6.753
 8759POPC   C3A48593  18.253  32.204   7.053
 8759POPC   C4A48594  18.242  32.241   7.353
 8759POPC   C1B48595  18.393  32.043   6.453
 8759POPC   C2B48596  18.403  32.022   6.753
 8759POPC   C3B48597  18.411  32.011   7.053
 8759POPC   C4B48598  18.475  32.059   7.353
 8760POPC   NC348599   2.010  23.689   5.553
 8760POPC   PO448600   1.941  23.732   5.853
 8760POPC   GL148601   1.996  23.670   6.153
 8760POPC   GL248602   2.070  23.657   6.153
 8760POPC   C1A48603   2.026  23.711   6.453
 8760POPC   D2A48604   2.000  23.740   6.753
 8760POPC   C3A48605   1.956  23.723   7.053
 8760POPC   C4A48606   1.945  23.667   7.353
 8760POPC   C1B48607   2.162  23.481   6.453
 8760POPC   C2B48608   2.179  23.573   6.753
 8760POPC   C3B48609   2.122  23.517   7.053
 8760POPC   C4B48610   2.153  23.573   7.353
 8761POPC   NC348611   0.440  15.984   5.553
 8761POPC   PO448612   0.451  15.927   5.853
 8761POPC   GL148613   0.420  15.965   6.153
 8761POPC   GL248614   0.317  15.998   6.153
 8761POPC   C1A48615   0.459  15.938   6.453
 8761POPC   D2A48616   0.483  15.983   6.753
 8761POPC   C3A48617   0.400  15.909   7.053
 8761POPC   C4A48618   0.414  15.919   7.353
 8761POPC   C1B48619   0.184  16.120   6.453
 8761POPC   C2B48620   0.186  16.044   6.753
 8761POPC   C3B48621   0.249  16.071   7.053
 8761POPC   C4B48622   0.198  16.038   7.353
 8762POPC   NC348623  25.241  43.932   5.553
 8762POPC   PO448624  25.281  43.854   5.853
 8762POPC   GL148625  25.289  43.909   6.153
 8762POPC   GL248626  25.146  43.890   6.153
 8762POPC   C1A48627  25.313  43.903   6.453
 8762POPC   D2A48628  25.250  43.931   6.753
 8762POPC   C3A48629  25.250  43.888   7.053
 8762POPC   C4A48630  25.285  43.936   7.353
 8762POPC   C1B48631  24.991  43.880   6.453
 8762POPC   C2B48632  25.050  43.852   6.753
 8762POPC   C3B48633  24.995  43.893   7.053
 8762POPC   C4B48634  25.062  43.851   7.353
 8763POPC   NC348635  23.718   5.070   5.553
 8763POPC   PO448636  23.694   5.095   5.853
 8763POPC   GL148637  23.709   5.045   6.153
 8763POPC   GL248638  23.637   5.199   6.153
 8763POPC   C1A48639  23.689   5.055   6.453
 8763POPC   D2A48640  23.692   5.121   6.753
 8763POPC   C3A48641  23.723   5.062   7.053
 8763POPC   C4A48642  23.721   5.098   7.353
 8763POPC   C1B48643  23.637   5.288   6.453
 8763POPC   C2B48644  23.617   5.329   6.753
 8763POPC   C3B48645  23.608   5.363   7.053
 8763POPC   C4B48646  23.643   5.342   7.353
 8764POPC   NC348647  34.574  13.631   5.553
 8764POPC   PO448648  34.598  13.583   5.853
 8764POPC   GL148649  34.616  13.588   6.153
 8764POPC   GL248650  34.658  13.515   6.153
 8764POPC   C1A48651  34.578  13.613   6.453
 8764POPC   D2A48652  34.569  13.650   6.753
 8764POPC   C3A48653  34.546  13.626   7.053
 8764POPC   C4A48654  34.614  13.590   7.353
 8764POPC   C1B48655  34.678  13.438   6.453
 8764POPC   C2B48656  34.755  13.419   6.753
 8764POPC   C3B48657  34.744  13.411   7.053
 8764POPC   C4B48658  34.701  13.419   7.353
 8765POPC   NC348659  27.604  24.528   5.553
 8765POPC   PO448660  27.555  24.488   5.853
 8765POPC   GL148661  27.613  24.521   6.153
 8765POPC   GL248662  27.636  24.407   6.153
 8765POPC   C1A48663  27.632  24.494   6.453
 8765POPC   D2A48664  27.555  24.451   6.753
 8765POPC   C3A48665  27.641  24.442   7.053
 8765POPC   C4A48666  27.593  24.503   7.353
 8765POPC   C1B48667  27.607  24.245   6.453
 8765POPC   C2B48668  27.565  24.194   6.753
 8765POPC   C3B48669  27.605  24.197   7.053
 8765POPC   C4B48670  27.636  24.249   7.353
 8766POPC   NC348671  39.185   3.555   5.553
 8766POPC   PO448672  39.229   3.506   5.853
 8766POPC   GL148673  39.269   3.571   6.153
 8766POPC   GL248674  39.315   3.526   6.153
 8766POPC   C1A48675  39.206   3.493   6.453
 8766POPC   D2A48676  39.249   3.539   6.753
 8766POPC   C3A48677  39.255   3.531   7.053
 8766POPC   C4A48678  39.183   3.575   7.353
 8766POPC   C1B48679  39.437   3.544   6.453
 8766POPC   C2B48680  39.434   3.456   6.753
 8766POPC   C3B48681  39.504   3.524   7.053
 8766POPC   C4B48682  39.467   3.541   7.353
 8767POPC   NC348683  10.539   8.966   5.553
 8767POPC   PO448684  10.550   8.942   5.853
 8767POPC   GL148685  10.559   8.926   6.153
 8767POPC   GL248686  10.475   9.065   6.153
 8767POPC   C1A48687  10.489   8.949   6.453
 8767POPC   D2A48688  10.493   8.925   6.753
 8767POPC   C3A48689  10.488   8.968   7.053
 8767POPC   C4A48690  10.478   8.928   7.353
 8767POPC   C1B48691  10.341   9.167   6.453
 8767POPC   C2B48692  10.350   9.195   6.753
 8767POPC   C3B48693  10.402   9.173   7.053
 8767POPC   C4B48694  10.363   9.205   7.353
 8768POPC   NC348695  16.759  30.648   5.553
 8768POPC   PO448696  16.699  30.699   5.853
 8768POPC   GL148697  16.712  30.709   6.153
 8768POPC   GL248698  16.752  30.531   6.153
 8768POPC   C1A48699  16.741  30.681   6.453
 8768POPC   D2A48700  16.719  30.648   6.753
 8768POPC   C3A48701  16.702  30.709   7.053
 8768POPC   C4A48702  16.697  30.687   7.353
 8768POPC   C1B48703  16.707  30.442   6.453
 8768POPC   C2B48704  16.716  30.399   6.753
 8768POPC   C3B48705  16.748  30.403   7.053
 8768POPC   C4B48706  16.722  30.486   7.353
 8769POPC   NC348707   8.156  26.780   5.553
 8769POPC   PO448708   8.211  26.768   5.853
 8769POPC   GL148709   8.152  26.859   6.153
 8769POPC   GL248710   8.302  26.934   6.153
 8769POPC   C1A48711   8.216  26.821   6.453
 8769POPC   D2A48712   8.188  26.798   6.753
 8769POPC   C3A48713   8.224  26.795   7.053
 8769POPC   C4A48714   8.184  26.809   7.353
 8769POPC   C1B48715   8.286  27.072   6.453
 8769POPC   C2B48716   8.347  27.020   6.753
 8769POPC   C3B48717   8.303  27.058   7.053
 8769POPC   C4B48718   8.307  27.072   7.353
 8770POPC   NC348719  38.454  10.525   5.553
 8770POPC   PO448720  38.497  10.498   5.853
 8770POPC   GL148721  38.453  10.477   6.153
 8770POPC   GL248722  38.565  10.543   6.153
 8770POPC   C1A48723  38.483  10.549   6.453
 8770POPC   D2A48724  38.477  10.528   6.753
 8770POPC   C3A48725  38.503  10.555   7.053
 8770POPC   C4A48726  38.413  10.523   7.353
 8770POPC   C1B48727  38.743  10.573   6.453
 8770POPC   C2B48728  38.687  10.502   6.753
 8770POPC   C3B48729  38.709  10.492   7.053
 8770POPC   C4B48730  38.662  10.514   7.353
 8771POPC   NC348731  16.769  39.239   5.553
 8771POPC   PO448732  16.746  39.275   5.853
 8771POPC   GL148733  16.765  39.268   6.153
 8771POPC   GL248734  16.582  39.281   6.153
 8771POPC   C1A48735  16.775  39.264   6.453
 8771POPC   D2A48736  16.698  39.218   6.753
 8771POPC   C3A48737  16.707  39.215   7.053
 8771POPC   C4A48738  16.691  39.263   7.353
 8771POPC   C1B48739  16.460  39.321   6.453
 8771POPC   C2B48740  16.504  39.344   6.753
 8771POPC   C3B48741  16.484  39.277   7.053
 8771POPC   C4B48742  16.525  39.290   7.353
 8772POPC   NC348743  12.860  15.219   5.553
 8772POPC   PO448744  12.835  15.191   5.853
 8772POPC   GL148745  12.878  15.187   6.153
 8772POPC   GL248746  12.785  15.079   6.153
 8772POPC   C1A48747  12.893  15.201   6.453
 8772POPC   D2A48748  12.820  15.227   6.753
 8772POPC   C3A48749  12.888  15.157   7.053
 8772POPC   C4A48750  12.885  15.218   7.353
 8772POPC   C1B48751  12.661  14.961   6.453
 8772POPC   C2B48752  12.727  14.948   6.753
 8772POPC   C3B48753  12.703  14.997   7.053
 8772POPC   C4B48754  12.698  14.980   7.353
 8773POPC   NC348755  16.740  29.098   5.553
 8773POPC   PO448756  16.755  29.131   5.853
 8773POPC   GL148757  16.702  29.138   6.153
 8773POPC   GL248758  16.868  29.243   6.153
 8773POPC   C1A48759  16.712  29.143   6.453
 8773POPC   D2A48760  16.739  29.140   6.753
 8773POPC   C3A48761  16.730  29.143   7.053
 8773POPC   C4A48762  16.720  29.185   7.353
 8773POPC   C1B48763  16.954  29.341   6.453
 8773POPC   C2B48764  16.907  29.329   6.753
 8773POPC   C3B48765  16.859  29.358   7.053
 8773POPC   C4B48766  16.911  29.331   7.353
 8774POPC   NC348767  30.731  38.455   5.553
 8774POPC   PO448768  30.735  38.449   5.853
 8774POPC   GL148769  30.697  38.467   6.153
 8774POPC   GL248770  30.588  38.349   6.153
 8774POPC   C1A48771  30.710  38.481   6.453
 8774POPC   D2A48772  30.696  38.462   6.753
 8774POPC   C3A48773  30.705  38.439   7.053
 8774POPC   C4A48774  30.742  38.414   7.353
 8774POPC   C1B48775  30.529  38.210   6.453
 8774POPC   C2B48776  30.522  38.263   6.753
 8774POPC   C3B48777  30.527  38.288   7.053
 8774POPC   C4B48778  30.593  38.257   7.353
 8775POPC   NC348779  34.588  43.119   5.553
 8775POPC   PO448780  34.617  43.108   5.853
 8775POPC   GL148781  34.551  43.159   6.153
 8775POPC   GL248782  34.649  43.038   6.153
 8775POPC   C1A48783  34.578  43.159   6.453
 8775POPC   D2A48784  34.600  43.083   6.753
 8775POPC   C3A48785  34.623  43.117   7.053
 8775POPC   C4A48786  34.606  43.145   7.353
 8775POPC   C1B48787  34.752  42.929   6.453
 8775POPC   C2B48788  34.742  42.883   6.753
 8775POPC   C3B48789  34.758  42.933   7.053
 8775POPC   C4B48790  34.697  42.897   7.353
 8776POPC   NC348791  30.676  22.194   5.553
 8776POPC   PO448792  30.693  22.134   5.853
 8776POPC   GL148793  30.696  22.123   6.153
 8776POPC   GL248794  30.765  22.112   6.153
 8776POPC   C1A48795  30.649  22.117   6.453
 8776POPC   D2A48796  30.729  22.180   6.753
 8776POPC   C3A48797  30.662  22.154   7.053
 8776POPC   C4A48798  30.738  22.166   7.353
 8776POPC   C1B48799  30.959  22.032   6.453
 8776POPC   C2B48800  30.891  22.027   6.753
 8776POPC   C3B48801  30.944  22.073   7.053
 8776POPC   C4B48802  30.933  22.004   7.353
 8777POPC   NC348803  39.234  11.333   5.553
 8777POPC   PO448804  39.258  11.343   5.853
 8777POPC   GL148805  39.208  11.348   6.153
 8777POPC   GL248806  39.236  11.130   6.153
 8777POPC   C1A48807  39.237  11.315   6.453
 8777POPC   D2A48808  39.248  11.296   6.753
 8777POPC   C3A48809  39.259  11.307   7.053
 8777POPC   C4A48810  39.206  11.335   7.353
 8777POPC   C1B48811  39.282  11.038   6.453
 8777POPC   C2B48812  39.320  11.047   6.753
 8777POPC   C3B48813  39.268  11.034   7.053
 8777POPC   C4B48814  39.267  11.022   7.353
 8778POPC   NC348815  43.927   9.763   5.553
 8778POPC   PO448816  43.916   9.743   5.853
 8778POPC   GL148817  43.909   9.758   6.153
 8778POPC   GL248818  43.768   9.770   6.153
 8778POPC   C1A48819  43.890   9.745   6.453
 8778POPC   D2A48820  43.934   9.702   6.753
 8778POPC   C3A48821  43.916   9.702   7.053
 8778POPC   C4A48822  43.889   9.713   7.353
 8778POPC   C1B48823  43.690   9.925   6.453
 8778POPC   C2B48824  43.647   9.850   6.753
 8778POPC   C3B48825  43.658   9.882   7.053
 8778POPC   C4B48826  43.634   9.843   7.353
 8779POPC   NC348827  27.550  18.278   5.553
 8779POPC   PO448828  27.569  18.315   5.853
 8779POPC   GL148829  27.607  18.259   6.153
 8779POPC   GL248830  27.433  18.310   6.153
 8779POPC   C1A48831  27.577  18.289   6.453
 8779POPC   D2A48832  27.626  18.286   6.753
 8779POPC   C3A48833  27.598  18.250   7.053
 8779POPC   C4A48834  27.602  18.251   7.353
 8779POPC   C1B48835  27.390  18.379   6.453
 8779POPC   C2B48836  27.325  18.411   6.753
 8779POPC   C3B48837  27.346  18.356   7.053
 8779POPC   C4B48838  27.372  18.364   7.353
 8780POPC   NC348839   9.771  24.483   5.553
 8780POPC   PO448840   9.705  24.523   5.853
 8780POPC   GL148841   9.796  24.506   6.153
 8780POPC   GL248842   9.863  24.395   6.153
 8780POPC   C1A48843   9.776  24.534   6.453
 8780POPC   D2A48844   9.717  24.461   6.753
 8780POPC   C3A48845   9.742  24.476   7.053
 8780POPC   C4A48846   9.724  24.472   7.353
 8780POPC   C1B48847   9.838  24.304   6.453
 8780POPC   C2B48848   9.843  24.252   6.753
 8780POPC   C3B48849   9.839  24.314   7.053
 8780POPC   C4B48850   9.887  24.324   7.353
 8781POPC   NC348851  34.586  36.167   5.553
 8781POPC   PO448852  34.558  36.115   5.853
 8781POPC   GL148853  34.598  36.118   6.153
 8781POPC   GL248854  34.489  36.145   6.153
 8781POPC   C1A48855  34.562  36.119   6.453
 8781POPC   D2A48856  34.550  36.107   6.753
 8781POPC   C3A48857  34.574  36.173   7.053
 8781POPC   C4A48858  34.545  36.099   7.353
 8781POPC   C1B48859  34.332  36.057   6.453
 8781POPC   C2B48860  34.305  36.064   6.753
 8781POPC   C3B48861  34.355  36.098   7.053
 8781POPC   C4B48862  34.369  36.089   7.353
 8782POPC   NC348863  12.804  29.160   5.553
 8782POPC   PO448864  12.841  29.149   5.853
 8782POPC   GL148865  12.884  29.107   6.153
 8782POPC   GL248866  12.712  29.050   6.153
 8782POPC   C1A48867  12.877  29.135   6.453
 8782POPC   D2A48868  12.808  29.129   6.753
 8782POPC   C3A48869  12.865  29.185   7.053
 8782POPC   C4A48870  12.879  29.181   7.353
 8782POPC   C1B48871  12.617  28.991   6.453
 8782POPC   C2B48872  12.673  28.958   6.753
 8782POPC   C3B48873  12.684  28.956   7.053
 8782POPC   C4B48874  12.703  29.009   7.353
 8783POPC   NC348875  36.174  11.264   5.553
 8783POPC   PO448876  36.140  11.303   5.853
 8783POPC   GL148877  36.102  11.308   6.153
 8783POPC   GL248878  36.254  11.267   6.153
 8783POPC   C1A48879  36.151  11.277   6.453
 8783POPC   D2A48880  36.093  11.305   6.753
 8783POPC   C3A48881  36.155  11.328   7.053
 8783POPC   C4A48882  36.127  11.297   7.353
 8783POPC   C1B48883  36.358  11.221   6.453
 8783POPC   C2B48884  36.366  11.300   6.753
 8783POPC   C3B48885  36.393  11.213   7.053
 8783POPC   C4B48886  36.368  11.223   7.353
 8784POPC   NC348887  30.671  37.693   5.553
 8784POPC   PO448888  30.726  37.698   5.853
 8784POPC   GL148889  30.728  37.642   6.153
 8784POPC   GL248890  30.646  37.535   6.153
 8784POPC   C1A48891  30.737  37.686   6.453
 8784POPC   D2A48892  30.681  37.715   6.753
 8784POPC   C3A48893  30.661  37.646   7.053
 8784POPC   C4A48894  30.695  37.716   7.353
 8784POPC   C1B48895  30.645  37.436   6.453
 8784POPC   C2B48896  30.614  37.438   6.753
 8784POPC   C3B48897  30.625  37.469   7.053
 8784POPC   C4B48898  30.599  37.438   7.353
 8785POPC   NC348899   0.433  40.009   5.553
 8785POPC   PO448900   0.482  39.989   5.853
 8785POPC   GL148901   0.463  40.020   6.153
 8785POPC   GL248902   0.548  39.888   6.153
 8785POPC   C1A48903   0.442  40.017   6.453
 8785POPC   D2A48904   0.465  39.992   6.753
 8785POPC   C3A48905   0.467  39.993   7.053
 8785POPC   C4A48906   0.408  40.031   7.353
 8785POPC   C1B48907   0.554  39.797   6.453
 8785POPC   C2B48908   0.555  39.790   6.753
 8785POPC   C3B48909   0.541  39.844   7.053
 8785POPC   C4B48910   0.612  39.842   7.353
 8786POPC   NC348911   8.163  25.299   5.553
 8786POPC   PO448912   8.147  25.285   5.853
 8786POPC   GL148913   8.238  25.266   6.153
 8786POPC   GL248914   8.120  25.175   6.153
 8786POPC   C1A48915   8.202  25.231   6.453
 8786POPC   D2A48916   8.157  25.218   6.753
 8786POPC   C3A48917   8.187  25.266   7.053
 8786POPC   C4A48918   8.150  25.262   7.353
 8786POPC   C1B48919   7.960  25.168   6.453
 8786POPC   C2B48920   7.937  25.168   6.753
 8786POPC   C3B48921   8.007  25.149   7.053
 8786POPC   C4B48922   8.026  25.097   7.353
 8787POPC   NC348923  17.507  18.319   5.553
 8787POPC   PO448924  17.509  18.280   5.853
 8787POPC   GL148925  17.534  18.301   6.153
 8787POPC   GL248926  17.620  18.221   6.153
 8787POPC   C1A48927  17.555  18.311   6.453
 8787POPC   D2A48928  17.546  18.313   6.753
 8787POPC   C3A48929  17.551  18.272   7.053
 8787POPC   C4A48930  17.529  18.266   7.353
 8787POPC   C1B48931  17.702  18.120   6.453
 8787POPC   C2B48932  17.723  18.120   6.753
 8787POPC   C3B48933  17.696  18.102   7.053
 8787POPC   C4B48934  17.704  18.126   7.353
 8788POPC   NC348935   4.303   9.780   5.553
 8788POPC   PO448936   4.360   9.790   5.853
 8788POPC   GL148937   4.356   9.725   6.153
 8788POPC   GL248938   4.367   9.671   6.153
 8788POPC   C1A48939   4.305   9.715   6.453
 8788POPC   D2A48940   4.354   9.767   6.753
 8788POPC   C3A48941   4.273   9.790   7.053
 8788POPC   C4A48942   4.293   9.719   7.353
 8788POPC   C1B48943   4.515   9.610   6.453
 8788POPC   C2B48944   4.466   9.551   6.753
 8788POPC   C3B48945   4.545   9.634   7.053
 8788POPC   C4B48946   4.505   9.608   7.353
 8789POPC   NC348947  32.218  34.532   5.553
 8789POPC   PO448948  32.201  34.590   5.853
 8789POPC   GL148949  32.247  34.564   6.153
 8789POPC   GL248950  32.092  34.540   6.153
 8789POPC   C1A48951  32.218  34.536   6.453
 8789POPC   D2A48952  32.284  34.531   6.753
 8789POPC   C3A48953  32.240  34.575   7.053
 8789POPC   C4A48954  32.243  34.598   7.353
 8789POPC   C1B48955  32.019  34.473   6.453
 8789POPC   C2B48956  32.058  34.481   6.753
 8789POPC   C3B48957  32.056  34.494   7.053
 8789POPC   C4B48958  31.984  34.467   7.353
 8790POPC   NC348959  10.504   0.420   5.553
 8790POPC   PO448960  10.492   0.410   5.853
 8790POPC   GL148961  10.498   0.480   6.153
 8790POPC   GL248962  10.606   0.308   6.153
 8790POPC   C1A48963  10.548   0.404   6.453
 8790POPC   D2A48964  10.514   0.422   6.753
 8790POPC   C3A48965  10.558   0.455   7.053
 8790POPC   C4A48966  10.480   0.475   7.353
 8790POPC   C1B48967  10.577   0.192   6.453
 8790POPC   C2B48968  10.660   0.155   6.753
 8790POPC   C3B48969  10.613   0.183   7.053
 8790POPC   C4B48970  10.589   0.231   7.353
 8791POPC   NC348971   4.324  21.343   5.553
 8791POPC   PO448972   4.270  21.379   5.853
 8791POPC   GL148973   4.341  21.379   6.153
 8791POPC   GL248974   4.364  21.269   6.153
 8791POPC   C1A48975   4.282  21.417   6.453
 8791POPC   D2A48976   4.305  21.426   6.753
 8791POPC   C3A48977   4.336  21.360   7.053
 8791POPC   C4A48978   4.361  21.412   7.353
 8791POPC   C1B48979   4.448  21.142   6.453
 8791POPC   C2B48980   4.440  21.178   6.753
 8791POPC   C3B48981   4.417  21.103   7.053
 8791POPC   C4B48982   4.389  21.156   7.353
 8792POPC   NC348983  33.020   1.193   5.553
 8792POPC   PO448984  33.071   1.182   5.853
 8792POPC   GL148985  32.989   1.257   6.153
 8792POPC   GL248986  33.086   1.144   6.153
 8792POPC   C1A48987  33.048   1.251   6.453
 8792POPC   D2A48988  33.045   1.195   6.753
 8792POPC   C3A48989  33.048   1.246   7.053
 8792POPC   C4A48990  32.997   1.215   7.353
 8792POPC   C1B48991  33.183   0.994   6.453
 8792POPC   C2B48992  33.116   1.016   6.753
 8792POPC   C3B48993  33.193   0.995   7.053
 8792POPC   C4B48994  33.184   1.041   7.353
 8793POPC   NC348995  17.554  37.683   5.553
 8793POPC   PO448996  17.464  37.703   5.853
 8793POPC   GL148997  17.555  37.688   6.153
 8793POPC   GL248998  17.546  37.623   6.153
 8793POPC   C1A48999  17.527  37.685   6.453
 8793POPC   D2A49000  17.474  37.633   6.753
 8793POPC   C3A49001  17.487  37.688   7.053
 8793POPC   C4A49002  17.532  37.685   7.353
 8793POPC   C1B49003  17.687  37.496   6.453
 8793POPC   C2B49004  17.692  37.441   6.753
 8793POPC   C3B49005  17.638  37.457   7.053
 8793POPC   C4B49006  17.656  37.516   7.353
 8794POPC   NC349007  39.999  27.549   5.553
 8794POPC   PO449008  39.982  27.601   5.853
 8794POPC   GL149009  39.976  27.614   6.153
 8794POPC   GL249010  40.079  27.491   6.153
 8794POPC   C1A49011  40.001  27.595   6.453
 8794POPC   D2A49012  39.971  27.565   6.753
 8794POPC   C3A49013  40.001  27.592   7.053
 8794POPC   C4A49014  39.994  27.596   7.353
 8794POPC   C1B49015  40.225  27.435   6.453
 8794POPC   C2B49016  40.199  27.408   6.753
 8794POPC   C3B49017  40.246  27.464   7.053
 8794POPC   C4B49018  40.204  27.428   7.353
 8795POPC   NC349019   8.978  12.045   5.553
 8795POPC   PO449020   8.978  12.078   5.853
 8795POPC   GL149021   8.967  12.059   6.153
 8795POPC   GL249022   8.980  11.928   6.153
 8795POPC   C1A49023   9.003  12.064   6.453
 8795POPC   D2A49024   8.975  12.098   6.753
 8795POPC   C3A49025   8.942  12.059   7.053
 8795POPC   C4A49026   8.959  12.028   7.353
 8795POPC   C1B49027   8.894  11.785   6.453
 8795POPC   C2B49028   8.887  11.876   6.753
 8795POPC   C3B49029   8.969  11.784   7.053
 8795POPC   C4B49030   8.939  11.864   7.353
 8796POPC   NC349031   8.184  27.546   5.553
 8796POPC   PO449032   8.208  27.571   5.853
 8796POPC   GL149033   8.175  27.599   6.153
 8796POPC   GL249034   8.232  27.433   6.153
 8796POPC   C1A49035   8.196  27.634   6.453
 8796POPC   D2A49036   8.154  27.621   6.753
 8796POPC   C3A49037   8.160  27.641   7.053
 8796POPC   C4A49038   8.186  27.609   7.353
 8796POPC   C1B49039   8.330  27.320   6.453
 8796POPC   C2B49040   8.275  27.316   6.753
 8796POPC   C3B49041   8.303  27.383   7.053
 8796POPC   C4B49042   8.294  27.339   7.353
 8797POPC   NC349043  28.353  20.597   5.553
 8797POPC   PO449044  28.408  20.636   5.853
 8797POPC   GL149045  28.342  20.625   6.153
 8797POPC   GL249046  28.302  20.527   6.153
 8797POPC   C1A49047  28.344  20.643   6.453
 8797POPC   D2A49048  28.408  20.590   6.753
 8797POPC   C3A49049  28.384  20.577   7.053
 8797POPC   C4A49050  28.363  20.600   7.353
 8797POPC   C1B49051  28.117  20.509   6.453
 8797POPC   C2B49052  28.117  20.481   6.753
 8797POPC   C3B49053  28.160  20.494   7.053
 8797POPC   C4B49054  28.132  20.493   7.353
 8798POPC   NC349055   3.503  32.996   5.553
 8798POPC   PO449056   3.550  33.040   5.853
 8798POPC   GL149057   3.580  33.064   6.153
 8798POPC   GL249058   3.426  33.116   6.153
 8798POPC   C1A49059   3.534  32.995   6.453
 8798POPC   D2A49060   3.571  33.052   6.753
 8798POPC   C3A49061   3.567  33.028   7.053
 8798POPC   C4A49062   3.541  32.976   7.353
 8798POPC   C1B49063   3.334  33.150   6.453
 8798POPC   C2B49064   3.296  33.199   6.753
 8798POPC   C3B49065   3.307  33.126   7.053
 8798POPC   C4B49066   3.339  33.122   7.353
 8799POPC   NC349067   5.128  26.085   5.553
 8799POPC   PO449068   5.070  26.065   5.853
 8799POPC   GL149069   5.087  26.011   6.153
 8799POPC   GL249070   5.220  26.049   6.153
 8799POPC   C1A49071   5.103  26.059   6.453
 8799POPC   D2A49072   5.143  26.044   6.753
 8799POPC   C3A49073   5.074  26.071   7.053
 8799POPC   C4A49074   5.070  26.033   7.353
 8799POPC   C1B49075   5.387  26.118   6.453
 8799POPC   C2B49076   5.341  26.063   6.753
 8799POPC   C3B49077   5.340  26.087   7.053
 8799POPC   C4B49078   5.369  26.063   7.353
 8800POPC   NC349079   2.739  24.530   5.553
 8800POPC   PO449080   2.725  24.521   5.853
 8800POPC   GL149081   2.745  24.509   6.153
 8800POPC   GL249082   2.660  24.388   6.153
 8800POPC   C1A49083   2.770  24.468   6.453
 8800POPC   D2A49084   2.815  24.522   6.753
 8800POPC   C3A49085   2.787  24.444   7.053
 8800POPC   C4A49086   2.812  24.501   7.353
 8800POPC   C1B49087   2.514  24.351   6.453
 8800POPC   C2B49088   2.590  24.394   6.753
 8800POPC   C3B49089   2.510  24.343   7.053
 8800POPC   C4B49090   2.586  24.365   7.353
 8801POPC   NC349091  16.002  20.594   5.553
 8801POPC   PO449092  15.969  20.636   5.853
 8801POPC   GL149093  15.925  20.642   6.153
 8801POPC   GL249094  16.059  20.621   6.153
 8801POPC   C1A49095  15.914  20.659   6.453
 8801POPC   D2A49096  15.993  20.616   6.753
 8801POPC   C3A49097  15.956  20.618   7.053
 8801POPC   C4A49098  15.958  20.633   7.353
 8801POPC   C1B49099  16.213  20.680   6.453
 8801POPC   C2B49100  16.229  20.642   6.753
 8801POPC   C3B49101  16.237  20.678   7.053
 8801POPC   C4B49102  16.223  20.660   7.353
 8802POPC   NC349103   2.015   2.802   5.553
 8802POPC   PO449104   2.009   2.781   5.853
 8802POPC   GL149105   1.988   2.812   6.153
 8802POPC   GL249106   1.983   2.682   6.153
 8802POPC   C1A49107   1.950   2.809   6.453
 8802POPC   D2A49108   2.029   2.748   6.753
 8802POPC   C3A49109   1.991   2.717   7.053
 8802POPC   C4A49110   1.946   2.811   7.353
 8802POPC   C1B49111   1.876   2.492   6.453
 8802POPC   C2B49112   1.938   2.575   6.753
 8802POPC   C3B49113   1.903   2.502   7.053
 8802POPC   C4B49114   1.868   2.513   7.353
 8803POPC   NC349115  23.688   2.014   5.553
 8803POPC   PO449116  23.743   1.997   5.853
 8803POPC   GL149117  23.697   2.036   6.153
 8803POPC   GL249118  23.711   1.913   6.153
 8803POPC   C1A49119  23.705   1.977   6.453
 8803POPC   D2A49120  23.703   2.028   6.753
 8803POPC   C3A49121  23.695   2.030   7.053
 8803POPC   C4A49122  23.758   1.980   7.353
 8803POPC   C1B49123  23.640   1.702   6.453
 8803POPC   C2B49124  23.667   1.741   6.753
 8803POPC   C3B49125  23.680   1.745   7.053
 8803POPC   C4B49126  23.733   1.761   7.353
 8804POPC   NC349127   3.590  41.517   5.553
 8804POPC   PO449128   3.539  41.565   5.853
 8804POPC   GL149129   3.561  41.518   6.153
 8804POPC   GL249130   3.465  41.490   6.153
 8804POPC   C1A49131   3.512  41.562   6.453
 8804POPC   D2A49132   3.565  41.531   6.753
 8804POPC   C3A49133   3.513  41.534   7.053
 8804POPC   C4A49134   3.513  41.589   7.353
 8804POPC   C1B49135   3.362  41.415   6.453
 8804POPC   C2B49136   3.291  41.475   6.753
 8804POPC   C3B49137   3.297  41.464   7.053
 8804POPC   C4B49138   3.306  41.411   7.353
 8805POPC   NC349139  16.683  34.621   5.553
 8805POPC   PO449140  16.737  34.600   5.853
 8805POPC   GL149141  16.699  34.570   6.153
 8805POPC   GL249142  16.724  34.450   6.153
 8805POPC   C1A49143  16.698  34.595   6.453
 8805POPC   D2A49144  16.685  34.574   6.753
 8805POPC   C3A49145  16.771  34.533   7.053
 8805POPC   C4A49146  16.701  34.546   7.353
 8805POPC   C1B49147  16.606  34.310   6.453
 8805POPC   C2B49148  16.664  34.381   6.753
 8805POPC   C3B49149  16.613  34.342   7.053
 8805POPC   C4B49150  16.669  34.371   7.353
 8806POPC   NC349151   8.932   1.951   5.553
 8806POPC   PO449152   8.993   1.994   5.853
 8806POPC   GL149153   9.019   1.965   6.153
 8806POPC   GL249154   8.898   2.002   6.153
 8806POPC   C1A49155   8.965   1.960   6.453
 8806POPC   D2A49156   8.996   1.940   6.753
 8806POPC   C3A49157   8.937   1.949   7.053
 8806POPC   C4A49158   8.933   1.976   7.353
 8806POPC   C1B49159   8.745   2.087   6.453
 8806POPC   C2B49160   8.730   2.041   6.753
 8806POPC   C3B49161   8.775   2.062   7.053
 8806POPC   C4B49162   8.696   2.024   7.353
 8807POPC   NC349163  25.297  12.840   5.553
 8807POPC   PO449164  25.257  12.831   5.853
 8807POPC   GL149165  25.295  12.836   6.153
 8807POPC   GL249166  25.175  12.910   6.153
 8807POPC   C1A49167  25.222  12.890   6.453
 8807POPC   D2A49168  25.235  12.848   6.753
 8807POPC   C3A49169  25.219  12.874   7.053
 8807POPC   C4A49170  25.286  12.845   7.353
 8807POPC   C1B49171  25.122  13.049   6.453
 8807POPC   C2B49172  25.120  13.065   6.753
 8807POPC   C3B49173  25.080  13.089   7.053
 8807POPC   C4B49174  25.159  13.015   7.353
 8808POPC   NC349175  17.464  43.130   5.553
 8808POPC   PO449176  17.493  43.153   5.853
 8808POPC   GL149177  17.466  43.109   6.153
 8808POPC   GL249178  17.592  43.077   6.153
 8808POPC   C1A49179  17.502  43.070   6.453
 8808POPC   D2A49180  17.542  43.151   6.753
 8808POPC   C3A49181  17.486  43.078   7.053
 8808POPC   C4A49182  17.556  43.121   7.353
 8808POPC   C1B49183  17.669  42.981   6.453
 8808POPC   C2B49184  17.658  42.939   6.753
 8808POPC   C3B49185  17.677  42.920   7.053
 8808POPC   C4B49186  17.674  42.990   7.353
 8809POPC   NC349187  11.259   3.567   5.553
 8809POPC   PO449188  11.328   3.536   5.853
 8809POPC   GL149189  11.333   3.510   6.153
 8809POPC   GL249190  11.168   3.595   6.153
 8809POPC   C1A49191  11.350   3.505   6.453
 8809POPC   D2A49192  11.347   3.547   6.753
 8809POPC   C3A49193  11.262   3.578   7.053
 8809POPC   C4A49194  11.313   3.569   7.353
 8809POPC   C1B49195  11.088   3.707   6.453
 8809POPC   C2B49196  11.128   3.677   6.753
 8809POPC   C3B49197  11.105   3.667   7.053
 8809POPC   C4B49198  11.089   3.700   7.353
 8810POPC   NC349199  19.046  11.263   5.553
 8810POPC   PO449200  19.039  11.267   5.853
 8810POPC   GL149201  19.088  11.251   6.153
 8810POPC   GL249202  19.190  11.210   6.153
 8810POPC   C1A49203  19.063  11.277   6.453
 8810POPC   D2A49204  19.023  11.313   6.753
 8810POPC   C3A49205  19.027  11.324   7.053
 8810POPC   C4A49206  19.031  11.267   7.353
 8810POPC   C1B49207  19.217  11.172   6.453
 8810POPC   C2B49208  19.207  11.109   6.753
 8810POPC   C3B49209  19.262  11.175   7.053
 8810POPC   C4B49210  19.267  11.176   7.353
 8811POPC   NC349211  41.597  41.527   5.553
 8811POPC   PO449212  41.550  41.547   5.853
 8811POPC   GL149213  41.567  41.584   6.153
 8811POPC   GL249214  41.435  41.677   6.153
 8811POPC   C1A49215  41.509  41.570   6.453
 8811POPC   D2A49216  41.546  41.545   6.753
 8811POPC   C3A49217  41.509  41.580   7.053
 8811POPC   C4A49218  41.600  41.522   7.353
 8811POPC   C1B49219  41.413  41.736   6.453
 8811POPC   C2B49220  41.392  41.724   6.753
 8811POPC   C3B49221  41.374  41.711   7.053
 8811POPC   C4B49222  41.432  41.789   7.353
 8812POPC   NC349223  24.448  25.233   5.553
 8812POPC   PO449224  24.451  25.265   5.853
 8812POPC   GL149225  24.485  25.302   6.153
 8812POPC   GL249226  24.634  25.321   6.153
 8812POPC   C1A49227  24.518  25.239   6.453
 8812POPC   D2A49228  24.484  25.221   6.753
 8812POPC   C3A49229  24.478  25.263   7.053
 8812POPC   C4A49230  24.452  25.269   7.353
 8812POPC   C1B49231  24.668  25.417   6.453
 8812POPC   C2B49232  24.742  25.402   6.753
 8812POPC   C3B49233  24.725  25.417   7.053
 8812POPC   C4B49234  24.689  25.413   7.353
 8813POPC   NC349235  29.135  14.361   5.553
 8813POPC   PO449236  29.184  14.411   5.853
 8813POPC   GL149237  29.191  14.446   6.153
 8813POPC   GL249238  29.229  14.502   6.153
 8813POPC   C1A49239  29.113  14.397   6.453
 8813POPC   D2A49240  29.105  14.433   6.753
 8813POPC   C3A49241  29.144  14.401   7.053
 8813POPC   C4A49242  29.189  14.436   7.353
 8813POPC   C1B49243  29.245  14.575   6.453
 8813POPC   C2B49244  29.335  14.619   6.753
 8813POPC   C3B49245  29.307  14.639   7.053
 8813POPC   C4B49246  29.259  14.657   7.353
 8814POPC   NC349247  27.578  44.616   5.553
 8814POPC   PO449248  27.553  44.698   5.853
 8814POPC   GL149249  27.592  44.659   6.153
 8814POPC   GL249250  27.564  44.738   6.153
 8814POPC   C1A49251  27.607  44.673   6.453
 8814POPC   D2A49252  27.618  44.677   6.753
 8814POPC   C3A49253  27.555  44.646   7.053
 8814POPC   C4A49254  27.604  44.639   7.353
 8814POPC   C1B49255  27.630  44.870   6.453
 8814POPC   C2B49256  27.619  44.940   6.753
 8814POPC   C3B49257  27.553  44.872   7.053
 8814POPC   C4B49258  27.631  44.925   7.353
 8815POPC   NC349259   6.614  28.350   5.553
 8815POPC   PO449260   6.643  28.412   5.853
 8815POPC   GL149261   6.667  28.376   6.153
 8815POPC   GL249262   6.678  28.477   6.153
 8815POPC   C1A49263   6.662  28.333   6.453
 8815POPC   D2A49264   6.643  28.361   6.753
 8815POPC   C3A49265   6.675  28.347   7.053
 8815POPC   C4A49266   6.614  28.381   7.353
 8815POPC   C1B49267   6.700  28.632   6.453
 8815POPC   C2B49268   6.675  28.575   6.753
 8815POPC   C3B49269   6.676  28.603   7.053
 8815POPC   C4B49270   6.696  28.599   7.353
 8816POPC   NC349271  37.672  10.565   5.553
 8816POPC   PO449272  37.676  10.519   5.853
 8816POPC   GL149273  37.723  10.549   6.153
 8816POPC   GL249274  37.735  10.627   6.153
 8816POPC   C1A49275  37.700  10.492   6.453
 8816POPC   D2A49276  37.641  10.499   6.753
 8816POPC   C3A49277  37.651  10.488   7.053
 8816POPC   C4A49278  37.644  10.545   7.353
 8816POPC   C1B49279  37.741  10.817   6.453
 8816POPC   C2B49280  37.675  10.767   6.753
 8816POPC   C3B49281  37.687  10.762   7.053
 8816POPC   C4B49282  37.705  10.785   7.353
 8817POPC   NC349283  40.747   8.978   5.553
 8817POPC   PO449284  40.800   9.002   5.853
 8817POPC   GL149285  40.751   8.943   6.153
 8817POPC   GL249286  40.642   9.038   6.153
 8817POPC   C1A49287  40.798   8.999   6.453
 8817POPC   D2A49288  40.743   8.965   6.753
 8817POPC   C3A49289  40.808   8.943   7.053
 8817POPC   C4A49290  40.752   8.924   7.353
 8817POPC   C1B49291  40.508   9.005   6.453
 8817POPC   C2B49292  40.580   9.057   6.753
 8817POPC   C3B49293  40.530   9.073   7.053
 8817POPC   C4B49294  40.540   8.991   7.353
 8818POPC   NC349295   1.201  26.060   5.553
 8818POPC   PO449296   1.254  26.070   5.853
 8818POPC   GL149297   1.169  26.069   6.153
 8818POPC   GL249298   1.060  25.965   6.153
 8818POPC   C1A49299   1.174  26.068   6.453
 8818POPC   D2A49300   1.187  26.056   6.753
 8818POPC   C3A49301   1.232  26.020   7.053
 8818POPC   C4A49302   1.189  26.018   7.353
 8818POPC   C1B49303   0.954  25.937   6.453
 8818POPC   C2B49304   0.968  25.907   6.753
 8818POPC   C3B49305   0.986  25.988   7.053
 8818POPC   C4B49306   0.976  25.990   7.353
 8819POPC   NC349307  33.036   5.907   5.553
 8819POPC   PO449308  33.049   5.857   5.853
 8819POPC   GL149309  33.010   5.909   6.153
 8819POPC   GL249310  33.171   5.902   6.153
 8819POPC   C1A49311  32.987   5.842   6.453
 8819POPC   D2A49312  33.000   5.907   6.753
 8819POPC   C3A49313  32.996   5.835   7.053
 8819POPC   C4A49314  33.019   5.858   7.353
 8819POPC   C1B49315  33.247   5.912   6.453
 8819POPC   C2B49316  33.312   5.944   6.753
 8819POPC   C3B49317  33.223   5.941   7.053
 8819POPC   C4B49318  33.255   5.954   7.353
 8820POPC   NC349319  36.950  23.758   5.553
 8820POPC   PO449320  36.923  23.742   5.853
 8820POPC   GL149321  36.863  23.716   6.153
 8820POPC   GL249322  36.967  23.659   6.153
 8820POPC   C1A49323  36.872  23.669   6.453
 8820POPC   D2A49324  36.859  23.667   6.753
 8820POPC   C3A49325  36.861  23.710   7.053
 8820POPC   C4A49326  36.859  23.729   7.353
 8820POPC   C1B49327  37.083  23.581   6.453
 8820POPC   C2B49328  37.094  23.588   6.753
 8820POPC   C3B49329  37.071  23.557   7.053
 8820POPC   C4B49330  37.057  23.560   7.353
 8821POPC   NC349331   3.573  42.313   5.553
 8821POPC   PO449332   3.540  42.347   5.853
 8821POPC   GL149333   3.507  42.332   6.153
 8821POPC   GL249334   3.647  42.288   6.153
 8821POPC   C1A49335   3.495  42.317   6.453
 8821POPC   D2A49336   3.550  42.302   6.753
 8821POPC   C3A49337   3.494  42.335   7.053
 8821POPC   C4A49338   3.512  42.326   7.353
 8821POPC   C1B49339   3.728  42.258   6.453
 8821POPC   C2B49340   3.738  42.272   6.753
 8821POPC   C3B49341   3.797  42.273   7.053
 8821POPC   C4B49342   3.773  42.284   7.353
 8822POPC   NC349343   7.382  28.371   5.553
 8822POPC   PO449344   7.380  28.360   5.853
 8822POPC   GL149345   7.419  28.417   6.153
 8822POPC   GL249346   7.507  28.263   6.153
 8822POPC   C1A49347   7.379  28.353   6.453
 8822POPC   D2A49348   7.424  28.355   6.753
 8822POPC   C3A49349   7.396  28.334   7.053
 8822POPC   C4A49350   7.421  28.377   7.353
 8822POPC   C1B49351   7.578  28.159   6.453
 8822POPC   C2B49352   7.594  28.142   6.753
 8822POPC   C3B49353   7.606  28.129   7.053
 8822POPC   C4B49354   7.584  28.153   7.353
 8823POPC   NC349355  22.210   7.416   5.553
 8823POPC   PO449356  22.165   7.450   5.853
 8823POPC   GL149357  22.140   7.420   6.153
 8823POPC   GL249358  22.093   7.273   6.153
 8823POPC   C1A49359  22.125   7.464   6.453
 8823POPC   D2A49360  22.198   7.444   6.753
 8823POPC   C3A49361  22.149   7.456   7.053
 8823POPC   C4A49362  22.136   7.446   7.353
 8823POPC   C1B49363  22.037   7.261   6.453
 8823POPC   C2B49364  22.025   7.189   6.753
 8823POPC   C3B49365  22.019   7.250   7.053
 8823POPC   C4B49366  21.977   7.222   7.353
 8824POPC   NC349367  19.846  30.736   5.553
 8824POPC   PO449368  19.864  30.655   5.853
 8824POPC   GL149369  19.826  30.737   6.153
 8824POPC   GL249370  19.783  30.798   6.153
 8824POPC   C1A49371  19.881  30.734   6.453
 8824POPC   D2A49372  19.804  30.744   6.753
 8824POPC   C3A49373  19.859  30.742   7.053
 8824POPC   C4A49374  19.868  30.648   7.353
 8824POPC   C1B49375  19.744  30.899   6.453
 8824POPC   C2B49376  19.804  30.986   6.753
 8824POPC   C3B49377  19.797  30.905   7.053
 8824POPC   C4B49378  19.799  30.895   7.353
 8825POPC   NC349379  22.197  26.804   5.553
 8825POPC   PO449380  22.136  26.838   5.853
 8825POPC   GL149381  22.159  26.769   6.153
 8825POPC   GL249382  22.112  26.680   6.153
 8825POPC   C1A49383  22.176  26.819   6.453
 8825POPC   D2A49384  22.209  26.796   6.753
 8825POPC   C3A49385  22.155  26.823   7.053
 8825POPC   C4A49386  22.145  26.810   7.353
 8825POPC   C1B49387  22.022  26.626   6.453
 8825POPC   C2B49388  21.971  26.666   6.753
 8825POPC   C3B49389  21.974  26.644   7.053
 8825POPC   C4B49390  22.014  26.688   7.353
 8826POPC   NC349391  32.266  33.839   5.553
 8826POPC   PO449392  32.278  33.823   5.853
 8826POPC   GL149393  32.219  33.824   6.153
 8826POPC   GL249394  32.116  33.854   6.153
 8826POPC   C1A49395  32.225  33.781   6.453
 8826POPC   D2A49396  32.270  33.794   6.753
 8826POPC   C3A49397  32.244  33.817   7.053
 8826POPC   C4A49398  32.250  33.753   7.353
 8826POPC   C1B49399  32.049  33.930   6.453
 8826POPC   C2B49400  32.085  33.991   6.753
 8826POPC   C3B49401  32.033  33.990   7.053
 8826POPC   C4B49402  32.082  34.022   7.353
 8827POPC   NC349403  44.664  33.005   5.553
 8827POPC   PO449404  44.686  32.993   5.853
 8827POPC   GL149405  44.675  33.023   6.153
 8827POPC   GL249406  44.739  33.124   6.153
 8827POPC   C1A49407  44.625  33.046   6.453
 8827POPC   D2A49408  44.616  33.043   6.753
 8827POPC   C3A49409  44.647  33.068   7.053
 8827POPC   C4A49410  44.693  32.978   7.353
 8827POPC   C1B49411  44.813  33.180   6.453
 8827POPC   C2B49412  44.848  33.245   6.753
 8827POPC   C3B49413  44.820  33.237   7.053
 8827POPC   C4B49414  44.813  33.233   7.353
 8828POPC   NC349415   0.429  36.143   5.553
 8828POPC   PO449416   0.453  36.162   5.853
 8828POPC   GL149417   0.447  36.100   6.153
 8828POPC   GL249418   0.402  36.016   6.153
 8828POPC   C1A49419   0.479  36.107   6.453
 8828POPC   D2A49420   0.471  36.122   6.753
 8828POPC   C3A49421   0.422  36.108   7.053
 8828POPC   C4A49422   0.412  36.108   7.353
 8828POPC   C1B49423   0.355  35.857   6.453
 8828POPC   C2B49424   0.371  35.876   6.753
 8828POPC   C3B49425   0.339  35.923   7.053
 8828POPC   C4B49426   0.371  35.914   7.353
 8829POPC   NC349427   3.520  36.915   5.553
 8829POPC   PO449428   3.574  36.948   5.853
 8829POPC   GL149429   3.512  36.865   6.153
 8829POPC   GL249430   3.525  36.991   6.153
 8829POPC   C1A49431   3.587  36.930   6.453
 8829POPC   D2A49432   3.525  36.870   6.753
 8829POPC   C3A49433   3.590  36.891   7.053
 8829POPC   C4A49434   3.496  36.861   7.353
 8829POPC   C1B49435   3.453  37.079   6.453
 8829POPC   C2B49436   3.406  37.094   6.753
 8829POPC   C3B49437   3.399  37.136   7.053
 8829POPC   C4B49438   3.387  37.149   7.353
 8830POPC   NC349439   5.856   9.771   5.553
 8830POPC   PO449440   5.896   9.707   5.853
 8830POPC   GL149441   5.888   9.722   6.153
 8830POPC   GL249442   6.005   9.690   6.153
 8830POPC   C1A49443   5.851   9.738   6.453
 8830POPC   D2A49444   5.869   9.753   6.753
 8830POPC   C3A49445   5.912   9.778   7.053
 8830POPC   C4A49446   5.825   9.771   7.353
 8830POPC   C1B49447   6.064   9.609   6.453
 8830POPC   C2B49448   6.062   9.597   6.753
 8830POPC   C3B49449   6.036   9.569   7.053
 8830POPC   C4B49450   6.041   9.612   7.353
 8831POPC   NC349451  36.102  21.382   5.553
 8831POPC   PO449452  36.083  21.364   5.853
 8831POPC   GL149453  36.174  21.388   6.153
 8831POPC   GL249454  36.237  21.363   6.153
 8831POPC   C1A49455  36.149  21.379   6.453
 8831POPC   D2A49456  36.086  21.424   6.753
 8831POPC   C3A49457  36.098  21.368   7.053
 8831POPC   C4A49458  36.090  21.398   7.353
 8831POPC   C1B49459  36.399  21.390   6.453
 8831POPC   C2B49460  36.390  21.399   6.753
 8831POPC   C3B49461  36.382  21.363   7.053
 8831POPC   C4B49462  36.406  21.430   7.353
 8832POPC   NC349463  39.959   5.094   5.553
 8832POPC   PO449464  40.034   5.089   5.853
 8832POPC   GL149465  40.039   5.114   6.153
 8832POPC   GL249466  40.106   5.143   6.153
 8832POPC   C1A49467  39.960   5.067   6.453
 8832POPC   D2A49468  40.013   5.072   6.753
 8832POPC   C3A49469  39.975   5.070   7.053
 8832POPC   C4A49470  39.958   5.086   7.353
 8832POPC   C1B49471  40.207   5.224   6.453
 8832POPC   C2B49472  40.271   5.204   6.753
 8832POPC   C3B49473  40.229   5.218   7.053
 8832POPC   C4B49474  40.214   5.188   7.353
 8833POPC   NC349475  29.176  39.259   5.553
 8833POPC   PO449476  29.147  39.264   5.853
 8833POPC   GL149477  29.114  39.221   6.153
 8833POPC   GL249478  29.239  39.142   6.153
 8833POPC   C1A49479  29.130  39.243   6.453
 8833POPC   D2A49480  29.137  39.193   6.753
 8833POPC   C3A49481  29.124  39.254   7.053
 8833POPC   C4A49482  29.180  39.191   7.353
 8833POPC   C1B49483  29.356  39.023   6.453
 8833POPC   C2B49484  29.332  39.020   6.753
 8833POPC   C3B49485  29.334  39.030   7.053
 8833POPC   C4B49486  29.264  39.062   7.353
 8834POPC   NC349487  26.823  19.087   5.553
 8834POPC   PO449488  26.837  19.059   5.853
 8834POPC   GL149489  26.844  19.068   6.153
 8834POPC   GL249490  26.732  19.192   6.153
 8834POPC   C1A49491  26.820  19.103   6.453
 8834POPC   D2A49492  26.840  19.106   6.753
 8834POPC   C3A49493  26.768  19.018   7.053
 8834POPC   C4A49494  26.797  19.084   7.353
 8834POPC   C1B49495  26.594  19.236   6.453
 8834POPC   C2B49496  26.592  19.202   6.753
 8834POPC   C3B49497  26.677  19.242   7.053
 8834POPC   C4B49498  26.647  19.201   7.353
 8835POPC   NC349499  41.596  36.108   5.553
 8835POPC   PO449500  41.585  36.100   5.853
 8835POPC   GL149501  41.582  36.098   6.153
 8835POPC   GL249502  41.673  36.233   6.153
 8835POPC   C1A49503  41.589  36.143   6.453
 8835POPC   D2A49504  41.518  36.112   6.753
 8835POPC   C3A49505  41.539  36.120   7.053
 8835POPC   C4A49506  41.598  36.144   7.353
 8835POPC   C1B49507  41.725  36.247   6.453
 8835POPC   C2B49508  41.778  36.296   6.753
 8835POPC   C3B49509  41.732  36.237   7.053
 8835POPC   C4B49510  41.742  36.231   7.353
 8836POPC   NC349511  33.798  16.737   5.553
 8836POPC   PO449512  33.814  16.774   5.853
 8836POPC   GL149513  33.847  16.727   6.153
 8836POPC   GL249514  33.711  16.828   6.153
 8836POPC   C1A49515  33.818  16.751   6.453
 8836POPC   D2A49516  33.762  16.698   6.753
 8836POPC   C3A49517  33.772  16.700   7.053
 8836POPC   C4A49518  33.775  16.724   7.353
 8836POPC   C1B49519  33.537  16.809   6.453
 8836POPC   C2B49520  33.565  16.824   6.753
 8836POPC   C3B49521  33.582  16.870   7.053
 8836POPC   C4B49522  33.563  16.868   7.353
 8837POPC   NC349523  29.897  19.030   5.553
 8837POPC   PO449524  29.937  19.081   5.853
 8837POPC   GL149525  29.890  19.028   6.153
 8837POPC   GL249526  29.932  19.225   6.153
 8837POPC   C1A49527  29.931  19.070   6.453
 8837POPC   D2A49528  29.887  19.076   6.753
 8837POPC   C3A49529  29.926  19.096   7.053
 8837POPC   C4A49530  29.874  19.106   7.353
 8837POPC   C1B49531  29.813  19.340   6.453
 8837POPC   C2B49532  29.814  19.345   6.753
 8837POPC   C3B49533  29.887  19.247   7.053
 8837POPC   C4B49534  29.866  19.326   7.353
 8838POPC   NC349535  15.940  37.687   5.553
 8838POPC   PO449536  15.906  37.725   5.853
 8838POPC   GL149537  15.934  37.652   6.153
 8838POPC   GL249538  16.066  37.712   6.153
 8838POPC   C1A49539  15.999  37.723   6.453
 8838POPC   D2A49540  15.972  37.689   6.753
 8838POPC   C3A49541  15.946  37.682   7.053
 8838POPC   C4A49542  15.996  37.661   7.353
 8838POPC   C1B49543  16.225  37.721   6.453
 8838POPC   C2B49544  16.210  37.733   6.753
 8838POPC   C3B49545  16.172  37.755   7.053
 8838POPC   C4B49546  16.242  37.765   7.353
 8839POPC   NC349547  18.252  30.692   5.553
 8839POPC   PO449548  18.308  30.699   5.853
 8839POPC   GL149549  18.257  30.692   6.153
 8839POPC   GL249550  18.127  30.762   6.153
 8839POPC   C1A49551  18.296  30.742   6.453
 8839POPC   D2A49552  18.262  30.708   6.753
 8839POPC   C3A49553  18.329  30.723   7.053
 8839POPC   C4A49554  18.320  30.729   7.353
 8839POPC   C1B49555  18.068  30.778   6.453
 8839POPC   C2B49556  18.013  30.797   6.753
 8839POPC   C3B49557  18.018  30.800   7.053
 8839POPC   C4B49558  18.015  30.833   7.353
 8840POPC   NC349559   0.434  43.078   5.553
 8840POPC   PO449560   0.427  43.160   5.853
 8840POPC   GL149561   0.435  43.141   6.153
 8840POPC   GL249562   0.423  43.205   6.153
 8840POPC   C1A49563   0.486  43.093   6.453
 8840POPC   D2A49564   0.487  43.129   6.753
 8840POPC   C3A49565   0.483  43.125   7.053
 8840POPC   C4A49566   0.421  43.160   7.353
 8840POPC   C1B49567   0.397  43.301   6.453
 8840POPC   C2B49568   0.394  43.336   6.753
 8840POPC   C3B49569   0.408  43.312   7.053
 8840POPC   C4B49570   0.374  43.389   7.353
 8841POPC   NC349571  40.050  33.019   5.553
 8841POPC   PO449572  39.993  32.992   5.853
 8841POPC   GL149573  40.014  32.999   6.153
 8841POPC   GL249574  39.834  33.014   6.153
 8841POPC   C1A49575  39.979  33.002   6.453
 8841POPC   D2A49576  40.037  33.051   6.753
 8841POPC   C3A49577  39.981  33.049   7.053
 8841POPC   C4A49578  40.024  33.002   7.353
 8841POPC   C1B49579  39.792  33.102   6.453
 8841POPC   C2B49580  39.759  33.057   6.753
 8841POPC   C3B49581  39.788  33.081   7.053
 8841POPC   C4B49582  39.750  33.051   7.353
 8842POPC   NC349583   0.472  19.799   5.553
 8842POPC   PO449584   0.450  19.838   5.853
 8842POPC   GL149585   0.459  19.814   6.153
 8842POPC   GL249586   0.333  19.848   6.153
 8842POPC   C1A49587   0.444  19.877   6.453
 8842POPC   D2A49588   0.470  19.819   6.753
 8842POPC   C3A49589   0.431  19.884   7.053
 8842POPC   C4A49590   0.428  19.849   7.353
 8842POPC   C1B49591   0.253  19.900   6.453
 8842POPC   C2B49592   0.206  19.897   6.753
 8842POPC   C3B49593   0.168  19.963   7.053
 8842POPC   C4B49594   0.184  19.922   7.353
 8843POPC   NC349595  34.553  21.406   5.553
 8843POPC   PO449596  34.625  21.393   5.853
 8843POPC   GL149597  34.560  21.368   6.153
 8843POPC   GL249598  34.495  21.231   6.153
 8843POPC   C1A49599  34.596  21.414   6.453
 8843POPC   D2A49600  34.615  21.436   6.753
 8843POPC   C3A49601  34.586  21.420   7.053
 8843POPC   C4A49602  34.615  21.429   7.353
 8843POPC   C1B49603  34.518  21.194   6.453
 8843POPC   C2B49604  34.516  21.203   6.753
 8843POPC   C3B49605  34.454  21.150   7.053
 8843POPC   C4B49606  34.447  21.130   7.353
 8844POPC   NC349607  43.072  32.227   5.553
 8844POPC   PO449608  43.130  32.293   5.853
 8844POPC   GL149609  43.136  32.207   6.153
 8844POPC   GL249610  43.231  32.181   6.153
 8844POPC   C1A49611  43.134  32.286   6.453
 8844POPC   D2A49612  43.136  32.223   6.753
 8844POPC   C3A49613  43.110  32.284   7.053
 8844POPC   C4A49614  43.064  32.224   7.353
 8844POPC   C1B49615  43.324  32.228   6.453
 8844POPC   C2B49616  43.350  32.157   6.753
 8844POPC   C3B49617  43.343  32.145   7.053
 8844POPC   C4B49618  43.360  32.205   7.353
 8845POPC   NC349619  30.679  17.544   5.553
 8845POPC   PO449620  30.704  17.511   5.853
 8845POPC   GL149621  30.692  17.492   6.153
 8845POPC   GL249622  30.747  17.403   6.153
 8845POPC   C1A49623  30.688  17.471   6.453
 8845POPC   D2A49624  30.673  17.482   6.753
 8845POPC   C3A49625  30.655  17.491   7.053
 8845POPC   C4A49626  30.667  17.459   7.353
 8845POPC   C1B49627  30.764  17.324   6.453
 8845POPC   C2B49628  30.858  17.251   6.753
 8845POPC   C3B49629  30.773  17.271   7.053
 8845POPC   C4B49630  30.806  17.241   7.353
 8846POPC   NC349631  10.565  16.769   5.553
 8846POPC   PO449632  10.482  16.692   5.853
 8846POPC   GL149633  10.560  16.748   6.153
 8846POPC   GL249634  10.583  16.875   6.153
 8846POPC   C1A49635  10.527  16.705   6.453
 8846POPC   D2A49636  10.570  16.750   6.753
 8846POPC   C3A49637  10.496  16.761   7.053
 8846POPC   C4A49638  10.528  16.748   7.353
 8846POPC   C1B49639  10.619  17.003   6.453
 8846POPC   C2B49640  10.572  16.990   6.753
 8846POPC   C3B49641  10.575  16.961   7.053
 8846POPC   C4B49642  10.555  16.959   7.353
 8847POPC   NC349643  24.521  27.591   5.553
 8847POPC   PO449644  24.517  27.568   5.853
 8847POPC   GL149645  24.451  27.614   6.153
 8847POPC   GL249646  24.512  27.656   6.153
 8847POPC   C1A49647  24.531  27.606   6.453
 8847POPC   D2A49648  24.443  27.578   6.753
 8847POPC   C3A49649  24.488  27.594   7.053
 8847POPC   C4A49650  24.508  27.608   7.353
 8847POPC   C1B49651  24.628  27.762   6.453
 8847POPC   C2B49652  24.641  27.766   6.753
 8847POPC   C3B49653  24.649  27.784   7.053
 8847POPC   C4B49654  24.624  27.829   7.353
 8848POPC   NC349655  39.981   1.972   5.553
 8848POPC   PO449656  40.009   2.013   5.853
 8848POPC   GL149657  39.997   1.952   6.153
 8848POPC   GL249658  39.942   2.091   6.153
 8848POPC   C1A49659  40.009   2.004   6.453
 8848POPC   D2A49660  40.045   2.037   6.753
 8848POPC   C3A49661  39.983   1.943   7.053
 8848POPC   C4A49662  40.033   1.976   7.353
 8848POPC   C1B49663  39.912   2.199   6.453
 8848POPC   C2B49664  39.897   2.236   6.753
 8848POPC   C3B49665  39.909   2.234   7.053
 8848POPC   C4B49666  39.855   2.192   7.353
 8849POPC   NC349667  18.275   4.304   5.553
 8849POPC   PO449668  18.291   4.289   5.853
 8849POPC   GL149669  18.261   4.296   6.153
 8849POPC   GL249670  18.168   4.411   6.153
 8849POPC   C1A49671  18.315   4.356   6.453
 8849POPC   D2A49672  18.303   4.302   6.753
 8849POPC   C3A49673  18.259   4.337   7.053
 8849POPC   C4A49674  18.278   4.326   7.353
 8849POPC   C1B49675  18.150   4.509   6.453
 8849POPC   C2B49676  18.099   4.548   6.753
 8849POPC   C3B49677  18.181   4.513   7.053
 8849POPC   C4B49678  18.125   4.518   7.353
 8850POPC   NC349679  28.375   8.239   5.553
 8850POPC   PO449680  28.371   8.212   5.853
 8850POPC   GL149681  28.368   8.154   6.153
 8850POPC   GL249682  28.417   8.038   6.153
 8850POPC   C1A49683  28.384   8.236   6.453
 8850POPC   D2A49684  28.328   8.207   6.753
 8850POPC   C3A49685  28.408   8.232   7.053
 8850POPC   C4A49686  28.328   8.194   7.353
 8850POPC   C1B49687  28.392   7.962   6.453
 8850POPC   C2B49688  28.434   7.955   6.753
 8850POPC   C3B49689  28.379   7.951   7.053
 8850POPC   C4B49690  28.455   7.923   7.353
 8851POPC   NC349691  43.851  43.898   5.553
 8851POPC   PO449692  43.837  43.875   5.853
 8851POPC   GL149693  43.929  43.895   6.153
 8851POPC   GL249694  43.791  43.821   6.153
 8851POPC   C1A49695  43.886  43.891   6.453
 8851POPC   D2A49696  43.893  43.847   6.753
 8851POPC   C3A49697  43.881  43.918   7.053
 8851POPC   C4A49698  43.837  43.868   7.353
 8851POPC   C1B49699  43.662  43.812   6.453
 8851POPC   C2B49700  43.688  43.828   6.753
 8851POPC   C3B49701  43.696  43.783   7.053
 8851POPC   C4B49702  43.690  43.754   7.353
 8852POPC   NC349703  42.291  39.209   5.553
 8852POPC   PO449704  42.365  39.229   5.853
 8852POPC   GL149705  42.293  39.223   6.153
 8852POPC   GL249706  42.236  39.123   6.153
 8852POPC   C1A49707  42.371  39.267   6.453
 8852POPC   D2A49708  42.375  39.266   6.753
 8852POPC   C3A49709  42.304  39.215   7.053
 8852POPC   C4A49710  42.353  39.249   7.353
 8852POPC   C1B49711  42.108  39.105   6.453
 8852POPC   C2B49712  42.116  39.056   6.753
 8852POPC   C3B49713  42.144  39.127   7.053
 8852POPC   C4B49714  42.114  39.068   7.353
 8853POPC   NC349715  19.796  29.952   5.553
 8853POPC   PO449716  19.797  29.934   5.853
 8853POPC   GL149717  19.855  29.919   6.153
 8853POPC   GL249718  19.791  29.813   6.153
 8853POPC   C1A49719  19.792  29.939   6.453
 8853POPC   D2A49720  19.836  29.905   6.753
 8853POPC   C3A49721  19.841  29.880   7.053
 8853POPC   C4A49722  19.865  29.895   7.353
 8853POPC   C1B49723  19.657  29.754   6.453
 8853POPC   C2B49724  19.715  29.776   6.753
 8853POPC   C3B49725  19.683  29.745   7.053
 8853POPC   C4B49726  19.718  29.709   7.353
 8854POPC   NC349727   1.955  10.504   5.553
 8854POPC   PO449728   1.993  10.494   5.853
 8854POPC   GL149729   1.943  10.546   6.153
 8854POPC   GL249730   1.961  10.415   6.153
 8854POPC   C1A49731   1.949  10.477   6.453
 8854POPC   D2A49732   2.014  10.507   6.753
 8854POPC   C3A49733   1.984  10.561   7.053
 8854POPC   C4A49734   1.972  10.552   7.353
 8854POPC   C1B49735   1.833  10.321   6.453
 8854POPC   C2B49736   1.836  10.326   6.753
 8854POPC   C3B49737   1.833  10.331   7.053
 8854POPC   C4B49738   1.848  10.333   7.353
 8855POPC   NC349739  43.085  12.881   5.553
 8855POPC   PO449740  43.156  12.833   5.853
 8855POPC   GL149741  43.121  12.817   6.153
 8855POPC   GL249742  42.976  12.785   6.153
 8855POPC   C1A49743  43.062  12.847   6.453
 8855POPC   D2A49744  43.116  12.868   6.753
 8855POPC   C3A49745  43.095  12.865   7.053
 8855POPC   C4A49746  43.101  12.885   7.353
 8855POPC   C1B49747  42.918  12.810   6.453
 8855POPC   C2B49748  42.914  12.733   6.753
 8855POPC   C3B49749  42.835  12.738   7.053
 8855POPC   C4B49750  42.867  12.786   7.353
 8856POPC   NC349751   5.076  10.550   5.553
 8856POPC   PO449752   5.113  10.519   5.853
 8856POPC   GL149753   5.046  10.488   6.153
 8856POPC   GL249754   5.020  10.533   6.153
 8856POPC   C1A49755   5.121  10.521   6.453
 8856POPC   D2A49756   5.085  10.553   6.753
 8856POPC   C3A49757   5.092  10.478   7.053
 8856POPC   C4A49758   5.113  10.520   7.353
 8856POPC   C1B49759   4.816  10.626   6.453
 8856POPC   C2B49760   4.846  10.568   6.753
 8856POPC   C3B49761   4.815  10.606   7.053
 8856POPC   C4B49762   4.887  10.556   7.353
 8857POPC   NC349763  12.841  34.575   5.553
 8857POPC   PO449764  12.899  34.618   5.853
 8857POPC   GL149765  12.855  34.580   6.153
 8857POPC   GL249766  12.761  34.470   6.153
 8857POPC   C1A49767  12.877  34.562   6.453
 8857POPC   D2A49768  12.900  34.559   6.753
 8857POPC   C3A49769  12.818  34.600   7.053
 8857POPC   C4A49770  12.882  34.540   7.353
 8857POPC   C1B49771  12.705  34.387   6.453
 8857POPC   C2B49772  12.673  34.400   6.753
 8857POPC   C3B49773  12.690  34.420   7.053
 8857POPC   C4B49774  12.619  34.414   7.353
 8858POPC   NC349775   2.000   0.481   5.553
 8858POPC   PO449776   1.949   0.421   5.853
 8858POPC   GL149777   1.948   0.456   6.153
 8858POPC   GL249778   2.046   0.559   6.153
 8858POPC   C1A49779   1.980   0.418   6.453
 8858POPC   D2A49780   1.974   0.484   6.753
 8858POPC   C3A49781   1.984   0.412   7.053
 8858POPC   C4A49782   1.963   0.432   7.353
 8858POPC   C1B49783   2.020   0.689   6.453
 8858POPC   C2B49784   2.064   0.715   6.753
 8858POPC   C3B49785   2.047   0.707   7.053
 8858POPC   C4B49786   2.086   0.712   7.353
 8859POPC   NC349787   5.858   7.454   5.553
 8859POPC   PO449788   5.843   7.407   5.853
 8859POPC   GL149789   5.843   7.451   6.153
 8859POPC   GL249790   5.981   7.440   6.153
 8859POPC   C1A49791   5.901   7.449   6.453
 8859POPC   D2A49792   5.833   7.457   6.753
 8859POPC   C3A49793   5.897   7.442   7.053
 8859POPC   C4A49794   5.867   7.453   7.353
 8859POPC   C1B49795   6.043   7.585   6.453
 8859POPC   C2B49796   6.111   7.520   6.753
 8859POPC   C3B49797   6.067   7.582   7.053
 8859POPC   C4B49798   6.085   7.508   7.353
 8860POPC   NC349799   1.217   8.922   5.553
 8860POPC   PO449800   1.210   8.926   5.853
 8860POPC   GL149801   1.207   8.975   6.153
 8860POPC   GL249802   1.085   9.086   6.153
 8860POPC   C1A49803   1.205   9.020   6.453
 8860POPC   D2A49804   1.181   9.007   6.753
 8860POPC   C3A49805   1.215   9.012   7.053
 8860POPC   C4A49806   1.185   8.931   7.353
 8860POPC   C1B49807   1.069   9.190   6.453
 8860POPC   C2B49808   1.029   9.193   6.753
 8860POPC   C3B49809   1.086   9.129   7.053
 8860POPC   C4B49810   1.066   9.135   7.353
 8861POPC   NC349811  36.174  10.534   5.553
 8861POPC   PO449812  36.114  10.501   5.853
 8861POPC   GL149813  36.095  10.554   6.153
 8861POPC   GL249814  36.198  10.475   6.153
 8861POPC   C1A49815  36.119  10.476   6.453
 8861POPC   D2A49816  36.134  10.570   6.753
 8861POPC   C3A49817  36.084  10.493   7.053
 8861POPC   C4A49818  36.165  10.555   7.353
 8861POPC   C1B49819  36.298  10.427   6.453
 8861POPC   C2B49820  36.311  10.363   6.753
 8861POPC   C3B49821  36.307  10.355   7.053
 8861POPC   C4B49822  36.372  10.375   7.353
 8862POPC   NC349823  13.650  33.053   5.553
 8862POPC   PO449824  13.657  33.027   5.853
 8862POPC   GL149825  13.651  32.985   6.153
 8862POPC   GL249826  13.592  32.927   6.153
 8862POPC   C1A49827  13.675  33.025   6.453
 8862POPC   D2A49828  13.672  33.054   6.753
 8862POPC   C3A49829  13.591  33.041   7.053
 8862POPC   C4A49830  13.622  33.003   7.353
 8862POPC   C1B49831  13.575  32.784   6.453
 8862POPC   C2B49832  13.647  32.816   6.753
 8862POPC   C3B49833  13.565  32.740   7.053
 8862POPC   C4B49834  13.603  32.750   7.353
 8863POPC   NC349835  42.350  15.200   5.553
 8863POPC   PO449836  42.287  15.174   5.853
 8863POPC   GL149837  42.310  15.144   6.153
 8863POPC   GL249838  42.397  15.104   6.153
 8863POPC   C1A49839  42.313  15.196   6.453
 8863POPC   D2A49840  42.311  15.156   6.753
 8863POPC   C3A49841  42.314  15.222   7.053
 8863POPC   C4A49842  42.297  15.142   7.353
 8863POPC   C1B49843  42.408  14.973   6.453
 8863POPC   C2B49844  42.385  14.937   6.753
 8863POPC   C3B49845  42.447  14.897   7.053
 8863POPC   C4B49846  42.373  14.963   7.353
 8864POPC   NC349847  15.209  20.650   5.553
 8864POPC   PO449848  15.143  20.656   5.853
 8864POPC   GL149849  15.175  20.602   6.153
 8864POPC   GL249850  15.167  20.498   6.153
 8864POPC   C1A49851  15.161  20.635   6.453
 8864POPC   D2A49852  15.190  20.567   6.753
 8864POPC   C3A49853  15.132  20.642   7.053
 8864POPC   C4A49854  15.197  20.589   7.353
 8864POPC   C1B49855  15.028  20.367   6.453
 8864POPC   C2B49856  15.052  20.361   6.753
 8864POPC   C3B49857  15.069  20.403   7.053
 8864POPC   C4B49858  15.017  20.389   7.353
 8865POPC   NC349859   6.676  23.679   5.553
 8865POPC   PO449860   6.654  23.750   5.853
 8865POPC   GL149861   6.612  23.746   6.153
 8865POPC   GL249862   6.799  23.710   6.153
 8865POPC   C1A49863   6.645  23.698   6.453
 8865POPC   D2A49864   6.630  23.757   6.753
 8865POPC   C3A49865   6.610  23.743   7.053
 8865POPC   C4A49866   6.665  23.744   7.353
 8865POPC   C1B49867   6.884  23.706   6.453
 8865POPC   C2B49868   6.890  23.655   6.753
 8865POPC   C3B49869   6.879  23.723   7.053
 8865POPC   C4B49870   6.899  23.661   7.353
 8866POPC   NC349871  32.260  16.744   5.553
 8866POPC   PO449872  32.247  16.765   5.853
 8866POPC   GL149873  32.266  16.693   6.153
 8866POPC   GL249874  32.335  16.650   6.153
 8866POPC   C1A49875  32.240  16.773   6.453
 8866POPC   D2A49876  32.262  16.760   6.753
 8866POPC   C3A49877  32.199  16.683   7.053
 8866POPC   C4A49878  32.241  16.717   7.353
 8866POPC   C1B49879  32.500  16.630   6.453
 8866POPC   C2B49880  32.499  16.626   6.753
 8866POPC   C3B49881  32.424  16.588   7.053
 8866POPC   C4B49882  32.426  16.614   7.353
 8867POPC   NC349883  21.427  35.375   5.553
 8867POPC   PO449884  21.361  35.351   5.853
 8867POPC   GL149885  21.364  35.391   6.153
 8867POPC   GL249886  21.363  35.404   6.153
 8867POPC   C1A49887  21.381  35.358   6.453
 8867POPC   D2A49888  21.361  35.315   6.753
 8867POPC   C3A49889  21.361  35.366   7.053
 8867POPC   C4A49890  21.349  35.377   7.353
 8867POPC   C1B49891  21.290  35.588   6.453
 8867POPC   C2B49892  21.259  35.542   6.753
 8867POPC   C3B49893  21.266  35.578   7.053
 8867POPC   C4B49894  21.237  35.578   7.353
 8868POPC   NC349895   0.485   4.281   5.553
 8868POPC   PO449896   0.407   4.344   5.853
 8868POPC   GL149897   0.432   4.314   6.153
 8868POPC   GL249898   0.495   4.282   6.153
 8868POPC   C1A49899   0.405   4.316   6.453
 8868POPC   D2A49900   0.409   4.303   6.753
 8868POPC   C3A49901   0.396   4.273   7.053
 8868POPC   C4A49902   0.481   4.348   7.353
 8868POPC   C1B49903   0.615   4.172   6.453
 8868POPC   C2B49904   0.698   4.170   6.753
 8868POPC   C3B49905   0.688   4.146   7.053
 8868POPC   C4B49906   0.682   4.225   7.353
 8869POPC   NC349907  23.738   0.447   5.553
 8869POPC   PO449908  23.699   0.399   5.853
 8869POPC   GL149909  23.757   0.475   6.153
 8869POPC   GL249910  23.680   0.307   6.153
 8869POPC   C1A49911  23.666   0.477   6.453
 8869POPC   D2A49912  23.714   0.442   6.753
 8869POPC   C3A49913  23.720   0.428   7.053
 8869POPC   C4A49914  23.701   0.429   7.353
 8869POPC   C1B49915  23.579   0.218   6.453
 8869POPC   C2B49916  23.582   0.180   6.753
 8869POPC   C3B49917  23.605   0.227   7.053
 8869POPC   C4B49918  23.561   0.206   7.353
 8870POPC   NC349919  36.150  22.922   5.553
 8870POPC   PO449920  36.146  22.958   5.853
 8870POPC   GL149921  36.111  22.981   6.153
 8870POPC   GL249922  36.233  23.050   6.153
 8870POPC   C1A49923  36.101  22.951   6.453
 8870POPC   D2A49924  36.148  22.932   6.753
 8870POPC   C3A49925  36.097  22.986   7.053
 8870POPC   C4A49926  36.110  22.979   7.353
 8870POPC   C1B49927  36.252  23.123   6.453
 8870POPC   C2B49928  36.274  23.104   6.753
 8870POPC   C3B49929  36.279  23.161   7.053
 8870POPC   C4B49930  36.283  23.139   7.353
 8871POPC   NC349931   1.168  19.797   5.553
 8871POPC   PO449932   1.252  19.870   5.853
 8871POPC   GL149933   1.253  19.815   6.153
 8871POPC   GL249934   1.111  19.822   6.153
 8871POPC   C1A49935   1.217  19.805   6.453
 8871POPC   D2A49936   1.168  19.869   6.753
 8871POPC   C3A49937   1.213  19.850   7.053
 8871POPC   C4A49938   1.171  19.794   7.353
 8871POPC   C1B49939   1.002  19.938   6.453
 8871POPC   C2B49940   1.006  19.918   6.753
 8871POPC   C3B49941   0.999  19.918   7.053
 8871POPC   C4B49942   1.019  19.912   7.353
 8872POPC   NC349943  40.754   5.878   5.553
 8872POPC   PO449944  40.779   5.885   5.853
 8872POPC   GL149945  40.750   5.906   6.153
 8872POPC   GL249946  40.732   5.784   6.153
 8872POPC   C1A49947  40.832   5.916   6.453
 8872POPC   D2A49948  40.798   5.876   6.753
 8872POPC   C3A49949  40.749   5.836   7.053
 8872POPC   C4A49950  40.744   5.903   7.353
 8872POPC   C1B49951  40.585   5.701   6.453
 8872POPC   C2B49952  40.559   5.709   6.753
 8872POPC   C3B49953  40.635   5.681   7.053
 8872POPC   C4B49954  40.631   5.673   7.353
 8873POPC   NC349955  27.628  13.675   5.553
 8873POPC   PO449956  27.632  13.652   5.853
 8873POPC   GL149957  27.628  13.582   6.153
 8873POPC   GL249958  27.489  13.662   6.153
 8873POPC   C1A49959  27.635  13.648   6.453
 8873POPC   D2A49960  27.574  13.596   6.753
 8873POPC   C3A49961  27.612  13.666   7.053
 8873POPC   C4A49962  27.620  13.654   7.353
 8873POPC   C1B49963  27.315  13.631   6.453
 8873POPC   C2B49964  27.313  13.659   6.753
 8873POPC   C3B49965  27.324  13.716   7.053
 8873POPC   C4B49966  27.343  13.698   7.353
 8874POPC   NC349967  24.535  15.184   5.553
 8874POPC   PO449968  24.484  15.220   5.853
 8874POPC   GL149969  24.450  15.189   6.153
 8874POPC   GL249970  24.391  15.315   6.153
 8874POPC   C1A49971  24.446  15.134   6.453
 8874POPC   D2A49972  24.492  15.143   6.753
 8874POPC   C3A49973  24.448  15.141   7.053
 8874POPC   C4A49974  24.527  15.142   7.353
 8874POPC   C1B49975  24.366  15.351   6.453
 8874POPC   C2B49976  24.288  15.393   6.753
 8874POPC   C3B49977  24.362  15.375   7.053
 8874POPC   C4B49978  24.310  15.324   7.353
 8875POPC   NC349979  11.297  18.254   5.553
 8875POPC   PO449980  11.348  18.254   5.853
 8875POPC   GL149981  11.278  18.319   6.153
 8875POPC   GL249982  11.336  18.177   6.153
 8875POPC   C1A49983  11.331  18.239   6.453
 8875POPC   D2A49984  11.279  18.318   6.753
 8875POPC   C3A49985  11.333  18.292   7.053
 8875POPC   C4A49986  11.257  18.244   7.353
 8875POPC   C1B49987  11.415  18.003   6.453
 8875POPC   C2B49988  11.387  18.067   6.753
 8875POPC   C3B49989  11.371  18.014   7.053
 8875POPC   C4B49990  11.341  18.079   7.353
 8876POPC   NC349991  27.597  19.037   5.553
 8876POPC   PO449992  27.615  19.009   5.853
 8876POPC   GL149993  27.604  19.058   6.153
 8876POPC   GL249994  27.722  19.089   6.153
 8876POPC   C1A49995  27.614  19.049   6.453
 8876POPC   D2A49996  27.596  19.080   6.753
 8876POPC   C3A49997  27.633  19.086   7.053
 8876POPC   C4A49998  27.624  19.060   7.353
 8876POPC   C1B49999  27.797  19.168   6.453
 8876POPC   C2B50000  27.808  19.247   6.753
 8876POPC   C3B50001  27.802  19.168   7.053
 8876POPC   C4B50002  27.825  19.229   7.353
 8877POPC   NC350003  12.076  28.399   5.553
 8877POPC   PO450004  12.084  28.384   5.853
 8877POPC   GL150005  12.119  28.373   6.153
 8877POPC   GL250006  12.167  28.407   6.153
 8877POPC   C1A50007  12.049  28.337   6.453
 8877POPC   D2A50008  12.033  28.402   6.753
 8877POPC   C3A50009  12.099  28.384   7.053
 8877POPC   C4A50010  12.048  28.347   7.353
 8877POPC   C1B50011  12.310  28.501   6.453
 8877POPC   C2B50012  12.288  28.519   6.753
 8877POPC   C3B50013  12.316  28.556   7.053
 8877POPC   C4B50014  12.309  28.531   7.353
 8878POPC   NC350015  16.693   9.772   5.553
 8878POPC   PO450016  16.712   9.747   5.853
 8878POPC   GL150017  16.689   9.785   6.153
 8878POPC   GL250018  16.857   9.695   6.153
 8878POPC   C1A50019  16.736   9.712   6.453
 8878POPC   D2A50020  16.719   9.743   6.753
 8878POPC   C3A50021  16.774   9.773   7.053
 8878POPC   C4A50022  16.774   9.756   7.353
 8878POPC   C1B50023  16.991   9.750   6.453
 8878POPC   C2B50024  17.002   9.691   6.753
 8878POPC   C3B50025  16.963   9.725   7.053
 8878POPC   C4B50026  16.962   9.721   7.353
 8879POPC   NC350027  18.293   5.871   5.553
 8879POPC   PO450028  18.235   5.903   5.853
 8879POPC   GL150029  18.329   5.866   6.153
 8879POPC   GL250030  18.225   5.790   6.153
 8879POPC   C1A50031  18.242   5.871   6.453
 8879POPC   D2A50032  18.288   5.858   6.753
 8879POPC   C3A50033  18.285   5.843   7.053
 8879POPC   C4A50034  18.292   5.861   7.353
 8879POPC   C1B50035  18.134   5.687   6.453
 8879POPC   C2B50036  18.214   5.610   6.753
 8879POPC   C3B50037  18.145   5.638   7.053
 8879POPC   C4B50038  18.179   5.638   7.353
 8880POPC   NC350039  43.919  44.676   5.553
 8880POPC   PO450040  43.898  44.662   5.853
 8880POPC   GL150041  43.846  44.676   6.153
 8880POPC   GL250042  43.888  44.829   6.153
 8880POPC   C1A50043  43.867  44.685   6.453
 8880POPC   D2A50044  43.853  44.644   6.753
 8880POPC   C3A50045  43.889  44.705   7.053
 8880POPC   C4A50046  43.892  44.649   7.353
 8880POPC   C1B50047  43.922  44.900   6.453
 8880POPC   C2B50048  43.945  44.907   6.753
 8880POPC   C3B50049  43.944  44.866   7.053
 8880POPC   C4B50050  43.996  44.910   7.353
 8881POPC   NC350051  29.165  42.364   5.553
 8881POPC   PO450052  29.165  42.328   5.853
 8881POPC   GL150053  29.116  42.335   6.153
 8881POPC   GL250054  29.302  42.323   6.153
 8881POPC   C1A50055  29.152  42.306   6.453
 8881POPC   D2A50056  29.137  42.353   6.753
 8881POPC   C3A50057  29.155  42.339   7.053
 8881POPC   C4A50058  29.152  42.379   7.353
 8881POPC   C1B50059  29.368  42.284   6.453
 8881POPC   C2B50060  29.378  42.336   6.753
 8881POPC   C3B50061  29.380  42.288   7.053
 8881POPC   C4B50062  29.347  42.278   7.353
 8882POPC   NC350063  38.491  30.706   5.553
 8882POPC   PO450064  38.447  30.745   5.853
 8882POPC   GL150065  38.485  30.702   6.153
 8882POPC   GL250066  38.423  30.803   6.153
 8882POPC   C1A50067  38.448  30.746   6.453
 8882POPC   D2A50068  38.504  30.721   6.753
 8882POPC   C3A50069  38.418  30.676   7.053
 8882POPC   C4A50070  38.443  30.670   7.353
 8882POPC   C1B50071  38.279  30.873   6.453
 8882POPC   C2B50072  38.321  30.874   6.753
 8882POPC   C3B50073  38.288  30.890   7.053
 8882POPC   C4B50074  38.299  30.922   7.353
 8883POPC   NC350075  18.283  35.363   5.553
 8883POPC   PO450076  18.311  35.345   5.853
 8883POPC   GL150077  18.248  35.393   6.153
 8883POPC   GL250078  18.320  35.254   6.153
 8883POPC   C1A50079  18.242  35.372   6.453
 8883POPC   D2A50080  18.288  35.339   6.753
 8883POPC   C3A50081  18.332  35.386   7.053
 8883POPC   C4A50082  18.294  35.312   7.353
 8883POPC   C1B50083  18.277  35.057   6.453
 8883POPC   C2B50084  18.276  35.073   6.753
 8883POPC   C3B50085  18.237  35.147   7.053
 8883POPC   C4B50086  18.270  35.130   7.353
 8884POPC   NC350087   0.416  20.606   5.553
 8884POPC   PO450088   0.484  20.626   5.853
 8884POPC   GL150089   0.395  20.570   6.153
 8884POPC   GL250090   0.369  20.541   6.153
 8884POPC   C1A50091   0.449  20.639   6.453
 8884POPC   D2A50092   0.467  20.564   6.753
 8884POPC   C3A50093   0.486  20.625   7.053
 8884POPC   C4A50094   0.469  20.621   7.353
 8884POPC   C1B50095   0.191  20.465   6.453
 8884POPC   C2B50096   0.236  20.538   6.753
 8884POPC   C3B50097   0.259  20.483   7.053
 8884POPC   C4B50098   0.161  20.545   7.353
 8885POPC   NC350099  33.781  29.177   5.553
 8885POPC   PO450100  33.831  29.185   5.853
 8885POPC   GL150101  33.766  29.105   6.153
 8885POPC   GL250102  33.678  29.216   6.153
 8885POPC   C1A50103  33.817  29.141   6.453
 8885POPC   D2A50104  33.829  29.157   6.753
 8885POPC   C3A50105  33.847  29.192   7.053
 8885POPC   C4A50106  33.801  29.135   7.353
 8885POPC   C1B50107  33.593  29.334   6.453
 8885POPC   C2B50108  33.655  29.331   6.753
 8885POPC   C3B50109  33.582  29.271   7.053
 8885POPC   C4B50110  33.653  29.313   7.353
 8886POPC   NC350111  33.822  12.890   5.553
 8886POPC   PO450112  33.769  12.845   5.853
 8886POPC   GL150113  33.819  12.881   6.153
 8886POPC   GL250114  33.657  12.852   6.153
 8886POPC   C1A50115  33.799  12.860   6.453
 8886POPC   D2A50116  33.758  12.892   6.753
 8886POPC   C3A50117  33.801  12.868   7.053
 8886POPC   C4A50118  33.837  12.843   7.353
 8886POPC   C1B50119  33.503  12.791   6.453
 8886POPC   C2B50120  33.567  12.791   6.753
 8886POPC   C3B50121  33.583  12.777   7.053
 8886POPC   C4B50122  33.531  12.836   7.353
 8887POPC   NC350123  40.765  14.378   5.553
 8887POPC   PO450124  40.779  14.354   5.853
 8887POPC   GL150125  40.800  14.452   6.153
 8887POPC   GL250126  40.920  14.447   6.153
 8887POPC   C1A50127  40.747  14.361   6.453
 8887POPC   D2A50128  40.794  14.354   6.753
 8887POPC   C3A50129  40.737  14.355   7.053
 8887POPC   C4A50130  40.756  14.397   7.353
 8887POPC   C1B50131  41.011  14.389   6.453
 8887POPC   C2B50132  41.052  14.486   6.753
 8887POPC   C3B50133  41.055  14.390   7.053
 8887POPC   C4B50134  41.066  14.399   7.353
 8888POPC   NC350135   9.763  35.382   5.553
 8888POPC   PO450136   9.702  35.311   5.853
 8888POPC   GL150137   9.777  35.391   6.153
 8888POPC   GL250138   9.786  35.487   6.153
 8888POPC   C1A50139   9.794  35.391   6.453
 8888POPC   D2A50140   9.795  35.367   6.753
 8888POPC   C3A50141   9.787  35.350   7.053
 8888POPC   C4A50142   9.756  35.318   7.353
 8888POPC   C1B50143   9.891  35.605   6.453
 8888POPC   C2B50144   9.860  35.558   6.753
 8888POPC   C3B50145   9.871  35.560   7.053
 8888POPC   C4B50146   9.833  35.534   7.353
 8889POPC   NC350147  12.068   6.690   5.553
 8889POPC   PO450148  12.066   6.626   5.853
 8889POPC   GL150149  12.084   6.629   6.153
 8889POPC   GL250150  11.979   6.797   6.153
 8889POPC   C1A50151  12.041   6.681   6.453
 8889POPC   D2A50152  12.053   6.640   6.753
 8889POPC   C3A50153  12.030   6.674   7.053
 8889POPC   C4A50154  12.108   6.637   7.353
 8889POPC   C1B50155  11.977   6.840   6.453
 8889POPC   C2B50156  11.927   6.889   6.753
 8889POPC   C3B50157  11.944   6.852   7.053
 8889POPC   C4B50158  11.959   6.845   7.353
 8890POPC   NC350159  40.822  15.199   5.553
 8890POPC   PO450160  40.776  15.145   5.853
 8890POPC   GL150161  40.828  15.166   6.153
 8890POPC   GL250162  40.703  15.066   6.153
 8890POPC   C1A50163  40.742  15.164   6.453
 8890POPC   D2A50164  40.803  15.179   6.753
 8890POPC   C3A50165  40.794  15.205   7.053
 8890POPC   C4A50166  40.753  15.212   7.353
 8890POPC   C1B50167  40.587  15.046   6.453
 8890POPC   C2B50168  40.540  15.017   6.753
 8890POPC   C3B50169  40.585  15.025   7.053
 8890POPC   C4B50170  40.587  15.001   7.353
 8891POPC   NC350171   3.532  36.135   5.553
 8891POPC   PO450172   3.538  36.168   5.853
 8891POPC   GL150173   3.540  36.081   6.153
 8891POPC   GL250174   3.559  36.000   6.153
 8891POPC   C1A50175   3.575  36.145   6.453
 8891POPC   D2A50176   3.551  36.153   6.753
 8891POPC   C3A50177   3.561  36.133   7.053
 8891POPC   C4A50178   3.532  36.093   7.353
 8891POPC   C1B50179   3.531  35.893   6.453
 8891POPC   C2B50180   3.552  35.836   6.753
 8891POPC   C3B50181   3.505  35.876   7.053
 8891POPC   C4B50182   3.468  35.874   7.353
 8892POPC   NC350183  41.514   6.616   5.553
 8892POPC   PO450184  41.569   6.660   5.853
 8892POPC   GL150185  41.609   6.692   6.153
 8892POPC   GL250186  41.674   6.676   6.153
 8892POPC   C1A50187  41.579   6.693   6.453
 8892POPC   D2A50188  41.522   6.691   6.753
 8892POPC   C3A50189  41.568   6.603   7.053
 8892POPC   C4A50190  41.570   6.676   7.353
 8892POPC   C1B50191  41.821   6.757   6.453
 8892POPC   C2B50192  41.739   6.724   6.753
 8892POPC   C3B50193  41.779   6.721   7.053
 8892POPC   C4B50194  41.793   6.741   7.353
 8893POPC   NC350195   5.069  43.116   5.553
 8893POPC   PO450196   5.060  43.153   5.853
 8893POPC   GL150197   5.119  43.094   6.153
 8893POPC   GL250198   5.162  42.970   6.153
 8893POPC   C1A50199   5.139  43.075   6.453
 8893POPC   D2A50200   5.084  43.062   6.753
 8893POPC   C3A50201   5.131  43.147   7.053
 8893POPC   C4A50202   5.101  43.122   7.353
 8893POPC   C1B50203   5.132  42.823   6.453
 8893POPC   C2B50204   5.191  42.862   6.753
 8893POPC   C3B50205   5.202  42.888   7.053
 8893POPC   C4B50206   5.187  42.870   7.353
 8894POPC   NC350207  11.304   1.963   5.553
 8894POPC   PO450208  11.264   1.942   5.853
 8894POPC   GL150209  11.255   1.984   6.153
 8894POPC   GL250210  11.166   1.982   6.153
 8894POPC   C1A50211  11.292   1.959   6.453
 8894POPC   D2A50212  11.318   2.004   6.753
 8894POPC   C3A50213  11.321   1.972   7.053
 8894POPC   C4A50214  11.272   2.039   7.353
 8894POPC   C1B50215  11.055   2.041   6.453
 8894POPC   C2B50216  11.046   2.061   6.753
 8894POPC   C3B50217  11.073   2.077   7.053
 8894POPC   C4B50218  11.091   2.041   7.353
 8895POPC   NC350219   6.605  40.051   5.553
 8895POPC   PO450220   6.691  40.027   5.853
 8895POPC   GL150221   6.608  40.013   6.153
 8895POPC   GL250222   6.556  39.948   6.153
 8895POPC   C1A50223   6.666  40.032   6.453
 8895POPC   D2A50224   6.662  40.030   6.753
 8895POPC   C3A50225   6.686  39.963   7.053
 8895POPC   C4A50226   6.667  40.027   7.353
 8895POPC   C1B50227   6.438  39.802   6.453
 8895POPC   C2B50228   6.456  39.838   6.753
 8895POPC   C3B50229   6.468  39.791   7.053
 8895POPC   C4B50230   6.436  39.823   7.353
 8896POPC   NC350231   9.756  18.235   5.553
 8896POPC   PO450232   9.739  18.238   5.853
 8896POPC   GL150233   9.742  18.305   6.153
 8896POPC   GL250234   9.746  18.409   6.153
 8896POPC   C1A50235   9.746  18.331   6.453
 8896POPC   D2A50236   9.701  18.236   6.753
 8896POPC   C3A50237   9.767  18.325   7.053
 8896POPC   C4A50238   9.753  18.263   7.353
 8896POPC   C1B50239   9.754  18.503   6.453
 8896POPC   C2B50240   9.689  18.485   6.753
 8896POPC   C3B50241   9.687  18.564   7.053
 8896POPC   C4B50242   9.715  18.512   7.353
 8897POPC   NC350243   2.735  15.164   5.553
 8897POPC   PO450244   2.726  15.158   5.853
 8897POPC   GL150245   2.720  15.162   6.153
 8897POPC   GL250246   2.630  15.262   6.153
 8897POPC   C1A50247   2.809  15.156   6.453
 8897POPC   D2A50248   2.747  15.196   6.753
 8897POPC   C3A50249   2.782  15.146   7.053
 8897POPC   C4A50250   2.815  15.221   7.353
 8897POPC   C1B50251   2.578  15.361   6.453
 8897POPC   C2B50252   2.609  15.336   6.753
 8897POPC   C3B50253   2.520  15.304   7.053
 8897POPC   C4B50254   2.521  15.362   7.353
 8898POPC   NC350255  22.184   9.767   5.553
 8898POPC   PO450256  22.147   9.765   5.853
 8898POPC   GL150257  22.198   9.761   6.153
 8898POPC   GL250258  22.155   9.909   6.153
 8898POPC   C1A50259  22.123   9.709   6.453
 8898POPC   D2A50260  22.148   9.774   6.753
 8898POPC   C3A50261  22.163   9.713   7.053
 8898POPC   C4A50262  22.209   9.773   7.353
 8898POPC   C1B50263  22.064   9.947   6.453
 8898POPC   C2B50264  22.111   9.959   6.753
 8898POPC   C3B50265  22.096  10.020   7.053
 8898POPC   C4B50266  22.043   9.950   7.353
 8899POPC   NC350267  26.795  38.409   5.553
 8899POPC   PO450268  26.815  38.425   5.853
 8899POPC   GL150269  26.858  38.481   6.153
 8899POPC   GL250270  26.671  38.412   6.153
 8899POPC   C1A50271  26.857  38.428   6.453
 8899POPC   D2A50272  26.768  38.448   6.753
 8899POPC   C3A50273  26.836  38.472   7.053
 8899POPC   C4A50274  26.819  38.494   7.353
 8899POPC   C1B50275  26.579  38.365   6.453
 8899POPC   C2B50276  26.572  38.374   6.753
 8899POPC   C3B50277  26.593  38.376   7.053
 8899POPC   C4B50278  26.565  38.342   7.353
 8900POPC   NC350279  43.897  12.805   5.553
 8900POPC   PO450280  43.920  12.802   5.853
 8900POPC   GL150281  43.858  12.807   6.153
 8900POPC   GL250282  43.951  12.714   6.153
 8900POPC   C1A50283  43.850  12.861   6.453
 8900POPC   D2A50284  43.871  12.872   6.753
 8900POPC   C3A50285  43.889  12.857   7.053
 8900POPC   C4A50286  43.880  12.899   7.353
 8900POPC   C1B50287  43.995  12.611   6.453
 8900POPC   C2B50288  44.016  12.619   6.753
 8900POPC   C3B50289  43.962  12.608   7.053
 8900POPC   C4B50290  44.002  12.594   7.353
 8901POPC   NC350291   3.520  12.098   5.553
 8901POPC   PO450292   3.545  12.050   5.853
 8901POPC   GL150293   3.498  12.119   6.153
 8901POPC   GL250294   3.425  12.165   6.153
 8901POPC   C1A50295   3.565  12.066   6.453
 8901POPC   D2A50296   3.538  12.119   6.753
 8901POPC   C3A50297   3.562  12.109   7.053
 8901POPC   C4A50298   3.515  12.093   7.353
 8901POPC   C1B50299   3.296  12.170   6.453
 8901POPC   C2B50300   3.367  12.186   6.753
 8901POPC   C3B50301   3.339  12.230   7.053
 8901POPC   C4B50302   3.338  12.262   7.353
 8902POPC   NC350303  14.421  35.350   5.553
 8902POPC   PO450304  14.430  35.378   5.853
 8902POPC   GL150305  14.415  35.375   6.153
 8902POPC   GL250306  14.532  35.235   6.153
 8902POPC   C1A50307  14.427  35.400   6.453
 8902POPC   D2A50308  14.374  35.352   6.753
 8902POPC   C3A50309  14.422  35.369   7.053
 8902POPC   C4A50310  14.440  35.377   7.353
 8902POPC   C1B50311  14.601  35.197   6.453
 8902POPC   C2B50312  14.572  35.263   6.753
 8902POPC   C3B50313  14.662  35.183   7.053
 8902POPC   C4B50314  14.654  35.207   7.353
 8903POPC   NC350315   5.127  25.274   5.553
 8903POPC   PO450316   5.124  25.305   5.853
 8903POPC   GL150317   5.104  25.225   6.153
 8903POPC   GL250318   5.238  25.316   6.153
 8903POPC   C1A50319   5.065  25.281   6.453
 8903POPC   D2A50320   5.098  25.301   6.753
 8903POPC   C3A50321   5.069  25.249   7.053
 8903POPC   C4A50322   5.053  25.286   7.353
 8903POPC   C1B50323   5.381  25.247   6.453
 8903POPC   C2B50324   5.390  25.250   6.753
 8903POPC   C3B50325   5.346  25.290   7.053
 8903POPC   C4B50326   5.364  25.261   7.353
 8904POPC   NC350327   1.261  15.157   5.553
 8904POPC   PO450328   1.204  15.171   5.853
 8904POPC   GL150329   1.168  15.190   6.153
 8904POPC   GL250330   1.150  15.250   6.153
 8904POPC   C1A50331   1.196  15.226   6.453
 8904POPC   D2A50332   1.250  15.157   6.753
 8904POPC   C3A50333   1.196  15.208   7.053
 8904POPC   C4A50334   1.256  15.220   7.353
 8904POPC   C1B50335   1.070  15.351   6.453
 8904POPC   C2B50336   0.995  15.361   6.753
 8904POPC   C3B50337   1.038  15.355   7.053
 8904POPC   C4B50338   1.058  15.358   7.353
 8905POPC   NC350339  23.720  25.263   5.553
 8905POPC   PO450340  23.698  25.219   5.853
 8905POPC   GL150341  23.718  25.280   6.153
 8905POPC   GL250342  23.824  25.269   6.153
 8905POPC   C1A50343  23.670  25.301   6.453
 8905POPC   D2A50344  23.687  25.232   6.753
 8905POPC   C3A50345  23.736  25.275   7.053
 8905POPC   C4A50346  23.726  25.291   7.353
 8905POPC   C1B50347  23.977  25.214   6.453
 8905POPC   C2B50348  23.992  25.236   6.753
 8905POPC   C3B50349  23.933  25.198   7.053
 8905POPC   C4B50350  24.000  25.231   7.353
 8906POPC   NC350351  30.669   2.741   5.553
 8906POPC   PO450352  30.739   2.778   5.853
 8906POPC   GL150353  30.664   2.813   6.153
 8906POPC   GL250354  30.855   2.744   6.153
 8906POPC   C1A50355  30.666   2.735   6.453
 8906POPC   D2A50356  30.728   2.769   6.753
 8906POPC   C3A50357  30.727   2.814   7.053
 8906POPC   C4A50358  30.746   2.807   7.353
 8906POPC   C1B50359  30.995   2.801   6.453
 8906POPC   C2B50360  30.906   2.802   6.753
 8906POPC   C3B50361  30.958   2.738   7.053
 8906POPC   C4B50362  30.959   2.731   7.353
 8907POPC   NC350363  26.059  11.322   5.553
 8907POPC   PO450364  26.065  11.304   5.853
 8907POPC   GL150365  25.998  11.287   6.153
 8907POPC   GL250366  25.899  11.302   6.153
 8907POPC   C1A50367  26.046  11.284   6.453
 8907POPC   D2A50368  26.017  11.339   6.753
 8907POPC   C3A50369  26.067  11.346   7.053
 8907POPC   C4A50370  26.076  11.315   7.353
 8907POPC   C1B50371  25.760  11.331   6.453
 8907POPC   C2B50372  25.841  11.343   6.753
 8907POPC   C3B50373  25.765  11.327   7.053
 8907POPC   C4B50374  25.773  11.417   7.353
 8908POPC   NC350375  27.562  23.743   5.553
 8908POPC   PO450376  27.615  23.735   5.853
 8908POPC   GL150377  27.573  23.714   6.153
 8908POPC   GL250378  27.711  23.671   6.153
 8908POPC   C1A50379  27.605  23.681   6.453
 8908POPC   D2A50380  27.643  23.744   6.753
 8908POPC   C3A50381  27.637  23.689   7.053
 8908POPC   C4A50382  27.546  23.694   7.353
 8908POPC   C1B50383  27.778  23.558   6.453
 8908POPC   C2B50384  27.792  23.568   6.753
 8908POPC   C3B50385  27.795  23.567   7.053
 8908POPC   C4B50386  27.777  23.542   7.353
 8909POPC   NC350387  22.188  15.941   5.553
 8909POPC   PO450388  22.136  15.975   5.853
 8909POPC   GL150389  22.176  15.948   6.153
 8909POPC   GL250390  22.083  15.862   6.153
 8909POPC   C1A50391  22.170  15.913   6.453
 8909POPC   D2A50392  22.130  15.910   6.753
 8909POPC   C3A50393  22.190  15.981   7.053
 8909POPC   C4A50394  22.182  15.939   7.353
 8909POPC   C1B50395  22.034  15.766   6.453
 8909POPC   C2B50396  22.004  15.750   6.753
 8909POPC   C3B50397  22.005  15.737   7.053
 8909POPC   C4B50398  22.044  15.699   7.353
 8910POPC   NC350399  29.908  29.148   5.553
 8910POPC   PO450400  29.943  29.180   5.853
 8910POPC   GL150401  29.952  29.172   6.153
 8910POPC   GL250402  29.882  29.016   6.153
 8910POPC   C1A50403  29.872  29.102   6.453
 8910POPC   D2A50404  29.966  29.119   6.753
 8910POPC   C3A50405  29.892  29.160   7.053
 8910POPC   C4A50406  29.915  29.119   7.353
 8910POPC   C1B50407  29.832  28.915   6.453
 8910POPC   C2B50408  29.875  28.895   6.753
 8910POPC   C3B50409  29.831  28.863   7.053
 8910POPC   C4B50410  29.867  28.894   7.353
 8911POPC   NC350411  39.197  12.876   5.553
 8911POPC   PO450412  39.260  12.823   5.853
 8911POPC   GL150413  39.259  12.899   6.153
 8911POPC   GL250414  39.337  12.952   6.153
 8911POPC   C1A50415  39.255  12.843   6.453
 8911POPC   D2A50416  39.232  12.825   6.753
 8911POPC   C3A50417  39.235  12.816   7.053
 8911POPC   C4A50418  39.234  12.818   7.353
 8911POPC   C1B50419  39.397  13.018   6.453
 8911POPC   C2B50420  39.394  13.030   6.753
 8911POPC   C3B50421  39.325  13.048   7.053
 8911POPC   C4B50422  39.380  13.097   7.353
 8912POPC   NC350423   5.109  41.587   5.553
 8912POPC   PO450424   5.051  41.568   5.853
 8912POPC   GL150425   5.071  41.540   6.153
 8912POPC   GL250426   5.109  41.406   6.153
 8912POPC   C1A50427   5.115  41.591   6.453
 8912POPC   D2A50428   5.120  41.565   6.753
 8912POPC   C3A50429   5.059  41.531   7.053
 8912POPC   C4A50430   5.116  41.592   7.353
 8912POPC   C1B50431   5.213  41.371   6.453
 8912POPC   C2B50432   5.222  41.371   6.753
 8912POPC   C3B50433   5.205  41.349   7.053
 8912POPC   C4B50434   5.196  41.388   7.353
 8913POPC   NC350435  24.483  39.258   5.553
 8913POPC   PO450436  24.483  39.236   5.853
 8913POPC   GL150437  24.484  39.183   6.153
 8913POPC   GL250438  24.599  39.242   6.153
 8913POPC   C1A50439  24.518  39.276   6.453
 8913POPC   D2A50440  24.483  39.187   6.753
 8913POPC   C3A50441  24.487  39.223   7.053
 8913POPC   C4A50442  24.524  39.217   7.353
 8913POPC   C1B50443  24.778  39.200   6.453
 8913POPC   C2B50444  24.742  39.172   6.753
 8913POPC   C3B50445  24.732  39.251   7.053
 8913POPC   C4B50446  24.720  39.234   7.353
 8914POPC   NC350447  20.596   5.864   5.553
 8914POPC   PO450448  20.611   5.853   5.853
 8914POPC   GL150449  20.595   5.902   6.153
 8914POPC   GL250450  20.743   5.946   6.153
 8914POPC   C1A50451  20.595   5.872   6.453
 8914POPC   D2A50452  20.629   5.877   6.753
 8914POPC   C3A50453  20.654   5.873   7.053
 8914POPC   C4A50454  20.632   5.863   7.353
 8914POPC   C1B50455  20.803   6.048   6.453
 8914POPC   C2B50456  20.776   6.035   6.753
 8914POPC   C3B50457  20.827   5.975   7.053
 8914POPC   C4B50458  20.821   6.026   7.353
 8915POPC   NC350459  19.880  32.996   5.553
 8915POPC   PO450460  19.848  33.008   5.853
 8915POPC   GL150461  19.856  32.994   6.153
 8915POPC   GL250462  19.887  33.102   6.153
 8915POPC   C1A50463  19.873  33.036   6.453
 8915POPC   D2A50464  19.785  33.058   6.753
 8915POPC   C3A50465  19.813  33.055   7.053
 8915POPC   C4A50466  19.787  33.065   7.353
 8915POPC   C1B50467  19.935  33.252   6.453
 8915POPC   C2B50468  19.946  33.225   6.753
 8915POPC   C3B50469  19.869  33.216   7.053
 8915POPC   C4B50470  19.944  33.243   7.353
 8916POPC   NC350471  26.858  12.873   5.553
 8916POPC   PO450472  26.850  12.842   5.853
 8916POPC   GL150473  26.853  12.815   6.153
 8916POPC   GL250474  26.720  12.743   6.153
 8916POPC   C1A50475  26.809  12.827   6.453
 8916POPC   D2A50476  26.820  12.829   6.753
 8916POPC   C3A50477  26.829  12.823   7.053
 8916POPC   C4A50478  26.812  12.865   7.353
 8916POPC   C1B50479  26.592  12.667   6.453
 8916POPC   C2B50480  26.575  12.712   6.753
 8916POPC   C3B50481  26.585  12.686   7.053
 8916POPC   C4B50482  26.635  12.727   7.353
 8917POPC   NC350483   2.752  40.819   5.553
 8917POPC   PO450484   2.795  40.803   5.853
 8917POPC   GL150485   2.751  40.808   6.153
 8917POPC   GL250486   2.677  40.766   6.153
 8917POPC   C1A50487   2.718  40.751   6.453
 8917POPC   D2A50488   2.798  40.798   6.753
 8917POPC   C3A50489   2.757  40.813   7.053
 8917POPC   C4A50490   2.769  40.769   7.353
 8917POPC   C1B50491   2.511  40.847   6.453
 8917POPC   C2B50492   2.493  40.844   6.753
 8917POPC   C3B50493   2.569  40.824   7.053
 8917POPC   C4B50494   2.481  40.806   7.353
 8918POPC   NC350495   8.233  40.043   5.553
 8918POPC   PO450496   8.233  40.014   5.853
 8918POPC   GL150497   8.147  39.968   6.153
 8918POPC   GL250498   8.163  39.894   6.153
 8918POPC   C1A50499   8.232  40.007   6.453
 8918POPC   D2A50500   8.173  40.056   6.753
 8918POPC   C3A50501   8.228  39.972   7.053
 8918POPC   C4A50502   8.199  40.045   7.353
 8918POPC   C1B50503   8.200  39.765   6.453
 8918POPC   C2B50504   8.201  39.804   6.753
 8918POPC   C3B50505   8.160  39.708   7.053
 8918POPC   C4B50506   8.198  39.734   7.353
 8919POPC   NC350507  30.729  40.764   5.553
 8919POPC   PO450508  30.700  40.753   5.853
 8919POPC   GL150509  30.723  40.822   6.153
 8919POPC   GL250510  30.627  40.855   6.153
 8919POPC   C1A50511  30.669  40.827   6.453
 8919POPC   D2A50512  30.717  40.740   6.753
 8919POPC   C3A50513  30.684  40.777   7.053
 8919POPC   C4A50514  30.737  40.778   7.353
 8919POPC   C1B50515  30.452  40.843   6.453
 8919POPC   C2B50516  30.502  40.878   6.753
 8919POPC   C3B50517  30.464  40.823   7.053
 8919POPC   C4B50518  30.466  40.896   7.353
 8920POPC   NC350519  42.371  24.473   5.553
 8920POPC   PO450520  42.334  24.492   5.853
 8920POPC   GL150521  42.300  24.443   6.153
 8920POPC   GL250522  42.165  24.511   6.153
 8920POPC   C1A50523  42.320  24.506   6.453
 8920POPC   D2A50524  42.350  24.474   6.753
 8920POPC   C3A50525  42.344  24.470   7.053
 8920POPC   C4A50526  42.331  24.536   7.353
 8920POPC   C1B50527  42.091  24.476   6.453
 8920POPC   C2B50528  42.055  24.395   6.753
 8920POPC   C3B50529  42.062  24.414   7.053
 8920POPC   C4B50530  42.123  24.490   7.353
 8921POPC   NC350531  16.716  27.590   5.553
 8921POPC   PO450532  16.714  27.610   5.853
 8921POPC   GL150533  16.682  27.566   6.153
 8921POPC   GL250534  16.580  27.648   6.153
 8921POPC   C1A50535  16.703  27.609   6.453
 8921POPC   D2A50536  16.744  27.547   6.753
 8921POPC   C3A50537  16.753  27.561   7.053
 8921POPC   C4A50538  16.760  27.549   7.353
 8921POPC   C1B50539  16.478  27.587   6.453
 8921POPC   C2B50540  16.508  27.576   6.753
 8921POPC   C3B50541  16.504  27.596   7.053
 8921POPC   C4B50542  16.450  27.597   7.353
 8922POPC   NC350543  22.982   2.757   5.553
 8922POPC   PO450544  22.920   2.761   5.853
 8922POPC   GL150545  22.948   2.745   6.153
 8922POPC   GL250546  23.072   2.704   6.153
 8922POPC   C1A50547  22.913   2.784   6.453
 8922POPC   D2A50548  22.980   2.785   6.753
 8922POPC   C3A50549  22.970   2.795   7.053
 8922POPC   C4A50550  22.894   2.793   7.353
 8922POPC   C1B50551  23.153   2.706   6.453
 8922POPC   C2B50552  23.131   2.703   6.753
 8922POPC   C3B50553  23.162   2.739   7.053
 8922POPC   C4B50554  23.138   2.743   7.353
 8923POPC   NC350555  25.224  23.729   5.553
 8923POPC   PO450556  25.252  23.731   5.853
 8923POPC   GL150557  25.264  23.758   6.153
 8923POPC   GL250558  25.378  23.601   6.153
 8923POPC   C1A50559  25.307  23.716   6.453
 8923POPC   D2A50560  25.280  23.665   6.753
 8923POPC   C3A50561  25.243  23.757   7.053
 8923POPC   C4A50562  25.273  23.684   7.353
 8923POPC   C1B50563  25.482  23.576   6.453
 8923POPC   C2B50564  25.463  23.489   6.753
 8923POPC   C3B50565  25.458  23.515   7.053
 8923POPC   C4B50566  25.467  23.484   7.353
 8924POPC   NC350567   9.774  21.349   5.553
 8924POPC   PO450568   9.700  21.415   5.853
 8924POPC   GL150569   9.765  21.344   6.153
 8924POPC   GL250570   9.644  21.308   6.153
 8924POPC   C1A50571   9.728  21.410   6.453
 8924POPC   D2A50572   9.798  21.394   6.753
 8924POPC   C3A50573   9.742  21.433   7.053
 8924POPC   C4A50574   9.714  21.377   7.353
 8924POPC   C1B50575   9.675  21.196   6.453
 8924POPC   C2B50576   9.629  21.137   6.753
 8924POPC   C3B50577   9.637  21.185   7.053
 8924POPC   C4B50578   9.647  21.150   7.353
 8925POPC   NC350579  26.815  25.301   5.553
 8925POPC   PO450580  26.771  25.254   5.853
 8925POPC   GL150581  26.815  25.315   6.153
 8925POPC   GL250582  26.888  25.198   6.153
 8925POPC   C1A50583  26.865  25.250   6.453
 8925POPC   D2A50584  26.860  25.242   6.753
 8925POPC   C3A50585  26.818  25.238   7.053
 8925POPC   C4A50586  26.771  25.287   7.353
 8925POPC   C1B50587  26.987  25.063   6.453
 8925POPC   C2B50588  27.000  25.096   6.753
 8925POPC   C3B50589  26.969  25.124   7.053
 8925POPC   C4B50590  27.018  25.096   7.353
 8926POPC   NC350591   6.623  43.849   5.553
 8926POPC   PO450592   6.680  43.863   5.853
 8926POPC   GL150593   6.596  43.853   6.153
 8926POPC   GL250594   6.578  43.772   6.153
 8926POPC   C1A50595   6.657  43.902   6.453
 8926POPC   D2A50596   6.672  43.909   6.753
 8926POPC   C3A50597   6.622  43.887   7.053
 8926POPC   C4A50598   6.619  43.869   7.353
 8926POPC   C1B50599   6.609  43.630   6.453
 8926POPC   C2B50600   6.579  43.621   6.753
 8926POPC   C3B50601   6.597  43.614   7.053
 8926POPC   C4B50602   6.560  43.621   7.353
 8927POPC   NC350603  19.862  26.865   5.553
 8927POPC   PO450604  19.829  26.788   5.853
 8927POPC   GL150605  19.793  26.844   6.153
 8927POPC   GL250606  19.763  26.769   6.153
 8927POPC   C1A50607  19.867  26.833   6.453
 8927POPC   D2A50608  19.827  26.819   6.753
 8927POPC   C3A50609  19.835  26.816   7.053
 8927POPC   C4A50610  19.834  26.826   7.353
 8927POPC   C1B50611  19.597  26.671   6.453
 8927POPC   C2B50612  19.590  26.698   6.753
 8927POPC   C3B50613  19.638  26.671   7.053
 8927POPC   C4B50614  19.611  26.695   7.353
 8928POPC   NC350615  35.390  43.884   5.553
 8928POPC   PO450616  35.360  43.872   5.853
 8928POPC   GL150617  35.304  43.931   6.153
 8928POPC   GL250618  35.494  43.856   6.153
 8928POPC   C1A50619  35.359  43.903   6.453
 8928POPC   D2A50620  35.339  43.846   6.753
 8928POPC   C3A50621  35.377  43.891   7.053
 8928POPC   C4A50622  35.388  43.894   7.353
 8928POPC   C1B50623  35.588  43.890   6.453
 8928POPC   C2B50624  35.590  43.943   6.753
 8928POPC   C3B50625  35.618  43.916   7.053
 8928POPC   C4B50626  35.569  43.884   7.353
 8929POPC   NC350627  19.105   9.720   5.553
 8929POPC   PO450628  19.065   9.778   5.853
 8929POPC   GL150629  19.026   9.711   6.153
 8929POPC   GL250630  19.149   9.615   6.153
 8929POPC   C1A50631  19.101   9.757   6.453
 8929POPC   D2A50632  19.040   9.730   6.753
 8929POPC   C3A50633  19.078   9.738   7.053
 8929POPC   C4A50634  19.035   9.715   7.353
 8929POPC   C1B50635  19.240   9.602   6.453
 8929POPC   C2B50636  19.260   9.606   6.753
 8929POPC   C3B50637  19.272   9.524   7.053
 8929POPC   C4B50638  19.220   9.529   7.353
 8930POPC   NC350639  40.007  28.370   5.553
 8930POPC   PO450640  40.055  28.385   5.853
 8930POPC   GL150641  39.982  28.373   6.153
 8930POPC   GL250642  40.127  28.493   6.153
 8930POPC   C1A50643  39.973  28.335   6.453
 8930POPC   D2A50644  40.025  28.379   6.753
 8930POPC   C3A50645  40.017  28.331   7.053
 8930POPC   C4A50646  39.990  28.353   7.353
 8930POPC   C1B50647  40.211  28.564   6.453
 8930POPC   C2B50648  40.180  28.528   6.753
 8930POPC   C3B50649  40.227  28.502   7.053
 8930POPC   C4B50650  40.175  28.522   7.353
 8931POPC   NC350651   4.310   7.378   5.553
 8931POPC   PO450652   4.313   7.453   5.853
 8931POPC   GL150653   4.292   7.464   6.153
 8931POPC   GL250654   4.216   7.539   6.153
 8931POPC   C1A50655   4.353   7.418   6.453
 8931POPC   D2A50656   4.302   7.452   6.753
 8931POPC   C3A50657   4.365   7.457   7.053
 8931POPC   C4A50658   4.317   7.446   7.353
 8931POPC   C1B50659   4.235   7.607   6.453
 8931POPC   C2B50660   4.196   7.615   6.753
 8931POPC   C3B50661   4.208   7.661   7.053
 8931POPC   C4B50662   4.141   7.599   7.353
 8932POPC   NC350663  19.834  20.652   5.553
 8932POPC   PO450664  19.825  20.615   5.853
 8932POPC   GL150665  19.785  20.623   6.153
 8932POPC   GL250666  19.765  20.725   6.153
 8932POPC   C1A50667  19.876  20.601   6.453
 8932POPC   D2A50668  19.867  20.624   6.753
 8932POPC   C3A50669  19.793  20.590   7.053
 8932POPC   C4A50670  19.818  20.567   7.353
 8932POPC   C1B50671  19.825  20.847   6.453
 8932POPC   C2B50672  19.829  20.831   6.753
 8932POPC   C3B50673  19.770  20.823   7.053
 8932POPC   C4B50674  19.792  20.862   7.353
 8933POPC   NC350675   5.055   5.820   5.553
 8933POPC   PO450676   5.110   5.830   5.853
 8933POPC   GL150677   5.122   5.855   6.153
 8933POPC   GL250678   5.212   5.732   6.153
 8933POPC   C1A50679   5.078   5.855   6.453
 8933POPC   D2A50680   5.114   5.891   6.753
 8933POPC   C3A50681   5.067   5.822   7.053
 8933POPC   C4A50682   5.118   5.886   7.353
 8933POPC   C1B50683   5.226   5.657   6.453
 8933POPC   C2B50684   5.247   5.691   6.753
 8933POPC   C3B50685   5.299   5.694   7.053
 8933POPC   C4B50686   5.230   5.646   7.353
 8934POPC   NC350687  20.597  43.862   5.553
 8934POPC   PO450688  20.621  43.853   5.853
 8934POPC   GL150689  20.575  43.861   6.153
 8934POPC   GL250690  20.756  43.812   6.153
 8934POPC   C1A50691  20.576  43.848   6.453
 8934POPC   D2A50692  20.609  43.855   6.753
 8934POPC   C3A50693  20.650  43.904   7.053
 8934POPC   C4A50694  20.629  43.902   7.353
 8934POPC   C1B50695  20.885  43.769   6.453
 8934POPC   C2B50696  20.881  43.760   6.753
 8934POPC   C3B50697  20.801  43.760   7.053
 8934POPC   C4B50698  20.824  43.811   7.353
 8935POPC   NC350699  37.685   1.226   5.553
 8935POPC   PO450700  37.670   1.209   5.853
 8935POPC   GL150701  37.663   1.201   6.153
 8935POPC   GL250702  37.670   1.123   6.153
 8935POPC   C1A50703  37.686   1.171   6.453
 8935POPC   D2A50704  37.727   1.229   6.753
 8935POPC   C3A50705  37.697   1.201   7.053
 8935POPC   C4A50706  37.675   1.222   7.353
 8935POPC   C1B50707  37.710   0.950   6.453
 8935POPC   C2B50708  37.691   0.974   6.753
 8935POPC   C3B50709  37.697   0.954   7.053
 8935POPC   C4B50710  37.737   0.988   7.353
 8936POPC   NC350711   8.164  13.631   5.553
 8936POPC   PO450712   8.225  13.650   5.853
 8936POPC   GL150713   8.153  13.606   6.153
 8936POPC   GL250714   8.305  13.637   6.153
 8936POPC   C1A50715   8.177  13.675   6.453
 8936POPC   D2A50716   8.187  13.651   6.753
 8936POPC   C3A50717   8.220  13.667   7.053
 8936POPC   C4A50718   8.174  13.654   7.353
 8936POPC   C1B50719   8.466  13.648   6.453
 8936POPC   C2B50720   8.438  13.632   6.753
 8936POPC   C3B50721   8.455  13.665   7.053
 8936POPC   C4B50722   8.429  13.625   7.353
 8937POPC   NC350723  33.040  15.159   5.553
 8937POPC   PO450724  33.041  15.132   5.853
 8937POPC   GL150725  33.002  15.130   6.153
 8937POPC   GL250726  33.090  15.296   6.153
 8937POPC   C1A50727  32.985  15.171   6.453
 8937POPC   D2A50728  33.011  15.181   6.753
 8937POPC   C3A50729  33.055  15.200   7.053
 8937POPC   C4A50730  33.065  15.173   7.353
 8937POPC   C1B50731  33.106  15.404   6.453
 8937POPC   C2B50732  33.088  15.422   6.753
 8937POPC   C3B50733  33.102  15.433   7.053
 8937POPC   C4B50734  33.055  15.449   7.353
 8938POPC   NC350735  31.464  14.419   5.553
 8938POPC   PO450736  31.472  14.440   5.853
 8938POPC   GL150737  31.476  14.416   6.153
 8938POPC   GL250738  31.402  14.322   6.153
 8938POPC   C1A50739  31.473  14.435   6.453
 8938POPC   D2A50740  31.437  14.402   6.753
 8938POPC   C3A50741  31.488  14.370   7.053
 8938POPC   C4A50742  31.509  14.366   7.353
 8938POPC   C1B50743  31.237  14.288   6.453
 8938POPC   C2B50744  31.294  14.285   6.753
 8938POPC   C3B50745  31.236  14.221   7.053
 8938POPC   C4B50746  31.309  14.242   7.353
 8939POPC   NC350747  12.100  40.001   5.553
 8939POPC   PO450748  12.065  39.990   5.853
 8939POPC   GL150749  12.090  40.008   6.153
 8939POPC   GL250750  12.145  39.869   6.153
 8939POPC   C1A50751  12.114  39.968   6.453
 8939POPC   D2A50752  12.073  40.035   6.753
 8939POPC   C3A50753  12.095  40.012   7.053
 8939POPC   C4A50754  12.115  39.963   7.353
 8939POPC   C1B50755  12.141  39.772   6.453
 8939POPC   C2B50756  12.204  39.795   6.753
 8939POPC   C3B50757  12.200  39.746   7.053
 8939POPC   C4B50758  12.139  39.775   7.353
 8940POPC   NC350759   7.398   8.193   5.553
 8940POPC   PO450760   7.463   8.243   5.853
 8940POPC   GL150761   7.406   8.177   6.153
 8940POPC   GL250762   7.333   8.294   6.153
 8940POPC   C1A50763   7.448   8.218   6.453
 8940POPC   D2A50764   7.391   8.196   6.753
 8940POPC   C3A50765   7.386   8.167   7.053
 8940POPC   C4A50766   7.385   8.159   7.353
 8940POPC   C1B50767   7.186   8.313   6.453
 8940POPC   C2B50768   7.242   8.330   6.753
 8940POPC   C3B50769   7.267   8.358   7.053
 8940POPC   C4B50770   7.200   8.316   7.353
 8941POPC   NC350771  14.423  20.589   5.553
 8941POPC   PO450772  14.394  20.649   5.853
 8941POPC   GL150773  14.412  20.572   6.153
 8941POPC   GL250774  14.532  20.698   6.153
 8941POPC   C1A50775  14.411  20.644   6.453
 8941POPC   D2A50776  14.427  20.657   6.753
 8941POPC   C3A50777  14.392  20.586   7.053
 8941POPC   C4A50778  14.362  20.626   7.353
 8941POPC   C1B50779  14.688  20.650   6.453
 8941POPC   C2B50780  14.612  20.732   6.753
 8941POPC   C3B50781  14.684  20.654   7.053
 8941POPC   C4B50782  14.665  20.676   7.353
 8942POPC   NC350783  34.528  36.929   5.553
 8942POPC   PO450784  34.555  36.865   5.853
 8942POPC   GL150785  34.619  36.884   6.153
 8942POPC   GL250786  34.610  36.979   6.153
 8942POPC   C1A50787  34.534  36.953   6.453
 8942POPC   D2A50788  34.531  36.926   6.753
 8942POPC   C3A50789  34.538  36.913   7.053
 8942POPC   C4A50790  34.550  36.862   7.353
 8942POPC   C1B50791  34.682  37.158   6.453
 8942POPC   C2B50792  34.709  37.109   6.753
 8942POPC   C3B50793  34.725  37.143   7.053
 8942POPC   C4B50794  34.740  37.122   7.353
 8943POPC   NC350795  23.682  12.808   5.553
 8943POPC   PO450796  23.676  12.823   5.853
 8943POPC   GL150797  23.686  12.893   6.153
 8943POPC   GL250798  23.626  12.897   6.153
 8943POPC   C1A50799  23.707  12.884   6.453
 8943POPC   D2A50800  23.741  12.826   6.753
 8943POPC   C3A50801  23.717  12.835   7.053
 8943POPC   C4A50802  23.668  12.869   7.353
 8943POPC   C1B50803  23.451  13.013   6.453
 8943POPC   C2B50804  23.458  12.993   6.753
 8943POPC   C3B50805  23.478  12.942   7.053
 8943POPC   C4B50806  23.458  12.981   7.353
 8944POPC   NC350807   1.244   7.417   5.553
 8944POPC   PO450808   1.235   7.415   5.853
 8944POPC   GL150809   1.170   7.396   6.153
 8944POPC   GL250810   1.342   7.500   6.153
 8944POPC   C1A50811   1.228   7.434   6.453
 8944POPC   D2A50812   1.191   7.387   6.753
 8944POPC   C3A50813   1.260   7.375   7.053
 8944POPC   C4A50814   1.195   7.464   7.353
 8944POPC   C1B50815   1.413   7.545   6.453
 8944POPC   C2B50816   1.417   7.525   6.753
 8944POPC   C3B50817   1.481   7.498   7.053
 8944POPC   C4B50818   1.481   7.472   7.353
 8945POPC   NC350819  37.662   2.026   5.553
 8945POPC   PO450820  37.666   1.971   5.853
 8945POPC   GL150821  37.693   2.017   6.153
 8945POPC   GL250822  37.739   1.897   6.153
 8945POPC   C1A50823  37.646   2.032   6.453
 8945POPC   D2A50824  37.653   1.991   6.753
 8945POPC   C3A50825  37.655   1.996   7.053
 8945POPC   C4A50826  37.720   1.989   7.353
 8945POPC   C1B50827  37.923   1.853   6.453
 8945POPC   C2B50828  37.897   1.875   6.753
 8945POPC   C3B50829  37.890   1.856   7.053
 8945POPC   C4B50830  37.839   1.862   7.353
 8946POPC   NC350831  44.671   4.290   5.553
 8946POPC   PO450832  44.673   4.296   5.853
 8946POPC   GL150833  44.655   4.344   6.153
 8946POPC   GL250834  44.571   4.464   6.153
 8946POPC   C1A50835  44.664   4.322   6.453
 8946POPC   D2A50836  44.628   4.282   6.753
 8946POPC   C3A50837  44.671   4.316   7.053
 8946POPC   C4A50838  44.615   4.280   7.353
 8946POPC   C1B50839  44.507   4.576   6.453
 8946POPC   C2B50840  44.532   4.499   6.753
 8946POPC   C3B50841  44.494   4.552   7.053
 8946POPC   C4B50842  44.522   4.573   7.353
 8947POPC   NC350843  44.700  18.310   5.553
 8947POPC   PO450844  44.617  18.319   5.853
 8947POPC   GL150845  44.642  18.319   6.153
 8947POPC   GL250846  44.552  18.267   6.153
 8947POPC   C1A50847  44.621  18.251   6.453
 8947POPC   D2A50848  44.681  18.320   6.753
 8947POPC   C3A50849  44.655  18.314   7.053
 8947POPC   C4A50850  44.653  18.243   7.353
 8947POPC   C1B50851  44.465  18.191   6.453
 8947POPC   C2B50852  44.413  18.153   6.753
 8947POPC   C3B50853  44.419  18.221   7.053
 8947POPC   C4B50854  44.453  18.155   7.353
 8948POPC   NC350855  30.681   1.217   5.553
 8948POPC   PO450856  30.666   1.262   5.853
 8948POPC   GL150857  30.732   1.180   6.153
 8948POPC   GL250858  30.563   1.318   6.153
 8948POPC   C1A50859  30.695   1.234   6.453
 8948POPC   D2A50860  30.689   1.227   6.753
 8948POPC   C3A50861  30.743   1.182   7.053
 8948POPC   C4A50862  30.656   1.238   7.353
 8948POPC   C1B50863  30.551   1.384   6.453
 8948POPC   C2B50864  30.550   1.337   6.753
 8948POPC   C3B50865  30.538   1.369   7.053
 8948POPC   C4B50866  30.470   1.339   7.353
 8949POPC   NC350867   1.965  27.619   5.553
 8949POPC   PO450868   1.996  27.567   5.853
 8949POPC   GL150869   1.963  27.602   6.153
 8949POPC   GL250870   1.832  27.619   6.153
 8949POPC   C1A50871   1.942  27.562   6.453
 8949POPC   D2A50872   2.026  27.629   6.753
 8949POPC   C3A50873   2.002  27.642   7.053
 8949POPC   C4A50874   1.996  27.575   7.353
 8949POPC   C1B50875   1.708  27.613   6.453
 8949POPC   C2B50876   1.782  27.565   6.753
 8949POPC   C3B50877   1.737  27.626   7.053
 8949POPC   C4B50878   1.787  27.562   7.353
 8950POPC   NC350879  28.340  16.711   5.553
 8950POPC   PO450880  28.341  16.684   5.853
 8950POPC   GL150881  28.418  16.724   6.153
 8950POPC   GL250882  28.266  16.795   6.153
 8950POPC   C1A50883  28.386  16.695   6.453
 8950POPC   D2A50884  28.343  16.682   6.753
 8950POPC   C3A50885  28.348  16.762   7.053
 8950POPC   C4A50886  28.405  16.695   7.353
 8950POPC   C1B50887  28.148  16.856   6.453
 8950POPC   C2B50888  28.140  16.807   6.753
 8950POPC   C3B50889  28.134  16.798   7.053
 8950POPC   C4B50890  28.155  16.780   7.353
 8951POPC   NC350891  14.419  11.304   5.553
 8951POPC   PO450892  14.413  11.328   5.853
 8951POPC   GL150893  14.388  11.300   6.153
 8951POPC   GL250894  14.487  11.367   6.153
 8951POPC   C1A50895  14.391  11.299   6.453
 8951POPC   D2A50896  14.388  11.346   6.753
 8951POPC   C3A50897  14.383  11.261   7.053
 8951POPC   C4A50898  14.429  11.286   7.353
 8951POPC   C1B50899  14.516  11.538   6.453
 8951POPC   C2B50900  14.538  11.445   6.753
 8951POPC   C3B50901  14.600  11.529   7.053
 8951POPC   C4B50902  14.609  11.448   7.353
 8952POPC   NC350903   3.581  22.164   5.553
 8952POPC   PO450904   3.499  22.208   5.853
 8952POPC   GL150905   3.499  22.205   6.153
 8952POPC   GL250906   3.453  22.292   6.153
 8952POPC   C1A50907   3.555  22.197   6.453
 8952POPC   D2A50908   3.499  22.192   6.753
 8952POPC   C3A50909   3.563  22.193   7.053
 8952POPC   C4A50910   3.557  22.133   7.353
 8952POPC   C1B50911   3.430  22.431   6.453
 8952POPC   C2B50912   3.431  22.362   6.753
 8952POPC   C3B50913   3.493  22.435   7.053
 8952POPC   C4B50914   3.420  22.402   7.353
 8953POPC   NC350915  41.585  39.990   5.553
 8953POPC   PO450916  41.606  40.048   5.853
 8953POPC   GL150917  41.525  40.018   6.153
 8953POPC   GL250918  41.515  39.875   6.153
 8953POPC   C1A50919  41.580  39.992   6.453
 8953POPC   D2A50920  41.578  40.009   6.753
 8953POPC   C3A50921  41.590  39.984   7.053
 8953POPC   C4A50922  41.528  39.990   7.353
 8953POPC   C1B50923  41.412  39.860   6.453
 8953POPC   C2B50924  41.347  39.783   6.753
 8953POPC   C3B50925  41.409  39.786   7.053
 8953POPC   C4B50926  41.396  39.789   7.353
 8954POPC   NC350927  36.887  10.479   5.553
 8954POPC   PO450928  36.875  10.538   5.853
 8954POPC   GL150929  36.947  10.515   6.153
 8954POPC   GL250930  37.074  10.501   6.153
 8954POPC   C1A50931  36.946  10.496   6.453
 8954POPC   D2A50932  36.870  10.523   6.753
 8954POPC   C3A50933  36.899  10.477   7.053
 8954POPC   C4A50934  36.895  10.529   7.353
 8954POPC   C1B50935  37.118  10.572   6.453
 8954POPC   C2B50936  37.121  10.585   6.753
 8954POPC   C3B50937  37.184  10.568   7.053
 8954POPC   C4B50938  37.142  10.565   7.353
 8955POPC   NC350939  20.632  22.125   5.553
 8955POPC   PO450940  20.612  22.151   5.853
 8955POPC   GL150941  20.611  22.135   6.153
 8955POPC   GL250942  20.496  22.114   6.153
 8955POPC   C1A50943  20.569  22.117   6.453
 8955POPC   D2A50944  20.561  22.128   6.753
 8955POPC   C3A50945  20.580  22.130   7.053
 8955POPC   C4A50946  20.578  22.167   7.353
 8955POPC   C1B50947  20.382  22.092   6.453
 8955POPC   C2B50948  20.334  22.071   6.753
 8955POPC   C3B50949  20.387  22.057   7.053
 8955POPC   C4B50950  20.424  22.055   7.353
 8956POPC   NC350951   7.410  39.241   5.553
 8956POPC   PO450952   7.423  39.241   5.853
 8956POPC   GL150953   7.379  39.279   6.153
 8956POPC   GL250954   7.511  39.342   6.153
 8956POPC   C1A50955   7.471  39.274   6.453
 8956POPC   D2A50956   7.423  39.226   6.753
 8956POPC   C3A50957   7.384  39.237   7.053
 8956POPC   C4A50958   7.459  39.234   7.353
 8956POPC   C1B50959   7.579  39.372   6.453
 8956POPC   C2B50960   7.594  39.394   6.753
 8956POPC   C3B50961   7.586  39.349   7.053
 8956POPC   C4B50962   7.594  39.378   7.353
 8957POPC   NC350963   9.726  39.963   5.553
 8957POPC   PO450964   9.702  40.041   5.853
 8957POPC   GL150965   9.770  40.043   6.153
 8957POPC   GL250966   9.677  40.166   6.153
 8957POPC   C1A50967   9.795  39.972   6.453
 8957POPC   D2A50968   9.703  39.971   6.753
 8957POPC   C3A50969   9.767  39.985   7.053
 8957POPC   C4A50970   9.699  39.965   7.353
 8957POPC   C1B50971   9.677  40.275   6.453
 8957POPC   C2B50972   9.745  40.283   6.753
 8957POPC   C3B50973   9.696  40.266   7.053
 8957POPC   C4B50974   9.729  40.255   7.353
 8958POPC   NC350975   3.533  19.053   5.553
 8958POPC   PO450976   3.591  19.019   5.853
 8958POPC   GL150977   3.570  19.038   6.153
 8958POPC   GL250978   3.412  18.988   6.153
 8958POPC   C1A50979   3.562  19.043   6.453
 8958POPC   D2A50980   3.567  19.076   6.753
 8958POPC   C3A50981   3.543  19.039   7.053
 8958POPC   C4A50982   3.574  19.073   7.353
 8958POPC   C1B50983   3.287  18.904   6.453
 8958POPC   C2B50984   3.360  18.948   6.753
 8958POPC   C3B50985   3.276  18.936   7.053
 8958POPC   C4B50986   3.283  18.967   7.353
 8959POPC   NC350987  33.823   2.793   5.553
 8959POPC   PO450988  33.788   2.758   5.853
 8959POPC   GL150989  33.755   2.745   6.153
 8959POPC   GL250990  33.769   2.650   6.153
 8959POPC   C1A50991  33.762   2.776   6.453
 8959POPC   D2A50992  33.837   2.774   6.753
 8959POPC   C3A50993  33.791   2.740   7.053
 8959POPC   C4A50994  33.837   2.753   7.353
 8959POPC   C1B50995  33.615   2.538   6.453
 8959POPC   C2B50996  33.623   2.602   6.753
 8959POPC   C3B50997  33.630   2.544   7.053
 8959POPC   C4B50998  33.599   2.598   7.353
 8960POPC   NC350999  27.607   0.483   5.553
 8960POPC   PO451000  27.556   0.421   5.853
 8960POPC   GL151001  27.567   0.401   6.153
 8960POPC   GL251002  27.507   0.371   6.153
 8960POPC   C1A51003  27.582   0.425   6.453
 8960POPC   D2A51004  27.633   0.463   6.753
 8960POPC   C3A51005  27.632   0.449   7.053
 8960POPC   C4A51006  27.575   0.461   7.353
 8960POPC   C1B51007  27.376   0.376   6.453
 8960POPC   C2B51008  27.348   0.355   6.753
 8960POPC   C3B51009  27.385   0.298   7.053
 8960POPC   C4B51010  27.361   0.286   7.353
 8961POPC   NC351011  32.237  37.708   5.553
 8961POPC   PO451012  32.272  37.693   5.853
 8961POPC   GL151013  32.284  37.663   6.153
 8961POPC   GL251014  32.096  37.719   6.153
 8961POPC   C1A51015  32.239  37.671   6.453
 8961POPC   D2A51016  32.210  37.678   6.753
 8961POPC   C3A51017  32.219  37.722   7.053
 8961POPC   C4A51018  32.250  37.640   7.353
 8961POPC   C1B51019  31.997  37.725   6.453
 8961POPC   C2B51020  31.955  37.654   6.753
 8961POPC   C3B51021  32.011  37.681   7.053
 8961POPC   C4B51022  31.988  37.654   7.353
 8962POPC   NC351023  14.385   8.990   5.553
 8962POPC   PO451024  14.380   8.932   5.853
 8962POPC   GL151025  14.360   9.003   6.153
 8962POPC   GL251026  14.364   8.876   6.153
 8962POPC   C1A51027  14.357   8.959   6.453
 8962POPC   D2A51028  14.426   8.974   6.753
 8962POPC   C3A51029  14.421   8.962   7.053
 8962POPC   C4A51030  14.359   8.971   7.353
 8962POPC   C1B51031  14.205   8.749   6.453
 8962POPC   C2B51032  14.212   8.839   6.753
 8962POPC   C3B51033  14.206   8.828   7.053
 8962POPC   C4B51034  14.248   8.786   7.353
 8963POPC   NC351035  10.553  35.371   5.553
 8963POPC   PO451036  10.479  35.362   5.853
 8963POPC   GL151037  10.484  35.302   6.153
 8963POPC   GL251038  10.513  35.481   6.153
 8963POPC   C1A51039  10.527  35.328   6.453
 8963POPC   D2A51040  10.533  35.374   6.753
 8963POPC   C3A51041  10.528  35.342   7.053
 8963POPC   C4A51042  10.570  35.358   7.353
 8963POPC   C1B51043  10.515  35.567   6.453
 8963POPC   C2B51044  10.577  35.616   6.753
 8963POPC   C3B51045  10.553  35.624   7.053
 8963POPC   C4B51046  10.540  35.571   7.353
 8964POPC   NC351047   8.239   6.659   5.553
 8964POPC   PO451048   8.238   6.694   5.853
 8964POPC   GL151049   8.243   6.685   6.153
 8964POPC   GL251050   8.082   6.587   6.153
 8964POPC   C1A51051   8.158   6.679   6.453
 8964POPC   D2A51052   8.221   6.647   6.753
 8964POPC   C3A51053   8.159   6.615   7.053
 8964POPC   C4A51054   8.217   6.615   7.353
 8964POPC   C1B51055   8.033   6.484   6.453
 8964POPC   C2B51056   7.970   6.517   6.753
 8964POPC   C3B51057   8.043   6.442   7.053
 8964POPC   C4B51058   8.048   6.434   7.353
 8965POPC   NC351059  25.274   1.943   5.553
 8965POPC   PO451060  25.264   2.032   5.853
 8965POPC   GL151061  25.229   2.029   6.153
 8965POPC   GL251062  25.375   2.053   6.153
 8965POPC   C1A51063  25.243   2.039   6.453
 8965POPC   D2A51064  25.222   1.999   6.753
 8965POPC   C3A51065  25.248   1.969   7.053
 8965POPC   C4A51066  25.283   2.005   7.353
 8965POPC   C1B51067  25.485   2.131   6.453
 8965POPC   C2B51068  25.455   2.168   6.753
 8965POPC   C3B51069  25.485   2.137   7.053
 8965POPC   C4B51070  25.474   2.208   7.353
 8966POPC   NC351071  30.649  33.756   5.553
 8966POPC   PO451072  30.708  33.833   5.853
 8966POPC   GL151073  30.649  33.805   6.153
 8966POPC   GL251074  30.792  33.873   6.153
 8966POPC   C1A51075  30.732  33.778   6.453
 8966POPC   D2A51076  30.695  33.830   6.753
 8966POPC   C3A51077  30.686  33.824   7.053
 8966POPC   C4A51078  30.723  33.803   7.353
 8966POPC   C1B51079  30.886  33.890   6.453
 8966POPC   C2B51080  30.909  33.951   6.753
 8966POPC   C3B51081  30.911  33.878   7.053
 8966POPC   C4B51082  30.960  33.928   7.353
 8967POPC   NC351083  42.337  21.341   5.553
 8967POPC   PO451084  42.296  21.357   5.853
 8967POPC   GL151085  42.296  21.362   6.153
 8967POPC   GL251086  42.195  21.277   6.153
 8967POPC   C1A51087  42.345  21.424   6.453
 8967POPC   D2A51088  42.298  21.404   6.753
 8967POPC   C3A51089  42.306  21.345   7.053
 8967POPC   C4A51090  42.353  21.371   7.353
 8967POPC   C1B51091  42.162  21.211   6.453
 8967POPC   C2B51092  42.129  21.261   6.753
 8967POPC   C3B51093  42.103  21.265   7.053
 8967POPC   C4B51094  42.119  21.232   7.353
 8968POPC   NC351095  29.933  10.495   5.553
 8968POPC   PO451096  29.873  10.547   5.853
 8968POPC   GL151097  29.932  10.547   6.153
 8968POPC   GL251098  29.890  10.435   6.153
 8968POPC   C1A51099  29.913  10.503   6.453
 8968POPC   D2A51100  29.884  10.573   6.753
 8968POPC   C3A51101  29.950  10.567   7.053
 8968POPC   C4A51102  29.882  10.531   7.353
 8968POPC   C1B51103  29.931  10.233   6.453
 8968POPC   C2B51104  29.909  10.272   6.753
 8968POPC   C3B51105  29.926  10.228   7.053
 8968POPC   C4B51106  29.884  10.291   7.353
 8969POPC   NC351107  26.078  10.499   5.553
 8969POPC   PO451108  26.064  10.489   5.853
 8969POPC   GL151109  26.069  10.538   6.153
 8969POPC   GL251110  26.098  10.671   6.153
 8969POPC   C1A51111  26.061  10.543   6.453
 8969POPC   D2A51112  26.084  10.524   6.753
 8969POPC   C3A51113  26.023  10.483   7.053
 8969POPC   C4A51114  26.089  10.565   7.353
 8969POPC   C1B51115  26.037  10.761   6.453
 8969POPC   C2B51116  26.046  10.755   6.753
 8969POPC   C3B51117  26.010  10.725   7.053
 8969POPC   C4B51118  26.037  10.730   7.353
 8970POPC   NC351119  24.446  14.441   5.553
 8970POPC   PO451120  24.508  14.380   5.853
 8970POPC   GL151121  24.457  14.401   6.153
 8970POPC   GL251122  24.477  14.483   6.153
 8970POPC   C1A51123  24.451  14.388   6.453
 8970POPC   D2A51124  24.504  14.360   6.753
 8970POPC   C3A51125  24.490  14.437   7.053
 8970POPC   C4A51126  24.516  14.405   7.353
 8970POPC   C1B51127  24.347  14.653   6.453
 8970POPC   C2B51128  24.404  14.577   6.753
 8970POPC   C3B51129  24.351  14.637   7.053
 8970POPC   C4B51130  24.405  14.622   7.353
 8971POPC   NC351131  32.216  19.854   5.553
 8971POPC   PO451132  32.288  19.799   5.853
 8971POPC   GL151133  32.238  19.838   6.153
 8971POPC   GL251134  32.192  19.970   6.153
 8971POPC   C1A51135  32.254  19.806   6.453
 8971POPC   D2A51136  32.262  19.877   6.753
 8971POPC   C3A51137  32.222  19.811   7.053
 8971POPC   C4A51138  32.253  19.851   7.353
 8971POPC   C1B51139  32.133  20.036   6.453
 8971POPC   C2B51140  32.128  19.994   6.753
 8971POPC   C3B51141  32.065  20.060   7.053
 8971POPC   C4B51142  32.079  20.055   7.353
 8972POPC   NC351143  34.571  12.896   5.553
 8972POPC   PO451144  34.613  12.871   5.853
 8972POPC   GL151145  34.597  12.851   6.153
 8972POPC   GL251146  34.487  12.803   6.153
 8972POPC   C1A51147  34.618  12.834   6.453
 8972POPC   D2A51148  34.562  12.878   6.753
 8972POPC   C3A51149  34.603  12.856   7.053
 8972POPC   C4A51150  34.535  12.887   7.353
 8972POPC   C1B51151  34.335  12.786   6.453
 8972POPC   C2B51152  34.312  12.746   6.753
 8972POPC   C3B51153  34.333  12.780   7.053
 8972POPC   C4B51154  34.335  12.748   7.353
 8973POPC   NC351155  39.255  12.122   5.553
 8973POPC   PO451156  39.256  12.088   5.853
 8973POPC   GL151157  39.250  12.120   6.153
 8973POPC   GL251158  39.319  12.014   6.153
 8973POPC   C1A51159  39.183  12.088   6.453
 8973POPC   D2A51160  39.198  12.035   6.753
 8973POPC   C3A51161  39.273  12.042   7.053
 8973POPC   C4A51162  39.203  12.099   7.353
 8973POPC   C1B51163  39.351  11.865   6.453
 8973POPC   C2B51164  39.401  11.824   6.753
 8973POPC   C3B51165  39.305  11.888   7.053
 8973POPC   C4B51166  39.394  11.888   7.353
 8974POPC   NC351167  19.837   3.513   5.553
 8974POPC   PO451168  19.850   3.492   5.853
 8974POPC   GL151169  19.871   3.512   6.153
 8974POPC   GL251170  19.978   3.464   6.153
 8974POPC   C1A51171  19.860   3.557   6.453
 8974POPC   D2A51172  19.818   3.504   6.753
 8974POPC   C3A51173  19.848   3.578   7.053
 8974POPC   C4A51174  19.826   3.582   7.353
 8974POPC   C1B51175  20.073   3.411   6.453
 8974POPC   C2B51176  19.988   3.427   6.753
 8974POPC   C3B51177  20.044   3.386   7.053
 8974POPC   C4B51178  19.993   3.335   7.353
 8975POPC   NC351179  11.328  13.643   5.553
 8975POPC   PO451180  11.299  13.644   5.853
 8975POPC   GL151181  11.346  13.599   6.153
 8975POPC   GL251182  11.332  13.720   6.153
 8975POPC   C1A51183  11.277  13.607   6.453
 8975POPC   D2A51184  11.312  13.583   6.753
 8975POPC   C3A51185  11.309  13.628   7.053
 8975POPC   C4A51186  11.257  13.581   7.353
 8975POPC   C1B51187  11.430  13.877   6.453
 8975POPC   C2B51188  11.429  13.845   6.753
 8975POPC   C3B51189  11.446  13.855   7.053
 8975POPC   C4B51190  11.420  13.854   7.353
 8976POPC   NC351191  12.884  13.643   5.553
 8976POPC   PO451192  12.840  13.625   5.853
 8976POPC   GL151193  12.898  13.650   6.153
 8976POPC   GL251194  12.960  13.668   6.153
 8976POPC   C1A51195  12.854  13.591   6.453
 8976POPC   D2A51196  12.832  13.656   6.753
 8976POPC   C3A51197  12.884  13.672   7.053
 8976POPC   C4A51198  12.805  13.597   7.353
 8976POPC   C1B51199  13.107  13.718   6.453
 8976POPC   C2B51200  13.088  13.734   6.753
 8976POPC   C3B51201  13.035  13.763   7.053
 8976POPC   C4B51202  13.082  13.790   7.353
 8977POPC   NC351203  27.570  20.659   5.553
 8977POPC   PO451204  27.623  20.620   5.853
 8977POPC   GL151205  27.552  20.620   6.153
 8977POPC   GL251206  27.675  20.542   6.153
 8977POPC   C1A51207  27.551  20.583   6.453
 8977POPC   D2A51208  27.578  20.611   6.753
 8977POPC   C3A51209  27.579  20.620   7.053
 8977POPC   C4A51210  27.578  20.607   7.353
 8977POPC   C1B51211  27.730  20.367   6.453
 8977POPC   C2B51212  27.732  20.332   6.753
 8977POPC   C3B51213  27.654  20.355   7.053
 8977POPC   C4B51214  27.662  20.415   7.353
 8978POPC   NC351215   9.762  29.918   5.553
 8978POPC   PO451216   9.769  29.883   5.853
 8978POPC   GL151217   9.796  29.899   6.153
 8978POPC   GL251218   9.789  30.017   6.153
 8978POPC   C1A51219   9.798  29.888   6.453
 8978POPC   D2A51220   9.754  29.969   6.753
 8978POPC   C3A51221   9.750  29.920   7.053
 8978POPC   C4A51222   9.791  29.967   7.353
 8978POPC   C1B51223   9.913  30.098   6.453
 8978POPC   C2B51224   9.920  30.124   6.753
 8978POPC   C3B51225   9.922  30.161   7.053
 8978POPC   C4B51226   9.852  30.101   7.353
 8979POPC   NC351227  34.556  24.444   5.553
 8979POPC   PO451228  34.619  24.453   5.853
 8979POPC   GL151229  34.574  24.531   6.153
 8979POPC   GL251230  34.541  24.375   6.153
 8979POPC   C1A51231  34.544  24.525   6.453
 8979POPC   D2A51232  34.610  24.457   6.753
 8979POPC   C3A51233  34.590  24.485   7.053
 8979POPC   C4A51234  34.550  24.513   7.353
 8979POPC   C1B51235  34.548  24.217   6.453
 8979POPC   C2B51236  34.523  24.238   6.753
 8979POPC   C3B51237  34.601  24.272   7.053
 8979POPC   C4B51238  34.610  24.235   7.353
 8980POPC   NC351239  22.130   3.522   5.553
 8980POPC   PO451240  22.157   3.538   5.853
 8980POPC   GL151241  22.158   3.515   6.153
 8980POPC   GL251242  22.092   3.464   6.153
 8980POPC   C1A51243  22.155   3.512   6.453
 8980POPC   D2A51244  22.193   3.586   6.753
 8980POPC   C3A51245  22.192   3.589   7.053
 8980POPC   C4A51246  22.156   3.582   7.353
 8980POPC   C1B51247  22.062   3.325   6.453
 8980POPC   C2B51248  21.995   3.379   6.753
 8980POPC   C3B51249  21.974   3.329   7.053
 8980POPC   C4B51250  21.979   3.356   7.353
 8981POPC   NC351251  23.757  11.311   5.553
 8981POPC   PO451252  23.761  11.321   5.853
 8981POPC   GL151253  23.741  11.317   6.153
 8981POPC   GL251254  23.630  11.374   6.153
 8981POPC   C1A51255  23.695  11.328   6.453
 8981POPC   D2A51256  23.677  11.255   6.753
 8981POPC   C3A51257  23.714  11.349   7.053
 8981POPC   C4A51258  23.725  11.344   7.353
 8981POPC   C1B51259  23.504  11.430   6.453
 8981POPC   C2B51260  23.518  11.473   6.753
 8981POPC   C3B51261  23.519  11.459   7.053
 8981POPC   C4B51262  23.569  11.462   7.353
 8982POPC   NC351263  20.582  26.062   5.553
 8982POPC   PO451264  20.603  26.047   5.853
 8982POPC   GL151265  20.593  26.073   6.153
 8982POPC   GL251266  20.719  26.004   6.153
 8982POPC   C1A51267  20.616  26.049   6.453
 8982POPC   D2A51268  20.618  26.003   6.753
 8982POPC   C3A51269  20.561  26.034   7.053
 8982POPC   C4A51270  20.613  26.082   7.353
 8982POPC   C1B51271  20.806  25.890   6.453
 8982POPC   C2B51272  20.857  25.942   6.753
 8982POPC   C3B51273  20.785  25.889   7.053
 8982POPC   C4B51274  20.841  25.930   7.353
 8983POPC   NC351275  31.517   8.195   5.553
 8983POPC   PO451276  31.469   8.198   5.853
 8983POPC   GL151277  31.481   8.221   6.153
 8983POPC   GL251278  31.628   8.195   6.153
 8983POPC   C1A51279  31.439   8.187   6.453
 8983POPC   D2A51280  31.462   8.237   6.753
 8983POPC   C3A51281  31.519   8.151   7.053
 8983POPC   C4A51282  31.516   8.245   7.353
 8983POPC   C1B51283  31.741   8.258   6.453
 8983POPC   C2B51284  31.711   8.219   6.753
 8983POPC   C3B51285  31.757   8.254   7.053
 8983POPC   C4B51286  31.739   8.264   7.353
 8984POPC   NC351287  33.753  43.864   5.553
 8984POPC   PO451288  33.842  43.936   5.853
 8984POPC   GL151289  33.751  43.922   6.153
 8984POPC   GL251290  33.883  43.987   6.153
 8984POPC   C1A51291  33.831  43.864   6.453
 8984POPC   D2A51292  33.834  43.870   6.753
 8984POPC   C3A51293  33.831  43.875   7.053
 8984POPC   C4A51294  33.786  43.842   7.353
 8984POPC   C1B51295  33.905  44.154   6.453
 8984POPC   C2B51296  33.888  44.088   6.753
 8984POPC   C3B51297  33.848  44.108   7.053
 8984POPC   C4B51298  33.896  44.094   7.353
 8985POPC   NC351299  28.406  43.847   5.553
 8985POPC   PO451300  28.373  43.888   5.853
 8985POPC   GL151301  28.374  43.931   6.153
 8985POPC   GL251302  28.449  43.978   6.153
 8985POPC   C1A51303  28.379  43.888   6.453
 8985POPC   D2A51304  28.373  43.890   6.753
 8985POPC   C3A51305  28.391  43.884   7.053
 8985POPC   C4A51306  28.382  43.897   7.353
 8985POPC   C1B51307  28.569  44.024   6.453
 8985POPC   C2B51308  28.601  44.038   6.753
 8985POPC   C3B51309  28.586  44.060   7.053
 8985POPC   C4B51310  28.578  43.993   7.353
 8986POPC   NC351311   8.230  29.129   5.553
 8986POPC   PO451312   8.187  29.191   5.853
 8986POPC   GL151313   8.247  29.194   6.153
 8986POPC   GL251314   8.289  29.257   6.153
 8986POPC   C1A51315   8.198  29.190   6.453
 8986POPC   D2A51316   8.233  29.148   6.753
 8986POPC   C3A51317   8.236  29.190   7.053
 8986POPC   C4A51318   8.222  29.148   7.353
 8986POPC   C1B51319   8.396  29.381   6.453
 8986POPC   C2B51320   8.391  29.291   6.753
 8986POPC   C3B51321   8.337  29.332   7.053
 8986POPC   C4B51322   8.339  29.344   7.353
 8987POPC   NC351323  41.547  14.377   5.553
 8987POPC   PO451324  41.570  14.430   5.853
 8987POPC   GL151325  41.600  14.424   6.153
 8987POPC   GL251326  41.684  14.443   6.153
 8987POPC   C1A51327  41.584  14.363   6.453
 8987POPC   D2A51328  41.558  14.413   6.753
 8987POPC   C3A51329  41.586  14.410   7.053
 8987POPC   C4A51330  41.517  14.410   7.353
 8987POPC   C1B51331  41.759  14.560   6.453
 8987POPC   C2B51332  41.749  14.544   6.753
 8987POPC   C3B51333  41.734  14.589   7.053
 8987POPC   C4B51334  41.709  14.621   7.353
 8988POPC   NC351335  17.530  19.065   5.553
 8988POPC   PO451336  17.480  19.042   5.853
 8988POPC   GL151337  17.478  19.026   6.153
 8988POPC   GL251338  17.386  18.964   6.153
 8988POPC   C1A51339  17.491  19.047   6.453
 8988POPC   D2A51340  17.524  19.098   6.753
 8988POPC   C3A51341  17.488  19.073   7.053
 8988POPC   C4A51342  17.551  19.046   7.353
 8988POPC   C1B51343  17.290  18.858   6.453
 8988POPC   C2B51344  17.317  18.930   6.753
 8988POPC   C3B51345  17.317  18.850   7.053
 8988POPC   C4B51346  17.373  18.872   7.353
 8989POPC   NC351347  22.985   1.959   5.553
 8989POPC   PO451348  22.962   2.035   5.853
 8989POPC   GL151349  22.926   1.959   6.153
 8989POPC   GL251350  23.060   1.991   6.153
 8989POPC   C1A51351  22.933   2.018   6.453
 8989POPC   D2A51352  22.952   2.035   6.753
 8989POPC   C3A51353  22.930   1.999   7.053
 8989POPC   C4A51354  22.913   2.009   7.353
 8989POPC   C1B51355  23.223   2.043   6.453
 8989POPC   C2B51356  23.224   2.084   6.753
 8989POPC   C3B51357  23.174   2.020   7.053
 8989POPC   C4B51358  23.176   2.079   7.353
 8990POPC   NC351359  20.581  12.803   5.553
 8990POPC   PO451360  20.635  12.870   5.853
 8990POPC   GL151361  20.589  12.897   6.153
 8990POPC   GL251362  20.657  12.727   6.153
 8990POPC   C1A51363  20.658  12.810   6.453
 8990POPC   D2A51364  20.591  12.830   6.753
 8990POPC   C3A51365  20.574  12.891   7.053
 8990POPC   C4A51366  20.655  12.893   7.353
 8990POPC   C1B51367  20.568  12.625   6.453
 8990POPC   C2B51368  20.587  12.581   6.753
 8990POPC   C3B51369  20.603  12.642   7.053
 8990POPC   C4B51370  20.616  12.573   7.353
 8991POPC   NC351371   5.070  32.250   5.553
 8991POPC   PO451372   5.138  32.239   5.853
 8991POPC   GL151373   5.118  32.239   6.153
 8991POPC   GL251374   4.944  32.258   6.153
 8991POPC   C1A51375   5.109  32.265   6.453
 8991POPC   D2A51376   5.088  32.281   6.753
 8991POPC   C3A51377   5.055  32.258   7.053
 8991POPC   C4A51378   5.055  32.231   7.353
 8991POPC   C1B51379   4.810  32.289   6.453
 8991POPC   C2B51380   4.857  32.331   6.753
 8991POPC   C3B51381   4.849  32.276   7.053
 8991POPC   C4B51382   4.856  32.326   7.353
 8992POPC   NC351383  20.581  33.020   5.553
 8992POPC   PO451384  20.585  32.999   5.853
 8992POPC   GL151385  20.646  33.031   6.153
 8992POPC   GL251386  20.640  32.885   6.153
 8992POPC   C1A51387  20.625  33.043   6.453
 8992POPC   D2A51388  20.636  33.018   6.753
 8992POPC   C3A51389  20.581  33.066   7.053
 8992POPC   C4A51390  20.599  32.995   7.353
 8992POPC   C1B51391  20.648  32.805   6.453
 8992POPC   C2B51392  20.632  32.766   6.753
 8992POPC   C3B51393  20.685  32.759   7.053
 8992POPC   C4B51394  20.680  32.774   7.353
 8993POPC   NC351395  10.525  29.944   5.553
 8993POPC   PO451396  10.558  29.923   5.853
 8993POPC   GL151397  10.548  29.910   6.153
 8993POPC   GL251398  10.572  30.045   6.153
 8993POPC   C1A51399  10.482  29.925   6.453
 8993POPC   D2A51400  10.530  29.895   6.753
 8993POPC   C3A51401  10.571  29.901   7.053
 8993POPC   C4A51402  10.492  29.925   7.353
 8993POPC   C1B51403  10.686  30.107   6.453
 8993POPC   C2B51404  10.683  30.087   6.753
 8993POPC   C3B51405  10.707  30.152   7.053
 8993POPC   C4B51406  10.659  30.067   7.353
 8994POPC   NC351407  22.181  33.755   5.553
 8994POPC   PO451408  22.155  33.776   5.853
 8994POPC   GL151409  22.137  33.844   6.153
 8994POPC   GL251410  22.163  33.911   6.153
 8994POPC   C1A51411  22.123  33.832   6.453
 8994POPC   D2A51412  22.116  33.824   6.753
 8994POPC   C3A51413  22.150  33.770   7.053
 8994POPC   C4A51414  22.188  33.823   7.353
 8994POPC   C1B51415  22.164  34.063   6.453
 8994POPC   C2B51416  22.126  34.082   6.753
 8994POPC   C3B51417  22.152  34.065   7.053
 8994POPC   C4B51418  22.109  34.059   7.353
 8995POPC   NC351419  12.075  44.641   5.553
 8995POPC   PO451420  12.105  44.692   5.853
 8995POPC   GL151421  12.040  44.662   6.153
 8995POPC   GL251422  12.021  44.788   6.153
 8995POPC   C1A51423  12.071  44.698   6.453
 8995POPC   D2A51424  12.054  44.622   6.753
 8995POPC   C3A51425  12.058  44.687   7.053
 8995POPC   C4A51426  12.026  44.679   7.353
 8995POPC   C1B51427  11.930  44.881   6.453
 8995POPC   C2B51428  11.905  44.889   6.753
 8995POPC   C3B51429  11.948  44.836   7.053
 8995POPC   C4B51430  11.995  44.837   7.353
 8996POPC   NC351431   2.754   7.435   5.553
 8996POPC   PO451432   2.810   7.404   5.853
 8996POPC   GL151433   2.759   7.470   6.153
 8996POPC   GL251434   2.665   7.542   6.153
 8996POPC   C1A51435   2.741   7.441   6.453
 8996POPC   D2A51436   2.798   7.467   6.753
 8996POPC   C3A51437   2.769   7.431   7.053
 8996POPC   C4A51438   2.772   7.446   7.353
 8996POPC   C1B51439   2.587   7.659   6.453
 8996POPC   C2B51440   2.610   7.578   6.753
 8996POPC   C3B51441   2.638   7.583   7.053
 8996POPC   C4B51442   2.648   7.640   7.353
 8997POPC   NC351443  44.614  39.963   5.553
 8997POPC   PO451444  44.646  40.054   5.853
 8997POPC   GL151445  44.691  40.023   6.153
 8997POPC   GL251446  44.628  40.124   6.153
 8997POPC   C1A51447  44.704  39.962   6.453
 8997POPC   D2A51448  44.691  39.988   6.753
 8997POPC   C3A51449  44.647  39.998   7.053
 8997POPC   C4A51450  44.642  40.046   7.353
 8997POPC   C1B51451  44.633  40.260   6.453
 8997POPC   C2B51452  44.637  40.282   6.753
 8997POPC   C3B51453  44.583  40.215   7.053
 8997POPC   C4B51454  44.637  40.210   7.353
 8998POPC   NC351455   6.653  36.921   5.553
 8998POPC   PO451456   6.680  36.862   5.853
 8998POPC   GL151457   6.612  36.877   6.153
 8998POPC   GL251458   6.535  36.952   6.153
 8998POPC   C1A51459   6.649  36.950   6.453
 8998POPC   D2A51460   6.689  36.867   6.753
 8998POPC   C3A51461   6.618  36.880   7.053
 8998POPC   C4A51462   6.677  36.863   7.353
 8998POPC   C1B51463   6.351  36.896   6.453
 8998POPC   C2B51464   6.423  36.863   6.753
 8998POPC   C3B51465   6.422  36.935   7.053
 8998POPC   C4B51466   6.396  36.946   7.353
 8999POPC   NC351467  33.770  25.246   5.553
 8999POPC   PO451468  33.754  25.225   5.853
 8999POPC   GL151469  33.768  25.300   6.153
 8999POPC   GL251470  33.825  25.187   6.153
 8999POPC   C1A51471  33.841  25.276   6.453
 8999POPC   D2A51472  33.817  25.284   6.753
 8999POPC   C3A51473  33.828  25.219   7.053
 8999POPC   C4A51474  33.832  25.219   7.353
 8999POPC   C1B51475  33.810  25.051   6.453
 8999POPC   C2B51476  33.780  25.027   6.753
 8999POPC   C3B51477  33.786  24.998   7.053
 8999POPC   C4B51478  33.789  25.021   7.353
 9000POPC   NC351479  30.691  26.807   5.553
 9000POPC   PO451480  30.660  26.856   5.853
 9000POPC   GL151481  30.722  26.822   6.153
 9000POPC   GL251482  30.658  26.733   6.153
 9000POPC   C1A51483  30.716  26.805   6.453
 9000POPC   D2A51484  30.746  26.791   6.753
 9000POPC   C3A51485  30.722  26.832   7.053
 9000POPC   C4A51486  30.739  26.796   7.353
 9000POPC   C1B51487  30.642  26.593   6.453
 9000POPC   C2B51488  30.602  26.607   6.753
 9000POPC   C3B51489  30.606  26.549   7.053
 9000POPC   C4B51490  30.568  26.545   7.353
 9001POPC   NC351491  12.099   0.435   5.553
 9001POPC   PO451492  12.112   0.487   5.853
 9001POPC   GL151493  12.080   0.480   6.153
 9001POPC   GL251494  12.142   0.345   6.153
 9001POPC   C1A51495  12.065   0.477   6.453
 9001POPC   D2A51496  12.085   0.442   6.753
 9001POPC   C3A51497  12.029   0.441   7.053
 9001POPC   C4A51498  12.116   0.389   7.353
 9001POPC   C1B51499  12.261   0.245   6.453
 9001POPC   C2B51500  12.236   0.230   6.753
 9001POPC   C3B51501  12.255   0.282   7.053
 9001POPC   C4B51502  12.265   0.244   7.353
 9002POPC   NC351503   8.968  40.737   5.553
 9002POPC   PO451504   8.964  40.733   5.853
 9002POPC   GL151505   8.927  40.792   6.153
 9002POPC   GL251506   8.849  40.681   6.153
 9002POPC   C1A51507   8.986  40.803   6.453
 9002POPC   D2A51508   9.018  40.749   6.753
 9002POPC   C3A51509   8.985  40.805   7.053
 9002POPC   C4A51510   8.979  40.766   7.353
 9002POPC   C1B51511   8.777  40.571   6.453
 9002POPC   C2B51512   8.750  40.600   6.753
 9002POPC   C3B51513   8.743  40.609   7.053
 9002POPC   C4B51514   8.804  40.600   7.353
 9003POPC   NC351515  22.166  25.229   5.553
 9003POPC   PO451516  22.170  25.259   5.853
 9003POPC   GL151517  22.116  25.232   6.153
 9003POPC   GL251518  22.235  25.118   6.153
 9003POPC   C1A51519  22.115  25.273   6.453
 9003POPC   D2A51520  22.188  25.285   6.753
 9003POPC   C3A51521  22.195  25.227   7.053
 9003POPC   C4A51522  22.167  25.238   7.353
 9003POPC   C1B51523  22.284  25.080   6.453
 9003POPC   C2B51524  22.271  25.076   6.753
 9003POPC   C3B51525  22.298  25.076   7.053
 9003POPC   C4B51526  22.238  25.029   7.353
 9004POPC   NC351527  33.037  43.924   5.553
 9004POPC   PO451528  32.990  43.861   5.853
 9004POPC   GL151529  33.018  43.922   6.153
 9004POPC   GL251530  33.088  43.821   6.153
 9004POPC   C1A51531  32.979  43.851   6.453
 9004POPC   D2A51532  33.002  43.910   6.753
 9004POPC   C3A51533  33.008  43.840   7.053
 9004POPC   C4A51534  33.011  43.933   7.353
 9004POPC   C1B51535  33.169  43.654   6.453
 9004POPC   C2B51536  33.165  43.714   6.753
 9004POPC   C3B51537  33.172  43.647   7.053
 9004POPC   C4B51538  33.170  43.675   7.353
 9005POPC   NC351539  40.769  37.702   5.553
 9005POPC   PO451540  40.798  37.630   5.853
 9005POPC   GL151541  40.809  37.684   6.153
 9005POPC   GL251542  40.891  37.569   6.153
 9005POPC   C1A51543  40.803  37.721   6.453
 9005POPC   D2A51544  40.812  37.697   6.753
 9005POPC   C3A51545  40.803  37.685   7.053
 9005POPC   C4A51546  40.753  37.654   7.353
 9005POPC   C1B51547  40.951  37.498   6.453
 9005POPC   C2B51548  40.897  37.494   6.753
 9005POPC   C3B51549  40.961  37.469   7.053
 9005POPC   C4B51550  40.956  37.437   7.353
 9006POPC   NC351551   8.958   9.733   5.553
 9006POPC   PO451552   8.930   9.754   5.853
 9006POPC   GL151553   8.970   9.772   6.153
 9006POPC   GL251554   9.057   9.637   6.153
 9006POPC   C1A51555   9.008   9.725   6.453
 9006POPC   D2A51556   8.972   9.766   6.753
 9006POPC   C3A51557   9.015   9.733   7.053
 9006POPC   C4A51558   8.944   9.745   7.353
 9006POPC   C1B51559   9.190   9.606   6.453
 9006POPC   C2B51560   9.201   9.609   6.753
 9006POPC   C3B51561   9.208   9.606   7.053
 9006POPC   C4B51562   9.220   9.588   7.353
 9007POPC   NC351563   8.218  32.243   5.553
 9007POPC   PO451564   8.231  32.289   5.853
 9007POPC   GL151565   8.175  32.213   6.153
 9007POPC   GL251566   8.106  32.092   6.153
 9007POPC   C1A51567   8.190  32.252   6.453
 9007POPC   D2A51568   8.207  32.246   6.753
 9007POPC   C3A51569   8.245  32.270   7.053
 9007POPC   C4A51570   8.188  32.240   7.353
 9007POPC   C1B51571   8.053  32.039   6.453
 9007POPC   C2B51572   8.121  32.065   6.753
 9007POPC   C3B51573   8.068  32.000   7.053
 9007POPC   C4B51574   8.050  32.047   7.353
 9008POPC   NC351575   9.728  44.697   5.553
 9008POPC   PO451576   9.764  44.670   5.853
 9008POPC   GL151577   9.756  44.692   6.153
 9008POPC   GL251578   9.669  44.542   6.153
 9008POPC   C1A51579   9.792  44.662   6.453
 9008POPC   D2A51580   9.765  44.617   6.753
 9008POPC   C3A51581   9.765  44.612   7.053
 9008POPC   C4A51582   9.718  44.684   7.353
 9008POPC   C1B51583   9.616  44.423   6.453
 9008POPC   C2B51584   9.650  44.414   6.753
 9008POPC   C3B51585   9.662  44.469   7.053
 9008POPC   C4B51586   9.601  44.435   7.353
 9009POPC   NC351587  29.095  15.952   5.553
 9009POPC   PO451588  29.115  15.943   5.853
 9009POPC   GL151589  29.177  15.929   6.153
 9009POPC   GL251590  29.075  16.090   6.153
 9009POPC   C1A51591  29.163  15.982   6.453
 9009POPC   D2A51592  29.109  15.945   6.753
 9009POPC   C3A51593  29.184  15.924   7.053
 9009POPC   C4A51594  29.151  15.955   7.353
 9009POPC   C1B51595  29.153  16.218   6.453
 9009POPC   C2B51596  29.098  16.191   6.753
 9009POPC   C3B51597  29.086  16.166   7.053
 9009POPC   C4B51598  29.063  16.172   7.353
 9010POPC   NC351599  22.117  43.857   5.553
 9010POPC   PO451600  22.141  43.872   5.853
 9010POPC   GL151601  22.120  43.903   6.153
 9010POPC   GL251602  22.303  43.822   6.153
 9010POPC   C1A51603  22.160  43.866   6.453
 9010POPC   D2A51604  22.131  43.846   6.753
 9010POPC   C3A51605  22.167  43.929   7.053
 9010POPC   C4A51606  22.132  43.927   7.353
 9010POPC   C1B51607  22.374  43.742   6.453
 9010POPC   C2B51608  22.415  43.774   6.753
 9010POPC   C3B51609  22.363  43.736   7.053
 9010POPC   C4B51610  22.321  43.768   7.353
 9011POPC   NC351611  26.024  24.525   5.553
 9011POPC   PO451612  26.066  24.516   5.853
 9011POPC   GL151613  26.009  24.489   6.153
 9011POPC   GL251614  25.933  24.489   6.153
 9011POPC   C1A51615  26.011  24.537   6.453
 9011POPC   D2A51616  26.041  24.503   6.753
 9011POPC   C3A51617  26.039  24.534   7.053
 9011POPC   C4A51618  26.050  24.520   7.353
 9011POPC   C1B51619  25.843  24.589   6.453
 9011POPC   C2B51620  25.790  24.528   6.753
 9011POPC   C3B51621  25.779  24.507   7.053
 9011POPC   C4B51622  25.765  24.506   7.353
 9012POPC   NC351623  28.361   1.979   5.553
 9012POPC   PO451624  28.360   1.992   5.853
 9012POPC   GL151625  28.390   1.988   6.153
 9012POPC   GL251626  28.279   2.006   6.153
 9012POPC   C1A51627  28.349   2.022   6.453
 9012POPC   D2A51628  28.418   1.974   6.753
 9012POPC   C3A51629  28.383   2.024   7.053
 9012POPC   C4A51630  28.393   2.002   7.353
 9012POPC   C1B51631  28.073   1.947   6.453
 9012POPC   C2B51632  28.129   2.008   6.753
 9012POPC   C3B51633  28.084   1.998   7.053
 9012POPC   C4B51634  28.164   1.938   7.353
 9013POPC   NC351635  43.902   8.161   5.553
 9013POPC   PO451636  43.845   8.233   5.853
 9013POPC   GL151637  43.882   8.214   6.153
 9013POPC   GL251638  43.765   8.073   6.153
 9013POPC   C1A51639  43.926   8.229   6.453
 9013POPC   D2A51640  43.894   8.148   6.753
 9013POPC   C3A51641  43.876   8.242   7.053
 9013POPC   C4A51642  43.866   8.225   7.353
 9013POPC   C1B51643  43.737   8.008   6.453
 9013POPC   C2B51644  43.729   8.001   6.753
 9013POPC   C3B51645  43.780   8.003   7.053
 9013POPC   C4B51646  43.746   7.965   7.353
 9014POPC   NC351647   6.609   9.754   5.553
 9014POPC   PO451648   6.596   9.742   5.853
 9014POPC   GL151649   6.645   9.737   6.153
 9014POPC   GL251650   6.529   9.802   6.153
 9014POPC   C1A51651   6.620   9.732   6.453
 9014POPC   D2A51652   6.612   9.784   6.753
 9014POPC   C3A51653   6.621   9.756   7.053
 9014POPC   C4A51654   6.681   9.744   7.353
 9014POPC   C1B51655   6.445   9.764   6.453
 9014POPC   C2B51656   6.375   9.776   6.753
 9014POPC   C3B51657   6.390   9.830   7.053
 9014POPC   C4B51658   6.443   9.751   7.353
 9015POPC   NC351659  42.297   0.464   5.553
 9015POPC   PO451660  42.298   0.470   5.853
 9015POPC   GL151661  42.295   0.398   6.153
 9015POPC   GL251662  42.279   0.366   6.153
 9015POPC   C1A51663  42.312   0.475   6.453
 9015POPC   D2A51664  42.345   0.408   6.753
 9015POPC   C3A51665  42.287   0.413   7.053
 9015POPC   C4A51666  42.290   0.473   7.353
 9015POPC   C1B51667  42.293   0.176   6.453
 9015POPC   C2B51668  42.221   0.166   6.753
 9015POPC   C3B51669  42.229   0.215   7.053
 9015POPC   C4B51670  42.260   0.162   7.353
 9016POPC   NC351671  33.000  42.311   5.553
 9016POPC   PO451672  33.006  42.333   5.853
 9016POPC   GL151673  33.003  42.331   6.153
 9016POPC   GL251674  32.898  42.378   6.153
 9016POPC   C1A51675  33.025  42.299   6.453
 9016POPC   D2A51676  33.040  42.337   6.753
 9016POPC   C3A51677  33.006  42.360   7.053
 9016POPC   C4A51678  33.005  42.313   7.353
 9016POPC   C1B51679  32.844  42.420   6.453
 9016POPC   C2B51680  32.846  42.399   6.753
 9016POPC   C3B51681  32.837  42.470   7.053
 9016POPC   C4B51682  32.775  42.415   7.353
 9017POPC   NC351683   6.657  33.782   5.553
 9017POPC   PO451684   6.688  33.814   5.853
 9017POPC   GL151685   6.671  33.784   6.153
 9017POPC   GL251686   6.788  33.699   6.153
 9017POPC   C1A51687   6.640  33.820   6.453
 9017POPC   D2A51688   6.632  33.849   6.753
 9017POPC   C3A51689   6.596  33.755   7.053
 9017POPC   C4A51690   6.648  33.801   7.353
 9017POPC   C1B51691   6.914  33.655   6.453
 9017POPC   C2B51692   6.855  33.669   6.753
 9017POPC   C3B51693   6.842  33.678   7.053
 9017POPC   C4B51694   6.876  33.686   7.353
 9018POPC   NC351695  15.222  16.742   5.553
 9018POPC   PO451696  15.228  16.703   5.853
 9018POPC   GL151697  15.198  16.740   6.153
 9018POPC   GL251698  15.115  16.837   6.153
 9018POPC   C1A51699  15.158  16.700   6.453
 9018POPC   D2A51700  15.162  16.708   6.753
 9018POPC   C3A51701  15.130  16.756   7.053
 9018POPC   C4A51702  15.177  16.691   7.353
 9018POPC   C1B51703  15.091  16.913   6.453
 9018POPC   C2B51704  15.055  16.920   6.753
 9018POPC   C3B51705  15.078  16.946   7.053
 9018POPC   C4B51706  15.055  16.921   7.353
 9019POPC   NC351707  17.469  29.885   5.553
 9019POPC   PO451708  17.479  29.888   5.853
 9019POPC   GL151709  17.479  29.891   6.153
 9019POPC   GL251710  17.600  30.048   6.153
 9019POPC   C1A51711  17.496  29.966   6.453
 9019POPC   D2A51712  17.458  29.968   6.753
 9019POPC   C3A51713  17.471  29.926   7.053
 9019POPC   C4A51714  17.464  29.886   7.353
 9019POPC   C1B51715  17.643  30.144   6.453
 9019POPC   C2B51716  17.660  30.119   6.753
 9019POPC   C3B51717  17.699  30.123   7.053
 9019POPC   C4B51718  17.617  30.099   7.353
 9020POPC   NC351719  41.555   9.757   5.553
 9020POPC   PO451720  41.586   9.752   5.853
 9020POPC   GL151721  41.532   9.790   6.153
 9020POPC   GL251722  41.587   9.673   6.153
 9020POPC   C1A51723  41.587   9.760   6.453
 9020POPC   D2A51724  41.604   9.731   6.753
 9020POPC   C3A51725  41.556   9.746   7.053
 9020POPC   C4A51726  41.603   9.794   7.353
 9020POPC   C1B51727  41.625   9.482   6.453
 9020POPC   C2B51728  41.598   9.511   6.753
 9020POPC   C3B51729  41.630   9.466   7.053
 9020POPC   C4B51730  41.620   9.531   7.353
 9021POPC   NC351731  39.275  28.406   5.553
 9021POPC   PO451732  39.242  28.393   5.853
 9021POPC   GL151733  39.263  28.403   6.153
 9021POPC   GL251734  39.064  28.344   6.153
 9021POPC   C1A51735  39.236  28.350   6.453
 9021POPC   D2A51736  39.233  28.333   6.753
 9021POPC   C3A51737  39.224  28.340   7.053
 9021POPC   C4A51738  39.233  28.367   7.353
 9021POPC   C1B51739  38.940  28.331   6.453
 9021POPC   C2B51740  39.006  28.307   6.753
 9021POPC   C3B51741  38.936  28.331   7.053
 9021POPC   C4B51742  39.007  28.324   7.353
 9022POPC   NC351743  32.989  44.639   5.553
 9022POPC   PO451744  32.994  44.618   5.853
 9022POPC   GL151745  32.992  44.681   6.153
 9022POPC   GL251746  32.962  44.767   6.153
 9022POPC   C1A51747  32.997  44.639   6.453
 9022POPC   D2A51748  33.016  44.659   6.753
 9022POPC   C3A51749  32.983  44.678   7.053
 9022POPC   C4A51750  33.012  44.633   7.353
 9022POPC   C1B51751  32.881  44.905   6.453
 9022POPC   C2B51752  32.932  44.909   6.753
 9022POPC   C3B51753  32.952  44.885   7.053
 9022POPC   C4B51754  32.879  44.873   7.353
 9023POPC   NC351755  44.633  37.685   5.553
 9023POPC   PO451756  44.704  37.721   5.853
 9023POPC   GL151757  44.696  37.641   6.153
 9023POPC   GL251758  44.806  37.685   6.153
 9023POPC   C1A51759  44.682  37.684   6.453
 9023POPC   D2A51760  44.651  37.634   6.753
 9023POPC   C3A51761  44.655  37.697   7.053
 9023POPC   C4A51762  44.704  37.645   7.353
 9023POPC   C1B51763  44.886  37.672   6.453
 9023POPC   C2B51764  44.892  37.664   6.753
 9023POPC   C3B51765  44.904  37.635   7.053
 9023POPC   C4B51766  44.929  37.620   7.353
 9024POPC   NC351767  43.895  40.040   5.553
 9024POPC   PO451768  43.922  40.045   5.853
 9024POPC   GL151769  43.876  40.017   6.153
 9024POPC   GL251770  43.916  39.861   6.153
 9024POPC   C1A51771  43.885  40.047   6.453
 9024POPC   D2A51772  43.865  40.044   6.753
 9024POPC   C3A51773  43.924  39.986   7.053
 9024POPC   C4A51774  43.848  39.958   7.353
 9024POPC   C1B51775  43.860  39.720   6.453
 9024POPC   C2B51776  43.869  39.769   6.753
 9024POPC   C3B51777  43.848  39.725   7.053
 9024POPC   C4B51778  43.890  39.792   7.353
 9025POPC   NC351779  15.972  21.431   5.553
 9025POPC   PO451780  15.979  21.382   5.853
 9025POPC   GL151781  15.979  21.388   6.153
 9025POPC   GL251782  15.828  21.326   6.153
 9025POPC   C1A51783  15.964  21.357   6.453
 9025POPC   D2A51784  15.984  21.383   6.753
 9025POPC   C3A51785  15.912  21.408   7.053
 9025POPC   C4A51786  15.915  21.411   7.353
 9025POPC   C1B51787  15.744  21.357   6.453
 9025POPC   C2B51788  15.730  21.333   6.753
 9025POPC   C3B51789  15.729  21.261   7.053
 9025POPC   C4B51790  15.704  21.355   7.353
 9026POPC   NC351791   2.792  22.911   5.553
 9026POPC   PO451792   2.778  22.956   5.853
 9026POPC   GL151793   2.795  22.890   6.153
 9026POPC   GL251794   2.691  22.840   6.153
 9026POPC   C1A51795   2.755  22.979   6.453
 9026POPC   D2A51796   2.717  22.965   6.753
 9026POPC   C3A51797   2.790  22.950   7.053
 9026POPC   C4A51798   2.764  22.935   7.353
 9026POPC   C1B51799   2.542  22.756   6.453
 9026POPC   C2B51800   2.559  22.756   6.753
 9026POPC   C3B51801   2.595  22.751   7.053
 9026POPC   C4B51802   2.606  22.833   7.353
 9027POPC   NC351803  13.640   1.202   5.553
 9027POPC   PO451804  13.624   1.256   5.853
 9027POPC   GL151805  13.591   1.253   6.153
 9027POPC   GL251806  13.698   1.210   6.153
 9027POPC   C1A51807  13.663   1.213   6.453
 9027POPC   D2A51808  13.601   1.225   6.753
 9027POPC   C3A51809  13.607   1.209   7.053
 9027POPC   C4A51810  13.621   1.177   7.353
 9027POPC   C1B51811  13.835   1.166   6.453
 9027POPC   C2B51812  13.852   1.171   6.753
 9027POPC   C3B51813  13.851   1.144   7.053
 9027POPC   C4B51814  13.819   1.080   7.353
 9028POPC   NC351815  15.983  28.412   5.553
 9028POPC   PO451816  15.982  28.414   5.853
 9028POPC   GL151817  15.927  28.355   6.153
 9028POPC   GL251818  15.922  28.282   6.153
 9028POPC   C1A51819  15.997  28.416   6.453
 9028POPC   D2A51820  15.962  28.379   6.753
 9028POPC   C3A51821  15.918  28.360   7.053
 9028POPC   C4A51822  15.950  28.418   7.353
 9028POPC   C1B51823  15.955  28.114   6.453
 9028POPC   C2B51824  15.943  28.120   6.753
 9028POPC   C3B51825  15.871  28.139   7.053
 9028POPC   C4B51826  15.926  28.088   7.353
 9029POPC   NC351827   7.469  31.503   5.553
 9029POPC   PO451828   7.444  31.426   5.853
 9029POPC   GL151829   7.435  31.452   6.153
 9029POPC   GL251830   7.253  31.479   6.153
 9029POPC   C1A51831   7.417  31.476   6.453
 9029POPC   D2A51832   7.419  31.455   6.753
 9029POPC   C3A51833   7.406  31.470   7.053
 9029POPC   C4A51834   7.421  31.477   7.353
 9029POPC   C1B51835   7.187  31.532   6.453
 9029POPC   C2B51836   7.218  31.462   6.753
 9029POPC   C3B51837   7.153  31.486   7.053
 9029POPC   C4B51838   7.212  31.527   7.353
 9030POPC   NC351839  26.864  16.768   5.553
 9030POPC   PO451840  26.814  16.739   5.853
 9030POPC   GL151841  26.847  16.779   6.153
 9030POPC   GL251842  26.881  16.818   6.153
 9030POPC   C1A51843  26.850  16.761   6.453
 9030POPC   D2A51844  26.867  16.686   6.753
 9030POPC   C3A51845  26.810  16.705   7.053
 9030POPC   C4A51846  26.819  16.723   7.353
 9030POPC   C1B51847  26.970  16.965   6.453
 9030POPC   C2B51848  26.912  16.992   6.753
 9030POPC   C3B51849  26.956  16.948   7.053
 9030POPC   C4B51850  26.965  16.980   7.353
 9031POPC   NC351851  12.082  19.834   5.553
 9031POPC   PO451852  12.113  19.875   5.853
 9031POPC   GL151853  12.038  19.838   6.153
 9031POPC   GL251854  11.971  19.763   6.153
 9031POPC   C1A51855  12.091  19.813   6.453
 9031POPC   D2A51856  12.086  19.801   6.753
 9031POPC   C3A51857  12.066  19.859   7.053
 9031POPC   C4A51858  12.042  19.808   7.353
 9031POPC   C1B51859  11.854  19.663   6.453
 9031POPC   C2B51860  11.868  19.656   6.753
 9031POPC   C3B51861  11.867  19.681   7.053
 9031POPC   C4B51862  11.893  19.722   7.353
 9032POPC   NC351863  43.134  27.614   5.553
 9032POPC   PO451864  43.072  27.554   5.853
 9032POPC   GL151865  43.065  27.582   6.153
 9032POPC   GL251866  43.089  27.429   6.153
 9032POPC   C1A51867  43.144  27.550   6.453
 9032POPC   D2A51868  43.068  27.632   6.753
 9032POPC   C3A51869  43.070  27.549   7.053
 9032POPC   C4A51870  43.103  27.563   7.353
 9032POPC   C1B51871  43.075  27.337   6.453
 9032POPC   C2B51872  43.073  27.395   6.753
 9032POPC   C3B51873  43.076  27.315   7.053
 9032POPC   C4B51874  43.079  27.369   7.353
 9033POPC   NC351875  36.910  35.364   5.553
 9033POPC   PO451876  36.927  35.310   5.853
 9033POPC   GL151877  36.867  35.374   6.153
 9033POPC   GL251878  36.958  35.448   6.153
 9033POPC   C1A51879  36.917  35.328   6.453
 9033POPC   D2A51880  36.896  35.352   6.753
 9033POPC   C3A51881  36.922  35.351   7.053
 9033POPC   C4A51882  36.864  35.317   7.353
 9033POPC   C1B51883  37.029  35.582   6.453
 9033POPC   C2B51884  37.029  35.545   6.753
 9033POPC   C3B51885  36.981  35.570   7.053
 9033POPC   C4B51886  37.009  35.581   7.353
 9034POPC   NC351887  38.408  21.401   5.553
 9034POPC   PO451888  38.498  21.346   5.853
 9034POPC   GL151889  38.484  21.398   6.153
 9034POPC   GL251890  38.372  21.453   6.153
 9034POPC   C1A51891  38.488  21.342   6.453
 9034POPC   D2A51892  38.484  21.379   6.753
 9034POPC   C3A51893  38.491  21.344   7.053
 9034POPC   C4A51894  38.445  21.420   7.353
 9034POPC   C1B51895  38.288  21.555   6.453
 9034POPC   C2B51896  38.250  21.500   6.753
 9034POPC   C3B51897  38.232  21.529   7.053
 9034POPC   C4B51898  38.224  21.563   7.353
 9035POPC   NC351899   5.112   9.701   5.553
 9035POPC   PO451900   5.090   9.769   5.853
 9035POPC   GL151901   5.045   9.739   6.153
 9035POPC   GL251902   5.207   9.785   6.153
 9035POPC   C1A51903   5.136   9.710   6.453
 9035POPC   D2A51904   5.104   9.720   6.753
 9035POPC   C3A51905   5.058   9.714   7.053
 9035POPC   C4A51906   5.077   9.716   7.353
 9035POPC   C1B51907   5.320   9.721   6.453
 9035POPC   C2B51908   5.298   9.787   6.753
 9035POPC   C3B51909   5.335   9.775   7.053
 9035POPC   C4B51910   5.378   9.782   7.353
 9036POPC   NC351911  40.827  12.900   5.553
 9036POPC   PO451912  40.823  12.835   5.853
 9036POPC   GL151913  40.778  12.889   6.153
 9036POPC   GL251914  40.633  12.785   6.153
 9036POPC   C1A51915  40.744  12.808   6.453
 9036POPC   D2A51916  40.756  12.875   6.753
 9036POPC   C3A51917  40.763  12.850   7.053
 9036POPC   C4A51918  40.812  12.808   7.353
 9036POPC   C1B51919  40.561  12.741   6.453
 9036POPC   C2B51920  40.520  12.732   6.753
 9036POPC   C3B51921  40.607  12.715   7.053
 9036POPC   C4B51922  40.569  12.749   7.353
 9037POPC   NC351923  12.887  39.962   5.553
 9037POPC   PO451924  12.811  40.038   5.853
 9037POPC   GL151925  12.889  40.056   6.153
 9037POPC   GL251926  12.722  40.002   6.153
 9037POPC   C1A51927  12.847  39.999   6.453
 9037POPC   D2A51928  12.815  40.054   6.753
 9037POPC   C3A51929  12.823  40.050   7.053
 9037POPC   C4A51930  12.879  39.985   7.353
 9037POPC   C1B51931  12.620  39.974   6.453
 9037POPC   C2B51932  12.613  39.953   6.753
 9037POPC   C3B51933  12.610  39.912   7.053
 9037POPC   C4B51934  12.612  39.885   7.353
 9038POPC   NC351935   1.971  41.562   5.553
 9038POPC   PO451936   1.990  41.560   5.853
 9038POPC   GL151937   1.981  41.559   6.153
 9038POPC   GL251938   2.069  41.637   6.153
 9038POPC   C1A51939   2.038  41.604   6.453
 9038POPC   D2A51940   1.952  41.603   6.753
 9038POPC   C3A51941   2.002  41.532   7.053
 9038POPC   C4A51942   2.013  41.575   7.353
 9038POPC   C1B51943   2.127  41.768   6.453
 9038POPC   C2B51944   2.164  41.768   6.753
 9038POPC   C3B51945   2.184  41.782   7.053
 9038POPC   C4B51946   2.210  41.708   7.353
 9039POPC   NC351947   7.469  33.044   5.553
 9039POPC   PO451948   7.407  32.982   5.853
 9039POPC   GL151949   7.410  33.018   6.153
 9039POPC   GL251950   7.409  32.908   6.153
 9039POPC   C1A51951   7.408  32.975   6.453
 9039POPC   D2A51952   7.439  33.029   6.753
 9039POPC   C3A51953   7.420  33.027   7.053
 9039POPC   C4A51954   7.460  33.007   7.353
 9039POPC   C1B51955   7.372  32.775   6.453
 9039POPC   C2B51956   7.386  32.812   6.753
 9039POPC   C3B51957   7.329  32.815   7.053
 9039POPC   C4B51958   7.397  32.752   7.353
 9040POPC   NC351959  15.906  18.277   5.553
 9040POPC   PO451960  15.921  18.252   5.853
 9040POPC   GL151961  15.914  18.273   6.153
 9040POPC   GL251962  16.062  18.203   6.153
 9040POPC   C1A51963  15.978  18.252   6.453
 9040POPC   D2A51964  15.970  18.323   6.753
 9040POPC   C3A51965  15.945  18.310   7.053
 9040POPC   C4A51966  15.934  18.249   7.353
 9040POPC   C1B51967  16.132  18.092   6.453
 9040POPC   C2B51968  16.115  18.091   6.753
 9040POPC   C3B51969  16.196  18.148   7.053
 9040POPC   C4B51970  16.191  18.115   7.353
 9041POPC   NC351971  35.330  16.738   5.553
 9041POPC   PO451972  35.376  16.686   5.853
 9041POPC   GL151973  35.305  16.766   6.153
 9041POPC   GL251974  35.274  16.832   6.153
 9041POPC   C1A51975  35.392  16.765   6.453
 9041POPC   D2A51976  35.360  16.746   6.753
 9041POPC   C3A51977  35.321  16.715   7.053
 9041POPC   C4A51978  35.381  16.748   7.353
 9041POPC   C1B51979  35.153  16.890   6.453
 9041POPC   C2B51980  35.230  16.868   6.753
 9041POPC   C3B51981  35.191  16.939   7.053
 9041POPC   C4B51982  35.142  16.908   7.353
 9042POPC   NC351983  42.317  42.322   5.553
 9042POPC   PO451984  42.351  42.342   5.853
 9042POPC   GL151985  42.308  42.309   6.153
 9042POPC   GL251986  42.358  42.422   6.153
 9042POPC   C1A51987  42.310  42.289   6.453
 9042POPC   D2A51988  42.324  42.310   6.753
 9042POPC   C3A51989  42.383  42.335   7.053
 9042POPC   C4A51990  42.304  42.313   7.353
 9042POPC   C1B51991  42.399  42.620   6.453
 9042POPC   C2B51992  42.380  42.621   6.753
 9042POPC   C3B51993  42.343  42.565   7.053
 9042POPC   C4B51994  42.383  42.619   7.353
 9043POPC   NC351995  15.130  29.154   5.553
 9043POPC   PO451996  15.199  29.137   5.853
 9043POPC   GL151997  15.171  29.154   6.153
 9043POPC   GL251998  15.090  29.043   6.153
 9043POPC   C1A51999  15.162  29.118   6.453
 9043POPC   D2A52000  15.225  29.138   6.753
 9043POPC   C3A52001  15.131  29.124   7.053
 9043POPC   C4A52002  15.144  29.184   7.353
 9043POPC   C1B52003  15.039  28.881   6.453
 9043POPC   C2B52004  15.119  28.928   6.753
 9043POPC   C3B52005  15.044  28.959   7.053
 9043POPC   C4B52006  15.061  28.949   7.353
 9044POPC   NC352007  30.669  44.664   5.553
 9044POPC   PO452008  30.725  44.658   5.853
 9044POPC   GL152009  30.654  44.699   6.153
 9044POPC   GL252010  30.548  44.611   6.153
 9044POPC   C1A52011  30.725  44.637   6.453
 9044POPC   D2A52012  30.674  44.639   6.753
 9044POPC   C3A52013  30.716  44.701   7.053
 9044POPC   C4A52014  30.684  44.652   7.353
 9044POPC   C1B52015  30.478  44.499   6.453
 9044POPC   C2B52016  30.442  44.532   6.753
 9044POPC   C3B52017  30.523  44.514   7.053
 9044POPC   C4B52018  30.508  44.504   7.353
 9045POPC   NC352019  20.632  11.310   5.553
 9045POPC   PO452020  20.639  11.259   5.853
 9045POPC   GL152021  20.625  11.275   6.153
 9045POPC   GL252022  20.752  11.252   6.153
 9045POPC   C1A52023  20.628  11.349   6.453
 9045POPC   D2A52024  20.597  11.350   6.753
 9045POPC   C3A52025  20.564  11.263   7.053
 9045POPC   C4A52026  20.562  11.349   7.353
 9045POPC   C1B52027  20.862  11.221   6.453
 9045POPC   C2B52028  20.846  11.207   6.753
 9045POPC   C3B52029  20.822  11.183   7.053
 9045POPC   C4B52030  20.844  11.233   7.353
 9046POPC   NC352031   8.928   0.422   5.553
 9046POPC   PO452032   9.004   0.452   5.853
 9046POPC   GL152033   8.967   0.453   6.153
 9046POPC   GL252034   8.922   0.298   6.153
 9046POPC   C1A52035   8.959   0.453   6.453
 9046POPC   D2A52036   8.937   0.484   6.753
 9046POPC   C3A52037   8.945   0.400   7.053
 9046POPC   C4A52038   8.932   0.464   7.353
 9046POPC   C1B52039   8.801   0.224   6.453
 9046POPC   C2B52040   8.809   0.246   6.753
 9046POPC   C3B52041   8.827   0.177   7.053
 9046POPC   C4B52042   8.858   0.208   7.353
 9047POPC   NC352043  13.627  31.519   5.553
 9047POPC   PO452044  13.650  31.437   5.853
 9047POPC   GL152045  13.614  31.440   6.153
 9047POPC   GL252046  13.711  31.380   6.153
 9047POPC   C1A52047  13.585  31.486   6.453
 9047POPC   D2A52048  13.616  31.475   6.753
 9047POPC   C3A52049  13.667  31.514   7.053
 9047POPC   C4A52050  13.663  31.473   7.353
 9047POPC   C1B52051  13.729  31.311   6.453
 9047POPC   C2B52052  13.802  31.311   6.753
 9047POPC   C3B52053  13.789  31.260   7.053
 9047POPC   C4B52054  13.752  31.290   7.353
 9048POPC   NC352055   4.355   8.151   5.553
 9048POPC   PO452056   4.342   8.169   5.853
 9048POPC   GL152057   4.298   8.159   6.153
 9048POPC   GL252058   4.324   8.316   6.153
 9048POPC   C1A52059   4.338   8.220   6.453
 9048POPC   D2A52060   4.309   8.172   6.753
 9048POPC   C3A52061   4.360   8.234   7.053
 9048POPC   C4A52062   4.295   8.208   7.353
 9048POPC   C1B52063   4.386   8.453   6.453
 9048POPC   C2B52064   4.383   8.370   6.753
 9048POPC   C3B52065   4.423   8.375   7.053
 9048POPC   C4B52066   4.434   8.460   7.353
 9049POPC   NC352067  40.822  17.477   5.553
 9049POPC   PO452068  40.807  17.550   5.853
 9049POPC   GL152069  40.786  17.463   6.153
 9049POPC   GL252070  40.776  17.339   6.153
 9049POPC   C1A52071  40.799  17.534   6.453
 9049POPC   D2A52072  40.734  17.543   6.753
 9049POPC   C3A52073  40.736  17.556   7.053
 9049POPC   C4A52074  40.803  17.466   7.353
 9049POPC   C1B52075  40.774  17.238   6.453
 9049POPC   C2B52076  40.817  17.260   6.753
 9049POPC   C3B52077  40.758  17.260   7.053
 9049POPC   C4B52078  40.825  17.235   7.353
 9050POPC   NC352079   9.795  15.191   5.553
 9050POPC   PO452080   9.737  15.211   5.853
 9050POPC   GL152081   9.737  15.139   6.153
 9050POPC   GL252082   9.659  15.145   6.153
 9050POPC   C1A52083   9.707  15.152   6.453
 9050POPC   D2A52084   9.733  15.172   6.753
 9050POPC   C3A52085   9.792  15.152   7.053
 9050POPC   C4A52086   9.716  15.153   7.353
 9050POPC   C1B52087   9.514  15.205   6.453
 9050POPC   C2B52088   9.520  15.174   6.753
 9050POPC   C3B52089   9.462  15.219   7.053
 9050POPC   C4B52090   9.516  15.229   7.353
 9051POPC   NC352091   2.811  33.831   5.553
 9051POPC   PO452092   2.773  33.775   5.853
 9051POPC   GL152093   2.790  33.779   6.153
 9051POPC   GL252094   2.840  33.744   6.153
 9051POPC   C1A52095   2.776  33.797   6.453
 9051POPC   D2A52096   2.725  33.834   6.753
 9051POPC   C3A52097   2.742  33.791   7.053
 9051POPC   C4A52098   2.754  33.828   7.353
 9051POPC   C1B52099   3.001  33.737   6.453
 9051POPC   C2B52100   3.028  33.782   6.753
 9051POPC   C3B52101   2.981  33.789   7.053
 9051POPC   C4B52102   3.059  33.731   7.353
 9052POPC   NC352103   8.976  34.566   5.553
 9052POPC   PO452104   8.942  34.620   5.853
 9052POPC   GL152105   8.956  34.530   6.153
 9052POPC   GL252106   8.853  34.567   6.153
 9052POPC   C1A52107   8.977  34.616   6.453
 9052POPC   D2A52108   8.932  34.569   6.753
 9052POPC   C3A52109   9.022  34.594   7.053
 9052POPC   C4A52110   9.017  34.577   7.353
 9052POPC   C1B52111   8.680  34.653   6.453
 9052POPC   C2B52112   8.693  34.680   6.753
 9052POPC   C3B52113   8.690  34.624   7.053
 9052POPC   C4B52114   8.704  34.633   7.353
 9053POPC   NC352115  34.597   3.580   5.553
 9053POPC   PO452116  34.602   3.584   5.853
 9053POPC   GL152117  34.553   3.506   6.153
 9053POPC   GL252118  34.702   3.539   6.153
 9053POPC   C1A52119  34.541   3.556   6.453
 9053POPC   D2A52120  34.529   3.567   6.753
 9053POPC   C3A52121  34.555   3.563   7.053
 9053POPC   C4A52122  34.559   3.577   7.353
 9053POPC   C1B52123  34.784   3.542   6.453
 9053POPC   C2B52124  34.796   3.558   6.753
 9053POPC   C3B52125  34.851   3.579   7.053
 9053POPC   C4B52126  34.785   3.527   7.353
 9054POPC   NC352127   3.533  29.923   5.553
 9054POPC   PO452128   3.570  29.960   5.853
 9054POPC   GL152129   3.524  29.893   6.153
 9054POPC   GL252130   3.637  29.910   6.153
 9054POPC   C1A52131   3.563  29.968   6.453
 9054POPC   D2A52132   3.583  29.886   6.753
 9054POPC   C3A52133   3.495  29.924   7.053
 9054POPC   C4A52134   3.558  29.899   7.353
 9054POPC   C1B52135   3.763  29.901   6.453
 9054POPC   C2B52136   3.798  29.974   6.753
 9054POPC   C3B52137   3.761  29.916   7.053
 9054POPC   C4B52138   3.801  29.964   7.353
 9055POPC   NC352139  26.851   0.464   5.553
 9055POPC   PO452140  26.840   0.405   5.853
 9055POPC   GL152141  26.792   0.466   6.153
 9055POPC   GL252142  26.705   0.393   6.153
 9055POPC   C1A52143  26.834   0.475   6.453
 9055POPC   D2A52144  26.827   0.438   6.753
 9055POPC   C3A52145  26.781   0.482   7.053
 9055POPC   C4A52146  26.851   0.401   7.353
 9055POPC   C1B52147  26.617   0.289   6.453
 9055POPC   C2B52148  26.657   0.264   6.753
 9055POPC   C3B52149  26.632   0.221   7.053
 9055POPC   C4B52150  26.634   0.239   7.353
 9056POPC   NC352151  22.974  10.565   5.553
 9056POPC   PO452152  22.938  10.550   5.853
 9056POPC   GL152153  22.934  10.558   6.153
 9056POPC   GL252154  22.964  10.426   6.153
 9056POPC   C1A52155  22.955  10.494   6.453
 9056POPC   D2A52156  22.970  10.524   6.753
 9056POPC   C3A52157  22.894  10.521   7.053
 9056POPC   C4A52158  22.953  10.528   7.353
 9056POPC   C1B52159  23.014  10.320   6.453
 9056POPC   C2B52160  23.066  10.263   6.753
 9056POPC   C3B52161  23.001  10.293   7.053
 9056POPC   C4B52162  23.023  10.311   7.353
 9057POPC   NC352163   2.758  39.266   5.553
 9057POPC   PO452164   2.768  39.183   5.853
 9057POPC   GL152165   2.724  39.279   6.153
 9057POPC   GL252166   2.633  39.286   6.153
 9057POPC   C1A52167   2.724  39.181   6.453
 9057POPC   D2A52168   2.787  39.249   6.753
 9057POPC   C3A52169   2.791  39.272   7.053
 9057POPC   C4A52170   2.790  39.205   7.353
 9057POPC   C1B52171   2.576  39.312   6.453
 9057POPC   C2B52172   2.523  39.300   6.753
 9057POPC   C3B52173   2.511  39.324   7.053
 9057POPC   C4B52174   2.525  39.281   7.353
 9058POPC   NC352175  43.843  33.070   5.553
 9058POPC   PO452176  43.839  33.043   5.853
 9058POPC   GL152177  43.880  32.985   6.153
 9058POPC   GL252178  43.765  32.937   6.153
 9058POPC   C1A52179  43.895  33.039   6.453
 9058POPC   D2A52180  43.890  33.023   6.753
 9058POPC   C3A52181  43.899  33.061   7.053
 9058POPC   C4A52182  43.893  33.044   7.353
 9058POPC   C1B52183  43.760  32.832   6.453
 9058POPC   C2B52184  43.707  32.884   6.753
 9058POPC   C3B52185  43.743  32.819   7.053
 9058POPC   C4B52186  43.761  32.850   7.353
 9059POPC   NC352187  38.494   0.476   5.553
 9059POPC   PO452188  38.407   0.402   5.853
 9059POPC   GL152189  38.462   0.390   6.153
 9059POPC   GL252190  38.593   0.373   6.153
 9059POPC   C1A52191  38.436   0.458   6.453
 9059POPC   D2A52192  38.469   0.392   6.753
 9059POPC   C3A52193  38.441   0.480   7.053
 9059POPC   C4A52194  38.492   0.484   7.353
 9059POPC   C1B52195  38.611   0.331   6.453
 9059POPC   C2B52196  38.702   0.258   6.753
 9059POPC   C3B52197  38.610   0.271   7.053
 9059POPC   C4B52198  38.628   0.302   7.353
 9060POPC   NC352199   8.223   5.071   5.553
 9060POPC   PO452200   8.208   5.128   5.853
 9060POPC   GL152201   8.182   5.091   6.153
 9060POPC   GL252202   8.220   4.980   6.153
 9060POPC   C1A52203   8.192   5.116   6.453
 9060POPC   D2A52204   8.239   5.123   6.753
 9060POPC   C3A52205   8.160   5.093   7.053
 9060POPC   C4A52206   8.209   5.060   7.353
 9060POPC   C1B52207   8.306   4.816   6.453
 9060POPC   C2B52208   8.268   4.816   6.753
 9060POPC   C3B52209   8.339   4.877   7.053
 9060POPC   C4B52210   8.304   4.907   7.353
 9061POPC   NC352211  19.857  22.937   5.553
 9061POPC   PO452212  19.805  22.920   5.853
 9061POPC   GL152213  19.845  22.898   6.153
 9061POPC   GL252214  19.945  22.974   6.153
 9061POPC   C1A52215  19.801  22.953   6.453
 9061POPC   D2A52216  19.794  22.930   6.753
 9061POPC   C3A52217  19.816  22.977   7.053
 9061POPC   C4A52218  19.833  22.981   7.353
 9061POPC   C1B52219  19.993  23.078   6.453
 9061POPC   C2B52220  20.008  23.090   6.753
 9061POPC   C3B52221  20.058  23.142   7.053
 9061POPC   C4B52222  19.986  23.143   7.353
 9062POPC   NC352223  38.457  12.061   5.553
 9062POPC   PO452224  38.476  12.087   5.853
 9062POPC   GL152225  38.477  12.063   6.153
 9062POPC   GL252226  38.486  11.998   6.153
 9062POPC   C1A52227  38.470  12.026   6.453
 9062POPC   D2A52228  38.415  12.031   6.753
 9062POPC   C3A52229  38.426  12.068   7.053
 9062POPC   C4A52230  38.448  12.096   7.353
 9062POPC   C1B52231  38.441  11.824   6.453
 9062POPC   C2B52232  38.441  11.821   6.753
 9062POPC   C3B52233  38.390  11.847   7.053
 9062POPC   C4B52234  38.400  11.799   7.353
 9063POPC   NC352235  19.044   8.204   5.553
 9063POPC   PO452236  19.082   8.171   5.853
 9063POPC   GL152237  19.020   8.154   6.153
 9063POPC   GL252238  18.959   8.112   6.153
 9063POPC   C1A52239  19.034   8.159   6.453
 9063POPC   D2A52240  19.033   8.148   6.753
 9063POPC   C3A52241  19.073   8.150   7.053
 9063POPC   C4A52242  19.035   8.177   7.353
 9063POPC   C1B52243  18.889   8.037   6.453
 9063POPC   C2B52244  18.910   8.056   6.753
 9063POPC   C3B52245  18.851   7.989   7.053
 9063POPC   C4B52246  18.903   8.027   7.353
 9064POPC   NC352247  26.091  39.970   5.553
 9064POPC   PO452248  26.084  40.007   5.853
 9064POPC   GL152249  26.052  39.991   6.153
 9064POPC   GL252250  26.092  40.137   6.153
 9064POPC   C1A52251  25.992  39.958   6.453
 9064POPC   D2A52252  25.996  39.964   6.753
 9064POPC   C3A52253  26.062  40.030   7.053
 9064POPC   C4A52254  26.046  40.037   7.353
 9064POPC   C1B52255  26.140  40.199   6.453
 9064POPC   C2B52256  26.101  40.204   6.753
 9064POPC   C3B52257  26.185  40.273   7.053
 9064POPC   C4B52258  26.117  40.217   7.353
 9065POPC   NC352259   6.654   5.828   5.553
 9065POPC   PO452260   6.691   5.819   5.853
 9065POPC   GL152261   6.609   5.857   6.153
 9065POPC   GL252262   6.728   5.920   6.153
 9065POPC   C1A52263   6.631   5.916   6.453
 9065POPC   D2A52264   6.598   5.828   6.753
 9065POPC   C3A52265   6.689   5.867   7.053
 9065POPC   C4A52266   6.620   5.898   7.353
 9065POPC   C1B52267   6.866   5.854   6.453
 9065POPC   C2B52268   6.862   5.840   6.753
 9065POPC   C3B52269   6.864   5.883   7.053
 9065POPC   C4B52270   6.923   5.880   7.353
 9066POPC   NC352271  43.867  26.071   5.553
 9066POPC   PO452272  43.842  26.005   5.853
 9066POPC   GL152273  43.933  26.000   6.153
 9066POPC   GL252274  43.976  26.101   6.153
 9066POPC   C1A52275  43.927  25.995   6.453
 9066POPC   D2A52276  43.846  26.059   6.753
 9066POPC   C3A52277  43.906  26.050   7.053
 9066POPC   C4A52278  43.874  26.016   7.353
 9066POPC   C1B52279  44.147  26.106   6.453
 9066POPC   C2B52280  44.110  26.156   6.753
 9066POPC   C3B52281  44.136  26.094   7.053
 9066POPC   C4B52282  44.135  26.181   7.353
 9067POPC   NC352283  28.397  28.367   5.553
 9067POPC   PO452284  28.324  28.339   5.853
 9067POPC   GL152285  28.323  28.389   6.153
 9067POPC   GL252286  28.505  28.316   6.153
 9067POPC   C1A52287  28.419  28.387   6.453
 9067POPC   D2A52288  28.387  28.349   6.753
 9067POPC   C3A52289  28.404  28.402   7.053
 9067POPC   C4A52290  28.375  28.322   7.353
 9067POPC   C1B52291  28.602  28.179   6.453
 9067POPC   C2B52292  28.601  28.211   6.753
 9067POPC   C3B52293  28.602  28.245   7.053
 9067POPC   C4B52294  28.541  28.265   7.353
 9068POPC   NC352295   0.457  39.182   5.553
 9068POPC   PO452296   0.409  39.240   5.853
 9068POPC   GL152297   0.480  39.199   6.153
 9068POPC   GL252298   0.328  39.168   6.153
 9068POPC   C1A52299   0.464  39.184   6.453
 9068POPC   D2A52300   0.388  39.226   6.753
 9068POPC   C3A52301   0.458  39.195   7.053
 9068POPC   C4A52302   0.453  39.259   7.353
 9068POPC   C1B52303   0.308  39.093   6.453
 9068POPC   C2B52304   0.302  39.060   6.753
 9068POPC   C3B52305   0.305  39.103   7.053
 9068POPC   C4B52306   0.262  39.039   7.353
 9069POPC   NC352307   8.202   0.416   5.553
 9069POPC   PO452308   8.214   0.430   5.853
 9069POPC   GL152309   8.213   0.422   6.153
 9069POPC   GL252310   8.279   0.427   6.153
 9069POPC   C1A52311   8.235   0.451   6.453
 9069POPC   D2A52312   8.230   0.462   6.753
 9069POPC   C3A52313   8.199   0.455   7.053
 9069POPC   C4A52314   8.150   0.477   7.353
 9069POPC   C1B52315   8.464   0.460   6.453
 9069POPC   C2B52316   8.452   0.419   6.753
 9069POPC   C3B52317   8.437   0.477   7.053
 9069POPC   C4B52318   8.474   0.432   7.353
 9070POPC   NC352319  14.409  40.036   5.553
 9070POPC   PO452320  14.403  39.958   5.853
 9070POPC   GL152321  14.386  40.019   6.153
 9070POPC   GL252322  14.376  40.114   6.153
 9070POPC   C1A52323  14.361  39.987   6.453
 9070POPC   D2A52324  14.356  40.030   6.753
 9070POPC   C3A52325  14.364  39.981   7.053
 9070POPC   C4A52326  14.439  40.006   7.353
 9070POPC   C1B52327  14.332  40.304   6.453
 9070POPC   C2B52328  14.336  40.233   6.753
 9070POPC   C3B52329  14.353  40.271   7.053
 9070POPC   C4B52330  14.373  40.286   7.353
 9071POPC   NC352331  20.651  10.479   5.553
 9071POPC   PO452332  20.638  10.540   5.853
 9071POPC   GL152333  20.570  10.571   6.153
 9071POPC   GL252334  20.474  10.576   6.153
 9071POPC   C1A52335  20.633  10.531   6.453
 9071POPC   D2A52336  20.612  10.516   6.753
 9071POPC   C3A52337  20.644  10.573   7.053
 9071POPC   C4A52338  20.623  10.484   7.353
 9071POPC   C1B52339  20.342  10.602   6.453
 9071POPC   C2B52340  20.411  10.538   6.753
 9071POPC   C3B52341  20.391  10.526   7.053
 9071POPC   C4B52342  20.328  10.547   7.353
 9072POPC   NC352343  32.240  18.258   5.553
 9072POPC   PO452344  32.234  18.285   5.853
 9072POPC   GL152345  32.294  18.307   6.153
 9072POPC   GL252346  32.198  18.360   6.153
 9072POPC   C1A52347  32.229  18.248   6.453
 9072POPC   D2A52348  32.283  18.292   6.753
 9072POPC   C3A52349  32.246  18.255   7.053
 9072POPC   C4A52350  32.267  18.241   7.353
 9072POPC   C1B52351  32.095  18.500   6.453
 9072POPC   C2B52352  32.059  18.527   6.753
 9072POPC   C3B52353  32.080  18.525   7.053
 9072POPC   C4B52354  32.119  18.493   7.353
 9073POPC   NC352355  29.149  13.600   5.553
 9073POPC   PO452356  29.155  13.619   5.853
 9073POPC   GL152357  29.163  13.656   6.153
 9073POPC   GL252358  29.078  13.533   6.153
 9073POPC   C1A52359  29.114  13.611   6.453
 9073POPC   D2A52360  29.101  13.582   6.753
 9073POPC   C3A52361  29.189  13.637   7.053
 9073POPC   C4A52362  29.102  13.652   7.353
 9073POPC   C1B52363  28.977  13.387   6.453
 9073POPC   C2B52364  29.048  13.377   6.753
 9073POPC   C3B52365  29.036  13.460   7.053
 9073POPC   C4B52366  29.017  13.452   7.353
 9074POPC   NC352367  37.639  22.971   5.553
 9074POPC   PO452368  37.656  22.979   5.853
 9074POPC   GL152369  37.649  22.903   6.153
 9074POPC   GL252370  37.816  23.034   6.153
 9074POPC   C1A52371  37.689  22.987   6.453
 9074POPC   D2A52372  37.655  22.937   6.753
 9074POPC   C3A52373  37.649  22.902   7.053
 9074POPC   C4A52374  37.674  22.900   7.353
 9074POPC   C1B52375  37.886  23.093   6.453
 9074POPC   C2B52376  37.863  23.113   6.753
 9074POPC   C3B52377  37.853  23.157   7.053
 9074POPC   C4B52378  37.863  23.112   7.353
 9075POPC   NC352379  35.360  22.954   5.553
 9075POPC   PO452380  35.376  22.978   5.853
 9075POPC   GL152381  35.353  22.987   6.153
 9075POPC   GL252382  35.292  23.025   6.153
 9075POPC   C1A52383  35.390  22.917   6.453
 9075POPC   D2A52384  35.357  22.934   6.753
 9075POPC   C3A52385  35.330  22.933   7.053
 9075POPC   C4A52386  35.353  22.890   7.353
 9075POPC   C1B52387  35.133  23.055   6.453
 9075POPC   C2B52388  35.148  23.078   6.753
 9075POPC   C3B52389  35.133  23.118   7.053
 9075POPC   C4B52390  35.107  23.042   7.353
 9076POPC   NC352391   5.062  29.966   5.553
 9076POPC   PO452392   5.110  29.952   5.853
 9076POPC   GL152393   5.057  29.877   6.153
 9076POPC   GL252394   5.017  29.770   6.153
 9076POPC   C1A52395   5.082  29.888   6.453
 9076POPC   D2A52396   5.053  29.953   6.753
 9076POPC   C3A52397   5.050  29.927   7.053
 9076POPC   C4A52398   5.120  29.934   7.353
 9076POPC   C1B52399   4.953  29.675   6.453
 9076POPC   C2B52400   4.995  29.726   6.753
 9076POPC   C3B52401   4.976  29.662   7.053
 9076POPC   C4B52402   5.012  29.689   7.353
 9077POPC   NC352403  29.931  40.806   5.553
 9077POPC   PO452404  29.903  40.793   5.853
 9077POPC   GL152405  29.929  40.744   6.153
 9077POPC   GL252406  29.908  40.685   6.153
 9077POPC   C1A52407  29.913  40.735   6.453
 9077POPC   D2A52408  29.970  40.765   6.753
 9077POPC   C3A52409  29.912  40.752   7.053
 9077POPC   C4A52410  29.929  40.818   7.353
 9077POPC   C1B52411  29.938  40.489   6.453
 9077POPC   C2B52412  29.979  40.507   6.753
 9077POPC   C3B52413  29.997  40.502   7.053
 9077POPC   C4B52414  29.953  40.521   7.353
 9078POPC   NC352415   0.456  17.473   5.553
 9078POPC   PO452416   0.440  17.519   5.853
 9078POPC   GL152417   0.466  17.546   6.153
 9078POPC   GL252418   0.426  17.363   6.153
 9078POPC   C1A52419   0.417  17.553   6.453
 9078POPC   D2A52420   0.389  17.506   6.753
 9078POPC   C3A52421   0.397  17.473   7.053
 9078POPC   C4A52422   0.393  17.549   7.353
 9078POPC   C1B52423   0.460  17.217   6.453
 9078POPC   C2B52424   0.510  17.297   6.753
 9078POPC   C3B52425   0.487  17.267   7.053
 9078POPC   C4B52426   0.468  17.250   7.353
 9079POPC   NC352427  40.800  29.159   5.553
 9079POPC   PO452428  40.791  29.183   5.853
 9079POPC   GL152429  40.754  29.097   6.153
 9079POPC   GL252430  40.672  29.246   6.153
 9079POPC   C1A52431  40.777  29.103   6.453
 9079POPC   D2A52432  40.827  29.157   6.753
 9079POPC   C3A52433  40.780  29.135   7.053
 9079POPC   C4A52434  40.755  29.138   7.353
 9079POPC   C1B52435  40.584  29.360   6.453
 9079POPC   C2B52436  40.581  29.283   6.753
 9079POPC   C3B52437  40.643  29.333   7.053
 9079POPC   C4B52438  40.579  29.347   7.353
 9080POPC   NC352439  40.055  39.229   5.553
 9080POPC   PO452440  39.999  39.190   5.853
 9080POPC   GL152441  40.016  39.224   6.153
 9080POPC   GL252442  39.837  39.164   6.153
 9080POPC   C1A52443  40.035  39.185   6.453
 9080POPC   D2A52444  40.009  39.265   6.753
 9080POPC   C3A52445  40.031  39.199   7.053
 9080POPC   C4A52446  39.993  39.249   7.353
 9080POPC   C1B52447  39.805  39.241   6.453
 9080POPC   C2B52448  39.790  39.204   6.753
 9080POPC   C3B52449  39.787  39.222   7.053
 9080POPC   C4B52450  39.789  39.144   7.353
 9081POPC   NC352451   0.406  29.875   5.553
 9081POPC   PO452452   0.425  29.929   5.853
 9081POPC   GL152453   0.408  29.931   6.153
 9081POPC   GL252454   0.515  29.809   6.153
 9081POPC   C1A52455   0.432  29.960   6.453
 9081POPC   D2A52456   0.414  29.958   6.753
 9081POPC   C3A52457   0.477  29.903   7.053
 9081POPC   C4A52458   0.438  29.893   7.353
 9081POPC   C1B52459   0.578  29.691   6.453
 9081POPC   C2B52460   0.618  29.762   6.753
 9081POPC   C3B52461   0.601  29.767   7.053
 9081POPC   C4B52462   0.575  29.711   7.353
 9082POPC   NC352463  17.549   2.008   5.553
 9082POPC   PO452464  17.531   2.027   5.853
 9082POPC   GL152465  17.537   2.016   6.153
 9082POPC   GL252466  17.575   2.112   6.153
 9082POPC   C1A52467  17.505   2.017   6.453
 9082POPC   D2A52468  17.468   1.960   6.753
 9082POPC   C3A52469  17.510   2.025   7.053
 9082POPC   C4A52470  17.511   2.024   7.353
 9082POPC   C1B52471  17.569   2.247   6.453
 9082POPC   C2B52472  17.580   2.194   6.753
 9082POPC   C3B52473  17.521   2.236   7.053
 9082POPC   C4B52474  17.533   2.244   7.353
 9083POPC   NC352475  26.032   2.772   5.553
 9083POPC   PO452476  26.027   2.782   5.853
 9083POPC   GL152477  26.064   2.752   6.153
 9083POPC   GL252478  26.077   2.677   6.153
 9083POPC   C1A52479  26.073   2.791   6.453
 9083POPC   D2A52480  26.072   2.743   6.753
 9083POPC   C3A52481  26.090   2.773   7.053
 9083POPC   C4A52482  26.073   2.784   7.353
 9083POPC   C1B52483  26.152   2.535   6.453
 9083POPC   C2B52484  26.197   2.591   6.753
 9083POPC   C3B52485  26.139   2.564   7.053
 9083POPC   C4B52486  26.180   2.519   7.353
 9084POPC   NC352487   8.955  33.065   5.553
 9084POPC   PO452488   8.984  33.003   5.853
 9084POPC   GL152489   8.957  33.001   6.153
 9084POPC   GL252490   8.986  33.158   6.153
 9084POPC   C1A52491   8.957  33.043   6.453
 9084POPC   D2A52492   8.932  33.039   6.753
 9084POPC   C3A52493   8.971  33.043   7.053
 9084POPC   C4A52494   8.971  33.051   7.353
 9084POPC   C1B52495   8.938  33.253   6.453
 9084POPC   C2B52496   8.924  33.258   6.753
 9084POPC   C3B52497   8.918  33.254   7.053
 9084POPC   C4B52498   8.962  33.259   7.353
 9085POPC   NC352499  44.643  23.664   5.553
 9085POPC   PO452500  44.698  23.687   5.853
 9085POPC   GL152501  44.694  23.715   6.153
 9085POPC   GL252502  44.510  23.662   6.153
 9085POPC   C1A52503  44.617  23.741   6.453
 9085POPC   D2A52504  44.664  23.758   6.753
 9085POPC   C3A52505  44.635  23.678   7.053
 9085POPC   C4A52506  44.656  23.666   7.353
 9085POPC   C1B52507  44.402  23.660   6.453
 9085POPC   C2B52508  44.385  23.723   6.753
 9085POPC   C3B52509  44.420  23.660   7.053
 9085POPC   C4B52510  44.414  23.730   7.353
 9086POPC   NC352511  40.778  12.101   5.553
 9086POPC   PO452512  40.822  12.111   5.853
 9086POPC   GL152513  40.745  12.058   6.153
 9086POPC   GL252514  40.918  12.138   6.153
 9086POPC   C1A52515  40.809  12.027   6.453
 9086POPC   D2A52516  40.803  12.112   6.753
 9086POPC   C3A52517  40.774  12.069   7.053
 9086POPC   C4A52518  40.802  12.089   7.353
 9086POPC   C1B52519  41.013  12.136   6.453
 9086POPC   C2B52520  41.025  12.120   6.753
 9086POPC   C3B52521  40.989  12.149   7.053
 9086POPC   C4B52522  41.005  12.124   7.353
 9087POPC   NC352523   4.292  26.823   5.553
 9087POPC   PO452524   4.281  26.799   5.853
 9087POPC   GL152525   4.316  26.854   6.153
 9087POPC   GL252526   4.205  26.700   6.153
 9087POPC   C1A52527   4.288  26.866   6.453
 9087POPC   D2A52528   4.333  26.814   6.753
 9087POPC   C3A52529   4.295  26.808   7.053
 9087POPC   C4A52530   4.288  26.847   7.353
 9087POPC   C1B52531   4.105  26.707   6.453
 9087POPC   C2B52532   4.150  26.690   6.753
 9087POPC   C3B52533   4.158  26.717   7.053
 9087POPC   C4B52534   4.149  26.712   7.353
 9088POPC   NC352535  27.549  43.092   5.553
 9088POPC   PO452536  27.574  43.072   5.853
 9088POPC   GL152537  27.564  43.064   6.153
 9088POPC   GL252538  27.659  43.027   6.153
 9088POPC   C1A52539  27.573  43.080   6.453
 9088POPC   D2A52540  27.616  43.080   6.753
 9088POPC   C3A52541  27.633  43.106   7.053
 9088POPC   C4A52542  27.634  43.071   7.353
 9088POPC   C1B52543  27.590  42.829   6.453
 9088POPC   C2B52544  27.626  42.877   6.753
 9088POPC   C3B52545  27.668  42.823   7.053
 9088POPC   C4B52546  27.605  42.834   7.353
 9089POPC   NC352547  32.218  12.095   5.553
 9089POPC   PO452548  32.210  12.052   5.853
 9089POPC   GL152549  32.240  12.093   6.153
 9089POPC   GL252550  32.233  11.981   6.153
 9089POPC   C1A52551  32.260  12.094   6.453
 9089POPC   D2A52552  32.256  12.078   6.753
 9089POPC   C3A52553  32.269  12.076   7.053
 9089POPC   C4A52554  32.244  12.071   7.353
 9089POPC   C1B52555  32.141  11.815   6.453
 9089POPC   C2B52556  32.150  11.821   6.753
 9089POPC   C3B52557  32.194  11.796   7.053
 9089POPC   C4B52558  32.140  11.803   7.353
 9090POPC   NC352559  22.913  44.624   5.553
 9090POPC   PO452560  22.913  44.673   5.853
 9090POPC   GL152561  22.895  44.702   6.153
 9090POPC   GL252562  22.806  44.620   6.153
 9090POPC   C1A52563  22.939  44.673   6.453
 9090POPC   D2A52564  22.948  44.700   6.753
 9090POPC   C3A52565  22.946  44.648   7.053
 9090POPC   C4A52566  22.923  44.701   7.353
 9090POPC   C1B52567  22.738  44.534   6.453
 9090POPC   C2B52568  22.704  44.512   6.753
 9090POPC   C3B52569  22.692  44.461   7.053
 9090POPC   C4B52570  22.753  44.495   7.353
 9091POPC   NC352571  34.536  26.845   5.553
 9091POPC   PO452572  34.564  26.857   5.853
 9091POPC   GL152573  34.530  26.779   6.153
 9091POPC   GL252574  34.451  26.851   6.153
 9091POPC   C1A52575  34.594  26.807   6.453
 9091POPC   D2A52576  34.577  26.853   6.753
 9091POPC   C3A52577  34.555  26.839   7.053
 9091POPC   C4A52578  34.599  26.859   7.353
 9091POPC   C1B52579  34.311  26.801   6.453
 9091POPC   C2B52580  34.339  26.861   6.753
 9091POPC   C3B52581  34.310  26.843   7.053
 9091POPC   C4B52582  34.352  26.855   7.353
 9092POPC   NC352583   8.923  38.422   5.553
 9092POPC   PO452584   8.986  38.474   5.853
 9092POPC   GL152585   8.928  38.411   6.153
 9092POPC   GL252586   8.821  38.496   6.153
 9092POPC   C1A52587   8.926  38.480   6.453
 9092POPC   D2A52588   8.956  38.497   6.753
 9092POPC   C3A52589   9.015  38.468   7.053
 9092POPC   C4A52590   8.970  38.445   7.353
 9092POPC   C1B52591   8.776  38.559   6.453
 9092POPC   C2B52592   8.719  38.593   6.753
 9092POPC   C3B52593   8.739  38.506   7.053
 9092POPC   C4B52594   8.772  38.539   7.353
 9093POPC   NC352595   9.745  22.961   5.553
 9093POPC   PO452596   9.753  22.889   5.853
 9093POPC   GL152597   9.733  22.913   6.153
 9093POPC   GL252598   9.872  22.910   6.153
 9093POPC   C1A52599   9.757  22.925   6.453
 9093POPC   D2A52600   9.794  22.954   6.753
 9093POPC   C3A52601   9.774  22.958   7.053
 9093POPC   C4A52602   9.755  22.945   7.353
 9093POPC   C1B52603   9.985  22.795   6.453
 9093POPC   C2B52604   9.917  22.800   6.753
 9093POPC   C3B52605   9.989  22.795   7.053
 9093POPC   C4B52606  10.001  22.794   7.353
 9094POPC   NC352607  10.504   3.507   5.553
 9094POPC   PO452608  10.486   3.512   5.853
 9094POPC   GL152609  10.540   3.496   6.153
 9094POPC   GL252610  10.585   3.675   6.153
 9094POPC   C1A52611  10.538   3.562   6.453
 9094POPC   D2A52612  10.534   3.529   6.753
 9094POPC   C3A52613  10.563   3.568   7.053
 9094POPC   C4A52614  10.506   3.506   7.353
 9094POPC   C1B52615  10.687   3.726   6.453
 9094POPC   C2B52616  10.654   3.772   6.753
 9094POPC   C3B52617  10.628   3.710   7.053
 9094POPC   C4B52618  10.637   3.708   7.353
 9095POPC   NC352619   7.371  14.425   5.553
 9095POPC   PO452620   7.457  14.369   5.853
 9095POPC   GL152621   7.457  14.436   6.153
 9095POPC   GL252622   7.358  14.389   6.153
 9095POPC   C1A52623   7.456  14.392   6.453
 9095POPC   D2A52624   7.447  14.398   6.753
 9095POPC   C3A52625   7.419  14.398   7.053
 9095POPC   C4A52626   7.436  14.436   7.353
 9095POPC   C1B52627   7.211  14.281   6.453
 9095POPC   C2B52628   7.167  14.285   6.753
 9095POPC   C3B52629   7.238  14.240   7.053
 9095POPC   C4B52630   7.193  14.238   7.353
 9096POPC   NC352631  36.145  25.266   5.553
 9096POPC   PO452632  36.139  25.289   5.853
 9096POPC   GL152633  36.079  25.272   6.153
 9096POPC   GL252634  36.141  25.188   6.153
 9096POPC   C1A52635  36.086  25.219   6.453
 9096POPC   D2A52636  36.145  25.287   6.753
 9096POPC   C3A52637  36.171  25.302   7.053
 9096POPC   C4A52638  36.095  25.237   7.353
 9096POPC   C1B52639  36.110  25.042   6.453
 9096POPC   C2B52640  36.043  25.006   6.753
 9096POPC   C3B52641  36.111  25.010   7.053
 9096POPC   C4B52642  36.088  25.040   7.353
 9097POPC   NC352643   0.409  36.914   5.553
 9097POPC   PO452644   0.462  36.905   5.853
 9097POPC   GL152645   0.398  36.879   6.153
 9097POPC   GL252646   0.495  36.947   6.153
 9097POPC   C1A52647   0.467  36.934   6.453
 9097POPC   D2A52648   0.438  36.890   6.753
 9097POPC   C3A52649   0.450  36.900   7.053
 9097POPC   C4A52650   0.420  36.865   7.353
 9097POPC   C1B52651   0.647  37.042   6.453
 9097POPC   C2B52652   0.690  37.043   6.753
 9097POPC   C3B52653   0.640  37.024   7.053
 9097POPC   C4B52654   0.672  37.013   7.353
 9098POPC   NC352655  29.134  40.798   5.553
 9098POPC   PO452656  29.108  40.805   5.853
 9098POPC   GL152657  29.122  40.807   6.153
 9098POPC   GL252658  29.160  40.674   6.153
 9098POPC   C1A52659  29.140  40.773   6.453
 9098POPC   D2A52660  29.145  40.751   6.753
 9098POPC   C3A52661  29.185  40.792   7.053
 9098POPC   C4A52662  29.183  40.776   7.353
 9098POPC   C1B52663  29.220  40.516   6.453
 9098POPC   C2B52664  29.157  40.541   6.753
 9098POPC   C3B52665  29.216  40.495   7.053
 9098POPC   C4B52666  29.166  40.530   7.353
 9099POPC   NC352667   5.137  24.493   5.553
 9099POPC   PO452668   5.065  24.493   5.853
 9099POPC   GL152669   5.117  24.517   6.153
 9099POPC   GL252670   5.080  24.623   6.153
 9099POPC   C1A52671   5.120  24.473   6.453
 9099POPC   D2A52672   5.081  24.521   6.753
 9099POPC   C3A52673   5.052  24.455   7.053
 9099POPC   C4A52674   5.058  24.454   7.353
 9099POPC   C1B52675   5.170  24.760   6.453
 9099POPC   C2B52676   5.192  24.691   6.753
 9099POPC   C3B52677   5.207  24.702   7.053
 9099POPC   C4B52678   5.204  24.743   7.353
 9100POPC   NC352679  39.238  19.086   5.553
 9100POPC   PO452680  39.275  19.081   5.853
 9100POPC   GL152681  39.273  19.022   6.153
 9100POPC   GL252682  39.179  18.939   6.153
 9100POPC   C1A52683  39.254  19.096   6.453
 9100POPC   D2A52684  39.187  19.080   6.753
 9100POPC   C3A52685  39.258  19.091   7.053
 9100POPC   C4A52686  39.250  19.017   7.353
 9100POPC   C1B52687  39.112  18.906   6.453
 9100POPC   C2B52688  39.114  18.879   6.753
 9100POPC   C3B52689  39.090  18.877   7.053
 9100POPC   C4B52690  39.107  18.826   7.353
 9101POPC   NC352691  26.041  13.621   5.553
 9101POPC   PO452692  26.020  13.660   5.853
 9101POPC   GL152693  26.060  13.637   6.153
 9101POPC   GL252694  26.179  13.523   6.153
 9101POPC   C1A52695  26.041  13.580   6.453
 9101POPC   D2A52696  26.039  13.642   6.753
 9101POPC   C3A52697  25.996  13.586   7.053
 9101POPC   C4A52698  26.083  13.635   7.353
 9101POPC   C1B52699  26.215  13.482   6.453
 9101POPC   C2B52700  26.259  13.433   6.753
 9101POPC   C3B52701  26.244  13.436   7.053
 9101POPC   C4B52702  26.254  13.502   7.353
 9102POPC   NC352703  35.358  18.326   5.553
 9102POPC   PO452704  35.371  18.307   5.853
 9102POPC   GL152705  35.368  18.308   6.153
 9102POPC   GL252706  35.242  18.345   6.153
 9102POPC   C1A52707  35.396  18.244   6.453
 9102POPC   D2A52708  35.309  18.257   6.753
 9102POPC   C3A52709  35.393  18.305   7.053
 9102POPC   C4A52710  35.325  18.241   7.353
 9102POPC   C1B52711  35.118  18.351   6.453
 9102POPC   C2B52712  35.119  18.410   6.753
 9102POPC   C3B52713  35.147  18.382   7.053
 9102POPC   C4B52714  35.076  18.414   7.353
 9103POPC   NC352715  16.689  44.681   5.553
 9103POPC   PO452716  16.705  44.709   5.853
 9103POPC   GL152717  16.766  44.671   6.153
 9103POPC   GL252718  16.630  44.736   6.153
 9103POPC   C1A52719  16.707  44.643   6.453
 9103POPC   D2A52720  16.746  44.616   6.753
 9103POPC   C3A52721  16.683  44.646   7.053
 9103POPC   C4A52722  16.765  44.707   7.353
 9103POPC   C1B52723  16.530  44.670   6.453
 9103POPC   C2B52724  16.495  44.718   6.753
 9103POPC   C3B52725  16.538  44.709   7.053
 9103POPC   C4B52726  16.508  44.763   7.353
 9104POPC   NC352727  33.783   1.954   5.553
 9104POPC   PO452728  33.805   2.023   5.853
 9104POPC   GL152729  33.757   1.958   6.153
 9104POPC   GL252730  33.630   2.027   6.153
 9104POPC   C1A52731  33.806   1.999   6.453
 9104POPC   D2A52732  33.756   2.024   6.753
 9104POPC   C3A52733  33.769   1.966   7.053
 9104POPC   C4A52734  33.815   1.993   7.353
 9104POPC   C1B52735  33.503   1.956   6.453
 9104POPC   C2B52736  33.514   2.009   6.753
 9104POPC   C3B52737  33.595   1.928   7.053
 9104POPC   C4B52738  33.516   1.927   7.353
 9105POPC   NC352739  26.778  42.287   5.553
 9105POPC   PO452740  26.829  42.369   5.853
 9105POPC   GL152741  26.768  42.361   6.153
 9105POPC   GL252742  26.896  42.300   6.153
 9105POPC   C1A52743  26.794  42.340   6.453
 9105POPC   D2A52744  26.793  42.367   6.753
 9105POPC   C3A52745  26.864  42.356   7.053
 9105POPC   C4A52746  26.822  42.357   7.353
 9105POPC   C1B52747  27.084  42.263   6.453
 9105POPC   C2B52748  27.058  42.298   6.753
 9105POPC   C3B52749  27.054  42.240   7.053
 9105POPC   C4B52750  27.095  42.293   7.353
 9106POPC   NC352751   9.007  14.375   5.553
 9106POPC   PO452752   8.970  14.451   5.853
 9106POPC   GL152753   9.020  14.393   6.153
 9106POPC   GL252754   9.036  14.242   6.153
 9106POPC   C1A52755   8.978  14.444   6.453
 9106POPC   D2A52756   8.966  14.429   6.753
 9106POPC   C3A52757   8.942  14.371   7.053
 9106POPC   C4A52758   8.958  14.449   7.353
 9106POPC   C1B52759   9.101  14.210   6.453
 9106POPC   C2B52760   9.078  14.210   6.753
 9106POPC   C3B52761   9.104  14.147   7.053
 9106POPC   C4B52762   9.038  14.204   7.353
 9107POPC   NC352763   6.654  40.748   5.553
 9107POPC   PO452764   6.662  40.782   5.853
 9107POPC   GL152765   6.630  40.817   6.153
 9107POPC   GL252766   6.531  40.833   6.153
 9107POPC   C1A52767   6.665  40.770   6.453
 9107POPC   D2A52768   6.661  40.789   6.753
 9107POPC   C3A52769   6.673  40.748   7.053
 9107POPC   C4A52770   6.672  40.811   7.353
 9107POPC   C1B52771   6.349  40.858   6.453
 9107POPC   C2B52772   6.424  40.810   6.753
 9107POPC   C3B52773   6.405  40.844   7.053
 9107POPC   C4B52774   6.437  40.839   7.353
 9108POPC   NC352775   1.216  31.456   5.553
 9108POPC   PO452776   1.189  31.430   5.853
 9108POPC   GL152777   1.176  31.439   6.153
 9108POPC   GL252778   1.066  31.507   6.153
 9108POPC   C1A52779   1.201  31.432   6.453
 9108POPC   D2A52780   1.175  31.472   6.753
 9108POPC   C3A52781   1.176  31.437   7.053
 9108POPC   C4A52782   1.180  31.439   7.353
 9108POPC   C1B52783   0.956  31.563   6.453
 9108POPC   C2B52784   0.988  31.535   6.753
 9108POPC   C3B52785   0.932  31.522   7.053
 9108POPC   C4B52786   0.955  31.560   7.353
 9109POPC   NC352787  30.710  15.192   5.553
 9109POPC   PO452788  30.648  15.201   5.853
 9109POPC   GL152789  30.668  15.147   6.153
 9109POPC   GL252790  30.736  15.316   6.153
 9109POPC   C1A52791  30.651  15.162   6.453
 9109POPC   D2A52792  30.678  15.208   6.753
 9109POPC   C3A52793  30.705  15.147   7.053
 9109POPC   C4A52794  30.745  15.158   7.353
 9109POPC   C1B52795  30.735  15.381   6.453
 9109POPC   C2B52796  30.653  15.387   6.753
 9109POPC   C3B52797  30.677  15.452   7.053
 9109POPC   C4B52798  30.647  15.409   7.353
 9110POPC   NC352799  24.479   8.182   5.553
 9110POPC   PO452800  24.524   8.204   5.853
 9110POPC   GL152801  24.443   8.188   6.153
 9110POPC   GL252802  24.422   8.063   6.153
 9110POPC   C1A52803  24.450   8.153   6.453
 9110POPC   D2A52804  24.470   8.181   6.753
 9110POPC   C3A52805  24.502   8.205   7.053
 9110POPC   C4A52806  24.534   8.220   7.353
 9110POPC   C1B52807  24.404   7.947   6.453
 9110POPC   C2B52808  24.372   8.005   6.753
 9110POPC   C3B52809  24.322   7.951   7.053
 9110POPC   C4B52810  24.369   7.951   7.353
 9111POPC   NC352811  26.769   2.768   5.553
 9111POPC   PO452812  26.812   2.752   5.853
 9111POPC   GL152813  26.852   2.803   6.153
 9111POPC   GL252814  26.815   2.884   6.153
 9111POPC   C1A52815  26.773   2.761   6.453
 9111POPC   D2A52816  26.772   2.755   6.753
 9111POPC   C3A52817  26.806   2.777   7.053
 9111POPC   C4A52818  26.814   2.740   7.353
 9111POPC   C1B52819  26.936   3.045   6.453
 9111POPC   C2B52820  26.907   3.052   6.753
 9111POPC   C3B52821  26.913   2.982   7.053
 9111POPC   C4B52822  26.857   3.002   7.353
 9112POPC   NC352823  29.898  17.555   5.553
 9112POPC   PO452824  29.962  17.497   5.853
 9112POPC   GL152825  29.962  17.457   6.153
 9112POPC   GL252826  29.937  17.426   6.153
 9112POPC   C1A52827  29.896  17.509   6.453
 9112POPC   D2A52828  29.923  17.548   6.753
 9112POPC   C3A52829  29.887  17.552   7.053
 9112POPC   C4A52830  29.921  17.509   7.353
 9112POPC   C1B52831  29.958  17.282   6.453
 9112POPC   C2B52832  29.952  17.290   6.753
 9112POPC   C3B52833  29.938  17.272   7.053
 9112POPC   C4B52834  29.949  17.287   7.353
 9113POPC   NC352835  15.187  18.258   5.553
 9113POPC   PO452836  15.225  18.309   5.853
 9113POPC   GL152837  15.139  18.320   6.153
 9113POPC   GL252838  15.203  18.154   6.153
 9113POPC   C1A52839  15.180  18.234   6.453
 9113POPC   D2A52840  15.159  18.304   6.753
 9113POPC   C3A52841  15.152  18.259   7.053
 9113POPC   C4A52842  15.171  18.254   7.353
 9113POPC   C1B52843  15.165  17.989   6.453
 9113POPC   C2B52844  15.128  18.005   6.753
 9113POPC   C3B52845  15.096  18.080   7.053
 9113POPC   C4B52846  15.165  18.001   7.353
 9114POPC   NC352847  16.726  19.863   5.553
 9114POPC   PO452848  16.700  19.875   5.853
 9114POPC   GL152849  16.705  19.825   6.153
 9114POPC   GL252850  16.640  19.922   6.153
 9114POPC   C1A52851  16.750  19.797   6.453
 9114POPC   D2A52852  16.682  19.836   6.753
 9114POPC   C3A52853  16.728  19.836   7.053
 9114POPC   C4A52854  16.773  19.847   7.353
 9114POPC   C1B52855  16.495  19.957   6.453
 9114POPC   C2B52856  16.507  20.031   6.753
 9114POPC   C3B52857  16.489  20.012   7.053
 9114POPC   C4B52858  16.565  20.015   7.353
 9115POPC   NC352859   9.760  16.773   5.553
 9115POPC   PO452860   9.726  16.709   5.853
 9115POPC   GL152861   9.748  16.714   6.153
 9115POPC   GL252862   9.864  16.735   6.153
 9115POPC   C1A52863   9.756  16.724   6.453
 9115POPC   D2A52864   9.798  16.722   6.753
 9115POPC   C3A52865   9.702  16.773   7.053
 9115POPC   C4A52866   9.766  16.715   7.353
 9115POPC   C1B52867  10.000  16.735   6.453
 9115POPC   C2B52868   9.955  16.778   6.753
 9115POPC   C3B52869  10.043  16.754   7.053
 9115POPC   C4B52870   9.982  16.750   7.353
 9116POPC   NC352871  26.040   8.162   5.553
 9116POPC   PO452872  26.037   8.234   5.853
 9116POPC   GL152873  26.004   8.165   6.153
 9116POPC   GL252874  26.035   8.314   6.153
 9116POPC   C1A52875  26.080   8.230   6.453
 9116POPC   D2A52876  25.991   8.211   6.753
 9116POPC   C3A52877  26.043   8.197   7.053
 9116POPC   C4A52878  26.039   8.205   7.353
 9116POPC   C1B52879  25.982   8.428   6.453
 9116POPC   C2B52880  25.973   8.416   6.753
 9116POPC   C3B52881  25.966   8.437   7.053
 9116POPC   C4B52882  25.888   8.446   7.353
 9117POPC   NC352883   8.931  39.271   5.553
 9117POPC   PO452884   9.003  39.247   5.853
 9117POPC   GL152885   8.970  39.196   6.153
 9117POPC   GL252886   9.039  39.117   6.153
 9117POPC   C1A52887   8.982  39.206   6.453
 9117POPC   D2A52888   8.960  39.238   6.753
 9117POPC   C3A52889   8.937  39.207   7.053
 9117POPC   C4A52890   9.016  39.225   7.353
 9117POPC   C1B52891   9.105  38.957   6.453
 9117POPC   C2B52892   9.053  39.024   6.753
 9117POPC   C3B52893   9.068  38.984   7.053
 9117POPC   C4B52894   9.124  39.029   7.353
 9118POPC   NC352895  21.365  22.132   5.553
 9118POPC   PO452896  21.341  22.143   5.853
 9118POPC   GL152897  21.411  22.141   6.153
 9118POPC   GL252898  21.401  22.241   6.153
 9118POPC   C1A52899  21.378  22.175   6.453
 9118POPC   D2A52900  21.353  22.117   6.753
 9118POPC   C3A52901  21.412  22.154   7.053
 9118POPC   C4A52902  21.413  22.128   7.353
 9118POPC   C1B52903  21.323  22.459   6.453
 9118POPC   C2B52904  21.413  22.388   6.753
 9118POPC   C3B52905  21.367  22.380   7.053
 9118POPC   C4B52906  21.409  22.387   7.353
 9119POPC   NC352907   0.392  22.204   5.553
 9119POPC   PO452908   0.452  22.192   5.853
 9119POPC   GL152909   0.468  22.147   6.153
 9119POPC   GL252910   0.300  22.101   6.153
 9119POPC   C1A52911   0.465  22.131   6.453
 9119POPC   D2A52912   0.409  22.182   6.753
 9119POPC   C3A52913   0.466  22.132   7.053
 9119POPC   C4A52914   0.428  22.172   7.353
 9119POPC   C1B52915   0.178  22.086   6.453
 9119POPC   C2B52916   0.194  22.168   6.753
 9119POPC   C3B52917   0.199  22.160   7.053
 9119POPC   C4B52918   0.214  22.075   7.353
 9120POPC   NC352919  26.844  15.205   5.553
 9120POPC   PO452920  26.787  15.132   5.853
 9120POPC   GL152921  26.796  15.150   6.153
 9120POPC   GL252922  26.675  15.276   6.153
 9120POPC   C1A52923  26.771  15.221   6.453
 9120POPC   D2A52924  26.842  15.203   6.753
 9120POPC   C3A52925  26.771  15.158   7.053
 9120POPC   C4A52926  26.818  15.140   7.353
 9120POPC   C1B52927  26.645  15.313   6.453
 9120POPC   C2B52928  26.607  15.310   6.753
 9120POPC   C3B52929  26.595  15.278   7.053
 9120POPC   C4B52930  26.563  15.340   7.353
 9121POPC   NC352931   1.220  22.921   5.553
 9121POPC   PO452932   1.179  22.944   5.853
 9121POPC   GL152933   1.253  22.956   6.153
 9121POPC   GL252934   1.348  22.826   6.153
 9121POPC   C1A52935   1.259  22.941   6.453
 9121POPC   D2A52936   1.188  22.928   6.753
 9121POPC   C3A52937   1.251  22.925   7.053
 9121POPC   C4A52938   1.184  22.899   7.353
 9121POPC   C1B52939   1.352  22.770   6.453
 9121POPC   C2B52940   1.422  22.767   6.753
 9121POPC   C3B52941   1.355  22.768   7.053
 9121POPC   C4B52942   1.403  22.709   7.353
 9122POPC   NC352943  24.535   1.226   5.553
 9122POPC   PO452944  24.449   1.221   5.853
 9122POPC   GL152945  24.447   1.247   6.153
 9122POPC   GL252946  24.409   1.337   6.153
 9122POPC   C1A52947  24.444   1.176   6.453
 9122POPC   D2A52948  24.483   1.259   6.753
 9122POPC   C3A52949  24.519   1.166   7.053
 9122POPC   C4A52950  24.479   1.261   7.353
 9122POPC   C1B52951  24.343   1.381   6.453
 9122POPC   C2B52952  24.296   1.378   6.753
 9122POPC   C3B52953  24.304   1.397   7.053
 9122POPC   C4B52954  24.264   1.422   7.353
 9123POPC   NC352955   4.321  31.504   5.553
 9123POPC   PO452956   4.271  31.492   5.853
 9123POPC   GL152957   4.360  31.436   6.153
 9123POPC   GL252958   4.453  31.417   6.153
 9123POPC   C1A52959   4.364  31.500   6.453
 9123POPC   D2A52960   4.341  31.488   6.753
 9123POPC   C3A52961   4.290  31.516   7.053
 9123POPC   C4A52962   4.327  31.515   7.353
 9123POPC   C1B52963   4.599  31.425   6.453
 9123POPC   C2B52964   4.551  31.423   6.753
 9123POPC   C3B52965   4.572  31.391   7.053
 9123POPC   C4B52966   4.604  31.458   7.353
 9124POPC   NC352967   4.353  11.261   5.553
 9124POPC   PO452968   4.296  11.274   5.853
 9124POPC   GL152969   4.302  11.251   6.153
 9124POPC   GL252970   4.397  11.238   6.153
 9124POPC   C1A52971   4.349  11.343   6.453
 9124POPC   D2A52972   4.301  11.292   6.753
 9124POPC   C3A52973   4.270  11.276   7.053
 9124POPC   C4A52974   4.275  11.260   7.353
 9124POPC   C1B52975   4.541  11.125   6.453
 9124POPC   C2B52976   4.484  11.129   6.753
 9124POPC   C3B52977   4.450  11.133   7.053
 9124POPC   C4B52978   4.515  11.097   7.353
 9125POPC   NC352979  44.709  12.835   5.553
 9125POPC   PO452980  44.660  12.845   5.853
 9125POPC   GL152981  44.619  12.894   6.153
 9125POPC   GL252982  44.580  12.947   6.153
 9125POPC   C1A52983  44.618  12.859   6.453
 9125POPC   D2A52984  44.667  12.900   6.753
 9125POPC   C3A52985  44.629  12.852   7.053
 9125POPC   C4A52986  44.623  12.802   7.353
 9125POPC   C1B52987  44.625  13.101   6.453
 9125POPC   C2B52988  44.568  13.122   6.753
 9125POPC   C3B52989  44.603  13.115   7.053
 9125POPC   C4B52990  44.583  13.118   7.353
 9126POPC   NC352991  16.740  43.134   5.553
 9126POPC   PO452992  16.766  43.129   5.853
 9126POPC   GL152993  16.774  43.081   6.153
 9126POPC   GL252994  16.829  43.062   6.153
 9126POPC   C1A52995  16.748  43.099   6.453
 9126POPC   D2A52996  16.717  43.118   6.753
 9126POPC   C3A52997  16.765  43.109   7.053
 9126POPC   C4A52998  16.767  43.100   7.353
 9126POPC   C1B52999  16.977  43.055   6.453
 9126POPC   C2B53000  16.953  43.060   6.753
 9126POPC   C3B53001  16.981  43.110   7.053
 9126POPC   C4B53002  16.935  43.050   7.353
 9127POPC   NC353003   7.383  32.246   5.553
 9127POPC   PO453004   7.430  32.213   5.853
 9127POPC   GL153005   7.465  32.205   6.153
 9127POPC   GL253006   7.424  32.390   6.153
 9127POPC   C1A53007   7.420  32.199   6.453
 9127POPC   D2A53008   7.421  32.253   6.753
 9127POPC   C3A53009   7.468  32.281   7.053
 9127POPC   C4A53010   7.440  32.258   7.353
 9127POPC   C1B53011   7.459  32.471   6.453
 9127POPC   C2B53012   7.502  32.511   6.753
 9127POPC   C3B53013   7.518  32.489   7.053
 9127POPC   C4B53014   7.441  32.477   7.353
 9128POPC   NC353015  13.659  20.561   5.553
 9128POPC   PO453016  13.608  20.571   5.853
 9128POPC   GL153017  13.663  20.607   6.153
 9128POPC   GL253018  13.758  20.630   6.153
 9128POPC   C1A53019  13.614  20.638   6.453
 9128POPC   D2A53020  13.662  20.598   6.753
 9128POPC   C3A53021  13.668  20.570   7.053
 9128POPC   C4A53022  13.611  20.613   7.353
 9128POPC   C1B53023  13.867  20.694   6.453
 9128POPC   C2B53024  13.856  20.668   6.753
 9128POPC   C3B53025  13.822  20.669   7.053
 9128POPC   C4B53026  13.878  20.708   7.353
 9129POPC   NC353027  27.617  11.328   5.553
 9129POPC   PO453028  27.638  11.258   5.853
 9129POPC   GL153029  27.549  11.335   6.153
 9129POPC   GL253030  27.646  11.230   6.153
 9129POPC   C1A53031  27.623  11.294   6.453
 9129POPC   D2A53032  27.633  11.335   6.753
 9129POPC   C3A53033  27.639  11.314   7.053
 9129POPC   C4A53034  27.592  11.319   7.353
 9129POPC   C1B53035  27.763  11.123   6.453
 9129POPC   C2B53036  27.765  11.158   6.753
 9129POPC   C3B53037  27.766  11.116   7.053
 9129POPC   C4B53038  27.741  11.163   7.353
 9130POPC   NC353039  38.455   5.053   5.553
 9130POPC   PO453040  38.476   5.062   5.853
 9130POPC   GL153041  38.459   5.128   6.153
 9130POPC   GL253042  38.362   5.027   6.153
 9130POPC   C1A53043  38.458   5.097   6.453
 9130POPC   D2A53044  38.407   5.069   6.753
 9130POPC   C3A53045  38.447   5.052   7.053
 9130POPC   C4A53046  38.422   5.137   7.353
 9130POPC   C1B53047  38.269   4.842   6.453
 9130POPC   C2B53048  38.285   4.916   6.753
 9130POPC   C3B53049  38.319   4.894   7.053
 9130POPC   C4B53050  38.343   4.895   7.353
 9131POPC   NC353051  21.392  43.909   5.553
 9131POPC   PO453052  21.415  43.893   5.853
 9131POPC   GL153053  21.345  43.899   6.153
 9131POPC   GL253054  21.315  44.021   6.153
 9131POPC   C1A53055  21.367  43.927   6.453
 9131POPC   D2A53056  21.365  43.913   6.753
 9131POPC   C3A53057  21.419  43.913   7.053
 9131POPC   C4A53058  21.416  43.881   7.353
 9131POPC   C1B53059  21.244  44.047   6.453
 9131POPC   C2B53060  21.261  44.073   6.753
 9131POPC   C3B53061  21.201  44.079   7.053
 9131POPC   C4B53062  21.252  44.076   7.353
 9132POPC   NC353063   8.182  39.221   5.553
 9132POPC   PO453064   8.171  39.236   5.853
 9132POPC   GL153065   8.187  39.276   6.153
 9132POPC   GL253066   8.143  39.107   6.153
 9132POPC   C1A53067   8.222  39.197   6.453
 9132POPC   D2A53068   8.176  39.266   6.753
 9132POPC   C3A53069   8.213  39.219   7.053
 9132POPC   C4A53070   8.227  39.189   7.353
 9132POPC   C1B53071   8.016  39.049   6.453
 9132POPC   C2B53072   8.040  39.066   6.753
 9132POPC   C3B53073   8.016  39.022   7.053
 9132POPC   C4B53074   8.014  39.079   7.353
 9133POPC   NC353075  33.780  43.111   5.553
 9133POPC   PO453076  33.767  43.129   5.853
 9133POPC   GL153077  33.833  43.106   6.153
 9133POPC   GL253078  33.722  43.202   6.153
 9133POPC   C1A53079  33.819  43.087   6.453
 9133POPC   D2A53080  33.823  43.158   6.753
 9133POPC   C3A53081  33.808  43.134   7.053
 9133POPC   C4A53082  33.844  43.111   7.353
 9133POPC   C1B53083  33.728  43.400   6.453
 9133POPC   C2B53084  33.766  43.372   6.753
 9133POPC   C3B53085  33.716  43.306   7.053
 9133POPC   C4B53086  33.749  43.398   7.353
 9134POPC   NC353087  40.010   9.717   5.553
 9134POPC   PO453088  39.963   9.746   5.853
 9134POPC   GL153089  40.044   9.770   6.153
 9134POPC   GL253090  39.931   9.769   6.153
 9134POPC   C1A53091  39.982   9.760   6.453
 9134POPC   D2A53092  40.018   9.745   6.753
 9134POPC   C3A53093  40.007   9.708   7.053
 9134POPC   C4A53094  40.015   9.753   7.353
 9134POPC   C1B53095  39.796   9.745   6.453
 9134POPC   C2B53096  39.804   9.783   6.753
 9134POPC   C3B53097  39.711   9.791   7.053
 9134POPC   C4B53098  39.729   9.771   7.353
 9135POPC   NC353099   2.799  12.030   5.553
 9135POPC   PO453100   2.767  12.040   5.853
 9135POPC   GL153101   2.735  12.110   6.153
 9135POPC   GL253102   2.700  11.921   6.153
 9135POPC   C1A53103   2.727  12.083   6.453
 9135POPC   D2A53104   2.802  12.038   6.753
 9135POPC   C3A53105   2.743  12.029   7.053
 9135POPC   C4A53106   2.748  12.050   7.353
 9135POPC   C1B53107   2.632  11.897   6.453
 9135POPC   C2B53108   2.680  11.832   6.753
 9135POPC   C3B53109   2.654  11.865   7.053
 9135POPC   C4B53110   2.670  11.819   7.353
 9136POPC   NC353111  16.682  32.227   5.553
 9136POPC   PO453112  16.721  32.293   5.853
 9136POPC   GL153113  16.759  32.281   6.153
 9136POPC   GL253114  16.589  32.223   6.153
 9136POPC   C1A53115  16.717  32.202   6.453
 9136POPC   D2A53116  16.755  32.298   6.753
 9136POPC   C3A53117  16.697  32.297   7.053
 9136POPC   C4A53118  16.760  32.209   7.353
 9136POPC   C1B53119  16.471  32.205   6.453
 9136POPC   C2B53120  16.507  32.195   6.753
 9136POPC   C3B53121  16.443  32.156   7.053
 9136POPC   C4B53122  16.453  32.180   7.353
 9137POPC   NC353123   3.492  29.174   5.553
 9137POPC   PO453124   3.585  29.136   5.853
 9137POPC   GL153125   3.579  29.102   6.153
 9137POPC   GL253126   3.572  29.268   6.153
 9137POPC   C1A53127   3.576  29.102   6.453
 9137POPC   D2A53128   3.511  29.191   6.753
 9137POPC   C3A53129   3.496  29.107   7.053
 9137POPC   C4A53130   3.531  29.173   7.353
 9137POPC   C1B53131   3.498  29.405   6.453
 9137POPC   C2B53132   3.465  29.428   6.753
 9137POPC   C3B53133   3.462  29.426   7.053
 9137POPC   C4B53134   3.517  29.348   7.353
 9138POPC   NC353135  12.821  43.867   5.553
 9138POPC   PO453136  12.861  43.894   5.853
 9138POPC   GL153137  12.845  43.877   6.153
 9138POPC   GL253138  12.883  43.829   6.153
 9138POPC   C1A53139  12.900  43.900   6.453
 9138POPC   D2A53140  12.862  43.917   6.753
 9138POPC   C3A53141  12.847  43.855   7.053
 9138POPC   C4A53142  12.807  43.865   7.353
 9138POPC   C1B53143  13.022  43.668   6.453
 9138POPC   C2B53144  13.006  43.628   6.753
 9138POPC   C3B53145  12.985  43.692   7.053
 9138POPC   C4B53146  12.951  43.674   7.353
 9139POPC   NC353147  22.890   1.215   5.553
 9139POPC   PO453148  22.945   1.169   5.853
 9139POPC   GL153149  22.974   1.173   6.153
 9139POPC   GL253150  22.920   1.118   6.153
 9139POPC   C1A53151  22.900   1.181   6.453
 9139POPC   D2A53152  22.983   1.244   6.753
 9139POPC   C3A53153  22.987   1.175   7.053
 9139POPC   C4A53154  22.952   1.252   7.353
 9139POPC   C1B53155  22.814   0.986   6.453
 9139POPC   C2B53156  22.808   1.031   6.753
 9139POPC   C3B53157  22.858   0.991   7.053
 9139POPC   C4B53158  22.844   0.994   7.353
 9140POPC   NC353159  33.835   6.658   5.553
 9140POPC   PO453160  33.827   6.601   5.853
 9140POPC   GL153161  33.764   6.650   6.153
 9140POPC   GL253162  33.766   6.556   6.153
 9140POPC   C1A53163  33.798   6.691   6.453
 9140POPC   D2A53164  33.828   6.622   6.753
 9140POPC   C3A53165  33.788   6.610   7.053
 9140POPC   C4A53166  33.802   6.615   7.353
 9140POPC   C1B53167  33.753   6.414   6.453
 9140POPC   C2B53168  33.777   6.395   6.753
 9140POPC   C3B53169  33.778   6.430   7.053
 9140POPC   C4B53170  33.701   6.363   7.353
 9141POPC   NC353171   6.627   0.408   5.553
 9141POPC   PO453172   6.690   0.466   5.853
 9141POPC   GL153173   6.608   0.389   6.153
 9141POPC   GL253174   6.769   0.485   6.153
 9141POPC   C1A53175   6.601   0.431   6.453
 9141POPC   D2A53176   6.653   0.466   6.753
 9141POPC   C3A53177   6.650   0.435   7.053
 9141POPC   C4A53178   6.672   0.476   7.353
 9141POPC   C1B53179   6.887   0.582   6.453
 9141POPC   C2B53180   6.809   0.616   6.753
 9141POPC   C3B53181   6.901   0.583   7.053
 9141POPC   C4B53182   6.881   0.559   7.353
 9142POPC   NC353183  25.219   4.342   5.553
 9142POPC   PO453184  25.307   4.270   5.853
 9142POPC   GL153185  25.263   4.311   6.153
 9142POPC   GL253186  25.127   4.204   6.153
 9142POPC   C1A53187  25.241   4.323   6.453
 9142POPC   D2A53188  25.255   4.347   6.753
 9142POPC   C3A53189  25.306   4.272   7.053
 9142POPC   C4A53190  25.239   4.332   7.353
 9142POPC   C1B53191  25.060   4.121   6.453
 9142POPC   C2B53192  25.046   4.173   6.753
 9142POPC   C3B53193  25.043   4.176   7.053
 9142POPC   C4B53194  25.020   4.146   7.353
 9143POPC   NC353195   3.581  31.499   5.553
 9143POPC   PO453196   3.585  31.487   5.853
 9143POPC   GL153197   3.586  31.466   6.153
 9143POPC   GL253198   3.513  31.361   6.153
 9143POPC   C1A53199   3.521  31.450   6.453
 9143POPC   D2A53200   3.518  31.511   6.753
 9143POPC   C3A53201   3.527  31.464   7.053
 9143POPC   C4A53202   3.533  31.511   7.353
 9143POPC   C1B53203   3.595  31.173   6.453
 9143POPC   C2B53204   3.506  31.258   6.753
 9143POPC   C3B53205   3.549  31.242   7.053
 9143POPC   C4B53206   3.580  31.248   7.353
 9144POPC   NC353207  37.649  43.899   5.553
 9144POPC   PO453208  37.652  43.911   5.853
 9144POPC   GL153209  37.678  43.911   6.153
 9144POPC   GL253210  37.678  43.764   6.153
 9144POPC   C1A53211  37.718  43.874   6.453
 9144POPC   D2A53212  37.641  43.916   6.753
 9144POPC   C3A53213  37.635  43.854   7.053
 9144POPC   C4A53214  37.691  43.865   7.353
 9144POPC   C1B53215  37.555  43.682   6.453
 9144POPC   C2B53216  37.560  43.697   6.753
 9144POPC   C3B53217  37.625  43.690   7.053
 9144POPC   C4B53218  37.604  43.640   7.353
 9145POPC   NC353219  19.052  20.585   5.553
 9145POPC   PO453220  19.071  20.625   5.853
 9145POPC   GL153221  19.060  20.589   6.153
 9145POPC   GL253222  19.142  20.487   6.153
 9145POPC   C1A53223  19.011  20.600   6.453
 9145POPC   D2A53224  19.097  20.586   6.753
 9145POPC   C3A53225  19.106  20.606   7.053
 9145POPC   C4A53226  19.044  20.587   7.353
 9145POPC   C1B53227  19.135  20.430   6.453
 9145POPC   C2B53228  19.144  20.395   6.753
 9145POPC   C3B53229  19.206  20.401   7.053
 9145POPC   C4B53230  19.127  20.391   7.353
 9146POPC   NC353231  36.175  44.623   5.553
 9146POPC   PO453232  36.087  44.658   5.853
 9146POPC   GL153233  36.165  44.632   6.153
 9146POPC   GL253234  36.255  44.636   6.153
 9146POPC   C1A53235  36.092  44.634   6.453
 9146POPC   D2A53236  36.097  44.676   6.753
 9146POPC   C3A53237  36.083  44.667   7.053
 9146POPC   C4A53238  36.096  44.662   7.353
 9146POPC   C1B53239  36.382  44.549   6.453
 9146POPC   C2B53240  36.350  44.567   6.753
 9146POPC   C3B53241  36.327  44.584   7.053
 9146POPC   C4B53242  36.319  44.538   7.353
 9147POPC   NC353243  24.495   9.702   5.553
 9147POPC   PO453244  24.461   9.709   5.853
 9147POPC   GL153245  24.481   9.748   6.153
 9147POPC   GL253246  24.598   9.708   6.153
 9147POPC   C1A53247  24.514   9.701   6.453
 9147POPC   D2A53248  24.533   9.749   6.753
 9147POPC   C3A53249  24.466   9.781   7.053
 9147POPC   C4A53250  24.453   9.750   7.353
 9147POPC   C1B53251  24.732   9.741   6.453
 9147POPC   C2B53252  24.733   9.676   6.753
 9147POPC   C3B53253  24.701   9.732   7.053
 9147POPC   C4B53254  24.788   9.742   7.353
 9148POPC   NC353255  38.478  36.143   5.553
 9148POPC   PO453256  38.488  36.122   5.853
 9148POPC   GL153257  38.449  36.129   6.153
 9148POPC   GL253258  38.379  36.033   6.153
 9148POPC   C1A53259  38.438  36.102   6.453
 9148POPC   D2A53260  38.484  36.087   6.753
 9148POPC   C3A53261  38.483  36.177   7.053
 9148POPC   C4A53262  38.499  36.134   7.353
 9148POPC   C1B53263  38.362  35.841   6.453
 9148POPC   C2B53264  38.381  35.866   6.753
 9148POPC   C3B53265  38.441  35.838   7.053
 9148POPC   C4B53266  38.365  35.914   7.353
 9149POPC   NC353267  35.334   1.199   5.553
 9149POPC   PO453268  35.321   1.248   5.853
 9149POPC   GL153269  35.312   1.212   6.153
 9149POPC   GL253270  35.403   1.048   6.153
 9149POPC   C1A53271  35.352   1.238   6.453
 9149POPC   D2A53272  35.303   1.217   6.753
 9149POPC   C3A53273  35.366   1.164   7.053
 9149POPC   C4A53274  35.385   1.171   7.353
 9149POPC   C1B53275  35.400   0.946   6.453
 9149POPC   C2B53276  35.352   0.954   6.753
 9149POPC   C3B53277  35.406   0.950   7.053
 9149POPC   C4B53278  35.387   0.930   7.353
 9150POPC   NC353279   6.628  44.649   5.553
 9150POPC   PO453280   6.606  44.669   5.853
 9150POPC   GL153281   6.665  44.644   6.153
 9150POPC   GL253282   6.673  44.494   6.153
 9150POPC   C1A53283   6.605  44.653   6.453
 9150POPC   D2A53284   6.595  44.648   6.753
 9150POPC   C3A53285   6.609  44.657   7.053
 9150POPC   C4A53286   6.660  44.669   7.353
 9150POPC   C1B53287   6.644  44.373   6.453
 9150POPC   C2B53288   6.642  44.418   6.753
 9150POPC   C3B53289   6.598  44.390   7.053
 9150POPC   C4B53290   6.587  44.410   7.353
 9151POPC   NC353291  31.487   3.541   5.553
 9151POPC   PO453292  31.509   3.500   5.853
 9151POPC   GL153293  31.454   3.548   6.153
 9151POPC   GL253294  31.395   3.439   6.153
 9151POPC   C1A53295  31.485   3.496   6.453
 9151POPC   D2A53296  31.425   3.577   6.753
 9151POPC   C3A53297  31.467   3.499   7.053
 9151POPC   C4A53298  31.441   3.555   7.353
 9151POPC   C1B53299  31.255   3.386   6.453
 9151POPC   C2B53300  31.311   3.403   6.753
 9151POPC   C3B53301  31.267   3.363   7.053
 9151POPC   C4B53302  31.291   3.361   7.353
 9152POPC   NC353303  19.825  35.338   5.553
 9152POPC   PO453304  19.815  35.368   5.853
 9152POPC   GL153305  19.836  35.303   6.153
 9152POPC   GL253306  19.749  35.465   6.153
 9152POPC   C1A53307  19.820  35.348   6.453
 9152POPC   D2A53308  19.847  35.389   6.753
 9152POPC   C3A53309  19.875  35.347   7.053
 9152POPC   C4A53310  19.861  35.390   7.353
 9152POPC   C1B53311  19.615  35.488   6.453
 9152POPC   C2B53312  19.638  35.472   6.753
 9152POPC   C3B53313  19.621  35.527   7.053
 9152POPC   C4B53314  19.593  35.451   7.353
 9153POPC   NC353315  39.994  24.533   5.553
 9153POPC   PO453316  40.049  24.459   5.853
 9153POPC   GL153317  39.983  24.501   6.153
 9153POPC   GL253318  39.980  24.606   6.153
 9153POPC   C1A53319  40.034  24.463   6.453
 9153POPC   D2A53320  40.010  24.485   6.753
 9153POPC   C3A53321  40.014  24.519   7.053
 9153POPC   C4A53322  40.046  24.462   7.353
 9153POPC   C1B53323  39.886  24.700   6.453
 9153POPC   C2B53324  39.925  24.718   6.753
 9153POPC   C3B53325  39.845  24.714   7.053
 9153POPC   C4B53326  39.889  24.665   7.353
 9154POPC   NC353327   0.435  18.239   5.553
 9154POPC   PO453328   0.486  18.308   5.853
 9154POPC   GL153329   0.464  18.247   6.153
 9154POPC   GL253330   0.467  18.417   6.153
 9154POPC   C1A53331   0.475  18.256   6.453
 9154POPC   D2A53332   0.410  18.329   6.753
 9154POPC   C3A53333   0.425  18.326   7.053
 9154POPC   C4A53334   0.420  18.317   7.353
 9154POPC   C1B53335   0.492  18.541   6.453
 9154POPC   C2B53336   0.536  18.498   6.753
 9154POPC   C3B53337   0.486  18.470   7.053
 9154POPC   C4B53338   0.562  18.511   7.353
 9155POPC   NC353339  19.068  28.389   5.553
 9155POPC   PO453340  19.052  28.396   5.853
 9155POPC   GL153341  19.104  28.324   6.153
 9155POPC   GL253342  19.045  28.532   6.153
 9155POPC   C1A53343  19.091  28.364   6.453
 9155POPC   D2A53344  19.024  28.325   6.753
 9155POPC   C3A53345  19.075  28.416   7.053
 9155POPC   C4A53346  19.101  28.410   7.353
 9155POPC   C1B53347  19.097  28.655   6.453
 9155POPC   C2B53348  19.157  28.612   6.753
 9155POPC   C3B53349  19.165  28.635   7.053
 9155POPC   C4B53350  19.170  28.629   7.353
 9156POPC   NC353351  44.697   9.763   5.553
 9156POPC   PO453352  44.686   9.792   5.853
 9156POPC   GL153353  44.707   9.751   6.153
 9156POPC   GL253354  44.791   9.690   6.153
 9156POPC   C1A53355  44.702   9.740   6.453
 9156POPC   D2A53356  44.643   9.771   6.753
 9156POPC   C3A53357  44.689   9.762   7.053
 9156POPC   C4A53358  44.632   9.749   7.353
 9156POPC   C1B53359  44.864   9.569   6.453
 9156POPC   C2B53360  44.868   9.658   6.753
 9156POPC   C3B53361  44.852   9.609   7.053
 9156POPC   C4B53362  44.822   9.585   7.353
 9157POPC   NC353363  35.398  19.874   5.553
 9157POPC   PO453364  35.330  19.860   5.853
 9157POPC   GL153365  35.389  19.789   6.153
 9157POPC   GL253366  35.462  19.845   6.153
 9157POPC   C1A53367  35.315  19.869   6.453
 9157POPC   D2A53368  35.349  19.882   6.753
 9157POPC   C3A53369  35.334  19.844   7.053
 9157POPC   C4A53370  35.390  19.825   7.353
 9157POPC   C1B53371  35.573  19.801   6.453
 9157POPC   C2B53372  35.589  19.758   6.753
 9157POPC   C3B53373  35.550  19.794   7.053
 9157POPC   C4B53374  35.570  19.816   7.353
 9158POPC   NC353375  22.892  25.249   5.553
 9158POPC   PO453376  22.903  25.220   5.853
 9158POPC   GL153377  22.951  25.258   6.153
 9158POPC   GL253378  22.954  25.436   6.153
 9158POPC   C1A53379  22.960  25.256   6.453
 9158POPC   D2A53380  22.915  25.282   6.753
 9158POPC   C3A53381  22.982  25.244   7.053
 9158POPC   C4A53382  22.896  25.304   7.353
 9158POPC   C1B53383  22.996  25.535   6.453
 9158POPC   C2B53384  22.958  25.529   6.753
 9158POPC   C3B53385  22.991  25.550   7.053
 9158POPC   C4B53386  22.936  25.515   7.353
 9159POPC   NC353387  33.761   4.286   5.553
 9159POPC   PO453388  33.816   4.286   5.853
 9159POPC   GL153389  33.799   4.362   6.153
 9159POPC   GL253390  33.790   4.425   6.153
 9159POPC   C1A53391  33.765   4.324   6.453
 9159POPC   D2A53392  33.828   4.283   6.753
 9159POPC   C3A53393  33.849   4.295   7.053
 9159POPC   C4A53394  33.803   4.332   7.353
 9159POPC   C1B53395  33.860   4.554   6.453
 9159POPC   C2B53396  33.877   4.611   6.753
 9159POPC   C3B53397  33.864   4.589   7.053
 9159POPC   C4B53398  33.880   4.549   7.353
 9160POPC   NC353399  13.589  40.816   5.553
 9160POPC   PO453400  13.606  40.812   5.853
 9160POPC   GL153401  13.641  40.802   6.153
 9160POPC   GL253402  13.540  40.652   6.153
 9160POPC   C1A53403  13.595  40.826   6.453
 9160POPC   D2A53404  13.627  40.813   6.753
 9160POPC   C3A53405  13.658  40.794   7.053
 9160POPC   C4A53406  13.605  40.742   7.353
 9160POPC   C1B53407  13.486  40.609   6.453
 9160POPC   C2B53408  13.464  40.588   6.753
 9160POPC   C3B53409  13.529  40.554   7.053
 9160POPC   C4B53410  13.479  40.561   7.353
 9161POPC   NC353411  20.648   9.749   5.553
 9161POPC   PO453412  20.580   9.700   5.853
 9161POPC   GL153413  20.561   9.765   6.153
 9161POPC   GL253414  20.570   9.657   6.153
 9161POPC   C1A53415  20.632   9.721   6.453
 9161POPC   D2A53416  20.570   9.752   6.753
 9161POPC   C3A53417  20.624   9.753   7.053
 9161POPC   C4A53418  20.642   9.785   7.353
 9161POPC   C1B53419  20.559   9.471   6.453
 9161POPC   C2B53420  20.572   9.473   6.753
 9161POPC   C3B53421  20.580   9.488   7.053
 9161POPC   C4B53422  20.515   9.516   7.353
 9162POPC   NC353423   0.464  32.236   5.553
 9162POPC   PO453424   0.444  32.243   5.853
 9162POPC   GL153425   0.454  32.248   6.153
 9162POPC   GL253426   0.492  32.196   6.153
 9162POPC   C1A53427   0.481  32.263   6.453
 9162POPC   D2A53428   0.431  32.220   6.753
 9162POPC   C3A53429   0.477  32.286   7.053
 9162POPC   C4A53430   0.477  32.258   7.353
 9162POPC   C1B53431   0.563  32.010   6.453
 9162POPC   C2B53432   0.568  32.041   6.753
 9162POPC   C3B53433   0.592  32.036   7.053
 9162POPC   C4B53434   0.580  32.091   7.353
 9163POPC   NC353435  17.475  22.173   5.553
 9163POPC   PO453436  17.471  22.194   5.853
 9163POPC   GL153437  17.513  22.149   6.153
 9163POPC   GL253438  17.635  22.090   6.153
 9163POPC   C1A53439  17.457  22.180   6.453
 9163POPC   D2A53440  17.504  22.193   6.753
 9163POPC   C3A53441  17.485  22.119   7.053
 9163POPC   C4A53442  17.509  22.156   7.353
 9163POPC   C1B53443  17.664  22.038   6.453
 9163POPC   C2B53444  17.742  21.985   6.753
 9163POPC   C3B53445  17.695  21.949   7.053
 9163POPC   C4B53446  17.667  22.029   7.353
 9164POPC   NC353447  31.457  29.915   5.553
 9164POPC   PO453448  31.429  29.953   5.853
 9164POPC   GL153449  31.456  29.944   6.153
 9164POPC   GL253450  31.415  29.892   6.153
 9164POPC   C1A53451  31.487  29.874   6.453
 9164POPC   D2A53452  31.475  29.947   6.753
 9164POPC   C3A53453  31.479  29.904   7.053
 9164POPC   C4A53454  31.449  29.914   7.353
 9164POPC   C1B53455  31.312  29.796   6.453
 9164POPC   C2B53456  31.244  29.797   6.753
 9164POPC   C3B53457  31.255  29.782   7.053
 9164POPC   C4B53458  31.285  29.790   7.353
 9165POPC   NC353459   7.459   5.101   5.553
 9165POPC   PO453460   7.449   5.107   5.853
 9165POPC   GL153461   7.413   5.066   6.153
 9165POPC   GL253462   7.322   5.138   6.153
 9165POPC   C1A53463   7.374   5.134   6.453
 9165POPC   D2A53464   7.468   5.048   6.753
 9165POPC   C3A53465   7.470   5.081   7.053
 9165POPC   C4A53466   7.407   5.069   7.353
 9165POPC   C1B53467   7.229   5.289   6.453
 9165POPC   C2B53468   7.256   5.217   6.753
 9165POPC   C3B53469   7.270   5.298   7.053
 9165POPC   C4B53470   7.260   5.292   7.353
 9166POPC   NC353471  18.281  41.602   5.553
 9166POPC   PO453472  18.296  41.586   5.853
 9166POPC   GL153473  18.325  41.595   6.153
 9166POPC   GL253474  18.387  41.507   6.153
 9166POPC   C1A53475  18.265  41.600   6.453
 9166POPC   D2A53476  18.321  41.596   6.753
 9166POPC   C3A53477  18.326  41.536   7.053
 9166POPC   C4A53478  18.329  41.608   7.353
 9166POPC   C1B53479  18.525  41.553   6.453
 9166POPC   C2B53480  18.546  41.503   6.753
 9166POPC   C3B53481  18.521  41.473   7.053
 9166POPC   C4B53482  18.523  41.518   7.353
 9167POPC   NC353483   0.402  42.355   5.553
 9167POPC   PO453484   0.416  42.369   5.853
 9167POPC   GL153485   0.431  42.371   6.153
 9167POPC   GL253486   0.501  42.477   6.153
 9167POPC   C1A53487   0.445  42.330   6.453
 9167POPC   D2A53488   0.465  42.362   6.753
 9167POPC   C3A53489   0.420  42.342   7.053
 9167POPC   C4A53490   0.420  42.296   7.353
 9167POPC   C1B53491   0.499  42.611   6.453
 9167POPC   C2B53492   0.489  42.606   6.753
 9167POPC   C3B53493   0.493  42.632   7.053
 9167POPC   C4B53494   0.487  42.605   7.353
 9168POPC   NC353495   4.356  30.672   5.553
 9168POPC   PO453496   4.342  30.729   5.853
 9168POPC   GL153497   4.294  30.707   6.153
 9168POPC   GL253498   4.438  30.608   6.153
 9168POPC   C1A53499   4.285  30.682   6.453
 9168POPC   D2A53500   4.283  30.699   6.753
 9168POPC   C3A53501   4.275  30.653   7.053
 9168POPC   C4A53502   4.309  30.661   7.353
 9168POPC   C1B53503   4.464  30.458   6.453
 9168POPC   C2B53504   4.486  30.517   6.753
 9168POPC   C3B53505   4.500  30.488   7.053
 9168POPC   C4B53506   4.463  30.450   7.353
 9169POPC   NC353507  35.367  14.391   5.553
 9169POPC   PO453508  35.393  14.433   5.853
 9169POPC   GL153509  35.315  14.441   6.153
 9169POPC   GL253510  35.218  14.483   6.153
 9169POPC   C1A53511  35.304  14.428   6.453
 9169POPC   D2A53512  35.330  14.403   6.753
 9169POPC   C3A53513  35.397  14.362   7.053
 9169POPC   C4A53514  35.303  14.446   7.353
 9169POPC   C1B53515  35.139  14.460   6.453
 9169POPC   C2B53516  35.074  14.492   6.753
 9169POPC   C3B53517  35.088  14.489   7.053
 9169POPC   C4B53518  35.138  14.478   7.353
 9170POPC   NC353519  31.476  30.651   5.553
 9170POPC   PO453520  31.516  30.693   5.853
 9170POPC   GL153521  31.511  30.735   6.153
 9170POPC   GL253522  31.479  30.826   6.153
 9170POPC   C1A53523  31.480  30.655   6.453
 9170POPC   D2A53524  31.510  30.738   6.753
 9170POPC   C3A53525  31.481  30.670   7.053
 9170POPC   C4A53526  31.448  30.673   7.353
 9170POPC   C1B53527  31.463  30.901   6.453
 9170POPC   C2B53528  31.430  30.927   6.753
 9170POPC   C3B53529  31.505  30.927   7.053
 9170POPC   C4B53530  31.442  30.942   7.353
 9171POPC   NC353531  15.938  38.419   5.553
 9171POPC   PO453532  15.984  38.465   5.853
 9171POPC   GL153533  15.934  38.465   6.153
 9171POPC   GL253534  15.956  38.344   6.153
 9171POPC   C1A53535  15.990  38.487   6.453
 9171POPC   D2A53536  15.915  38.459   6.753
 9171POPC   C3A53537  15.987  38.432   7.053
 9171POPC   C4A53538  15.967  38.458   7.353
 9171POPC   C1B53539  16.009  38.195   6.453
 9171POPC   C2B53540  16.068  38.261   6.753
 9171POPC   C3B53541  16.026  38.234   7.053
 9171POPC   C4B53542  16.024  38.177   7.353
 9172POPC   NC353543  40.032  29.150   5.553
 9172POPC   PO453544  40.052  29.158   5.853
 9172POPC   GL153545  40.041  29.171   6.153
 9172POPC   GL253546  40.089  29.079   6.153
 9172POPC   C1A53547  39.999  29.114   6.453
 9172POPC   D2A53548  40.005  29.134   6.753
 9172POPC   C3A53549  40.053  29.139   7.053
 9172POPC   C4A53550  39.975  29.138   7.353
 9172POPC   C1B53551  40.157  28.928   6.453
 9172POPC   C2B53552  40.186  29.021   6.753
 9172POPC   C3B53553  40.161  28.931   7.053
 9172POPC   C4B53554  40.153  28.998   7.353
 9173POPC   NC353555  42.342  31.423   5.553
 9173POPC   PO453556  42.384  31.434   5.853
 9173POPC   GL153557  42.302  31.464   6.153
 9173POPC   GL253558  42.416  31.567   6.153
 9173POPC   C1A53559  42.320  31.486   6.453
 9173POPC   D2A53560  42.350  31.497   6.753
 9173POPC   C3A53561  42.312  31.476   7.053
 9173POPC   C4A53562  42.293  31.430   7.353
 9173POPC   C1B53563  42.519  31.646   6.453
 9173POPC   C2B53564  42.462  31.657   6.753
 9173POPC   C3B53565  42.489  31.693   7.053
 9173POPC   C4B53566  42.459  31.667   7.353
 9174POPC   NC353567  25.220   0.481   5.553
 9174POPC   PO453568  25.305   0.460   5.853
 9174POPC   GL153569  25.293   0.410   6.153
 9174POPC   GL253570  25.126   0.380   6.153
 9174POPC   C1A53571  25.239   0.484   6.453
 9174POPC   D2A53572  25.259   0.402   6.753
 9174POPC   C3A53573  25.223   0.440   7.053
 9174POPC   C4A53574  25.271   0.449   7.353
 9174POPC   C1B53575  25.102   0.308   6.453
 9174POPC   C2B53576  25.043   0.264   6.753
 9174POPC   C3B53577  25.032   0.345   7.053
 9174POPC   C4B53578  25.008   0.270   7.353
 9175POPC   NC353579  15.218   9.003   5.553
 9175POPC   PO453580  15.184   9.002   5.853
 9175POPC   GL153581  15.191   8.976   6.153
 9175POPC   GL253582  15.073   9.088   6.153
 9175POPC   C1A53583  15.219   8.992   6.453
 9175POPC   D2A53584  15.222   8.922   6.753
 9175POPC   C3A53585  15.211   9.012   7.053
 9175POPC   C4A53586  15.224   8.955   7.353
 9175POPC   C1B53587  15.104   9.231   6.453
 9175POPC   C2B53588  15.017   9.220   6.753
 9175POPC   C3B53589  15.089   9.199   7.053
 9175POPC   C4B53590  15.045   9.146   7.353
 9176POPC   NC353591  43.881  15.201   5.553
 9176POPC   PO453592  43.883  15.184   5.853
 9176POPC   GL153593  43.934  15.205   6.153
 9176POPC   GL253594  44.034  15.273   6.153
 9176POPC   C1A53595  43.844  15.170   6.453
 9176POPC   D2A53596  43.840  15.220   6.753
 9176POPC   C3A53597  43.933  15.140   7.053
 9176POPC   C4A53598  43.924  15.177   7.353
 9176POPC   C1B53599  44.123  15.354   6.453
 9176POPC   C2B53600  44.055  15.331   6.753
 9176POPC   C3B53601  44.118  15.281   7.053
 9176POPC   C4B53602  44.098  15.337   7.353
 9177POPC   NC353603  33.770  27.546   5.553
 9177POPC   PO453604  33.814  27.624   5.853
 9177POPC   GL153605  33.790  27.604   6.153
 9177POPC   GL253606  33.875  27.680   6.153
 9177POPC   C1A53607  33.839  27.591   6.453
 9177POPC   D2A53608  33.843  27.578   6.753
 9177POPC   C3A53609  33.837  27.640   7.053
 9177POPC   C4A53610  33.766  27.604   7.353
 9177POPC   C1B53611  33.960  27.685   6.453
 9177POPC   C2B53612  34.056  27.730   6.753
 9177POPC   C3B53613  34.028  27.768   7.053
 9177POPC   C4B53614  33.984  27.737   7.353
 9178POPC   NC353615  29.120  10.564   5.553
 9178POPC   PO453616  29.193  10.512   5.853
 9178POPC   GL153617  29.163  10.572   6.153
 9178POPC   GL253618  29.225  10.521   6.153
 9178POPC   C1A53619  29.193  10.535   6.453
 9178POPC   D2A53620  29.100  10.545   6.753
 9178POPC   C3A53621  29.153  10.516   7.053
 9178POPC   C4A53622  29.166  10.531   7.353
 9178POPC   C1B53623  29.360  10.391   6.453
 9178POPC   C2B53624  29.398  10.429   6.753
 9178POPC   C3B53625  29.384  10.415   7.053
 9178POPC   C4B53626  29.394  10.371   7.353
 9179POPC   NC353627  43.863  36.911   5.553
 9179POPC   PO453628  43.913  36.904   5.853
 9179POPC   GL153629  43.905  36.952   6.153
 9179POPC   GL253630  44.006  36.898   6.153
 9179POPC   C1A53631  43.880  36.953   6.453
 9179POPC   D2A53632  43.909  36.914   6.753
 9179POPC   C3A53633  43.887  36.910   7.053
 9179POPC   C4A53634  43.909  36.923   7.353
 9179POPC   C1B53635  44.140  36.861   6.453
 9179POPC   C2B53636  44.167  36.881   6.753
 9179POPC   C3B53637  44.127  36.800   7.053
 9179POPC   C4B53638  44.177  36.823   7.353
 9180POPC   NC353639  41.571  23.711   5.553
 9180POPC   PO453640  41.518  23.729   5.853
 9180POPC   GL153641  41.515  23.708   6.153
 9180POPC   GL253642  41.613  23.874   6.153
 9180POPC   C1A53643  41.550  23.756   6.453
 9180POPC   D2A53644  41.524  23.763   6.753
 9180POPC   C3A53645  41.576  23.751   7.053
 9180POPC   C4A53646  41.570  23.751   7.353
 9180POPC   C1B53647  41.633  23.957   6.453
 9180POPC   C2B53648  41.662  23.908   6.753
 9180POPC   C3B53649  41.676  23.971   7.053
 9180POPC   C4B53650  41.648  23.991   7.353
 9181POPC   NC353651  30.718  31.473   5.553
 9181POPC   PO453652  30.735  31.494   5.853
 9181POPC   GL153653  30.720  31.439   6.153
 9181POPC   GL253654  30.720  31.390   6.153
 9181POPC   C1A53655  30.705  31.440   6.453
 9181POPC   D2A53656  30.678  31.467   6.753
 9181POPC   C3A53657  30.670  31.490   7.053
 9181POPC   C4A53658  30.704  31.465   7.353
 9181POPC   C1B53659  30.719  31.232   6.453
 9181POPC   C2B53660  30.653  31.197   6.753
 9181POPC   C3B53661  30.708  31.212   7.053
 9181POPC   C4B53662  30.710  31.268   7.353
 9182POPC   NC353663  12.058  34.556   5.553
 9182POPC   PO453664  12.078  34.620   5.853
 9182POPC   GL153665  12.029  34.535   6.153
 9182POPC   GL253666  12.040  34.433   6.153
 9182POPC   C1A53667  12.100  34.539   6.453
 9182POPC   D2A53668  12.090  34.540   6.753
 9182POPC   C3A53669  12.029  34.539   7.053
 9182POPC   C4A53670  12.045  34.623   7.353
 9182POPC   C1B53671  11.891  34.363   6.453
 9182POPC   C2B53672  11.919  34.391   6.753
 9182POPC   C3B53673  11.918  34.417   7.053
 9182POPC   C4B53674  11.961  34.358   7.353
 9183POPC   NC353675  43.896   1.979   5.553
 9183POPC   PO453676  43.852   1.942   5.853
 9183POPC   GL153677  43.892   1.966   6.153
 9183POPC   GL253678  43.927   1.852   6.153
 9183POPC   C1A53679  43.920   1.953   6.453
 9183POPC   D2A53680  43.869   1.989   6.753
 9183POPC   C3A53681  43.904   1.944   7.053
 9183POPC   C4A53682  43.873   1.953   7.353
 9183POPC   C1B53683  43.975   1.731   6.453
 9183POPC   C2B53684  44.041   1.784   6.753
 9183POPC   C3B53685  44.004   1.784   7.053
 9183POPC   C4B53686  44.001   1.777   7.353
 9184POPC   NC353687  36.886  26.809   5.553
 9184POPC   PO453688  36.868  26.767   5.853
 9184POPC   GL153689  36.863  26.825   6.153
 9184POPC   GL253690  36.982  26.749   6.153
 9184POPC   C1A53691  36.865  26.768   6.453
 9184POPC   D2A53692  36.938  26.829   6.753
 9184POPC   C3A53693  36.946  26.774   7.053
 9184POPC   C4A53694  36.866  26.791   7.353
 9184POPC   C1B53695  37.101  26.642   6.453
 9184POPC   C2B53696  37.130  26.689   6.753
 9184POPC   C3B53697  37.093  26.623   7.053
 9184POPC   C4B53698  37.134  26.693   7.353
 9185POPC   NC353699  29.181  35.398   5.553
 9185POPC   PO453700  29.140  35.371   5.853
 9185POPC   GL153701  29.165  35.343   6.153
 9185POPC   GL253702  29.186  35.499   6.153
 9185POPC   C1A53703  29.102  35.339   6.453
 9185POPC   D2A53704  29.109  35.303   6.753
 9185POPC   C3A53705  29.111  35.388   7.053
 9185POPC   C4A53706  29.139  35.346   7.353
 9185POPC   C1B53707  29.300  35.613   6.453
 9185POPC   C2B53708  29.227  35.520   6.753
 9185POPC   C3B53709  29.222  35.530   7.053
 9185POPC   C4B53710  29.239  35.554   7.353
 9186POPC   NC353711  22.978  25.999   5.553
 9186POPC   PO453712  22.921  26.022   5.853
 9186POPC   GL153713  22.934  25.992   6.153
 9186POPC   GL253714  23.026  25.956   6.153
 9186POPC   C1A53715  22.920  26.026   6.453
 9186POPC   D2A53716  22.958  26.006   6.753
 9186POPC   C3A53717  22.958  26.035   7.053
 9186POPC   C4A53718  22.979  26.004   7.353
 9186POPC   C1B53719  23.103  25.834   6.453
 9186POPC   C2B53720  23.091  25.904   6.753
 9186POPC   C3B53721  23.161  25.912   7.053
 9186POPC   C4B53722  23.179  25.930   7.353
 9187POPC   NC353723  24.506   6.688   5.553
 9187POPC   PO453724  24.495   6.649   5.853
 9187POPC   GL153725  24.497   6.642   6.153
 9187POPC   GL253726  24.338   6.656   6.153
 9187POPC   C1A53727  24.462   6.692   6.453
 9187POPC   D2A53728  24.492   6.652   6.753
 9187POPC   C3A53729  24.477   6.654   7.053
 9187POPC   C4A53730  24.471   6.624   7.353
 9187POPC   C1B53731  24.201   6.728   6.453
 9187POPC   C2B53732  24.298   6.701   6.753
 9187POPC   C3B53733  24.285   6.679   7.053
 9187POPC   C4B53734  24.299   6.760   7.353
 9188POPC   NC353735  42.318   8.187   5.553
 9188POPC   PO453736  42.361   8.186   5.853
 9188POPC   GL153737  42.373   8.200   6.153
 9188POPC   GL253738  42.297   8.128   6.153
 9188POPC   C1A53739  42.369   8.196   6.453
 9188POPC   D2A53740  42.380   8.168   6.753
 9188POPC   C3A53741  42.288   8.187   7.053
 9188POPC   C4A53742  42.345   8.154   7.353
 9188POPC   C1B53743  42.158   7.959   6.453
 9188POPC   C2B53744  42.211   7.953   6.753
 9188POPC   C3B53745  42.173   7.962   7.053
 9188POPC   C4B53746  42.181   8.014   7.353
 9189POPC   NC353747   5.874  26.088   5.553
 9189POPC   PO453748   5.895  26.055   5.853
 9189POPC   GL153749   5.918  26.090   6.153
 9189POPC   GL253750   5.820  25.891   6.153
 9189POPC   C1A53751   5.820  26.011   6.453
 9189POPC   D2A53752   5.889  26.000   6.753
 9189POPC   C3A53753   5.902  26.091   7.053
 9189POPC   C4A53754   5.898  26.020   7.353
 9189POPC   C1B53755   5.696  25.816   6.453
 9189POPC   C2B53756   5.741  25.848   6.753
 9189POPC   C3B53757   5.703  25.796   7.053
 9189POPC   C4B53758   5.719  25.804   7.353
 9190POPC   NC353759  12.891  33.795   5.553
 9190POPC   PO453760  12.862  33.767   5.853
 9190POPC   GL153761  12.847  33.842   6.153
 9190POPC   GL253762  12.689  33.825   6.153
 9190POPC   C1A53763  12.832  33.786   6.453
 9190POPC   D2A53764  12.884  33.799   6.753
 9190POPC   C3A53765  12.832  33.773   7.053
 9190POPC   C4A53766  12.872  33.802   7.353
 9190POPC   C1B53767  12.623  33.784   6.453
 9190POPC   C2B53768  12.564  33.795   6.753
 9190POPC   C3B53769  12.616  33.788   7.053
 9190POPC   C4B53770  12.619  33.848   7.353
 9191POPC   NC353771  11.296  41.548   5.553
 9191POPC   PO453772  11.290  41.567   5.853
 9191POPC   GL153773  11.286  41.583   6.153
 9191POPC   GL253774  11.224  41.510   6.153
 9191POPC   C1A53775  11.312  41.524   6.453
 9191POPC   D2A53776  11.333  41.546   6.753
 9191POPC   C3A53777  11.265  41.598   7.053
 9191POPC   C4A53778  11.333  41.570   7.353
 9191POPC   C1B53779  11.034  41.498   6.453
 9191POPC   C2B53780  11.022  41.502   6.753
 9191POPC   C3B53781  11.046  41.458   7.053
 9191POPC   C4B53782  11.093  41.525   7.353
 9192POPC   NC353783   9.779  32.271   5.553
 9192POPC   PO453784   9.774  32.265   5.853
 9192POPC   GL153785   9.759  32.268   6.153
 9192POPC   GL253786   9.740  32.166   6.153
 9192POPC   C1A53787   9.739  32.288   6.453
 9192POPC   D2A53788   9.771  32.214   6.753
 9192POPC   C3A53789   9.736  32.250   7.053
 9192POPC   C4A53790   9.773  32.207   7.353
 9192POPC   C1B53791   9.657  32.039   6.453
 9192POPC   C2B53792   9.711  31.956   6.753
 9192POPC   C3B53793   9.735  32.024   7.053
 9192POPC   C4B53794   9.738  32.010   7.353
 9193POPC   NC353795  19.870  17.522   5.553
 9193POPC   PO453796  19.876  17.503   5.853
 9193POPC   GL153797  19.867  17.477   6.153
 9193POPC   GL253798  19.717  17.496   6.153
 9193POPC   C1A53799  19.810  17.478   6.453
 9193POPC   D2A53800  19.817  17.539   6.753
 9193POPC   C3A53801  19.869  17.553   7.053
 9193POPC   C4A53802  19.826  17.515   7.353
 9193POPC   C1B53803  19.617  17.605   6.453
 9193POPC   C2B53804  19.611  17.561   6.753
 9193POPC   C3B53805  19.615  17.624   7.053
 9193POPC   C4B53806  19.639  17.581   7.353
 9194POPC   NC353807  30.711  36.162   5.553
 9194POPC   PO453808  30.679  36.079   5.853
 9194POPC   GL153809  30.723  36.113   6.153
 9194POPC   GL253810  30.641  36.199   6.153
 9194POPC   C1A53811  30.743  36.169   6.453
 9194POPC   D2A53812  30.675  36.117   6.753
 9194POPC   C3A53813  30.725  36.165   7.053
 9194POPC   C4A53814  30.704  36.150   7.353
 9194POPC   C1B53815  30.616  36.418   6.453
 9194POPC   C2B53816  30.658  36.336   6.753
 9194POPC   C3B53817  30.657  36.387   7.053
 9194POPC   C4B53818  30.633  36.327   7.353
 9195POPC   NC353819  29.155  39.978   5.553
 9195POPC   PO453820  29.098  39.970   5.853
 9195POPC   GL153821  29.158  40.003   6.153
 9195POPC   GL253822  28.983  39.932   6.153
 9195POPC   C1A53823  29.171  40.042   6.453
 9195POPC   D2A53824  29.122  40.017   6.753
 9195POPC   C3A53825  29.122  40.000   7.053
 9195POPC   C4A53826  29.165  40.003   7.353
 9195POPC   C1B53827  28.865  39.934   6.453
 9195POPC   C2B53828  28.883  39.884   6.753
 9195POPC   C3B53829  28.907  39.964   7.053
 9195POPC   C4B53830  28.884  39.911   7.353
 9196POPC   NC353831   2.017  26.027   5.553
 9196POPC   PO453832   2.022  26.025   5.853
 9196POPC   GL153833   2.021  26.030   6.153
 9196POPC   GL253834   2.131  26.086   6.153
 9196POPC   C1A53835   1.979  26.077   6.453
 9196POPC   D2A53836   2.033  26.069   6.753
 9196POPC   C3A53837   2.028  25.998   7.053
 9196POPC   C4A53838   1.984  25.997   7.353
 9196POPC   C1B53839   2.169  26.194   6.453
 9196POPC   C2B53840   2.231  26.194   6.753
 9196POPC   C3B53841   2.194  26.175   7.053
 9196POPC   C4B53842   2.158  26.172   7.353
 9197POPC   NC353843  43.140   5.102   5.553
 9197POPC   PO453844  43.129   5.083   5.853
 9197POPC   GL153845  43.129   5.098   6.153
 9197POPC   GL253846  43.202   5.040   6.153
 9197POPC   C1A53847  43.122   5.138   6.453
 9197POPC   D2A53848  43.076   5.137   6.753
 9197POPC   C3A53849  43.067   5.052   7.053
 9197POPC   C4A53850  43.101   5.059   7.353
 9197POPC   C1B53851  43.348   4.928   6.453
 9197POPC   C2B53852  43.321   4.942   6.753
 9197POPC   C3B53853  43.305   4.901   7.053
 9197POPC   C4B53854  43.272   4.997   7.353
 9198POPC   NC353855  18.305  12.120   5.553
 9198POPC   PO453856  18.234  12.037   5.853
 9198POPC   GL153857  18.256  12.086   6.153
 9198POPC   GL253858  18.332  11.955   6.153
 9198POPC   C1A53859  18.291  12.055   6.453
 9198POPC   D2A53860  18.324  12.031   6.753
 9198POPC   C3A53861  18.249  12.123   7.053
 9198POPC   C4A53862  18.320  12.069   7.353
 9198POPC   C1B53863  18.388  11.862   6.453
 9198POPC   C2B53864  18.337  11.862   6.753
 9198POPC   C3B53865  18.327  11.870   7.053
 9198POPC   C4B53866  18.331  11.882   7.353
 9199POPC   NC353867  18.262  21.426   5.553
 9199POPC   PO453868  18.308  21.369   5.853
 9199POPC   GL153869  18.295  21.375   6.153
 9199POPC   GL253870  18.242  21.522   6.153
 9199POPC   C1A53871  18.281  21.371   6.453
 9199POPC   D2A53872  18.269  21.380   6.753
 9199POPC   C3A53873  18.322  21.344   7.053
 9199POPC   C4A53874  18.249  21.396   7.353
 9199POPC   C1B53875  18.213  21.665   6.453
 9199POPC   C2B53876  18.227  21.601   6.753
 9199POPC   C3B53877  18.179  21.596   7.053
 9199POPC   C4B53878  18.228  21.633   7.353
 9200POPC   NC353879  26.824  29.962   5.553
 9200POPC   PO453880  26.783  29.920   5.853
 9200POPC   GL153881  26.834  29.947   6.153
 9200POPC   GL253882  26.836  29.825   6.153
 9200POPC   C1A53883  26.768  29.929   6.453
 9200POPC   D2A53884  26.819  29.938   6.753
 9200POPC   C3A53885  26.819  29.897   7.053
 9200POPC   C4A53886  26.810  29.894   7.353
 9200POPC   C1B53887  26.750  29.676   6.453
 9200POPC   C2B53888  26.787  29.633   6.753
 9200POPC   C3B53889  26.741  29.691   7.053
 9200POPC   C4B53890  26.730  29.709   7.353
 9201POPC   NC353891   9.751  12.833   5.553
 9201POPC   PO453892   9.756  12.831   5.853
 9201POPC   GL153893   9.752  12.812   6.153
 9201POPC   GL253894   9.824  12.742   6.153
 9201POPC   C1A53895   9.797  12.866   6.453
 9201POPC   D2A53896   9.757  12.887   6.753
 9201POPC   C3A53897   9.777  12.834   7.053
 9201POPC   C4A53898   9.727  12.896   7.353
 9201POPC   C1B53899   9.898  12.690   6.453
 9201POPC   C2B53900   9.840  12.611   6.753
 9201POPC   C3B53901   9.903  12.642   7.053
 9201POPC   C4B53902   9.850  12.630   7.353
 9202POPC   NC353903   9.729  29.139   5.553
 9202POPC   PO453904   9.770  29.150   5.853
 9202POPC   GL153905   9.764  29.110   6.153
 9202POPC   GL253906   9.857  29.003   6.153
 9202POPC   C1A53907   9.781  29.111   6.453
 9202POPC   D2A53908   9.766  29.141   6.753
 9202POPC   C3A53909   9.699  29.107   7.053
 9202POPC   C4A53910   9.726  29.116   7.353
 9202POPC   C1B53911   9.831  28.906   6.453
 9202POPC   C2B53912   9.895  28.901   6.753
 9202POPC   C3B53913   9.878  28.969   7.053
 9202POPC   C4B53914   9.889  28.905   7.353
 9203POPC   NC353915  38.478   2.733   5.553
 9203POPC   PO453916  38.425   2.779   5.853
 9203POPC   GL153917  38.477   2.778   6.153
 9203POPC   GL253918  38.494   2.884   6.153
 9203POPC   C1A53919  38.433   2.755   6.453
 9203POPC   D2A53920  38.468   2.784   6.753
 9203POPC   C3A53921  38.480   2.785   7.053
 9203POPC   C4A53922  38.485   2.793   7.353
 9203POPC   C1B53923  38.629   2.960   6.453
 9203POPC   C2B53924  38.575   2.965   6.753
 9203POPC   C3B53925  38.540   2.995   7.053
 9203POPC   C4B53926  38.584   2.948   7.353
 9204POPC   NC353927  29.942  43.149   5.553
 9204POPC   PO453928  29.951  43.062   5.853
 9204POPC   GL153929  29.900  43.151   6.153
 9204POPC   GL253930  29.797  43.102   6.153
 9204POPC   C1A53931  29.912  43.123   6.453
 9204POPC   D2A53932  29.881  43.153   6.753
 9204POPC   C3A53933  29.872  43.125   7.053
 9204POPC   C4A53934  29.910  43.136   7.353
 9204POPC   C1B53935  29.635  43.156   6.453
 9204POPC   C2B53936  29.628  43.107   6.753
 9204POPC   C3B53937  29.677  43.065   7.053
 9204POPC   C4B53938  29.684  43.102   7.353
 9205POPC   NC353939  36.871  16.741   5.553
 9205POPC   PO453940  36.910  16.712   5.853
 9205POPC   GL153941  36.937  16.714   6.153
 9205POPC   GL253942  36.908  16.600   6.153
 9205POPC   C1A53943  36.884  16.701   6.453
 9205POPC   D2A53944  36.879  16.689   6.753
 9205POPC   C3A53945  36.892  16.748   7.053
 9205POPC   C4A53946  36.895  16.682   7.353
 9205POPC   C1B53947  36.963  16.477   6.453
 9205POPC   C2B53948  36.970  16.461   6.753
 9205POPC   C3B53949  37.031  16.520   7.053
 9205POPC   C4B53950  37.025  16.462   7.353
 9206POPC   NC353951  27.590  26.808   5.553
 9206POPC   PO453952  27.611  26.828   5.853
 9206POPC   GL153953  27.590  26.852   6.153
 9206POPC   GL253954  27.717  26.694   6.153
 9206POPC   C1A53955  27.557  26.774   6.453
 9206POPC   D2A53956  27.628  26.850   6.753
 9206POPC   C3A53957  27.567  26.802   7.053
 9206POPC   C4A53958  27.630  26.793   7.353
 9206POPC   C1B53959  27.751  26.620   6.453
 9206POPC   C2B53960  27.750  26.671   6.753
 9206POPC   C3B53961  27.729  26.599   7.053
 9206POPC   C4B53962  27.738  26.621   7.353
 9207POPC   NC353963  39.208   4.312   5.553
 9207POPC   PO453964  39.229   4.275   5.853
 9207POPC   GL153965  39.254   4.296   6.153
 9207POPC   GL253966  39.133   4.192   6.153
 9207POPC   C1A53967  39.194   4.355   6.453
 9207POPC   D2A53968  39.246   4.337   6.753
 9207POPC   C3A53969  39.263   4.282   7.053
 9207POPC   C4A53970  39.234   4.364   7.353
 9207POPC   C1B53971  39.034   4.142   6.453
 9207POPC   C2B53972  39.073   4.129   6.753
 9207POPC   C3B53973  39.113   4.074   7.053
 9207POPC   C4B53974  39.110   4.131   7.353
 9208POPC   NC353975  29.156  20.644   5.553
 9208POPC   PO453976  29.138  20.580   5.853
 9208POPC   GL153977  29.138  20.647   6.153
 9208POPC   GL253978  29.216  20.480   6.153
 9208POPC   C1A53979  29.106  20.594   6.453
 9208POPC   D2A53980  29.144  20.628   6.753
 9208POPC   C3A53981  29.108  20.616   7.053
 9208POPC   C4A53982  29.121  20.644   7.353
 9208POPC   C1B53983  29.269  20.442   6.453
 9208POPC   C2B53984  29.258  20.368   6.753
 9208POPC   C3B53985  29.338  20.442   7.053
 9208POPC   C4B53986  29.319  20.388   7.353
 9209POPC   NC353987  16.779  19.084   5.553
 9209POPC   PO453988  16.719  19.014   5.853
 9209POPC   GL153989  16.772  19.058   6.153
 9209POPC   GL253990  16.684  18.919   6.153
 9209POPC   C1A53991  16.697  19.097   6.453
 9209POPC   D2A53992  16.751  19.036   6.753
 9209POPC   C3A53993  16.717  19.042   7.053
 9209POPC   C4A53994  16.692  19.091   7.353
 9209POPC   C1B53995  16.651  18.860   6.453
 9209POPC   C2B53996  16.649  18.842   6.753
 9209POPC   C3B53997  16.648  18.861   7.053
 9209POPC   C4B53998  16.617  18.814   7.353
 9210POPC   NC353999  38.466  22.911   5.553
 9210POPC   PO454000  38.468  22.973   5.853
 9210POPC   GL154001  38.473  22.947   6.153
 9210POPC   GL254002  38.350  22.981   6.153
 9210POPC   C1A54003  38.451  22.902   6.453
 9210POPC   D2A54004  38.407  22.959   6.753
 9210POPC   C3A54005  38.467  22.911   7.053
 9210POPC   C4A54006  38.487  22.963   7.353
 9210POPC   C1B54007  38.279  23.075   6.453
 9210POPC   C2B54008  38.253  23.097   6.753
 9210POPC   C3B54009  38.207  23.031   7.053
 9210POPC   C4B54010  38.214  23.112   7.353
 9211POPC   NC354011  14.430  36.078   5.553
 9211POPC   PO454012  14.375  36.115   5.853
 9211POPC   GL154013  14.426  36.167   6.153
 9211POPC   GL254014  14.453  36.013   6.153
 9211POPC   C1A54015  14.414  36.162   6.453
 9211POPC   D2A54016  14.421  36.088   6.753
 9211POPC   C3A54017  14.389  36.113   7.053
 9211POPC   C4A54018  14.376  36.093   7.353
 9211POPC   C1B54019  14.524  35.888   6.453
 9211POPC   C2B54020  14.506  35.921   6.753
 9211POPC   C3B54021  14.500  35.870   7.053
 9211POPC   C4B54022  14.512  35.879   7.353
 9212POPC   NC354023  29.919  20.628   5.553
 9212POPC   PO454024  29.945  20.612   5.853
 9212POPC   GL154025  29.877  20.563   6.153
 9212POPC   GL254026  30.038  20.551   6.153
 9212POPC   C1A54027  29.911  20.622   6.453
 9212POPC   D2A54028  29.932  20.576   6.753
 9212POPC   C3A54029  29.944  20.646   7.053
 9212POPC   C4A54030  29.934  20.564   7.353
 9212POPC   C1B54031  30.118  20.579   6.453
 9212POPC   C2B54032  30.166  20.579   6.753
 9212POPC   C3B54033  30.209  20.554   7.053
 9212POPC   C4B54034  30.123  20.501   7.353
 9213POPC   NC354035  34.584  42.287   5.553
 9213POPC   PO454036  34.600  42.362   5.853
 9213POPC   GL154037  34.573  42.359   6.153
 9213POPC   GL254038  34.477  42.295   6.153
 9213POPC   C1A54039  34.575  42.314   6.453
 9213POPC   D2A54040  34.530  42.318   6.753
 9213POPC   C3A54041  34.557  42.309   7.053
 9213POPC   C4A54042  34.625  42.380   7.353
 9213POPC   C1B54043  34.380  42.225   6.453
 9213POPC   C2B54044  34.333  42.261   6.753
 9213POPC   C3B54045  34.346  42.228   7.053
 9213POPC   C4B54046  34.392  42.200   7.353
 9214POPC   NC354047  39.986  12.071   5.553
 9214POPC   PO454048  40.010  12.114   5.853
 9214POPC   GL154049  39.978  12.061   6.153
 9214POPC   GL254050  40.151  12.037   6.153
 9214POPC   C1A54051  39.991  12.057   6.453
 9214POPC   D2A54052  40.016  12.120   6.753
 9214POPC   C3A54053  40.000  12.042   7.053
 9214POPC   C4A54054  40.013  12.103   7.353
 9214POPC   C1B54055  40.228  12.059   6.453
 9214POPC   C2B54056  40.257  12.086   6.753
 9214POPC   C3B54057  40.265  12.004   7.053
 9214POPC   C4B54058  40.291  12.038   7.353
 9215POPC   NC354059   4.323   3.512   5.553
 9215POPC   PO454060   4.273   3.578   5.853
 9215POPC   GL154061   4.316   3.538   6.153
 9215POPC   GL254062   4.184   3.531   6.153
 9215POPC   C1A54063   4.355   3.501   6.453
 9215POPC   D2A54064   4.270   3.503   6.753
 9215POPC   C3A54065   4.294   3.543   7.053
 9215POPC   C4A54066   4.285   3.525   7.353
 9215POPC   C1B54067   4.119   3.601   6.453
 9215POPC   C2B54068   4.060   3.606   6.753
 9215POPC   C3B54069   4.034   3.606   7.053
 9215POPC   C4B54070   4.072   3.595   7.353
 9216POPC   NC354071  23.698   2.798   5.553
 9216POPC   PO454072  23.758   2.748   5.853
 9216POPC   GL154073  23.756   2.737   6.153
 9216POPC   GL254074  23.596   2.877   6.153
 9216POPC   C1A54075  23.743   2.734   6.453
 9216POPC   D2A54076  23.687   2.762   6.753
 9216POPC   C3A54077  23.749   2.768   7.053
 9216POPC   C4A54078  23.680   2.809   7.353
 9216POPC   C1B54079  23.477   2.929   6.453
 9216POPC   C2B54080  23.478   2.926   6.753
 9216POPC   C3B54081  23.557   2.933   7.053
 9216POPC   C4B54082  23.508   2.927   7.353
 9217POPC   NC354083  29.960  36.122   5.553
 9217POPC   PO454084  29.950  36.157   5.853
 9217POPC   GL154085  29.919  36.118   6.153
 9217POPC   GL254086  30.046  36.096   6.153
 9217POPC   C1A54087  29.928  36.149   6.453
 9217POPC   D2A54088  29.878  36.133   6.753
 9217POPC   C3A54089  29.935  36.148   7.053
 9217POPC   C4A54090  29.884  36.129   7.353
 9217POPC   C1B54091  30.208  36.083   6.453
 9217POPC   C2B54092  30.136  36.128   6.753
 9217POPC   C3B54093  30.216  36.109   7.053
 9217POPC   C4B54094  30.178  36.179   7.353
 9218POPC   NC354095  25.274  33.002   5.553
 9218POPC   PO454096  25.305  33.051   5.853
 9218POPC   GL154097  25.273  33.059   6.153
 9218POPC   GL254098  25.342  33.085   6.153
 9218POPC   C1A54099  25.230  33.056   6.453
 9218POPC   D2A54100  25.251  33.059   6.753
 9218POPC   C3A54101  25.217  33.066   7.053
 9218POPC   C4A54102  25.309  33.016   7.353
 9218POPC   C1B54103  25.545  33.080   6.453
 9218POPC   C2B54104  25.513  33.085   6.753
 9218POPC   C3B54105  25.490  33.070   7.053
 9218POPC   C4B54106  25.485  33.097   7.353
 9219POPC   NC354107  11.276   5.131   5.553
 9219POPC   PO454108  11.266   5.136   5.853
 9219POPC   GL154109  11.294   5.049   6.153
 9219POPC   GL254110  11.258   5.000   6.153
 9219POPC   C1A54111  11.261   5.074   6.453
 9219POPC   D2A54112  11.260   5.103   6.753
 9219POPC   C3A54113  11.347   5.124   7.053
 9219POPC   C4A54114  11.264   5.081   7.353
 9219POPC   C1B54115  11.212   4.863   6.453
 9219POPC   C2B54116  11.196   4.821   6.753
 9219POPC   C3B54117  11.226   4.822   7.053
 9219POPC   C4B54118  11.217   4.816   7.353
 9220POPC   NC354119   3.499  18.268   5.553
 9220POPC   PO454120   3.533  18.284   5.853
 9220POPC   GL154121   3.545  18.244   6.153
 9220POPC   GL254122   3.576  18.193   6.153
 9220POPC   C1A54123   3.544  18.240   6.453
 9220POPC   D2A54124   3.564  18.241   6.753
 9220POPC   C3A54125   3.585  18.259   7.053
 9220POPC   C4A54126   3.532  18.324   7.353
 9220POPC   C1B54127   3.651  18.064   6.453
 9220POPC   C2B54128   3.595  18.061   6.753
 9220POPC   C3B54129   3.675  18.046   7.053
 9220POPC   C4B54130   3.579  18.030   7.353
 9221POPC   NC354131  15.911  27.625   5.553
 9221POPC   PO454132  15.997  27.642   5.853
 9221POPC   GL154133  15.997  27.544   6.153
 9221POPC   GL254134  15.855  27.505   6.153
 9221POPC   C1A54135  15.966  27.597   6.453
 9221POPC   D2A54136  15.989  27.556   6.753
 9221POPC   C3A54137  15.996  27.631   7.053
 9221POPC   C4A54138  15.938  27.564   7.353
 9221POPC   C1B54139  15.777  27.451   6.453
 9221POPC   C2B54140  15.784  27.462   6.753
 9221POPC   C3B54141  15.748  27.442   7.053
 9221POPC   C4B54142  15.723  27.469   7.353
 9222POPC   NC354143   4.298  39.227   5.553
 9222POPC   PO454144   4.275  39.280   5.853
 9222POPC   GL154145   4.295  39.266   6.153
 9222POPC   GL254146   4.294  39.382   6.153
 9222POPC   C1A54147   4.364  39.241   6.453
 9222POPC   D2A54148   4.287  39.216   6.753
 9222POPC   C3A54149   4.294  39.260   7.053
 9222POPC   C4A54150   4.334  39.258   7.353
 9222POPC   C1B54151   4.222  39.488   6.453
 9222POPC   C2B54152   4.277  39.442   6.753
 9222POPC   C3B54153   4.260  39.464   7.053
 9222POPC   C4B54154   4.189  39.430   7.353
 9223POPC   NC354155  39.249  19.822   5.553
 9223POPC   PO454156  39.208  19.825   5.853
 9223POPC   GL154157  39.250  19.807   6.153
 9223POPC   GL254158  39.102  19.790   6.153
 9223POPC   C1A54159  39.237  19.836   6.453
 9223POPC   D2A54160  39.195  19.853   6.753
 9223POPC   C3A54161  39.226  19.788   7.053
 9223POPC   C4A54162  39.266  19.788   7.353
 9223POPC   C1B54163  39.036  19.635   6.453
 9223POPC   C2B54164  39.039  19.677   6.753
 9223POPC   C3B54165  39.074  19.671   7.053
 9223POPC   C4B54166  39.098  19.637   7.353
 9224POPC   NC354167  29.958  18.264   5.553
 9224POPC   PO454168  29.913  18.242   5.853
 9224POPC   GL154169  29.925  18.299   6.153
 9224POPC   GL254170  30.011  18.305   6.153
 9224POPC   C1A54171  29.955  18.233   6.453
 9224POPC   D2A54172  29.894  18.289   6.753
 9224POPC   C3A54173  29.927  18.293   7.053
 9224POPC   C4A54174  29.874  18.304   7.353
 9224POPC   C1B54175  30.185  18.354   6.453
 9224POPC   C2B54176  30.136  18.401   6.753
 9224POPC   C3B54177  30.123  18.365   7.053
 9224POPC   C4B54178  30.143  18.363   7.353
 9225POPC   NC354179   2.748  43.103   5.553
 9225POPC   PO454180   2.741  43.067   5.853
 9225POPC   GL154181   2.782  43.158   6.153
 9225POPC   GL254182   2.716  43.055   6.153
 9225POPC   C1A54183   2.763  43.116   6.453
 9225POPC   D2A54184   2.765  43.090   6.753
 9225POPC   C3A54185   2.799  43.077   7.053
 9225POPC   C4A54186   2.813  43.145   7.353
 9225POPC   C1B54187   2.640  42.884   6.453
 9225POPC   C2B54188   2.658  42.919   6.753
 9225POPC   C3B54189   2.623  42.928   7.053
 9225POPC   C4B54190   2.582  42.954   7.353
 9226POPC   NC354191  11.333  43.114   5.553
 9226POPC   PO454192  11.326  43.132   5.853
 9226POPC   GL154193  11.256  43.141   6.153
 9226POPC   GL254194  11.178  43.164   6.153
 9226POPC   C1A54195  11.328  43.071   6.453
 9226POPC   D2A54196  11.299  43.138   6.753
 9226POPC   C3A54197  11.286  43.124   7.053
 9226POPC   C4A54198  11.278  43.147   7.353
 9226POPC   C1B54199  11.123  43.209   6.453
 9226POPC   C2B54200  11.047  43.272   6.753
 9226POPC   C3B54201  11.061  43.297   7.053
 9226POPC   C4B54202  11.121  43.222   7.353
 9227POPC   NC354203  13.581   8.195   5.553
 9227POPC   PO454204  13.665   8.211   5.853
 9227POPC   GL154205  13.582   8.178   6.153
 9227POPC   GL254206  13.672   8.086   6.153
 9227POPC   C1A54207  13.612   8.163   6.453
 9227POPC   D2A54208  13.616   8.187   6.753
 9227POPC   C3A54209  13.634   8.238   7.053
 9227POPC   C4A54210  13.580   8.179   7.353
 9227POPC   C1B54211  13.742   7.995   6.453
 9227POPC   C2B54212  13.775   7.939   6.753
 9227POPC   C3B54213  13.726   7.936   7.053
 9227POPC   C4B54214  13.787   8.004   7.353
 9228POPC   NC354215  26.779  28.368   5.553
 9228POPC   PO454216  26.820  28.412   5.853
 9228POPC   GL154217  26.772  28.331   6.153
 9228POPC   GL254218  26.734  28.519   6.153
 9228POPC   C1A54219  26.852  28.343   6.453
 9228POPC   D2A54220  26.778  28.329   6.753
 9228POPC   C3A54221  26.838  28.355   7.053
 9228POPC   C4A54222  26.786  28.414   7.353
 9228POPC   C1B54223  26.761  28.572   6.453
 9228POPC   C2B54224  26.710  28.620   6.753
 9228POPC   C3B54225  26.708  28.624   7.053
 9228POPC   C4B54226  26.689  28.605   7.353
 9229POPC   NC354227   1.193   4.286   5.553
 9229POPC   PO454228   1.220   4.351   5.853
 9229POPC   GL154229   1.167   4.270   6.153
 9229POPC   GL254230   1.258   4.471   6.153
 9229POPC   C1A54231   1.181   4.286   6.453
 9229POPC   D2A54232   1.227   4.281   6.753
 9229POPC   C3A54233   1.245   4.322   7.053
 9229POPC   C4A54234   1.237   4.298   7.353
 9229POPC   C1B54235   1.255   4.564   6.453
 9229POPC   C2B54236   1.326   4.569   6.753
 9229POPC   C3B54237   1.261   4.553   7.053
 9229POPC   C4B54238   1.306   4.558   7.353
 9230POPC   NC354239   7.402  33.786   5.553
 9230POPC   PO454240   7.410  33.756   5.853
 9230POPC   GL154241   7.428  33.797   6.153
 9230POPC   GL254242   7.302  33.723   6.153
 9230POPC   C1A54243   7.378  33.821   6.453
 9230POPC   D2A54244   7.466  33.808   6.753
 9230POPC   C3A54245   7.383  33.773   7.053
 9230POPC   C4A54246   7.458  33.814   7.353
 9230POPC   C1B54247   7.237  33.678   6.453
 9230POPC   C2B54248   7.207  33.727   6.753
 9230POPC   C3B54249   7.184  33.650   7.053
 9230POPC   C4B54250   7.187  33.720   7.353
 9231POPC   NC354251  26.791  21.373   5.553
 9231POPC   PO454252  26.851  21.347   5.853
 9231POPC   GL154253  26.818  21.434   6.153
 9231POPC   GL254254  26.806  21.519   6.153
 9231POPC   C1A54255  26.849  21.394   6.453
 9231POPC   D2A54256  26.858  21.363   6.753
 9231POPC   C3A54257  26.841  21.374   7.053
 9231POPC   C4A54258  26.849  21.418   7.353
 9231POPC   C1B54259  26.707  21.594   6.453
 9231POPC   C2B54260  26.737  21.654   6.753
 9231POPC   C3B54261  26.731  21.588   7.053
 9231POPC   C4B54262  26.749  21.612   7.353
 9232POPC   NC354263  26.041   1.185   5.553
 9232POPC   PO454264  26.054   1.238   5.853
 9232POPC   GL154265  26.025   1.249   6.153
 9232POPC   GL254266  26.134   1.115   6.153
 9232POPC   C1A54267  26.063   1.229   6.453
 9232POPC   D2A54268  26.043   1.211   6.753
 9232POPC   C3A54269  26.032   1.224   7.053
 9232POPC   C4A54270  26.070   1.207   7.353
 9232POPC   C1B54271  26.255   1.060   6.453
 9232POPC   C2B54272  26.249   1.030   6.753
 9232POPC   C3B54273  26.191   1.085   7.053
 9232POPC   C4B54274  26.226   1.074   7.353
 9233POPC   NC354275  39.216  18.253   5.553
 9233POPC   PO454276  39.198  18.307   5.853
 9233POPC   GL154277  39.251  18.311   6.153
 9233POPC   GL254278  39.198  18.160   6.153
 9233POPC   C1A54279  39.264  18.323   6.453
 9233POPC   D2A54280  39.238  18.269   6.753
 9233POPC   C3A54281  39.252  18.292   7.053
 9233POPC   C4A54282  39.230  18.236   7.353
 9233POPC   C1B54283  39.200  17.986   6.453
 9233POPC   C2B54284  39.269  18.029   6.753
 9233POPC   C3B54285  39.287  18.003   7.053
 9233POPC   C4B54286  39.288  17.985   7.353
 9234POPC   NC354287  11.261  14.431   5.553
 9234POPC   PO454288  11.256  14.409   5.853
 9234POPC   GL154289  11.301  14.395   6.153
 9234POPC   GL254290  11.236  14.556   6.153
 9234POPC   C1A54291  11.274  14.431   6.453
 9234POPC   D2A54292  11.299  14.373   6.753
 9234POPC   C3A54293  11.345  14.442   7.053
 9234POPC   C4A54294  11.275  14.357   7.353
 9234POPC   C1B54295  11.181  14.597   6.453
 9234POPC   C2B54296  11.202  14.672   6.753
 9234POPC   C3B54297  11.239  14.675   7.053
 9234POPC   C4B54298  11.226  14.593   7.353
 9235POPC   NC354299  29.169  26.011   5.553
 9235POPC   PO454300  29.177  26.088   5.853
 9235POPC   GL154301  29.098  26.079   6.153
 9235POPC   GL254302  29.149  25.895   6.153
 9235POPC   C1A54303  29.160  26.087   6.453
 9235POPC   D2A54304  29.107  25.994   6.753
 9235POPC   C3A54305  29.114  26.069   7.053
 9235POPC   C4A54306  29.155  26.069   7.353
 9235POPC   C1B54307  29.137  25.839   6.453
 9235POPC   C2B54308  29.143  25.758   6.753
 9235POPC   C3B54309  29.176  25.796   7.053
 9235POPC   C4B54310  29.161  25.778   7.353
 9236POPC   NC354311  44.644  43.083   5.553
 9236POPC   PO454312  44.634  43.063   5.853
 9236POPC   GL154313  44.638  43.087   6.153
 9236POPC   GL254314  44.562  43.148   6.153
 9236POPC   C1A54315  44.680  43.116   6.453
 9236POPC   D2A54316  44.672  43.119   6.753
 9236POPC   C3A54317  44.655  43.146   7.053
 9236POPC   C4A54318  44.656  43.068   7.353
 9236POPC   C1B54319  44.477  43.249   6.453
 9236POPC   C2B54320  44.442  43.240   6.753
 9236POPC   C3B54321  44.499  43.303   7.053
 9236POPC   C4B54322  44.488  43.257   7.353
 9237POPC   NC354323  36.104  13.594   5.553
 9237POPC   PO454324  36.087  13.622   5.853
 9237POPC   GL154325  36.143  13.608   6.153
 9237POPC   GL254326  36.007  13.591   6.153
 9237POPC   C1A54327  36.136  13.609   6.453
 9237POPC   D2A54328  36.140  13.631   6.753
 9237POPC   C3A54329  36.110  13.585   7.053
 9237POPC   C4A54330  36.143  13.611   7.353
 9237POPC   C1B54331  35.895  13.534   6.453
 9237POPC   C2B54332  35.876  13.605   6.753
 9237POPC   C3B54333  35.903  13.543   7.053
 9237POPC   C4B54334  35.921  13.541   7.353
 9238POPC   NC354335   7.372   1.940   5.553
 9238POPC   PO454336   7.417   2.019   5.853
 9238POPC   GL154337   7.419   2.034   6.153
 9238POPC   GL254338   7.475   1.847   6.153
 9238POPC   C1A54339   7.438   1.972   6.453
 9238POPC   D2A54340   7.379   1.988   6.753
 9238POPC   C3A54341   7.390   1.959   7.053
 9238POPC   C4A54342   7.389   2.039   7.353
 9238POPC   C1B54343   7.560   1.822   6.453
 9238POPC   C2B54344   7.552   1.783   6.753
 9238POPC   C3B54345   7.531   1.812   7.053
 9238POPC   C4B54346   7.602   1.768   7.353
 9239POPC   NC354347  41.608  29.905   5.553
 9239POPC   PO454348  41.555  29.940   5.853
 9239POPC   GL154349  41.575  29.923   6.153
 9239POPC   GL254350  41.491  29.854   6.153
 9239POPC   C1A54351  41.510  29.923   6.453
 9239POPC   D2A54352  41.520  29.909   6.753
 9239POPC   C3A54353  41.547  29.901   7.053
 9239POPC   C4A54354  41.565  29.911   7.353
 9239POPC   C1B54355  41.385  29.750   6.453
 9239POPC   C2B54356  41.393  29.807   6.753
 9239POPC   C3B54357  41.346  29.788   7.053
 9239POPC   C4B54358  41.334  29.787   7.353
 9240POPC   NC354359  38.443  15.143   5.553
 9240POPC   PO454360  38.458  15.134   5.853
 9240POPC   GL154361  38.453  15.183   6.153
 9240POPC   GL254362  38.422  15.042   6.153
 9240POPC   C1A54363  38.472  15.169   6.453
 9240POPC   D2A54364  38.447  15.203   6.753
 9240POPC   C3A54365  38.464  15.151   7.053
 9240POPC   C4A54366  38.446  15.131   7.353
 9240POPC   C1B54367  38.305  14.933   6.453
 9240POPC   C2B54368  38.275  14.963   6.753
 9240POPC   C3B54369  38.282  14.929   7.053
 9240POPC   C4B54370  38.302  15.008   7.353
 9241POPC   NC354371  38.450  14.420   5.553
 9241POPC   PO454372  38.464  14.436   5.853
 9241POPC   GL154373  38.472  14.363   6.153
 9241POPC   GL254374  38.404  14.554   6.153
 9241POPC   C1A54375  38.488  14.437   6.453
 9241POPC   D2A54376  38.430  14.403   6.753
 9241POPC   C3A54377  38.430  14.421   7.053
 9241POPC   C4A54378  38.498  14.423   7.353
 9241POPC   C1B54379  38.338  14.609   6.453
 9241POPC   C2B54380  38.314  14.622   6.753
 9241POPC   C3B54381  38.307  14.658   7.053
 9241POPC   C4B54382  38.357  14.580   7.353
 9242POPC   NC354383   3.495  28.418   5.553
 9242POPC   PO454384   3.515  28.406   5.853
 9242POPC   GL154385   3.516  28.330   6.153
 9242POPC   GL254386   3.601  28.236   6.153
 9242POPC   C1A54387   3.571  28.386   6.453
 9242POPC   D2A54388   3.564  28.366   6.753
 9242POPC   C3A54389   3.549  28.335   7.053
 9242POPC   C4A54390   3.585  28.387   7.353
 9242POPC   C1B54391   3.579  28.112   6.453
 9242POPC   C2B54392   3.595  28.160   6.753
 9242POPC   C3B54393   3.629  28.168   7.053
 9242POPC   C4B54394   3.643  28.096   7.353
 9243POPC   NC354395   0.454  27.635   5.553
 9243POPC   PO454396   0.445  27.552   5.853
 9243POPC   GL154397   0.402  27.605   6.153
 9243POPC   GL254398   0.316  27.608   6.153
 9243POPC   C1A54399   0.443  27.588   6.453
 9243POPC   D2A54400   0.462  27.573   6.753
 9243POPC   C3A54401   0.432  27.593   7.053
 9243POPC   C4A54402   0.400  27.560   7.353
 9243POPC   C1B54403   0.226  27.586   6.453
 9243POPC   C2B54404   0.189  27.575   6.753
 9243POPC   C3B54405   0.213  27.520   7.053
 9243POPC   C4B54406   0.212  27.585   7.353
 9244POPC   NC354407  23.692  42.324   5.553
 9244POPC   PO454408  23.668  42.318   5.853
 9244POPC   GL154409  23.744  42.324   6.153
 9244POPC   GL254410  23.776  42.354   6.153
 9244POPC   C1A54411  23.697  42.334   6.453
 9244POPC   D2A54412  23.746  42.345   6.753
 9244POPC   C3A54413  23.707  42.336   7.053
 9244POPC   C4A54414  23.745  42.372   7.353
 9244POPC   C1B54415  23.950  42.435   6.453
 9244POPC   C2B54416  23.933  42.490   6.753
 9244POPC   C3B54417  23.886  42.510   7.053
 9244POPC   C4B54418  23.958  42.480   7.353
 9245POPC   NC354419  33.062  14.404   5.553
 9245POPC   PO454420  33.021  14.424   5.853
 9245POPC   GL154421  33.042  14.370   6.153
 9245POPC   GL254422  33.071  14.525   6.153
 9245POPC   C1A54423  33.067  14.451   6.453
 9245POPC   D2A54424  33.012  14.379   6.753
 9245POPC   C3A54425  33.048  14.369   7.053
 9245POPC   C4A54426  33.008  14.438   7.353
 9245POPC   C1B54427  33.061  14.613   6.453
 9245POPC   C2B54428  33.085  14.697   6.753
 9245POPC   C3B54429  33.033  14.650   7.053
 9245POPC   C4B54430  33.021  14.615   7.353
 9246POPC   NC354431  17.460  44.652   5.553
 9246POPC   PO454432  17.496  44.641   5.853
 9246POPC   GL154433  17.515  44.675   6.153
 9246POPC   GL254434  17.667  44.601   6.153
 9246POPC   C1A54435  17.463  44.696   6.453
 9246POPC   D2A54436  17.497  44.663   6.753
 9246POPC   C3A54437  17.534  44.653   7.053
 9246POPC   C4A54438  17.517  44.613   7.353
 9246POPC   C1B54439  17.792  44.617   6.453
 9246POPC   C2B54440  17.762  44.676   6.753
 9246POPC   C3B54441  17.788  44.648   7.053
 9246POPC   C4B54442  17.754  44.654   7.353
 9247POPC   NC354443   3.511   3.572   5.553
 9247POPC   PO454444   3.534   3.533   5.853
 9247POPC   GL154445   3.578   3.590   6.153
 9247POPC   GL254446   3.373   3.583   6.153
 9247POPC   C1A54447   3.550   3.578   6.453
 9247POPC   D2A54448   3.523   3.533   6.753
 9247POPC   C3A54449   3.523   3.558   7.053
 9247POPC   C4A54450   3.548   3.584   7.353
 9247POPC   C1B54451   3.312   3.554   6.453
 9247POPC   C2B54452   3.302   3.522   6.753
 9247POPC   C3B54453   3.251   3.557   7.053
 9247POPC   C4B54454   3.247   3.507   7.353
 9248POPC   NC354455  26.082  12.872   5.553
 9248POPC   PO454456  26.037  12.846   5.853
 9248POPC   GL154457  26.068  12.825   6.153
 9248POPC   GL254458  25.947  12.916   6.153
 9248POPC   C1A54459  26.006  12.840   6.453
 9248POPC   D2A54460  26.088  12.873   6.753
 9248POPC   C3A54461  26.091  12.826   7.053
 9248POPC   C4A54462  26.068  12.811   7.353
 9248POPC   C1B54463  25.833  12.968   6.453
 9248POPC   C2B54464  25.846  12.983   6.753
 9248POPC   C3B54465  25.844  13.019   7.053
 9248POPC   C4B54466  25.796  12.958   7.353
 9249POPC   NC354467  11.269   8.200   5.553
 9249POPC   PO454468  11.344   8.239   5.853
 9249POPC   GL154469  11.342   8.170   6.153
 9249POPC   GL254470  11.284   8.302   6.153
 9249POPC   C1A54471  11.292   8.221   6.453
 9249POPC   D2A54472  11.304   8.188   6.753
 9249POPC   C3A54473  11.290   8.148   7.053
 9249POPC   C4A54474  11.268   8.239   7.353
 9249POPC   C1B54475  11.210   8.463   6.453
 9249POPC   C2B54476  11.169   8.393   6.753
 9249POPC   C3B54477  11.206   8.418   7.053
 9249POPC   C4B54478  11.214   8.417   7.353
 9250POPC   NC354479  37.704  21.418   5.553
 9250POPC   PO454480  37.701  21.420   5.853
 9250POPC   GL154481  37.646  21.358   6.153
 9250POPC   GL254482  37.566  21.459   6.153
 9250POPC   C1A54483  37.650  21.354   6.453
 9250POPC   D2A54484  37.662  21.425   6.753
 9250POPC   C3A54485  37.636  21.347   7.053
 9250POPC   C4A54486  37.637  21.343   7.353
 9250POPC   C1B54487  37.524  21.582   6.453
 9250POPC   C2B54488  37.596  21.588   6.753
 9250POPC   C3B54489  37.534  21.626   7.053
 9250POPC   C4B54490  37.574  21.603   7.353
 9251POPC   NC354491  15.143  34.544   5.553
 9251POPC   PO454492  15.186  34.571   5.853
 9251POPC   GL154493  15.135  34.529   6.153
 9251POPC   GL254494  15.197  34.683   6.153
 9251POPC   C1A54495  15.167  34.590   6.453
 9251POPC   D2A54496  15.168  34.542   6.753
 9251POPC   C3A54497  15.163  34.579   7.053
 9251POPC   C4A54498  15.131  34.559   7.353
 9251POPC   C1B54499  15.294  34.833   6.453
 9251POPC   C2B54500  15.284  34.770   6.753
 9251POPC   C3B54501  15.298  34.789   7.053
 9251POPC   C4B54502  15.265  34.827   7.353
 9252POPC   NC354503  29.132  18.247   5.553
 9252POPC   PO454504  29.136  18.254   5.853
 9252POPC   GL154505  29.108  18.237   6.153
 9252POPC   GL254506  29.265  18.379   6.153
 9252POPC   C1A54507  29.186  18.331   6.453
 9252POPC   D2A54508  29.120  18.239   6.753
 9252POPC   C3A54509  29.148  18.329   7.053
 9252POPC   C4A54510  29.183  18.298   7.353
 9252POPC   C1B54511  29.401  18.343   6.453
 9252POPC   C2B54512  29.422  18.418   6.753
 9252POPC   C3B54513  29.343  18.361   7.053
 9252POPC   C4B54514  29.386  18.360   7.353
 9253POPC   NC354515   5.821  36.106   5.553
 9253POPC   PO454516   5.819  36.142   5.853
 9253POPC   GL154517   5.891  36.109   6.153
 9253POPC   GL254518   5.724  36.141   6.153
 9253POPC   C1A54519   5.834  36.097   6.453
 9253POPC   D2A54520   5.829  36.108   6.753
 9253POPC   C3A54521   5.913  36.080   7.053
 9253POPC   C4A54522   5.870  36.167   7.353
 9253POPC   C1B54523   5.573  36.137   6.453
 9253POPC   C2B54524   5.596  36.161   6.753
 9253POPC   C3B54525   5.573  36.198   7.053
 9253POPC   C4B54526   5.606  36.207   7.353
 9254POPC   NC354527   5.051   3.505   5.553
 9254POPC   PO454528   5.090   3.516   5.853
 9254POPC   GL154529   5.062   3.510   6.153
 9254POPC   GL254530   4.942   3.645   6.153
 9254POPC   C1A54531   5.079   3.504   6.453
 9254POPC   D2A54532   5.082   3.535   6.753
 9254POPC   C3A54533   5.079   3.548   7.053
 9254POPC   C4A54534   5.084   3.579   7.353
 9254POPC   C1B54535   4.908   3.629   6.453
 9254POPC   C2B54536   4.876   3.616   6.753
 9254POPC   C3B54537   4.856   3.611   7.053
 9254POPC   C4B54538   4.910   3.657   7.353
 9255POPC   NC354539   2.726   1.986   5.553
 9255POPC   PO454540   2.787   1.967   5.853
 9255POPC   GL154541   2.733   1.968   6.153
 9255POPC   GL254542   2.820   1.947   6.153
 9255POPC   C1A54543   2.759   1.947   6.453
 9255POPC   D2A54544   2.726   2.015   6.753
 9255POPC   C3A54545   2.725   1.941   7.053
 9255POPC   C4A54546   2.717   1.987   7.353
 9255POPC   C1B54547   2.977   1.844   6.453
 9255POPC   C2B54548   2.973   1.789   6.753
 9255POPC   C3B54549   2.932   1.858   7.053
 9255POPC   C4B54550   2.952   1.804   7.353
 9256POPC   NC354551   9.771   2.748   5.553
 9256POPC   PO454552   9.713   2.800   5.853
 9256POPC   GL154553   9.765   2.774   6.153
 9256POPC   GL254554   9.636   2.665   6.153
 9256POPC   C1A54555   9.699   2.788   6.453
 9256POPC   D2A54556   9.772   2.812   6.753
 9256POPC   C3A54557   9.736   2.748   7.053
 9256POPC   C4A54558   9.757   2.736   7.353
 9256POPC   C1B54559   9.524   2.624   6.453
 9256POPC   C2B54560   9.518   2.660   6.753
 9256POPC   C3B54561   9.501   2.693   7.053
 9256POPC   C4B54562   9.540   2.624   7.353
 9257POPC   NC354563  12.862  17.513   5.553
 9257POPC   PO454564  12.844  17.476   5.853
 9257POPC   GL154565  12.846  17.517   6.153
 9257POPC   GL254566  12.769  17.435   6.153
 9257POPC   C1A54567  12.846  17.471   6.453
 9257POPC   D2A54568  12.874  17.468   6.753
 9257POPC   C3A54569  12.823  17.498   7.053
 9257POPC   C4A54570  12.877  17.504   7.353
 9257POPC   C1B54571  12.629  17.342   6.453
 9257POPC   C2B54572  12.674  17.345   6.753
 9257POPC   C3B54573  12.602  17.310   7.053
 9257POPC   C4B54574  12.645  17.335   7.353
 9258POPC   NC354575   5.827  37.640   5.553
 9258POPC   PO454576   5.917  37.683   5.853
 9258POPC   GL154577   5.880  37.717   6.153
 9258POPC   GL254578   5.890  37.603   6.153
 9258POPC   C1A54579   5.892  37.663   6.453
 9258POPC   D2A54580   5.835  37.694   6.753
 9258POPC   C3A54581   5.888  37.725   7.053
 9258POPC   C4A54582   5.914  37.692   7.353
 9258POPC   C1B54583   5.976  37.410   6.453
 9258POPC   C2B54584   5.976  37.411   6.753
 9258POPC   C3B54585   5.921  37.459   7.053
 9258POPC   C4B54586   5.928  37.419   7.353
 9259POPC   NC354587   5.050  28.365   5.553
 9259POPC   PO454588   5.074  28.394   5.853
 9259POPC   GL154589   5.073  28.389   6.153
 9259POPC   GL254590   4.951  28.345   6.153
 9259POPC   C1A54591   5.129  28.405   6.453
 9259POPC   D2A54592   5.071  28.396   6.753
 9259POPC   C3A54593   5.056  28.348   7.053
 9259POPC   C4A54594   5.075  28.353   7.353
 9259POPC   C1B54595   4.843  28.321   6.453
 9259POPC   C2B54596   4.855  28.244   6.753
 9259POPC   C3B54597   4.832  28.256   7.053
 9259POPC   C4B54598   4.888  28.336   7.353
 9260POPC   NC354599  15.150  42.303   5.553
 9260POPC   PO454600  15.212  42.369   5.853
 9260POPC   GL154601  15.173  42.352   6.153
 9260POPC   GL254602  15.128  42.431   6.153
 9260POPC   C1A54603  15.150  42.378   6.453
 9260POPC   D2A54604  15.180  42.317   6.753
 9260POPC   C3A54605  15.192  42.287   7.053
 9260POPC   C4A54606  15.217  42.289   7.353
 9260POPC   C1B54607  15.134  42.591   6.453
 9260POPC   C2B54608  15.080  42.568   6.753
 9260POPC   C3B54609  15.154  42.591   7.053
 9260POPC   C4B54610  15.121  42.574   7.353
 9261POPC   NC354611   2.781  10.534   5.553
 9261POPC   PO454612   2.750  10.512   5.853
 9261POPC   GL154613   2.787  10.489   6.153
 9261POPC   GL254614   2.845  10.401   6.153
 9261POPC   C1A54615   2.749  10.566   6.453
 9261POPC   D2A54616   2.780  10.518   6.753
 9261POPC   C3A54617   2.799  10.478   7.053
 9261POPC   C4A54618   2.727  10.492   7.353
 9261POPC   C1B54619   2.960  10.365   6.453
 9261POPC   C2B54620   2.987  10.392   6.753
 9261POPC   C3B54621   2.956  10.319   7.053
 9261POPC   C4B54622   2.986  10.355   7.353
 9262POPC   NC354623  29.928  39.198   5.553
 9262POPC   PO454624  29.963  39.188   5.853
 9262POPC   GL154625  29.956  39.222   6.153
 9262POPC   GL254626  29.897  39.405   6.153
 9262POPC   C1A54627  29.941  39.260   6.453
 9262POPC   D2A54628  29.920  39.275   6.753
 9262POPC   C3A54629  29.893  39.181   7.053
 9262POPC   C4A54630  29.911  39.206   7.353
 9262POPC   C1B54631  29.933  39.506   6.453
 9262POPC   C2B54632  29.879  39.515   6.753
 9262POPC   C3B54633  29.896  39.438   7.053
 9262POPC   C4B54634  29.915  39.508   7.353
 9263POPC   NC354635  31.513  20.588   5.553
 9263POPC   PO454636  31.493  20.571   5.853
 9263POPC   GL154637  31.460  20.563   6.153
 9263POPC   GL254638  31.580  20.573   6.153
 9263POPC   C1A54639  31.509  20.638   6.453
 9263POPC   D2A54640  31.455  20.599   6.753
 9263POPC   C3A54641  31.432  20.579   7.053
 9263POPC   C4A54642  31.489  20.626   7.353
 9263POPC   C1B54643  31.735  20.595   6.453
 9263POPC   C2B54644  31.772  20.557   6.753
 9263POPC   C3B54645  31.700  20.580   7.053
 9263POPC   C4B54646  31.718  20.599   7.353
 9264POPC   NC354647   9.767  43.884   5.553
 9264POPC   PO454648   9.761  43.906   5.853
 9264POPC   GL154649   9.779  43.860   6.153
 9264POPC   GL254650   9.812  43.849   6.153
 9264POPC   C1A54651   9.763  43.861   6.453
 9264POPC   D2A54652   9.779  43.923   6.753
 9264POPC   C3A54653   9.757  43.929   7.053
 9264POPC   C4A54654   9.754  43.841   7.353
 9264POPC   C1B54655   9.918  43.705   6.453
 9264POPC   C2B54656   9.909  43.711   6.753
 9264POPC   C3B54657   9.943  43.690   7.053
 9264POPC   C4B54658   9.972  43.709   7.353
 9265POPC   NC354659   3.550   5.916   5.553
 9265POPC   PO454660   3.495   5.846   5.853
 9265POPC   GL154661   3.572   5.833   6.153
 9265POPC   GL254662   3.549   6.040   6.153
 9265POPC   C1A54663   3.571   5.901   6.453
 9265POPC   D2A54664   3.541   5.892   6.753
 9265POPC   C3A54665   3.525   5.845   7.053
 9265POPC   C4A54666   3.515   5.819   7.353
 9265POPC   C1B54667   3.481   6.087   6.453
 9265POPC   C2B54668   3.469   6.092   6.753
 9265POPC   C3B54669   3.537   6.069   7.053
 9265POPC   C4B54670   3.540   6.087   7.353
 9266POPC   NC354671   5.132   1.972   5.553
 9266POPC   PO454672   5.075   1.952   5.853
 9266POPC   GL154673   5.104   1.952   6.153
 9266POPC   GL254674   5.170   2.106   6.153
 9266POPC   C1A54675   5.070   2.008   6.453
 9266POPC   D2A54676   5.137   2.020   6.753
 9266POPC   C3A54677   5.099   1.968   7.053
 9266POPC   C4A54678   5.049   2.027   7.353
 9266POPC   C1B54679   5.188   2.214   6.453
 9266POPC   C2B54680   5.195   2.201   6.753
 9266POPC   C3B54681   5.270   2.231   7.053
 9266POPC   C4B54682   5.261   2.231   7.353
 9267POPC   NC354683   6.671   8.229   5.553
 9267POPC   PO454684   6.630   8.169   5.853
 9267POPC   GL154685   6.601   8.237   6.153
 9267POPC   GL254686   6.635   8.278   6.153
 9267POPC   C1A54687   6.683   8.185   6.453
 9267POPC   D2A54688   6.597   8.209   6.753
 9267POPC   C3A54689   6.633   8.221   7.053
 9267POPC   C4A54690   6.597   8.223   7.353
 9267POPC   C1B54691   6.607   8.397   6.453
 9267POPC   C2B54692   6.660   8.403   6.753
 9267POPC   C3B54693   6.631   8.451   7.053
 9267POPC   C4B54694   6.663   8.399   7.353
 9268POPC   NC354695  29.909   2.739   5.553
 9268POPC   PO454696  29.894   2.763   5.853
 9268POPC   GL154697  29.918   2.765   6.153
 9268POPC   GL254698  30.059   2.759   6.153
 9268POPC   C1A54699  29.964   2.723   6.453
 9268POPC   D2A54700  29.885   2.802   6.753
 9268POPC   C3A54701  29.910   2.791   7.053
 9268POPC   C4A54702  29.873   2.785   7.353
 9268POPC   C1B54703  30.196   2.828   6.453
 9268POPC   C2B54704  30.136   2.814   6.753
 9268POPC   C3B54705  30.130   2.747   7.053
 9268POPC   C4B54706  30.197   2.798   7.353
 9269POPC   NC354707  31.455  43.136   5.553
 9269POPC   PO454708  31.474  43.092   5.853
 9269POPC   GL154709  31.437  43.063   6.153
 9269POPC   GL254710  31.620  43.131   6.153
 9269POPC   C1A54711  31.444  43.064   6.453
 9269POPC   D2A54712  31.465  43.071   6.753
 9269POPC   C3A54713  31.489  43.106   7.053
 9269POPC   C4A54714  31.504  43.113   7.353
 9269POPC   C1B54715  31.701  43.172   6.453
 9269POPC   C2B54716  31.723  43.242   6.753
 9269POPC   C3B54717  31.680  43.221   7.053
 9269POPC   C4B54718  31.709  43.221   7.353
 9270POPC   NC354719  27.634  21.348   5.553
 9270POPC   PO454720  27.563  21.408   5.853
 9270POPC   GL154721  27.545  21.415   6.153
 9270POPC   GL254722  27.494  21.442   6.153
 9270POPC   C1A54723  27.586  21.385   6.453
 9270POPC   D2A54724  27.565  21.381   6.753
 9270POPC   C3A54725  27.549  21.433   7.053
 9270POPC   C4A54726  27.622  21.337   7.353
 9270POPC   C1B54727  27.387  21.417   6.453
 9270POPC   C2B54728  27.304  21.473   6.753
 9270POPC   C3B54729  27.384  21.402   7.053
 9270POPC   C4B54730  27.300  21.387   7.353
 9271POPC   NC354731  22.203  44.620   5.553
 9271POPC   PO454732  22.142  44.656   5.853
 9271POPC   GL154733  22.143  44.647   6.153
 9271POPC   GL254734  22.122  44.500   6.153
 9271POPC   C1A54735  22.193  44.637   6.453
 9271POPC   D2A54736  22.186  44.697   6.753
 9271POPC   C3A54737  22.183  44.709   7.053
 9271POPC   C4A54738  22.120  44.654   7.353
 9271POPC   C1B54739  22.180  44.381   6.453
 9271POPC   C2B54740  22.129  44.451   6.753
 9271POPC   C3B54741  22.120  44.394   7.053
 9271POPC   C4B54742  22.187  44.439   7.353
 9272POPC   NC354743  33.834   1.238   5.553
 9272POPC   PO454744  33.787   1.187   5.853
 9272POPC   GL154745  33.831   1.242   6.153
 9272POPC   GL254746  33.715   1.334   6.153
 9272POPC   C1A54747  33.755   1.164   6.453
 9272POPC   D2A54748  33.764   1.216   6.753
 9272POPC   C3A54749  33.833   1.249   7.053
 9272POPC   C4A54750  33.811   1.196   7.353
 9272POPC   C1B54751  33.649   1.473   6.453
 9272POPC   C2B54752  33.625   1.424   6.753
 9272POPC   C3B54753  33.655   1.387   7.053
 9272POPC   C4B54754  33.713   1.471   7.353
 9273POPC   NC354755  23.747  23.720   5.553
 9273POPC   PO454756  23.728  23.727   5.853
 9273POPC   GL154757  23.754  23.708   6.153
 9273POPC   GL254758  23.636  23.621   6.153
 9273POPC   C1A54759  23.671  23.674   6.453
 9273POPC   D2A54760  23.703  23.679   6.753
 9273POPC   C3A54761  23.709  23.671   7.053
 9273POPC   C4A54762  23.696  23.735   7.353
 9273POPC   C1B54763  23.627  23.519   6.453
 9273POPC   C2B54764  23.630  23.503   6.753
 9273POPC   C3B54765  23.578  23.526   7.053
 9273POPC   C4B54766  23.644  23.480   7.353
 9274POPC   NC354767  11.344  27.587   5.553
 9274POPC   PO454768  11.329  27.547   5.853
 9274POPC   GL154769  11.327  27.590   6.153
 9274POPC   GL254770  11.238  27.680   6.153
 9274POPC   C1A54771  11.285  27.635   6.453
 9274POPC   D2A54772  11.290  27.640   6.753
 9274POPC   C3A54773  11.275  27.573   7.053
 9274POPC   C4A54774  11.335  27.592   7.353
 9274POPC   C1B54775  11.279  27.871   6.453
 9274POPC   C2B54776  11.191  27.786   6.753
 9274POPC   C3B54777  11.285  27.855   7.053
 9274POPC   C4B54778  11.247  27.848   7.353
 9275POPC   NC354779   8.203  22.976   5.553
 9275POPC   PO454780   8.208  22.980   5.853
 9275POPC   GL154781   8.243  22.959   6.153
 9275POPC   GL254782   8.295  22.988   6.153
 9275POPC   C1A54783   8.208  22.942   6.453
 9275POPC   D2A54784   8.213  22.892   6.753
 9275POPC   C3A54785   8.199  22.932   7.053
 9275POPC   C4A54786   8.206  22.958   7.353
 9275POPC   C1B54787   8.490  23.022   6.453
 9275POPC   C2B54788   8.448  22.971   6.753
 9275POPC   C3B54789   8.479  23.007   7.053
 9275POPC   C4B54790   8.394  22.998   7.353
 9276POPC   NC354791   5.096  26.801   5.553
 9276POPC   PO454792   5.117  26.822   5.853
 9276POPC   GL154793   5.138  26.772   6.153
 9276POPC   GL254794   5.237  26.902   6.153
 9276POPC   C1A54795   5.101  26.837   6.453
 9276POPC   D2A54796   5.123  26.847   6.753
 9276POPC   C3A54797   5.090  26.837   7.053
 9276POPC   C4A54798   5.070  26.849   7.353
 9276POPC   C1B54799   5.374  26.947   6.453
 9276POPC   C2B54800   5.366  26.912   6.753
 9276POPC   C3B54801   5.369  26.916   7.053
 9276POPC   C4B54802   5.345  26.931   7.353
 9277POPC   NC354803  11.311  22.981   5.553
 9277POPC   PO454804  11.292  22.921   5.853
 9277POPC   GL154805  11.308  22.973   6.153
 9277POPC   GL254806  11.167  22.928   6.153
 9277POPC   C1A54807  11.348  22.972   6.453
 9277POPC   D2A54808  11.271  22.932   6.753
 9277POPC   C3A54809  11.336  22.889   7.053
 9277POPC   C4A54810  11.324  22.890   7.353
 9277POPC   C1B54811  11.034  22.996   6.453
 9277POPC   C2B54812  11.040  22.907   6.753
 9277POPC   C3B54813  11.051  22.944   7.053
 9277POPC   C4B54814  11.088  22.938   7.353
 9278POPC   NC354815   7.470  22.930   5.553
 9278POPC   PO454816   7.374  22.920   5.853
 9278POPC   GL154817   7.462  22.928   6.153
 9278POPC   GL254818   7.449  22.854   6.153
 9278POPC   C1A54819   7.460  22.919   6.453
 9278POPC   D2A54820   7.445  22.973   6.753
 9278POPC   C3A54821   7.430  22.942   7.053
 9278POPC   C4A54822   7.385  22.935   7.353
 9278POPC   C1B54823   7.506  22.673   6.453
 9278POPC   C2B54824   7.421  22.671   6.753
 9278POPC   C3B54825   7.454  22.736   7.053
 9278POPC   C4B54826   7.426  22.741   7.353
 9279POPC   NC354827  42.287  35.352   5.553
 9279POPC   PO454828  42.352  35.346   5.853
 9279POPC   GL154829  42.304  35.383   6.153
 9279POPC   GL254830  42.410  35.291   6.153
 9279POPC   C1A54831  42.286  35.351   6.453
 9279POPC   D2A54832  42.292  35.375   6.753
 9279POPC   C3A54833  42.315  35.316   7.053
 9279POPC   C4A54834  42.349  35.350   7.353
 9279POPC   C1B54835  42.541  35.300   6.453
 9279POPC   C2B54836  42.535  35.293   6.753
 9279POPC   C3B54837  42.537  35.333   7.053
 9279POPC   C4B54838  42.622  35.295   7.353
 9280POPC   NC354839  34.610  10.568   5.553
 9280POPC   PO454840  34.596  10.492   5.853
 9280POPC   GL154841  34.616  10.499   6.153
 9280POPC   GL254842  34.504  10.519   6.153
 9280POPC   C1A54843  34.601  10.512   6.453
 9280POPC   D2A54844  34.550  10.549   6.753
 9280POPC   C3A54845  34.555  10.568   7.053
 9280POPC   C4A54846  34.618  10.515   7.353
 9280POPC   C1B54847  34.351  10.393   6.453
 9280POPC   C2B54848  34.362  10.466   6.753
 9280POPC   C3B54849  34.341  10.472   7.053
 9280POPC   C4B54850  34.358  10.402   7.353
 9281POPC   NC354851  33.006  36.892   5.553
 9281POPC   PO454852  32.977  36.885   5.853
 9281POPC   GL154853  33.007  36.945   6.153
 9281POPC   GL254854  33.039  36.790   6.153
 9281POPC   C1A54855  33.042  36.898   6.453
 9281POPC   D2A54856  32.990  36.879   6.753
 9281POPC   C3A54857  33.064  36.936   7.053
 9281POPC   C4A54858  33.001  36.925   7.353
 9281POPC   C1B54859  33.008  36.648   6.453
 9281POPC   C2B54860  33.030  36.618   6.753
 9281POPC   C3B54861  32.940  36.645   7.053
 9281POPC   C4B54862  32.981  36.638   7.353
 9282POPC   NC354863  36.103  19.107   5.553
 9282POPC   PO454864  36.082  19.048   5.853
 9282POPC   GL154865  36.147  19.010   6.153
 9282POPC   GL254866  36.111  19.182   6.153
 9282POPC   C1A54867  36.120  19.074   6.453
 9282POPC   D2A54868  36.146  19.030   6.753
 9282POPC   C3A54869  36.171  19.056   7.053
 9282POPC   C4A54870  36.106  19.015   7.353
 9282POPC   C1B54871  36.070  19.301   6.453
 9282POPC   C2B54872  36.073  19.278   6.753
 9282POPC   C3B54873  36.053  19.311   7.053
 9282POPC   C4B54874  36.133  19.296   7.353
 9283POPC   NC354875  18.265   1.987   5.553
 9283POPC   PO454876  18.285   2.024   5.853
 9283POPC   GL154877  18.257   1.979   6.153
 9283POPC   GL254878  18.401   2.080   6.153
 9283POPC   C1A54879  18.262   2.018   6.453
 9283POPC   D2A54880  18.301   1.961   6.753
 9283POPC   C3A54881  18.255   1.962   7.053
 9283POPC   C4A54882  18.249   2.030   7.353
 9283POPC   C1B54883  18.438   2.180   6.453
 9283POPC   C2B54884  18.396   2.207   6.753
 9283POPC   C3B54885  18.381   2.158   7.053
 9283POPC   C4B54886  18.399   2.193   7.353
 9284POPC   NC354887   4.269  37.691   5.553
 9284POPC   PO454888   4.328  37.672   5.853
 9284POPC   GL154889   4.272  37.630   6.153
 9284POPC   GL254890   4.239  37.723   6.153
 9284POPC   C1A54891   4.323  37.655   6.453
 9284POPC   D2A54892   4.349  37.699   6.753
 9284POPC   C3A54893   4.293  37.671   7.053
 9284POPC   C4A54894   4.363  37.728   7.353
 9284POPC   C1B54895   4.099  37.688   6.453
 9284POPC   C2B54896   4.028  37.733   6.753
 9284POPC   C3B54897   4.057  37.724   7.053
 9284POPC   C4B54898   4.054  37.735   7.353
 9285POPC   NC354899   0.446   7.405   5.553
 9285POPC   PO454900   0.427   7.448   5.853
 9285POPC   GL154901   0.486   7.449   6.153
 9285POPC   GL254902   0.377   7.548   6.153
 9285POPC   C1A54903   0.422   7.434   6.453
 9285POPC   D2A54904   0.484   7.435   6.753
 9285POPC   C3A54905   0.474   7.423   7.053
 9285POPC   C4A54906   0.403   7.454   7.353
 9285POPC   C1B54907   0.276   7.574   6.453
 9285POPC   C2B54908   0.265   7.615   6.753
 9285POPC   C3B54909   0.273   7.587   7.053
 9285POPC   C4B54910   0.298   7.611   7.353
 9286POPC   NC354911  26.090  40.820   5.553
 9286POPC   PO454912  26.089  40.832   5.853
 9286POPC   GL154913  25.996  40.745   6.153
 9286POPC   GL254914  25.882  40.761   6.153
 9286POPC   C1A54915  26.049  40.801   6.453
 9286POPC   D2A54916  26.047  40.832   6.753
 9286POPC   C3A54917  25.995  40.759   7.053
 9286POPC   C4A54918  26.049  40.774   7.353
 9286POPC   C1B54919  25.757  40.790   6.453
 9286POPC   C2B54920  25.771  40.832   6.753
 9286POPC   C3B54921  25.758  40.845   7.053
 9286POPC   C4B54922  25.775  40.796   7.353
 9287POPC   NC354923  26.087  33.052   5.553
 9287POPC   PO454924  26.005  33.016   5.853
 9287POPC   GL154925  26.087  33.007   6.153
 9287POPC   GL254926  26.010  33.123   6.153
 9287POPC   C1A54927  26.012  33.068   6.453
 9287POPC   D2A54928  26.045  33.070   6.753
 9287POPC   C3A54929  26.016  33.018   7.053
 9287POPC   C4A54930  26.075  32.996   7.353
 9287POPC   C1B54931  26.022  33.256   6.453
 9287POPC   C2B54932  26.017  33.291   6.753
 9287POPC   C3B54933  25.954  33.307   7.053
 9287POPC   C4B54934  26.018  33.282   7.353
 9288POPC   NC354935  11.324  40.734   5.553
 9288POPC   PO454936  11.283  40.762   5.853
 9288POPC   GL154937  11.282  40.820   6.153
 9288POPC   GL254938  11.345  40.626   6.153
 9288POPC   C1A54939  11.326  40.754   6.453
 9288POPC   D2A54940  11.335  40.804   6.753
 9288POPC   C3A54941  11.294  40.738   7.053
 9288POPC   C4A54942  11.265  40.819   7.353
 9288POPC   C1B54943  11.345  40.537   6.453
 9288POPC   C2B54944  11.323  40.513   6.753
 9288POPC   C3B54945  11.369  40.521   7.053
 9288POPC   C4B54946  11.306  40.527   7.353
 9289POPC   NC354947   7.460  37.728   5.553
 9289POPC   PO454948   7.421  37.678   5.853
 9289POPC   GL154949   7.465  37.718   6.153
 9289POPC   GL254950   7.282  37.688   6.153
 9289POPC   C1A54951   7.440  37.719   6.453
 9289POPC   D2A54952   7.446  37.692   6.753
 9289POPC   C3A54953   7.426  37.712   7.053
 9289POPC   C4A54954   7.405  37.720   7.353
 9289POPC   C1B54955   7.197  37.595   6.453
 9289POPC   C2B54956   7.199  37.637   6.753
 9289POPC   C3B54957   7.142  37.613   7.053
 9289POPC   C4B54958   7.180  37.665   7.353
 9290POPC   NC354959  40.815   9.718   5.553
 9290POPC   PO454960  40.806   9.784   5.853
 9290POPC   GL154961  40.793   9.783   6.153
 9290POPC   GL254962  40.820   9.893   6.153
 9290POPC   C1A54963  40.758   9.752   6.453
 9290POPC   D2A54964  40.796   9.744   6.753
 9290POPC   C3A54965  40.778   9.756   7.053
 9290POPC   C4A54966  40.782   9.739   7.353
 9290POPC   C1B54967  40.891   9.958   6.453
 9290POPC   C2B54968  40.951   9.968   6.753
 9290POPC   C3B54969  40.913   9.949   7.053
 9290POPC   C4B54970  40.891   9.991   7.353
 9291POPC   NC354971  29.100   0.443   5.553
 9291POPC   PO454972  29.166   0.479   5.853
 9291POPC   GL154973  29.133   0.397   6.153
 9291POPC   GL254974  29.154   0.512   6.153
 9291POPC   C1A54975  29.164   0.449   6.453
 9291POPC   D2A54976  29.129   0.395   6.753
 9291POPC   C3A54977  29.172   0.478   7.053
 9291POPC   C4A54978  29.109   0.478   7.353
 9291POPC   C1B54979  29.134   0.674   6.453
 9291POPC   C2B54980  29.078   0.703   6.753
 9291POPC   C3B54981  29.118   0.661   7.053
 9291POPC   C4B54982  29.064   0.721   7.353
 9292POPC   NC354983  43.896  38.481   5.553
 9292POPC   PO454984  43.871  38.485   5.853
 9292POPC   GL154985  43.884  38.458   6.153
 9292POPC   GL254986  43.825  38.571   6.153
 9292POPC   C1A54987  43.905  38.406   6.453
 9292POPC   D2A54988  43.879  38.493   6.753
 9292POPC   C3A54989  43.882  38.492   7.053
 9292POPC   C4A54990  43.880  38.502   7.353
 9292POPC   C1B54991  43.752  38.682   6.453
 9292POPC   C2B54992  43.749  38.719   6.753
 9292POPC   C3B54993  43.764  38.701   7.053
 9292POPC   C4B54994  43.723  38.620   7.353
 9293POPC   NC354995   0.469  26.822   5.553
 9293POPC   PO454996   0.402  26.832   5.853
 9293POPC   GL154997   0.395  26.777   6.153
 9293POPC   GL254998   0.356  26.976   6.153
 9293POPC   C1A54999   0.453  26.835   6.453
 9293POPC   D2A55000   0.443  26.854   6.753
 9293POPC   C3A55001   0.463  26.844   7.053
 9293POPC   C4A55002   0.473  26.802   7.353
 9293POPC   C1B55003   0.325  27.067   6.453
 9293POPC   C2B55004   0.377  27.014   6.753
 9293POPC   C3B55005   0.370  27.034   7.053
 9293POPC   C4B55006   0.379  27.014   7.353
 9294POPC   NC355007  13.630  11.327   5.553
 9294POPC   PO455008  13.649  11.318   5.853
 9294POPC   GL155009  13.591  11.332   6.153
 9294POPC   GL255010  13.539  11.269   6.153
 9294POPC   C1A55011  13.664  11.302   6.453
 9294POPC   D2A55012  13.583  11.284   6.753
 9294POPC   C3A55013  13.593  11.296   7.053
 9294POPC   C4A55014  13.660  11.274   7.353
 9294POPC   C1B55015  13.468  11.102   6.453
 9294POPC   C2B55016  13.387  11.155   6.753
 9294POPC   C3B55017  13.415  11.104   7.053
 9294POPC   C4B55018  13.417  11.099   7.353
 9295POPC   NC355019   8.929  42.344   5.553
 9295POPC   PO455020   8.982  42.345   5.853
 9295POPC   GL155021   9.006  42.374   6.153
 9295POPC   GL255022   9.013  42.200   6.153
 9295POPC   C1A55023   8.995  42.361   6.453
 9295POPC   D2A55024   8.988  42.306   6.753
 9295POPC   C3A55025   8.994  42.348   7.053
 9295POPC   C4A55026   8.987  42.288   7.353
 9295POPC   C1B55027   9.136  42.155   6.453
 9295POPC   C2B55028   9.122  42.190   6.753
 9295POPC   C3B55029   9.144  42.124   7.053
 9295POPC   C4B55030   9.175  42.108   7.353
 9296POPC   NC355031   1.216  40.000   5.553
 9296POPC   PO455032   1.205  40.040   5.853
 9296POPC   GL155033   1.186  39.989   6.153
 9296POPC   GL255034   1.286  40.174   6.153
 9296POPC   C1A55035   1.216  40.018   6.453
 9296POPC   D2A55036   1.231  40.046   6.753
 9296POPC   C3A55037   1.258  40.016   7.053
 9296POPC   C4A55038   1.170  39.996   7.353
 9296POPC   C1B55039   1.306  40.202   6.453
 9296POPC   C2B55040   1.263  40.282   6.753
 9296POPC   C3B55041   1.278  40.231   7.053
 9296POPC   C4B55042   1.287  40.199   7.353
 9297POPC   NC355043  37.652   3.513   5.553
 9297POPC   PO455044  37.685   3.523   5.853
 9297POPC   GL155045  37.717   3.551   6.153
 9297POPC   GL255046  37.544   3.661   6.153
 9297POPC   C1A55047  37.646   3.576   6.453
 9297POPC   D2A55048  37.718   3.550   6.753
 9297POPC   C3A55049  37.684   3.576   7.053
 9297POPC   C4A55050  37.695   3.534   7.353
 9297POPC   C1B55051  37.452   3.751   6.453
 9297POPC   C2B55052  37.473   3.746   6.753
 9297POPC   C3B55053  37.534   3.683   7.053
 9297POPC   C4B55054  37.479   3.695   7.353
 9298POPC   NC355055   1.239  41.564   5.553
 9298POPC   PO455056   1.214  41.586   5.853
 9298POPC   GL155057   1.188  41.517   6.153
 9298POPC   GL255058   1.099  41.581   6.153
 9298POPC   C1A55059   1.252  41.552   6.453
 9298POPC   D2A55060   1.228  41.531   6.753
 9298POPC   C3A55061   1.200  41.581   7.053
 9298POPC   C4A55062   1.228  41.535   7.353
 9298POPC   C1B55063   0.926  41.471   6.453
 9298POPC   C2B55064   0.980  41.532   6.753
 9298POPC   C3B55065   0.973  41.547   7.053
 9298POPC   C4B55066   0.947  41.525   7.353
 9299POPC   NC355067  13.618  39.281   5.553
 9299POPC   PO455068  13.661  39.195   5.853
 9299POPC   GL155069  13.646  39.220   6.153
 9299POPC   GL255070  13.712  39.303   6.153
 9299POPC   C1A55071  13.669  39.220   6.453
 9299POPC   D2A55072  13.668  39.275   6.753
 9299POPC   C3A55073  13.629  39.190   7.053
 9299POPC   C4A55074  13.596  39.254   7.353
 9299POPC   C1B55075  13.748  39.419   6.453
 9299POPC   C2B55076  13.720  39.445   6.753
 9299POPC   C3B55077  13.764  39.430   7.053
 9299POPC   C4B55078  13.701  39.435   7.353
 9300POPC   NC355079  25.248  36.952   5.553
 9300POPC   PO455080  25.292  36.892   5.853
 9300POPC   GL155081  25.282  36.864   6.153
 9300POPC   GL255082  25.172  36.961   6.153
 9300POPC   C1A55083  25.300  36.868   6.453
 9300POPC   D2A55084  25.220  36.858   6.753
 9300POPC   C3A55085  25.262  36.861   7.053
 9300POPC   C4A55086  25.280  36.886   7.353
 9300POPC   C1B55087  25.101  37.052   6.453
 9300POPC   C2B55088  25.104  37.066   6.753
 9300POPC   C3B55089  25.035  37.034   7.053
 9300POPC   C4B55090  25.062  37.083   7.353
 9301POPC   NC355091  36.148  18.331   5.553
 9301POPC   PO455092  36.130  18.301   5.853
 9301POPC   GL155093  36.158  18.289   6.153
 9301POPC   GL255094  36.021  18.223   6.153
 9301POPC   C1A55095  36.163  18.330   6.453
 9301POPC   D2A55096  36.127  18.255   6.753
 9301POPC   C3A55097  36.094  18.317   7.053
 9301POPC   C4A55098  36.157  18.304   7.353
 9301POPC   C1B55099  35.994  18.083   6.453
 9301POPC   C2B55100  35.932  18.146   6.753
 9301POPC   C3B55101  35.982  18.110   7.053
 9301POPC   C4B55102  35.987  18.141   7.353
 9302POPC   NC355103  36.159  22.200   5.553
 9302POPC   PO455104  36.102  22.120   5.853
 9302POPC   GL155105  36.139  22.114   6.153
 9302POPC   GL255106  36.099  22.259   6.153
 9302POPC   C1A55107  36.097  22.135   6.453
 9302POPC   D2A55108  36.106  22.158   6.753
 9302POPC   C3A55109  36.078  22.187   7.053
 9302POPC   C4A55110  36.116  22.135   7.353
 9302POPC   C1B55111  36.158  22.456   6.453
 9302POPC   C2B55112  36.139  22.380   6.753
 9302POPC   C3B55113  36.125  22.439   7.053
 9302POPC   C4B55114  36.177  22.423   7.353
 9303POPC   NC355115   6.612  26.803   5.553
 9303POPC   PO455116   6.599  26.773   5.853
 9303POPC   GL155117   6.676  26.841   6.153
 9303POPC   GL255118   6.540  26.782   6.153
 9303POPC   C1A55119   6.690  26.853   6.453
 9303POPC   D2A55120   6.691  26.844   6.753
 9303POPC   C3A55121   6.647  26.818   7.053
 9303POPC   C4A55122   6.606  26.812   7.353
 9303POPC   C1B55123   6.492  26.660   6.453
 9303POPC   C2B55124   6.493  26.709   6.753
 9303POPC   C3B55125   6.457  26.624   7.053
 9303POPC   C4B55126   6.419  26.705   7.353
 9304POPC   NC355127  26.780  12.056   5.553
 9304POPC   PO455128  26.804  12.110   5.853
 9304POPC   GL155129  26.857  12.067   6.153
 9304POPC   GL255130  26.709  12.170   6.153
 9304POPC   C1A55131  26.820  12.067   6.453
 9304POPC   D2A55132  26.782  12.054   6.753
 9304POPC   C3A55133  26.777  12.111   7.053
 9304POPC   C4A55134  26.805  12.094   7.353
 9304POPC   C1B55135  26.550  12.198   6.453
 9304POPC   C2B55136  26.550  12.215   6.753
 9304POPC   C3B55137  26.614  12.176   7.053
 9304POPC   C4B55138  26.566  12.193   7.353
 9305POPC   NC355139  42.300  26.040   5.553
 9305POPC   PO455140  42.305  26.043   5.853
 9305POPC   GL155141  42.299  26.025   6.153
 9305POPC   GL255142  42.460  25.921   6.153
 9305POPC   C1A55143  42.309  26.013   6.453
 9305POPC   D2A55144  42.361  26.073   6.753
 9305POPC   C3A55145  42.320  26.042   7.053
 9305POPC   C4A55146  42.351  26.003   7.353
 9305POPC   C1B55147  42.512  25.837   6.453
 9305POPC   C2B55148  42.506  25.858   6.753
 9305POPC   C3B55149  42.520  25.897   7.053
 9305POPC   C4B55150  42.514  25.856   7.353
 9306POPC   NC355151  12.829   9.775   5.553
 9306POPC   PO455152  12.860   9.725   5.853
 9306POPC   GL155153  12.841   9.793   6.153
 9306POPC   GL255154  12.941   9.747   6.153
 9306POPC   C1A55155  12.895   9.771   6.453
 9306POPC   D2A55156  12.847   9.719   6.753
 9306POPC   C3A55157  12.811   9.699   7.053
 9306POPC   C4A55158  12.810   9.705   7.353
 9306POPC   C1B55159  13.094   9.729   6.453
 9306POPC   C2B55160  13.104   9.645   6.753
 9306POPC   C3B55161  13.139   9.717   7.053
 9306POPC   C4B55162  13.105   9.727   7.353
 9307POPC   NC355163  29.922  25.292   5.553
 9307POPC   PO455164  29.961  25.300   5.853
 9307POPC   GL155165  29.947  25.231   6.153
 9307POPC   GL255166  30.083  25.225   6.153
 9307POPC   C1A55167  29.887  25.281   6.453
 9307POPC   D2A55168  29.877  25.311   6.753
 9307POPC   C3A55169  29.919  25.270   7.053
 9307POPC   C4A55170  29.964  25.304   7.353
 9307POPC   C1B55171  30.171  25.151   6.453
 9307POPC   C2B55172  30.121  25.209   6.753
 9307POPC   C3B55173  30.174  25.238   7.053
 9307POPC   C4B55174  30.136  25.215   7.353
 9308POPC   NC355175   3.512  38.497   5.553
 9308POPC   PO455176   3.532  38.490   5.853
 9308POPC   GL155177   3.576  38.429   6.153
 9308POPC   GL255178   3.645  38.452   6.153
 9308POPC   C1A55179   3.568  38.499   6.453
 9308POPC   D2A55180   3.559  38.485   6.753
 9308POPC   C3A55181   3.586  38.453   7.053
 9308POPC   C4A55182   3.532  38.498   7.353
 9308POPC   C1B55183   3.751  38.365   6.453
 9308POPC   C2B55184   3.770  38.385   6.753
 9308POPC   C3B55185   3.809  38.387   7.053
 9308POPC   C4B55186   3.757  38.375   7.353
 9309POPC   NC355187  10.489  19.808   5.553
 9309POPC   PO455188  10.484  19.804   5.853
 9309POPC   GL155189  10.515  19.831   6.153
 9309POPC   GL255190  10.648  19.817   6.153
 9309POPC   C1A55191  10.487  19.832   6.453
 9309POPC   D2A55192  10.511  19.814   6.753
 9309POPC   C3A55193  10.495  19.828   7.053
 9309POPC   C4A55194  10.517  19.859   7.353
 9309POPC   C1B55195  10.721  19.782   6.453
 9309POPC   C2B55196  10.782  19.755   6.753
 9309POPC   C3B55197  10.743  19.794   7.053
 9309POPC   C4B55198  10.747  19.724   7.353
 9310POPC   NC355199  10.540  42.301   5.553
 9310POPC   PO455200  10.554  42.299   5.853
 9310POPC   GL155201  10.504  42.356   6.153
 9310POPC   GL255202  10.400  42.465   6.153
 9310POPC   C1A55203  10.530  42.342   6.453
 9310POPC   D2A55204  10.485  42.328   6.753
 9310POPC   C3A55205  10.541  42.359   7.053
 9310POPC   C4A55206  10.528  42.309   7.353
 9310POPC   C1B55207  10.342  42.494   6.453
 9310POPC   C2B55208  10.392  42.560   6.753
 9310POPC   C3B55209  10.373  42.482   7.053
 9310POPC   C4B55210  10.323  42.475   7.353
 9311POPC   NC355211  18.259  24.490   5.553
 9311POPC   PO455212  18.256  24.479   5.853
 9311POPC   GL155213  18.305  24.499   6.153
 9311POPC   GL255214  18.418  24.507   6.153
 9311POPC   C1A55215  18.320  24.488   6.453
 9311POPC   D2A55216  18.286  24.487   6.753
 9311POPC   C3A55217  18.283  24.498   7.053
 9311POPC   C4A55218  18.286  24.448   7.353
 9311POPC   C1B55219  18.487  24.488   6.453
 9311POPC   C2B55220  18.560  24.530   6.753
 9311POPC   C3B55221  18.504  24.508   7.053
 9311POPC   C4B55222  18.544  24.530   7.353
 9312POPC   NC355223   9.710   2.039   5.553
 9312POPC   PO455224   9.737   2.026   5.853
 9312POPC   GL155225   9.792   2.007   6.153
 9312POPC   GL255226   9.599   2.016   6.153
 9312POPC   C1A55227   9.715   1.965   6.453
 9312POPC   D2A55228   9.731   1.950   6.753
 9312POPC   C3A55229   9.758   1.998   7.053
 9312POPC   C4A55230   9.698   1.941   7.353
 9312POPC   C1B55231   9.486   1.964   6.453
 9312POPC   C2B55232   9.456   1.989   6.753
 9312POPC   C3B55233   9.541   1.943   7.053
 9312POPC   C4B55234   9.519   1.962   7.353
 9313POPC   NC355235  20.615  12.078   5.553
 9313POPC   PO455236  20.596  12.080   5.853
 9313POPC   GL155237  20.646  12.052   6.153
 9313POPC   GL255238  20.733  11.972   6.153
 9313POPC   C1A55239  20.607  12.088   6.453
 9313POPC   D2A55240  20.613  12.043   6.753
 9313POPC   C3A55241  20.564  12.080   7.053
 9313POPC   C4A55242  20.564  12.037   7.353
 9313POPC   C1B55243  20.818  11.917   6.453
 9313POPC   C2B55244  20.850  11.919   6.753
 9313POPC   C3B55245  20.783  11.901   7.053
 9313POPC   C4B55246  20.852  11.951   7.353
 9314POPC   NC355247   6.661  37.683   5.553
 9314POPC   PO455248   6.656  37.723   5.853
 9314POPC   GL155249   6.681  37.708   6.153
 9314POPC   GL255250   6.657  37.559   6.153
 9314POPC   C1A55251   6.614  37.675   6.453
 9314POPC   D2A55252   6.662  37.631   6.753
 9314POPC   C3A55253   6.642  37.675   7.053
 9314POPC   C4A55254   6.601  37.726   7.353
 9314POPC   C1B55255   6.702  37.460   6.453
 9314POPC   C2B55256   6.628  37.382   6.753
 9314POPC   C3B55257   6.698  37.476   7.053
 9314POPC   C4B55258   6.647  37.457   7.353
 9315POPC   NC355259  20.641  15.965   5.553
 9315POPC   PO455260  20.634  15.949   5.853
 9315POPC   GL155261  20.587  15.999   6.153
 9315POPC   GL255262  20.455  15.987   6.153
 9315POPC   C1A55263  20.566  15.971   6.453
 9315POPC   D2A55264  20.584  15.931   6.753
 9315POPC   C3A55265  20.566  15.989   7.053
 9315POPC   C4A55266  20.576  15.969   7.353
 9315POPC   C1B55267  20.311  15.974   6.453
 9315POPC   C2B55268  20.401  15.949   6.753
 9315POPC   C3B55269  20.384  15.989   7.053
 9315POPC   C4B55270  20.398  15.964   7.353
 9316POPC   NC355271  30.686  43.886   5.553
 9316POPC   PO455272  30.681  43.926   5.853
 9316POPC   GL155273  30.736  43.883   6.153
 9316POPC   GL255274  30.809  43.910   6.153
 9316POPC   C1A55275  30.684  43.883   6.453
 9316POPC   D2A55276  30.698  43.910   6.753
 9316POPC   C3A55277  30.669  43.908   7.053
 9316POPC   C4A55278  30.694  43.912   7.353
 9316POPC   C1B55279  30.962  43.964   6.453
 9316POPC   C2B55280  30.903  43.938   6.753
 9316POPC   C3B55281  30.952  43.942   7.053
 9316POPC   C4B55282  30.961  43.896   7.353
 9317POPC   NC355283   5.073  11.272   5.553
 9317POPC   PO455284   5.080  11.311   5.853
 9317POPC   GL155285   5.066  11.322   6.153
 9317POPC   GL255286   4.951  11.419   6.153
 9317POPC   C1A55287   5.058  11.334   6.453
 9317POPC   D2A55288   5.138  11.332   6.753
 9317POPC   C3A55289   5.088  11.300   7.053
 9317POPC   C4A55290   5.052  11.260   7.353
 9317POPC   C1B55291   4.863  11.459   6.453
 9317POPC   C2B55292   4.893  11.487   6.753
 9317POPC   C3B55293   4.914  11.455   7.053
 9317POPC   C4B55294   4.938  11.421   7.353
 9318POPC   NC355295  31.442  36.886   5.553
 9318POPC   PO455296  31.466  36.941   5.853
 9318POPC   GL155297  31.480  36.883   6.153
 9318POPC   GL255298  31.569  36.996   6.153
 9318POPC   C1A55299  31.427  36.928   6.453
 9318POPC   D2A55300  31.434  36.906   6.753
 9318POPC   C3A55301  31.456  36.856   7.053
 9318POPC   C4A55302  31.488  36.866   7.353
 9318POPC   C1B55303  31.642  37.136   6.453
 9318POPC   C2B55304  31.650  37.106   6.753
 9318POPC   C3B55305  31.593  37.093   7.053
 9318POPC   C4B55306  31.654  37.118   7.353
 9319POPC   NC355307  13.656  29.138   5.553
 9319POPC   PO455308  13.580  29.106   5.853
 9319POPC   GL155309  13.590  29.097   6.153
 9319POPC   GL255310  13.686  29.062   6.153
 9319POPC   C1A55311  13.592  29.095   6.453
 9319POPC   D2A55312  13.588  29.174   6.753
 9319POPC   C3A55313  13.643  29.194   7.053
 9319POPC   C4A55314  13.674  29.117   7.353
 9319POPC   C1B55315  13.803  28.948   6.453
 9319POPC   C2B55316  13.859  28.970   6.753
 9319POPC   C3B55317  13.863  28.950   7.053
 9319POPC   C4B55318  13.843  28.987   7.353
 9320POPC   NC355319  40.049   2.798   5.553
 9320POPC   PO455320  39.966   2.815   5.853
 9320POPC   GL155321  39.962   2.792   6.153
 9320POPC   GL255322  39.927   2.849   6.153
 9320POPC   C1A55323  40.028   2.811   6.453
 9320POPC   D2A55324  40.046   2.792   6.753
 9320POPC   C3A55325  40.015   2.728   7.053
 9320POPC   C4A55326  40.025   2.747   7.353
 9320POPC   C1B55327  39.951   3.023   6.453
 9320POPC   C2B55328  39.919   3.034   6.753
 9320POPC   C3B55329  39.940   3.006   7.053
 9320POPC   C4B55330  39.910   3.049   7.353
 9321POPC   NC355331   4.338   6.668   5.553
 9321POPC   PO455332   4.281   6.643   5.853
 9321POPC   GL155333   4.359   6.619   6.153
 9321POPC   GL255334   4.204   6.548   6.153
 9321POPC   C1A55335   4.317   6.595   6.453
 9321POPC   D2A55336   4.350   6.672   6.753
 9321POPC   C3A55337   4.283   6.605   7.053
 9321POPC   C4A55338   4.292   6.597   7.353
 9321POPC   C1B55339   4.173   6.458   6.453
 9321POPC   C2B55340   4.150   6.461   6.753
 9321POPC   C3B55341   4.185   6.464   7.053
 9321POPC   C4B55342   4.187   6.451   7.353
 9322POPC   NC355343   8.984  36.943   5.553
 9322POPC   PO455344   8.933  36.889   5.853
 9322POPC   GL155345   8.946  36.940   6.153
 9322POPC   GL255346   8.891  36.897   6.153
 9322POPC   C1A55347   8.925  36.885   6.453
 9322POPC   D2A55348   8.968  36.934   6.753
 9322POPC   C3A55349   9.013  36.883   7.053
 9322POPC   C4A55350   8.975  36.890   7.353
 9322POPC   C1B55351   8.710  36.982   6.453
 9322POPC   C2B55352   8.752  37.000   6.753
 9322POPC   C3B55353   8.710  36.990   7.053
 9322POPC   C4B55354   8.710  36.919   7.353
 9323POPC   NC355355  32.270   1.962   5.553
 9323POPC   PO455356  32.297   1.970   5.853
 9323POPC   GL155357  32.212   2.015   6.153
 9323POPC   GL255358  32.141   1.956   6.153
 9323POPC   C1A55359  32.234   1.981   6.453
 9323POPC   D2A55360  32.221   1.986   6.753
 9323POPC   C3A55361  32.214   1.969   7.053
 9323POPC   C4A55362  32.205   2.027   7.353
 9323POPC   C1B55363  32.043   1.907   6.453
 9323POPC   C2B55364  32.058   1.870   6.753
 9323POPC   C3B55365  32.044   1.912   7.053
 9323POPC   C4B55366  32.017   1.919   7.353
 9324POPC   NC355367  37.678  12.047   5.553
 9324POPC   PO455368  37.693  12.035   5.853
 9324POPC   GL155369  37.643  12.091   6.153
 9324POPC   GL255370  37.729  12.225   6.153
 9324POPC   C1A55371  37.709  12.092   6.453
 9324POPC   D2A55372  37.673  12.034   6.753
 9324POPC   C3A55373  37.696  12.056   7.053
 9324POPC   C4A55374  37.676  12.040   7.353
 9324POPC   C1B55375  37.792  12.271   6.453
 9324POPC   C2B55376  37.810  12.315   6.753
 9324POPC   C3B55377  37.747  12.260   7.053
 9324POPC   C4B55378  37.822  12.292   7.353
 9325POPC   NC355379  38.422  24.483   5.553
 9325POPC   PO455380  38.440  24.511   5.853
 9325POPC   GL155381  38.445  24.471   6.153
 9325POPC   GL255382  38.324  24.419   6.153
 9325POPC   C1A55383  38.453  24.485   6.453
 9325POPC   D2A55384  38.433  24.485   6.753
 9325POPC   C3A55385  38.414  24.444   7.053
 9325POPC   C4A55386  38.420  24.479   7.353
 9325POPC   C1B55387  38.239  24.337   6.453
 9325POPC   C2B55388  38.234  24.306   6.753
 9325POPC   C3B55389  38.250  24.346   7.053
 9325POPC   C4B55390  38.267  24.402   7.353
 9326POPC   NC355391  29.179  15.214   5.553
 9326POPC   PO455392  29.169  15.219   5.853
 9326POPC   GL155393  29.176  15.206   6.153
 9326POPC   GL255394  29.256  15.291   6.153
 9326POPC   C1A55395  29.181  15.225   6.453
 9326POPC   D2A55396  29.164  15.181   6.753
 9326POPC   C3A55397  29.130  15.150   7.053
 9326POPC   C4A55398  29.161  15.201   7.353
 9326POPC   C1B55399  29.324  15.399   6.453
 9326POPC   C2B55400  29.298  15.329   6.753
 9326POPC   C3B55401  29.352  15.309   7.053
 9326POPC   C4B55402  29.297  15.330   7.353
 9327POPC   NC355403   4.344  19.792   5.553
 9327POPC   PO455404   4.321  19.850   5.853
 9327POPC   GL155405   4.337  19.820   6.153
 9327POPC   GL255406   4.179  19.764   6.153
 9327POPC   C1A55407   4.355  19.788   6.453
 9327POPC   D2A55408   4.323  19.856   6.753
 9327POPC   C3A55409   4.361  19.789   7.053
 9327POPC   C4A55410   4.327  19.822   7.353
 9327POPC   C1B55411   4.136  19.655   6.453
 9327POPC   C2B55412   4.166  19.693   6.753
 9327POPC   C3B55413   4.116  19.674   7.053
 9327POPC   C4B55414   4.130  19.690   7.353
 9328POPC   NC355415  26.051  14.401   5.553
 9328POPC   PO455416  26.077  14.423   5.853
 9328POPC   GL155417  26.044  14.431   6.153
 9328POPC   GL255418  26.161  14.509   6.153
 9328POPC   C1A55419  26.054  14.398   6.453
 9328POPC   D2A55420  26.055  14.369   6.753
 9328POPC   C3A55421  26.028  14.431   7.053
 9328POPC   C4A55422  26.012  14.413   7.353
 9328POPC   C1B55423  26.209  14.616   6.453
 9328POPC   C2B55424  26.213  14.634   6.753
 9328POPC   C3B55425  26.217  14.574   7.053
 9328POPC   C4B55426  26.148  14.610   7.353
 9329POPC   NC355427  29.967  11.333   5.553
 9329POPC   PO455428  29.935  11.312   5.853
 9329POPC   GL155429  29.876  11.324   6.153
 9329POPC   GL255430  29.830  11.335   6.153
 9329POPC   C1A55431  29.920  11.263   6.453
 9329POPC   D2A55432  29.921  11.341   6.753
 9329POPC   C3A55433  29.882  11.260   7.053
 9329POPC   C4A55434  29.968  11.257   7.353
 9329POPC   C1B55435  29.694  11.465   6.453
 9329POPC   C2B55436  29.688  11.434   6.753
 9329POPC   C3B55437  29.737  11.379   7.053
 9329POPC   C4B55438  29.704  11.420   7.353
 9330POPC   NC355439  32.261  36.113   5.553
 9330POPC   PO455440  32.288  36.092   5.853
 9330POPC   GL155441  32.201  36.142   6.153
 9330POPC   GL255442  32.323  36.229   6.153
 9330POPC   C1A55443  32.224  36.109   6.453
 9330POPC   D2A55444  32.268  36.140   6.753
 9330POPC   C3A55445  32.225  36.147   7.053
 9330POPC   C4A55446  32.287  36.136   7.353
 9330POPC   C1B55447  32.362  36.382   6.453
 9330POPC   C2B55448  32.314  36.350   6.753
 9330POPC   C3B55449  32.363  36.404   7.053
 9330POPC   C4B55450  32.299  36.342   7.353
 9331POPC   NC355451  32.269   1.256   5.553
 9331POPC   PO455452  32.265   1.256   5.853
 9331POPC   GL155453  32.271   1.213   6.153
 9331POPC   GL255454  32.338   1.199   6.153
 9331POPC   C1A55455  32.228   1.235   6.453
 9331POPC   D2A55456  32.229   1.223   6.753
 9331POPC   C3A55457  32.264   1.231   7.053
 9331POPC   C4A55458  32.251   1.239   7.353
 9331POPC   C1B55459  32.530   1.096   6.453
 9331POPC   C2B55460  32.441   1.094   6.753
 9331POPC   C3B55461  32.479   1.152   7.053
 9331POPC   C4B55462  32.497   1.103   7.353
 9332POPC   NC355463  31.501   5.887   5.553
 9332POPC   PO455464  31.480   5.879   5.853
 9332POPC   GL155465  31.441   5.909   6.153
 9332POPC   GL255466  31.596   5.812   6.153
 9332POPC   C1A55467  31.471   5.848   6.453
 9332POPC   D2A55468  31.441   5.858   6.753
 9332POPC   C3A55469  31.499   5.822   7.053
 9332POPC   C4A55470  31.443   5.892   7.353
 9332POPC   C1B55471  31.638   5.740   6.453
 9332POPC   C2B55472  31.689   5.701   6.753
 9332POPC   C3B55473  31.645   5.678   7.053
 9332POPC   C4B55474  31.622   5.718   7.353
 9333POPC   NC355475  40.021  34.607   5.553
 9333POPC   PO455476  40.016  34.598   5.853
 9333POPC   GL155477  40.054  34.537   6.153
 9333POPC   GL255478  39.843  34.559   6.153
 9333POPC   C1A55479  39.963  34.581   6.453
 9333POPC   D2A55480  39.987  34.604   6.753
 9333POPC   C3A55481  39.982  34.597   7.053
 9333POPC   C4A55482  40.021  34.603   7.353
 9333POPC   C1B55483  39.808  34.510   6.453
 9333POPC   C2B55484  39.732  34.514   6.753
 9333POPC   C3B55485  39.806  34.477   7.053
 9333POPC   C4B55486  39.793  34.453   7.353
 9334POPC   NC355487  29.109   1.236   5.553
 9334POPC   PO455488  29.114   1.240   5.853
 9334POPC   GL155489  29.127   1.231   6.153
 9334POPC   GL255490  29.251   1.262   6.153
 9334POPC   C1A55491  29.127   1.188   6.453
 9334POPC   D2A55492  29.097   1.236   6.753
 9334POPC   C3A55493  29.127   1.245   7.053
 9334POPC   C4A55494  29.143   1.178   7.353
 9334POPC   C1B55495  29.324   1.447   6.453
 9334POPC   C2B55496  29.318   1.436   6.753
 9334POPC   C3B55497  29.330   1.361   7.053
 9334POPC   C4B55498  29.342   1.362   7.353
 9335POPC   NC355499  29.168   1.944   5.553
 9335POPC   PO455500  29.171   1.984   5.853
 9335POPC   GL155501  29.113   1.989   6.153
 9335POPC   GL255502  29.014   2.068   6.153
 9335POPC   C1A55503  29.119   2.008   6.453
 9335POPC   D2A55504  29.195   2.026   6.753
 9335POPC   C3A55505  29.192   2.004   7.053
 9335POPC   C4A55506  29.133   1.948   7.353
 9335POPC   C1B55507  28.938   2.205   6.453
 9335POPC   C2B55508  28.937   2.150   6.753
 9335POPC   C3B55509  28.932   2.210   7.053
 9335POPC   C4B55510  28.928   2.199   7.353
 9336POPC   NC355511  43.890  13.606   5.553
 9336POPC   PO455512  43.901  13.593   5.853
 9336POPC   GL155513  43.906  13.671   6.153
 9336POPC   GL255514  43.826  13.692   6.153
 9336POPC   C1A55515  43.841  13.595   6.453
 9336POPC   D2A55516  43.883  13.609   6.753
 9336POPC   C3A55517  43.863  13.600   7.053
 9336POPC   C4A55518  43.902  13.599   7.353
 9336POPC   C1B55519  43.717  13.756   6.453
 9336POPC   C2B55520  43.703  13.743   6.753
 9336POPC   C3B55521  43.632  13.719   7.053
 9336POPC   C4B55522  43.727  13.801   7.353
 9337POPC   NC355523  33.804  42.300   5.553
 9337POPC   PO455524  33.840  42.379   5.853
 9337POPC   GL155525  33.848  42.339   6.153
 9337POPC   GL255526  33.632  42.308   6.153
 9337POPC   C1A55527  33.773  42.334   6.453
 9337POPC   D2A55528  33.773  42.346   6.753
 9337POPC   C3A55529  33.816  42.303   7.053
 9337POPC   C4A55530  33.752  42.313   7.353
 9337POPC   C1B55531  33.556  42.286   6.453
 9337POPC   C2B55532  33.510  42.224   6.753
 9337POPC   C3B55533  33.537  42.315   7.053
 9337POPC   C4B55534  33.542  42.281   7.353
 9338POPC   NC355535  33.043  26.769   5.553
 9338POPC   PO455536  32.983  26.839   5.853
 9338POPC   GL155537  33.020  26.770   6.153
 9338POPC   GL255538  32.929  26.747   6.153
 9338POPC   C1A55539  33.060  26.816   6.453
 9338POPC   D2A55540  32.975  26.860   6.753
 9338POPC   C3A55541  33.002  26.819   7.053
 9338POPC   C4A55542  33.048  26.809   7.353
 9338POPC   C1B55543  32.901  26.576   6.453
 9338POPC   C2B55544  32.887  26.663   6.753
 9338POPC   C3B55545  32.913  26.589   7.053
 9338POPC   C4B55546  32.837  26.574   7.353
 9339POPC   NC355547  13.640  41.574   5.553
 9339POPC   PO455548  13.646  41.553   5.853
 9339POPC   GL155549  13.612  41.581   6.153
 9339POPC   GL255550  13.638  41.687   6.153
 9339POPC   C1A55551  13.630  41.573   6.453
 9339POPC   D2A55552  13.607  41.511   6.753
 9339POPC   C3A55553  13.661  41.542   7.053
 9339POPC   C4A55554  13.640  41.602   7.353
 9339POPC   C1B55555  13.665  41.791   6.453
 9339POPC   C2B55556  13.621  41.817   6.753
 9339POPC   C3B55557  13.634  41.767   7.053
 9339POPC   C4B55558  13.587  41.806   7.353
 9340POPC   NC355559  27.579  25.270   5.553
 9340POPC   PO455560  27.546  25.217   5.853
 9340POPC   GL155561  27.614  25.263   6.153
 9340POPC   GL255562  27.476  25.155   6.153
 9340POPC   C1A55563  27.615  25.220   6.453
 9340POPC   D2A55564  27.580  25.218   6.753
 9340POPC   C3A55565  27.546  25.306   7.053
 9340POPC   C4A55566  27.556  25.254   7.353
 9340POPC   C1B55567  27.351  25.150   6.453
 9340POPC   C2B55568  27.376  25.178   6.753
 9340POPC   C3B55569  27.332  25.166   7.053
 9340POPC   C4B55570  27.368  25.116   7.353
 9341POPC   NC355571  12.039  15.210   5.553
 9341POPC   PO455572  12.123  15.156   5.853
 9341POPC   GL155573  12.123  15.166   6.153
 9341POPC   GL255574  12.132  15.338   6.153
 9341POPC   C1A55575  12.097  15.190   6.453
 9341POPC   D2A55576  12.051  15.194   6.753
 9341POPC   C3A55577  12.033  15.181   7.053
 9341POPC   C4A55578  12.033  15.140   7.353
 9341POPC   C1B55579  12.116  15.468   6.453
 9341POPC   C2B55580  12.121  15.470   6.753
 9341POPC   C3B55581  12.158  15.437   7.053
 9341POPC   C4B55582  12.152  15.374   7.353
 9342POPC   NC355583  21.414  15.990   5.553
 9342POPC   PO455584  21.405  16.000   5.853
 9342POPC   GL155585  21.423  15.998   6.153
 9342POPC   GL255586  21.262  15.959   6.153
 9342POPC   C1A55587  21.343  15.957   6.453
 9342POPC   D2A55588  21.400  15.929   6.753
 9342POPC   C3A55589  21.368  15.935   7.053
 9342POPC   C4A55590  21.365  15.923   7.353
 9342POPC   C1B55591  21.179  15.903   6.453
 9342POPC   C2B55592  21.152  15.883   6.753
 9342POPC   C3B55593  21.157  15.935   7.053
 9342POPC   C4B55594  21.110  15.976   7.353
 9343POPC   NC355595  28.347  40.745   5.553
 9343POPC   PO455596  28.378  40.793   5.853
 9343POPC   GL155597  28.412  40.772   6.153
 9343POPC   GL255598  28.311  40.909   6.153
 9343POPC   C1A55599  28.396  40.774   6.453
 9343POPC   D2A55600  28.364  40.821   6.753
 9343POPC   C3A55601  28.393  40.783   7.053
 9343POPC   C4A55602  28.369  40.771   7.353
 9343POPC   C1B55603  28.150  40.911   6.453
 9343POPC   C2B55604  28.159  40.989   6.753
 9343POPC   C3B55605  28.227  40.928   7.053
 9343POPC   C4B55606  28.229  41.001   7.353
 9344POPC   NC355607  18.289  36.856   5.553
 9344POPC   PO455608  18.272  36.873   5.853
 9344POPC   GL155609  18.300  36.854   6.153
 9344POPC   GL255610  18.168  36.886   6.153
 9344POPC   C1A55611  18.287  36.895   6.453
 9344POPC   D2A55612  18.256  36.950   6.753
 9344POPC   C3A55613  18.331  36.916   7.053
 9344POPC   C4A55614  18.299  36.893   7.353
 9344POPC   C1B55615  18.056  36.956   6.453
 9344POPC   C2B55616  17.989  36.942   6.753
 9344POPC   C3B55617  18.004  36.905   7.053
 9344POPC   C4B55618  18.049  36.987   7.353
 9345POPC   NC355619  17.475  35.392   5.553
 9345POPC   PO455620  17.530  35.389   5.853
 9345POPC   GL155621  17.467  35.386   6.153
 9345POPC   GL255622  17.610  35.266   6.153
 9345POPC   C1A55623  17.545  35.383   6.453
 9345POPC   D2A55624  17.554  35.335   6.753
 9345POPC   C3A55625  17.474  35.331   7.053
 9345POPC   C4A55626  17.468  35.340   7.353
 9345POPC   C1B55627  17.726  35.196   6.453
 9345POPC   C2B55628  17.669  35.206   6.753
 9345POPC   C3B55629  17.745  35.258   7.053
 9345POPC   C4B55630  17.752  35.245   7.353
 9346POPC   NC355631  41.590  30.670   5.553
 9346POPC   PO455632  41.600  30.660   5.853
 9346POPC   GL155633  41.571  30.663   6.153
 9346POPC   GL255634  41.456  30.602   6.153
 9346POPC   C1A55635  41.536  30.697   6.453
 9346POPC   D2A55636  41.575  30.684   6.753
 9346POPC   C3A55637  41.557  30.694   7.053
 9346POPC   C4A55638  41.539  30.680   7.353
 9346POPC   C1B55639  41.385  30.530   6.453
 9346POPC   C2B55640  41.351  30.506   6.753
 9346POPC   C3B55641  41.419  30.468   7.053
 9346POPC   C4B55642  41.431  30.469   7.353
 9347POPC   NC355643  40.031  15.205   5.553
 9347POPC   PO455644  39.999  15.196   5.853
 9347POPC   GL155645  39.996  15.132   6.153
 9347POPC   GL255646  39.958  15.291   6.153
 9347POPC   C1A55647  40.014  15.156   6.453
 9347POPC   D2A55648  40.000  15.133   6.753
 9347POPC   C3A55649  39.982  15.226   7.053
 9347POPC   C4A55650  39.984  15.176   7.353
 9347POPC   C1B55651  39.894  15.390   6.453
 9347POPC   C2B55652  39.872  15.401   6.753
 9347POPC   C3B55653  39.912  15.366   7.053
 9347POPC   C4B55654  39.853  15.370   7.353
 9348POPC   NC355655  34.604   8.197   5.553
 9348POPC   PO455656  34.533   8.235   5.853
 9348POPC   GL155657  34.598   8.190   6.153
 9348POPC   GL255658  34.652   8.312   6.153
 9348POPC   C1A55659  34.558   8.202   6.453
 9348POPC   D2A55660  34.540   8.148   6.753
 9348POPC   C3A55661  34.552   8.221   7.053
 9348POPC   C4A55662  34.612   8.241   7.353
 9348POPC   C1B55663  34.737   8.343   6.453
 9348POPC   C2B55664  34.712   8.415   6.753
 9348POPC   C3B55665  34.711   8.380   7.053
 9348POPC   C4B55666  34.747   8.356   7.353
 9349POPC   NC355667  26.837  25.994   5.553
 9349POPC   PO455668  26.845  26.029   5.853
 9349POPC   GL155669  26.849  26.054   6.153
 9349POPC   GL255670  26.735  26.149   6.153
 9349POPC   C1A55671  26.800  26.069   6.453
 9349POPC   D2A55672  26.838  26.066   6.753
 9349POPC   C3A55673  26.819  26.010   7.053
 9349POPC   C4A55674  26.786  26.061   7.353
 9349POPC   C1B55675  26.671  26.209   6.453
 9349POPC   C2B55676  26.596  26.239   6.753
 9349POPC   C3B55677  26.616  26.174   7.053
 9349POPC   C4B55678  26.625  26.230   7.353
 9350POPC   NC355679  10.560  11.291   5.553
 9350POPC   PO455680  10.544  11.280   5.853
 9350POPC   GL155681  10.518  11.271   6.153
 9350POPC   GL255682  10.420  11.320   6.153
 9350POPC   C1A55683  10.498  11.263   6.453
 9350POPC   D2A55684  10.476  11.252   6.753
 9350POPC   C3A55685  10.536  11.339   7.053
 9350POPC   C4A55686  10.556  11.270   7.353
 9350POPC   C1B55687  10.262  11.427   6.453
 9350POPC   C2B55688  10.290  11.390   6.753
 9350POPC   C3B55689  10.331  11.331   7.053
 9350POPC   C4B55690  10.297  11.395   7.353
 9351POPC   NC355691   2.038  19.828   5.553
 9351POPC   PO455692   2.038  19.865   5.853
 9351POPC   GL155693   1.986  19.796   6.153
 9351POPC   GL255694   2.062  19.789   6.153
 9351POPC   C1A55695   2.010  19.884   6.453
 9351POPC   D2A55696   2.018  19.798   6.753
 9351POPC   C3A55697   1.955  19.860   7.053
 9351POPC   C4A55698   1.999  19.866   7.353
 9351POPC   C1B55699   2.140  19.652   6.453
 9351POPC   C2B55700   2.197  19.709   6.753
 9351POPC   C3B55701   2.171  19.699   7.053
 9351POPC   C4B55702   2.208  19.707   7.353
 9352POPC   NC355703  33.039   9.796   5.553
 9352POPC   PO455704  32.993   9.735   5.853
 9352POPC   GL155705  32.982   9.779   6.153
 9352POPC   GL255706  33.180   9.809   6.153
 9352POPC   C1A55707  33.052   9.725   6.453
 9352POPC   D2A55708  33.067   9.726   6.753
 9352POPC   C3A55709  33.001   9.748   7.053
 9352POPC   C4A55710  33.073   9.745   7.353
 9352POPC   C1B55711  33.228   9.845   6.453
 9352POPC   C2B55712  33.222   9.839   6.753
 9352POPC   C3B55713  33.233   9.782   7.053
 9352POPC   C4B55714  33.314   9.814   7.353
 9353POPC   NC355715  40.742  22.894   5.553
 9353POPC   PO455716  40.815  22.894   5.853
 9353POPC   GL155717  40.810  22.970   6.153
 9353POPC   GL255718  40.618  22.878   6.153
 9353POPC   C1A55719  40.741  22.934   6.453
 9353POPC   D2A55720  40.812  22.987   6.753
 9353POPC   C3A55721  40.804  22.932   7.053
 9353POPC   C4A55722  40.828  22.924   7.353
 9353POPC   C1B55723  40.520  22.841   6.453
 9353POPC   C2B55724  40.502  22.876   6.753
 9353POPC   C3B55725  40.509  22.832   7.053
 9353POPC   C4B55726  40.506  22.826   7.353
 9354POPC   NC355727  12.098  43.848   5.553
 9354POPC   PO455728  12.085  43.913   5.853
 9354POPC   GL155729  12.070  43.917   6.153
 9354POPC   GL255730  12.203  44.008   6.153
 9354POPC   C1A55731  12.028  43.889   6.453
 9354POPC   D2A55732  12.051  43.868   6.753
 9354POPC   C3A55733  12.092  43.936   7.053
 9354POPC   C4A55734  12.049  43.845   7.353
 9354POPC   C1B55735  12.304  44.015   6.453
 9354POPC   C2B55736  12.231  44.007   6.753
 9354POPC   C3B55737  12.241  44.040   7.053
 9354POPC   C4B55738  12.288  44.001   7.353
 9355POPC   NC355739  43.936   0.419   5.553
 9355POPC   PO455740  43.927   0.463   5.853
 9355POPC   GL155741  43.837   0.422   6.153
 9355POPC   GL255742  43.766   0.362   6.153
 9355POPC   C1A55743  43.877   0.479   6.453
 9355POPC   D2A55744  43.865   0.483   6.753
 9355POPC   C3A55745  43.898   0.428   7.053
 9355POPC   C4A55746  43.897   0.391   7.353
 9355POPC   C1B55747  43.658   0.296   6.453
 9355POPC   C2B55748  43.627   0.326   6.753
 9355POPC   C3B55749  43.647   0.289   7.053
 9355POPC   C4B55750  43.678   0.344   7.353
 9356POPC   NC355751  36.145   3.519   5.553
 9356POPC   PO455752  36.102   3.542   5.853
 9356POPC   GL155753  36.148   3.565   6.153
 9356POPC   GL255754  36.082   3.647   6.153
 9356POPC   C1A55755  36.091   3.515   6.453
 9356POPC   D2A55756  36.090   3.515   6.753
 9356POPC   C3A55757  36.092   3.581   7.053
 9356POPC   C4A55758  36.131   3.569   7.353
 9356POPC   C1B55759  36.005   3.734   6.453
 9356POPC   C2B55760  35.977   3.714   6.753
 9356POPC   C3B55761  36.027   3.715   7.053
 9356POPC   C4B55762  36.001   3.780   7.353
 9357POPC   NC355763  43.884  41.599   5.553
 9357POPC   PO455764  43.889  41.577   5.853
 9357POPC   GL155765  43.860  41.540   6.153
 9357POPC   GL255766  43.938  41.682   6.153
 9357POPC   C1A55767  43.861  41.518   6.453
 9357POPC   D2A55768  43.889  41.590   6.753
 9357POPC   C3A55769  43.865  41.537   7.053
 9357POPC   C4A55770  43.879  41.535   7.353
 9357POPC   C1B55771  43.901  41.848   6.453
 9357POPC   C2B55772  43.901  41.796   6.753
 9357POPC   C3B55773  43.851  41.812   7.053
 9357POPC   C4B55774  43.941  41.832   7.353
 9358POPC   NC355775  15.923   9.002   5.553
 9358POPC   PO455776  15.987   8.929   5.853
 9358POPC   GL155777  15.988   9.014   6.153
 9358POPC   GL255778  15.947   8.824   6.153
 9358POPC   C1A55779  15.980   8.971   6.453
 9358POPC   D2A55780  15.921   8.998   6.753
 9358POPC   C3A55781  15.916   8.923   7.053
 9358POPC   C4A55782  15.955   8.973   7.353
 9358POPC   C1B55783  16.041   8.714   6.453
 9358POPC   C2B55784  16.011   8.741   6.753
 9358POPC   C3B55785  16.016   8.749   7.053
 9358POPC   C4B55786  16.043   8.690   7.353
 9359POPC   NC355787   4.359  23.758   5.553
 9359POPC   PO455788   4.352  23.677   5.853
 9359POPC   GL155789   4.356  23.676   6.153
 9359POPC   GL255790   4.236  23.606   6.153
 9359POPC   C1A55791   4.287  23.680   6.453
 9359POPC   D2A55792   4.280  23.686   6.753
 9359POPC   C3A55793   4.336  23.714   7.053
 9359POPC   C4A55794   4.356  23.688   7.353
 9359POPC   C1B55795   4.191  23.470   6.453
 9359POPC   C2B55796   4.165  23.491   6.753
 9359POPC   C3B55797   4.186  23.534   7.053
 9359POPC   C4B55798   4.242  23.484   7.353
 9360POPC   NC355799   5.866  22.988   5.553
 9360POPC   PO455800   5.901  22.957   5.853
 9360POPC   GL155801   5.834  22.929   6.153
 9360POPC   GL255802   6.018  22.997   6.153
 9360POPC   C1A55803   5.884  22.931   6.453
 9360POPC   D2A55804   5.880  22.928   6.753
 9360POPC   C3A55805   5.918  22.957   7.053
 9360POPC   C4A55806   5.821  22.950   7.353
 9360POPC   C1B55807   6.082  23.012   6.453
 9360POPC   C2B55808   6.068  22.964   6.753
 9360POPC   C3B55809   6.091  23.002   7.053
 9360POPC   C4B55810   6.160  22.999   7.353
 9361POPC   NC355811   8.147  28.374   5.553
 9361POPC   PO455812   8.197  28.408   5.853
 9361POPC   GL155813   8.162  28.387   6.153
 9361POPC   GL255814   8.119  28.330   6.153
 9361POPC   C1A55815   8.175  28.344   6.453
 9361POPC   D2A55816   8.220  28.358   6.753
 9361POPC   C3A55817   8.241  28.334   7.053
 9361POPC   C4A55818   8.165  28.351   7.353
 9361POPC   C1B55819   8.012  28.235   6.453
 9361POPC   C2B55820   7.954  28.231   6.753
 9361POPC   C3B55821   7.967  28.216   7.053
 9361POPC   C4B55822   8.027  28.192   7.353
 9362POPC   NC355823  41.531  32.202   5.553
 9362POPC   PO455824  41.566  32.244   5.853
 9362POPC   GL155825  41.604  32.297   6.153
 9362POPC   GL255826  41.470  32.177   6.153
 9362POPC   C1A55827  41.548  32.281   6.453
 9362POPC   D2A55828  41.594  32.248   6.753
 9362POPC   C3A55829  41.608  32.245   7.053
 9362POPC   C4A55830  41.548  32.213   7.353
 9362POPC   C1B55831  41.282  32.167   6.453
 9362POPC   C2B55832  41.293  32.215   6.753
 9362POPC   C3B55833  41.332  32.211   7.053
 9362POPC   C4B55834  41.301  32.133   7.353
 9363POPC   NC355835  12.878  31.460   5.553
 9363POPC   PO455836  12.899  31.428   5.853
 9363POPC   GL155837  12.890  31.452   6.153
 9363POPC   GL255838  12.796  31.594   6.153
 9363POPC   C1A55839  12.836  31.481   6.453
 9363POPC   D2A55840  12.856  31.493   6.753
 9363POPC   C3A55841  12.872  31.437   7.053
 9363POPC   C4A55842  12.872  31.451   7.353
 9363POPC   C1B55843  12.713  31.716   6.453
 9363POPC   C2B55844  12.705  31.657   6.753
 9363POPC   C3B55845  12.684  31.705   7.053
 9363POPC   C4B55846  12.730  31.696   7.353
 9364POPC   NC355847   0.429  34.616   5.553
 9364POPC   PO455848   0.410  34.555   5.853
 9364POPC   GL155849   0.433  34.594   6.153
 9364POPC   GL255850   0.522  34.646   6.153
 9364POPC   C1A55851   0.445  34.598   6.453
 9364POPC   D2A55852   0.486  34.576   6.753
 9364POPC   C3A55853   0.406  34.577   7.053
 9364POPC   C4A55854   0.418  34.603   7.353
 9364POPC   C1B55855   0.661  34.778   6.453
 9364POPC   C2B55856   0.575  34.743   6.753
 9364POPC   C3B55857   0.643  34.720   7.053
 9364POPC   C4B55858   0.655  34.767   7.353
 9365POPC   NC355859   2.741  23.673   5.553
 9365POPC   PO455860   2.730  23.673   5.853
 9365POPC   GL155861   2.721  23.679   6.153
 9365POPC   GL255862   2.844  23.793   6.153
 9365POPC   C1A55863   2.814  23.679   6.453
 9365POPC   D2A55864   2.784  23.734   6.753
 9365POPC   C3A55865   2.732  23.732   7.053
 9365POPC   C4A55866   2.772  23.665   7.353
 9365POPC   C1B55867   2.888  23.926   6.453
 9365POPC   C2B55868   2.870  23.956   6.753
 9365POPC   C3B55869   2.872  23.926   7.053
 9365POPC   C4B55870   2.924  23.918   7.353
 9366POPC   NC355871  34.526  25.244   5.553
 9366POPC   PO455872  34.576  25.243   5.853
 9366POPC   GL155873  34.572  25.292   6.153
 9366POPC   GL255874  34.469  25.339   6.153
 9366POPC   C1A55875  34.614  25.255   6.453
 9366POPC   D2A55876  34.618  25.279   6.753
 9366POPC   C3A55877  34.537  25.220   7.053
 9366POPC   C4A55878  34.554  25.268   7.353
 9366POPC   C1B55879  34.381  25.428   6.453
 9366POPC   C2B55880  34.376  25.449   6.753
 9366POPC   C3B55881  34.412  25.436   7.053
 9366POPC   C4B55882  34.408  25.476   7.353
 9367POPC   NC355883  33.055  12.078   5.553
 9367POPC   PO455884  32.992  12.116   5.853
 9367POPC   GL155885  32.992  12.111   6.153
 9367POPC   GL255886  33.127  11.990   6.153
 9367POPC   C1A55887  33.003  12.106   6.453
 9367POPC   D2A55888  33.072  12.098   6.753
 9367POPC   C3A55889  32.982  12.098   7.053
 9367POPC   C4A55890  33.064  12.083   7.353
 9367POPC   C1B55891  33.196  11.881   6.453
 9367POPC   C2B55892  33.194  11.919   6.753
 9367POPC   C3B55893  33.223  11.904   7.053
 9367POPC   C4B55894  33.148  11.841   7.353
 9368POPC   NC355895  11.264   2.815   5.553
 9368POPC   PO455896  11.287   2.735   5.853
 9368POPC   GL155897  11.263   2.725   6.153
 9368POPC   GL255898  11.296   2.647   6.153
 9368POPC   C1A55899  11.304   2.749   6.453
 9368POPC   D2A55900  11.327   2.788   6.753
 9368POPC   C3A55901  11.267   2.741   7.053
 9368POPC   C4A55902  11.314   2.807   7.353
 9368POPC   C1B55903  11.250   2.484   6.453
 9368POPC   C2B55904  11.224   2.559   6.753
 9368POPC   C3B55905  11.195   2.518   7.053
 9368POPC   C4B55906  11.195   2.519   7.353
 9369POPC   NC355907   1.209  29.138   5.553
 9369POPC   PO455908   1.251  29.149   5.853
 9369POPC   GL155909   1.237  29.176   6.153
 9369POPC   GL255910   1.275  29.274   6.153
 9369POPC   C1A55911   1.247  29.175   6.453
 9369POPC   D2A55912   1.213  29.157   6.753
 9369POPC   C3A55913   1.175  29.108   7.053
 9369POPC   C4A55914   1.164  29.165   7.353
 9369POPC   C1B55915   1.271  29.323   6.453
 9369POPC   C2B55916   1.323  29.357   6.753
 9369POPC   C3B55917   1.361  29.361   7.053
 9369POPC   C4B55918   1.361  29.354   7.353
 9370POPC   NC355919  41.550  42.312   5.553
 9370POPC   PO455920  41.591  42.317   5.853
 9370POPC   GL155921  41.573  42.345   6.153
 9370POPC   GL255922  41.516  42.449   6.153
 9370POPC   C1A55923  41.548  42.325   6.453
 9370POPC   D2A55924  41.604  42.371   6.753
 9370POPC   C3A55925  41.557  42.373   7.053
 9370POPC   C4A55926  41.602  42.320   7.353
 9370POPC   C1B55927  41.506  42.585   6.453
 9370POPC   C2B55928  41.556  42.563   6.753
 9370POPC   C3B55929  41.516  42.561   7.053
 9370POPC   C4B55930  41.556  42.599   7.353
 9371POPC   NC355931  29.097  33.042   5.553
 9371POPC   PO455932  29.120  32.977   5.853
 9371POPC   GL155933  29.163  33.000   6.153
 9371POPC   GL255934  29.112  33.133   6.153
 9371POPC   C1A55935  29.188  32.999   6.453
 9371POPC   D2A55936  29.191  33.021   6.753
 9371POPC   C3A55937  29.169  32.995   7.053
 9371POPC   C4A55938  29.121  33.048   7.353
 9371POPC   C1B55939  29.012  33.246   6.453
 9371POPC   C2B55940  29.012  33.271   6.753
 9371POPC   C3B55941  29.051  33.249   7.053
 9371POPC   C4B55942  29.034  33.276   7.353
 9372POPC   NC355943  39.272   2.036   5.553
 9372POPC   PO455944  39.260   2.033   5.853
 9372POPC   GL155945  39.232   1.956   6.153
 9372POPC   GL255946  39.305   1.836   6.153
 9372POPC   C1A55947  39.234   1.961   6.453
 9372POPC   D2A55948  39.210   1.978   6.753
 9372POPC   C3A55949  39.253   1.989   7.053
 9372POPC   C4A55950  39.278   1.951   7.353
 9372POPC   C1B55951  39.322   1.741   6.453
 9372POPC   C2B55952  39.311   1.797   6.753
 9372POPC   C3B55953  39.331   1.792   7.053
 9372POPC   C4B55954  39.341   1.707   7.353
 9373POPC   NC355955  31.521  33.825   5.553
 9373POPC   PO455956  31.444  33.798   5.853
 9373POPC   GL155957  31.482  33.841   6.153
 9373POPC   GL255958  31.590  33.807   6.153
 9373POPC   C1A55959  31.493  33.813   6.453
 9373POPC   D2A55960  31.469  33.837   6.753
 9373POPC   C3A55961  31.505  33.834   7.053
 9373POPC   C4A55962  31.480  33.827   7.353
 9373POPC   C1B55963  31.726  33.842   6.453
 9373POPC   C2B55964  31.698  33.832   6.753
 9373POPC   C3B55965  31.739  33.819   7.053
 9373POPC   C4B55966  31.707  33.854   7.353
 9374POPC   NC355967   5.913  39.225   5.553
 9374POPC   PO455968   5.914  39.205   5.853
 9374POPC   GL155969   5.842  39.255   6.153
 9374POPC   GL255970   5.817  39.084   6.153
 9374POPC   C1A55971   5.839  39.249   6.453
 9374POPC   D2A55972   5.891  39.218   6.753
 9374POPC   C3A55973   5.903  39.220   7.053
 9374POPC   C4A55974   5.872  39.253   7.353
 9374POPC   C1B55975   5.799  38.977   6.453
 9374POPC   C2B55976   5.742  38.944   6.753
 9374POPC   C3B55977   5.778  38.988   7.053
 9374POPC   C4B55978   5.771  38.999   7.353
 9375POPC   NC355979  12.805  37.711   5.553
 9375POPC   PO455980  12.859  37.704   5.853
 9375POPC   GL155981  12.851  37.688   6.153
 9375POPC   GL255982  12.752  37.575   6.153
 9375POPC   C1A55983  12.802  37.645   6.453
 9375POPC   D2A55984  12.828  37.664   6.753
 9375POPC   C3A55985  12.858  37.723   7.053
 9375POPC   C4A55986  12.827  37.694   7.353
 9375POPC   C1B55987  12.753  37.468   6.453
 9375POPC   C2B55988  12.766  37.423   6.753
 9375POPC   C3B55989  12.721  37.423   7.053
 9375POPC   C4B55990  12.736  37.432   7.353
 9376POPC   NC355991   8.212  37.691   5.553
 9376POPC   PO455992   8.176  37.675   5.853
 9376POPC   GL155993   8.165  37.693   6.153
 9376POPC   GL255994   8.213  37.754   6.153
 9376POPC   C1A55995   8.156  37.674   6.453
 9376POPC   D2A55996   8.216  37.649   6.753
 9376POPC   C3A55997   8.149  37.651   7.053
 9376POPC   C4A55998   8.158  37.708   7.353
 9376POPC   C1B55999   8.226  37.950   6.453
 9376POPC   C2B56000   8.204  37.903   6.753
 9376POPC   C3B56001   8.223  37.939   7.053
 9376POPC   C4B56002   8.274  37.916   7.353
 9377POPC   NC356003  10.546  24.534   5.553
 9377POPC   PO456004  10.555  24.497   5.853
 9377POPC   GL156005  10.486  24.482   6.153
 9377POPC   GL256006  10.520  24.358   6.153
 9377POPC   C1A56007  10.569  24.456   6.453
 9377POPC   D2A56008  10.573  24.500   6.753
 9377POPC   C3A56009  10.520  24.515   7.053
 9377POPC   C4A56010  10.486  24.457   7.353
 9377POPC   C1B56011  10.586  24.282   6.453
 9377POPC   C2B56012  10.615  24.257   6.753
 9377POPC   C3B56013  10.639  24.226   7.053
 9377POPC   C4B56014  10.560  24.200   7.353
 9378POPC   NC356015  37.715  12.880   5.553
 9378POPC   PO456016  37.682  12.871   5.853
 9378POPC   GL156017  37.676  12.836   6.153
 9378POPC   GL256018  37.582  12.976   6.153
 9378POPC   C1A56019  37.722  12.888   6.453
 9378POPC   D2A56020  37.703  12.878   6.753
 9378POPC   C3A56021  37.691  12.898   7.053
 9378POPC   C4A56022  37.658  12.805   7.353
 9378POPC   C1B56023  37.550  13.022   6.453
 9378POPC   C2B56024  37.483  13.067   6.753
 9378POPC   C3B56025  37.530  13.039   7.053
 9378POPC   C4B56026  37.510  13.072   7.353
 9379POPC   NC356027   6.657   7.463   5.553
 9379POPC   PO456028   6.671   7.469   5.853
 9379POPC   GL156029   6.687   7.427   6.153
 9379POPC   GL256030   6.679   7.312   6.153
 9379POPC   C1A56031   6.620   7.434   6.453
 9379POPC   D2A56032   6.614   7.378   6.753
 9379POPC   C3A56033   6.625   7.387   7.053
 9379POPC   C4A56034   6.692   7.445   7.353
 9379POPC   C1B56035   6.792   7.207   6.453
 9379POPC   C2B56036   6.809   7.268   6.753
 9379POPC   C3B56037   6.753   7.179   7.053
 9379POPC   C4B56038   6.773   7.232   7.353
 9380POPC   NC356039  25.264  27.589   5.553
 9380POPC   PO456040  25.270  27.568   5.853
 9380POPC   GL156041  25.229  27.565   6.153
 9380POPC   GL256042  25.320  27.691   6.153
 9380POPC   C1A56043  25.226  27.557   6.453
 9380POPC   D2A56044  25.292  27.639   6.753
 9380POPC   C3A56045  25.263  27.572   7.053
 9380POPC   C4A56046  25.243  27.639   7.353
 9380POPC   C1B56047  25.406  27.761   6.453
 9380POPC   C2B56048  25.379  27.830   6.753
 9380POPC   C3B56049  25.363  27.809   7.053
 9380POPC   C4B56050  25.361  27.800   7.353
 9381POPC   NC356051  43.899  12.118   5.553
 9381POPC   PO456052  43.896  12.060   5.853
 9381POPC   GL156053  43.837  12.053   6.153
 9381POPC   GL256054  43.819  12.027   6.153
 9381POPC   C1A56055  43.872  12.065   6.453
 9381POPC   D2A56056  43.913  12.070   6.753
 9381POPC   C3A56057  43.847  12.069   7.053
 9381POPC   C4A56058  43.866  12.056   7.353
 9381POPC   C1B56059  43.648  11.914   6.453
 9381POPC   C2B56060  43.661  11.898   6.753
 9381POPC   C3B56061  43.653  11.908   7.053
 9381POPC   C4B56062  43.705  11.904   7.353
 9382POPC   NC356063  39.997  37.680   5.553
 9382POPC   PO456064  39.992  37.658   5.853
 9382POPC   GL156065  40.056  37.718   6.153
 9382POPC   GL256066  40.073  37.604   6.153
 9382POPC   C1A56067  40.017  37.721   6.453
 9382POPC   D2A56068  40.024  37.668   6.753
 9382POPC   C3A56069  40.021  37.691   7.053
 9382POPC   C4A56070  39.988  37.702   7.353
 9382POPC   C1B56071  40.015  37.385   6.453
 9382POPC   C2B56072  40.034  37.457   6.753
 9382POPC   C3B56073  40.080  37.414   7.053
 9382POPC   C4B56074  40.081  37.471   7.353
 9383POPC   NC356075  35.309   0.435   5.553
 9383POPC   PO456076  35.359   0.444   5.853
 9383POPC   GL156077  35.322   0.483   6.153
 9383POPC   GL256078  35.242   0.406   6.153
 9383POPC   C1A56079  35.305   0.421   6.453
 9383POPC   D2A56080  35.344   0.450   6.753
 9383POPC   C3A56081  35.354   0.438   7.053
 9383POPC   C4A56082  35.338   0.438   7.353
 9383POPC   C1B56083  35.116   0.408   6.453
 9383POPC   C2B56084  35.077   0.482   6.753
 9383POPC   C3B56085  35.077   0.474   7.053
 9383POPC   C4B56086  35.142   0.418   7.353
 9384POPC   NC356087  36.079  16.772   5.553
 9384POPC   PO456088  36.167  16.749   5.853
 9384POPC   GL156089  36.089  16.685   6.153
 9384POPC   GL256090  36.072  16.779   6.153
 9384POPC   C1A56091  36.120  16.720   6.453
 9384POPC   D2A56092  36.113  16.735   6.753
 9384POPC   C3A56093  36.128  16.687   7.053
 9384POPC   C4A56094  36.172  16.762   7.353
 9384POPC   C1B56095  35.928  16.892   6.453
 9384POPC   C2B56096  35.931  16.831   6.753
 9384POPC   C3B56097  35.942  16.875   7.053
 9384POPC   C4B56098  35.955  16.912   7.353
 9385POPC   NC356099   8.231  41.570   5.553
 9385POPC   PO456100   8.167  41.544   5.853
 9385POPC   GL156101   8.170  41.572   6.153
 9385POPC   GL256102   8.331  41.530   6.153
 9385POPC   C1A56103   8.190  41.528   6.453
 9385POPC   D2A56104   8.228  41.559   6.753
 9385POPC   C3A56105   8.237  41.606   7.053
 9385POPC   C4A56106   8.220  41.532   7.353
 9385POPC   C1B56107   8.435  41.479   6.453
 9385POPC   C2B56108   8.469  41.488   6.753
 9385POPC   C3B56109   8.432  41.480   7.053
 9385POPC   C4B56110   8.470  41.498   7.353
 9386POPC   NC356111  39.231   5.102   5.553
 9386POPC   PO456112  39.206   5.062   5.853
 9386POPC   GL156113  39.272   5.078   6.153
 9386POPC   GL256114  39.119   5.144   6.153
 9386POPC   C1A56115  39.230   5.053   6.453
 9386POPC   D2A56116  39.183   5.054   6.753
 9386POPC   C3A56117  39.271   5.049   7.053
 9386POPC   C4A56118  39.183   5.118   7.353
 9386POPC   C1B56119  39.004   5.103   6.453
 9386POPC   C2B56120  38.962   5.106   6.753
 9386POPC   C3B56121  39.022   5.105   7.053
 9386POPC   C4B56122  38.945   5.103   7.353
 9387POPC   NC356123  36.927  19.067   5.553
 9387POPC   PO456124  36.862  19.043   5.853
 9387POPC   GL156125  36.859  19.022   6.153
 9387POPC   GL256126  36.763  19.080   6.153
 9387POPC   C1A56127  36.896  19.063   6.453
 9387POPC   D2A56128  36.868  19.015   6.753
 9387POPC   C3A56129  36.860  19.029   7.053
 9387POPC   C4A56130  36.873  19.061   7.353
 9387POPC   C1B56131  36.677  19.120   6.453
 9387POPC   C2B56132  36.705  19.065   6.753
 9387POPC   C3B56133  36.678  19.094   7.053
 9387POPC   C4B56134  36.684  19.124   7.353
 9388POPC   NC356135  13.630  28.343   5.553
 9388POPC   PO456136  13.580  28.388   5.853
 9388POPC   GL156137  13.639  28.403   6.153
 9388POPC   GL256138  13.669  28.463   6.153
 9388POPC   C1A56139  13.672  28.386   6.453
 9388POPC   D2A56140  13.586  28.383   6.753
 9388POPC   C3A56141  13.581  28.410   7.053
 9388POPC   C4A56142  13.586  28.415   7.353
 9388POPC   C1B56143  13.710  28.602   6.453
 9388POPC   C2B56144  13.675  28.610   6.753
 9388POPC   C3B56145  13.722  28.645   7.053
 9388POPC   C4B56146  13.654  28.572   7.353
 9389POPC   NC356147  32.208  29.160   5.553
 9389POPC   PO456148  32.199  29.108   5.853
 9389POPC   GL156149  32.261  29.181   6.153
 9389POPC   GL256150  32.199  28.983   6.153
 9389POPC   C1A56151  32.295  29.161   6.453
 9389POPC   D2A56152  32.270  29.192   6.753
 9389POPC   C3A56153  32.268  29.155   7.053
 9389POPC   C4A56154  32.290  29.105   7.353
 9389POPC   C1B56155  32.178  28.862   6.453
 9389POPC   C2B56156  32.225  28.903   6.753
 9389POPC   C3B56157  32.155  28.874   7.053
 9389POPC   C4B56158  32.227  28.878   7.353
 9390POPC   NC356159  13.624   7.469   5.553
 9390POPC   PO456160  13.657   7.377   5.853
 9390POPC   GL156161  13.659   7.407   6.153
 9390POPC   GL256162  13.716   7.290   6.153
 9390POPC   C1A56163  13.605   7.435   6.453
 9390POPC   D2A56164  13.587   7.388   6.753
 9390POPC   C3A56165  13.589   7.385   7.053
 9390POPC   C4A56166  13.643   7.464   7.353
 9390POPC   C1B56167  13.727   7.236   6.453
 9390POPC   C2B56168  13.737   7.208   6.753
 9390POPC   C3B56169  13.683   7.175   7.053
 9390POPC   C4B56170  13.762   7.161   7.353
 9391POPC   NC356171  12.033   2.749   5.553
 9391POPC   PO456172  12.069   2.782   5.853
 9391POPC   GL156173  12.098   2.783   6.153
 9391POPC   GL256174  12.184   2.852   6.153
 9391POPC   C1A56175  12.113   2.742   6.453
 9391POPC   D2A56176  12.062   2.763   6.753
 9391POPC   C3A56177  12.104   2.776   7.053
 9391POPC   C4A56178  12.055   2.779   7.353
 9391POPC   C1B56179  12.252   2.946   6.453
 9391POPC   C2B56180  12.241   2.896   6.753
 9391POPC   C3B56181  12.233   2.935   7.053
 9391POPC   C4B56182  12.251   2.938   7.353
 9392POPC   NC356183   6.679  25.309   5.553
 9392POPC   PO456184   6.607  25.307   5.853
 9392POPC   GL156185   6.687  25.289   6.153
 9392POPC   GL256186   6.522  25.332   6.153
 9392POPC   C1A56187   6.631  25.302   6.453
 9392POPC   D2A56188   6.605  25.312   6.753
 9392POPC   C3A56189   6.678  25.255   7.053
 9392POPC   C4A56190   6.612  25.290   7.353
 9392POPC   C1B56191   6.390  25.348   6.453
 9392POPC   C2B56192   6.382  25.426   6.753
 9392POPC   C3B56193   6.445  25.435   7.053
 9392POPC   C4B56194   6.462  25.365   7.353
 9393POPC   NC356195  22.205  12.884   5.553
 9393POPC   PO456196  22.174  12.810   5.853
 9393POPC   GL156197  22.151  12.854   6.153
 9393POPC   GL256198  22.264  12.795   6.153
 9393POPC   C1A56199  22.173  12.882   6.453
 9393POPC   D2A56200  22.180  12.850   6.753
 9393POPC   C3A56201  22.116  12.883   7.053
 9393POPC   C4A56202  22.158  12.850   7.353
 9393POPC   C1B56203  22.394  12.745   6.453
 9393POPC   C2B56204  22.325  12.692   6.753
 9393POPC   C3B56205  22.392  12.743   7.053
 9393POPC   C4B56206  22.384  12.751   7.353
 9394POPC   NC356207  43.082  14.447   5.553
 9394POPC   PO456208  43.113  14.363   5.853
 9394POPC   GL156209  43.089  14.448   6.153
 9394POPC   GL256210  43.062  14.257   6.153
 9394POPC   C1A56211  43.063  14.354   6.453
 9394POPC   D2A56212  43.112  14.383   6.753
 9394POPC   C3A56213  43.118  14.431   7.053
 9394POPC   C4A56214  43.120  14.412   7.353
 9394POPC   C1B56215  43.051  14.194   6.453
 9394POPC   C2B56216  43.080  14.137   6.753
 9394POPC   C3B56217  43.113  14.113   7.053
 9394POPC   C4B56218  43.068  14.148   7.353
 9395POPC   NC356219  37.687   0.441   5.553
 9395POPC   PO456220  37.651   0.455   5.853
 9395POPC   GL156221  37.706   0.469   6.153
 9395POPC   GL256222  37.591   0.540   6.153
 9395POPC   C1A56223  37.704   0.417   6.453
 9395POPC   D2A56224  37.662   0.435   6.753
 9395POPC   C3A56225  37.685   0.474   7.053
 9395POPC   C4A56226  37.699   0.396   7.353
 9395POPC   C1B56227  37.504   0.616   6.453
 9395POPC   C2B56228  37.553   0.632   6.753
 9395POPC   C3B56229  37.512   0.602   7.053
 9395POPC   C4B56230  37.548   0.641   7.353
 9396POPC   NC356231  21.428  28.321   5.553
 9396POPC   PO456232  21.412  28.358   5.853
 9396POPC   GL156233  21.427  28.352   6.153
 9396POPC   GL256234  21.513  28.393   6.153
 9396POPC   C1A56235  21.391  28.360   6.453
 9396POPC   D2A56236  21.354  28.392   6.753
 9396POPC   C3A56237  21.429  28.390   7.053
 9396POPC   C4A56238  21.368  28.329   7.353
 9396POPC   C1B56239  21.623  28.401   6.453
 9396POPC   C2B56240  21.602  28.459   6.753
 9396POPC   C3B56241  21.631  28.438   7.053
 9396POPC   C4B56242  21.662  28.449   7.353
 9397POPC   NC356243  31.484  13.601   5.553
 9397POPC   PO456244  31.501  13.637   5.853
 9397POPC   GL156245  31.505  13.676   6.153
 9397POPC   GL256246  31.314  13.653   6.153
 9397POPC   C1A56247  31.517  13.639   6.453
 9397POPC   D2A56248  31.501  13.668   6.753
 9397POPC   C3A56249  31.514  13.584   7.053
 9397POPC   C4A56250  31.471  13.614   7.353
 9397POPC   C1B56251  31.240  13.568   6.453
 9397POPC   C2B56252  31.259  13.567   6.753
 9397POPC   C3B56253  31.213  13.625   7.053
 9397POPC   C4B56254  31.239  13.550   7.353
 9398POPC   NC356255  43.068   4.282   5.553
 9398POPC   PO456256  43.083   4.363   5.853
 9398POPC   GL156257  43.118   4.320   6.153
 9398POPC   GL256258  43.156   4.419   6.153
 9398POPC   C1A56259  43.061   4.323   6.453
 9398POPC   D2A56260  43.078   4.302   6.753
 9398POPC   C3A56261  43.093   4.333   7.053
 9398POPC   C4A56262  43.088   4.350   7.353
 9398POPC   C1B56263  43.126   4.536   6.453
 9398POPC   C2B56264  43.123   4.612   6.753
 9398POPC   C3B56265  43.121   4.542   7.053
 9398POPC   C4B56266  43.159   4.579   7.353
 9399POPC   NC356267  24.507  44.697   5.553
 9399POPC   PO456268  24.518  44.665   5.853
 9399POPC   GL156269  24.498  44.627   6.153
 9399POPC   GL256270  24.501  44.791   6.153
 9399POPC   C1A56271  24.529  44.655   6.453
 9399POPC   D2A56272  24.524  44.645   6.753
 9399POPC   C3A56273  24.441  44.617   7.053
 9399POPC   C4A56274  24.482  44.620   7.353
 9399POPC   C1B56275  24.618  44.859   6.453
 9399POPC   C2B56276  24.533  44.928   6.753
 9399POPC   C3B56277  24.612  44.914   7.053
 9399POPC   C4B56278  24.610  44.924   7.353
 9400POPC   NC356279  28.391  23.691   5.553
 9400POPC   PO456280  28.418  23.695   5.853
 9400POPC   GL156281  28.395  23.721   6.153
 9400POPC   GL256282  28.297  23.648   6.153
 9400POPC   C1A56283  28.375  23.684   6.453
 9400POPC   D2A56284  28.418  23.730   6.753
 9400POPC   C3A56285  28.362  23.714   7.053
 9400POPC   C4A56286  28.322  23.682   7.353
 9400POPC   C1B56287  28.182  23.529   6.453
 9400POPC   C2B56288  28.238  23.490   6.753
 9400POPC   C3B56289  28.256  23.489   7.053
 9400POPC   C4B56290  28.230  23.519   7.353
 9401POPC   NC356291  26.841  26.863   5.553
 9401POPC   PO456292  26.863  26.864   5.853
 9401POPC   GL156293  26.839  26.821   6.153
 9401POPC   GL256294  26.929  26.905   6.153
 9401POPC   C1A56295  26.798  26.773   6.453
 9401POPC   D2A56296  26.860  26.865   6.753
 9401POPC   C3A56297  26.815  26.866   7.053
 9401POPC   C4A56298  26.789  26.813   7.353
 9401POPC   C1B56299  26.929  26.980   6.453
 9401POPC   C2B56300  26.994  27.040   6.753
 9401POPC   C3B56301  26.988  27.014   7.053
 9401POPC   C4B56302  26.958  27.012   7.353
 9402POPC   NC356303  14.416  42.334   5.553
 9402POPC   PO456304  14.382  42.373   5.853
 9402POPC   GL156305  14.399  42.307   6.153
 9402POPC   GL256306  14.298  42.236   6.153
 9402POPC   C1A56307  14.434  42.363   6.453
 9402POPC   D2A56308  14.451  42.287   6.753
 9402POPC   C3A56309  14.436  42.329   7.053
 9402POPC   C4A56310  14.387  42.317   7.353
 9402POPC   C1B56311  14.326  42.096   6.453
 9402POPC   C2B56312  14.305  42.117   6.753
 9402POPC   C3B56313  14.240  42.119   7.053
 9402POPC   C4B56314  14.243  42.072   7.353
 9403POPC   NC356315  43.146   8.976   5.553
 9403POPC   PO456316  43.118   9.021   5.853
 9403POPC   GL156317  43.068   9.022   6.153
 9403POPC   GL256318  43.045   8.830   6.153
 9403POPC   C1A56319  43.067   8.936   6.453
 9403POPC   D2A56320  43.071   8.923   6.753
 9403POPC   C3A56321  43.081   8.988   7.053
 9403POPC   C4A56322  43.094   8.996   7.353
 9403POPC   C1B56323  43.095   8.758   6.453
 9403POPC   C2B56324  43.087   8.688   6.753
 9403POPC   C3B56325  43.062   8.733   7.053
 9403POPC   C4B56326  43.083   8.737   7.353
 9404POPC   NC356327  24.514   0.449   5.553
 9404POPC   PO456328  24.460   0.419   5.853
 9404POPC   GL156329  24.479   0.442   6.153
 9404POPC   GL256330  24.578   0.489   6.153
 9404POPC   C1A56331  24.520   0.443   6.453
 9404POPC   D2A56332  24.454   0.463   6.753
 9404POPC   C3A56333  24.501   0.394   7.053
 9404POPC   C4A56334  24.518   0.447   7.353
 9404POPC   C1B56335  24.700   0.449   6.453
 9404POPC   C2B56336  24.712   0.517   6.753
 9404POPC   C3B56337  24.735   0.483   7.053
 9404POPC   C4B56338  24.693   0.498   7.353
 9405POPC   NC356339  31.457  38.501   5.553
 9405POPC   PO456340  31.506  38.452   5.853
 9405POPC   GL156341  31.502  38.483   6.153
 9405POPC   GL256342  31.611  38.444   6.153
 9405POPC   C1A56343  31.478  38.462   6.453
 9405POPC   D2A56344  31.448  38.415   6.753
 9405POPC   C3A56345  31.463  38.490   7.053
 9405POPC   C4A56346  31.481  38.456   7.353
 9405POPC   C1B56347  31.671  38.396   6.453
 9405POPC   C2B56348  31.694  38.402   6.753
 9405POPC   C3B56349  31.767  38.471   7.053
 9405POPC   C4B56350  31.716  38.429   7.353
 9406POPC   NC356351   8.957  10.549   5.553
 9406POPC   PO456352   8.937  10.493   5.853
 9406POPC   GL156353   8.968  10.552   6.153
 9406POPC   GL256354   9.010  10.595   6.153
 9406POPC   C1A56355   8.976  10.530   6.453
 9406POPC   D2A56356   8.928  10.491   6.753
 9406POPC   C3A56357   8.996  10.495   7.053
 9406POPC   C4A56358   8.944  10.561   7.353
 9406POPC   C1B56359   9.087  10.691   6.453
 9406POPC   C2B56360   9.152  10.693   6.753
 9406POPC   C3B56361   9.141  10.716   7.053
 9406POPC   C4B56362   9.120  10.756   7.353
 9407POPC   NC356363  15.179   0.412   5.553
 9407POPC   PO456364  15.145   0.400   5.853
 9407POPC   GL156365  15.209   0.414   6.153
 9407POPC   GL256366  15.120   0.603   6.153
 9407POPC   C1A56367  15.153   0.398   6.453
 9407POPC   D2A56368  15.200   0.479   6.753
 9407POPC   C3A56369  15.201   0.470   7.053
 9407POPC   C4A56370  15.149   0.407   7.353
 9407POPC   C1B56371  15.152   0.687   6.453
 9407POPC   C2B56372  15.107   0.679   6.753
 9407POPC   C3B56373  15.153   0.660   7.053
 9407POPC   C4B56374  15.173   0.661   7.353
 9408POPC   NC356375  32.269  22.965   5.553
 9408POPC   PO456376  32.246  22.943   5.853
 9408POPC   GL156377  32.289  22.987   6.153
 9408POPC   GL256378  32.229  22.774   6.153
 9408POPC   C1A56379  32.247  22.946   6.453
 9408POPC   D2A56380  32.285  22.977   6.753
 9408POPC   C3A56381  32.249  22.949   7.053
 9408POPC   C4A56382  32.201  22.969   7.353
 9408POPC   C1B56383  32.295  22.650   6.453
 9408POPC   C2B56384  32.260  22.654   6.753
 9408POPC   C3B56385  32.289  22.739   7.053
 9408POPC   C4B56386  32.320  22.665   7.353
 9409POPC   NC356387  10.532  26.075   5.553
 9409POPC   PO456388  10.500  26.019   5.853
 9409POPC   GL156389  10.518  26.066   6.153
 9409POPC   GL256390  10.642  26.173   6.153
 9409POPC   C1A56391  10.568  26.068   6.453
 9409POPC   D2A56392  10.549  26.083   6.753
 9409POPC   C3A56393  10.571  25.999   7.053
 9409POPC   C4A56394  10.573  26.049   7.353
 9409POPC   C1B56395  10.638  26.296   6.453
 9409POPC   C2B56396  10.691  26.273   6.753
 9409POPC   C3B56397  10.656  26.263   7.053
 9409POPC   C4B56398  10.697  26.236   7.353
 9410POPC   NC356399   9.762  42.288   5.553
 9410POPC   PO456400   9.768  42.326   5.853
 9410POPC   GL156401   9.790  42.380   6.153
 9410POPC   GL256402   9.837  42.304   6.153
 9410POPC   C1A56403   9.778  42.379   6.453
 9410POPC   D2A56404   9.771  42.350   6.753
 9410POPC   C3A56405   9.746  42.370   7.053
 9410POPC   C4A56406   9.728  42.286   7.353
 9410POPC   C1B56407   9.901  42.131   6.453
 9410POPC   C2B56408   9.895  42.167   6.753
 9410POPC   C3B56409   9.907  42.129   7.053
 9410POPC   C4B56410   9.957  42.126   7.353
 9411POPC   NC356411  28.343  29.149   5.553
 9411POPC   PO456412  28.338  29.169   5.853
 9411POPC   GL156413  28.416  29.182   6.153
 9411POPC   GL256414  28.449  29.078   6.153
 9411POPC   C1A56415  28.409  29.143   6.453
 9411POPC   D2A56416  28.387  29.128   6.753
 9411POPC   C3A56417  28.366  29.184   7.053
 9411POPC   C4A56418  28.405  29.105   7.353
 9411POPC   C1B56419  28.458  28.873   6.453
 9411POPC   C2B56420  28.430  28.900   6.753
 9411POPC   C3B56421  28.448  28.889   7.053
 9411POPC   C4B56422  28.423  28.939   7.353
 9412POPC   NC356423   0.474  24.491   5.553
 9412POPC   PO456424   0.408  24.527   5.853
 9412POPC   GL156425   0.416  24.519   6.153
 9412POPC   GL256426   0.553  24.368   6.153
 9412POPC   C1A56427   0.433  24.451   6.453
 9412POPC   D2A56428   0.477  24.473   6.753
 9412POPC   C3A56429   0.392  24.459   7.053
 9412POPC   C4A56430   0.484  24.518   7.353
 9412POPC   C1B56431   0.606  24.251   6.453
 9412POPC   C2B56432   0.566  24.319   6.753
 9412POPC   C3B56433   0.565  24.319   7.053
 9412POPC   C4B56434   0.628  24.295   7.353
 9413POPC   NC356435  34.614  40.006   5.553
 9413POPC   PO456436  34.591  39.983   5.853
 9413POPC   GL156437  34.615  40.034   6.153
 9413POPC   GL256438  34.496  39.961   6.153
 9413POPC   C1A56439  34.575  40.036   6.453
 9413POPC   D2A56440  34.562  39.969   6.753
 9413POPC   C3A56441  34.584  40.004   7.053
 9413POPC   C4A56442  34.553  40.003   7.353
 9413POPC   C1B56443  34.311  39.959   6.453
 9413POPC   C2B56444  34.329  39.958   6.753
 9413POPC   C3B56445  34.368  39.974   7.053
 9413POPC   C4B56446  34.332  40.013   7.353
 9414POPC   NC356447  33.034  29.184   5.553
 9414POPC   PO456448  33.071  29.129   5.853
 9414POPC   GL156449  33.029  29.181   6.153
 9414POPC   GL256450  33.071  29.297   6.153
 9414POPC   C1A56451  33.008  29.096   6.453
 9414POPC   D2A56452  32.989  29.188   6.753
 9414POPC   C3A56453  33.000  29.180   7.053
 9414POPC   C4A56454  33.004  29.138   7.353
 9414POPC   C1B56455  33.167  29.378   6.453
 9414POPC   C2B56456  33.186  29.315   6.753
 9414POPC   C3B56457  33.142  29.394   7.053
 9414POPC   C4B56458  33.137  29.314   7.353
 9415POPC   NC356459  41.576  26.811   5.553
 9415POPC   PO456460  41.534  26.864   5.853
 9415POPC   GL156461  41.537  26.862   6.153
 9415POPC   GL256462  41.607  26.734   6.153
 9415POPC   C1A56463  41.523  26.843   6.453
 9415POPC   D2A56464  41.516  26.855   6.753
 9415POPC   C3A56465  41.544  26.780   7.053
 9415POPC   C4A56466  41.541  26.807   7.353
 9415POPC   C1B56467  41.702  26.587   6.453
 9415POPC   C2B56468  41.692  26.550   6.753
 9415POPC   C3B56469  41.660  26.577   7.053
 9415POPC   C4B56470  41.657  26.621   7.353
 9416POPC   NC356471   9.017  32.251   5.553
 9416POPC   PO456472   9.018  32.274   5.853
 9416POPC   GL156473   8.999  32.279   6.153
 9416POPC   GL256474   8.877  32.301   6.153
 9416POPC   C1A56475   8.953  32.228   6.453
 9416POPC   D2A56476   8.978  32.256   6.753
 9416POPC   C3A56477   8.934  32.295   7.053
 9416POPC   C4A56478   9.008  32.282   7.353
 9416POPC   C1B56479   8.777  32.330   6.453
 9416POPC   C2B56480   8.773  32.398   6.753
 9416POPC   C3B56481   8.769  32.398   7.053
 9416POPC   C4B56482   8.789  32.331   7.353
 9417POPC   NC356483   8.939  29.907   5.553
 9417POPC   PO456484   8.961  29.925   5.853
 9417POPC   GL156485   8.990  29.884   6.153
 9417POPC   GL256486   8.980  30.045   6.153
 9417POPC   C1A56487   8.969  29.917   6.453
 9417POPC   D2A56488   8.928  29.893   6.753
 9417POPC   C3A56489   9.008  29.873   7.053
 9417POPC   C4A56490   8.945  29.873   7.353
 9417POPC   C1B56491   9.044  30.156   6.453
 9417POPC   C2B56492   9.075  30.203   6.753
 9417POPC   C3B56493   9.072  30.158   7.053
 9417POPC   C4B56494   9.060  30.154   7.353
 9418POPC   NC356495  15.131  39.220   5.553
 9418POPC   PO456496  15.223  39.254   5.853
 9418POPC   GL156497  15.186  39.266   6.153
 9418POPC   GL256498  15.277  39.297   6.153
 9418POPC   C1A56499  15.139  39.261   6.453
 9418POPC   D2A56500  15.194  39.229   6.753
 9418POPC   C3A56501  15.138  39.235   7.053
 9418POPC   C4A56502  15.208  39.216   7.353
 9418POPC   C1B56503  15.423  39.340   6.453
 9418POPC   C2B56504  15.453  39.365   6.753
 9418POPC   C3B56505  15.390  39.313   7.053
 9418POPC   C4B56506  15.406  39.302   7.353
 9419POPC   NC356507   3.541   6.656   5.553
 9419POPC   PO456508   3.585   6.669   5.853
 9419POPC   GL156509   3.581   6.663   6.153
 9419POPC   GL256510   3.453   6.637   6.153
 9419POPC   C1A56511   3.575   6.608   6.453
 9419POPC   D2A56512   3.504   6.683   6.753
 9419POPC   C3A56513   3.518   6.621   7.053
 9419POPC   C4A56514   3.514   6.606   7.353
 9419POPC   C1B56515   3.258   6.688   6.453
 9419POPC   C2B56516   3.303   6.712   6.753
 9419POPC   C3B56517   3.295   6.632   7.053
 9419POPC   C4B56518   3.245   6.640   7.353
 9420POPC   NC356519  34.599   6.649   5.553
 9420POPC   PO456520  34.611   6.623   5.853
 9420POPC   GL156521  34.600   6.630   6.153
 9420POPC   GL256522  34.623   6.572   6.153
 9420POPC   C1A56523  34.557   6.617   6.453
 9420POPC   D2A56524  34.528   6.665   6.753
 9420POPC   C3A56525  34.611   6.627   7.053
 9420POPC   C4A56526  34.539   6.685   7.353
 9420POPC   C1B56527  34.681   6.390   6.453
 9420POPC   C2B56528  34.634   6.406   6.753
 9420POPC   C3B56529  34.653   6.419   7.053
 9420POPC   C4B56530  34.694   6.416   7.353
 9421POPC   NC356531  28.326  21.374   5.553
 9421POPC   PO456532  28.360  21.360   5.853
 9421POPC   GL156533  28.390  21.394   6.153
 9421POPC   GL256534  28.376  21.233   6.153
 9421POPC   C1A56535  28.357  21.379   6.453
 9421POPC   D2A56536  28.329  21.406   6.753
 9421POPC   C3A56537  28.336  21.377   7.053
 9421POPC   C4A56538  28.342  21.376   7.353
 9421POPC   C1B56539  28.430  21.111   6.453
 9421POPC   C2B56540  28.459  21.185   6.753
 9421POPC   C3B56541  28.439  21.103   7.053
 9421POPC   C4B56542  28.458  21.112   7.353
 9422POPC   NC356543  16.746  43.878   5.553
 9422POPC   PO456544  16.748  43.922   5.853
 9422POPC   GL156545  16.726  43.848   6.153
 9422POPC   GL256546  16.666  43.954   6.153
 9422POPC   C1A56547  16.732  43.845   6.453
 9422POPC   D2A56548  16.720  43.897   6.753
 9422POPC   C3A56549  16.781  43.886   7.053
 9422POPC   C4A56550  16.761  43.886   7.353
 9422POPC   C1B56551  16.521  44.006   6.453
 9422POPC   C2B56552  16.502  44.003   6.753
 9422POPC   C3B56553  16.559  44.029   7.053
 9422POPC   C4B56554  16.543  44.021   7.353
 9423POPC   NC356555  10.534   1.963   5.553
 9423POPC   PO456556  10.510   1.948   5.853
 9423POPC   GL156557  10.510   1.991   6.153
 9423POPC   GL256558  10.408   1.926   6.153
 9423POPC   C1A56559  10.487   1.979   6.453
 9423POPC   D2A56560  10.545   1.998   6.753
 9423POPC   C3A56561  10.496   1.954   7.053
 9423POPC   C4A56562  10.491   1.966   7.353
 9423POPC   C1B56563  10.332   1.896   6.453
 9423POPC   C2B56564  10.298   1.908   6.753
 9423POPC   C3B56565  10.268   1.903   7.053
 9423POPC   C4B56566  10.302   1.902   7.353
 9424POPC   NC356567   2.005  24.504   5.553
 9424POPC   PO456568   2.034  24.507   5.853
 9424POPC   GL156569   1.991  24.460   6.153
 9424POPC   GL256570   2.001  24.573   6.153
 9424POPC   C1A56571   2.012  24.461   6.453
 9424POPC   D2A56572   1.978  24.466   6.753
 9424POPC   C3A56573   2.015  24.441   7.053
 9424POPC   C4A56574   1.970  24.500   7.353
 9424POPC   C1B56575   2.069  24.785   6.453
 9424POPC   C2B56576   2.052  24.730   6.753
 9424POPC   C3B56577   1.974  24.735   7.053
 9424POPC   C4B56578   2.064  24.770   7.353
 9425POPC   NC356579  21.378   8.241   5.553
 9425POPC   PO456580  21.382   8.187   5.853
 9425POPC   GL156581  21.338   8.235   6.153
 9425POPC   GL256582  21.455   8.062   6.153
 9425POPC   C1A56583  21.436   8.154   6.453
 9425POPC   D2A56584  21.431   8.176   6.753
 9425POPC   C3A56585  21.415   8.240   7.053
 9425POPC   C4A56586  21.407   8.243   7.353
 9425POPC   C1B56587  21.589   7.978   6.453
 9425POPC   C2B56588  21.528   8.019   6.753
 9425POPC   C3B56589  21.580   8.060   7.053
 9425POPC   C4B56590  21.532   8.017   7.353
 9426POPC   NC356591  43.097  11.309   5.553
 9426POPC   PO456592  43.133  11.307   5.853
 9426POPC   GL156593  43.100  11.323   6.153
 9426POPC   GL256594  43.030  11.289   6.153
 9426POPC   C1A56595  43.116  11.347   6.453
 9426POPC   D2A56596  43.076  11.334   6.753
 9426POPC   C3A56597  43.125  11.317   7.053
 9426POPC   C4A56598  43.140  11.255   7.353
 9426POPC   C1B56599  42.853  11.194   6.453
 9426POPC   C2B56600  42.853  11.272   6.753
 9426POPC   C3B56601  42.837  11.217   7.053
 9426POPC   C4B56602  42.898  11.195   7.353
 9427POPC   NC356603   1.188   8.195   5.553
 9427POPC   PO456604   1.191   8.150   5.853
 9427POPC   GL156605   1.253   8.231   6.153
 9427POPC   GL256606   1.364   8.167   6.153
 9427POPC   C1A56607   1.203   8.182   6.453
 9427POPC   D2A56608   1.248   8.185   6.753
 9427POPC   C3A56609   1.184   8.216   7.053
 9427POPC   C4A56610   1.165   8.200   7.353
 9427POPC   C1B56611   1.456   8.133   6.453
 9427POPC   C2B56612   1.416   8.174   6.753
 9427POPC   C3B56613   1.448   8.169   7.053
 9427POPC   C4B56614   1.474   8.182   7.353
 9428POPC   NC356615  22.918   7.407   5.553
 9428POPC   PO456616  22.957   7.424   5.853
 9428POPC   GL156617  22.925   7.453   6.153
 9428POPC   GL256618  23.057   7.408   6.153
 9428POPC   C1A56619  22.987   7.452   6.453
 9428POPC   D2A56620  22.977   7.425   6.753
 9428POPC   C3A56621  22.947   7.410   7.053
 9428POPC   C4A56622  22.908   7.462   7.353
 9428POPC   C1B56623  23.147   7.347   6.453
 9428POPC   C2B56624  23.186   7.263   6.753
 9428POPC   C3B56625  23.193   7.286   7.053
 9428POPC   C4B56626  23.135   7.289   7.353
 9429POPC   NC356627  43.904  26.865   5.553
 9429POPC   PO456628  43.859  26.845   5.853
 9429POPC   GL156629  43.879  26.849   6.153
 9429POPC   GL256630  43.839  26.765   6.153
 9429POPC   C1A56631  43.869  26.792   6.453
 9429POPC   D2A56632  43.868  26.806   6.753
 9429POPC   C3A56633  43.899  26.811   7.053
 9429POPC   C4A56634  43.861  26.787   7.353
 9429POPC   C1B56635  43.695  26.671   6.453
 9429POPC   C2B56636  43.666  26.623   6.753
 9429POPC   C3B56637  43.695  26.632   7.053
 9429POPC   C4B56638  43.665  26.673   7.353
 9430POPC   NC356639  36.102  19.836   5.553
 9430POPC   PO456640  36.158  19.868   5.853
 9430POPC   GL156641  36.117  19.804   6.153
 9430POPC   GL256642  36.260  19.787   6.153
 9430POPC   C1A56643  36.089  19.793   6.453
 9430POPC   D2A56644  36.147  19.851   6.753
 9430POPC   C3A56645  36.090  19.794   7.053
 9430POPC   C4A56646  36.144  19.849   7.353
 9430POPC   C1B56647  36.366  19.658   6.453
 9430POPC   C2B56648  36.376  19.710   6.753
 9430POPC   C3B56649  36.385  19.695   7.053
 9430POPC   C4B56650  36.333  19.723   7.353
 9431POPC   NC356651  19.012  25.289   5.553
 9431POPC   PO456652  19.018  25.290   5.853
 9431POPC   GL156653  19.057  25.297   6.153
 9431POPC   GL256654  19.199  25.222   6.153
 9431POPC   C1A56655  19.072  25.223   6.453
 9431POPC   D2A56656  19.026  25.300   6.753
 9431POPC   C3A56657  19.107  25.281   7.053
 9431POPC   C4A56658  19.081  25.270   7.353
 9431POPC   C1B56659  19.319  25.224   6.453
 9431POPC   C2B56660  19.315  25.148   6.753
 9431POPC   C3B56661  19.252  25.216   7.053
 9431POPC   C4B56662  19.339  25.147   7.353
 9432POPC   NC356663   2.002  11.306   5.553
 9432POPC   PO456664   1.995  11.291   5.853
 9432POPC   GL156665   1.980  11.312   6.153
 9432POPC   GL256666   1.830  11.375   6.153
 9432POPC   C1A56667   2.039  11.269   6.453
 9432POPC   D2A56668   1.952  11.334   6.753
 9432POPC   C3A56669   2.027  11.335   7.053
 9432POPC   C4A56670   1.944  11.266   7.353
 9432POPC   C1B56671   1.814  11.407   6.453
 9432POPC   C2B56672   1.751  11.383   6.753
 9432POPC   C3B56673   1.765  11.443   7.053
 9432POPC   C4B56674   1.750  11.454   7.353
 9433POPC   NC356675  36.913  20.635   5.553
 9433POPC   PO456676  36.892  20.604   5.853
 9433POPC   GL156677  36.931  20.597   6.153
 9433POPC   GL256678  37.047  20.636   6.153
 9433POPC   C1A56679  36.888  20.618   6.453
 9433POPC   D2A56680  36.892  20.627   6.753
 9433POPC   C3A56681  36.920  20.582   7.053
 9433POPC   C4A56682  36.872  20.572   7.353
 9433POPC   C1B56683  37.114  20.710   6.453
 9433POPC   C2B56684  37.137  20.726   6.753
 9433POPC   C3B56685  37.089  20.782   7.053
 9433POPC   C4B56686  37.115  20.748   7.353
 9434POPC   NC356687   5.868  27.606   5.553
 9434POPC   PO456688   5.848  27.626   5.853
 9434POPC   GL156689   5.844  27.614   6.153
 9434POPC   GL256690   5.761  27.644   6.153
 9434POPC   C1A56691   5.907  27.608   6.453
 9434POPC   D2A56692   5.842  27.637   6.753
 9434POPC   C3A56693   5.860  27.613   7.053
 9434POPC   C4A56694   5.820  27.614   7.353
 9434POPC   C1B56695   5.685  27.718   6.453
 9434POPC   C2B56696   5.615  27.745   6.753
 9434POPC   C3B56697   5.665  27.712   7.053
 9434POPC   C4B56698   5.666  27.743   7.353
 9435POPC   NC356699  44.659  41.513   5.553
 9435POPC   PO456700  44.674  41.551   5.853
 9435POPC   GL156701  44.711  41.569   6.153
 9435POPC   GL256702  44.585  41.650   6.153
 9435POPC   C1A56703  44.646  41.591   6.453
 9435POPC   D2A56704  44.694  41.584   6.753
 9435POPC   C3A56705  44.697  41.597   7.053
 9435POPC   C4A56706  44.711  41.566   7.353
 9435POPC   C1B56707  44.518  41.721   6.453
 9435POPC   C2B56708  44.473  41.747   6.753
 9435POPC   C3B56709  44.454  41.701   7.053
 9435POPC   C4B56710  44.423  41.677   7.353
 9436POPC   NC356711   4.338  27.567   5.553
 9436POPC   PO456712   4.293  27.568   5.853
 9436POPC   GL156713   4.325  27.589   6.153
 9436POPC   GL256714   4.332  27.669   6.153
 9436POPC   C1A56715   4.268  27.608   6.453
 9436POPC   D2A56716   4.310  27.547   6.753
 9436POPC   C3A56717   4.291  27.637   7.053
 9436POPC   C4A56718   4.349  27.557   7.353
 9436POPC   C1B56719   4.340  27.887   6.453
 9436POPC   C2B56720   4.276  27.879   6.753
 9436POPC   C3B56721   4.329  27.837   7.053
 9436POPC   C4B56722   4.272  27.877   7.353
 9437POPC   NC356723  32.230   8.978   5.553
 9437POPC   PO456724  32.209   8.960   5.853
 9437POPC   GL156725  32.221   8.989   6.153
 9437POPC   GL256726  32.202   8.840   6.153
 9437POPC   C1A56727  32.239   8.986   6.453
 9437POPC   D2A56728  32.283   8.926   6.753
 9437POPC   C3A56729  32.209   8.963   7.053
 9437POPC   C4A56730  32.237   9.007   7.353
 9437POPC   C1B56731  32.251   8.699   6.453
 9437POPC   C2B56732  32.256   8.704   6.753
 9437POPC   C3B56733  32.194   8.714   7.053
 9437POPC   C4B56734  32.204   8.773   7.353
 9438POPC   NC356735  32.231  19.060   5.553
 9438POPC   PO456736  32.231  19.089   5.853
 9438POPC   GL156737  32.281  19.094   6.153
 9438POPC   GL256738  32.186  18.936   6.153
 9438POPC   C1A56739  32.220  19.026   6.453
 9438POPC   D2A56740  32.275  19.071   6.753
 9438POPC   C3A56741  32.219  19.014   7.053
 9438POPC   C4A56742  32.209  19.052   7.353
 9438POPC   C1B56743  32.229  18.854   6.453
 9438POPC   C2B56744  32.173  18.832   6.753
 9438POPC   C3B56745  32.178  18.796   7.053
 9438POPC   C4B56746  32.238  18.839   7.353
 9439POPC   NC356747  43.908  16.778   5.553
 9439POPC   PO456748  43.892  16.689   5.853
 9439POPC   GL156749  43.860  16.714   6.153
 9439POPC   GL256750  43.863  16.654   6.153
 9439POPC   C1A56751  43.857  16.761   6.453
 9439POPC   D2A56752  43.887  16.757   6.753
 9439POPC   C3A56753  43.910  16.759   7.053
 9439POPC   C4A56754  43.923  16.721   7.353
 9439POPC   C1B56755  43.829  16.495   6.453
 9439POPC   C2B56756  43.910  16.517   6.753
 9439POPC   C3B56757  43.820  16.437   7.053
 9439POPC   C4B56758  43.914  16.487   7.353
 9440POPC   NC356759   6.625  30.686   5.553
 9440POPC   PO456760   6.605  30.728   5.853
 9440POPC   GL156761   6.624  30.739   6.153
 9440POPC   GL256762   6.566  30.699   6.153
 9440POPC   C1A56763   6.653  30.678   6.453
 9440POPC   D2A56764   6.595  30.671   6.753
 9440POPC   C3A56765   6.686  30.717   7.053
 9440POPC   C4A56766   6.625  30.656   7.353
 9440POPC   C1B56767   6.446  30.620   6.453
 9440POPC   C2B56768   6.435  30.627   6.753
 9440POPC   C3B56769   6.416  30.571   7.053
 9440POPC   C4B56770   6.364  30.592   7.353
 9441POPC   NC356771  23.722  43.156   5.553
 9441POPC   PO456772  23.749  43.100   5.853
 9441POPC   GL156773  23.696  43.100   6.153
 9441POPC   GL256774  23.747  43.003   6.153
 9441POPC   C1A56775  23.696  43.108   6.453
 9441POPC   D2A56776  23.763  43.114   6.753
 9441POPC   C3A56777  23.682  43.150   7.053
 9441POPC   C4A56778  23.762  43.143   7.353
 9441POPC   C1B56779  23.834  42.881   6.453
 9441POPC   C2B56780  23.823  42.915   6.753
 9441POPC   C3B56781  23.833  42.885   7.053
 9441POPC   C4B56782  23.872  42.939   7.353
 9442POPC   NC356783  11.311  40.036   5.553
 9442POPC   PO456784  11.259  39.993   5.853
 9442POPC   GL156785  11.346  39.969   6.153
 9442POPC   GL256786  11.183  40.156   6.153
 9442POPC   C1A56787  11.326  39.999   6.453
 9442POPC   D2A56788  11.251  40.038   6.753
 9442POPC   C3A56789  11.271  40.054   7.053
 9442POPC   C4A56790  11.322  40.039   7.353
 9442POPC   C1B56791  11.131  40.190   6.453
 9442POPC   C2B56792  11.202  40.190   6.753
 9442POPC   C3B56793  11.121  40.191   7.053
 9442POPC   C4B56794  11.180  40.205   7.353
 9443POPC   NC356795  40.766  23.724   5.553
 9443POPC   PO456796  40.748  23.750   5.853
 9443POPC   GL156797  40.828  23.742   6.153
 9443POPC   GL256798  40.900  23.829   6.153
 9443POPC   C1A56799  40.760  23.669   6.453
 9443POPC   D2A56800  40.797  23.739   6.753
 9443POPC   C3A56801  40.737  23.668   7.053
 9443POPC   C4A56802  40.764  23.722   7.353
 9443POPC   C1B56803  40.988  23.862   6.453
 9443POPC   C2B56804  40.978  23.821   6.753
 9443POPC   C3B56805  41.000  23.857   7.053
 9443POPC   C4B56806  41.030  23.901   7.353
 9444POPC   NC356807  11.313  22.143   5.553
 9444POPC   PO456808  11.252  22.137   5.853
 9444POPC   GL156809  11.313  22.138   6.153
 9444POPC   GL256810  11.211  22.209   6.153
 9444POPC   C1A56811  11.264  22.123   6.453
 9444POPC   D2A56812  11.322  22.181   6.753
 9444POPC   C3A56813  11.277  22.121   7.053
 9444POPC   C4A56814  11.300  22.194   7.353
 9444POPC   C1B56815  11.076  22.215   6.453
 9444POPC   C2B56816  11.086  22.173   6.753
 9444POPC   C3B56817  11.050  22.220   7.053
 9444POPC   C4B56818  11.071  22.205   7.353
 9445POPC   NC356819   2.727  44.711   5.553
 9445POPC   PO456820   2.806  44.622   5.853
 9445POPC   GL156821   2.755  44.628   6.153
 9445POPC   GL256822   2.914  44.597   6.153
 9445POPC   C1A56823   2.800  44.698   6.453
 9445POPC   D2A56824   2.724  44.699   6.753
 9445POPC   C3A56825   2.763  44.661   7.053
 9445POPC   C4A56826   2.801  44.620   7.353
 9445POPC   C1B56827   2.990  44.536   6.453
 9445POPC   C2B56828   3.001  44.563   6.753
 9445POPC   C3B56829   3.017  44.552   7.053
 9445POPC   C4B56830   2.966  44.570   7.353
 9446POPC   NC356831  24.531  10.508   5.553
 9446POPC   PO456832  24.528  10.525   5.853
 9446POPC   GL156833  24.480  10.532   6.153
 9446POPC   GL256834  24.638  10.506   6.153
 9446POPC   C1A56835  24.508  10.478   6.453
 9446POPC   D2A56836  24.494  10.535   6.753
 9446POPC   C3A56837  24.516  10.502   7.053
 9446POPC   C4A56838  24.441  10.556   7.353
 9446POPC   C1B56839  24.685  10.361   6.453
 9446POPC   C2B56840  24.663  10.427   6.753
 9446POPC   C3B56841  24.661  10.354   7.053
 9446POPC   C4B56842  24.692  10.340   7.353
 9447POPC   NC356843  19.073  30.742   5.553
 9447POPC   PO456844  19.029  30.700   5.853
 9447POPC   GL156845  19.041  30.727   6.153
 9447POPC   GL256846  19.045  30.805   6.153
 9447POPC   C1A56847  19.043  30.673   6.453
 9447POPC   D2A56848  19.048  30.679   6.753
 9447POPC   C3A56849  19.080  30.709   7.053
 9447POPC   C4A56850  19.014  30.743   7.353
 9447POPC   C1B56851  19.001  30.952   6.453
 9447POPC   C2B56852  18.989  30.955   6.753
 9447POPC   C3B56853  19.016  30.904   7.053
 9447POPC   C4B56854  19.013  30.941   7.353
 9448POPC   NC356855  33.055  34.541   5.553
 9448POPC   PO456856  33.048  34.586   5.853
 9448POPC   GL156857  33.041  34.546   6.153
 9448POPC   GL256858  33.045  34.488   6.153
 9448POPC   C1A56859  33.071  34.533   6.453
 9448POPC   D2A56860  33.051  34.564   6.753
 9448POPC   C3A56861  33.032  34.560   7.053
 9448POPC   C4A56862  32.977  34.622   7.353
 9448POPC   C1B56863  33.086  34.388   6.453
 9448POPC   C2B56864  33.121  34.296   6.753
 9448POPC   C3B56865  33.117  34.374   7.053
 9448POPC   C4B56866  33.093  34.362   7.353
 9449POPC   NC356867   8.185  40.786   5.553
 9449POPC   PO456868   8.181  40.799   5.853
 9449POPC   GL156869   8.159  40.820   6.153
 9449POPC   GL256870   8.122  40.781   6.153
 9449POPC   C1A56871   8.155  40.772   6.453
 9449POPC   D2A56872   8.182  40.796   6.753
 9449POPC   C3A56873   8.154  40.783   7.053
 9449POPC   C4A56874   8.217  40.800   7.353
 9449POPC   C1B56875   7.970  40.738   6.453
 9449POPC   C2B56876   7.921  40.738   6.753
 9449POPC   C3B56877   7.962  40.693   7.053
 9449POPC   C4B56878   8.000  40.687   7.353
 9450POPC   NC356879   3.544   1.169   5.553
 9450POPC   PO456880   3.562   1.183   5.853
 9450POPC   GL156881   3.532   1.178   6.153
 9450POPC   GL256882   3.562   1.094   6.153
 9450POPC   C1A56883   3.546   1.196   6.453
 9450POPC   D2A56884   3.581   1.178   6.753
 9450POPC   C3A56885   3.494   1.218   7.053
 9450POPC   C4A56886   3.585   1.250   7.353
 9450POPC   C1B56887   3.655   0.988   6.453
 9450POPC   C2B56888   3.638   1.006   6.753
 9450POPC   C3B56889   3.677   1.008   7.053
 9450POPC   C4B56890   3.637   0.959   7.353
 9451POPC   NC356891  27.577  12.818   5.553
 9451POPC   PO456892  27.629  12.848   5.853
 9451POPC   GL156893  27.558  12.900   6.153
 9451POPC   GL256894  27.576  12.942   6.153
 9451POPC   C1A56895  27.601  12.846   6.453
 9451POPC   D2A56896  27.559  12.840   6.753
 9451POPC   C3A56897  27.643  12.809   7.053
 9451POPC   C4A56898  27.579  12.900   7.353
 9451POPC   C1B56899  27.558  13.104   6.453
 9451POPC   C2B56900  27.529  13.086   6.753
 9451POPC   C3B56901  27.539  13.131   7.053
 9451POPC   C4B56902  27.515  13.107   7.353
 9452POPC   NC356903  31.484  36.138   5.553
 9452POPC   PO456904  31.497  36.150   5.853
 9452POPC   GL156905  31.434  36.111   6.153
 9452POPC   GL256906  31.350  36.068   6.153
 9452POPC   C1A56907  31.450  36.138   6.453
 9452POPC   D2A56908  31.428  36.113   6.753
 9452POPC   C3A56909  31.432  36.109   7.053
 9452POPC   C4A56910  31.466  36.094   7.353
 9452POPC   C1B56911  31.270  35.983   6.453
 9452POPC   C2B56912  31.210  36.041   6.753
 9452POPC   C3B56913  31.242  36.043   7.053
 9452POPC   C4B56914  31.264  36.045   7.353
 9453POPC   NC356915  24.527   5.844   5.553
 9453POPC   PO456916  24.458   5.847   5.853
 9453POPC   GL156917  24.448   5.894   6.153
 9453POPC   GL256918  24.587   5.980   6.153
 9453POPC   C1A56919  24.509   5.914   6.453
 9453POPC   D2A56920  24.448   5.912   6.753
 9453POPC   C3A56921  24.476   5.908   7.053
 9453POPC   C4A56922  24.498   5.892   7.353
 9453POPC   C1B56923  24.737   6.019   6.453
 9453POPC   C2B56924  24.754   6.029   6.753
 9453POPC   C3B56925  24.697   5.963   7.053
 9453POPC   C4B56926  24.658   6.005   7.353
 9454POPC   NC356927   5.893  41.602   5.553
 9454POPC   PO456928   5.918  41.552   5.853
 9454POPC   GL156929   5.830  41.586   6.153
 9454POPC   GL256930   5.910  41.397   6.153
 9454POPC   C1A56931   5.906  41.529   6.453
 9454POPC   D2A56932   5.838  41.563   6.753
 9454POPC   C3A56933   5.854  41.514   7.053
 9454POPC   C4A56934   5.834  41.593   7.353
 9454POPC   C1B56935   5.957  41.286   6.453
 9454POPC   C2B56936   5.907  41.325   6.753
 9454POPC   C3B56937   5.948  41.291   7.053
 9454POPC   C4B56938   5.979  41.332   7.353
 9455POPC   NC356939  25.231  22.117   5.553
 9455POPC   PO456940  25.237  22.193   5.853
 9455POPC   GL156941  25.291  22.130   6.153
 9455POPC   GL256942  25.231  22.318   6.153
 9455POPC   C1A56943  25.231  22.169   6.453
 9455POPC   D2A56944  25.283  22.170   6.753
 9455POPC   C3A56945  25.279  22.140   7.053
 9455POPC   C4A56946  25.229  22.198   7.353
 9455POPC   C1B56947  25.260  22.435   6.453
 9455POPC   C2B56948  25.318  22.418   6.753
 9455POPC   C3B56949  25.329  22.420   7.053
 9455POPC   C4B56950  25.261  22.419   7.353
 9456POPC   NC356951  11.335  33.791   5.553
 9456POPC   PO456952  11.332  33.838   5.853
 9456POPC   GL156953  11.260  33.826   6.153
 9456POPC   GL256954  11.368  33.697   6.153
 9456POPC   C1A56955  11.325  33.776   6.453
 9456POPC   D2A56956  11.312  33.752   6.753
 9456POPC   C3A56957  11.271  33.794   7.053
 9456POPC   C4A56958  11.271  33.823   7.353
 9456POPC   C1B56959  11.418  33.569   6.453
 9456POPC   C2B56960  11.393  33.638   6.753
 9456POPC   C3B56961  11.423  33.555   7.053
 9456POPC   C4B56962  11.391  33.590   7.353
 9457POPC   NC356963  43.134  19.808   5.553
 9457POPC   PO456964  43.079  19.823   5.853
 9457POPC   GL156965  43.135  19.865   6.153
 9457POPC   GL256966  43.007  19.900   6.153
 9457POPC   C1A56967  43.082  19.816   6.453
 9457POPC   D2A56968  43.067  19.874   6.753
 9457POPC   C3A56969  43.116  19.785   7.053
 9457POPC   C4A56970  43.117  19.842   7.353
 9457POPC   C1B56971  42.931  20.036   6.453
 9457POPC   C2B56972  43.014  20.039   6.753
 9457POPC   C3B56973  42.938  20.096   7.053
 9457POPC   C4B56974  42.936  20.005   7.353
 9458POPC   NC356975  10.542   9.794   5.553
 9458POPC   PO456976  10.481   9.700   5.853
 9458POPC   GL156977  10.485   9.749   6.153
 9458POPC   GL256978  10.423   9.657   6.153
 9458POPC   C1A56979  10.492   9.777   6.453
 9458POPC   D2A56980  10.496   9.789   6.753
 9458POPC   C3A56981  10.507   9.792   7.053
 9458POPC   C4A56982  10.558   9.768   7.353
 9458POPC   C1B56983  10.264   9.622   6.453
 9458POPC   C2B56984  10.294   9.683   6.753
 9458POPC   C3B56985  10.350   9.658   7.053
 9458POPC   C4B56986  10.306   9.654   7.353
 9459POPC   NC356987  44.689   0.393   5.553
 9459POPC   PO456988  44.667   0.430   5.853
 9459POPC   GL156989  44.672   0.479   6.153
 9459POPC   GL256990  44.524   0.354   6.153
 9459POPC   C1A56991  44.712   0.465   6.453
 9459POPC   D2A56992  44.695   0.481   6.753
 9459POPC   C3A56993  44.673   0.435   7.053
 9459POPC   C4A56994  44.678   0.430   7.353
 9459POPC   C1B56995  44.510   0.234   6.453
 9459POPC   C2B56996  44.432   0.255   6.753
 9459POPC   C3B56997  44.501   0.322   7.053
 9459POPC   C4B56998  44.424   0.292   7.353
 9460POPC   NC356999  36.103   5.866   5.553
 9460POPC   PO457000  36.165   5.914   5.853
 9460POPC   GL157001  36.136   5.896   6.153
 9460POPC   GL257002  36.154   5.979   6.153
 9460POPC   C1A57003  36.164   5.868   6.453
 9460POPC   D2A57004  36.141   5.857   6.753
 9460POPC   C3A57005  36.112   5.909   7.053
 9460POPC   C4A57006  36.155   5.902   7.353
 9460POPC   C1B57007  36.068   6.148   6.453
 9460POPC   C2B57008  36.107   6.142   6.753
 9460POPC   C3B57009  36.079   6.138   7.053
 9460POPC   C4B57010  36.075   6.139   7.353
 9461POPC   NC357011  33.769   3.558   5.553
 9461POPC   PO457012  33.837   3.500   5.853
 9461POPC   GL157013  33.777   3.574   6.153
 9461POPC   GL257014  33.777   3.638   6.153
 9461POPC   C1A57015  33.781   3.543   6.453
 9461POPC   D2A57016  33.780   3.496   6.753
 9461POPC   C3A57017  33.814   3.516   7.053
 9461POPC   C4A57018  33.818   3.557   7.353
 9461POPC   C1B57019  33.773   3.741   6.453
 9461POPC   C2B57020  33.779   3.780   6.753
 9461POPC   C3B57021  33.694   3.817   7.053
 9461POPC   C4B57022  33.731   3.757   7.353
 9462POPC   NC357023  10.485  44.649   5.553
 9462POPC   PO457024  10.494  44.694   5.853
 9462POPC   GL157025  10.487  44.694   6.153
 9462POPC   GL257026  10.683  44.691   6.153
 9462POPC   C1A57027  10.568  44.708   6.453
 9462POPC   D2A57028  10.551  44.696   6.753
 9462POPC   C3A57029  10.491  44.660   7.053
 9462POPC   C4A57030  10.545  44.681   7.353
 9462POPC   C1B57031  10.755  44.629   6.453
 9462POPC   C2B57032  10.794  44.709   6.753
 9462POPC   C3B57033  10.764  44.670   7.053
 9462POPC   C4B57034  10.753  44.649   7.353
 9463POPC   NC357035  30.731  29.137   5.553
 9463POPC   PO457036  30.663  29.124   5.853
 9463POPC   GL157037  30.739  29.164   6.153
 9463POPC   GL257038  30.782  29.220   6.153
 9463POPC   C1A57039  30.737  29.116   6.453
 9463POPC   D2A57040  30.666  29.122   6.753
 9463POPC   C3A57041  30.686  29.175   7.053
 9463POPC   C4A57042  30.743  29.102   7.353
 9463POPC   C1B57043  30.922  29.278   6.453
 9463POPC   C2B57044  30.901  29.227   6.753
 9463POPC   C3B57045  30.914  29.207   7.053
 9463POPC   C4B57046  30.887  29.282   7.353
 9464POPC   NC357047   3.564  33.769   5.553
 9464POPC   PO457048   3.505  33.759   5.853
 9464POPC   GL157049   3.502  33.786   6.153
 9464POPC   GL257050   3.626  33.762   6.153
 9464POPC   C1A57051   3.584  33.819   6.453
 9464POPC   D2A57052   3.510  33.779   6.753
 9464POPC   C3A57053   3.590  33.752   7.053
 9464POPC   C4A57054   3.580  33.759   7.353
 9464POPC   C1B57055   3.740  33.694   6.453
 9464POPC   C2B57056   3.757  33.677   6.753
 9464POPC   C3B57057   3.784  33.609   7.053
 9464POPC   C4B57058   3.756  33.603   7.353
 9465POPC   NC357059  33.823  18.233   5.553
 9465POPC   PO457060  33.804  18.233   5.853
 9465POPC   GL157061  33.766  18.273   6.153
 9465POPC   GL257062  33.963  18.373   6.153
 9465POPC   C1A57063  33.822  18.304   6.453
 9465POPC   D2A57064  33.847  18.308   6.753
 9465POPC   C3A57065  33.784  18.326   7.053
 9465POPC   C4A57066  33.833  18.247   7.353
 9465POPC   C1B57067  33.983  18.337   6.453
 9465POPC   C2B57068  34.000  18.330   6.753
 9465POPC   C3B57069  34.053  18.337   7.053
 9465POPC   C4B57070  34.015  18.376   7.353
 9466POPC   NC357071   8.970  23.733   5.553
 9466POPC   PO457072   8.935  23.683   5.853
 9466POPC   GL157073   8.981  23.676   6.153
 9466POPC   GL257074   8.890  23.779   6.153
 9466POPC   C1A57075   8.928  23.721   6.453
 9466POPC   D2A57076   8.981  23.756   6.753
 9466POPC   C3A57077   8.939  23.691   7.053
 9466POPC   C4A57078   8.930  23.694   7.353
 9466POPC   C1B57079   8.817  23.921   6.453
 9466POPC   C2B57080   8.799  23.866   6.753
 9466POPC   C3B57081   8.859  23.884   7.053
 9466POPC   C4B57082   8.782  23.940   7.353
 9467POPC   NC357083  41.567   5.825   5.553
 9467POPC   PO457084  41.579   5.900   5.853
 9467POPC   GL157085  41.586   5.888   6.153
 9467POPC   GL257086  41.647   6.015   6.153
 9467POPC   C1A57087  41.534   5.842   6.453
 9467POPC   D2A57088  41.585   5.892   6.753
 9467POPC   C3A57089  41.545   5.875   7.053
 9467POPC   C4A57090  41.523   5.918   7.353
 9467POPC   C1B57091  41.639   6.053   6.453
 9467POPC   C2B57092  41.698   6.078   6.753
 9467POPC   C3B57093  41.661   6.106   7.053
 9467POPC   C4B57094  41.713   6.106   7.353
 9468POPC   NC357095   3.519  35.303   5.553
 9468POPC   PO457096   3.510  35.319   5.853
 9468POPC   GL157097   3.562  35.343   6.153
 9468POPC   GL257098   3.478  35.206   6.153
 9468POPC   C1A57099   3.580  35.328   6.453
 9468POPC   D2A57100   3.555  35.384   6.753
 9468POPC   C3A57101   3.527  35.397   7.053
 9468POPC   C4A57102   3.545  35.381   7.353
 9468POPC   C1B57103   3.454  35.146   6.453
 9468POPC   C2B57104   3.467  35.091   6.753
 9468POPC   C3B57105   3.432  35.161   7.053
 9468POPC   C4B57106   3.446  35.096   7.353
 9469POPC   NC357107   6.601  10.509   5.553
 9469POPC   PO457108   6.667  10.520   5.853
 9469POPC   GL157109   6.668  10.553   6.153
 9469POPC   GL257110   6.705  10.359   6.153
 9469POPC   C1A57111   6.620  10.572   6.453
 9469POPC   D2A57112   6.595  10.475   6.753
 9469POPC   C3A57113   6.684  10.498   7.053
 9469POPC   C4A57114   6.647  10.503   7.353
 9469POPC   C1B57115   6.740  10.251   6.453
 9469POPC   C2B57116   6.775  10.260   6.753
 9469POPC   C3B57117   6.735  10.302   7.053
 9469POPC   C4B57118   6.782  10.295   7.353
 9470POPC   NC357119  33.057  38.495   5.553
 9470POPC   PO457120  33.057  38.488   5.853
 9470POPC   GL157121  33.037  38.458   6.153
 9470POPC   GL257122  32.905  38.468   6.153
 9470POPC   C1A57123  33.028  38.496   6.453
 9470POPC   D2A57124  33.010  38.417   6.753
 9470POPC   C3A57125  33.002  38.464   7.053
 9470POPC   C4A57126  33.013  38.452   7.353
 9470POPC   C1B57127  32.777  38.443   6.453
 9470POPC   C2B57128  32.824  38.463   6.753
 9470POPC   C3B57129  32.806  38.397   7.053
 9470POPC   C4B57130  32.785  38.472   7.353
 9471POPC   NC357131  38.428   4.329   5.553
 9471POPC   PO457132  38.427   4.300   5.853
 9471POPC   GL157133  38.450   4.344   6.153
 9471POPC   GL257134  38.409   4.466   6.153
 9471POPC   C1A57135  38.430   4.355   6.453
 9471POPC   D2A57136  38.456   4.351   6.753
 9471POPC   C3A57137  38.419   4.345   7.053
 9471POPC   C4A57138  38.475   4.309   7.353
 9471POPC   C1B57139  38.313   4.579   6.453
 9471POPC   C2B57140  38.293   4.587   6.753
 9471POPC   C3B57141  38.375   4.520   7.053
 9471POPC   C4B57142  38.345   4.538   7.353
 9472POPC   NC357143  30.710   9.709   5.553
 9472POPC   PO457144  30.704   9.751   5.853
 9472POPC   GL157145  30.678   9.723   6.153
 9472POPC   GL257146  30.592   9.784   6.153
 9472POPC   C1A57147  30.715   9.707   6.453
 9472POPC   D2A57148  30.672   9.789   6.753
 9472POPC   C3A57149  30.720   9.758   7.053
 9472POPC   C4A57150  30.683   9.769   7.353
 9472POPC   C1B57151  30.441   9.846   6.453
 9472POPC   C2B57152  30.411   9.823   6.753
 9472POPC   C3B57153  30.463   9.847   7.053
 9472POPC   C4B57154  30.443   9.824   7.353
 9473POPC   NC357155  43.088  31.428   5.553
 9473POPC   PO457156  43.147  31.443   5.853
 9473POPC   GL157157  43.099  31.514   6.153
 9473POPC   GL257158  43.069  31.612   6.153
 9473POPC   C1A57159  43.064  31.499   6.453
 9473POPC   D2A57160  43.101  31.504   6.753
 9473POPC   C3A57161  43.091  31.490   7.053
 9473POPC   C4A57162  43.089  31.434   7.353
 9473POPC   C1B57163  43.024  31.722   6.453
 9473POPC   C2B57164  43.101  31.720   6.753
 9473POPC   C3B57165  43.100  31.751   7.053
 9473POPC   C4B57166  43.093  31.704   7.353
 9474POPC   NC357167   3.498  11.280   5.553
 9474POPC   PO457168   3.590  11.319   5.853
 9474POPC   GL157169   3.564  11.292   6.153
 9474POPC   GL257170   3.640  11.373   6.153
 9474POPC   C1A57171   3.564  11.317   6.453
 9474POPC   D2A57172   3.553  11.341   6.753
 9474POPC   C3A57173   3.513  11.260   7.053
 9474POPC   C4A57174   3.524  11.292   7.353
 9474POPC   C1B57175   3.763  11.437   6.453
 9474POPC   C2B57176   3.785  11.419   6.753
 9474POPC   C3B57177   3.794  11.440   7.053
 9474POPC   C4B57178   3.741  11.371   7.353
 9475POPC   NC357179   7.449   0.421   5.553
 9475POPC   PO457180   7.404   0.451   5.853
 9475POPC   GL157181   7.412   0.457   6.153
 9475POPC   GL257182   7.400   0.315   6.153
 9475POPC   C1A57183   7.408   0.404   6.453
 9475POPC   D2A57184   7.432   0.407   6.753
 9475POPC   C3A57185   7.402   0.423   7.053
 9475POPC   C4A57186   7.395   0.444   7.353
 9475POPC   C1B57187   7.442   0.210   6.453
 9475POPC   C2B57188   7.519   0.198   6.753
 9475POPC   C3B57189   7.497   0.145   7.053
 9475POPC   C4B57190   7.500   0.159   7.353
 9476POPC   NC357191  33.039  18.245   5.553
 9476POPC   PO457192  33.018  18.318   5.853
 9476POPC   GL157193  33.047  18.236   6.153
 9476POPC   GL257194  32.888  18.207   6.153
 9476POPC   C1A57195  33.056  18.285   6.453
 9476POPC   D2A57196  33.007  18.308   6.753
 9476POPC   C3A57197  33.022  18.322   7.053
 9476POPC   C4A57198  32.980  18.306   7.353
 9476POPC   C1B57199  32.880  18.081   6.453
 9476POPC   C2B57200  32.822  18.090   6.753
 9476POPC   C3B57201  32.850  18.085   7.053
 9476POPC   C4B57202  32.789  18.093   7.353
 9477POPC   NC357203  44.641  44.631   5.553
 9477POPC   PO457204  44.712  44.618   5.853
 9477POPC   GL157205  44.712  44.696   6.153
 9477POPC   GL257206  44.768  44.667   6.153
 9477POPC   C1A57207  44.647  44.637   6.453
 9477POPC   D2A57208  44.638  44.631   6.753
 9477POPC   C3A57209  44.666  44.621   7.053
 9477POPC   C4A57210  44.691  44.639   7.353
 9477POPC   C1B57211  44.951  44.634   6.453
 9477POPC   C2B57212  44.889  44.643   6.753
 9477POPC   C3B57213  44.896  44.582   7.053
 9477POPC   C4B57214  44.937  44.606   7.353
 9478POPC   NC357215  12.106   1.196   5.553
 9478POPC   PO457216  12.117   1.208   5.853
 9478POPC   GL157217  12.054   1.206   6.153
 9478POPC   GL257218  12.185   1.124   6.153
 9478POPC   C1A57219  12.080   1.211   6.453
 9478POPC   D2A57220  12.084   1.241   6.753
 9478POPC   C3A57221  12.069   1.246   7.053
 9478POPC   C4A57222  12.058   1.176   7.353
 9478POPC   C1B57223  12.208   0.968   6.453
 9478POPC   C2B57224  12.262   1.058   6.753
 9478POPC   C3B57225  12.228   1.021   7.053
 9478POPC   C4B57226  12.268   0.995   7.353
 9479POPC   NC357227  30.737  20.601   5.553
 9479POPC   PO457228  30.699  20.629   5.853
 9479POPC   GL157229  30.742  20.617   6.153
 9479POPC   GL257230  30.640  20.749   6.153
 9479POPC   C1A57231  30.675  20.582   6.453
 9479POPC   D2A57232  30.674  20.575   6.753
 9479POPC   C3A57233  30.687  20.572   7.053
 9479POPC   C4A57234  30.657  20.656   7.353
 9479POPC   C1B57235  30.695  20.882   6.453
 9479POPC   C2B57236  30.638  20.846   6.753
 9479POPC   C3B57237  30.620  20.888   7.053
 9479POPC   C4B57238  30.630  20.905   7.353
 9480POPC   NC357239  25.997  38.462   5.553
 9480POPC   PO457240  26.080  38.483   5.853
 9480POPC   GL157241  26.080  38.471   6.153
 9480POPC   GL257242  25.917  38.309   6.153
 9480POPC   C1A57243  26.074  38.471   6.453
 9480POPC   D2A57244  26.034  38.485   6.753
 9480POPC   C3A57245  26.085  38.420   7.053
 9480POPC   C4A57246  26.072  38.474   7.353
 9480POPC   C1B57247  25.842  38.225   6.453
 9480POPC   C2B57248  25.887  38.224   6.753
 9480POPC   C3B57249  25.881  38.265   7.053
 9480POPC   C4B57250  25.872  38.298   7.353
 9481POPC   NC357251  37.727  20.639   5.553
 9481POPC   PO457252  37.640  20.564   5.853
 9481POPC   GL157253  37.640  20.654   6.153
 9481POPC   GL257254  37.579  20.573   6.153
 9481POPC   C1A57255  37.683  20.657   6.453
 9481POPC   D2A57256  37.663  20.647   6.753
 9481POPC   C3A57257  37.674  20.658   7.053
 9481POPC   C4A57258  37.672  20.644   7.353
 9481POPC   C1B57259  37.457  20.610   6.453
 9481POPC   C2B57260  37.413  20.613   6.753
 9481POPC   C3B57261  37.453  20.633   7.053
 9481POPC   C4B57262  37.401  20.605   7.353
 9482POPC   NC357263  24.534  43.087   5.553
 9482POPC   PO457264  24.511  43.129   5.853
 9482POPC   GL157265  24.515  43.080   6.153
 9482POPC   GL257266  24.397  42.986   6.153
 9482POPC   C1A57267  24.485  43.093   6.453
 9482POPC   D2A57268  24.523  43.066   6.753
 9482POPC   C3A57269  24.491  43.100   7.053
 9482POPC   C4A57270  24.500  43.109   7.353
 9482POPC   C1B57271  24.340  42.986   6.453
 9482POPC   C2B57272  24.254  42.972   6.753
 9482POPC   C3B57273  24.296  42.987   7.053
 9482POPC   C4B57274  24.343  42.985   7.353
 9483POPC   NC357275  18.297  26.840   5.553
 9483POPC   PO457276  18.263  26.771   5.853
 9483POPC   GL157277  18.315  26.782   6.153
 9483POPC   GL257278  18.236  26.897   6.153
 9483POPC   C1A57279  18.277  26.791   6.453
 9483POPC   D2A57280  18.330  26.792   6.753
 9483POPC   C3A57281  18.233  26.777   7.053
 9483POPC   C4A57282  18.234  26.799   7.353
 9483POPC   C1B57283  18.120  26.992   6.453
 9483POPC   C2B57284  18.063  26.987   6.753
 9483POPC   C3B57285  18.133  27.009   7.053
 9483POPC   C4B57286  18.068  26.994   7.353
 9484POPC   NC357287  16.707  37.684   5.553
 9484POPC   PO457288  16.711  37.727   5.853
 9484POPC   GL157289  16.775  37.681   6.153
 9484POPC   GL257290  16.802  37.559   6.153
 9484POPC   C1A57291  16.735  37.697   6.453
 9484POPC   D2A57292  16.726  37.634   6.753
 9484POPC   C3A57293  16.756  37.684   7.053
 9484POPC   C4A57294  16.684  37.723   7.353
 9484POPC   C1B57295  16.796  37.485   6.453
 9484POPC   C2B57296  16.872  37.496   6.753
 9484POPC   C3B57297  16.850  37.443   7.053
 9484POPC   C4B57298  16.794  37.470   7.353
 9485POPC   NC357299   5.125  36.136   5.553
 9485POPC   PO457300   5.111  36.120   5.853
 9485POPC   GL157301   5.093  36.125   6.153
 9485POPC   GL257302   5.249  36.103   6.153
 9485POPC   C1A57303   5.138  36.160   6.453
 9485POPC   D2A57304   5.129  36.095   6.753
 9485POPC   C3A57305   5.048  36.133   7.053
 9485POPC   C4A57306   5.098  36.109   7.353
 9485POPC   C1B57307   5.380  36.044   6.453
 9485POPC   C2B57308   5.312  36.066   6.753
 9485POPC   C3B57309   5.329  36.088   7.053
 9485POPC   C4B57310   5.361  36.093   7.353
 9486POPC   NC357311  31.518  22.920   5.553
 9486POPC   PO457312  31.441  22.981   5.853
 9486POPC   GL157313  31.478  22.956   6.153
 9486POPC   GL257314  31.343  22.964   6.153
 9486POPC   C1A57315  31.478  22.890   6.453
 9486POPC   D2A57316  31.441  22.900   6.753
 9486POPC   C3A57317  31.444  22.958   7.053
 9486POPC   C4A57318  31.479  22.929   7.353
 9486POPC   C1B57319  31.190  22.984   6.453
 9486POPC   C2B57320  31.272  22.968   6.753
 9486POPC   C3B57321  31.253  23.002   7.053
 9486POPC   C4B57322  31.254  22.931   7.353
 9487POPC   NC357323  26.050  29.956   5.553
 9487POPC   PO457324  25.995  29.947   5.853
 9487POPC   GL157325  26.020  29.959   6.153
 9487POPC   GL257326  26.125  29.858   6.153
 9487POPC   C1A57327  26.073  29.958   6.453
 9487POPC   D2A57328  26.071  29.951   6.753
 9487POPC   C3A57329  26.078  29.895   7.053
 9487POPC   C4A57330  25.993  29.890   7.353
 9487POPC   C1B57331  26.191  29.752   6.453
 9487POPC   C2B57332  26.186  29.748   6.753
 9487POPC   C3B57333  26.223  29.760   7.053
 9487POPC   C4B57334  26.168  29.715   7.353
 9488POPC   NC357335   7.417   3.497   5.553
 9488POPC   PO457336   7.423   3.515   5.853
 9488POPC   GL157337   7.444   3.564   6.153
 9488POPC   GL257338   7.363   3.396   6.153
 9488POPC   C1A57339   7.451   3.559   6.453
 9488POPC   D2A57340   7.466   3.528   6.753
 9488POPC   C3A57341   7.450   3.562   7.053
 9488POPC   C4A57342   7.412   3.546   7.353
 9488POPC   C1B57343   7.282   3.270   6.453
 9488POPC   C2B57344   7.289   3.309   6.753
 9488POPC   C3B57345   7.344   3.273   7.053
 9488POPC   C4B57346   7.338   3.338   7.353
 9489POPC   NC357347  26.005   9.797   5.553
 9489POPC   PO457348  26.011   9.754   5.853
 9489POPC   GL157349  26.052   9.790   6.153
 9489POPC   GL257350  26.105   9.628   6.153
 9489POPC   C1A57351  26.081   9.791   6.453
 9489POPC   D2A57352  25.993   9.721   6.753
 9489POPC   C3A57353  26.009   9.784   7.053
 9489POPC   C4A57354  26.020   9.794   7.353
 9489POPC   C1B57355  26.076   9.491   6.453
 9489POPC   C2B57356  26.061   9.548   6.753
 9489POPC   C3B57357  26.140   9.493   7.053
 9489POPC   C4B57358  26.154   9.533   7.353
 9490POPC   NC357359  41.543  43.119   5.553
 9490POPC   PO457360  41.512  43.071   5.853
 9490POPC   GL157361  41.604  43.148   6.153
 9490POPC   GL257362  41.620  43.198   6.153
 9490POPC   C1A57363  41.534  43.144   6.453
 9490POPC   D2A57364  41.516  43.156   6.753
 9490POPC   C3A57365  41.522  43.077   7.053
 9490POPC   C4A57366  41.557  43.132   7.353
 9490POPC   C1B57367  41.636  43.377   6.453
 9490POPC   C2B57368  41.612  43.378   6.753
 9490POPC   C3B57369  41.614  43.335   7.053
 9490POPC   C4B57370  41.688  43.357   7.353
 9491POPC   NC357371  17.539  30.745   5.553
 9491POPC   PO457372  17.504  30.715   5.853
 9491POPC   GL157373  17.501  30.717   6.153
 9491POPC   GL257374  17.611  30.691   6.153
 9491POPC   C1A57375  17.534  30.707   6.453
 9491POPC   D2A57376  17.507  30.653   6.753
 9491POPC   C3A57377  17.461  30.688   7.053
 9491POPC   C4A57378  17.489  30.661   7.353
 9491POPC   C1B57379  17.702  30.611   6.453
 9491POPC   C2B57380  17.762  30.586   6.753
 9491POPC   C3B57381  17.781  30.585   7.053
 9491POPC   C4B57382  17.746  30.549   7.353
 9492POPC   NC357383  14.375  15.204   5.553
 9492POPC   PO457384  14.357  15.144   5.853
 9492POPC   GL157385  14.408  15.144   6.153
 9492POPC   GL257386  14.445  15.310   6.153
 9492POPC   C1A57387  14.363  15.177   6.453
 9492POPC   D2A57388  14.442  15.138   6.753
 9492POPC   C3A57389  14.387  15.144   7.053
 9492POPC   C4A57390  14.422  15.225   7.353
 9492POPC   C1B57391  14.458  15.379   6.453
 9492POPC   C2B57392  14.454  15.410   6.753
 9492POPC   C3B57393  14.453  15.395   7.053
 9492POPC   C4B57394  14.532  15.418   7.353
 9493POPC   NC357395   1.166  12.821   5.553
 9493POPC   PO457396   1.231  12.872   5.853
 9493POPC   GL157397   1.236  12.870   6.153
 9493POPC   GL257398   1.254  12.915   6.153
 9493POPC   C1A57399   1.188  12.815   6.453
 9493POPC   D2A57400   1.259  12.804   6.753
 9493POPC   C3A57401   1.254  12.805   7.053
 9493POPC   C4A57402   1.180  12.901   7.353
 9493POPC   C1B57403   1.385  13.019   6.453
 9493POPC   C2B57404   1.390  13.006   6.753
 9493POPC   C3B57405   1.407  13.047   7.053
 9493POPC   C4B57406   1.334  13.090   7.353
 9494POPC   NC357407   4.349  20.608   5.553
 9494POPC   PO457408   4.358  20.634   5.853
 9494POPC   GL157409   4.317  20.608   6.153
 9494POPC   GL257410   4.358  20.725   6.153
 9494POPC   C1A57411   4.330  20.576   6.453
 9494POPC   D2A57412   4.366  20.595   6.753
 9494POPC   C3A57413   4.277  20.592   7.053
 9494POPC   C4A57414   4.345  20.617   7.353
 9494POPC   C1B57415   4.534  20.766   6.453
 9494POPC   C2B57416   4.531  20.817   6.753
 9494POPC   C3B57417   4.478  20.827   7.053
 9494POPC   C4B57418   4.475  20.778   7.353
 9495POPC   NC357419  19.032  26.854   5.553
 9495POPC   PO457420  19.047  26.776   5.853
 9495POPC   GL157421  19.033  26.855   6.153
 9495POPC   GL257422  18.959  26.785   6.153
 9495POPC   C1A57423  19.041  26.850   6.453
 9495POPC   D2A57424  19.021  26.827   6.753
 9495POPC   C3A57425  19.018  26.806   7.053
 9495POPC   C4A57426  19.019  26.789   7.353
 9495POPC   C1B57427  18.810  26.813   6.453
 9495POPC   C2B57428  18.795  26.845   6.753
 9495POPC   C3B57429  18.838  26.828   7.053
 9495POPC   C4B57430  18.834  26.796   7.353
 9496POPC   NC357431   9.001  44.622   5.553
 9496POPC   PO457432   8.970  44.691   5.853
 9496POPC   GL157433   8.975  44.679   6.153
 9496POPC   GL257434   8.860  44.697   6.153
 9496POPC   C1A57435   9.013  44.621   6.453
 9496POPC   D2A57436   8.928  44.637   6.753
 9496POPC   C3A57437   9.014  44.665   7.053
 9496POPC   C4A57438   9.020  44.683   7.353
 9496POPC   C1B57439   8.768  44.659   6.453
 9496POPC   C2B57440   8.727  44.698   6.753
 9496POPC   C3B57441   8.733  44.694   7.053
 9496POPC   C4B57442   8.725  44.661   7.353
 9497POPC   NC357443  40.774   1.189   5.553
 9497POPC   PO457444  40.788   1.261   5.853
 9497POPC   GL157445  40.816   1.252   6.153
 9497POPC   GL257446  40.682   1.363   6.153
 9497POPC   C1A57447  40.787   1.235   6.453
 9497POPC   D2A57448  40.766   1.255   6.753
 9497POPC   C3A57449  40.778   1.166   7.053
 9497POPC   C4A57450  40.755   1.242   7.353
 9497POPC   C1B57451  40.632   1.435   6.453
 9497POPC   C2B57452  40.651   1.416   6.753
 9497POPC   C3B57453  40.643   1.450   7.053
 9497POPC   C4B57454  40.661   1.395   7.353
 9498POPC   NC357455  28.410  43.095   5.553
 9498POPC   PO457456  28.389  43.078   5.853
 9498POPC   GL157457  28.336  43.063   6.153
 9498POPC   GL257458  28.422  43.264   6.153
 9498POPC   C1A57459  28.334  43.160   6.453
 9498POPC   D2A57460  28.350  43.121   6.753
 9498POPC   C3A57461  28.377  43.063   7.053
 9498POPC   C4A57462  28.346  43.115   7.353
 9498POPC   C1B57463  28.504  43.345   6.453
 9498POPC   C2B57464  28.479  43.303   6.753
 9498POPC   C3B57465  28.433  43.386   7.053
 9498POPC   C4B57466  28.504  43.304   7.353
 9499POPC   NC357467  41.583  44.684   5.553
 9499POPC   PO457468  41.586  44.685   5.853
 9499POPC   GL157469  41.582  44.675   6.153
 9499POPC   GL257470  41.674  44.612   6.153
 9499POPC   C1A57471  41.604  44.642   6.453
 9499POPC   D2A57472  41.581  44.686   6.753
 9499POPC   C3A57473  41.607  44.622   7.053
 9499POPC   C4A57474  41.531  44.670   7.353
 9499POPC   C1B57475  41.765  44.536   6.453
 9499POPC   C2B57476  41.806  44.598   6.753
 9499POPC   C3B57477  41.818  44.514   7.053
 9499POPC   C4B57478  41.799  44.542   7.353
 9500POPC   NC357479  14.430  12.819   5.553
 9500POPC   PO457480  14.437  12.807   5.853
 9500POPC   GL157481  14.362  12.897   6.153
 9500POPC   GL257482  14.420  12.731   6.153
 9500POPC   C1A57483  14.412  12.810   6.453
 9500POPC   D2A57484  14.397  12.814   6.753
 9500POPC   C3A57485  14.420  12.820   7.053
 9500POPC   C4A57486  14.394  12.858   7.353
 9500POPC   C1B57487  14.493  12.657   6.453
 9500POPC   C2B57488  14.514  12.678   6.753
 9500POPC   C3B57489  14.549  12.579   7.053
 9500POPC   C4B57490  14.522  12.644   7.353
 9501POPC   NC357491  38.444  13.597   5.553
 9501POPC   PO457492  38.446  13.588   5.853
 9501POPC   GL157493  38.456  13.675   6.153
 9501POPC   GL257494  38.391  13.778   6.153
 9501POPC   C1A57495  38.456  13.662   6.453
 9501POPC   D2A57496  38.460  13.608   6.753
 9501POPC   C3A57497  38.479  13.617   7.053
 9501POPC   C4A57498  38.426  13.593   7.353
 9501POPC   C1B57499  38.327  13.888   6.453
 9501POPC   C2B57500  38.400  13.817   6.753
 9501POPC   C3B57501  38.330  13.846   7.053
 9501POPC   C4B57502  38.386  13.833   7.353
 9502POPC   NC357503   0.424   9.007   5.553
 9502POPC   PO457504   0.480   8.997   5.853
 9502POPC   GL157505   0.404   8.997   6.153
 9502POPC   GL257506   0.351   8.825   6.153
 9502POPC   C1A57507   0.396   9.018   6.453
 9502POPC   D2A57508   0.390   9.006   6.753
 9502POPC   C3A57509   0.442   9.009   7.053
 9502POPC   C4A57510   0.476   8.942   7.353
 9502POPC   C1B57511   0.281   8.758   6.453
 9502POPC   C2B57512   0.328   8.760   6.753
 9502POPC   C3B57513   0.340   8.765   7.053
 9502POPC   C4B57514   0.339   8.775   7.353
 9503POPC   NC357515   1.951  29.122   5.553
 9503POPC   PO457516   1.957  29.111   5.853
 9503POPC   GL157517   1.997  29.110   6.153
 9503POPC   GL257518   2.060  29.031   6.153
 9503POPC   C1A57519   2.000  29.104   6.453
 9503POPC   D2A57520   1.946  29.193   6.753
 9503POPC   C3A57521   2.020  29.134   7.053
 9503POPC   C4A57522   2.004  29.193   7.353
 9503POPC   C1B57523   2.228  29.021   6.453
 9503POPC   C2B57524   2.164  29.033   6.753
 9503POPC   C3B57525   2.180  29.006   7.053
 9503POPC   C4B57526   2.213  28.975   7.353
 9504POPC   NC357527  36.106   5.096   5.553
 9504POPC   PO457528  36.143   5.098   5.853
 9504POPC   GL157529  36.129   5.142   6.153
 9504POPC   GL257530  36.233   5.118   6.153
 9504POPC   C1A57531  36.139   5.114   6.453
 9504POPC   D2A57532  36.174   5.101   6.753
 9504POPC   C3A57533  36.106   5.112   7.053
 9504POPC   C4A57534  36.144   5.138   7.353
 9504POPC   C1B57535  36.368   5.170   6.453
 9504POPC   C2B57536  36.356   5.198   6.753
 9504POPC   C3B57537  36.353   5.181   7.053
 9504POPC   C4B57538  36.330   5.121   7.353
 9505POPC   NC357539  18.291  26.089   5.553
 9505POPC   PO457540  18.297  26.022   5.853
 9505POPC   GL157541  18.244  26.000   6.153
 9505POPC   GL257542  18.115  26.012   6.153
 9505POPC   C1A57543  18.235  26.080   6.453
 9505POPC   D2A57544  18.329  26.081   6.753
 9505POPC   C3A57545  18.324  26.005   7.053
 9505POPC   C4A57546  18.257  25.994   7.353
 9505POPC   C1B57547  18.088  25.963   6.453
 9505POPC   C2B57548  18.023  26.002   6.753
 9505POPC   C3B57549  18.067  26.022   7.053
 9505POPC   C4B57550  18.051  26.019   7.353
 9506POPC   NC357551   9.713  41.572   5.553
 9506POPC   PO457552   9.732  41.532   5.853
 9506POPC   GL157553   9.735  41.541   6.153
 9506POPC   GL257554   9.674  41.507   6.153
 9506POPC   C1A57555   9.746  41.598   6.453
 9506POPC   D2A57556   9.758  41.540   6.753
 9506POPC   C3A57557   9.720  41.552   7.053
 9506POPC   C4A57558   9.732  41.605   7.353
 9506POPC   C1B57559   9.590  41.415   6.453
 9506POPC   C2B57560   9.514  41.423   6.753
 9506POPC   C3B57561   9.521  41.456   7.053
 9506POPC   C4B57562   9.542  41.380   7.353
 9507POPC   NC357563  41.568   7.400   5.553
 9507POPC   PO457564  41.523   7.450   5.853
 9507POPC   GL157565  41.601   7.390   6.153
 9507POPC   GL257566  41.629   7.570   6.153
 9507POPC   C1A57567  41.574   7.468   6.453
 9507POPC   D2A57568  41.556   7.429   6.753
 9507POPC   C3A57569  41.582   7.415   7.053
 9507POPC   C4A57570  41.523   7.383   7.353
 9507POPC   C1B57571  41.647   7.618   6.453
 9507POPC   C2B57572  41.633   7.637   6.753
 9507POPC   C3B57573  41.590   7.679   7.053
 9507POPC   C4B57574  41.665   7.636   7.353
 9508POPC   NC357575   3.496   2.752   5.553
 9508POPC   PO457576   3.516   2.753   5.853
 9508POPC   GL157577   3.505   2.721   6.153
 9508POPC   GL257578   3.620   2.761   6.153
 9508POPC   C1A57579   3.514   2.783   6.453
 9508POPC   D2A57580   3.589   2.800   6.753
 9508POPC   C3A57581   3.505   2.813   7.053
 9508POPC   C4A57582   3.586   2.774   7.353
 9508POPC   C1B57583   3.812   2.789   6.453
 9508POPC   C2B57584   3.760   2.803   6.753
 9508POPC   C3B57585   3.813   2.787   7.053
 9508POPC   C4B57586   3.797   2.765   7.353
 9509POPC   NC357587  43.913  28.378   5.553
 9509POPC   PO457588  43.859  28.321   5.853
 9509POPC   GL157589  43.901  28.361   6.153
 9509POPC   GL257590  43.941  28.244   6.153
 9509POPC   C1A57591  43.844  28.401   6.453
 9509POPC   D2A57592  43.847  28.348   6.753
 9509POPC   C3A57593  43.844  28.413   7.053
 9509POPC   C4A57594  43.837  28.333   7.353
 9509POPC   C1B57595  43.992  28.174   6.453
 9509POPC   C2B57596  43.934  28.139   6.753
 9509POPC   C3B57597  43.992  28.133   7.053
 9509POPC   C4B57598  43.932  28.120   7.353
 9510POPC   NC357599  36.907  13.631   5.553
 9510POPC   PO457600  36.857  13.578   5.853
 9510POPC   GL157601  36.923  13.585   6.153
 9510POPC   GL257602  36.853  13.494   6.153
 9510POPC   C1A57603  36.913  13.647   6.453
 9510POPC   D2A57604  36.920  13.668   6.753
 9510POPC   C3A57605  36.898  13.656   7.053
 9510POPC   C4A57606  36.946  13.605   7.353
 9510POPC   C1B57607  36.764  13.449   6.453
 9510POPC   C2B57608  36.743  13.412   6.753
 9510POPC   C3B57609  36.687  13.473   7.053
 9510POPC   C4B57610  36.715  13.403   7.353
 9511POPC   NC357611   6.670  42.377   5.553
 9511POPC   PO457612   6.672  42.293   5.853
 9511POPC   GL157613   6.623  42.366   6.153
 9511POPC   GL257614   6.488  42.412   6.153
 9511POPC   C1A57615   6.690  42.326   6.453
 9511POPC   D2A57616   6.611  42.290   6.753
 9511POPC   C3A57617   6.629  42.291   7.053
 9511POPC   C4A57618   6.674  42.356   7.353
 9511POPC   C1B57619   6.424  42.408   6.453
 9511POPC   C2B57620   6.427  42.411   6.753
 9511POPC   C3B57621   6.458  42.472   7.053
 9511POPC   C4B57622   6.433  42.425   7.353
 9512POPC   NC357623  10.485  43.093   5.553
 9512POPC   PO457624  10.541  43.133   5.853
 9512POPC   GL157625  10.571  43.065   6.153
 9512POPC   GL257626  10.540  43.033   6.153
 9512POPC   C1A57627  10.563  43.118   6.453
 9512POPC   D2A57628  10.490  43.125   6.753
 9512POPC   C3A57629  10.535  43.094   7.053
 9512POPC   C4A57630  10.511  43.143   7.353
 9512POPC   C1B57631  10.546  42.893   6.453
 9512POPC   C2B57632  10.614  42.902   6.753
 9512POPC   C3B57633  10.565  42.835   7.053
 9512POPC   C4B57634  10.557  42.885   7.353
 9513POPC   NC357635  14.362  17.518   5.553
 9513POPC   PO457636  14.354  17.505   5.853
 9513POPC   GL157637  14.425  17.464   6.153
 9513POPC   GL257638  14.476  17.601   6.153
 9513POPC   C1A57639  14.421  17.495   6.453
 9513POPC   D2A57640  14.441  17.516   6.753
 9513POPC   C3A57641  14.420  17.504   7.053
 9513POPC   C4A57642  14.383  17.497   7.353
 9513POPC   C1B57643  14.528  17.700   6.453
 9513POPC   C2B57644  14.554  17.687   6.753
 9513POPC   C3B57645  14.544  17.765   7.053
 9513POPC   C4B57646  14.565  17.690   7.353
 9514POPC   NC357647  10.493  22.968   5.553
 9514POPC   PO457648  10.484  22.935   5.853
 9514POPC   GL157649  10.507  22.932   6.153
 9514POPC   GL257650  10.485  22.812   6.153
 9514POPC   C1A57651  10.561  22.915   6.453
 9514POPC   D2A57652  10.533  22.915   6.753
 9514POPC   C3A57653  10.540  22.938   7.053
 9514POPC   C4A57654  10.572  22.938   7.353
 9514POPC   C1B57655  10.379  22.747   6.453
 9514POPC   C2B57656  10.385  22.767   6.753
 9514POPC   C3B57657  10.383  22.698   7.053
 9514POPC   C4B57658  10.390  22.747   7.353
 9515POPC   NC357659  31.479  19.858   5.553
 9515POPC   PO457660  31.431  19.831   5.853
 9515POPC   GL157661  31.485  19.872   6.153
 9515POPC   GL257662  31.505  19.911   6.153
 9515POPC   C1A57663  31.431  19.869   6.453
 9515POPC   D2A57664  31.445  19.832   6.753
 9515POPC   C3A57665  31.451  19.795   7.053
 9515POPC   C4A57666  31.510  19.829   7.353
 9515POPC   C1B57667  31.500  20.124   6.453
 9515POPC   C2B57668  31.538  20.114   6.753
 9515POPC   C3B57669  31.545  20.091   7.053
 9515POPC   C4B57670  31.490  20.108   7.353
 9516POPC   NC357671  37.712  24.442   5.553
 9516POPC   PO457672  37.724  24.468   5.853
 9516POPC   GL157673  37.721  24.524   6.153
 9516POPC   GL257674  37.742  24.540   6.153
 9516POPC   C1A57675  37.678  24.524   6.453
 9516POPC   D2A57676  37.663  24.506   6.753
 9516POPC   C3A57677  37.652  24.472   7.053
 9516POPC   C4A57678  37.643  24.479   7.353
 9516POPC   C1B57679  37.936  24.615   6.453
 9516POPC   C2B57680  37.932  24.647   6.753
 9516POPC   C3B57681  37.921  24.607   7.053
 9516POPC   C4B57682  37.896  24.624   7.353
 9517POPC   NC357683   8.153   9.783   5.553
 9517POPC   PO457684   8.165   9.765   5.853
 9517POPC   GL157685   8.163   9.700   6.153
 9517POPC   GL257686   8.034   9.681   6.153
 9517POPC   C1A57687   8.193   9.785   6.453
 9517POPC   D2A57688   8.224   9.746   6.753
 9517POPC   C3A57689   8.221   9.730   7.053
 9517POPC   C4A57690   8.212   9.785   7.353
 9517POPC   C1B57691   7.944   9.711   6.453
 9517POPC   C2B57692   7.936   9.704   6.753
 9517POPC   C3B57693   8.000   9.696   7.053
 9517POPC   C4B57694   7.970   9.660   7.353
 9518POPC   NC357695  30.649  32.249   5.553
 9518POPC   PO457696  30.688  32.246   5.853
 9518POPC   GL157697  30.689  32.286   6.153
 9518POPC   GL257698  30.812  32.151   6.153
 9518POPC   C1A57699  30.649  32.207   6.453
 9518POPC   D2A57700  30.741  32.271   6.753
 9518POPC   C3A57701  30.653  32.252   7.053
 9518POPC   C4A57702  30.714  32.236   7.353
 9518POPC   C1B57703  30.896  32.060   6.453
 9518POPC   C2B57704  30.863  32.069   6.753
 9518POPC   C3B57705  30.923  32.093   7.053
 9518POPC   C4B57706  30.879  32.083   7.353
 9519POPC   NC357707  19.015  29.166   5.553
 9519POPC   PO457708  19.074  29.173   5.853
 9519POPC   GL157709  19.076  29.193   6.153
 9519POPC   GL257710  19.149  29.259   6.153
 9519POPC   C1A57711  19.078  29.121   6.453
 9519POPC   D2A57712  19.076  29.120   6.753
 9519POPC   C3A57713  19.102  29.140   7.053
 9519POPC   C4A57714  19.034  29.096   7.353
 9519POPC   C1B57715  19.283  29.263   6.453
 9519POPC   C2B57716  19.243  29.351   6.753
 9519POPC   C3B57717  19.209  29.257   7.053
 9519POPC   C4B57718  19.281  29.274   7.353
 9520POPC   NC357719  40.742  19.852   5.553
 9520POPC   PO457720  40.787  19.869   5.853
 9520POPC   GL157721  40.773  19.797   6.153
 9520POPC   GL257722  40.679  19.899   6.153
 9520POPC   C1A57723  40.819  19.847   6.453
 9520POPC   D2A57724  40.814  19.829   6.753
 9520POPC   C3A57725  40.770  19.846   7.053
 9520POPC   C4A57726  40.776  19.826   7.353
 9520POPC   C1B57727  40.665  20.082   6.453
 9520POPC   C2B57728  40.664  20.016   6.753
 9520POPC   C3B57729  40.619  20.052   7.053
 9520POPC   C4B57730  40.678  20.035   7.353
 9521POPC   NC357731  25.242  36.143   5.553
 9521POPC   PO457732  25.234  36.079   5.853
 9521POPC   GL157733  25.280  36.091   6.153
 9521POPC   GL257734  25.200  36.230   6.153
 9521POPC   C1A57735  25.242  36.079   6.453
 9521POPC   D2A57736  25.311  36.136   6.753
 9521POPC   C3A57737  25.266  36.169   7.053
 9521POPC   C4A57738  25.253  36.135   7.353
 9521POPC   C1B57739  25.059  36.293   6.453
 9521POPC   C2B57740  25.011  36.278   6.753
 9521POPC   C3B57741  25.064  36.243   7.053
 9521POPC   C4B57742  25.097  36.215   7.353
 9522POPC   NC357743   9.767   0.417   5.553
 9522POPC   PO457744   9.731   0.410   5.853
 9522POPC   GL157745   9.770   0.434   6.153
 9522POPC   GL257746   9.828   0.511   6.153
 9522POPC   C1A57747   9.756   0.427   6.453
 9522POPC   D2A57748   9.795   0.417   6.753
 9522POPC   C3A57749   9.721   0.406   7.053
 9522POPC   C4A57750   9.735   0.396   7.353
 9522POPC   C1B57751   9.950   0.582   6.453
 9522POPC   C2B57752   9.931   0.604   6.753
 9522POPC   C3B57753   9.908   0.638   7.053
 9522POPC   C4B57754   9.934   0.604   7.353
 9523POPC   NC357755  40.054  10.547   5.553
 9523POPC   PO457756  39.968  10.511   5.853
 9523POPC   GL157757  39.974  10.564   6.153
 9523POPC   GL257758  40.010  10.431   6.153
 9523POPC   C1A57759  39.978  10.507   6.453
 9523POPC   D2A57760  40.019  10.527   6.753
 9523POPC   C3A57761  40.009  10.540   7.053
 9523POPC   C4A57762  39.982  10.568   7.353
 9523POPC   C1B57763  40.068  10.320   6.453
 9523POPC   C2B57764  40.058  10.307   6.753
 9523POPC   C3B57765  40.094  10.303   7.053
 9523POPC   C4B57766  40.078  10.295   7.353
 9524POPC   NC357767   5.848  28.327   5.553
 9524POPC   PO457768   5.835  28.418   5.853
 9524POPC   GL157769   5.899  28.409   6.153
 9524POPC   GL257770   5.718  28.414   6.153
 9524POPC   C1A57771   5.898  28.408   6.453
 9524POPC   D2A57772   5.871  28.379   6.753
 9524POPC   C3A57773   5.820  28.387   7.053
 9524POPC   C4A57774   5.892  28.372   7.353
 9524POPC   C1B57775   5.604  28.354   6.453
 9524POPC   C2B57776   5.642  28.390   6.753
 9524POPC   C3B57777   5.626  28.398   7.053
 9524POPC   C4B57778   5.604  28.355   7.353
 9525POPC   NC357779  39.224  42.316   5.553
 9525POPC   PO457780  39.189  42.371   5.853
 9525POPC   GL157781  39.251  42.353   6.153
 9525POPC   GL257782  39.328  42.259   6.153
 9525POPC   C1A57783  39.234  42.326   6.453
 9525POPC   D2A57784  39.197  42.286   6.753
 9525POPC   C3A57785  39.244  42.360   7.053
 9525POPC   C4A57786  39.280  42.348   7.353
 9525POPC   C1B57787  39.420  42.186   6.453
 9525POPC   C2B57788  39.408  42.156   6.753
 9525POPC   C3B57789  39.417  42.185   7.053
 9525POPC   C4B57790  39.359  42.127   7.353
 9526POPC   NC357791  28.373  32.252   5.553
 9526POPC   PO457792  28.356  32.207   5.853
 9526POPC   GL157793  28.407  32.291   6.153
 9526POPC   GL257794  28.383  32.322   6.153
 9526POPC   C1A57795  28.403  32.229   6.453
 9526POPC   D2A57796  28.414  32.267   6.753
 9526POPC   C3A57797  28.348  32.220   7.053
 9526POPC   C4A57798  28.399  32.269   7.353
 9526POPC   C1B57799  28.446  32.537   6.453
 9526POPC   C2B57800  28.387  32.502   6.753
 9526POPC   C3B57801  28.439  32.544   7.053
 9526POPC   C4B57802  28.366  32.514   7.353
 9527POPC   NC357803   8.991  27.600   5.553
 9527POPC   PO457804   8.931  27.642   5.853
 9527POPC   GL157805   8.960  27.633   6.153
 9527POPC   GL257806   9.055  27.486   6.153
 9527POPC   C1A57807   8.932  27.560   6.453
 9527POPC   D2A57808   9.001  27.630   6.753
 9527POPC   C3A57809   8.924  27.578   7.053
 9527POPC   C4A57810   9.014  27.640   7.353
 9527POPC   C1B57811   9.127  27.383   6.453
 9527POPC   C2B57812   9.164  27.427   6.753
 9527POPC   C3B57813   9.122  27.420   7.053
 9527POPC   C4B57814   9.211  27.475   7.353
 9528POPC   NC357815   8.152   7.408   5.553
 9528POPC   PO457816   8.228   7.456   5.853
 9528POPC   GL157817   8.244   7.421   6.153
 9528POPC   GL257818   8.297   7.353   6.153
 9528POPC   C1A57819   8.201   7.371   6.453
 9528POPC   D2A57820   8.198   7.457   6.753
 9528POPC   C3A57821   8.173   7.406   7.053
 9528POPC   C4A57822   8.231   7.373   7.353
 9528POPC   C1B57823   8.319   7.187   6.453
 9528POPC   C2B57824   8.394   7.232   6.753
 9528POPC   C3B57825   8.394   7.268   7.053
 9528POPC   C4B57826   8.399   7.206   7.353
 9529POPC   NC357827  12.877  12.033   5.553
 9529POPC   PO457828  12.806  12.071   5.853
 9529POPC   GL157829  12.855  12.026   6.153
 9529POPC   GL257830  12.758  12.037   6.153
 9529POPC   C1A57831  12.875  12.113   6.453
 9529POPC   D2A57832  12.810  12.096   6.753
 9529POPC   C3A57833  12.840  12.089   7.053
 9529POPC   C4A57834  12.861  12.089   7.353
 9529POPC   C1B57835  12.660  12.032   6.453
 9529POPC   C2B57836  12.652  11.945   6.753
 9529POPC   C3B57837  12.658  11.981   7.053
 9529POPC   C4B57838  12.646  11.985   7.353
 9530POPC   NC357839   6.670  32.294   5.553
 9530POPC   PO457840   6.630  32.253   5.853
 9530POPC   GL157841   6.617  32.220   6.153
 9530POPC   GL257842   6.589  32.390   6.153
 9530POPC   C1A57843   6.677  32.277   6.453
 9530POPC   D2A57844   6.675  32.212   6.753
 9530POPC   C3A57845   6.655  32.286   7.053
 9530POPC   C4A57846   6.679  32.204   7.353
 9530POPC   C1B57847   6.549  32.464   6.453
 9530POPC   C2B57848   6.537  32.454   6.753
 9530POPC   C3B57849   6.577  32.468   7.053
 9530POPC   C4B57850   6.617  32.443   7.353
 9531POPC   NC357851   3.562  20.562   5.553
 9531POPC   PO457852   3.527  20.574   5.853
 9531POPC   GL157853   3.585  20.643   6.153
 9531POPC   GL257854   3.656  20.601   6.153
 9531POPC   C1A57855   3.557  20.651   6.453
 9531POPC   D2A57856   3.535  20.582   6.753
 9531POPC   C3A57857   3.521  20.565   7.053
 9531POPC   C4A57858   3.512  20.654   7.353
 9531POPC   C1B57859   3.778  20.624   6.453
 9531POPC   C2B57860   3.744  20.604   6.753
 9531POPC   C3B57861   3.757  20.579   7.053
 9531POPC   C4B57862   3.801  20.602   7.353
 9532POPC   NC357863   4.267  42.324   5.553
 9532POPC   PO457864   4.345  42.314   5.853
 9532POPC   GL157865   4.308  42.294   6.153
 9532POPC   GL257866   4.264  42.269   6.153
 9532POPC   C1A57867   4.362  42.289   6.453
 9532POPC   D2A57868   4.269  42.331   6.753
 9532POPC   C3A57869   4.356  42.319   7.053
 9532POPC   C4A57870   4.300  42.307   7.353
 9532POPC   C1B57871   4.218  42.131   6.453
 9532POPC   C2B57872   4.214  42.149   6.753
 9532POPC   C3B57873   4.246  42.117   7.053
 9532POPC   C4B57874   4.166  42.152   7.353
 9533POPC   NC357875   5.912  35.338   5.553
 9533POPC   PO457876   5.825  35.397   5.853
 9533POPC   GL157877   5.887  35.396   6.153
 9533POPC   GL257878   5.861  35.194   6.153
 9533POPC   C1A57879   5.917  35.386   6.453
 9533POPC   D2A57880   5.829  35.377   6.753
 9533POPC   C3A57881   5.872  35.348   7.053
 9533POPC   C4A57882   5.849  35.343   7.353
 9533POPC   C1B57883   5.920  35.093   6.453
 9533POPC   C2B57884   5.940  35.120   6.753
 9533POPC   C3B57885   5.903  35.146   7.053
 9533POPC   C4B57886   5.876  35.057   7.353
 9534POPC   NC357887   7.423  34.603   5.553
 9534POPC   PO457888   7.403  34.580   5.853
 9534POPC   GL157889   7.428  34.584   6.153
 9534POPC   GL257890   7.492  34.422   6.153
 9534POPC   C1A57891   7.404  34.584   6.453
 9534POPC   D2A57892   7.425  34.535   6.753
 9534POPC   C3A57893   7.389  34.588   7.053
 9534POPC   C4A57894   7.407  34.621   7.353
 9534POPC   C1B57895   7.510  34.352   6.453
 9534POPC   C2B57896   7.461  34.378   6.753
 9534POPC   C3B57897   7.516  34.337   7.053
 9534POPC   C4B57898   7.555  34.308   7.353
 9535POPC   NC357899  43.933  23.667   5.553
 9535POPC   PO457900  43.859  23.714   5.853
 9535POPC   GL157901  43.900  23.669   6.153
 9535POPC   GL257902  43.771  23.628   6.153
 9535POPC   C1A57903  43.927  23.729   6.453
 9535POPC   D2A57904  43.866  23.720   6.753
 9535POPC   C3A57905  43.898  23.675   7.053
 9535POPC   C4A57906  43.882  23.695   7.353
 9535POPC   C1B57907  43.630  23.642   6.453
 9535POPC   C2B57908  43.692  23.630   6.753
 9535POPC   C3B57909  43.616  23.600   7.053
 9535POPC   C4B57910  43.672  23.627   7.353
 9536POPC   NC357911  30.709  21.378   5.553
 9536POPC   PO457912  30.699  21.427   5.853
 9536POPC   GL157913  30.667  21.415   6.153
 9536POPC   GL257914  30.600  21.402   6.153
 9536POPC   C1A57915  30.712  21.348   6.453
 9536POPC   D2A57916  30.691  21.426   6.753
 9536POPC   C3A57917  30.688  21.343   7.053
 9536POPC   C4A57918  30.724  21.420   7.353
 9536POPC   C1B57919  30.484  21.434   6.453
 9536POPC   C2B57920  30.441  21.431   6.753
 9536POPC   C3B57921  30.405  21.424   7.053
 9536POPC   C4B57922  30.427  21.393   7.353
 9537POPC   NC357923  18.277  42.360   5.553
 9537POPC   PO457924  18.277  42.376   5.853
 9537POPC   GL157925  18.324  42.296   6.153
 9537POPC   GL257926  18.237  42.246   6.153
 9537POPC   C1A57927  18.292  42.332   6.453
 9537POPC   D2A57928  18.295  42.313   6.753
 9537POPC   C3A57929  18.237  42.326   7.053
 9537POPC   C4A57930  18.236  42.306   7.353
 9537POPC   C1B57931  18.105  42.174   6.453
 9537POPC   C2B57932  18.162  42.139   6.753
 9537POPC   C3B57933  18.189  42.109   7.053
 9537POPC   C4B57934  18.194  42.145   7.353
 9538POPC   NC357935  21.405   1.979   5.553
 9538POPC   PO457936  21.345   2.010   5.853
 9538POPC   GL157937  21.379   2.023   6.153
 9538POPC   GL257938  21.391   1.897   6.153
 9538POPC   C1A57939  21.348   2.026   6.453
 9538POPC   D2A57940  21.374   1.967   6.753
 9538POPC   C3A57941  21.403   2.020   7.053
 9538POPC   C4A57942  21.407   1.950   7.353
 9538POPC   C1B57943  21.495   1.752   6.453
 9538POPC   C2B57944  21.415   1.746   6.753
 9538POPC   C3B57945  21.411   1.731   7.053
 9538POPC   C4B57946  21.410   1.704   7.353
 9539POPC   NC357947   8.970  22.921   5.553
 9539POPC   PO457948   8.953  22.956   5.853
 9539POPC   GL157949   8.932  22.908   6.153
 9539POPC   GL257950   8.991  23.026   6.153
 9539POPC   C1A57951   9.014  22.942   6.453
 9539POPC   D2A57952   8.938  22.940   6.753
 9539POPC   C3A57953   9.003  22.973   7.053
 9539POPC   C4A57954   8.975  22.928   7.353
 9539POPC   C1B57955   8.955  23.163   6.453
 9539POPC   C2B57956   8.945  23.188   6.753
 9539POPC   C3B57957   9.006  23.192   7.053
 9539POPC   C4B57958   8.949  23.163   7.353
 9540POPC   NC357959  10.542   7.378   5.553
 9540POPC   PO457960  10.499   7.380   5.853
 9540POPC   GL157961  10.480   7.424   6.153
 9540POPC   GL257962  10.571   7.531   6.153
 9540POPC   C1A57963  10.573   7.416   6.453
 9540POPC   D2A57964  10.542   7.449   6.753
 9540POPC   C3A57965  10.489   7.418   7.053
 9540POPC   C4A57966  10.510   7.419   7.353
 9540POPC   C1B57967  10.628   7.634   6.453
 9540POPC   C2B57968  10.692   7.578   6.753
 9540POPC   C3B57969  10.641   7.590   7.053
 9540POPC   C4B57970  10.684   7.587   7.353
 9541POPC   NC357971  40.740   2.767   5.553
 9541POPC   PO457972  40.780   2.809   5.853
 9541POPC   GL157973  40.733   2.731   6.153
 9541POPC   GL257974  40.891   2.846   6.153
 9541POPC   C1A57975  40.786   2.770   6.453
 9541POPC   D2A57976  40.794   2.787   6.753
 9541POPC   C3A57977  40.826   2.795   7.053
 9541POPC   C4A57978  40.752   2.796   7.353
 9541POPC   C1B57979  40.892   3.000   6.453
 9541POPC   C2B57980  40.924   2.923   6.753
 9541POPC   C3B57981  40.972   2.960   7.053
 9541POPC   C4B57982  40.897   2.971   7.353
 9542POPC   NC357983  44.631  22.889   5.553
 9542POPC   PO457984  44.705  22.903   5.853
 9542POPC   GL157985  44.663  22.972   6.153
 9542POPC   GL257986  44.529  22.870   6.153
 9542POPC   C1A57987  44.662  22.983   6.453
 9542POPC   D2A57988  44.653  22.943   6.753
 9542POPC   C3A57989  44.709  22.936   7.053
 9542POPC   C4A57990  44.698  22.936   7.353
 9542POPC   C1B57991  44.384  22.884   6.453
 9542POPC   C2B57992  44.367  22.882   6.753
 9542POPC   C3B57993  44.448  22.895   7.053
 9542POPC   C4B57994  44.398  22.855   7.353
 9543POPC   NC357995   2.735  27.601   5.553
 9543POPC   PO457996   2.773  27.624   5.853
 9543POPC   GL157997   2.727  27.583   6.153
 9543POPC   GL257998   2.840  27.606   6.153
 9543POPC   C1A57999   2.763  27.625   6.453
 9543POPC   D2A58000   2.750  27.573   6.753
 9543POPC   C3A58001   2.729  27.601   7.053
 9543POPC   C4A58002   2.804  27.576   7.353
 9543POPC   C1B58003   3.040  27.559   6.453
 9543POPC   C2B58004   3.017  27.566   6.753
 9543POPC   C3B58005   3.032  27.544   7.053
 9543POPC   C4B58006   2.976  27.562   7.353
 9544POPC   NC358007  32.205  11.338   5.553
 9544POPC   PO458008  32.295  11.286   5.853
 9544POPC   GL158009  32.285  11.277   6.153
 9544POPC   GL258010  32.352  11.230   6.153
 9544POPC   C1A58011  32.282  11.308   6.453
 9544POPC   D2A58012  32.269  11.273   6.753
 9544POPC   C3A58013  32.287  11.312   7.053
 9544POPC   C4A58014  32.243  11.259   7.353
 9544POPC   C1B58015  32.474  11.195   6.453
 9544POPC   C2B58016  32.440  11.129   6.753
 9544POPC   C3B58017  32.451  11.113   7.053
 9544POPC   C4B58018  32.439  11.161   7.353
 9545POPC   NC358019  43.844   1.222   5.553
 9545POPC   PO458020  43.892   1.206   5.853
 9545POPC   GL158021  43.936   1.188   6.153
 9545POPC   GL258022  43.876   1.376   6.153
 9545POPC   C1A58023  43.917   1.218   6.453
 9545POPC   D2A58024  43.850   1.263   6.753
 9545POPC   C3A58025  43.858   1.233   7.053
 9545POPC   C4A58026  43.897   1.182   7.353
 9545POPC   C1B58027  43.865   1.435   6.453
 9545POPC   C2B58028  43.856   1.421   6.753
 9545POPC   C3B58029  43.896   1.421   7.053
 9545POPC   C4B58030  43.892   1.424   7.353
 9546POPC   NC358031  19.811  27.638   5.553
 9546POPC   PO458032  19.798  27.550   5.853
 9546POPC   GL158033  19.839  27.608   6.153
 9546POPC   GL258034  19.849  27.762   6.153
 9546POPC   C1A58035  19.846  27.604   6.453
 9546POPC   D2A58036  19.829  27.623   6.753
 9546POPC   C3A58037  19.805  27.606   7.053
 9546POPC   C4A58038  19.860  27.550   7.353
 9546POPC   C1B58039  19.947  27.831   6.453
 9546POPC   C2B58040  19.956  27.799   6.753
 9546POPC   C3B58041  19.900  27.839   7.053
 9546POPC   C4B58042  19.929  27.810   7.353
 9547POPC   NC358043  31.483  37.693   5.553
 9547POPC   PO458044  31.517  37.637   5.853
 9547POPC   GL158045  31.445  37.652   6.153
 9547POPC   GL258046  31.373  37.584   6.153
 9547POPC   C1A58047  31.464  37.720   6.453
 9547POPC   D2A58048  31.512  37.722   6.753
 9547POPC   C3A58049  31.513  37.698   7.053
 9547POPC   C4A58050  31.444  37.632   7.353
 9547POPC   C1B58051  31.257  37.587   6.453
 9547POPC   C2B58052  31.310  37.532   6.753
 9547POPC   C3B58053  31.270  37.571   7.053
 9547POPC   C4B58054  31.293  37.574   7.353
 9548POPC   NC358055  25.220  39.277   5.553
 9548POPC   PO458056  25.310  39.234   5.853
 9548POPC   GL158057  25.224  39.212   6.153
 9548POPC   GL258058  25.195  39.346   6.153
 9548POPC   C1A58059  25.296  39.202   6.453
 9548POPC   D2A58060  25.231  39.186   6.753
 9548POPC   C3A58061  25.314  39.192   7.053
 9548POPC   C4A58062  25.309  39.263   7.353
 9548POPC   C1B58063  25.195  39.441   6.453
 9548POPC   C2B58064  25.194  39.452   6.753
 9548POPC   C3B58065  25.123  39.505   7.053
 9548POPC   C4B58066  25.206  39.456   7.353
 9549POPC   NC358067  33.030   2.811   5.553
 9549POPC   PO458068  33.045   2.782   5.853
 9549POPC   GL158069  33.019   2.752   6.153
 9549POPC   GL258070  32.987   2.610   6.153
 9549POPC   C1A58071  33.025   2.792   6.453
 9549POPC   D2A58072  33.044   2.768   6.753
 9549POPC   C3A58073  32.984   2.810   7.053
 9549POPC   C4A58074  33.060   2.771   7.353
 9549POPC   C1B58075  32.939   2.534   6.453
 9549POPC   C2B58076  32.924   2.520   6.753
 9549POPC   C3B58077  33.001   2.541   7.053
 9549POPC   C4B58078  32.988   2.519   7.353
 9550POPC   NC358079   1.259  30.656   5.553
 9550POPC   PO458080   1.236  30.666   5.853
 9550POPC   GL158081   1.241  30.672   6.153
 9550POPC   GL258082   1.049  30.614   6.153
 9550POPC   C1A58083   1.217  30.679   6.453
 9550POPC   D2A58084   1.175  30.718   6.753
 9550POPC   C3A58085   1.259  30.702   7.053
 9550POPC   C4A58086   1.164  30.720   7.353
 9550POPC   C1B58087   0.963  30.600   6.453
 9550POPC   C2B58088   0.949  30.598   6.753
 9550POPC   C3B58089   0.984  30.624   7.053
 9550POPC   C4B58090   0.953  30.598   7.353
 9551POPC   NC358091  32.978  11.346   5.553
 9551POPC   PO458092  33.030  11.295   5.853
 9551POPC   GL158093  32.995  11.292   6.153
 9551POPC   GL258094  33.035  11.148   6.153
 9551POPC   C1A58095  33.023  11.264   6.453
 9551POPC   D2A58096  33.056  11.332   6.753
 9551POPC   C3A58097  33.032  11.332   7.053
 9551POPC   C4A58098  33.071  11.335   7.353
 9551POPC   C1B58099  33.099  11.035   6.453
 9551POPC   C2B58100  33.177  11.072   6.753
 9551POPC   C3B58101  33.117  11.128   7.053
 9551POPC   C4B58102  33.172  11.050   7.353
 9552POPC   NC358103  15.921   9.715   5.553
 9552POPC   PO458104  15.972   9.794   5.853
 9552POPC   GL158105  15.977   9.750   6.153
 9552POPC   GL258106  16.033   9.709   6.153
 9552POPC   C1A58107  15.973   9.740   6.453
 9552POPC   D2A58108  15.910   9.738   6.753
 9552POPC   C3A58109  15.906   9.730   7.053
 9552POPC   C4A58110  15.969   9.747   7.353
 9552POPC   C1B58111  16.176   9.698   6.453
 9552POPC   C2B58112  16.145   9.728   6.753
 9552POPC   C3B58113  16.238   9.708   7.053
 9552POPC   C4B58114  16.213   9.680   7.353
 9553POPC   NC358115  41.607  15.153   5.553
 9553POPC   PO458116  41.532  15.158   5.853
 9553POPC   GL158117  41.562  15.193   6.153
 9553POPC   GL258118  41.643  15.097   6.153
 9553POPC   C1A58119  41.556  15.218   6.453
 9553POPC   D2A58120  41.547  15.205   6.753
 9553POPC   C3A58121  41.607  15.179   7.053
 9553POPC   C4A58122  41.551  15.213   7.353
 9553POPC   C1B58123  41.624  14.960   6.453
 9553POPC   C2B58124  41.613  14.936   6.753
 9553POPC   C3B58125  41.681  14.990   7.053
 9553POPC   C4B58126  41.604  14.957   7.353
 9554POPC   NC358127  21.358   1.180   5.553
 9554POPC   PO458128  21.364   1.167   5.853
 9554POPC   GL158129  21.370   1.217   6.153
 9554POPC   GL258130  21.481   1.330   6.153
 9554POPC   C1A58131  21.373   1.191   6.453
 9554POPC   D2A58132  21.433   1.220   6.753
 9554POPC   C3A58133  21.366   1.263   7.053
 9554POPC   C4A58134  21.372   1.191   7.353
 9554POPC   C1B58135  21.572   1.342   6.453
 9554POPC   C2B58136  21.595   1.387   6.753
 9554POPC   C3B58137  21.567   1.401   7.053
 9554POPC   C4B58138  21.637   1.387   7.353
 9555POPC   NC358139  11.335  35.328   5.553
 9555POPC   PO458140  11.313  35.368   5.853
 9555POPC   GL158141  11.319  35.316   6.153
 9555POPC   GL258142  11.191  35.359   6.153
 9555POPC   C1A58143  11.282  35.371   6.453
 9555POPC   D2A58144  11.296  35.389   6.753
 9555POPC   C3A58145  11.340  35.383   7.053
 9555POPC   C4A58146  11.270  35.329   7.353
 9555POPC   C1B58147  11.019  35.319   6.453
 9555POPC   C2B58148  11.068  35.369   6.753
 9555POPC   C3B58149  11.069  35.369   7.053
 9555POPC   C4B58150  11.099  35.388   7.353
 9556POPC   NC358151   0.460   2.729   5.553
 9556POPC   PO458152   0.414   2.770   5.853
 9556POPC   GL158153   0.459   2.772   6.153
 9556POPC   GL258154   0.531   2.756   6.153
 9556POPC   C1A58155   0.482   2.769   6.453
 9556POPC   D2A58156   0.409   2.775   6.753
 9556POPC   C3A58157   0.432   2.721   7.053
 9556POPC   C4A58158   0.388   2.742   7.353
 9556POPC   C1B58159   0.644   2.688   6.453
 9556POPC   C2B58160   0.639   2.738   6.753
 9556POPC   C3B58161   0.651   2.734   7.053
 9556POPC   C4B58162   0.659   2.747   7.353
 9557POPC   NC358163   5.063  37.680   5.553
 9557POPC   PO458164   5.110  37.715   5.853
 9557POPC   GL158165   5.060  37.670   6.153
 9557POPC   GL258166   5.190  37.777   6.153
 9557POPC   C1A58167   5.082  37.694   6.453
 9557POPC   D2A58168   5.139  37.700   6.753
 9557POPC   C3A58169   5.087  37.724   7.053
 9557POPC   C4A58170   5.105  37.726   7.353
 9557POPC   C1B58171   5.270  37.864   6.453
 9557POPC   C2B58172   5.256  37.853   6.753
 9557POPC   C3B58173   5.305  37.859   7.053
 9557POPC   C4B58174   5.324  37.851   7.353
 9558POPC   NC358175   9.777  36.906   5.553
 9558POPC   PO458176   9.764  36.921   5.853
 9558POPC   GL158177   9.761  36.867   6.153
 9558POPC   GL258178   9.851  37.032   6.153
 9558POPC   C1A58179   9.782  36.861   6.453
 9558POPC   D2A58180   9.788  36.882   6.753
 9558POPC   C3A58181   9.787  36.862   7.053
 9558POPC   C4A58182   9.774  36.869   7.353
 9558POPC   C1B58183   9.876  37.054   6.453
 9558POPC   C2B58184   9.945  37.081   6.753
 9558POPC   C3B58185   9.877  37.062   7.053
 9558POPC   C4B58186   9.912  37.101   7.353
 9559POPC   NC358187  43.883  37.724   5.553
 9559POPC   PO458188  43.934  37.652   5.853
 9559POPC   GL158189  43.879  37.700   6.153
 9559POPC   GL258190  44.003  37.637   6.153
 9559POPC   C1A58191  43.845  37.668   6.453
 9559POPC   D2A58192  43.875  37.724   6.753
 9559POPC   C3A58193  43.887  37.632   7.053
 9559POPC   C4A58194  43.841  37.722   7.353
 9559POPC   C1B58195  44.065  37.494   6.453
 9559POPC   C2B58196  44.073  37.501   6.753
 9559POPC   C3B58197  44.059  37.539   7.053
 9559POPC   C4B58198  44.082  37.504   7.353
 9560POPC   NC358199  18.257  19.883   5.553
 9560POPC   PO458200  18.243  19.856   5.853
 9560POPC   GL158201  18.233  19.787   6.153
 9560POPC   GL258202  18.168  19.768   6.153
 9560POPC   C1A58203  18.240  19.814   6.453
 9560POPC   D2A58204  18.289  19.802   6.753
 9560POPC   C3A58205  18.266  19.803   7.053
 9560POPC   C4A58206  18.238  19.787   7.353
 9560POPC   C1B58207  18.039  19.759   6.453
 9560POPC   C2B58208  18.016  19.698   6.753
 9560POPC   C3B58209  18.012  19.706   7.053
 9560POPC   C4B58210  18.104  19.766   7.353
 9561POPC   NC358211   9.745  23.756   5.553
 9561POPC   PO458212   9.752  23.735   5.853
 9561POPC   GL158213   9.742  23.674   6.153
 9561POPC   GL258214   9.696  23.599   6.153
 9561POPC   C1A58215   9.757  23.712   6.453
 9561POPC   D2A58216   9.781  23.676   6.753
 9561POPC   C3A58217   9.763  23.760   7.053
 9561POPC   C4A58218   9.782  23.695   7.353
 9561POPC   C1B58219   9.662  23.490   6.453
 9561POPC   C2B58220   9.619  23.502   6.753
 9561POPC   C3B58221   9.642  23.454   7.053
 9561POPC   C4B58222   9.605  23.481   7.353
 9562POPC   NC358223   5.079   1.229   5.553
 9562POPC   PO458224   5.119   1.215   5.853
 9562POPC   GL158225   5.134   1.188   6.153
 9562POPC   GL258226   5.008   1.305   6.153
 9562POPC   C1A58227   5.063   1.244   6.453
 9562POPC   D2A58228   5.064   1.187   6.753
 9562POPC   C3A58229   5.064   1.258   7.053
 9562POPC   C4A58230   5.059   1.223   7.353
 9562POPC   C1B58231   5.019   1.487   6.453
 9562POPC   C2B58232   4.990   1.414   6.753
 9562POPC   C3B58233   4.938   1.417   7.053
 9562POPC   C4B58234   4.997   1.400   7.353
 9563POPC   NC358235  29.928  34.549   5.553
 9563POPC   PO458236  29.942  34.533   5.853
 9563POPC   GL158237  29.970  34.621   6.153
 9563POPC   GL258238  29.815  34.649   6.153
 9563POPC   C1A58239  29.956  34.564   6.453
 9563POPC   D2A58240  29.900  34.566   6.753
 9563POPC   C3A58241  29.970  34.537   7.053
 9563POPC   C4A58242  29.928  34.611   7.353
 9563POPC   C1B58243  29.786  34.741   6.453
 9563POPC   C2B58244  29.730  34.718   6.753
 9563POPC   C3B58245  29.737  34.762   7.053
 9563POPC   C4B58246  29.766  34.738   7.353
 9564POPC   NC358247   5.900  24.494   5.553
 9564POPC   PO458248   5.869  24.442   5.853
 9564POPC   GL158249   5.867  24.507   6.153
 9564POPC   GL258250   5.850  24.625   6.153
 9564POPC   C1A58251   5.828  24.468   6.453
 9564POPC   D2A58252   5.826  24.460   6.753
 9564POPC   C3A58253   5.887  24.486   7.053
 9564POPC   C4A58254   5.865  24.449   7.353
 9564POPC   C1B58255   5.767  24.725   6.453
 9564POPC   C2B58256   5.760  24.744   6.753
 9564POPC   C3B58257   5.785  24.743   7.053
 9564POPC   C4B58258   5.800  24.664   7.353
 9565POPC   NC358259  32.218  26.818   5.553
 9565POPC   PO458260  32.203  26.848   5.853
 9565POPC   GL158261  32.289  26.867   6.153
 9565POPC   GL258262  32.316  26.707   6.153
 9565POPC   C1A58263  32.253  26.834   6.453
 9565POPC   D2A58264  32.254  26.856   6.753
 9565POPC   C3A58265  32.200  26.863   7.053
 9565POPC   C4A58266  32.267  26.803   7.353
 9565POPC   C1B58267  32.304  26.565   6.453
 9565POPC   C2B58268  32.300  26.609   6.753
 9565POPC   C3B58269  32.342  26.581   7.053
 9565POPC   C4B58270  32.328  26.604   7.353
 9566POPC   NC358271  29.954  39.998   5.553
 9566POPC   PO458272  29.912  39.959   5.853
 9566POPC   GL158273  29.884  39.976   6.153
 9566POPC   GL258274  29.825  40.155   6.153
 9566POPC   C1A58275  29.909  39.968   6.453
 9566POPC   D2A58276  29.956  39.964   6.753
 9566POPC   C3A58277  29.887  39.999   7.053
 9566POPC   C4A58278  29.971  39.987   7.353
 9566POPC   C1B58279  29.792  40.237   6.453
 9566POPC   C2B58280  29.810  40.195   6.753
 9566POPC   C3B58281  29.854  40.225   7.053
 9566POPC   C4B58282  29.859  40.246   7.353
 9567POPC   NC358283  32.272   3.511   5.553
 9567POPC   PO458284  32.248   3.525   5.853
 9567POPC   GL158285  32.246   3.529   6.153
 9567POPC   GL258286  32.254   3.634   6.153
 9567POPC   C1A58287  32.276   3.551   6.453
 9567POPC   D2A58288  32.281   3.523   6.753
 9567POPC   C3A58289  32.277   3.575   7.053
 9567POPC   C4A58290  32.234   3.556   7.353
 9567POPC   C1B58291  32.195   3.817   6.453
 9567POPC   C2B58292  32.219   3.776   6.753
 9567POPC   C3B58293  32.231   3.785   7.053
 9567POPC   C4B58294  32.232   3.807   7.353
 9568POPC   NC358295  31.463  31.505   5.553
 9568POPC   PO458296  31.440  31.448   5.853
 9568POPC   GL158297  31.485  31.491   6.153
 9568POPC   GL258298  31.541  31.439   6.153
 9568POPC   C1A58299  31.506  31.453   6.453
 9568POPC   D2A58300  31.521  31.506   6.753
 9568POPC   C3A58301  31.497  31.432   7.053
 9568POPC   C4A58302  31.492  31.457   7.353
 9568POPC   C1B58303  31.725  31.365   6.453
 9568POPC   C2B58304  31.730  31.304   6.753
 9568POPC   C3B58305  31.699  31.305   7.053
 9568POPC   C4B58306  31.652  31.363   7.353
 9569POPC   NC358307  34.531  20.624   5.553
 9569POPC   PO458308  34.584  20.607   5.853
 9569POPC   GL158309  34.617  20.592   6.153
 9569POPC   GL258310  34.649  20.535   6.153
 9569POPC   C1A58311  34.546  20.596   6.453
 9569POPC   D2A58312  34.556  20.654   6.753
 9569POPC   C3A58313  34.596  20.563   7.053
 9569POPC   C4A58314  34.622  20.646   7.353
 9569POPC   C1B58315  34.714  20.434   6.453
 9569POPC   C2B58316  34.707  20.429   6.753
 9569POPC   C3B58317  34.650  20.388   7.053
 9569POPC   C4B58318  34.720  20.350   7.353
 9570POPC   NC358319   7.389  11.308   5.553
 9570POPC   PO458320   7.462  11.318   5.853
 9570POPC   GL158321   7.434  11.331   6.153
 9570POPC   GL258322   7.469  11.470   6.153
 9570POPC   C1A58323   7.439  11.312   6.453
 9570POPC   D2A58324   7.469  11.320   6.753
 9570POPC   C3A58325   7.378  11.300   7.053
 9570POPC   C4A58326   7.389  11.288   7.353
 9570POPC   C1B58327   7.434  11.588   6.453
 9570POPC   C2B58328   7.435  11.575   6.753
 9570POPC   C3B58329   7.412  11.528   7.053
 9570POPC   C4B58330   7.490  11.519   7.353
 9571POPC   NC358331   9.730   3.563   5.553
 9571POPC   PO458332   9.775   3.584   5.853
 9571POPC   GL158333   9.790   3.526   6.153
 9571POPC   GL258334   9.673   3.501   6.153
 9571POPC   C1A58335   9.727   3.498   6.453
 9571POPC   D2A58336   9.773   3.494   6.753
 9571POPC   C3A58337   9.719   3.507   7.053
 9571POPC   C4A58338   9.726   3.501   7.353
 9571POPC   C1B58339   9.519   3.512   6.453
 9571POPC   C2B58340   9.499   3.481   6.753
 9571POPC   C3B58341   9.512   3.531   7.053
 9571POPC   C4B58342   9.476   3.539   7.353
 9572POPC   NC358343  10.497  18.258   5.553
 9572POPC   PO458344  10.539  18.249   5.853
 9572POPC   GL158345  10.496  18.304   6.153
 9572POPC   GL258346  10.678  18.379   6.153
 9572POPC   C1A58347  10.506  18.249   6.453
 9572POPC   D2A58348  10.573  18.304   6.753
 9572POPC   C3A58349  10.553  18.312   7.053
 9572POPC   C4A58350  10.482  18.251   7.353
 9572POPC   C1B58351  10.782  18.377   6.453
 9572POPC   C2B58352  10.760  18.437   6.753
 9572POPC   C3B58353  10.735  18.375   7.053
 9572POPC   C4B58354  10.753  18.416   7.353
 9573POPC   NC358355  17.486  31.457   5.553
 9573POPC   PO458356  17.483  31.459   5.853
 9573POPC   GL158357  17.531  31.509   6.153
 9573POPC   GL258358  17.431  31.550   6.153
 9573POPC   C1A58359  17.550  31.448   6.453
 9573POPC   D2A58360  17.523  31.517   6.753
 9573POPC   C3A58361  17.527  31.483   7.053
 9573POPC   C4A58362  17.466  31.521   7.353
 9573POPC   C1B58363  17.325  31.698   6.453
 9573POPC   C2B58364  17.343  31.676   6.753
 9573POPC   C3B58365  17.419  31.733   7.053
 9573POPC   C4B58366  17.346  31.655   7.353
 9574POPC   NC358367  21.388  13.596   5.553
 9574POPC   PO458368  21.421  13.634   5.853
 9574POPC   GL158369  21.395  13.628   6.153
 9574POPC   GL258370  21.510  13.509   6.153
 9574POPC   C1A58371  21.380  13.644   6.453
 9574POPC   D2A58372  21.403  13.649   6.753
 9574POPC   C3A58373  21.367  13.609   7.053
 9574POPC   C4A58374  21.435  13.618   7.353
 9574POPC   C1B58375  21.583  13.530   6.453
 9574POPC   C2B58376  21.628  13.451   6.753
 9574POPC   C3B58377  21.616  13.531   7.053
 9574POPC   C4B58378  21.558  13.464   7.353
 9575POPC   NC358379  38.422  42.342   5.553
 9575POPC   PO458380  38.486  42.382   5.853
 9575POPC   GL158381  38.480  42.323   6.153
 9575POPC   GL258382  38.327  42.322   6.153
 9575POPC   C1A58383  38.432  42.336   6.453
 9575POPC   D2A58384  38.497  42.295   6.753
 9575POPC   C3A58385  38.418  42.349   7.053
 9575POPC   C4A58386  38.479  42.337   7.353
 9575POPC   C1B58387  38.283  42.246   6.453
 9575POPC   C2B58388  38.251  42.206   6.753
 9575POPC   C3B58389  38.270  42.227   7.053
 9575POPC   C4B58390  38.220  42.167   7.353
 9576POPC   NC358391  42.309  43.157   5.553
 9576POPC   PO458392  42.314  43.082   5.853
 9576POPC   GL158393  42.320  43.152   6.153
 9576POPC   GL258394  42.226  43.135   6.153
 9576POPC   C1A58395  42.320  43.151   6.453
 9576POPC   D2A58396  42.377  43.158   6.753
 9576POPC   C3A58397  42.305  43.136   7.053
 9576POPC   C4A58398  42.342  43.149   7.353
 9576POPC   C1B58399  42.110  43.147   6.453
 9576POPC   C2B58400  42.098  43.130   6.753
 9576POPC   C3B58401  42.048  43.222   7.053
 9576POPC   C4B58402  42.101  43.186   7.353
 9577POPC   NC358403  22.956  43.066   5.553
 9577POPC   PO458404  22.893  43.115   5.853
 9577POPC   GL158405  22.967  43.074   6.153
 9577POPC   GL258406  22.970  42.975   6.153
 9577POPC   C1A58407  22.919  43.137   6.453
 9577POPC   D2A58408  22.956  43.089   6.753
 9577POPC   C3A58409  22.946  43.150   7.053
 9577POPC   C4A58410  22.964  43.119   7.353
 9577POPC   C1B58411  22.932  42.869   6.453
 9577POPC   C2B58412  22.930  42.879   6.753
 9577POPC   C3B58413  22.952  42.835   7.053
 9577POPC   C4B58414  22.905  42.822   7.353
 9578POPC   NC358415  33.005  40.797   5.553
 9578POPC   PO458416  33.033  40.832   5.853
 9578POPC   GL158417  33.061  40.767   6.153
 9578POPC   GL258418  33.154  40.807   6.153
 9578POPC   C1A58419  33.029  40.821   6.453
 9578POPC   D2A58420  33.050  40.813   6.753
 9578POPC   C3A58421  33.005  40.783   7.053
 9578POPC   C4A58422  32.985  40.825   7.353
 9578POPC   C1B58423  33.219  40.825   6.453
 9578POPC   C2B58424  33.291  40.886   6.753
 9578POPC   C3B58425  33.216  40.837   7.053
 9578POPC   C4B58426  33.216  40.893   7.353
 9579POPC   NC358427  12.891   8.958   5.553
 9579POPC   PO458428  12.884   8.947   5.853
 9579POPC   GL158429  12.896   8.989   6.153
 9579POPC   GL258430  13.017   8.984   6.153
 9579POPC   C1A58431  12.846   9.006   6.453
 9579POPC   D2A58432  12.827   8.950   6.753
 9579POPC   C3A58433  12.813   8.935   7.053
 9579POPC   C4A58434  12.863   9.007   7.353
 9579POPC   C1B58435  13.079   9.032   6.453
 9579POPC   C2B58436  13.055   9.113   6.753
 9579POPC   C3B58437  13.104   9.028   7.053
 9579POPC   C4B58438  13.064   9.105   7.353
 9580POPC   NC358439  26.840  15.909   5.553
 9580POPC   PO458440  26.798  15.932   5.853
 9580POPC   GL158441  26.832  15.962   6.153
 9580POPC   GL258442  26.919  16.041   6.153
 9580POPC   C1A58443  26.798  15.912   6.453
 9580POPC   D2A58444  26.807  15.919   6.753
 9580POPC   C3A58445  26.855  15.918   7.053
 9580POPC   C4A58446  26.778  15.993   7.353
 9580POPC   C1B58447  26.935  16.189   6.453
 9580POPC   C2B58448  26.983  16.148   6.753
 9580POPC   C3B58449  26.981  16.188   7.053
 9580POPC   C4B58450  26.914  16.152   7.353
 9581POPC   NC358451  10.524  31.489   5.553
 9581POPC   PO458452  10.540  31.427   5.853
 9581POPC   GL158453  10.519  31.435   6.153
 9581POPC   GL258454  10.524  31.307   6.153
 9581POPC   C1A58455  10.486  31.501   6.453
 9581POPC   D2A58456  10.535  31.505   6.753
 9581POPC   C3A58457  10.535  31.479   7.053
 9581POPC   C4A58458  10.520  31.518   7.353
 9581POPC   C1B58459  10.516  31.181   6.453
 9581POPC   C2B58460  10.485  31.221   6.753
 9581POPC   C3B58461  10.518  31.228   7.053
 9581POPC   C4B58462  10.518  31.174   7.353
 9582POPC   NC358463  21.393  10.571   5.553
 9582POPC   PO458464  21.341  10.517   5.853
 9582POPC   GL158465  21.426  10.560   6.153
 9582POPC   GL258466  21.526  10.544   6.153
 9582POPC   C1A58467  21.382  10.483   6.453
 9582POPC   D2A58468  21.429  10.515   6.753
 9582POPC   C3A58469  21.410  10.545   7.053
 9582POPC   C4A58470  21.416  10.522   7.353
 9582POPC   C1B58471  21.596  10.517   6.453
 9582POPC   C2B58472  21.610  10.576   6.753
 9582POPC   C3B58473  21.614  10.494   7.053
 9582POPC   C4B58474  21.609  10.516   7.353
 9583POPC   NC358475  38.446  18.251   5.553
 9583POPC   PO458476  38.469  18.243   5.853
 9583POPC   GL158477  38.417  18.253   6.153
 9583POPC   GL258478  38.410  18.144   6.153
 9583POPC   C1A58479  38.405  18.281   6.453
 9583POPC   D2A58480  38.485  18.237   6.753
 9583POPC   C3A58481  38.434  18.275   7.053
 9583POPC   C4A58482  38.472  18.256   7.353
 9583POPC   C1B58483  38.268  18.037   6.453
 9583POPC   C2B58484  38.344  18.049   6.753
 9583POPC   C3B58485  38.358  18.073   7.053
 9583POPC   C4B58486  38.291  18.064   7.353
 9584POPC   NC358487  33.832  33.000   5.553
 9584POPC   PO458488  33.842  33.008   5.853
 9584POPC   GL158489  33.830  33.012   6.153
 9584POPC   GL258490  33.717  33.128   6.153
 9584POPC   C1A58491  33.780  33.054   6.453
 9584POPC   D2A58492  33.826  33.055   6.753
 9584POPC   C3A58493  33.757  33.069   7.053
 9584POPC   C4A58494  33.787  33.017   7.353
 9584POPC   C1B58495  33.743  33.306   6.453
 9584POPC   C2B58496  33.708  33.305   6.753
 9584POPC   C3B58497  33.756  33.222   7.053
 9584POPC   C4B58498  33.717  33.288   7.353
 9585POPC   NC358499   2.728   4.315   5.553
 9585POPC   PO458500   2.796   4.296   5.853
 9585POPC   GL158501   2.788   4.277   6.153
 9585POPC   GL258502   2.914   4.319   6.153
 9585POPC   C1A58503   2.746   4.316   6.453
 9585POPC   D2A58504   2.728   4.283   6.753
 9585POPC   C3A58505   2.792   4.334   7.053
 9585POPC   C4A58506   2.777   4.322   7.353
 9585POPC   C1B58507   2.984   4.326   6.453
 9585POPC   C2B58508   3.002   4.319   6.753
 9585POPC   C3B58509   3.007   4.406   7.053
 9585POPC   C4B58510   3.009   4.313   7.353
 9586POPC   NC358511   9.706  12.109   5.553
 9586POPC   PO458512   9.719  12.070   5.853
 9586POPC   GL158513   9.711  12.043   6.153
 9586POPC   GL258514   9.783  11.926   6.153
 9586POPC   C1A58515   9.701  12.094   6.453
 9586POPC   D2A58516   9.772  12.073   6.753
 9586POPC   C3A58517   9.748  12.123   7.053
 9586POPC   C4A58518   9.726  12.086   7.353
 9586POPC   C1B58519   9.682  11.821   6.453
 9586POPC   C2B58520   9.715  11.814   6.753
 9586POPC   C3B58521   9.741  11.782   7.053
 9586POPC   C4B58522   9.733  11.793   7.353
 9587POPC   NC358523  34.605   9.709   5.553
 9587POPC   PO458524  34.540   9.708   5.853
 9587POPC   GL158525  34.526   9.787   6.153
 9587POPC   GL258526  34.689   9.688   6.153
 9587POPC   C1A58527  34.575   9.705   6.453
 9587POPC   D2A58528  34.604   9.723   6.753
 9587POPC   C3A58529  34.621   9.798   7.053
 9587POPC   C4A58530  34.540   9.709   7.353
 9587POPC   C1B58531  34.834   9.743   6.453
 9587POPC   C2B58532  34.776   9.730   6.753
 9587POPC   C3B58533  34.789   9.688   7.053
 9587POPC   C4B58534  34.821   9.746   7.353
 9588POPC   NC358535  43.927   8.993   5.553
 9588POPC   PO458536  43.853   8.990   5.853
 9588POPC   GL158537  43.883   8.964   6.153
 9588POPC   GL258538  43.925   9.045   6.153
 9588POPC   C1A58539  43.905   9.020   6.453
 9588POPC   D2A58540  43.913   9.017   6.753
 9588POPC   C3A58541  43.892   8.932   7.053
 9588POPC   C4A58542  43.863   8.975   7.353
 9588POPC   C1B58543  43.941   9.234   6.453
 9588POPC   C2B58544  43.904   9.204   6.753
 9588POPC   C3B58545  43.927   9.199   7.053
 9588POPC   C4B58546  44.000   9.188   7.353
 9589POPC   NC358547  35.322   5.086   5.553
 9589POPC   PO458548  35.366   5.127   5.853
 9589POPC   GL158549  35.344   5.096   6.153
 9589POPC   GL258550  35.512   5.065   6.153
 9589POPC   C1A58551  35.394   5.059   6.453
 9589POPC   D2A58552  35.377   5.073   6.753
 9589POPC   C3A58553  35.362   5.133   7.053
 9589POPC   C4A58554  35.374   5.103   7.353
 9589POPC   C1B58555  35.539   5.027   6.453
 9589POPC   C2B58556  35.550   4.981   6.753
 9589POPC   C3B58557  35.565   4.982   7.053
 9589POPC   C4B58558  35.609   4.996   7.353
 9590POPC   NC358559  20.605  28.408   5.553
 9590POPC   PO458560  20.591  28.397   5.853
 9590POPC   GL158561  20.584  28.331   6.153
 9590POPC   GL258562  20.525  28.468   6.153
 9590POPC   C1A58563  20.635  28.331   6.453
 9590POPC   D2A58564  20.573  28.347   6.753
 9590POPC   C3A58565  20.567  28.351   7.053
 9590POPC   C4A58566  20.613  28.346   7.353
 9590POPC   C1B58567  20.571  28.611   6.453
 9590POPC   C2B58568  20.551  28.615   6.753
 9590POPC   C3B58569  20.520  28.596   7.053
 9590POPC   C4B58570  20.506  28.640   7.353
 9591POPC   NC358571  41.552  36.912   5.553
 9591POPC   PO458572  41.584  36.937   5.853
 9591POPC   GL158573  41.555  36.854   6.153
 9591POPC   GL258574  41.653  37.003   6.153
 9591POPC   C1A58575  41.550  36.921   6.453
 9591POPC   D2A58576  41.534  36.857   6.753
 9591POPC   C3A58577  41.561  36.875   7.053
 9591POPC   C4A58578  41.591  36.925   7.353
 9591POPC   C1B58579  41.733  37.072   6.453
 9591POPC   C2B58580  41.773  37.122   6.753
 9591POPC   C3B58581  41.708  37.058   7.053
 9591POPC   C4B58582  41.776  37.033   7.353
 9592POPC   NC358583  31.516  21.358   5.553
 9592POPC   PO458584  31.440  21.420   5.853
 9592POPC   GL158585  31.446  21.397   6.153
 9592POPC   GL258586  31.524  21.250   6.153
 9592POPC   C1A58587  31.497  21.425   6.453
 9592POPC   D2A58588  31.511  21.400   6.753
 9592POPC   C3A58589  31.488  21.436   7.053
 9592POPC   C4A58590  31.485  21.434   7.353
 9592POPC   C1B58591  31.592  21.151   6.453
 9592POPC   C2B58592  31.602  21.158   6.753
 9592POPC   C3B58593  31.572  21.199   7.053
 9592POPC   C4B58594  31.578  21.134   7.353
 9593POPC   NC358595  13.636   8.951   5.553
 9593POPC   PO458596  13.675   8.943   5.853
 9593POPC   GL158597  13.663   9.021   6.153
 9593POPC   GL258598  13.505   9.099   6.153
 9593POPC   C1A58599  13.601   8.947   6.453
 9593POPC   D2A58600  13.598   8.944   6.753
 9593POPC   C3A58601  13.640   8.940   7.053
 9593POPC   C4A58602  13.648   8.958   7.353
 9593POPC   C1B58603  13.454   9.136   6.453
 9593POPC   C2B58604  13.482   9.201   6.753
 9593POPC   C3B58605  13.510   9.146   7.053
 9593POPC   C4B58606  13.508   9.198   7.353
 9594POPC   NC358607  42.310  30.665   5.553
 9594POPC   PO458608  42.347  30.746   5.853
 9594POPC   GL158609  42.338  30.737   6.153
 9594POPC   GL258610  42.209  30.725   6.153
 9594POPC   C1A58611  42.379  30.746   6.453
 9594POPC   D2A58612  42.302  30.703   6.753
 9594POPC   C3A58613  42.384  30.684   7.053
 9594POPC   C4A58614  42.354  30.675   7.353
 9594POPC   C1B58615  42.042  30.687   6.453
 9594POPC   C2B58616  42.111  30.733   6.753
 9594POPC   C3B58617  42.044  30.726   7.053
 9594POPC   C4B58618  42.050  30.691   7.353
 9595POPC   NC358619   1.979  34.585   5.553
 9595POPC   PO458620   2.011  34.614   5.853
 9595POPC   GL158621   1.996  34.555   6.153
 9595POPC   GL258622   2.152  34.551   6.153
 9595POPC   C1A58623   2.038  34.552   6.453
 9595POPC   D2A58624   2.033  34.613   6.753
 9595POPC   C3A58625   1.961  34.530   7.053
 9595POPC   C4A58626   2.032  34.613   7.353
 9595POPC   C1B58627   2.197  34.467   6.453
 9595POPC   C2B58628   2.195  34.432   6.753
 9595POPC   C3B58629   2.227  34.477   7.053
 9595POPC   C4B58630   2.252  34.463   7.353
 9596POPC   NC358631  22.942  41.543   5.553
 9596POPC   PO458632  22.941  41.520   5.853
 9596POPC   GL158633  22.913  41.589   6.153
 9596POPC   GL258634  22.851  41.510   6.153
 9596POPC   C1A58635  22.982  41.586   6.453
 9596POPC   D2A58636  22.911  41.554   6.753
 9596POPC   C3A58637  22.970  41.517   7.053
 9596POPC   C4A58638  22.964  41.565   7.353
 9596POPC   C1B58639  22.737  41.538   6.453
 9596POPC   C2B58640  22.730  41.532   6.753
 9596POPC   C3B58641  22.662  41.543   7.053
 9596POPC   C4B58642  22.741  41.542   7.353
 9597POPC   NC358643  22.919  43.905   5.553
 9597POPC   PO458644  22.901  43.920   5.853
 9597POPC   GL158645  22.935  43.919   6.153
 9597POPC   GL258646  23.051  43.885   6.153
 9597POPC   C1A58647  22.909  43.848   6.453
 9597POPC   D2A58648  22.902  43.910   6.753
 9597POPC   C3A58649  22.892  43.916   7.053
 9597POPC   C4A58650  22.922  43.839   7.353
 9597POPC   C1B58651  23.160  43.845   6.453
 9597POPC   C2B58652  23.183  43.832   6.753
 9597POPC   C3B58653  23.165  43.840   7.053
 9597POPC   C4B58654  23.160  43.804   7.353
 9598POPC   NC358655   5.857   6.609   5.553
 9598POPC   PO458656   5.918   6.628   5.853
 9598POPC   GL158657   5.905   6.605   6.153
 9598POPC   GL258658   5.813   6.515   6.153
 9598POPC   C1A58659   5.822   6.666   6.453
 9598POPC   D2A58660   5.846   6.653   6.753
 9598POPC   C3A58661   5.886   6.617   7.053
 9598POPC   C4A58662   5.894   6.656   7.353
 9598POPC   C1B58663   5.728   6.460   6.453
 9598POPC   C2B58664   5.658   6.408   6.753
 9598POPC   C3B58665   5.749   6.409   7.053
 9598POPC   C4B58666   5.749   6.446   7.353
 9599POPC   NC358667   1.168  11.298   5.553
 9599POPC   PO458668   1.248  11.325   5.853
 9599POPC   GL158669   1.244  11.294   6.153
 9599POPC   GL258670   1.310  11.361   6.153
 9599POPC   C1A58671   1.240  11.275   6.453
 9599POPC   D2A58672   1.223  11.291   6.753
 9599POPC   C3A58673   1.195  11.295   7.053
 9599POPC   C4A58674   1.244  11.261   7.353
 9599POPC   C1B58675   1.438  11.289   6.453
 9599POPC   C2B58676   1.434  11.313   6.753
 9599POPC   C3B58677   1.499  11.292   7.053
 9599POPC   C4B58678   1.468  11.366   7.353
 9600POPC   NC358679  26.070  41.550   5.553
 9600POPC   PO458680  26.044  41.584   5.853
 9600POPC   GL158681  26.035  41.585   6.153
 9600POPC   GL258682  26.087  41.487   6.153
 9600POPC   C1A58683  26.074  41.540   6.453
 9600POPC   D2A58684  26.043  41.574   6.753
 9600POPC   C3A58685  26.028  41.567   7.053
 9600POPC   C4A58686  26.048  41.530   7.353
 9600POPC   C1B58687  26.203  41.382   6.453
 9600POPC   C2B58688  26.266  41.403   6.753
 9600POPC   C3B58689  26.252  41.402   7.053
 9600POPC   C4B58690  26.265  41.379   7.353
 9601POPC   NC358691  23.703   4.274   5.553
 9601POPC   PO458692  23.690   4.358   5.853
 9601POPC   GL158693  23.692   4.287   6.153
 9601POPC   GL258694  23.586   4.267   6.153
 9601POPC   C1A58695  23.674   4.279   6.453
 9601POPC   D2A58696  23.742   4.365   6.753
 9601POPC   C3A58697  23.764   4.341   7.053
 9601POPC   C4A58698  23.677   4.297   7.353
 9601POPC   C1B58699  23.453   4.236   6.453
 9601POPC   C2B58700  23.435   4.223   6.753
 9601POPC   C3B58701  23.459   4.261   7.053
 9601POPC   C4B58702  23.476   4.279   7.353
 9602POPC   NC358703  12.102   8.949   5.553
 9602POPC   PO458704  12.045   9.014   5.853
 9602POPC   GL158705  12.101   8.953   6.153
 9602POPC   GL258706  12.241   8.885   6.153
 9602POPC   C1A58707  12.034   8.962   6.453
 9602POPC   D2A58708  12.110   8.971   6.753
 9602POPC   C3A58709  12.112   9.000   7.053
 9602POPC   C4A58710  12.027   8.931   7.353
 9602POPC   C1B58711  12.342   8.858   6.453
 9602POPC   C2B58712  12.359   8.853   6.753
 9602POPC   C3B58713  12.266   8.918   7.053
 9602POPC   C4B58714  12.303   8.884   7.353
 9603POPC   NC358715  40.032  12.861   5.553
 9603POPC   PO458716  40.017  12.897   5.853
 9603POPC   GL158717  39.970  12.860   6.153
 9603POPC   GL258718  40.077  12.808   6.153
 9603POPC   C1A58719  40.004  12.886   6.453
 9603POPC   D2A58720  40.039  12.836   6.753
 9603POPC   C3A58721  39.992  12.856   7.053
 9603POPC   C4A58722  40.017  12.858   7.353
 9603POPC   C1B58723  40.141  12.713   6.453
 9603POPC   C2B58724  40.180  12.703   6.753
 9603POPC   C3B58725  40.216  12.645   7.053
 9603POPC   C4B58726  40.226  12.651   7.353
 9604POPC   NC358727  29.129  21.360   5.553
 9604POPC   PO458728  29.175  21.426   5.853
 9604POPC   GL158729  29.183  21.377   6.153
 9604POPC   GL258730  29.203  21.526   6.153
 9604POPC   C1A58731  29.128  21.390   6.453
 9604POPC   D2A58732  29.194  21.423   6.753
 9604POPC   C3A58733  29.162  21.341   7.053
 9604POPC   C4A58734  29.123  21.396   7.353
 9604POPC   C1B58735  29.248  21.641   6.453
 9604POPC   C2B58736  29.182  21.623   6.753
 9604POPC   C3B58737  29.167  21.596   7.053
 9604POPC   C4B58738  29.233  21.586   7.353
 9605POPC   NC358739  32.262  14.393   5.553
 9605POPC   PO458740  32.245  14.439   5.853
 9605POPC   GL158741  32.244  14.384   6.153
 9605POPC   GL258742  32.332  14.390   6.153
 9605POPC   C1A58743  32.252  14.448   6.453
 9605POPC   D2A58744  32.267  14.404   6.753
 9605POPC   C3A58745  32.249  14.442   7.053
 9605POPC   C4A58746  32.266  14.404   7.353
 9605POPC   C1B58747  32.512  14.323   6.453
 9605POPC   C2B58748  32.462  14.305   6.753
 9605POPC   C3B58749  32.466  14.332   7.053
 9605POPC   C4B58750  32.522  14.271   7.353
 9606POPC   NC358751  12.816  21.392   5.553
 9606POPC   PO458752  12.879  21.338   5.853
 9606POPC   GL158753  12.811  21.355   6.153
 9606POPC   GL258754  12.921  21.296   6.153
 9606POPC   C1A58755  12.818  21.425   6.453
 9606POPC   D2A58756  12.853  21.364   6.753
 9606POPC   C3A58757  12.860  21.433   7.053
 9606POPC   C4A58758  12.872  21.427   7.353
 9606POPC   C1B58759  12.983  21.212   6.453
 9606POPC   C2B58760  13.029  21.240   6.753
 9606POPC   C3B58761  13.075  21.257   7.053
 9606POPC   C4B58762  13.022  21.243   7.353
 9607POPC   NC358763   3.580  40.771   5.553
 9607POPC   PO458764   3.585  40.763   5.853
 9607POPC   GL158765   3.568  40.825   6.153
 9607POPC   GL258766   3.609  40.763   6.153
 9607POPC   C1A58767   3.527  40.762   6.453
 9607POPC   D2A58768   3.552  40.812   6.753
 9607POPC   C3A58769   3.566  40.772   7.053
 9607POPC   C4A58770   3.510  40.754   7.353
 9607POPC   C1B58771   3.714  40.650   6.453
 9607POPC   C2B58772   3.734  40.675   6.753
 9607POPC   C3B58773   3.770  40.698   7.053
 9607POPC   C4B58774   3.719  40.634   7.353
 9608POPC   NC358775  38.458  19.020   5.553
 9608POPC   PO458776  38.428  19.041   5.853
 9608POPC   GL158777  38.458  19.091   6.153
 9608POPC   GL258778  38.513  19.149   6.153
 9608POPC   C1A58779  38.414  19.091   6.453
 9608POPC   D2A58780  38.457  19.016   6.753
 9608POPC   C3A58781  38.473  19.017   7.053
 9608POPC   C4A58782  38.471  19.066   7.353
 9608POPC   C1B58783  38.557  19.309   6.453
 9608POPC   C2B58784  38.566  19.335   6.753
 9608POPC   C3B58785  38.537  19.316   7.053
 9608POPC   C4B58786  38.515  19.285   7.353
 9609POPC   NC358787  42.364  43.862   5.553
 9609POPC   PO458788  42.300  43.839   5.853
 9609POPC   GL158789  42.338  43.889   6.153
 9609POPC   GL258790  42.283  43.971   6.153
 9609POPC   C1A58791  42.315  43.936   6.453
 9609POPC   D2A58792  42.301  43.909   6.753
 9609POPC   C3A58793  42.366  43.900   7.053
 9609POPC   C4A58794  42.318  43.860   7.353
 9609POPC   C1B58795  42.233  44.119   6.453
 9609POPC   C2B58796  42.297  44.128   6.753
 9609POPC   C3B58797  42.250  44.140   7.053
 9609POPC   C4B58798  42.255  44.130   7.353
 9610POPC   NC358799   2.031  15.963   5.553
 9610POPC   PO458800   1.941  15.909   5.853
 9610POPC   GL158801   1.952  15.908   6.153
 9610POPC   GL258802   1.847  15.947   6.153
 9610POPC   C1A58803   2.008  15.941   6.453
 9610POPC   D2A58804   1.975  15.939   6.753
 9610POPC   C3A58805   1.943  15.957   7.053
 9610POPC   C4A58806   1.971  15.974   7.353
 9610POPC   C1B58807   1.753  15.969   6.453
 9610POPC   C2B58808   1.729  15.960   6.753
 9610POPC   C3B58809   1.764  15.878   7.053
 9610POPC   C4B58810   1.759  15.920   7.353
 9611POPC   NC358811  43.116  17.509   5.553
 9611POPC   PO458812  43.096  17.492   5.853
 9611POPC   GL158813  43.145  17.493   6.153
 9611POPC   GL258814  43.251  17.570   6.153
 9611POPC   C1A58815  43.114  17.527   6.453
 9611POPC   D2A58816  43.133  17.508   6.753
 9611POPC   C3A58817  43.083  17.509   7.053
 9611POPC   C4A58818  43.097  17.530   7.353
 9611POPC   C1B58819  43.351  17.685   6.453
 9611POPC   C2B58820  43.320  17.652   6.753
 9611POPC   C3B58821  43.327  17.606   7.053
 9611POPC   C4B58822  43.296  17.658   7.353
 9612POPC   NC358823   6.621   6.598   5.553
 9612POPC   PO458824   6.617   6.641   5.853
 9612POPC   GL158825   6.640   6.632   6.153
 9612POPC   GL258826   6.712   6.717   6.153
 9612POPC   C1A58827   6.639   6.676   6.453
 9612POPC   D2A58828   6.639   6.609   6.753
 9612POPC   C3A58829   6.635   6.680   7.053
 9612POPC   C4A58830   6.603   6.659   7.353
 9612POPC   C1B58831   6.807   6.802   6.453
 9612POPC   C2B58832   6.822   6.804   6.753
 9612POPC   C3B58833   6.829   6.821   7.053
 9612POPC   C4B58834   6.771   6.839   7.353
 9613POPC   NC358835   2.809   3.492   5.553
 9613POPC   PO458836   2.783   3.516   5.853
 9613POPC   GL158837   2.773   3.546   6.153
 9613POPC   GL258838   2.618   3.559   6.153
 9613POPC   C1A58839   2.723   3.524   6.453
 9613POPC   D2A58840   2.758   3.543   6.753
 9613POPC   C3A58841   2.739   3.494   7.053
 9613POPC   C4A58842   2.755   3.567   7.353
 9613POPC   C1B58843   2.488   3.519   6.453
 9613POPC   C2B58844   2.535   3.504   6.753
 9613POPC   C3B58845   2.571   3.439   7.053
 9613POPC   C4B58846   2.561   3.527   7.353
 9614POPC   NC358847  15.996  12.039   5.553
 9614POPC   PO458848  15.991  12.077   5.853
 9614POPC   GL158849  15.984  12.073   6.153
 9614POPC   GL258850  16.099  12.149   6.153
 9614POPC   C1A58851  15.937  12.034   6.453
 9614POPC   D2A58852  15.955  12.060   6.753
 9614POPC   C3A58853  15.995  12.114   7.053
 9614POPC   C4A58854  15.956  12.109   7.353
 9614POPC   C1B58855  16.152  12.164   6.453
 9614POPC   C2B58856  16.153  12.174   6.753
 9614POPC   C3B58857  16.166  12.167   7.053
 9614POPC   C4B58858  16.144  12.179   7.353
 9615POPC   NC358859  18.282   1.259   5.553
 9615POPC   PO458860  18.253   1.166   5.853
 9615POPC   GL158861  18.291   1.220   6.153
 9615POPC   GL258862  18.204   1.326   6.153
 9615POPC   C1A58863  18.324   1.205   6.453
 9615POPC   D2A58864  18.316   1.213   6.753
 9615POPC   C3A58865  18.258   1.189   7.053
 9615POPC   C4A58866  18.249   1.230   7.353
 9615POPC   C1B58867  18.120   1.377   6.453
 9615POPC   C2B58868  18.105   1.417   6.753
 9615POPC   C3B58869  18.100   1.428   7.053
 9615POPC   C4B58870  18.156   1.363   7.353
 9616POPC   NC358871  31.443   9.732   5.553
 9616POPC   PO458872  31.494   9.759   5.853
 9616POPC   GL158873  31.450   9.723   6.153
 9616POPC   GL258874  31.393   9.901   6.153
 9616POPC   C1A58875  31.510   9.716   6.453
 9616POPC   D2A58876  31.496   9.764   6.753
 9616POPC   C3A58877  31.491   9.742   7.053
 9616POPC   C4A58878  31.429   9.744   7.353
 9616POPC   C1B58879  31.387   9.920   6.453
 9616POPC   C2B58880  31.366   9.961   6.753
 9616POPC   C3B58881  31.341   9.917   7.053
 9616POPC   C4B58882  31.380   9.962   7.353
 9617POPC   NC358883   6.605  29.958   5.553
 9617POPC   PO458884   6.602  29.905   5.853
 9617POPC   GL158885   6.614  29.884   6.153
 9617POPC   GL258886   6.716  30.081   6.153
 9617POPC   C1A58887   6.681  29.960   6.453
 9617POPC   D2A58888   6.611  29.891   6.753
 9617POPC   C3A58889   6.651  29.884   7.053
 9617POPC   C4A58890   6.622  29.913   7.353
 9617POPC   C1B58891   6.659  30.149   6.453
 9617POPC   C2B58892   6.701  30.210   6.753
 9617POPC   C3B58893   6.708  30.200   7.053
 9617POPC   C4B58894   6.672  30.139   7.353
 9618POPC   NC358895  21.343   2.756   5.553
 9618POPC   PO458896  21.412   2.738   5.853
 9618POPC   GL158897  21.394   2.754   6.153
 9618POPC   GL258898  21.315   2.776   6.153
 9618POPC   C1A58899  21.380   2.725   6.453
 9618POPC   D2A58900  21.380   2.716   6.753
 9618POPC   C3A58901  21.411   2.781   7.053
 9618POPC   C4A58902  21.419   2.792   7.353
 9618POPC   C1B58903  21.186   2.787   6.453
 9618POPC   C2B58904  21.126   2.837   6.753
 9618POPC   C3B58905  21.158   2.797   7.053
 9618POPC   C4B58906  21.114   2.824   7.353
 9619POPC   NC358907   1.987  19.104   5.553
 9619POPC   PO458908   1.964  19.088   5.853
 9619POPC   GL158909   2.015  19.021   6.153
 9619POPC   GL258910   2.079  19.091   6.153
 9619POPC   C1A58911   1.985  19.094   6.453
 9619POPC   D2A58912   1.958  19.099   6.753
 9619POPC   C3A58913   2.029  19.091   7.053
 9619POPC   C4A58914   2.024  19.102   7.353
 9619POPC   C1B58915   2.172  19.201   6.453
 9619POPC   C2B58916   2.205  19.193   6.753
 9619POPC   C3B58917   2.219  19.269   7.053
 9619POPC   C4B58918   2.130  19.271   7.353
 9620POPC   NC358919  28.348  24.486   5.553
 9620POPC   PO458920  28.351  24.477   5.853
 9620POPC   GL158921  28.369  24.497   6.153
 9620POPC   GL258922  28.508  24.442   6.153
 9620POPC   C1A58923  28.376  24.488   6.453
 9620POPC   D2A58924  28.408  24.464   6.753
 9620POPC   C3A58925  28.389  24.530   7.053
 9620POPC   C4A58926  28.367  24.488   7.353
 9620POPC   C1B58927  28.660  24.430   6.453
 9620POPC   C2B58928  28.616  24.475   6.753
 9620POPC   C3B58929  28.611  24.413   7.053
 9620POPC   C4B58930  28.570  24.426   7.353
 9621POPC   NC358931  31.442  27.573   5.553
 9621POPC   PO458932  31.429  27.612   5.853
 9621POPC   GL158933  31.436  27.628   6.153
 9621POPC   GL258934  31.360  27.572   6.153
 9621POPC   C1A58935  31.485  27.571   6.453
 9621POPC   D2A58936  31.491  27.557   6.753
 9621POPC   C3A58937  31.506  27.605   7.053
 9621POPC   C4A58938  31.476  27.604   7.353
 9621POPC   C1B58939  31.249  27.606   6.453
 9621POPC   C2B58940  31.209  27.604   6.753
 9621POPC   C3B58941  31.269  27.594   7.053
 9621POPC   C4B58942  31.190  27.613   7.353
 9622POPC   NC358943  12.862  30.713   5.553
 9622POPC   PO458944  12.882  30.659   5.853
 9622POPC   GL158945  12.805  30.647   6.153
 9622POPC   GL258946  12.786  30.744   6.153
 9622POPC   C1A58947  12.854  30.705   6.453
 9622POPC   D2A58948  12.890  30.708   6.753
 9622POPC   C3A58949  12.895  30.732   7.053
 9622POPC   C4A58950  12.805  30.715   7.353
 9622POPC   C1B58951  12.727  30.880   6.453
 9622POPC   C2B58952  12.694  30.837   6.753
 9622POPC   C3B58953  12.682  30.881   7.053
 9622POPC   C4B58954  12.656  30.835   7.353
 9623POPC   NC358955  40.037  23.718   5.553
 9623POPC   PO458956  39.968  23.737   5.853
 9623POPC   GL158957  39.992  23.666   6.153
 9623POPC   GL258958  40.023  23.858   6.153
 9623POPC   C1A58959  40.006  23.680   6.453
 9623POPC   D2A58960  40.022  23.703   6.753
 9623POPC   C3A58961  40.039  23.747   7.053
 9623POPC   C4A58962  39.977  23.738   7.353
 9623POPC   C1B58963  40.149  23.891   6.453
 9623POPC   C2B58964  40.146  23.977   6.753
 9623POPC   C3B58965  40.078  23.946   7.053
 9623POPC   C4B58966  40.082  23.906   7.353
 9624POPC   NC358967  26.785  22.113   5.553
 9624POPC   PO458968  26.773  22.176   5.853
 9624POPC   GL158969  26.788  22.198   6.153
 9624POPC   GL258970  26.964  22.092   6.153
 9624POPC   C1A58971  26.830  22.134   6.453
 9624POPC   D2A58972  26.770  22.188   6.753
 9624POPC   C3A58973  26.818  22.163   7.053
 9624POPC   C4A58974  26.785  22.116   7.353
 9624POPC   C1B58975  26.990  22.024   6.453
 9624POPC   C2B58976  26.990  22.012   6.753
 9624POPC   C3B58977  27.005  22.067   7.053
 9624POPC   C4B58978  27.022  22.086   7.353
 9625POPC   NC358979   8.968  21.389   5.553
 9625POPC   PO458980   8.932  21.403   5.853
 9625POPC   GL158981   8.954  21.419   6.153
 9625POPC   GL258982   9.116  21.465   6.153
 9625POPC   C1A58983   8.942  21.383   6.453
 9625POPC   D2A58984   8.938  21.399   6.753
 9625POPC   C3A58985   8.980  21.343   7.053
 9625POPC   C4A58986   8.999  21.424   7.353
 9625POPC   C1B58987   9.250  21.466   6.453
 9625POPC   C2B58988   9.204  21.440   6.753
 9625POPC   C3B58989   9.171  21.425   7.053
 9625POPC   C4B58990   9.255  21.447   7.353
 9626POPC   NC358991  40.746  24.457   5.553
 9626POPC   PO458992  40.779  24.520   5.853
 9626POPC   GL158993  40.776  24.511   6.153
 9626POPC   GL258994  40.725  24.613   6.153
 9626POPC   C1A58995  40.795  24.440   6.453
 9626POPC   D2A58996  40.738  24.477   6.753
 9626POPC   C3A58997  40.758  24.498   7.053
 9626POPC   C4A58998  40.824  24.451   7.353
 9626POPC   C1B58999  40.655  24.741   6.453
 9626POPC   C2B59000  40.693  24.704   6.753
 9626POPC   C3B59001  40.742  24.739   7.053
 9626POPC   C4B59002  40.669  24.704   7.353
 9627POPC   NC359003  33.056   2.031   5.553
 9627POPC   PO459004  33.006   1.962   5.853
 9627POPC   GL159005  33.043   1.965   6.153
 9627POPC   GL259006  33.179   2.023   6.153
 9627POPC   C1A59007  33.024   2.010   6.453
 9627POPC   D2A59008  33.064   1.967   6.753
 9627POPC   C3A59009  33.071   1.941   7.053
 9627POPC   C4A59010  33.065   1.965   7.353
 9627POPC   C1B59011  33.322   1.988   6.453
 9627POPC   C2B59012  33.309   1.996   6.753
 9627POPC   C3B59013  33.246   2.050   7.053
 9627POPC   C4B59014  33.250   2.052   7.353
 9628POPC   NC359015  25.238  22.941   5.553
 9628POPC   PO459016  25.217  22.894   5.853
 9628POPC   GL159017  25.264  22.894   6.153
 9628POPC   GL259018  25.357  23.022   6.153
 9628POPC   C1A59019  25.277  22.965   6.453
 9628POPC   D2A59020  25.287  22.981   6.753
 9628POPC   C3A59021  25.249  22.985   7.053
 9628POPC   C4A59022  25.231  22.902   7.353
 9628POPC   C1B59023  25.420  23.054   6.453
 9628POPC   C2B59024  25.441  23.096   6.753
 9628POPC   C3B59025  25.458  23.141   7.053
 9628POPC   C4B59026  25.481  23.109   7.353
 9629POPC   NC359027  26.861  32.283   5.553
 9629POPC   PO459028  26.794  32.254   5.853
 9629POPC   GL159029  26.813  32.208   6.153
 9629POPC   GL259030  26.836  32.419   6.153
 9629POPC   C1A59031  26.769  32.296   6.453
 9629POPC   D2A59032  26.793  32.234   6.753
 9629POPC   C3A59033  26.812  32.211   7.053
 9629POPC   C4A59034  26.832  32.265   7.353
 9629POPC   C1B59035  26.846  32.511   6.453
 9629POPC   C2B59036  26.800  32.509   6.753
 9629POPC   C3B59037  26.843  32.474   7.053
 9629POPC   C4B59038  26.810  32.492   7.353
 9630POPC   NC359039  21.426  23.696   5.553
 9630POPC   PO459040  21.377  23.750   5.853
 9630POPC   GL159041  21.347  23.670   6.153
 9630POPC   GL259042  21.518  23.784   6.153
 9630POPC   C1A59043  21.394  23.695   6.453
 9630POPC   D2A59044  21.396  23.696   6.753
 9630POPC   C3A59045  21.417  23.687   7.053
 9630POPC   C4A59046  21.340  23.718   7.353
 9630POPC   C1B59047  21.585  23.786   6.453
 9630POPC   C2B59048  21.599  23.786   6.753
 9630POPC   C3B59049  21.647  23.801   7.053
 9630POPC   C4B59050  21.587  23.739   7.353
 9631POPC   NC359051  12.829  16.707   5.553
 9631POPC   PO459052  12.816  16.692   5.853
 9631POPC   GL159053  12.869  16.731   6.153
 9631POPC   GL259054  12.912  16.669   6.153
 9631POPC   C1A59055  12.844  16.707   6.453
 9631POPC   D2A59056  12.829  16.708   6.753
 9631POPC   C3A59057  12.842  16.774   7.053
 9631POPC   C4A59058  12.869  16.702   7.353
 9631POPC   C1B59059  12.988  16.610   6.453
 9631POPC   C2B59060  13.080  16.603   6.753
 9631POPC   C3B59061  13.067  16.529   7.053
 9631POPC   C4B59062  13.064  16.601   7.353
 9632POPC   NC359063  40.800  25.253   5.553
 9632POPC   PO459064  40.784  25.281   5.853
 9632POPC   GL159065  40.763  25.287   6.153
 9632POPC   GL259066  40.904  25.322   6.153
 9632POPC   C1A59067  40.795  25.266   6.453
 9632POPC   D2A59068  40.788  25.240   6.753
 9632POPC   C3A59069  40.764  25.233   7.053
 9632POPC   C4A59070  40.776  25.243   7.353
 9632POPC   C1B59071  41.001  25.360   6.453
 9632POPC   C2B59072  41.069  25.367   6.753
 9632POPC   C3B59073  41.069  25.329   7.053
 9632POPC   C4B59074  41.061  25.311   7.353
 9633POPC   NC359075  44.615  17.542   5.553
 9633POPC   PO459076  44.712  17.477   5.853
 9633POPC   GL159077  44.655  17.528   6.153
 9633POPC   GL259078  44.763  17.527   6.153
 9633POPC   C1A59079  44.621  17.485   6.453
 9633POPC   D2A59080  44.695  17.515   6.753
 9633POPC   C3A59081  44.690  17.469   7.053
 9633POPC   C4A59082  44.639  17.549   7.353
 9633POPC   C1B59083  44.888  17.552   6.453
 9633POPC   C2B59084  44.958  17.578   6.753
 9633POPC   C3B59085  44.947  17.591   7.053
 9633POPC   C4B59086  44.925  17.570   7.353
 9634POPC   NC359087  16.712  20.635   5.553
 9634POPC   PO459088  16.687  20.580   5.853
 9634POPC   GL159089  16.752  20.600   6.153
 9634POPC   GL259090  16.739  20.732   6.153
 9634POPC   C1A59091  16.688  20.612   6.453
 9634POPC   D2A59092  16.711  20.561   6.753
 9634POPC   C3A59093  16.692  20.576   7.053
 9634POPC   C4A59094  16.771  20.609   7.353
 9634POPC   C1B59095  16.713  20.890   6.453
 9634POPC   C2B59096  16.704  20.866   6.753
 9634POPC   C3B59097  16.770  20.890   7.053
 9634POPC   C4B59098  16.740  20.834   7.353
 9635POPC   NC359099  22.947  13.587   5.553
 9635POPC   PO459100  22.971  13.632   5.853
 9635POPC   GL159101  22.970  13.598   6.153
 9635POPC   GL259102  22.880  13.529   6.153
 9635POPC   C1A59103  22.977  13.650   6.453
 9635POPC   D2A59104  22.926  13.583   6.753
 9635POPC   C3A59105  22.917  13.622   7.053
 9635POPC   C4A59106  22.969  13.629   7.353
 9635POPC   C1B59107  22.714  13.453   6.453
 9635POPC   C2B59108  22.756  13.415   6.753
 9635POPC   C3B59109  22.794  13.447   7.053
 9635POPC   C4B59110  22.757  13.415   7.353
 9636POPC   NC359111  28.375  31.423   5.553
 9636POPC   PO459112  28.354  31.492   5.853
 9636POPC   GL159113  28.368  31.430   6.153
 9636POPC   GL259114  28.381  31.639   6.153
 9636POPC   C1A59115  28.349  31.431   6.453
 9636POPC   D2A59116  28.391  31.512   6.753
 9636POPC   C3A59117  28.406  31.505   7.053
 9636POPC   C4A59118  28.416  31.435   7.353
 9636POPC   C1B59119  28.469  31.718   6.453
 9636POPC   C2B59120  28.474  31.754   6.753
 9636POPC   C3B59121  28.465  31.719   7.053
 9636POPC   C4B59122  28.469  31.747   7.353
 9637POPC   NC359123  41.535  28.409   5.553
 9637POPC   PO459124  41.516  28.367   5.853
 9637POPC   GL159125  41.557  28.413   6.153
 9637POPC   GL259126  41.452  28.312   6.153
 9637POPC   C1A59127  41.588  28.398   6.453
 9637POPC   D2A59128  41.575  28.406   6.753
 9637POPC   C3A59129  41.591  28.371   7.053
 9637POPC   C4A59130  41.527  28.383   7.353
 9637POPC   C1B59131  41.342  28.150   6.453
 9637POPC   C2B59132  41.415  28.204   6.753
 9637POPC   C3B59133  41.350  28.227   7.053
 9637POPC   C4B59134  41.385  28.203   7.353
 9638POPC   NC359135  29.172  43.111   5.553
 9638POPC   PO459136  29.135  43.078   5.853
 9638POPC   GL159137  29.125  43.091   6.153
 9638POPC   GL259138  29.056  43.202   6.153
 9638POPC   C1A59139  29.136  43.083   6.453
 9638POPC   D2A59140  29.183  43.152   6.753
 9638POPC   C3A59141  29.189  43.139   7.053
 9638POPC   C4A59142  29.189  43.073   7.353
 9638POPC   C1B59143  28.887  43.183   6.453
 9638POPC   C2B59144  28.961  43.235   6.753
 9638POPC   C3B59145  28.964  43.228   7.053
 9638POPC   C4B59146  28.873  43.171   7.353
 9639POPC   NC359147  26.845  20.619   5.553
 9639POPC   PO459148  26.835  20.581   5.853
 9639POPC   GL159149  26.836  20.653   6.153
 9639POPC   GL259150  26.806  20.763   6.153
 9639POPC   C1A59151  26.804  20.655   6.453
 9639POPC   D2A59152  26.803  20.658   6.753
 9639POPC   C3A59153  26.846  20.660   7.053
 9639POPC   C4A59154  26.831  20.590   7.353
 9639POPC   C1B59155  26.777  20.829   6.453
 9639POPC   C2B59156  26.733  20.820   6.753
 9639POPC   C3B59157  26.742  20.874   7.053
 9639POPC   C4B59158  26.759  20.810   7.353
 9640POPC   NC359159  13.615  17.498   5.553
 9640POPC   PO459160  13.616  17.506   5.853
 9640POPC   GL159161  13.580  17.523   6.153
 9640POPC   GL259162  13.702  17.605   6.153
 9640POPC   C1A59163  13.627  17.480   6.453
 9640POPC   D2A59164  13.664  17.473   6.753
 9640POPC   C3A59165  13.636  17.529   7.053
 9640POPC   C4A59166  13.656  17.525   7.353
 9640POPC   C1B59167  13.877  17.637   6.453
 9640POPC   C2B59168  13.865  17.646   6.753
 9640POPC   C3B59169  13.864  17.651   7.053
 9640POPC   C4B59170  13.867  17.646   7.353
 9641POPC   NC359171  42.298  22.912   5.553
 9641POPC   PO459172  42.369  22.958   5.853
 9641POPC   GL159173  42.322  22.951   6.153
 9641POPC   GL259174  42.244  22.977   6.153
 9641POPC   C1A59175  42.287  22.899   6.453
 9641POPC   D2A59176  42.303  22.936   6.753
 9641POPC   C3A59177  42.297  22.986   7.053
 9641POPC   C4A59178  42.351  22.987   7.353
 9641POPC   C1B59179  42.143  23.055   6.453
 9641POPC   C2B59180  42.116  23.081   6.753
 9641POPC   C3B59181  42.150  23.109   7.053
 9641POPC   C4B59182  42.189  23.076   7.353
 9642POPC   NC359183  40.749  26.768   5.553
 9642POPC   PO459184  40.822  26.817   5.853
 9642POPC   GL159185  40.787  26.863   6.153
 9642POPC   GL259186  40.861  26.869   6.153
 9642POPC   C1A59187  40.785  26.770   6.453
 9642POPC   D2A59188  40.733  26.844   6.753
 9642POPC   C3A59189  40.787  26.797   7.053
 9642POPC   C4A59190  40.748  26.793   7.353
 9642POPC   C1B59191  41.035  26.824   6.453
 9642POPC   C2B59192  41.035  26.821   6.753
 9642POPC   C3B59193  41.041  26.832   7.053
 9642POPC   C4B59194  41.080  26.826   7.353
 9643POPC   NC359195  20.583  21.413   5.553
 9643POPC   PO459196  20.626  21.347   5.853
 9643POPC   GL159197  20.641  21.352   6.153
 9643POPC   GL259198  20.697  21.319   6.153
 9643POPC   C1A59199  20.561  21.371   6.453
 9643POPC   D2A59200  20.577  21.432   6.753
 9643POPC   C3A59201  20.562  21.338   7.053
 9643POPC   C4A59202  20.566  21.356   7.353
 9643POPC   C1B59203  20.806  21.211   6.453
 9643POPC   C2B59204  20.826  21.250   6.753
 9643POPC   C3B59205  20.848  21.196   7.053
 9643POPC   C4B59206  20.814  21.260   7.353
 9644POPC   NC359207  43.931  19.879   5.553
 9644POPC   PO459208  43.876  19.842   5.853
 9644POPC   GL159209  43.855  19.798   6.153
 9644POPC   GL259210  43.933  19.890   6.153
 9644POPC   C1A59211  43.936  19.868   6.453
 9644POPC   D2A59212  43.861  19.875   6.753
 9644POPC   C3A59213  43.870  19.802   7.053
 9644POPC   C4A59214  43.867  19.808   7.353
 9644POPC   C1B59215  43.994  20.078   6.453
 9644POPC   C2B59216  43.978  20.038   6.753
 9644POPC   C3B59217  43.999  20.003   7.053
 9644POPC   C4B59218  44.029  20.055   7.353
 9645POPC   NC359219  18.290  43.911   5.553
 9645POPC   PO459220  18.295  43.888   5.853
 9645POPC   GL159221  18.249  43.840   6.153
 9645POPC   GL259222  18.404  44.026   6.153
 9645POPC   C1A59223  18.240  43.923   6.453
 9645POPC   D2A59224  18.256  43.893   6.753
 9645POPC   C3A59225  18.245  43.866   7.053
 9645POPC   C4A59226  18.314  43.911   7.353
 9645POPC   C1B59227  18.441  44.043   6.453
 9645POPC   C2B59228  18.493  44.075   6.753
 9645POPC   C3B59229  18.461  44.091   7.053
 9645POPC   C4B59230  18.485  44.053   7.353
 9646POPC   NC359231   1.174  12.105   5.553
 9646POPC   PO459232   1.236  12.115   5.853
 9646POPC   GL159233   1.188  12.105   6.153
 9646POPC   GL259234   1.124  12.124   6.153
 9646POPC   C1A59235   1.178  12.084   6.453
 9646POPC   D2A59236   1.207  12.031   6.753
 9646POPC   C3A59237   1.199  12.124   7.053
 9646POPC   C4A59238   1.215  12.087   7.353
 9646POPC   C1B59239   0.992  12.228   6.453
 9646POPC   C2B59240   0.985  12.151   6.753
 9646POPC   C3B59241   1.035  12.234   7.053
 9646POPC   C4B59242   0.998  12.201   7.353
 9647POPC   NC359243   5.913  43.105   5.553
 9647POPC   PO459244   5.907  43.146   5.853
 9647POPC   GL159245   5.871  43.097   6.153
 9647POPC   GL259246   5.789  43.106   6.153
 9647POPC   C1A59247   5.892  43.119   6.453
 9647POPC   D2A59248   5.847  43.137   6.753
 9647POPC   C3A59249   5.900  43.080   7.053
 9647POPC   C4A59250   5.844  43.134   7.353
 9647POPC   C1B59251   5.626  43.030   6.453
 9647POPC   C2B59252   5.644  43.064   6.753
 9647POPC   C3B59253   5.672  43.104   7.053
 9647POPC   C4B59254   5.606  43.109   7.353
 9648POPC   NC359255  31.441  40.755   5.553
 9648POPC   PO459256  31.461  40.801   5.853
 9648POPC   GL159257  31.509  40.792   6.153
 9648POPC   GL259258  31.521  40.701   6.153
 9648POPC   C1A59259  31.472  40.798   6.453
 9648POPC   D2A59260  31.437  40.789   6.753
 9648POPC   C3A59261  31.426  40.816   7.053
 9648POPC   C4A59262  31.500  40.802   7.353
 9648POPC   C1B59263  31.476  40.523   6.453
 9648POPC   C2B59264  31.469  40.574   6.753
 9648POPC   C3B59265  31.464  40.509   7.053
 9648POPC   C4B59266  31.434  40.495   7.353
 9649POPC   NC359267   8.148  24.516   5.553
 9649POPC   PO459268   8.185  24.482   5.853
 9649POPC   GL159269   8.205  24.444   6.153
 9649POPC   GL259270   8.120  24.568   6.153
 9649POPC   C1A59271   8.168  24.469   6.453
 9649POPC   D2A59272   8.203  24.508   6.753
 9649POPC   C3A59273   8.236  24.496   7.053
 9649POPC   C4A59274   8.167  24.533   7.353
 9649POPC   C1B59275   8.080  24.641   6.453
 9649POPC   C2B59276   8.062  24.693   6.753
 9649POPC   C3B59277   8.063  24.687   7.053
 9649POPC   C4B59278   8.054  24.682   7.353
 9650POPC   NC359279  12.056  11.315   5.553
 9650POPC   PO459280  12.051  11.321   5.853
 9650POPC   GL159281  12.114  11.287   6.153
 9650POPC   GL259282  12.203  11.427   6.153
 9650POPC   C1A59283  12.097  11.272   6.453
 9650POPC   D2A59284  12.047  11.284   6.753
 9650POPC   C3A59285  12.120  11.298   7.053
 9650POPC   C4A59286  12.106  11.333   7.353
 9650POPC   C1B59287  12.271  11.451   6.453
 9650POPC   C2B59288  12.242  11.520   6.753
 9650POPC   C3B59289  12.217  11.533   7.053
 9650POPC   C4B59290  12.274  11.458   7.353
 9651POPC   NC359291  12.055  39.240   5.553
 9651POPC   PO459292  12.039  39.265   5.853
 9651POPC   GL159293  12.094  39.203   6.153
 9651POPC   GL259294  11.934  39.269   6.153
 9651POPC   C1A59295  12.064  39.255   6.453
 9651POPC   D2A59296  12.083  39.235   6.753
 9651POPC   C3A59297  12.038  39.186   7.053
 9651POPC   C4A59298  12.077  39.190   7.353
 9651POPC   C1B59299  11.878  39.297   6.453
 9651POPC   C2B59300  11.816  39.345   6.753
 9651POPC   C3B59301  11.805  39.327   7.053
 9651POPC   C4B59302  11.814  39.307   7.353
 9652POPC   NC359303  32.296  44.625   5.553
 9652POPC   PO459304  32.276  44.675   5.853
 9652POPC   GL159305  32.282  44.614   6.153
 9652POPC   GL259306  32.239  44.739   6.153
 9652POPC   C1A59307  32.204  44.661   6.453
 9652POPC   D2A59308  32.275  44.614   6.753
 9652POPC   C3A59309  32.219  44.666   7.053
 9652POPC   C4A59310  32.225  44.618   7.353
 9652POPC   C1B59311  32.222  44.932   6.453
 9652POPC   C2B59312  32.215  44.927   6.753
 9652POPC   C3B59313  32.271  44.894   7.053
 9652POPC   C4B59314  32.275  44.911   7.353
 9653POPC   NC359315   2.793  33.051   5.553
 9653POPC   PO459316   2.765  33.038   5.853
 9653POPC   GL159317   2.729  33.043   6.153
 9653POPC   GL259318   2.863  32.867   6.153
 9653POPC   C1A59319   2.800  33.061   6.453
 9653POPC   D2A59320   2.757  33.067   6.753
 9653POPC   C3A59321   2.781  33.035   7.053
 9653POPC   C4A59322   2.742  33.045   7.353
 9653POPC   C1B59323   2.826  32.828   6.453
 9653POPC   C2B59324   2.857  32.764   6.753
 9653POPC   C3B59325   2.819  32.748   7.053
 9653POPC   C4B59326   2.913  32.798   7.353
 9654POPC   NC359327  11.278  15.906   5.553
 9654POPC   PO459328  11.297  15.961   5.853
 9654POPC   GL159329  11.344  15.987   6.153
 9654POPC   GL259330  11.390  15.959   6.153
 9654POPC   C1A59331  11.294  15.983   6.453
 9654POPC   D2A59332  11.281  15.936   6.753
 9654POPC   C3A59333  11.258  15.981   7.053
 9654POPC   C4A59334  11.291  15.926   7.353
 9654POPC   C1B59335  11.580  16.037   6.453
 9654POPC   C2B59336  11.537  16.077   6.753
 9654POPC   C3B59337  11.539  16.006   7.053
 9654POPC   C4B59338  11.565  16.077   7.353
 9655POPC   NC359339  30.728  30.735   5.553
 9655POPC   PO459340  30.660  30.698   5.853
 9655POPC   GL159341  30.654  30.647   6.153
 9655POPC   GL259342  30.644  30.595   6.153
 9655POPC   C1A59343  30.662  30.663   6.453
 9655POPC   D2A59344  30.720  30.648   6.753
 9655POPC   C3A59345  30.673  30.651   7.053
 9655POPC   C4A59346  30.682  30.725   7.353
 9655POPC   C1B59347  30.574  30.488   6.453
 9655POPC   C2B59348  30.620  30.511   6.753
 9655POPC   C3B59349  30.612  30.467   7.053
 9655POPC   C4B59350  30.625  30.516   7.353
 9656POPC   NC359351  43.891  32.225   5.553
 9656POPC   PO459352  43.870  32.284   5.853
 9656POPC   GL159353  43.870  32.283   6.153
 9656POPC   GL259354  44.012  32.178   6.153
 9656POPC   C1A59355  43.857  32.277   6.453
 9656POPC   D2A59356  43.918  32.256   6.753
 9656POPC   C3A59357  43.893  32.261   7.053
 9656POPC   C4A59358  43.846  32.263   7.353
 9656POPC   C1B59359  44.128  32.193   6.453
 9656POPC   C2B59360  44.130  32.135   6.753
 9656POPC   C3B59361  44.136  32.132   7.053
 9656POPC   C4B59362  44.078  32.175   7.353
 9657POPC   NC359363  12.123   9.751   5.553
 9657POPC   PO459364  12.118   9.700   5.853
 9657POPC   GL159365  12.072   9.748   6.153
 9657POPC   GL259366  12.143   9.731   6.153
 9657POPC   C1A59367  12.080   9.741   6.453
 9657POPC   D2A59368  12.063   9.747   6.753
 9657POPC   C3A59369  12.086   9.741   7.053
 9657POPC   C4A59370  12.074   9.724   7.353
 9657POPC   C1B59371  12.266   9.689   6.453
 9657POPC   C2B59372  12.309   9.642   6.753
 9657POPC   C3B59373  12.259   9.672   7.053
 9657POPC   C4B59374  12.330   9.628   7.353
 9658POPC   NC359375   7.433  27.599   5.553
 9658POPC   PO459376   7.411  27.558   5.853
 9658POPC   GL159377   7.389  27.571   6.153
 9658POPC   GL259378   7.388  27.471   6.153
 9658POPC   C1A59379   7.377  27.547   6.453
 9658POPC   D2A59380   7.451  27.622   6.753
 9658POPC   C3A59381   7.450  27.547   7.053
 9658POPC   C4A59382   7.425  27.568   7.353
 9658POPC   C1B59383   7.286  27.400   6.453
 9658POPC   C2B59384   7.371  27.329   6.753
 9658POPC   C3B59385   7.354  27.341   7.053
 9658POPC   C4B59386   7.311  27.322   7.353
 9659POPC   NC359387  30.654   0.434   5.553
 9659POPC   PO459388  30.649   0.421   5.853
 9659POPC   GL159389  30.703   0.407   6.153
 9659POPC   GL259390  30.712   0.352   6.153
 9659POPC   C1A59391  30.742   0.401   6.453
 9659POPC   D2A59392  30.680   0.465   6.753
 9659POPC   C3A59393  30.724   0.482   7.053
 9659POPC   C4A59394  30.682   0.474   7.353
 9659POPC   C1B59395  30.808   0.226   6.453
 9659POPC   C2B59396  30.769   0.256   6.753
 9659POPC   C3B59397  30.829   0.215   7.053
 9659POPC   C4B59398  30.796   0.242   7.353
 9660POPC   NC359399  41.529  16.700   5.553
 9660POPC   PO459400  41.554  16.721   5.853
 9660POPC   GL159401  41.558  16.686   6.153
 9660POPC   GL259402  41.473  16.725   6.153
 9660POPC   C1A59403  41.575  16.758   6.453
 9660POPC   D2A59404  41.573  16.773   6.753
 9660POPC   C3A59405  41.605  16.768   7.053
 9660POPC   C4A59406  41.606  16.780   7.353
 9660POPC   C1B59407  41.261  16.732   6.453
 9660POPC   C2B59408  41.296  16.740   6.753
 9660POPC   C3B59409  41.354  16.777   7.053
 9660POPC   C4B59410  41.276  16.764   7.353
 9661POPC   NC359411  19.805  19.835   5.553
 9661POPC   PO459412  19.820  19.835   5.853
 9661POPC   GL159413  19.791  19.826   6.153
 9661POPC   GL259414  19.775  19.897   6.153
 9661POPC   C1A59415  19.871  19.868   6.453
 9661POPC   D2A59416  19.813  19.879   6.753
 9661POPC   C3A59417  19.793  19.793   7.053
 9661POPC   C4A59418  19.797  19.791   7.353
 9661POPC   C1B59419  19.657  20.022   6.453
 9661POPC   C2B59420  19.689  20.075   6.753
 9661POPC   C3B59421  19.711  20.057   7.053
 9661POPC   C4B59422  19.689  19.983   7.353
 9662POPC   NC359423   1.230  15.917   5.553
 9662POPC   PO459424   1.185  15.935   5.853
 9662POPC   GL159425   1.190  15.926   6.153
 9662POPC   GL259426   1.315  15.969   6.153
 9662POPC   C1A59427   1.193  15.986   6.453
 9662POPC   D2A59428   1.230  15.978   6.753
 9662POPC   C3A59429   1.198  15.959   7.053
 9662POPC   C4A59430   1.207  15.962   7.353
 9662POPC   C1B59431   1.396  16.082   6.453
 9662POPC   C2B59432   1.482  16.038   6.753
 9662POPC   C3B59433   1.418  16.053   7.053
 9662POPC   C4B59434   1.427  16.096   7.353
 9663POPC   NC359435  33.835  29.906   5.553
 9663POPC   PO459436  33.770  29.881   5.853
 9663POPC   GL159437  33.823  29.952   6.153
 9663POPC   GL259438  33.806  30.008   6.153
 9663POPC   C1A59439  33.787  29.914   6.453
 9663POPC   D2A59440  33.776  29.894   6.753
 9663POPC   C3A59441  33.827  29.929   7.053
 9663POPC   C4A59442  33.844  29.952   7.353
 9663POPC   C1B59443  33.888  30.150   6.453
 9663POPC   C2B59444  33.882  30.113   6.753
 9663POPC   C3B59445  33.905  30.147   7.053
 9663POPC   C4B59446  33.849  30.144   7.353
 9664POPC   NC359447  27.594  16.711   5.553
 9664POPC   PO459448  27.558  16.732   5.853
 9664POPC   GL159449  27.578  16.710   6.153
 9664POPC   GL259450  27.492  16.709   6.153
 9664POPC   C1A59451  27.626  16.725   6.453
 9664POPC   D2A59452  27.566  16.727   6.753
 9664POPC   C3A59453  27.606  16.737   7.053
 9664POPC   C4A59454  27.580  16.745   7.353
 9664POPC   C1B59455  27.393  16.780   6.453
 9664POPC   C2B59456  27.396  16.805   6.753
 9664POPC   C3B59457  27.350  16.793   7.053
 9664POPC   C4B59458  27.342  16.805   7.353
 9665POPC   NC359459   0.452  44.620   5.553
 9665POPC   PO459460   0.469  44.689   5.853
 9665POPC   GL159461   0.397  44.700   6.153
 9665POPC   GL259462   0.332  44.745   6.153
 9665POPC   C1A59463   0.453  44.708   6.453
 9665POPC   D2A59464   0.427  44.629   6.753
 9665POPC   C3A59465   0.426  44.665   7.053
 9665POPC   C4A59466   0.438  44.705   7.353
 9665POPC   C1B59467   0.255  44.733   6.453
 9665POPC   C2B59468   0.232  44.734   6.753
 9665POPC   C3B59469   0.234  44.719   7.053
 9665POPC   C4B59470   0.178  44.739   7.353
 9666POPC   NC359471  31.485   0.469   5.553
 9666POPC   PO459472  31.460   0.464   5.853
 9666POPC   GL159473  31.445   0.433   6.153
 9666POPC   GL259474  31.339   0.480   6.153
 9666POPC   C1A59475  31.443   0.403   6.453
 9666POPC   D2A59476  31.477   0.417   6.753
 9666POPC   C3A59477  31.445   0.481   7.053
 9666POPC   C4A59478  31.466   0.445   7.353
 9666POPC   C1B59479  31.272   0.575   6.453
 9666POPC   C2B59480  31.275   0.568   6.753
 9666POPC   C3B59481  31.302   0.554   7.053
 9666POPC   C4B59482  31.274   0.532   7.353
 9667POPC   NC359483   2.747  14.416   5.553
 9667POPC   PO459484   2.741  14.417   5.853
 9667POPC   GL159485   2.753  14.442   6.153
 9667POPC   GL259486   2.714  14.515   6.153
 9667POPC   C1A59487   2.749  14.355   6.453
 9667POPC   D2A59488   2.794  14.452   6.753
 9667POPC   C3A59489   2.725  14.425   7.053
 9667POPC   C4A59490   2.806  14.383   7.353
 9667POPC   C1B59491   2.776  14.676   6.453
 9667POPC   C2B59492   2.777  14.685   6.753
 9667POPC   C3B59493   2.734  14.639   7.053
 9667POPC   C4B59494   2.788  14.673   7.353
 9668POPC   NC359495  43.930   5.053   5.553
 9668POPC   PO459496  43.935   5.080   5.853
 9668POPC   GL159497  43.849   5.125   6.153
 9668POPC   GL259498  43.920   5.189   6.153
 9668POPC   C1A59499  43.897   5.091   6.453
 9668POPC   D2A59500  43.900   5.065   6.753
 9668POPC   C3A59501  43.902   5.127   7.053
 9668POPC   C4A59502  43.886   5.120   7.353
 9668POPC   C1B59503  43.902   5.362   6.453
 9668POPC   C2B59504  43.876   5.325   6.753
 9668POPC   C3B59505  43.865   5.333   7.053
 9668POPC   C4B59506  43.894   5.302   7.353
 9669POPC   NC359507  28.406  29.940   5.553
 9669POPC   PO459508  28.416  29.902   5.853
 9669POPC   GL159509  28.385  29.923   6.153
 9669POPC   GL259510  28.246  29.876   6.153
 9669POPC   C1A59511  28.404  29.956   6.453
 9669POPC   D2A59512  28.320  29.893   6.753
 9669POPC   C3A59513  28.407  29.900   7.053
 9669POPC   C4A59514  28.348  29.877   7.353
 9669POPC   C1B59515  28.180  29.711   6.453
 9669POPC   C2B59516  28.198  29.787   6.753
 9669POPC   C3B59517  28.188  29.744   7.053
 9669POPC   C4B59518  28.191  29.794   7.353
 9670POPC   NC359519  17.457  29.168   5.553
 9670POPC   PO459520  17.517  29.135   5.853
 9670POPC   GL159521  17.531  29.129   6.153
 9670POPC   GL259522  17.552  29.305   6.153
 9670POPC   C1A59523  17.499  29.142   6.453
 9670POPC   D2A59524  17.501  29.102   6.753
 9670POPC   C3A59525  17.488  29.099   7.053
 9670POPC   C4A59526  17.458  29.185   7.353
 9670POPC   C1B59527  17.586  29.327   6.453
 9670POPC   C2B59528  17.577  29.388   6.753
 9670POPC   C3B59529  17.576  29.371   7.053
 9670POPC   C4B59530  17.617  29.418   7.353
 9671POPC   NC359531  15.916  43.891   5.553
 9671POPC   PO459532  15.943  43.890   5.853
 9671POPC   GL159533  15.915  43.851   6.153
 9671POPC   GL259534  15.978  43.738   6.153
 9671POPC   C1A59535  16.005  43.853   6.453
 9671POPC   D2A59536  15.997  43.877   6.753
 9671POPC   C3A59537  15.991  43.879   7.053
 9671POPC   C4A59538  15.914  43.912   7.353
 9671POPC   C1B59539  15.986  43.675   6.453
 9671POPC   C2B59540  15.937  43.684   6.753
 9671POPC   C3B59541  15.971  43.596   7.053
 9671POPC   C4B59542  15.951  43.626   7.353
 9672POPC   NC359543   1.182  36.909   5.553
 9672POPC   PO459544   1.179  36.907   5.853
 9672POPC   GL159545   1.194  36.867   6.153
 9672POPC   GL259546   1.105  37.008   6.153
 9672POPC   C1A59547   1.250  36.943   6.453
 9672POPC   D2A59548   1.240  36.870   6.753
 9672POPC   C3A59549   1.190  36.947   7.053
 9672POPC   C4A59550   1.198  36.948   7.353
 9672POPC   C1B59551   1.089  37.062   6.453
 9672POPC   C2B59552   1.107  37.070   6.753
 9672POPC   C3B59553   1.081  37.139   7.053
 9672POPC   C4B59554   1.049  37.124   7.353
 9673POPC   NC359555  26.041  42.369   5.553
 9673POPC   PO459556  26.074  42.374   5.853
 9673POPC   GL159557  26.082  42.362   6.153
 9673POPC   GL259558  26.050  42.447   6.153
 9673POPC   C1A59559  26.050  42.371   6.453
 9673POPC   D2A59560  26.024  42.382   6.753
 9673POPC   C3A59561  26.002  42.362   7.053
 9673POPC   C4A59562  26.068  42.341   7.353
 9673POPC   C1B59563  26.173  42.606   6.453
 9673POPC   C2B59564  26.181  42.557   6.753
 9673POPC   C3B59565  26.165  42.567   7.053
 9673POPC   C4B59566  26.194  42.548   7.353
 9674POPC   NC359567  19.787   9.776   5.553
 9674POPC   PO459568  19.786   9.787   5.853
 9674POPC   GL159569  19.818   9.784   6.153
 9674POPC   GL259570  19.713   9.766   6.153
 9674POPC   C1A59571  19.821   9.751   6.453
 9674POPC   D2A59572  19.788   9.741   6.753
 9674POPC   C3A59573  19.787   9.728   7.053
 9674POPC   C4A59574  19.845   9.785   7.353
 9674POPC   C1B59575  19.624   9.712   6.453
 9674POPC   C2B59576  19.641   9.725   6.753
 9674POPC   C3B59577  19.583   9.715   7.053
 9674POPC   C4B59578  19.562   9.679   7.353
 9675POPC   NC359579  40.037  17.501   5.553
 9675POPC   PO459580  39.997  17.457   5.853
 9675POPC   GL159581  40.054  17.528   6.153
 9675POPC   GL259582  40.157  17.495   6.153
 9675POPC   C1A59583  39.997  17.537   6.453
 9675POPC   D2A59584  39.979  17.555   6.753
 9675POPC   C3A59585  39.966  17.498   7.053
 9675POPC   C4A59586  40.029  17.471   7.353
 9675POPC   C1B59587  40.273  17.560   6.453
 9675POPC   C2B59588  40.231  17.487   6.753
 9675POPC   C3B59589  40.250  17.507   7.053
 9675POPC   C4B59590  40.274  17.520   7.353
 9676POPC   NC359591  29.162  30.674   5.553
 9676POPC   PO459592  29.155  30.678   5.853
 9676POPC   GL159593  29.141  30.740   6.153
 9676POPC   GL259594  28.991  30.677   6.153
 9676POPC   C1A59595  29.125  30.684   6.453
 9676POPC   D2A59596  29.112  30.665   6.753
 9676POPC   C3A59597  29.187  30.722   7.053
 9676POPC   C4A59598  29.151  30.678   7.353
 9676POPC   C1B59599  28.927  30.664   6.453
 9676POPC   C2B59600  28.850  30.669   6.753
 9676POPC   C3B59601  28.866  30.648   7.053
 9676POPC   C4B59602  28.918  30.664   7.353
 9677POPC   NC359603  19.083   0.419   5.553
 9677POPC   PO459604  19.034   0.475   5.853
 9677POPC   GL159605  19.048   0.418   6.153
 9677POPC   GL259606  18.968   0.520   6.153
 9677POPC   C1A59607  19.019   0.390   6.453
 9677POPC   D2A59608  19.063   0.412   6.753
 9677POPC   C3A59609  19.068   0.399   7.053
 9677POPC   C4A59610  19.075   0.453   7.353
 9677POPC   C1B59611  18.870   0.561   6.453
 9677POPC   C2B59612  18.833   0.505   6.753
 9677POPC   C3B59613  18.775   0.536   7.053
 9677POPC   C4B59614  18.831   0.541   7.353
 9678POPC   NC359615  44.692  29.166   5.553
 9678POPC   PO459616  44.684  29.179   5.853
 9678POPC   GL159617  44.685  29.107   6.153
 9678POPC   GL259618  44.521  29.048   6.153
 9678POPC   C1A59619  44.663  29.194   6.453
 9678POPC   D2A59620  44.670  29.155   6.753
 9678POPC   C3A59621  44.698  29.127   7.053
 9678POPC   C4A59622  44.677  29.154   7.353
 9678POPC   C1B59623  44.406  29.005   6.453
 9678POPC   C2B59624  44.407  29.015   6.753
 9678POPC   C3B59625  44.395  29.000   7.053
 9678POPC   C4B59626  44.436  29.045   7.353
 9679POPC   NC359627  27.630  19.872   5.553
 9679POPC   PO459628  27.634  19.800   5.853
 9679POPC   GL159629  27.550  19.832   6.153
 9679POPC   GL259630  27.717  19.745   6.153
 9679POPC   C1A59631  27.642  19.816   6.453
 9679POPC   D2A59632  27.564  19.872   6.753
 9679POPC   C3A59633  27.598  19.805   7.053
 9679POPC   C4A59634  27.625  19.810   7.353
 9679POPC   C1B59635  27.710  19.665   6.453
 9679POPC   C2B59636  27.748  19.626   6.753
 9679POPC   C3B59637  27.763  19.673   7.053
 9679POPC   C4B59638  27.708  19.632   7.353
 9680POPC   NC359639   3.577   1.993   5.553
 9680POPC   PO459640   3.503   2.033   5.853
 9680POPC   GL159641   3.499   1.945   6.153
 9680POPC   GL259642   3.615   2.046   6.153
 9680POPC   C1A59643   3.561   1.988   6.453
 9680POPC   D2A59644   3.498   2.019   6.753
 9680POPC   C3A59645   3.559   2.032   7.053
 9680POPC   C4A59646   3.539   1.961   7.353
 9680POPC   C1B59647   3.763   2.144   6.453
 9680POPC   C2B59648   3.813   2.147   6.753
 9680POPC   C3B59649   3.772   2.121   7.053
 9680POPC   C4B59650   3.764   2.092   7.353
 9681POPC   NC359651  39.210  34.594   5.553
 9681POPC   PO459652  39.227  34.575   5.853
 9681POPC   GL159653  39.199  34.583   6.153
 9681POPC   GL259654  39.236  34.650   6.153
 9681POPC   C1A59655  39.254  34.620   6.453
 9681POPC   D2A59656  39.195  34.563   6.753
 9681POPC   C3A59657  39.189  34.613   7.053
 9681POPC   C4A59658  39.280  34.543   7.353
 9681POPC   C1B59659  39.317  34.796   6.453
 9681POPC   C2B59660  39.364  34.777   6.753
 9681POPC   C3B59661  39.320  34.796   7.053
 9681POPC   C4B59662  39.338  34.784   7.353
 9682POPC   NC359663   5.088  22.174   5.553
 9682POPC   PO459664   5.066  22.152   5.853
 9682POPC   GL159665   5.085  22.171   6.153
 9682POPC   GL259666   5.059  22.110   6.153
 9682POPC   C1A59667   5.087  22.118   6.453
 9682POPC   D2A59668   5.074  22.152   6.753
 9682POPC   C3A59669   5.087  22.124   7.053
 9682POPC   C4A59670   5.044  22.130   7.353
 9682POPC   C1B59671   4.948  21.964   6.453
 9682POPC   C2B59672   4.901  21.980   6.753
 9682POPC   C3B59673   4.904  21.947   7.053
 9682POPC   C4B59674   4.919  21.962   7.353
 9683POPC   NC359675  12.085  17.479   5.553
 9683POPC   PO459676  12.073  17.545   5.853
 9683POPC   GL159677  12.098  17.506   6.153
 9683POPC   GL259678  12.225  17.478   6.153
 9683POPC   C1A59679  12.044  17.492   6.453
 9683POPC   D2A59680  12.041  17.544   6.753
 9683POPC   C3A59681  12.079  17.490   7.053
 9683POPC   C4A59682  12.049  17.510   7.353
 9683POPC   C1B59683  12.306  17.356   6.453
 9683POPC   C2B59684  12.327  17.430   6.753
 9683POPC   C3B59685  12.333  17.390   7.053
 9683POPC   C4B59686  12.319  17.441   7.353
 9684POPC   NC359687  20.620   1.961   5.553
 9684POPC   PO459688  20.619   2.039   5.853
 9684POPC   GL159689  20.596   1.953   6.153
 9684POPC   GL259690  20.529   2.106   6.153
 9684POPC   C1A59691  20.635   1.989   6.453
 9684POPC   D2A59692  20.594   1.979   6.753
 9684POPC   C3A59693  20.564   1.993   7.053
 9684POPC   C4A59694  20.649   2.035   7.353
 9684POPC   C1B59695  20.542   2.194   6.453
 9684POPC   C2B59696  20.473   2.203   6.753
 9684POPC   C3B59697  20.540   2.220   7.053
 9684POPC   C4B59698  20.532   2.188   7.353
 9685POPC   NC359699   9.008  11.296   5.553
 9685POPC   PO459700   9.010  11.285   5.853
 9685POPC   GL159701   8.953  11.265   6.153
 9685POPC   GL259702   9.000  11.391   6.153
 9685POPC   C1A59703   8.956  11.337   6.453
 9685POPC   D2A59704   8.972  11.284   6.753
 9685POPC   C3A59705   8.996  11.327   7.053
 9685POPC   C4A59706   8.976  11.301   7.353
 9685POPC   C1B59707   8.955  11.593   6.453
 9685POPC   C2B59708   8.954  11.594   6.753
 9685POPC   C3B59709   8.915  11.596   7.053
 9685POPC   C4B59710   8.948  11.507   7.353
 9686POPC   NC359711  28.392  26.834   5.553
 9686POPC   PO459712  28.400  26.769   5.853
 9686POPC   GL159713  28.371  26.769   6.153
 9686POPC   GL259714  28.289  26.794   6.153
 9686POPC   C1A59715  28.355  26.774   6.453
 9686POPC   D2A59716  28.403  26.778   6.753
 9686POPC   C3A59717  28.337  26.853   7.053
 9686POPC   C4A59718  28.361  26.788   7.353
 9686POPC   C1B59719  28.136  26.721   6.453
 9686POPC   C2B59720  28.112  26.752   6.753
 9686POPC   C3B59721  28.153  26.751   7.053
 9686POPC   C4B59722  28.157  26.776   7.353
 9687POPC   NC359723  33.026  19.789   5.553
 9687POPC   PO459724  33.029  19.811   5.853
 9687POPC   GL159725  33.029  19.848   6.153
 9687POPC   GL259726  33.051  19.982   6.153
 9687POPC   C1A59727  33.049  19.820   6.453
 9687POPC   D2A59728  33.000  19.863   6.753
 9687POPC   C3A59729  33.035  19.840   7.053
 9687POPC   C4A59730  33.026  19.805   7.353
 9687POPC   C1B59731  33.151  20.030   6.453
 9687POPC   C2B59732  33.140  20.061   6.753
 9687POPC   C3B59733  33.080  20.021   7.053
 9687POPC   C4B59734  33.111  20.056   7.353
 9688POPC   NC359735  14.425  30.741   5.553
 9688POPC   PO459736  14.381  30.721   5.853
 9688POPC   GL159737  14.372  30.647   6.153
 9688POPC   GL259738  14.287  30.793   6.153
 9688POPC   C1A59739  14.358  30.718   6.453
 9688POPC   D2A59740  14.413  30.703   6.753
 9688POPC   C3A59741  14.435  30.683   7.053
 9688POPC   C4A59742  14.430  30.741   7.353
 9688POPC   C1B59743  14.178  30.818   6.453
 9688POPC   C2B59744  14.173  30.879   6.753
 9688POPC   C3B59745  14.186  30.837   7.053
 9688POPC   C4B59746  14.202  30.871   7.353
 9689POPC   NC359747   2.034  42.303   5.553
 9689POPC   PO459748   1.952  42.298   5.853
 9689POPC   GL159749   1.952  42.322   6.153
 9689POPC   GL259750   2.022  42.177   6.153
 9689POPC   C1A59751   2.010  42.365   6.453
 9689POPC   D2A59752   1.954  42.381   6.753
 9689POPC   C3A59753   1.979  42.304   7.053
 9689POPC   C4A59754   2.015  42.305   7.353
 9689POPC   C1B59755   2.062  42.146   6.453
 9689POPC   C2B59756   2.052  42.066   6.753
 9689POPC   C3B59757   2.101  42.124   7.053
 9689POPC   C4B59758   2.064  42.094   7.353
 9690POPC   NC359759   9.764  37.637   5.553
 9690POPC   PO459760   9.775  37.682   5.853
 9690POPC   GL159761   9.745  37.671   6.153
 9690POPC   GL259762   9.820  37.601   6.153
 9690POPC   C1A59763   9.794  37.631   6.453
 9690POPC   D2A59764   9.751  37.649   6.753
 9690POPC   C3A59765   9.723  37.721   7.053
 9690POPC   C4A59766   9.760  37.677   7.353
 9690POPC   C1B59767   9.911  37.467   6.453
 9690POPC   C2B59768   9.896  37.513   6.753
 9690POPC   C3B59769   9.844  37.486   7.053
 9690POPC   C4B59770   9.853  37.514   7.353
 9691POPC   NC359771  39.220  36.134   5.553
 9691POPC   PO459772  39.211  36.096   5.853
 9691POPC   GL159773  39.206  36.104   6.153
 9691POPC   GL259774  39.205  36.007   6.153
 9691POPC   C1A59775  39.213  36.133   6.453
 9691POPC   D2A59776  39.216  36.149   6.753
 9691POPC   C3A59777  39.263  36.125   7.053
 9691POPC   C4A59778  39.231  36.131   7.353
 9691POPC   C1B59779  39.113  35.894   6.453
 9691POPC   C2B59780  39.155  35.944   6.753
 9691POPC   C3B59781  39.088  35.859   7.053
 9691POPC   C4B59782  39.158  35.907   7.353
 9692POPC   NC359783  24.452  40.751   5.553
 9692POPC   PO459784  24.510  40.781   5.853
 9692POPC   GL159785  24.502  40.761   6.153
 9692POPC   GL259786  24.392  40.900   6.153
 9692POPC   C1A59787  24.514  40.760   6.453
 9692POPC   D2A59788  24.476  40.761   6.753
 9692POPC   C3A59789  24.453  40.830   7.053
 9692POPC   C4A59790  24.460  40.782   7.353
 9692POPC   C1B59791  24.385  40.959   6.453
 9692POPC   C2B59792  24.387  40.961   6.753
 9692POPC   C3B59793  24.351  40.995   7.053
 9692POPC   C4B59794  24.340  40.991   7.353
 9693POPC   NC359795  11.251  26.028   5.553
 9693POPC   PO459796  11.269  26.046   5.853
 9693POPC   GL159797  11.316  26.005   6.153
 9693POPC   GL259798  11.209  26.065   6.153
 9693POPC   C1A59799  11.253  26.088   6.453
 9693POPC   D2A59800  11.343  26.047   6.753
 9693POPC   C3A59801  11.328  26.001   7.053
 9693POPC   C4A59802  11.324  26.005   7.353
 9693POPC   C1B59803  11.098  26.120   6.453
 9693POPC   C2B59804  11.079  26.090   6.753
 9693POPC   C3B59805  11.070  26.065   7.053
 9693POPC   C4B59806  11.067  26.155   7.353
 9694POPC   NC359807   9.011  26.860   5.553
 9694POPC   PO459808   9.003  26.822   5.853
 9694POPC   GL159809   8.989  26.805   6.153
 9694POPC   GL259810   8.887  26.708   6.153
 9694POPC   C1A59811   8.982  26.795   6.453
 9694POPC   D2A59812   9.014  26.829   6.753
 9694POPC   C3A59813   8.959  26.804   7.053
 9694POPC   C4A59814   8.924  26.793   7.353
 9694POPC   C1B59815   8.873  26.651   6.453
 9694POPC   C2B59816   8.836  26.579   6.753
 9694POPC   C3B59817   8.844  26.605   7.053
 9694POPC   C4B59818   8.803  26.587   7.353
 9695POPC   NC359819  29.943  15.951   5.553
 9695POPC   PO459820  29.954  15.930   5.853
 9695POPC   GL159821  29.942  15.968   6.153
 9695POPC   GL259822  30.008  16.045   6.153
 9695POPC   C1A59823  29.950  15.936   6.453
 9695POPC   D2A59824  29.874  15.916   6.753
 9695POPC   C3A59825  29.935  15.990   7.053
 9695POPC   C4A59826  29.930  15.931   7.353
 9695POPC   C1B59827  30.055  16.220   6.453
 9695POPC   C2B59828  30.009  16.184   6.753
 9695POPC   C3B59829  29.981  16.186   7.053
 9695POPC   C4B59830  30.035  16.166   7.353
 9696POPC   NC359831  19.857  29.162   5.553
 9696POPC   PO459832  19.849  29.165   5.853
 9696POPC   GL159833  19.794  29.180   6.153
 9696POPC   GL259834  19.717  29.174   6.153
 9696POPC   C1A59835  19.832  29.124   6.453
 9696POPC   D2A59836  19.817  29.155   6.753
 9696POPC   C3A59837  19.791  29.182   7.053
 9696POPC   C4A59838  19.807  29.143   7.353
 9696POPC   C1B59839  19.577  29.230   6.453
 9696POPC   C2B59840  19.583  29.229   6.753
 9696POPC   C3B59841  19.595  29.253   7.053
 9696POPC   C4B59842  19.601  29.298   7.353
 9697POPC   NC359843   1.951  22.207   5.553
 9697POPC   PO459844   1.992  22.115   5.853
 9697POPC   GL159845   1.970  22.161   6.153
 9697POPC   GL259846   1.964  22.278   6.153
 9697POPC   C1A59847   2.017  22.185   6.453
 9697POPC   D2A59848   1.988  22.192   6.753
 9697POPC   C3A59849   2.017  22.194   7.053
 9697POPC   C4A59850   1.985  22.115   7.353
 9697POPC   C1B59851   1.958  22.374   6.453
 9697POPC   C2B59852   1.966  22.389   6.753
 9697POPC   C3B59853   1.903  22.415   7.053
 9697POPC   C4B59854   1.960  22.374   7.353
 9698POPC   NC359855  23.720   9.739   5.553
 9698POPC   PO459856  23.692   9.786   5.853
 9698POPC   GL159857  23.714   9.771   6.153
 9698POPC   GL259858  23.628   9.764   6.153
 9698POPC   C1A59859  23.696   9.740   6.453
 9698POPC   D2A59860  23.753   9.773   6.753
 9698POPC   C3A59861  23.718   9.746   7.053
 9698POPC   C4A59862  23.672   9.775   7.353
 9698POPC   C1B59863  23.507   9.715   6.453
 9698POPC   C2B59864  23.490   9.674   6.753
 9698POPC   C3B59865  23.460   9.654   7.053
 9698POPC   C4B59866  23.515   9.659   7.353
 9699POPC   NC359867   1.975  22.952   5.553
 9699POPC   PO459868   1.996  22.974   5.853
 9699POPC   GL159869   1.995  22.898   6.153
 9699POPC   GL259870   1.988  23.084   6.153
 9699POPC   C1A59871   1.943  22.944   6.453
 9699POPC   D2A59872   2.039  22.981   6.753
 9699POPC   C3A59873   2.028  22.966   7.053
 9699POPC   C4A59874   1.980  22.915   7.353
 9699POPC   C1B59875   1.924  23.200   6.453
 9699POPC   C2B59876   1.907  23.203   6.753
 9699POPC   C3B59877   1.875  23.180   7.053
 9699POPC   C4B59878   1.935  23.178   7.353
 9700POPC   NC359879   0.393  23.698   5.553
 9700POPC   PO459880   0.421  23.752   5.853
 9700POPC   GL159881   0.396  23.723   6.153
 9700POPC   GL259882   0.402  23.550   6.153
 9700POPC   C1A59883   0.426  23.720   6.453
 9700POPC   D2A59884   0.470  23.697   6.753
 9700POPC   C3A59885   0.440  23.761   7.053
 9700POPC   C4A59886   0.464  23.735   7.353
 9700POPC   C1B59887   0.439  23.421   6.453
 9700POPC   C2B59888   0.391  23.468   6.753
 9700POPC   C3B59889   0.467  23.450   7.053
 9700POPC   C4B59890   0.391  23.465   7.353
 9701POPC   NC359891  43.084  39.269   5.553
 9701POPC   PO459892  43.092  39.186   5.853
 9701POPC   GL159893  43.096  39.242   6.153
 9701POPC   GL259894  43.255  39.215   6.153
 9701POPC   C1A59895  43.079  39.278   6.453
 9701POPC   D2A59896  43.067  39.261   6.753
 9701POPC   C3A59897  43.077  39.255   7.053
 9701POPC   C4A59898  43.119  39.246   7.353
 9701POPC   C1B59899  43.284  39.070   6.453
 9701POPC   C2B59900  43.357  39.120   6.753
 9701POPC   C3B59901  43.288  39.082   7.053
 9701POPC   C4B59902  43.293  39.069   7.353
 9702POPC   NC359903   5.900  34.532   5.553
 9702POPC   PO459904   5.881  34.623   5.853
 9702POPC   GL159905   5.840  34.563   6.153
 9702POPC   GL259906   5.866  34.478   6.153
 9702POPC   C1A59907   5.901  34.604   6.453
 9702POPC   D2A59908   5.918  34.579   6.753
 9702POPC   C3A59909   5.905  34.571   7.053
 9702POPC   C4A59910   5.903  34.546   7.353
 9702POPC   C1B59911   5.829  34.280   6.453
 9702POPC   C2B59912   5.886  34.357   6.753
 9702POPC   C3B59913   5.897  34.374   7.053
 9702POPC   C4B59914   5.906  34.303   7.353
 9703POPC   NC359915  30.723  13.616   5.553
 9703POPC   PO459916  30.738  13.669   5.853
 9703POPC   GL159917  30.700  13.614   6.153
 9703POPC   GL259918  30.596  13.563   6.153
 9703POPC   C1A59919  30.692  13.617   6.453
 9703POPC   D2A59920  30.651  13.629   6.753
 9703POPC   C3A59921  30.726  13.631   7.053
 9703POPC   C4A59922  30.668  13.652   7.353
 9703POPC   C1B59923  30.435  13.504   6.453
 9703POPC   C2B59924  30.427  13.487   6.753
 9703POPC   C3B59925  30.477  13.503   7.053
 9703POPC   C4B59926  30.499  13.487   7.353
 9704POPC   NC359927   8.967  22.192   5.553
 9704POPC   PO459928   9.017  22.177   5.853
 9704POPC   GL159929   8.945  22.172   6.153
 9704POPC   GL259930   9.067  22.144   6.153
 9704POPC   C1A59931   8.984  22.175   6.453
 9704POPC   D2A59932   8.933  22.142   6.753
 9704POPC   C3A59933   8.943  22.128   7.053
 9704POPC   C4A59934   8.924  22.152   7.353
 9704POPC   C1B59935   9.201  22.078   6.453
 9704POPC   C2B59936   9.178  22.089   6.753
 9704POPC   C3B59937   9.167  22.052   7.053
 9704POPC   C4B59938   9.197  22.042   7.353
 9705POPC   NC359939  40.777   4.333   5.553
 9705POPC   PO459940  40.785   4.366   5.853
 9705POPC   GL159941  40.740   4.304   6.153
 9705POPC   GL259942  40.759   4.213   6.153
 9705POPC   C1A59943  40.756   4.330   6.453
 9705POPC   D2A59944  40.791   4.336   6.753
 9705POPC   C3A59945  40.799   4.301   7.053
 9705POPC   C4A59946  40.826   4.306   7.353
 9705POPC   C1B59947  40.803   4.109   6.453
 9705POPC   C2B59948  40.866   4.046   6.753
 9705POPC   C3B59949  40.844   4.106   7.053
 9705POPC   C4B59950  40.787   4.117   7.353
 9706POPC   NC359951  37.640   4.293   5.553
 9706POPC   PO459952  37.632   4.290   5.853
 9706POPC   GL159953  37.673   4.345   6.153
 9706POPC   GL259954  37.792   4.178   6.153
 9706POPC   C1A59955  37.653   4.359   6.453
 9706POPC   D2A59956  37.701   4.330   6.753
 9706POPC   C3A59957  37.649   4.286   7.053
 9706POPC   C4A59958  37.641   4.359   7.353
 9706POPC   C1B59959  37.824   4.117   6.453
 9706POPC   C2B59960  37.860   4.124   6.753
 9706POPC   C3B59961  37.811   4.124   7.053
 9706POPC   C4B59962  37.849   4.079   7.353
 9707POPC   NC359963  32.978  16.774   5.553
 9707POPC   PO459964  33.061  16.735   5.853
 9707POPC   GL159965  32.995  16.694   6.153
 9707POPC   GL259966  32.906  16.660   6.153
 9707POPC   C1A59967  32.985  16.731   6.453
 9707POPC   D2A59968  32.989  16.745   6.753
 9707POPC   C3A59969  33.045  16.694   7.053
 9707POPC   C4A59970  33.024  16.769   7.353
 9707POPC   C1B59971  32.766  16.650   6.453
 9707POPC   C2B59972  32.837  16.691   6.753
 9707POPC   C3B59973  32.800  16.668   7.053
 9707POPC   C4B59974  32.768  16.692   7.353
 9708POPC   NC359975   5.840  43.919   5.553
 9708POPC   PO459976   5.840  43.873   5.853
 9708POPC   GL159977   5.843  43.904   6.153
 9708POPC   GL259978   5.775  44.008   6.153
 9708POPC   C1A59979   5.881  43.860   6.453
 9708POPC   D2A59980   5.829  43.857   6.753
 9708POPC   C3A59981   5.870  43.910   7.053
 9708POPC   C4A59982   5.826  43.840   7.353
 9708POPC   C1B59983   5.712  44.032   6.453
 9708POPC   C2B59984   5.722  44.017   6.753
 9708POPC   C3B59985   5.668  44.008   7.053
 9708POPC   C4B59986   5.719  44.044   7.353
 9709POPC   NC359987   3.584  39.256   5.553
 9709POPC   PO459988   3.557  39.197   5.853
 9709POPC   GL159989   3.529  39.263   6.153
 9709POPC   GL259990   3.698  39.244   6.153
 9709POPC   C1A59991   3.511  39.234   6.453
 9709POPC   D2A59992   3.586  39.182   6.753
 9709POPC   C3A59993   3.513  39.193   7.053
 9709POPC   C4A59994   3.521  39.221   7.353
 9709POPC   C1B59995   3.803  39.320   6.453
 9709POPC   C2B59996   3.775  39.309   6.753
 9709POPC   C3B59997   3.830  39.319   7.053
 9709POPC   C4B59998   3.755  39.322   7.353
 9710POPC   NC359999  27.562   8.931   5.553
 9710POPC   PO460000  27.565   8.957   5.853
 9710POPC   GL160001  27.575   9.019   6.153
 9710POPC   GL260002  27.551   8.875   6.153
 9710POPC   C1A60003  27.591   8.971   6.453
 9710POPC   D2A60004  27.577   9.008   6.753
 9710POPC   C3A60005  27.622   8.951   7.053
 9710POPC   C4A60006  27.633   8.955   7.353
 9710POPC   C1B60007  27.479   8.766   6.453
 9710POPC   C2B60008  27.455   8.730   6.753
 9710POPC   C3B60009  27.515   8.718   7.053
 9710POPC   C4B60010  27.455   8.775   7.353
 9711POPC   NC360011  19.843  34.608   5.553
 9711POPC   PO460012  19.859  34.552   5.853
 9711POPC   GL160013  19.834  34.568   6.153
 9711POPC   GL260014  19.904  34.479   6.153
 9711POPC   C1A60015  19.879  34.544   6.453
 9711POPC   D2A60016  19.848  34.584   6.753
 9711POPC   C3A60017  19.876  34.562   7.053
 9711POPC   C4A60018  19.819  34.537   7.353
 9711POPC   C1B60019  19.857  34.343   6.453
 9711POPC   C2B60020  19.937  34.318   6.753
 9711POPC   C3B60021  19.881  34.335   7.053
 9711POPC   C4B60022  19.883  34.350   7.353
 9712POPC   NC360023  39.255   8.195   5.553
 9712POPC   PO460024  39.232   8.150   5.853
 9712POPC   GL160025  39.235   8.241   6.153
 9712POPC   GL260026  39.333   8.080   6.153
 9712POPC   C1A60027  39.281   8.238   6.453
 9712POPC   D2A60028  39.217   8.180   6.753
 9712POPC   C3A60029  39.250   8.241   7.053
 9712POPC   C4A60030  39.181   8.158   7.353
 9712POPC   C1B60031  39.383   7.981   6.453
 9712POPC   C2B60032  39.319   7.946   6.753
 9712POPC   C3B60033  39.326   7.963   7.053
 9712POPC   C4B60034  39.337   7.973   7.353
 9713POPC   NC360035  16.721  29.961   5.553
 9713POPC   PO460036  16.751  29.942   5.853
 9713POPC   GL160037  16.735  29.942   6.153
 9713POPC   GL260038  16.598  29.943   6.153
 9713POPC   C1A60039  16.750  29.876   6.453
 9713POPC   D2A60040  16.708  29.898   6.753
 9713POPC   C3A60041  16.699  29.934   7.053
 9713POPC   C4A60042  16.702  29.915   7.353
 9713POPC   C1B60043  16.490  29.966   6.453
 9713POPC   C2B60044  16.526  29.993   6.753
 9713POPC   C3B60045  16.467  30.009   7.053
 9713POPC   C4B60046  16.464  29.968   7.353
 9714POPC   NC360047   4.267  12.074   5.553
 9714POPC   PO460048   4.295  12.102   5.853
 9714POPC   GL160049   4.273  12.081   6.153
 9714POPC   GL260050   4.201  12.034   6.153
 9714POPC   C1A60051   4.318  12.037   6.453
 9714POPC   D2A60052   4.312  12.125   6.753
 9714POPC   C3A60053   4.321  12.079   7.053
 9714POPC   C4A60054   4.280  12.125   7.353
 9714POPC   C1B60055   4.040  12.032   6.453
 9714POPC   C2B60056   4.086  12.041   6.753
 9714POPC   C3B60057   4.041  12.017   7.053
 9714POPC   C4B60058   4.103  12.007   7.353
 9715POPC   NC360059   4.337  24.445   5.553
 9715POPC   PO460060   4.276  24.469   5.853
 9715POPC   GL160061   4.287  24.523   6.153
 9715POPC   GL260062   4.234  24.563   6.153
 9715POPC   C1A60063   4.284  24.520   6.453
 9715POPC   D2A60064   4.359  24.457   6.753
 9715POPC   C3A60065   4.270  24.534   7.053
 9715POPC   C4A60066   4.283  24.442   7.353
 9715POPC   C1B60067   4.096  24.694   6.453
 9715POPC   C2B60068   4.127  24.644   6.753
 9715POPC   C3B60069   4.173  24.622   7.053
 9715POPC   C4B60070   4.114  24.685   7.353
 9716POPC   NC360071  13.637  15.227   5.553
 9716POPC   PO460072  13.626  15.223   5.853
 9716POPC   GL160073  13.631  15.150   6.153
 9716POPC   GL260074  13.629  15.340   6.153
 9716POPC   C1A60075  13.669  15.157   6.453
 9716POPC   D2A60076  13.645  15.214   6.753
 9716POPC   C3A60077  13.600  15.181   7.053
 9716POPC   C4A60078  13.644  15.184   7.353
 9716POPC   C1B60079  13.535  15.375   6.453
 9716POPC   C2B60080  13.616  15.379   6.753
 9716POPC   C3B60081  13.556  15.397   7.053
 9716POPC   C4B60082  13.609  15.395   7.353
 9717POPC   NC360083  30.669  36.865   5.553
 9717POPC   PO460084  30.708  36.920   5.853
 9717POPC   GL160085  30.681  36.885   6.153
 9717POPC   GL260086  30.624  36.804   6.153
 9717POPC   C1A60087  30.687  36.934   6.453
 9717POPC   D2A60088  30.682  36.915   6.753
 9717POPC   C3A60089  30.744  36.896   7.053
 9717POPC   C4A60090  30.680  36.953   7.353
 9717POPC   C1B60091  30.608  36.685   6.453
 9717POPC   C2B60092  30.672  36.693   6.753
 9717POPC   C3B60093  30.668  36.669   7.053
 9717POPC   C4B60094  30.644  36.642   7.353
 9718POPC   NC360095  40.025  16.753   5.553
 9718POPC   PO460096  39.971  16.721   5.853
 9718POPC   GL160097  40.026  16.709   6.153
 9718POPC   GL260098  39.997  16.571   6.153
 9718POPC   C1A60099  39.986  16.697   6.453
 9718POPC   D2A60100  39.963  16.768   6.753
 9718POPC   C3A60101  40.011  16.707   7.053
 9718POPC   C4A60102  39.957  16.699   7.353
 9718POPC   C1B60103  39.981  16.439   6.453
 9718POPC   C2B60104  40.017  16.448   6.753
 9718POPC   C3B60105  39.995  16.500   7.053
 9718POPC   C4B60106  40.062  16.531   7.353
 9719POPC   NC360107  22.120  13.582   5.553
 9719POPC   PO460108  22.117  13.609   5.853
 9719POPC   GL160109  22.183  13.596   6.153
 9719POPC   GL260110  22.139  13.783   6.153
 9719POPC   C1A60111  22.143  13.585   6.453
 9719POPC   D2A60112  22.137  13.600   6.753
 9719POPC   C3A60113  22.132  13.604   7.053
 9719POPC   C4A60114  22.167  13.638   7.353
 9719POPC   C1B60115  22.194  13.896   6.453
 9719POPC   C2B60116  22.167  13.832   6.753
 9719POPC   C3B60117  22.167  13.859   7.053
 9719POPC   C4B60118  22.165  13.900   7.353
 9720POPC   NC360119   8.979  29.131   5.553
 9720POPC   PO460120   8.961  29.122   5.853
 9720POPC   GL160121   8.927  29.190   6.153
 9720POPC   GL260122   8.958  28.987   6.153
 9720POPC   C1A60123   8.929  29.138   6.453
 9720POPC   D2A60124   9.014  29.143   6.753
 9720POPC   C3A60125   8.969  29.104   7.053
 9720POPC   C4A60126   8.999  29.180   7.353
 9720POPC   C1B60127   9.039  28.862   6.453
 9720POPC   C2B60128   9.011  28.898   6.753
 9720POPC   C3B60129   9.041  28.863   7.053
 9720POPC   C4B60130   9.030  28.860   7.353
 9721POPC   NC360131  36.947  43.932   5.553
 9721POPC   PO460132  36.913  43.889   5.853
 9721POPC   GL160133  36.891  43.891   6.153
 9721POPC   GL260134  37.061  43.872   6.153
 9721POPC   C1A60135  36.875  43.893   6.453
 9721POPC   D2A60136  36.953  43.900   6.753
 9721POPC   C3A60137  36.899  43.885   7.053
 9721POPC   C4A60138  36.953  43.906   7.353
 9721POPC   C1B60139  37.148  43.910   6.453
 9721POPC   C2B60140  37.185  43.998   6.753
 9721POPC   C3B60141  37.117  43.976   7.053
 9721POPC   C4B60142  37.190  43.932   7.353
 9722POPC   NC360143  22.189   0.430   5.553
 9722POPC   PO460144  22.188   0.412   5.853
 9722POPC   GL160145  22.182   0.470   6.153
 9722POPC   GL260146  22.226   0.310   6.153
 9722POPC   C1A60147  22.210   0.391   6.453
 9722POPC   D2A60148  22.183   0.395   6.753
 9722POPC   C3A60149  22.206   0.391   7.053
 9722POPC   C4A60150  22.181   0.423   7.353
 9722POPC   C1B60151  22.236   0.216   6.453
 9722POPC   C2B60152  22.223   0.239   6.753
 9722POPC   C3B60153  22.185   0.153   7.053
 9722POPC   C4B60154  22.220   0.169   7.353
 9723POPC   NC360155  42.326  12.857   5.553
 9723POPC   PO460156  42.364  12.845   5.853
 9723POPC   GL160157  42.329  12.806   6.153
 9723POPC   GL260158  42.326  12.679   6.153
 9723POPC   C1A60159  42.373  12.874   6.453
 9723POPC   D2A60160  42.293  12.898   6.753
 9723POPC   C3A60161  42.363  12.811   7.053
 9723POPC   C4A60162  42.376  12.803   7.353
 9723POPC   C1B60163  42.396  12.557   6.453
 9723POPC   C2B60164  42.385  12.564   6.753
 9723POPC   C3B60165  42.395  12.569   7.053
 9723POPC   C4B60166  42.391  12.577   7.353
 9724POPC   NC360167  40.053  22.181   5.553
 9724POPC   PO460168  39.974  22.147   5.853
 9724POPC   GL160169  39.991  22.137   6.153
 9724POPC   GL260170  40.110  22.094   6.153
 9724POPC   C1A60171  39.977  22.199   6.453
 9724POPC   D2A60172  39.991  22.120   6.753
 9724POPC   C3A60173  40.017  22.156   7.053
 9724POPC   C4A60174  39.978  22.182   7.353
 9724POPC   C1B60175  40.219  22.074   6.453
 9724POPC   C2B60176  40.231  21.998   6.753
 9724POPC   C3B60177  40.202  22.044   7.053
 9724POPC   C4B60178  40.238  22.053   7.353
 9725POPC   NC360179  19.841  31.434   5.553
 9725POPC   PO460180  19.807  31.482   5.853
 9725POPC   GL160181  19.864  31.453   6.153
 9725POPC   GL260182  19.763  31.420   6.153
 9725POPC   C1A60183  19.839  31.490   6.453
 9725POPC   D2A60184  19.867  31.522   6.753
 9725POPC   C3A60185  19.811  31.442   7.053
 9725POPC   C4A60186  19.847  31.513   7.353
 9725POPC   C1B60187  19.665  31.320   6.453
 9725POPC   C2B60188  19.673  31.304   6.753
 9725POPC   C3B60189  19.622  31.336   7.053
 9725POPC   C4B60190  19.689  31.325   7.353
 9726POPC   NC360191   3.588  43.148   5.553
 9726POPC   PO460192   3.575  43.125   5.853
 9726POPC   GL160193   3.540  43.122   6.153
 9726POPC   GL260194   3.581  42.994   6.153
 9726POPC   C1A60195   3.545  43.141   6.453
 9726POPC   D2A60196   3.569  43.124   6.753
 9726POPC   C3A60197   3.529  43.132   7.053
 9726POPC   C4A60198   3.493  43.157   7.353
 9726POPC   C1B60199   3.676  42.935   6.453
 9726POPC   C2B60200   3.748  42.981   6.753
 9726POPC   C3B60201   3.769  42.887   7.053
 9726POPC   C4B60202   3.706  42.908   7.353
 9727POPC   NC360203   9.775  22.211   5.553
 9727POPC   PO460204   9.732  22.138   5.853
 9727POPC   GL160205   9.761  22.161   6.153
 9727POPC   GL260206   9.710  22.027   6.153
 9727POPC   C1A60207   9.728  22.129   6.453
 9727POPC   D2A60208   9.713  22.170   6.753
 9727POPC   C3A60209   9.728  22.165   7.053
 9727POPC   C4A60210   9.725  22.115   7.353
 9727POPC   C1B60211   9.604  21.919   6.453
 9727POPC   C2B60212   9.567  21.932   6.753
 9727POPC   C3B60213   9.609  21.966   7.053
 9727POPC   C4B60214   9.617  21.919   7.353
 9728POPC   NC360215  37.727  44.680   5.553
 9728POPC   PO460216  37.684  44.677   5.853
 9728POPC   GL160217  37.729  44.620   6.153
 9728POPC   GL260218  37.717  44.768   6.153
 9728POPC   C1A60219  37.714  44.704   6.453
 9728POPC   D2A60220  37.655  44.668   6.753
 9728POPC   C3A60221  37.686  44.668   7.053
 9728POPC   C4A60222  37.688  44.699   7.353
 9728POPC   C1B60223  37.684  44.938   6.453
 9728POPC   C2B60224  37.730  44.907   6.753
 9728POPC   C3B60225  37.737  44.921   7.053
 9728POPC   C4B60226  37.689  44.899   7.353
 9729POPC   NC360227  33.839   5.083   5.553
 9729POPC   PO460228  33.836   5.117   5.853
 9729POPC   GL160229  33.769   5.132   6.153
 9729POPC   GL260230  33.807   5.206   6.153
 9729POPC   C1A60231  33.781   5.085   6.453
 9729POPC   D2A60232  33.792   5.049   6.753
 9729POPC   C3A60233  33.782   5.093   7.053
 9729POPC   C4A60234  33.765   5.079   7.353
 9729POPC   C1B60235  33.960   5.308   6.453
 9729POPC   C2B60236  33.926   5.278   6.753
 9729POPC   C3B60237  33.879   5.296   7.053
 9729POPC   C4B60238  33.953   5.343   7.353
 9730POPC   NC360239  27.567  15.224   5.553
 9730POPC   PO460240  27.610  15.158   5.853
 9730POPC   GL160241  27.632  15.222   6.153
 9730POPC   GL260242  27.508  15.136   6.153
 9730POPC   C1A60243  27.603  15.133   6.453
 9730POPC   D2A60244  27.545  15.158   6.753
 9730POPC   C3A60245  27.579  15.196   7.053
 9730POPC   C4A60246  27.582  15.163   7.353
 9730POPC   C1B60247  27.428  15.049   6.453
 9730POPC   C2B60248  27.355  14.991   6.753
 9730POPC   C3B60249  27.415  15.058   7.053
 9730POPC   C4B60250  27.357  15.076   7.353
 9731POPC   NC360251  12.102   4.345   5.553
 9731POPC   PO460252  12.064   4.289   5.853
 9731POPC   GL160253  12.117   4.322   6.153
 9731POPC   GL260254  12.174   4.399   6.153
 9731POPC   C1A60255  12.067   4.294   6.453
 9731POPC   D2A60256  12.124   4.334   6.753
 9731POPC   C3A60257  12.080   4.288   7.053
 9731POPC   C4A60258  12.047   4.285   7.353
 9731POPC   C1B60259  12.301   4.362   6.453
 9731POPC   C2B60260  12.311   4.388   6.753
 9731POPC   C3B60261  12.339   4.345   7.053
 9731POPC   C4B60262  12.317   4.431   7.353
 9732POPC   NC360263  39.199   8.991   5.553
 9732POPC   PO460264  39.188   8.972   5.853
 9732POPC   GL160265  39.271   8.941   6.153
 9732POPC   GL260266  39.093   8.934   6.153
 9732POPC   C1A60267  39.247   9.013   6.453
 9732POPC   D2A60268  39.277   8.924   6.753
 9732POPC   C3A60269  39.191   8.940   7.053
 9732POPC   C4A60270  39.243   9.017   7.353
 9732POPC   C1B60271  38.991   8.962   6.453
 9732POPC   C2B60272  39.031   8.959   6.753
 9732POPC   C3B60273  38.964   8.964   7.053
 9732POPC   C4B60274  38.965   8.949   7.353
 9733POPC   NC360275   5.833   5.897   5.553
 9733POPC   PO460276   5.866   5.909   5.853
 9733POPC   GL160277   5.873   5.895   6.153
 9733POPC   GL260278   5.857   5.955   6.153
 9733POPC   C1A60279   5.892   5.867   6.453
 9733POPC   D2A60280   5.911   5.883   6.753
 9733POPC   C3A60281   5.857   5.884   7.053
 9733POPC   C4A60282   5.828   5.873   7.353
 9733POPC   C1B60283   5.875   6.143   6.453
 9733POPC   C2B60284   5.864   6.130   6.753
 9733POPC   C3B60285   5.925   6.102   7.053
 9733POPC   C4B60286   5.889   6.083   7.353
 9734POPC   NC360287  41.525  12.079   5.553
 9734POPC   PO460288  41.570  12.072   5.853
 9734POPC   GL160289  41.553  12.056   6.153
 9734POPC   GL260290  41.437  11.999   6.153
 9734POPC   C1A60291  41.554  12.101   6.453
 9734POPC   D2A60292  41.518  12.026   6.753
 9734POPC   C3A60293  41.574  12.089   7.053
 9734POPC   C4A60294  41.542  12.093   7.353
 9734POPC   C1B60295  41.362  11.991   6.453
 9734POPC   C2B60296  41.304  11.985   6.753
 9734POPC   C3B60297  41.312  11.920   7.053
 9734POPC   C4B60298  41.388  11.906   7.353
 9735POPC   NC360299   4.313  29.168   5.553
 9735POPC   PO460300   4.367  29.096   5.853
 9735POPC   GL160301   4.302  29.174   6.153
 9735POPC   GL260302   4.268  29.028   6.153
 9735POPC   C1A60303   4.286  29.107   6.453
 9735POPC   D2A60304   4.275  29.112   6.753
 9735POPC   C3A60305   4.288  29.100   7.053
 9735POPC   C4A60306   4.340  29.173   7.353
 9735POPC   C1B60307   4.155  28.897   6.453
 9735POPC   C2B60308   4.161  28.982   6.753
 9735POPC   C3B60309   4.167  28.910   7.053
 9735POPC   C4B60310   4.219  28.981   7.353
 9736POPC   NC360311  35.350  11.315   5.553
 9736POPC   PO460312  35.318  11.277   5.853
 9736POPC   GL160313  35.392  11.257   6.153
 9736POPC   GL260314  35.475  11.249   6.153
 9736POPC   C1A60315  35.346  11.253   6.453
 9736POPC   D2A60316  35.321  11.342   6.753
 9736POPC   C3A60317  35.379  11.276   7.053
 9736POPC   C4A60318  35.355  11.284   7.353
 9736POPC   C1B60319  35.619  11.173   6.453
 9736POPC   C2B60320  35.534  11.177   6.753
 9736POPC   C3B60321  35.595  11.236   7.053
 9736POPC   C4B60322  35.583  11.199   7.353
 9737POPC   NC360323   2.014  33.766   5.553
 9737POPC   PO460324   1.956  33.849   5.853
 9737POPC   GL160325   1.996  33.771   6.153
 9737POPC   GL260326   1.911  33.830   6.153
 9737POPC   C1A60327   2.029  33.783   6.453
 9737POPC   D2A60328   2.037  33.817   6.753
 9737POPC   C3A60329   1.947  33.795   7.053
 9737POPC   C4A60330   2.039  33.780   7.353
 9737POPC   C1B60331   1.716  33.835   6.453
 9737POPC   C2B60332   1.777  33.898   6.753
 9737POPC   C3B60333   1.733  33.852   7.053
 9737POPC   C4B60334   1.762  33.840   7.353
 9738POPC   NC360335  37.726   5.078   5.553
 9738POPC   PO460336  37.684   5.091   5.853
 9738POPC   GL160337  37.630   5.102   6.153
 9738POPC   GL260338  37.773   4.938   6.153
 9738POPC   C1A60339  37.709   5.072   6.453
 9738POPC   D2A60340  37.636   5.123   6.753
 9738POPC   C3A60341  37.651   5.133   7.053
 9738POPC   C4A60342  37.666   5.085   7.353
 9738POPC   C1B60343  37.771   4.900   6.453
 9738POPC   C2B60344  37.792   4.902   6.753
 9738POPC   C3B60345  37.819   4.923   7.053
 9738POPC   C4B60346  37.818   4.835   7.353
 9739POPC   NC360347  26.824  37.656   5.553
 9739POPC   PO460348  26.810  37.717   5.853
 9739POPC   GL160349  26.825  37.654   6.153
 9739POPC   GL260350  26.704  37.604   6.153
 9739POPC   C1A60351  26.849  37.700   6.453
 9739POPC   D2A60352  26.851  37.721   6.753
 9739POPC   C3A60353  26.857  37.716   7.053
 9739POPC   C4A60354  26.833  37.693   7.353
 9739POPC   C1B60355  26.602  37.599   6.453
 9739POPC   C2B60356  26.611  37.578   6.753
 9739POPC   C3B60357  26.612  37.568   7.053
 9739POPC   C4B60358  26.563  37.541   7.353
 9740POPC   NC360359   7.443   4.288   5.553
 9740POPC   PO460360   7.414   4.301   5.853
 9740POPC   GL160361   7.412   4.274   6.153
 9740POPC   GL260362   7.408   4.460   6.153
 9740POPC   C1A60363   7.445   4.315   6.453
 9740POPC   D2A60364   7.384   4.281   6.753
 9740POPC   C3A60365   7.460   4.278   7.053
 9740POPC   C4A60366   7.422   4.335   7.353
 9740POPC   C1B60367   7.319   4.595   6.453
 9740POPC   C2B60368   7.317   4.554   6.753
 9740POPC   C3B60369   7.376   4.534   7.053
 9740POPC   C4B60370   7.309   4.514   7.353
 9741POPC   NC360371  42.291   5.101   5.553
 9741POPC   PO460372  42.339   5.097   5.853
 9741POPC   GL160373  42.329   5.085   6.153
 9741POPC   GL260374  42.397   4.981   6.153
 9741POPC   C1A60375  42.317   5.045   6.453
 9741POPC   D2A60376  42.384   5.104   6.753
 9741POPC   C3A60377  42.345   5.060   7.053
 9741POPC   C4A60378  42.300   5.098   7.353
 9741POPC   C1B60379  42.526   4.973   6.453
 9741POPC   C2B60380  42.507   4.971   6.753
 9741POPC   C3B60381  42.512   5.013   7.053
 9741POPC   C4B60382  42.549   4.932   7.353
 9742POPC   NC360383  44.691  12.097   5.553
 9742POPC   PO460384  44.659  12.047   5.853
 9742POPC   GL160385  44.656  12.057   6.153
 9742POPC   GL260386  44.615  12.175   6.153
 9742POPC   C1A60387  44.650  12.089   6.453
 9742POPC   D2A60388  44.612  12.120   6.753
 9742POPC   C3A60389  44.619  12.044   7.053
 9742POPC   C4A60390  44.649  12.042   7.353
 9742POPC   C1B60391  44.535  12.288   6.453
 9742POPC   C2B60392  44.559  12.299   6.753
 9742POPC   C3B60393  44.520  12.252   7.053
 9742POPC   C4B60394  44.536  12.268   7.353
 9743POPC   NC360395  19.052  24.465   5.553
 9743POPC   PO460396  19.100  24.442   5.853
 9743POPC   GL160397  19.047  24.475   6.153
 9743POPC   GL260398  19.192  24.475   6.153
 9743POPC   C1A60399  19.071  24.507   6.453
 9743POPC   D2A60400  19.097  24.535   6.753
 9743POPC   C3A60401  19.069  24.528   7.053
 9743POPC   C4A60402  19.040  24.468   7.353
 9743POPC   C1B60403  19.255  24.347   6.453
 9743POPC   C2B60404  19.259  24.364   6.753
 9743POPC   C3B60405  19.318  24.336   7.053
 9743POPC   C4B60406  19.318  24.406   7.353
 9744POPC   NC360407  40.035  19.834   5.553
 9744POPC   PO460408  40.034  19.785   5.853
 9744POPC   GL160409  40.044  19.786   6.153
 9744POPC   GL260410  39.914  19.675   6.153
 9744POPC   C1A60411  39.968  19.793   6.453
 9744POPC   D2A60412  39.986  19.867   6.753
 9744POPC   C3A60413  40.010  19.844   7.053
 9744POPC   C4A60414  40.012  19.817   7.353
 9744POPC   C1B60415  39.923  19.582   6.453
 9744POPC   C2B60416  39.886  19.620   6.753
 9744POPC   C3B60417  39.885  19.566   7.053
 9744POPC   C4B60418  39.869  19.617   7.353
 9745POPC   NC360419  25.252  14.366   5.553
 9745POPC   PO460420  25.298  14.426   5.853
 9745POPC   GL160421  25.262  14.396   6.153
 9745POPC   GL260422  25.365  14.305   6.153
 9745POPC   C1A60423  25.246  14.433   6.453
 9745POPC   D2A60424  25.280  14.424   6.753
 9745POPC   C3A60425  25.243  14.441   7.053
 9745POPC   C4A60426  25.229  14.441   7.353
 9745POPC   C1B60427  25.519  14.322   6.453
 9745POPC   C2B60428  25.453  14.306   6.753
 9745POPC   C3B60429  25.465  14.288   7.053
 9745POPC   C4B60430  25.523  14.284   7.353
 9746POPC   NC360431  10.540  32.241   5.553
 9746POPC   PO460432  10.525  32.248   5.853
 9746POPC   GL160433  10.497  32.294   6.153
 9746POPC   GL260434  10.487  32.406   6.153
 9746POPC   C1A60435  10.507  32.250   6.453
 9746POPC   D2A60436  10.504  32.207   6.753
 9746POPC   C3A60437  10.495  32.286   7.053
 9746POPC   C4A60438  10.561  32.254   7.353
 9746POPC   C1B60439  10.437  32.461   6.453
 9746POPC   C2B60440  10.442  32.495   6.753
 9746POPC   C3B60441  10.489  32.477   7.053
 9746POPC   C4B60442  10.440  32.486   7.353
 9747POPC   NC360443  18.309  33.805   5.553
 9747POPC   PO460444  18.259  33.844   5.853
 9747POPC   GL160445  18.311  33.827   6.153
 9747POPC   GL260446  18.333  33.911   6.153
 9747POPC   C1A60447  18.328  33.835   6.453
 9747POPC   D2A60448  18.327  33.800   6.753
 9747POPC   C3A60449  18.291  33.826   7.053
 9747POPC   C4A60450  18.257  33.790   7.353
 9747POPC   C1B60451  18.311  34.087   6.453
 9747POPC   C2B60452  18.288  34.042   6.753
 9747POPC   C3B60453  18.261  34.070   7.053
 9747POPC   C4B60454  18.277  34.071   7.353
 9748POPC   NC360455  32.288   4.352   5.553
 9748POPC   PO460456  32.229   4.331   5.853
 9748POPC   GL160457  32.261   4.328   6.153
 9748POPC   GL260458  32.290   4.183   6.153
 9748POPC   C1A60459  32.201   4.272   6.453
 9748POPC   D2A60460  32.234   4.318   6.753
 9748POPC   C3A60461  32.212   4.289   7.053
 9748POPC   C4A60462  32.250   4.318   7.353
 9748POPC   C1B60463  32.244   4.042   6.453
 9748POPC   C2B60464  32.251   4.097   6.753
 9748POPC   C3B60465  32.252   4.081   7.053
 9748POPC   C4B60466  32.308   4.039   7.353
 9749POPC   NC360467  30.689  12.841   5.553
 9749POPC   PO460468  30.662  12.821   5.853
 9749POPC   GL160469  30.658  12.838   6.153
 9749POPC   GL260470  30.545  12.873   6.153
 9749POPC   C1A60471  30.727  12.827   6.453
 9749POPC   D2A60472  30.661  12.856   6.753
 9749POPC   C3A60473  30.735  12.837   7.053
 9749POPC   C4A60474  30.715  12.809   7.353
 9749POPC   C1B60475  30.456  12.881   6.453
 9749POPC   C2B60476  30.453  12.952   6.753
 9749POPC   C3B60477  30.472  12.897   7.053
 9749POPC   C4B60478  30.490  12.906   7.353
 9750POPC   NC360479  10.508  10.520   5.553
 9750POPC   PO460480  10.485  10.530   5.853
 9750POPC   GL160481  10.573  10.480   6.153
 9750POPC   GL260482  10.465  10.655   6.153
 9750POPC   C1A60483  10.507  10.521   6.453
 9750POPC   D2A60484  10.528  10.553   6.753
 9750POPC   C3A60485  10.574  10.512   7.053
 9750POPC   C4A60486  10.562  10.495   7.353
 9750POPC   C1B60487  10.366  10.723   6.453
 9750POPC   C2B60488  10.387  10.706   6.753
 9750POPC   C3B60489  10.390  10.695   7.053
 9750POPC   C4B60490  10.361  10.736   7.353
 9751POPC   NC360491  15.934   0.456   5.553
 9751POPC   PO460492  15.989   0.477   5.853
 9751POPC   GL160493  15.929   0.448   6.153
 9751POPC   GL260494  16.113   0.456   6.153
 9751POPC   C1A60495  15.909   0.414   6.453
 9751POPC   D2A60496  15.929   0.419   6.753
 9751POPC   C3A60497  15.930   0.450   7.053
 9751POPC   C4A60498  15.928   0.482   7.353
 9751POPC   C1B60499  16.233   0.393   6.453
 9751POPC   C2B60500  16.219   0.460   6.753
 9751POPC   C3B60501  16.242   0.480   7.053
 9751POPC   C4B60502  16.158   0.398   7.353
 9752POPC   NC360503  38.443  27.569   5.553
 9752POPC   PO460504  38.480  27.643   5.853
 9752POPC   GL160505  38.406  27.565   6.153
 9752POPC   GL260506  38.474  27.439   6.153
 9752POPC   C1A60507  38.416  27.550   6.453
 9752POPC   D2A60508  38.480  27.550   6.753
 9752POPC   C3A60509  38.495  27.579   7.053
 9752POPC   C4A60510  38.423  27.556   7.353
 9752POPC   C1B60511  38.489  27.341   6.453
 9752POPC   C2B60512  38.476  27.323   6.753
 9752POPC   C3B60513  38.539  27.300   7.053
 9752POPC   C4B60514  38.541  27.335   7.353
 9753POPC   NC360515  22.147  11.342   5.553
 9753POPC   PO460516  22.180  11.342   5.853
 9753POPC   GL160517  22.145  11.286   6.153
 9753POPC   GL260518  22.305  11.285   6.153
 9753POPC   C1A60519  22.126  11.270   6.453
 9753POPC   D2A60520  22.128  11.335   6.753
 9753POPC   C3A60521  22.163  11.270   7.053
 9753POPC   C4A60522  22.170  11.260   7.353
 9753POPC   C1B60523  22.459  11.363   6.453
 9753POPC   C2B60524  22.373  11.289   6.753
 9753POPC   C3B60525  22.448  11.353   7.053
 9753POPC   C4B60526  22.428  11.363   7.353
 9754POPC   NC360527  40.041  41.579   5.553
 9754POPC   PO460528  39.976  41.553   5.853
 9754POPC   GL160529  39.960  41.578   6.153
 9754POPC   GL260530  40.153  41.579   6.153
 9754POPC   C1A60531  40.015  41.556   6.453
 9754POPC   D2A60532  40.042  41.598   6.753
 9754POPC   C3A60533  40.015  41.570   7.053
 9754POPC   C4A60534  40.052  41.589   7.353
 9754POPC   C1B60535  40.204  41.673   6.453
 9754POPC   C2B60536  40.211  41.690   6.753
 9754POPC   C3B60537  40.241  41.739   7.053
 9754POPC   C4B60538  40.219  41.674   7.353
 9755POPC   NC360539  14.372  29.873   5.553
 9755POPC   PO460540  14.453  29.887   5.853
 9755POPC   GL160541  14.445  29.882   6.153
 9755POPC   GL260542  14.344  30.005   6.153
 9755POPC   C1A60543  14.421  29.960   6.453
 9755POPC   D2A60544  14.356  29.923   6.753
 9755POPC   C3A60545  14.418  29.941   7.053
 9755POPC   C4A60546  14.382  29.906   7.353
 9755POPC   C1B60547  14.334  30.174   6.453
 9755POPC   C2B60548  14.266  30.179   6.753
 9755POPC   C3B60549  14.260  30.132   7.053
 9755POPC   C4B60550  14.276  30.114   7.353
 9756POPC   NC360551  29.933  37.717   5.553
 9756POPC   PO460552  29.914  37.681   5.853
 9756POPC   GL160553  29.876  37.717   6.153
 9756POPC   GL260554  29.905  37.820   6.153
 9756POPC   C1A60555  29.908  37.708   6.453
 9756POPC   D2A60556  29.874  37.708   6.753
 9756POPC   C3A60557  29.894  37.657   7.053
 9756POPC   C4A60558  29.934  37.666   7.353
 9756POPC   C1B60559  29.833  37.912   6.453
 9756POPC   C2B60560  29.886  37.971   6.753
 9756POPC   C3B60561  29.823  37.961   7.053
 9756POPC   C4B60562  29.815  37.902   7.353
 9757POPC   NC360563   2.029  25.234   5.553
 9757POPC   PO460564   2.022  25.268   5.853
 9757POPC   GL160565   2.011  25.312   6.153
 9757POPC   GL260566   1.896  25.376   6.153
 9757POPC   C1A60567   1.969  25.299   6.453
 9757POPC   D2A60568   2.009  25.265   6.753
 9757POPC   C3A60569   1.977  25.255   7.053
 9757POPC   C4A60570   2.036  25.255   7.353
 9757POPC   C1B60571   1.835  25.412   6.453
 9757POPC   C2B60572   1.790  25.455   6.753
 9757POPC   C3B60573   1.870  25.407   7.053
 9757POPC   C4B60574   1.790  25.406   7.353
 9758POPC   NC360575  34.537  32.984   5.553
 9758POPC   PO460576  34.539  32.987   5.853
 9758POPC   GL160577  34.574  32.979   6.153
 9758POPC   GL260578  34.519  32.941   6.153
 9758POPC   C1A60579  34.532  32.992   6.453
 9758POPC   D2A60580  34.607  33.035   6.753
 9758POPC   C3A60581  34.605  33.060   7.053
 9758POPC   C4A60582  34.612  33.063   7.353
 9758POPC   C1B60583  34.412  32.836   6.453
 9758POPC   C2B60584  34.342  32.868   6.753
 9758POPC   C3B60585  34.395  32.906   7.053
 9758POPC   C4B60586  34.413  32.898   7.353
 9759POPC   NC360587  31.465  42.364   5.553
 9759POPC   PO460588  31.476  42.323   5.853
 9759POPC   GL160589  31.467  42.374   6.153
 9759POPC   GL260590  31.469  42.486   6.153
 9759POPC   C1A60591  31.515  42.361   6.453
 9759POPC   D2A60592  31.516  42.371   6.753
 9759POPC   C3A60593  31.480  42.330   7.053
 9759POPC   C4A60594  31.425  42.336   7.353
 9759POPC   C1B60595  31.415  42.591   6.453
 9759POPC   C2B60596  31.425  42.619   6.753
 9759POPC   C3B60597  31.379  42.533   7.053
 9759POPC   C4B60598  31.419  42.577   7.353
 9760POPC   NC360599  43.149  24.493   5.553
 9760POPC   PO460600  43.107  24.514   5.853
 9760POPC   GL160601  43.142  24.496   6.153
 9760POPC   GL260602  43.199  24.582   6.153
 9760POPC   C1A60603  43.149  24.480   6.453
 9760POPC   D2A60604  43.138  24.507   6.753
 9760POPC   C3A60605  43.159  24.455   7.053
 9760POPC   C4A60606  43.077  24.498   7.353
 9760POPC   C1B60607  43.322  24.639   6.453
 9760POPC   C2B60608  43.354  24.689   6.753
 9760POPC   C3B60609  43.300  24.673   7.053
 9760POPC   C4B60610  43.322  24.669   7.353
 9761POPC   NC360611   0.456  28.343   5.553
 9761POPC   PO460612   0.412  28.334   5.853
 9761POPC   GL160613   0.438  28.413   6.153
 9761POPC   GL260614   0.581  28.352   6.153
 9761POPC   C1A60615   0.450  28.354   6.453
 9761POPC   D2A60616   0.424  28.357   6.753
 9761POPC   C3A60617   0.464  28.352   7.053
 9761POPC   C4A60618   0.486  28.416   7.353
 9761POPC   C1B60619   0.645  28.280   6.453
 9761POPC   C2B60620   0.703  28.249   6.753
 9761POPC   C3B60621   0.671  28.296   7.053
 9761POPC   C4B60622   0.638  28.260   7.353
 9762POPC   NC360623  32.982  37.666   5.553
 9762POPC   PO460624  33.040  37.704   5.853
 9762POPC   GL160625  32.999  37.714   6.153
 9762POPC   GL260626  33.007  37.533   6.153
 9762POPC   C1A60627  33.001  37.644   6.453
 9762POPC   D2A60628  33.066  37.679   6.753
 9762POPC   C3A60629  33.006  37.637   7.053
 9762POPC   C4A60630  32.977  37.667   7.353
 9762POPC   C1B60631  32.905  37.430   6.453
 9762POPC   C2B60632  32.919  37.473   6.753
 9762POPC   C3B60633  32.960  37.428   7.053
 9762POPC   C4B60634  32.883  37.433   7.353
 9763POPC   NC360635  15.949  26.778   5.553
 9763POPC   PO460636  15.956  26.822   5.853
 9763POPC   GL160637  15.987  26.821   6.153
 9763POPC   GL260638  15.836  26.788   6.153
 9763POPC   C1A60639  15.959  26.782   6.453
 9763POPC   D2A60640  15.939  26.855   6.753
 9763POPC   C3A60641  15.925  26.848   7.053
 9763POPC   C4A60642  15.996  26.798   7.353
 9763POPC   C1B60643  15.687  26.721   6.453
 9763POPC   C2B60644  15.732  26.725   6.753
 9763POPC   C3B60645  15.725  26.766   7.053
 9763POPC   C4B60646  15.699  26.784   7.353
 9764POPC   NC360647  12.085  14.366   5.553
 9764POPC   PO460648  12.122  14.364   5.853
 9764POPC   GL160649  12.055  14.445   6.153
 9764POPC   GL260650  12.053  14.285   6.153
 9764POPC   C1A60651  12.032  14.440   6.453
 9764POPC   D2A60652  12.098  14.443   6.753
 9764POPC   C3A60653  12.058  14.406   7.053
 9764POPC   C4A60654  12.109  14.354   7.353
 9764POPC   C1B60655  12.060  14.122   6.453
 9764POPC   C2B60656  12.067  14.196   6.753
 9764POPC   C3B60657  12.029  14.176   7.053
 9764POPC   C4B60658  12.030  14.133   7.353
 9765POPC   NC360659   8.222  19.071   5.553
 9765POPC   PO460660   8.182  19.039   5.853
 9765POPC   GL160661   8.187  19.018   6.153
 9765POPC   GL260662   8.283  19.093   6.153
 9765POPC   C1A60663   8.216  19.092   6.453
 9765POPC   D2A60664   8.181  19.103   6.753
 9765POPC   C3A60665   8.171  19.070   7.053
 9765POPC   C4A60666   8.214  19.069   7.353
 9765POPC   C1B60667   8.427  19.126   6.453
 9765POPC   C2B60668   8.404  19.209   6.753
 9765POPC   C3B60669   8.410  19.129   7.053
 9765POPC   C4B60670   8.390  19.145   7.353
 9766POPC   NC360671  11.288  12.083   5.553
 9766POPC   PO460672  11.327  12.087   5.853
 9766POPC   GL160673  11.313  12.045   6.153
 9766POPC   GL260674  11.191  12.224   6.153
 9766POPC   C1A60675  11.255  12.048   6.453
 9766POPC   D2A60676  11.319  12.101   6.753
 9766POPC   C3A60677  11.257  12.034   7.053
 9766POPC   C4A60678  11.329  12.083   7.353
 9766POPC   C1B60679  11.115  12.287   6.453
 9766POPC   C2B60680  11.169  12.258   6.753
 9766POPC   C3B60681  11.160  12.301   7.053
 9766POPC   C4B60682  11.178  12.313   7.353
 9767POPC   NC360683  43.856   2.764   5.553
 9767POPC   PO460684  43.892   2.721   5.853
 9767POPC   GL160685  43.854   2.746   6.153
 9767POPC   GL260686  43.830   2.905   6.153
 9767POPC   C1A60687  43.920   2.745   6.453
 9767POPC   D2A60688  43.863   2.726   6.753
 9767POPC   C3A60689  43.918   2.730   7.053
 9767POPC   C4A60690  43.856   2.729   7.353
 9767POPC   C1B60691  43.705   2.928   6.453
 9767POPC   C2B60692  43.682   2.924   6.753
 9767POPC   C3B60693  43.718   2.993   7.053
 9767POPC   C4B60694  43.690   2.935   7.353
 9768POPC   NC360695  29.958  42.303   5.553
 9768POPC   PO460696  29.947  42.370   5.853
 9768POPC   GL160697  29.940  42.368   6.153
 9768POPC   GL260698  30.051  42.361   6.153
 9768POPC   C1A60699  29.930  42.331   6.453
 9768POPC   D2A60700  29.957  42.311   6.753
 9768POPC   C3A60701  29.885  42.370   7.053
 9768POPC   C4A60702  29.918  42.377   7.353
 9768POPC   C1B60703  30.107  42.401   6.453
 9768POPC   C2B60704  30.138  42.447   6.753
 9768POPC   C3B60705  30.178  42.425   7.053
 9768POPC   C4B60706  30.113  42.439   7.353
 9769POPC   NC360707  29.923  35.393   5.553
 9769POPC   PO460708  29.927  35.388   5.853
 9769POPC   GL160709  29.896  35.370   6.153
 9769POPC   GL260710  29.809  35.426   6.153
 9769POPC   C1A60711  29.942  35.338   6.453
 9769POPC   D2A60712  29.883  35.353   6.753
 9769POPC   C3A60713  29.948  35.372   7.053
 9769POPC   C4A60714  29.962  35.328   7.353
 9769POPC   C1B60715  29.708  35.556   6.453
 9769POPC   C2B60716  29.742  35.548   6.753
 9769POPC   C3B60717  29.703  35.463   7.053
 9769POPC   C4B60718  29.757  35.544   7.353
 9770POPC   NC360719  29.102  26.861   5.553
 9770POPC   PO460720  29.174  26.804   5.853
 9770POPC   GL160721  29.174  26.865   6.153
 9770POPC   GL260722  29.008  26.723   6.153
 9770POPC   C1A60723  29.115  26.801   6.453
 9770POPC   D2A60724  29.179  26.864   6.753
 9770POPC   C3A60725  29.187  26.853   7.053
 9770POPC   C4A60726  29.096  26.859   7.353
 9770POPC   C1B60727  28.972  26.643   6.453
 9770POPC   C2B60728  28.940  26.664   6.753
 9770POPC   C3B60729  28.905  26.696   7.053
 9770POPC   C4B60730  28.969  26.688   7.353
 9771POPC   NC360731   5.885  44.629   5.553
 9771POPC   PO460732   5.847  44.625   5.853
 9771POPC   GL160733   5.883  44.692   6.153
 9771POPC   GL260734   5.942  44.810   6.153
 9771POPC   C1A60735   5.898  44.613   6.453
 9771POPC   D2A60736   5.840  44.647   6.753
 9771POPC   C3A60737   5.840  44.693   7.053
 9771POPC   C4A60738   5.860  44.617   7.353
 9771POPC   C1B60739   5.967  44.907   6.453
 9771POPC   C2B60740   6.022  44.890   6.753
 9771POPC   C3B60741   5.954  44.871   7.053
 9771POPC   C4B60742   6.032  44.883   7.353
 9772POPC   NC360743  31.503  32.280   5.553
 9772POPC   PO460744  31.502  32.234   5.853
 9772POPC   GL160745  31.468  32.246   6.153
 9772POPC   GL260746  31.377  32.399   6.153
 9772POPC   C1A60747  31.430  32.240   6.453
 9772POPC   D2A60748  31.504  32.224   6.753
 9772POPC   C3A60749  31.430  32.226   7.053
 9772POPC   C4A60750  31.508  32.228   7.353
 9772POPC   C1B60751  31.403  32.452   6.453
 9772POPC   C2B60752  31.375  32.468   6.753
 9772POPC   C3B60753  31.334  32.434   7.053
 9772POPC   C4B60754  31.345  32.424   7.353
 9773POPC   NC360755  12.895  20.618   5.553
 9773POPC   PO460756  12.843  20.589   5.853
 9773POPC   GL160757  12.863  20.628   6.153
 9773POPC   GL260758  12.865  20.539   6.153
 9773POPC   C1A60759  12.889  20.654   6.453
 9773POPC   D2A60760  12.809  20.563   6.753
 9773POPC   C3A60761  12.864  20.568   7.053
 9773POPC   C4A60762  12.805  20.602   7.353
 9773POPC   C1B60763  12.974  20.401   6.453
 9773POPC   C2B60764  12.966  20.363   6.753
 9773POPC   C3B60765  12.895  20.371   7.053
 9773POPC   C4B60766  12.920  20.388   7.353
 9774POPC   NC360767   3.583  19.879   5.553
 9774POPC   PO460768   3.498  19.855   5.853
 9774POPC   GL160769   3.532  19.800   6.153
 9774POPC   GL260770   3.374  19.791   6.153
 9774POPC   C1A60771   3.573  19.872   6.453
 9774POPC   D2A60772   3.497  19.821   6.753
 9774POPC   C3A60773   3.548  19.834   7.053
 9774POPC   C4A60774   3.523  19.809   7.353
 9774POPC   C1B60775   3.251  19.835   6.453
 9774POPC   C2B60776   3.334  19.819   6.753
 9774POPC   C3B60777   3.278  19.838   7.053
 9774POPC   C4B60778   3.249  19.789   7.353
 9775POPC   NC360779  43.121   1.256   5.553
 9775POPC   PO460780  43.155   1.195   5.853
 9775POPC   GL160781  43.111   1.192   6.153
 9775POPC   GL260782  43.148   1.322   6.153
 9775POPC   C1A60783  43.158   1.217   6.453
 9775POPC   D2A60784  43.160   1.204   6.753
 9775POPC   C3A60785  43.077   1.206   7.053
 9775POPC   C4A60786  43.147   1.205   7.353
 9775POPC   C1B60787  43.113   1.429   6.453
 9775POPC   C2B60788  43.145   1.458   6.753
 9775POPC   C3B60789  43.124   1.491   7.053
 9775POPC   C4B60790  43.133   1.414   7.353
 9776POPC   NC360791  42.346  19.036   5.553
 9776POPC   PO460792  42.329  19.101   5.853
 9776POPC   GL160793  42.318  19.021   6.153
 9776POPC   GL260794  42.447  19.082   6.153
 9776POPC   C1A60795  42.328  19.071   6.453
 9776POPC   D2A60796  42.338  19.049   6.753
 9776POPC   C3A60797  42.315  19.059   7.053
 9776POPC   C4A60798  42.336  19.024   7.353
 9776POPC   C1B60799  42.529  19.163   6.453
 9776POPC   C2B60800  42.564  19.180   6.753
 9776POPC   C3B60801  42.610  19.154   7.053
 9776POPC   C4B60802  42.568  19.155   7.353
 9777POPC   NC360803  28.359  27.607   5.553
 9777POPC   PO460804  28.342  27.562   5.853
 9777POPC   GL160805  28.373  27.625   6.153
 9777POPC   GL260806  28.228  27.584   6.153
 9777POPC   C1A60807  28.416  27.548   6.453
 9777POPC   D2A60808  28.353  27.627   6.753
 9777POPC   C3A60809  28.367  27.592   7.053
 9777POPC   C4A60810  28.322  27.613   7.353
 9777POPC   C1B60811  28.108  27.607   6.453
 9777POPC   C2B60812  28.145  27.660   6.753
 9777POPC   C3B60813  28.093  27.611   7.053
 9777POPC   C4B60814  28.129  27.688   7.353
 9778POPC   NC360815   2.039   9.743   5.553
 9778POPC   PO460816   1.974   9.729   5.853
 9778POPC   GL160817   2.001   9.698   6.153
 9778POPC   GL260818   1.998   9.609   6.153
 9778POPC   C1A60819   1.966   9.708   6.453
 9778POPC   D2A60820   1.974   9.756   6.753
 9778POPC   C3A60821   1.963   9.769   7.053
 9778POPC   C4A60822   2.028   9.736   7.353
 9778POPC   C1B60823   2.070   9.527   6.453
 9778POPC   C2B60824   2.124   9.506   6.753
 9778POPC   C3B60825   2.138   9.558   7.053
 9778POPC   C4B60826   2.104   9.535   7.353
 9779POPC   NC360827  19.868  12.070   5.553
 9779POPC   PO460828  19.822  12.051   5.853
 9779POPC   GL160829  19.849  12.098   6.153
 9779POPC   GL260830  19.864  12.197   6.153
 9779POPC   C1A60831  19.844  12.100   6.453
 9779POPC   D2A60832  19.844  12.053   6.753
 9779POPC   C3A60833  19.788  12.078   7.053
 9779POPC   C4A60834  19.860  12.081   7.353
 9779POPC   C1B60835  19.831  12.346   6.453
 9779POPC   C2B60836  19.840  12.285   6.753
 9779POPC   C3B60837  19.845  12.339   7.053
 9779POPC   C4B60838  19.882  12.298   7.353
 9780POPC   NC360839  41.576  31.470   5.553
 9780POPC   PO460840  41.530  31.474   5.853
 9780POPC   GL160841  41.600  31.510   6.153
 9780POPC   GL260842  41.635  31.436   6.153
 9780POPC   C1A60843  41.604  31.459   6.453
 9780POPC   D2A60844  41.525  31.446   6.753
 9780POPC   C3A60845  41.551  31.448   7.053
 9780POPC   C4A60846  41.565  31.516   7.353
 9780POPC   C1B60847  41.798  31.400   6.453
 9780POPC   C2B60848  41.738  31.395   6.753
 9780POPC   C3B60849  41.834  31.361   7.053
 9780POPC   C4B60850  41.737  31.377   7.353
 9781POPC   NC360851  16.693  41.527   5.553
 9781POPC   PO460852  16.771  41.543   5.853
 9781POPC   GL160853  16.717  41.602   6.153
 9781POPC   GL260854  16.861  41.546   6.153
 9781POPC   C1A60855  16.736  41.519   6.453
 9781POPC   D2A60856  16.742  41.599   6.753
 9781POPC   C3A60857  16.738  41.574   7.053
 9781POPC   C4A60858  16.691  41.525   7.353
 9781POPC   C1B60859  17.000  41.482   6.453
 9781POPC   C2B60860  16.948  41.493   6.753
 9781POPC   C3B60861  16.981  41.518   7.053
 9781POPC   C4B60862  17.009  41.430   7.353
 9782POPC   NC360863  34.543  41.545   5.553
 9782POPC   PO460864  34.581  41.513   5.853
 9782POPC   GL160865  34.601  41.560   6.153
 9782POPC   GL260866  34.436  41.606   6.153
 9782POPC   C1A60867  34.600  41.582   6.453
 9782POPC   D2A60868  34.549  41.593   6.753
 9782POPC   C3A60869  34.561  41.510   7.053
 9782POPC   C4A60870  34.594  41.541   7.353
 9782POPC   C1B60871  34.373  41.685   6.453
 9782POPC   C2B60872  34.392  41.663   6.753
 9782POPC   C3B60873  34.351  41.697   7.053
 9782POPC   C4B60874  34.331  41.725   7.353
 9783POPC   NC360875  17.515  33.025   5.553
 9783POPC   PO460876  17.526  33.070   5.853
 9783POPC   GL160877  17.530  33.067   6.153
 9783POPC   GL260878  17.657  32.922   6.153
 9783POPC   C1A60879  17.478  33.027   6.453
 9783POPC   D2A60880  17.550  33.034   6.753
 9783POPC   C3A60881  17.480  33.027   7.053
 9783POPC   C4A60882  17.552  33.001   7.353
 9783POPC   C1B60883  17.688  32.873   6.453
 9783POPC   C2B60884  17.739  32.915   6.753
 9783POPC   C3B60885  17.760  32.873   7.053
 9783POPC   C4B60886  17.695  32.930   7.353
 9784POPC   NC360887  12.075   7.373   5.553
 9784POPC   PO460888  12.100   7.412   5.853
 9784POPC   GL160889  12.110   7.394   6.153
 9784POPC   GL260890  11.947   7.449   6.153
 9784POPC   C1A60891  12.089   7.422   6.453
 9784POPC   D2A60892  12.125   7.373   6.753
 9784POPC   C3A60893  12.111   7.377   7.053
 9784POPC   C4A60894  12.097   7.382   7.353
 9784POPC   C1B60895  11.788   7.486   6.453
 9784POPC   C2B60896  11.857   7.400   6.753
 9784POPC   C3B60897  11.822   7.484   7.053
 9784POPC   C4B60898  11.789   7.411   7.353
 9785POPC   NC360899  32.263  23.687   5.553
 9785POPC   PO460900  32.250  23.750   5.853
 9785POPC   GL160901  32.234  23.722   6.153
 9785POPC   GL260902  32.351  23.811   6.153
 9785POPC   C1A60903  32.219  23.682   6.453
 9785POPC   D2A60904  32.267  23.668   6.753
 9785POPC   C3A60905  32.212  23.680   7.053
 9785POPC   C4A60906  32.298  23.676   7.353
 9785POPC   C1B60907  32.340  23.913   6.453
 9785POPC   C2B60908  32.391  23.953   6.753
 9785POPC   C3B60909  32.366  23.946   7.053
 9785POPC   C4B60910  32.332  23.953   7.353
 9786POPC   NC360911  26.834  10.506   5.553
 9786POPC   PO460912  26.820  10.492   5.853
 9786POPC   GL160913  26.824  10.521   6.153
 9786POPC   GL260914  26.683  10.427   6.153
 9786POPC   C1A60915  26.784  10.510   6.453
 9786POPC   D2A60916  26.826  10.561   6.753
 9786POPC   C3A60917  26.793  10.561   7.053
 9786POPC   C4A60918  26.805  10.533   7.353
 9786POPC   C1B60919  26.604  10.432   6.453
 9786POPC   C2B60920  26.605  10.445   6.753
 9786POPC   C3B60921  26.566  10.372   7.053
 9786POPC   C4B60922  26.617  10.458   7.353
 9787POPC   NC360923  10.522  22.201   5.553
 9787POPC   PO460924  10.540  22.171   5.853
 9787POPC   GL160925  10.516  22.131   6.153
 9787POPC   GL260926  10.588  22.039   6.153
 9787POPC   C1A60927  10.531  22.114   6.453
 9787POPC   D2A60928  10.501  22.117   6.753
 9787POPC   C3A60929  10.564  22.183   7.053
 9787POPC   C4A60930  10.556  22.137   7.353
 9787POPC   C1B60931  10.589  21.896   6.453
 9787POPC   C2B60932  10.678  21.929   6.753
 9787POPC   C3B60933  10.679  21.936   7.053
 9787POPC   C4B60934  10.641  21.969   7.353
 9788POPC   NC360935  20.631  34.559   5.553
 9788POPC   PO460936  20.589  34.549   5.853
 9788POPC   GL160937  20.623  34.598   6.153
 9788POPC   GL260938  20.685  34.468   6.153
 9788POPC   C1A60939  20.601  34.535   6.453
 9788POPC   D2A60940  20.594  34.573   6.753
 9788POPC   C3A60941  20.625  34.548   7.053
 9788POPC   C4A60942  20.569  34.591   7.353
 9788POPC   C1B60943  20.746  34.303   6.453
 9788POPC   C2B60944  20.691  34.347   6.753
 9788POPC   C3B60945  20.712  34.309   7.053
 9788POPC   C4B60946  20.697  34.296   7.353
 9789POPC   NC360947  22.185   8.215   5.553
 9789POPC   PO460948  22.116   8.199   5.853
 9789POPC   GL160949  22.201   8.213   6.153
 9789POPC   GL260950  22.081   8.081   6.153
 9789POPC   C1A60951  22.125   8.217   6.453
 9789POPC   D2A60952  22.206   8.160   6.753
 9789POPC   C3A60953  22.206   8.169   7.053
 9789POPC   C4A60954  22.147   8.218   7.353
 9789POPC   C1B60955  21.963   8.018   6.453
 9789POPC   C2B60956  22.043   8.005   6.753
 9789POPC   C3B60957  22.029   8.011   7.053
 9789POPC   C4B60958  22.006   8.020   7.353
 9790POPC   NC360959   4.315   5.066   5.553
 9790POPC   PO460960   4.280   5.093   5.853
 9790POPC   GL160961   4.281   5.087   6.153
 9790POPC   GL260962   4.315   5.254   6.153
 9790POPC   C1A60963   4.366   5.098   6.453
 9790POPC   D2A60964   4.328   5.052   6.753
 9790POPC   C3A60965   4.340   5.068   7.053
 9790POPC   C4A60966   4.328   5.111   7.353
 9790POPC   C1B60967   4.393   5.384   6.453
 9790POPC   C2B60968   4.358   5.320   6.753
 9790POPC   C3B60969   4.318   5.346   7.053
 9790POPC   C4B60970   4.319   5.372   7.353
 9791POPC   NC360971  18.310   6.601   5.553
 9791POPC   PO460972  18.239   6.611   5.853
 9791POPC   GL160973  18.244   6.665   6.153
 9791POPC   GL260974  18.246   6.730   6.153
 9791POPC   C1A60975  18.331   6.608   6.453
 9791POPC   D2A60976  18.322   6.600   6.753
 9791POPC   C3A60977  18.316   6.655   7.053
 9791POPC   C4A60978  18.295   6.620   7.353
 9791POPC   C1B60979  18.159   6.878   6.453
 9791POPC   C2B60980  18.197   6.871   6.753
 9791POPC   C3B60981  18.243   6.899   7.053
 9791POPC   C4B60982  18.186   6.866   7.353
 9792POPC   NC360983   3.588   9.732   5.553
 9792POPC   PO460984   3.509   9.728   5.853
 9792POPC   GL160985   3.545   9.795   6.153
 9792POPC   GL260986   3.436   9.795   6.153
 9792POPC   C1A60987   3.558   9.703   6.453
 9792POPC   D2A60988   3.508   9.768   6.753
 9792POPC   C3A60989   3.533   9.762   7.053
 9792POPC   C4A60990   3.501   9.768   7.353
 9792POPC   C1B60991   3.354   9.874   6.453
 9792POPC   C2B60992   3.339   9.901   6.753
 9792POPC   C3B60993   3.361   9.936   7.053
 9792POPC   C4B60994   3.334   9.947   7.353
 9793POPC   NC360995  22.890  23.718   5.553
 9793POPC   PO460996  22.892  23.750   5.853
 9793POPC   GL160997  22.907  23.741   6.153
 9793POPC   GL260998  23.099  23.777   6.153
 9793POPC   C1A60999  22.959  23.693   6.453
 9793POPC   D2A61000  22.930  23.719   6.753
 9793POPC   C3A61001  22.937  23.682   7.053
 9793POPC   C4A61002  22.924  23.758   7.353
 9793POPC   C1B61003  23.225  23.759   6.453
 9793POPC   C2B61004  23.187  23.731   6.753
 9793POPC   C3B61005  23.200  23.787   7.053
 9793POPC   C4B61006  23.181  23.726   7.353
 9794POPC   NC361007  34.611   1.973   5.553
 9794POPC   PO461008  34.615   1.982   5.853
 9794POPC   GL161009  34.537   2.004   6.153
 9794POPC   GL261010  34.452   1.974   6.153
 9794POPC   C1A61011  34.610   1.947   6.453
 9794POPC   D2A61012  34.589   1.974   6.753
 9794POPC   C3A61013  34.554   1.963   7.053
 9794POPC   C4A61014  34.547   2.035   7.353
 9794POPC   C1B61015  34.309   1.964   6.453
 9794POPC   C2B61016  34.308   1.968   6.753
 9794POPC   C3B61017  34.341   1.970   7.053
 9794POPC   C4B61018  34.365   1.952   7.353
 9795POPC   NC361019  20.657  33.756   5.553
 9795POPC   PO461020  20.658  33.774   5.853
 9795POPC   GL161021  20.628  33.768   6.153
 9795POPC   GL261022  20.704  33.718   6.153
 9795POPC   C1A61023  20.613  33.814   6.453
 9795POPC   D2A61024  20.606  33.786   6.753
 9795POPC   C3A61025  20.598  33.814   7.053
 9795POPC   C4A61026  20.567  33.795   7.353
 9795POPC   C1B61027  20.850  33.632   6.453
 9795POPC   C2B61028  20.779  33.652   6.753
 9795POPC   C3B61029  20.809  33.668   7.053
 9795POPC   C4B61030  20.826  33.628   7.353
 9796POPC   NC361031  30.668   8.935   5.553
 9796POPC   PO461032  30.706   9.008   5.853
 9796POPC   GL161033  30.689   8.958   6.153
 9796POPC   GL261034  30.639   8.820   6.153
 9796POPC   C1A61035  30.706   8.964   6.453
 9796POPC   D2A61036  30.743   9.019   6.753
 9796POPC   C3A61037  30.664   8.945   7.053
 9796POPC   C4A61038  30.744   8.941   7.353
 9796POPC   C1B61039  30.624   8.752   6.453
 9796POPC   C2B61040  30.626   8.745   6.753
 9796POPC   C3B61041  30.539   8.727   7.053
 9796POPC   C4B61042  30.604   8.744   7.353
 9797POPC   NC361043  21.427  22.939   5.553
 9797POPC   PO461044  21.383  22.905   5.853
 9797POPC   GL161045  21.428  22.956   6.153
 9797POPC   GL261046  21.304  22.879   6.153
 9797POPC   C1A61047  21.384  22.931   6.453
 9797POPC   D2A61048  21.396  22.982   6.753
 9797POPC   C3A61049  21.427  22.918   7.053
 9797POPC   C4A61050  21.388  22.914   7.353
 9797POPC   C1B61051  21.171  22.907   6.453
 9797POPC   C2B61052  21.131  22.823   6.753
 9797POPC   C3B61053  21.167  22.885   7.053
 9797POPC   C4B61054  21.164  22.837   7.353
 9798POPC   NC361055  34.554  17.530   5.553
 9798POPC   PO461056  34.527  17.472   5.853
 9798POPC   GL161057  34.582  17.473   6.153
 9798POPC   GL261058  34.580  17.677   6.153
 9798POPC   C1A61059  34.549  17.506   6.453
 9798POPC   D2A61060  34.619  17.481   6.753
 9798POPC   C3A61061  34.586  17.517   7.053
 9798POPC   C4A61062  34.626  17.534   7.353
 9798POPC   C1B61063  34.563  17.709   6.453
 9798POPC   C2B61064  34.539  17.794   6.753
 9798POPC   C3B61065  34.496  17.769   7.053
 9798POPC   C4B61066  34.527  17.771   7.353
 9799POPC   NC361067  12.867  36.904   5.553
 9799POPC   PO461068  12.813  36.885   5.853
 9799POPC   GL161069  12.843  36.934   6.153
 9799POPC   GL261070  12.842  36.995   6.153
 9799POPC   C1A61071  12.893  36.939   6.453
 9799POPC   D2A61072  12.824  36.854   6.753
 9799POPC   C3A61073  12.841  36.904   7.053
 9799POPC   C4A61074  12.822  36.941   7.353
 9799POPC   C1B61075  12.765  37.158   6.453
 9799POPC   C2B61076  12.787  37.097   6.753
 9799POPC   C3B61077  12.712  37.133   7.053
 9799POPC   C4B61078  12.774  37.150   7.353
 9800POPC   NC361079  15.991  11.283   5.553
 9800POPC   PO461080  15.920  11.277   5.853
 9800POPC   GL161081  15.997  11.318   6.153
 9800POPC   GL261082  16.060  11.316   6.153
 9800POPC   C1A61083  15.916  11.311   6.453
 9800POPC   D2A61084  15.973  11.265   6.753
 9800POPC   C3A61085  15.917  11.339   7.053
 9800POPC   C4A61086  15.946  11.304   7.353
 9800POPC   C1B61087  16.172  11.276   6.453
 9800POPC   C2B61088  16.235  11.271   6.753
 9800POPC   C3B61089  16.217  11.249   7.053
 9800POPC   C4B61090  16.181  11.296   7.353
 9801POPC   NC361091  43.144  22.929   5.553
 9801POPC   PO461092  43.074  22.975   5.853
 9801POPC   GL161093  43.142  22.972   6.153
 9801POPC   GL261094  43.199  22.894   6.153
 9801POPC   C1A61095  43.118  22.903   6.453
 9801POPC   D2A61096  43.132  22.970   6.753
 9801POPC   C3A61097  43.128  22.892   7.053
 9801POPC   C4A61098  43.092  22.935   7.353
 9801POPC   C1B61099  43.324  22.904   6.453
 9801POPC   C2B61100  43.368  22.972   6.753
 9801POPC   C3B61101  43.324  22.894   7.053
 9801POPC   C4B61102  43.384  22.947   7.353
 9802POPC   NC361103  11.331  16.754   5.553
 9802POPC   PO461104  11.310  16.777   5.853
 9802POPC   GL161105  11.318  16.780   6.153
 9802POPC   GL261106  11.378  16.742   6.153
 9802POPC   C1A61107  11.276  16.762   6.453
 9802POPC   D2A61108  11.339  16.770   6.753
 9802POPC   C3A61109  11.257  16.763   7.053
 9802POPC   C4A61110  11.319  16.761   7.353
 9802POPC   C1B61111  11.558  16.668   6.453
 9802POPC   C2B61112  11.588  16.700   6.753
 9802POPC   C3B61113  11.565  16.681   7.053
 9802POPC   C4B61114  11.526  16.635   7.353
 9803POPC   NC361115  30.714   1.967   5.553
 9803POPC   PO461116  30.661   1.968   5.853
 9803POPC   GL161117  30.716   2.037   6.153
 9803POPC   GL261118  30.825   1.939   6.153
 9803POPC   C1A61119  30.655   1.958   6.453
 9803POPC   D2A61120  30.718   2.026   6.753
 9803POPC   C3A61121  30.649   1.954   7.053
 9803POPC   C4A61122  30.682   2.031   7.353
 9803POPC   C1B61123  30.868   1.777   6.453
 9803POPC   C2B61124  30.870   1.868   6.753
 9803POPC   C3B61125  30.890   1.830   7.053
 9803POPC   C4B61126  30.929   1.861   7.353
 9804POPC   NC361127   1.174  43.146   5.553
 9804POPC   PO461128   1.184  43.112   5.853
 9804POPC   GL161129   1.177  43.076   6.153
 9804POPC   GL261130   1.045  43.088   6.153
 9804POPC   C1A61131   1.221  43.139   6.453
 9804POPC   D2A61132   1.193  43.146   6.753
 9804POPC   C3A61133   1.170  43.118   7.053
 9804POPC   C4A61134   1.185  43.089   7.353
 9804POPC   C1B61135   0.953  43.068   6.453
 9804POPC   C2B61136   0.945  43.049   6.753
 9804POPC   C3B61137   0.954  43.022   7.053
 9804POPC   C4B61138   0.956  43.087   7.353
 9805POPC   NC361139  33.828  22.974   5.553
 9805POPC   PO461140  33.781  22.957   5.853
 9805POPC   GL161141  33.785  22.941   6.153
 9805POPC   GL261142  33.817  22.858   6.153
 9805POPC   C1A61143  33.842  22.976   6.453
 9805POPC   D2A61144  33.825  22.937   6.753
 9805POPC   C3A61145  33.799  22.923   7.053
 9805POPC   C4A61146  33.796  22.954   7.353
 9805POPC   C1B61147  33.926  22.729   6.453
 9805POPC   C2B61148  33.929  22.675   6.753
 9805POPC   C3B61149  33.922  22.695   7.053
 9805POPC   C4B61150  33.879  22.750   7.353
 9806POPC   NC361151  14.375  38.440   5.553
 9806POPC   PO461152  14.380  38.465   5.853
 9806POPC   GL161153  14.408  38.441   6.153
 9806POPC   GL261154  14.351  38.567   6.153
 9806POPC   C1A61155  14.432  38.413   6.453
 9806POPC   D2A61156  14.383  38.416   6.753
 9806POPC   C3A61157  14.428  38.475   7.053
 9806POPC   C4A61158  14.424  38.489   7.353
 9806POPC   C1B61159  14.377  38.726   6.453
 9806POPC   C2B61160  14.385  38.740   6.753
 9806POPC   C3B61161  14.372  38.722   7.053
 9806POPC   C4B61162  14.429  38.753   7.353
 9807POPC   NC361163   7.391  40.785   5.553
 9807POPC   PO461164   7.435  40.771   5.853
 9807POPC   GL161165   7.464  40.786   6.153
 9807POPC   GL261166   7.481  40.680   6.153
 9807POPC   C1A61167   7.427  40.798   6.453
 9807POPC   D2A61168   7.371  40.779   6.753
 9807POPC   C3A61169   7.385  40.821   7.053
 9807POPC   C4A61170   7.442  40.736   7.353
 9807POPC   C1B61171   7.583  40.595   6.453
 9807POPC   C2B61172   7.632  40.637   6.753
 9807POPC   C3B61173   7.604  40.640   7.053
 9807POPC   C4B61174   7.602  40.626   7.353
 9808POPC   NC361175  40.810  44.684   5.553
 9808POPC   PO461176  40.810  44.674   5.853
 9808POPC   GL161177  40.743  44.706   6.153
 9808POPC   GL261178  40.691  44.570   6.153
 9808POPC   C1A61179  40.735  44.617   6.453
 9808POPC   D2A61180  40.744  44.632   6.753
 9808POPC   C3A61181  40.781  44.616   7.053
 9808POPC   C4A61182  40.788  44.619   7.353
 9808POPC   C1B61183  40.708  44.428   6.453
 9808POPC   C2B61184  40.699  44.405   6.753
 9808POPC   C3B61185  40.718  44.436   7.053
 9808POPC   C4B61186  40.645  44.440   7.353
 9809POPC   NC361187  11.277  33.046   5.553
 9809POPC   PO461188  11.291  33.002   5.853
 9809POPC   GL161189  11.283  32.975   6.153
 9809POPC   GL261190  11.186  33.156   6.153
 9809POPC   C1A61191  11.292  33.010   6.453
 9809POPC   D2A61192  11.318  33.028   6.753
 9809POPC   C3A61193  11.259  33.071   7.053
 9809POPC   C4A61194  11.309  33.064   7.353
 9809POPC   C1B61195  11.164  33.229   6.453
 9809POPC   C2B61196  11.169  33.271   6.753
 9809POPC   C3B61197  11.158  33.264   7.053
 9809POPC   C4B61198  11.174  33.210   7.353
 9810POPC   NC361199  35.340  19.031   5.553
 9810POPC   PO461200  35.325  19.032   5.853
 9810POPC   GL161201  35.310  19.093   6.153
 9810POPC   GL261202  35.478  19.117   6.153
 9810POPC   C1A61203  35.315  19.064   6.453
 9810POPC   D2A61204  35.394  19.029   6.753
 9810POPC   C3A61205  35.354  19.035   7.053
 9810POPC   C4A61206  35.353  19.015   7.353
 9810POPC   C1B61207  35.595  19.151   6.453
 9810POPC   C2B61208  35.532  19.170   6.753
 9810POPC   C3B61209  35.540  19.203   7.053
 9810POPC   C4B61210  35.592  19.233   7.353
 9811POPC   NC361211  33.044  25.263   5.553
 9811POPC   PO461212  33.029  25.216   5.853
 9811POPC   GL161213  33.061  25.225   6.153
 9811POPC   GL261214  33.157  25.302   6.153
 9811POPC   C1A61215  33.026  25.260   6.453
 9811POPC   D2A61216  33.037  25.254   6.753
 9811POPC   C3A61217  32.986  25.287   7.053
 9811POPC   C4A61218  33.018  25.254   7.353
 9811POPC   C1B61219  33.241  25.402   6.453
 9811POPC   C2B61220  33.267  25.341   6.753
 9811POPC   C3B61221  33.232  25.359   7.053
 9811POPC   C4B61222  33.283  25.350   7.353
 9812POPC   NC361223  19.870   1.244   5.553
 9812POPC   PO461224  19.853   1.211   5.853
 9812POPC   GL161225  19.880   1.244   6.153
 9812POPC   GL261226  19.917   1.095   6.153
 9812POPC   C1A61227  19.810   1.205   6.453
 9812POPC   D2A61228  19.828   1.165   6.753
 9812POPC   C3A61229  19.816   1.197   7.053
 9812POPC   C4A61230  19.809   1.257   7.353
 9812POPC   C1B61231  19.997   1.052   6.453
 9812POPC   C2B61232  20.046   1.098   6.753
 9812POPC   C3B61233  20.003   1.035   7.053
 9812POPC   C4B61234  20.067   1.085   7.353
 9813POPC   NC361235  31.488  34.616   5.553
 9813POPC   PO461236  31.474  34.529   5.853
 9813POPC   GL161237  31.446  34.562   6.153
 9813POPC   GL261238  31.370  34.577   6.153
 9813POPC   C1A61239  31.451  34.624   6.453
 9813POPC   D2A61240  31.505  34.552   6.753
 9813POPC   C3A61241  31.507  34.548   7.053
 9813POPC   C4A61242  31.430  34.542   7.353
 9813POPC   C1B61243  31.248  34.596   6.453
 9813POPC   C2B61244  31.247  34.570   6.753
 9813POPC   C3B61245  31.179  34.587   7.053
 9813POPC   C4B61246  31.270  34.567   7.353
 9814POPC   NC361247  11.275  12.805   5.553
 9814POPC   PO461248  11.312  12.862   5.853
 9814POPC   GL161249  11.334  12.872   6.153
 9814POPC   GL261250  11.237  12.731   6.153
 9814POPC   C1A61251  11.258  12.873   6.453
 9814POPC   D2A61252  11.335  12.895   6.753
 9814POPC   C3A61253  11.318  12.839   7.053
 9814POPC   C4A61254  11.335  12.836   7.353
 9814POPC   C1B61255  11.101  12.718   6.453
 9814POPC   C2B61256  11.092  12.659   6.753
 9814POPC   C3B61257  11.115  12.670   7.053
 9814POPC   C4B61258  11.122  12.656   7.353
 9815POPC   NC361259   5.870  12.048   5.553
 9815POPC   PO461260   5.842  12.079   5.853
 9815POPC   GL161261   5.888  12.112   6.153
 9815POPC   GL261262   5.945  12.056   6.153
 9815POPC   C1A61263   5.886  12.106   6.453
 9815POPC   D2A61264   5.884  12.058   6.753
 9815POPC   C3A61265   5.914  12.113   7.053
 9815POPC   C4A61266   5.849  12.111   7.353
 9815POPC   C1B61267   6.068  12.144   6.453
 9815POPC   C2B61268   6.087  12.133   6.753
 9815POPC   C3B61269   6.068  12.084   7.053
 9815POPC   C4B61270   6.125  12.055   7.353
 9816POPC   NC361271  31.473  25.294   5.553
 9816POPC   PO461272  31.489  25.267   5.853
 9816POPC   GL161273  31.464  25.249   6.153
 9816POPC   GL261274  31.440  25.395   6.153
 9816POPC   C1A61275  31.475  25.251   6.453
 9816POPC   D2A61276  31.444  25.253   6.753
 9816POPC   C3A61277  31.428  25.225   7.053
 9816POPC   C4A61278  31.460  25.299   7.353
 9816POPC   C1B61279  31.392  25.481   6.453
 9816POPC   C2B61280  31.478  25.530   6.753
 9816POPC   C3B61281  31.390  25.555   7.053
 9816POPC   C4B61282  31.395  25.469   7.353
 9817POPC   NC361283   4.268  38.481   5.553
 9817POPC   PO461284   4.307  38.452   5.853
 9817POPC   GL161285   4.329  38.441   6.153
 9817POPC   GL261286   4.202  38.450   6.153
 9817POPC   C1A61287   4.329  38.462   6.453
 9817POPC   D2A61288   4.323  38.473   6.753
 9817POPC   C3A61289   4.315  38.448   7.053
 9817POPC   C4A61290   4.313  38.449   7.353
 9817POPC   C1B61291   4.083  38.338   6.453
 9817POPC   C2B61292   4.133  38.374   6.753
 9817POPC   C3B61293   4.058  38.316   7.053
 9817POPC   C4B61294   4.134  38.388   7.353
 9818POPC   NC361295  40.822  43.090   5.553
 9818POPC   PO461296  40.774  43.152   5.853
 9818POPC   GL161297  40.815  43.110   6.153
 9818POPC   GL261298  40.683  43.158   6.153
 9818POPC   C1A61299  40.750  43.080   6.453
 9818POPC   D2A61300  40.788  43.072   6.753
 9818POPC   C3A61301  40.747  43.154   7.053
 9818POPC   C4A61302  40.796  43.109   7.353
 9818POPC   C1B61303  40.589  43.302   6.453
 9818POPC   C2B61304  40.598  43.268   6.753
 9818POPC   C3B61305  40.576  43.227   7.053
 9818POPC   C4B61306  40.609  43.221   7.353
 9819POPC   NC361307   0.453  35.318   5.553
 9819POPC   PO461308   0.389  35.384   5.853
 9819POPC   GL161309   0.447  35.352   6.153
 9819POPC   GL261310   0.349  35.204   6.153
 9819POPC   C1A61311   0.422  35.339   6.453
 9819POPC   D2A61312   0.486  35.304   6.753
 9819POPC   C3A61313   0.449  35.348   7.053
 9819POPC   C4A61314   0.458  35.359   7.353
 9819POPC   C1B61315   0.310  35.120   6.453
 9819POPC   C2B61316   0.294  35.160   6.753
 9819POPC   C3B61317   0.317  35.104   7.053
 9819POPC   C4B61318   0.282  35.099   7.353
 9820POPC   NC361319  19.094  43.061   5.553
 9820POPC   PO461320  19.054  43.085   5.853
 9820POPC   GL161321  19.035  43.145   6.153
 9820POPC   GL261322  19.165  43.233   6.153
 9820POPC   C1A61323  19.085  43.077   6.453
 9820POPC   D2A61324  19.051  43.097   6.753
 9820POPC   C3A61325  19.051  43.085   7.053
 9820POPC   C4A61326  19.050  43.061   7.353
 9820POPC   C1B61327  19.228  43.371   6.453
 9820POPC   C2B61328  19.225  43.324   6.753
 9820POPC   C3B61329  19.190  43.350   7.053
 9820POPC   C4B61330  19.225  43.314   7.353
 9821POPC   NC361331  31.465  18.269   5.553
 9821POPC   PO461332  31.519  18.325   5.853
 9821POPC   GL161333  31.470  18.313   6.153
 9821POPC   GL261334  31.410  18.121   6.153
 9821POPC   C1A61335  31.433  18.245   6.453
 9821POPC   D2A61336  31.429  18.278   6.753
 9821POPC   C3A61337  31.431  18.331   7.053
 9821POPC   C4A61338  31.474  18.264   7.353
 9821POPC   C1B61339  31.429  17.997   6.453
 9821POPC   C2B61340  31.387  18.026   6.753
 9821POPC   C3B61341  31.405  18.071   7.053
 9821POPC   C4B61342  31.396  18.052   7.353
 9822POPC   NC361343   6.695   8.924   5.553
 9822POPC   PO461344   6.625   8.972   5.853
 9822POPC   GL161345   6.665   8.969   6.153
 9822POPC   GL261346   6.632   8.812   6.153
 9822POPC   C1A61347   6.640   8.960   6.453
 9822POPC   D2A61348   6.599   8.984   6.753
 9822POPC   C3A61349   6.671   8.950   7.053
 9822POPC   C4A61350   6.650   8.924   7.353
 9822POPC   C1B61351   6.597   8.689   6.453
 9822POPC   C2B61352   6.565   8.747   6.753
 9822POPC   C3B61353   6.600   8.700   7.053
 9822POPC   C4B61354   6.612   8.706   7.353
 9823POPC   NC361355  25.241  12.067   5.553
 9823POPC   PO461356  25.274  12.102   5.853
 9823POPC   GL161357  25.286  12.113   6.153
 9823POPC   GL261358  25.170  12.133   6.153
 9823POPC   C1A61359  25.217  12.089   6.453
 9823POPC   D2A61360  25.234  12.038   6.753
 9823POPC   C3A61361  25.216  12.088   7.053
 9823POPC   C4A61362  25.307  12.053   7.353
 9823POPC   C1B61363  25.072  12.179   6.453
 9823POPC   C2B61364  25.102  12.208   6.753
 9823POPC   C3B61365  25.012  12.208   7.053
 9823POPC   C4B61366  25.093  12.260   7.353
 9824POPC   NC361367  36.874  12.046   5.553
 9824POPC   PO461368  36.889  12.077   5.853
 9824POPC   GL161369  36.934  12.077   6.153
 9824POPC   GL261370  36.787  12.184   6.153
 9824POPC   C1A61371  36.930  12.125   6.453
 9824POPC   D2A61372  36.886  12.081   6.753
 9824POPC   C3A61373  36.876  12.081   7.053
 9824POPC   C4A61374  36.894  12.102   7.353
 9824POPC   C1B61375  36.700  12.312   6.453
 9824POPC   C2B61376  36.707  12.217   6.753
 9824POPC   C3B61377  36.780  12.218   7.053
 9824POPC   C4B61378  36.743  12.263   7.353
 9825POPC   NC361379  38.438  22.131   5.553
 9825POPC   PO461380  38.438  22.129   5.853
 9825POPC   GL161381  38.491  22.199   6.153
 9825POPC   GL261382  38.419  21.992   6.153
 9825POPC   C1A61383  38.452  22.177   6.453
 9825POPC   D2A61384  38.433  22.192   6.753
 9825POPC   C3A61385  38.431  22.138   7.053
 9825POPC   C4A61386  38.484  22.115   7.353
 9825POPC   C1B61387  38.400  21.956   6.453
 9825POPC   C2B61388  38.358  21.872   6.753
 9825POPC   C3B61389  38.365  21.874   7.053
 9825POPC   C4B61390  38.391  21.947   7.353
 9826POPC   NC361391  10.498  43.913   5.553
 9826POPC   PO461392  10.490  43.931   5.853
 9826POPC   GL161393  10.535  43.853   6.153
 9826POPC   GL261394  10.672  43.848   6.153
 9826POPC   C1A61395  10.493  43.842   6.453
 9826POPC   D2A61396  10.525  43.928   6.753
 9826POPC   C3A61397  10.531  43.846   7.053
 9826POPC   C4A61398  10.498  43.855   7.353
 9826POPC   C1B61399  10.783  43.764   6.453
 9826POPC   C2B61400  10.718  43.748   6.753
 9826POPC   C3B61401  10.794  43.808   7.053
 9826POPC   C4B61402  10.782  43.774   7.353
 9827POPC   NC361403  41.582  21.341   5.553
 9827POPC   PO461404  41.543  21.352   5.853
 9827POPC   GL161405  41.582  21.369   6.153
 9827POPC   GL261406  41.626  21.524   6.153
 9827POPC   C1A61407  41.564  21.352   6.453
 9827POPC   D2A61408  41.545  21.347   6.753
 9827POPC   C3A61409  41.602  21.415   7.053
 9827POPC   C4A61410  41.589  21.419   7.353
 9827POPC   C1B61411  41.617  21.631   6.453
 9827POPC   C2B61412  41.611  21.616   6.753
 9827POPC   C3B61413  41.605  21.588   7.053
 9827POPC   C4B61414  41.557  21.652   7.353
 9828POPC   NC361415  29.179  37.686   5.553
 9828POPC   PO461416  29.182  37.648   5.853
 9828POPC   GL161417  29.182  37.640   6.153
 9828POPC   GL261418  29.224  37.753   6.153
 9828POPC   C1A61419  29.163  37.688   6.453
 9828POPC   D2A61420  29.130  37.658   6.753
 9828POPC   C3A61421  29.177  37.725   7.053
 9828POPC   C4A61422  29.176  37.630   7.353
 9828POPC   C1B61423  29.340  37.844   6.453
 9828POPC   C2B61424  29.325  37.863   6.753
 9828POPC   C3B61425  29.341  37.866   7.053
 9828POPC   C4B61426  29.316  37.846   7.353
 9829POPC   NC361427  24.508  12.098   5.553
 9829POPC   PO461428  24.493  12.103   5.853
 9829POPC   GL161429  24.471  12.107   6.153
 9829POPC   GL261430  24.410  12.082   6.153
 9829POPC   C1A61431  24.444  12.041   6.453
 9829POPC   D2A61432  24.530  12.049   6.753
 9829POPC   C3A61433  24.460  12.114   7.053
 9829POPC   C4A61434  24.465  12.052   7.353
 9829POPC   C1B61435  24.238  12.016   6.453
 9829POPC   C2B61436  24.200  11.985   6.753
 9829POPC   C3B61437  24.232  12.023   7.053
 9829POPC   C4B61438  24.200  12.032   7.353
 9830POPC   NC361439   2.739  38.475   5.553
 9830POPC   PO461440   2.775  38.462   5.853
 9830POPC   GL161441   2.750  38.495   6.153
 9830POPC   GL261442   2.753  38.562   6.153
 9830POPC   C1A61443   2.740  38.408   6.453
 9830POPC   D2A61444   2.772  38.434   6.753
 9830POPC   C3A61445   2.803  38.497   7.053
 9830POPC   C4A61446   2.748  38.465   7.353
 9830POPC   C1B61447   2.676  38.676   6.453
 9830POPC   C2B61448   2.631  38.706   6.753
 9830POPC   C3B61449   2.685  38.726   7.053
 9830POPC   C4B61450   2.712  38.655   7.353
 9831POPC   NC361451  42.374  17.465   5.553
 9831POPC   PO461452  42.359  17.463   5.853
 9831POPC   GL161453  42.338  17.527   6.153
 9831POPC   GL261454  42.242  17.476   6.153
 9831POPC   C1A61455  42.303  17.505   6.453
 9831POPC   D2A61456  42.371  17.484   6.753
 9831POPC   C3A61457  42.347  17.520   7.053
 9831POPC   C4A61458  42.294  17.545   7.353
 9831POPC   C1B61459  42.078  17.446   6.453
 9831POPC   C2B61460  42.041  17.534   6.753
 9831POPC   C3B61461  42.124  17.528   7.053
 9831POPC   C4B61462  42.086  17.491   7.353
 9832POPC   NC361463   9.745  33.834   5.553
 9832POPC   PO461464   9.782  33.804   5.853
 9832POPC   GL161465   9.704  33.751   6.153
 9832POPC   GL261466   9.596  33.769   6.153
 9832POPC   C1A61467   9.732  33.839   6.453
 9832POPC   D2A61468   9.714  33.762   6.753
 9832POPC   C3A61469   9.724  33.753   7.053
 9832POPC   C4A61470   9.795  33.797   7.353
 9832POPC   C1B61471   9.570  33.652   6.453
 9832POPC   C2B61472   9.512  33.648   6.753
 9832POPC   C3B61473   9.575  33.675   7.053
 9832POPC   C4B61474   9.498  33.674   7.353
 9833POPC   NC361475  10.508  25.236   5.553
 9833POPC   PO461476  10.549  25.271   5.853
 9833POPC   GL161477  10.555  25.308   6.153
 9833POPC   GL261478  10.424  25.322   6.153
 9833POPC   C1A61479  10.565  25.267   6.453
 9833POPC   D2A61480  10.553  25.281   6.753
 9833POPC   C3A61481  10.569  25.299   7.053
 9833POPC   C4A61482  10.498  25.311   7.353
 9833POPC   C1B61483  10.348  25.465   6.453
 9833POPC   C2B61484  10.387  25.523   6.753
 9833POPC   C3B61485  10.425  25.487   7.053
 9833POPC   C4B61486  10.427  25.455   7.353
 9834POPC   NC361487  14.367  34.625   5.553
 9834POPC   PO461488  14.403  34.622   5.853
 9834POPC   GL161489  14.373  34.567   6.153
 9834POPC   GL261490  14.500  34.644   6.153
 9834POPC   C1A61491  14.409  34.590   6.453
 9834POPC   D2A61492  14.380  34.544   6.753
 9834POPC   C3A61493  14.399  34.548   7.053
 9834POPC   C4A61494  14.387  34.624   7.353
 9834POPC   C1B61495  14.653  34.620   6.453
 9834POPC   C2B61496  14.660  34.606   6.753
 9834POPC   C3B61497  14.669  34.634   7.053
 9834POPC   C4B61498  14.690  34.607   7.353
 9835POPC   NC361499  33.821  10.505   5.553
 9835POPC   PO461500  33.829  10.567   5.853
 9835POPC   GL161501  33.775  10.482   6.153
 9835POPC   GL261502  33.635  10.496   6.153
 9835POPC   C1A61503  33.842  10.486   6.453
 9835POPC   D2A61504  33.834  10.483   6.753
 9835POPC   C3A61505  33.835  10.544   7.053
 9835POPC   C4A61506  33.773  10.484   7.353
 9835POPC   C1B61507  33.570  10.529   6.453
 9835POPC   C2B61508  33.564  10.494   6.753
 9835POPC   C3B61509  33.552  10.591   7.053
 9835POPC   C4B61510  33.586  10.527   7.353
 9836POPC   NC361511   3.585  37.677   5.553
 9836POPC   PO461512   3.531  37.702   5.853
 9836POPC   GL161513   3.512  37.642   6.153
 9836POPC   GL261514   3.633  37.641   6.153
 9836POPC   C1A61515   3.553  37.678   6.453
 9836POPC   D2A61516   3.530  37.661   6.753
 9836POPC   C3A61517   3.492  37.719   7.053
 9836POPC   C4A61518   3.513  37.726   7.353
 9836POPC   C1B61519   3.783  37.688   6.453
 9836POPC   C2B61520   3.755  37.639   6.753
 9836POPC   C3B61521   3.809  37.661   7.053
 9836POPC   C4B61522   3.794  37.636   7.353
 9837POPC   NC361523  22.927   5.835   5.553
 9837POPC   PO461524  22.927   5.914   5.853
 9837POPC   GL161525  22.980   5.908   6.153
 9837POPC   GL261526  23.057   5.788   6.153
 9837POPC   C1A61527  22.907   5.820   6.453
 9837POPC   D2A61528  22.956   5.864   6.753
 9837POPC   C3A61529  22.892   5.836   7.053
 9837POPC   C4A61530  22.891   5.849   7.353
 9837POPC   C1B61531  23.110   5.674   6.453
 9837POPC   C2B61532  23.082   5.687   6.753
 9837POPC   C3B61533  23.031   5.650   7.053
 9837POPC   C4B61534  23.074   5.623   7.353
 9838POPC   NC361535  13.582  12.088   5.553
 9838POPC   PO461536  13.649  12.125   5.853
 9838POPC   GL161537  13.599  12.073   6.153
 9838POPC   GL261538  13.701  12.171   6.153
 9838POPC   C1A61539  13.666  12.072   6.453
 9838POPC   D2A61540  13.654  12.080   6.753
 9838POPC   C3A61541  13.649  12.065   7.053
 9838POPC   C4A61542  13.615  12.093   7.353
 9838POPC   C1B61543  13.864  12.182   6.453
 9838POPC   C2B61544  13.821  12.145   6.753
 9838POPC   C3B61545  13.858  12.204   7.053
 9838POPC   C4B61546  13.870  12.202   7.353
 9839POPC   NC361547   9.786   5.100   5.553
 9839POPC   PO461548   9.792   5.112   5.853
 9839POPC   GL161549   9.792   5.062   6.153
 9839POPC   GL261550   9.591   5.099   6.153
 9839POPC   C1A61551   9.746   5.061   6.453
 9839POPC   D2A61552   9.765   5.075   6.753
 9839POPC   C3A61553   9.701   5.082   7.053
 9839POPC   C4A61554   9.791   5.086   7.353
 9839POPC   C1B61555   9.536   5.114   6.453
 9839POPC   C2B61556   9.460   5.143   6.753
 9839POPC   C3B61557   9.548   5.191   7.053
 9839POPC   C4B61558   9.522   5.120   7.353
 9840POPC   NC361559  19.814   7.396   5.553
 9840POPC   PO461560  19.872   7.455   5.853
 9840POPC   GL161561  19.807   7.465   6.153
 9840POPC   GL261562  19.852   7.257   6.153
 9840POPC   C1A61563  19.808   7.383   6.453
 9840POPC   D2A61564  19.801   7.431   6.753
 9840POPC   C3A61565  19.846   7.395   7.053
 9840POPC   C4A61566  19.845   7.439   7.353
 9840POPC   C1B61567  19.938   7.184   6.453
 9840POPC   C2B61568  19.906   7.165   6.753
 9840POPC   C3B61569  19.960   7.205   7.053
 9840POPC   C4B61570  19.862   7.187   7.353
 9841POPC   NC361571  31.441  22.184   5.553
 9841POPC   PO461572  31.470  22.154   5.853
 9841POPC   GL161573  31.510  22.173   6.153
 9841POPC   GL261574  31.376  22.155   6.153
 9841POPC   C1A61575  31.505  22.169   6.453
 9841POPC   D2A61576  31.449  22.127   6.753
 9841POPC   C3A61577  31.488  22.145   7.053
 9841POPC   C4A61578  31.455  22.121   7.353
 9841POPC   C1B61579  31.182  22.176   6.453
 9841POPC   C2B61580  31.195  22.125   6.753
 9841POPC   C3B61581  31.236  22.130   7.053
 9841POPC   C4B61582  31.217  22.121   7.353
 9842POPC   NC361583   1.196   1.998   5.553
 9842POPC   PO461584   1.174   2.004   5.853
 9842POPC   GL161585   1.212   1.961   6.153
 9842POPC   GL261586   1.242   2.119   6.153
 9842POPC   C1A61587   1.207   2.025   6.453
 9842POPC   D2A61588   1.249   1.973   6.753
 9842POPC   C3A61589   1.192   2.038   7.053
 9842POPC   C4A61590   1.261   1.996   7.353
 9842POPC   C1B61591   1.168   2.209   6.453
 9842POPC   C2B61592   1.207   2.228   6.753
 9842POPC   C3B61593   1.210   2.286   7.053
 9842POPC   C4B61594   1.210   2.281   7.353
 9843POPC   NC361595  43.913  19.060   5.553
 9843POPC   PO461596  43.842  19.062   5.853
 9843POPC   GL161597  43.911  19.081   6.153
 9843POPC   GL261598  44.045  19.064   6.153
 9843POPC   C1A61599  43.890  19.025   6.453
 9843POPC   D2A61600  43.873  19.013   6.753
 9843POPC   C3A61601  43.897  19.107   7.053
 9843POPC   C4A61602  43.843  19.104   7.353
 9843POPC   C1B61603  44.092  19.203   6.453
 9843POPC   C2B61604  44.119  19.192   6.753
 9843POPC   C3B61605  44.112  19.210   7.053
 9843POPC   C4B61606  44.069  19.110   7.353
 9844POPC   NC361607  19.041  43.880   5.553
 9844POPC   PO461608  19.071  43.876   5.853
 9844POPC   GL161609  19.105  43.889   6.153
 9844POPC   GL261610  18.951  43.829   6.153
 9844POPC   C1A61611  19.107  43.910   6.453
 9844POPC   D2A61612  19.098  43.907   6.753
 9844POPC   C3A61613  19.012  43.878   7.053
 9844POPC   C4A61614  19.042  43.895   7.353
 9844POPC   C1B61615  18.869  43.710   6.453
 9844POPC   C2B61616  18.839  43.744   6.753
 9844POPC   C3B61617  18.824  43.734   7.053
 9844POPC   C4B61618  18.882  43.712   7.353
 9845POPC   NC361619  40.002  30.725   5.553
 9845POPC   PO461620  40.055  30.658   5.853
 9845POPC   GL161621  39.972  30.694   6.153
 9845POPC   GL261622  39.995  30.613   6.153
 9845POPC   C1A61623  40.010  30.732   6.453
 9845POPC   D2A61624  40.046  30.676   6.753
 9845POPC   C3A61625  40.025  30.701   7.053
 9845POPC   C4A61626  39.961  30.678   7.353
 9845POPC   C1B61627  40.118  30.461   6.453
 9845POPC   C2B61628  40.076  30.497   6.753
 9845POPC   C3B61629  40.026  30.434   7.053
 9845POPC   C4B61630  40.084  30.414   7.353
 9846POPC   NC361631  39.979  43.092   5.553
 9846POPC   PO461632  39.981  43.121   5.853
 9846POPC   GL161633  39.978  43.129   6.153
 9846POPC   GL261634  39.895  43.092   6.153
 9846POPC   C1A61635  40.055  43.097   6.453
 9846POPC   D2A61636  39.986  43.116   6.753
 9846POPC   C3A61637  40.005  43.073   7.053
 9846POPC   C4A61638  40.034  43.095   7.353
 9846POPC   C1B61639  39.713  43.151   6.453
 9846POPC   C2B61640  39.751  43.164   6.753
 9846POPC   C3B61641  39.768  43.159   7.053
 9846POPC   C4B61642  39.755  43.079   7.353
 9847POPC   NC361643   5.901  38.501   5.553
 9847POPC   PO461644   5.883  38.458   5.853
 9847POPC   GL161645   5.879  38.476   6.153
 9847POPC   GL261646   5.705  38.526   6.153
 9847POPC   C1A61647   5.890  38.408   6.453
 9847POPC   D2A61648   5.847  38.460   6.753
 9847POPC   C3A61649   5.877  38.424   7.053
 9847POPC   C4A61650   5.889  38.435   7.353
 9847POPC   C1B61651   5.602  38.482   6.453
 9847POPC   C2B61652   5.631  38.543   6.753
 9847POPC   C3B61653   5.651  38.501   7.053
 9847POPC   C4B61654   5.668  38.535   7.353
 9848POPC   NC361655  28.354  18.254   5.553
 9848POPC   PO461656  28.386  18.322   5.853
 9848POPC   GL161657  28.352  18.310   6.153
 9848POPC   GL261658  28.492  18.297   6.153
 9848POPC   C1A61659  28.380  18.249   6.453
 9848POPC   D2A61660  28.327  18.288   6.753
 9848POPC   C3A61661  28.400  18.238   7.053
 9848POPC   C4A61662  28.402  18.329   7.353
 9848POPC   C1B61663  28.632  18.277   6.453
 9848POPC   C2B61664  28.589  18.279   6.753
 9848POPC   C3B61665  28.615  18.338   7.053
 9848POPC   C4B61666  28.596  18.273   7.353
 9849POPC   NC361667  10.565   2.784   5.553
 9849POPC   PO461668  10.563   2.745   5.853
 9849POPC   GL161669  10.492   2.814   6.153
 9849POPC   GL261670  10.468   2.684   6.153
 9849POPC   C1A61671  10.567   2.772   6.453
 9849POPC   D2A61672  10.568   2.771   6.753
 9849POPC   C3A61673  10.517   2.720   7.053
 9849POPC   C4A61674  10.520   2.797   7.353
 9849POPC   C1B61675  10.432   2.554   6.453
 9849POPC   C2B61676  10.392   2.514   6.753
 9849POPC   C3B61677  10.433   2.555   7.053
 9849POPC   C4B61678  10.394   2.585   7.353
 9850POPC   NC361679   3.541  25.314   5.553
 9850POPC   PO461680   3.551  25.220   5.853
 9850POPC   GL161681   3.587  25.232   6.153
 9850POPC   GL261682   3.615  25.330   6.153
 9850POPC   C1A61683   3.554  25.312   6.453
 9850POPC   D2A61684   3.532  25.305   6.753
 9850POPC   C3A61685   3.520  25.254   7.053
 9850POPC   C4A61686   3.590  25.296   7.353
 9850POPC   C1B61687   3.827  25.377   6.453
 9850POPC   C2B61688   3.787  25.374   6.753
 9850POPC   C3B61689   3.757  25.306   7.053
 9850POPC   C4B61690   3.814  25.289   7.353
 9851POPC   NC361691   4.289  15.981   5.553
 9851POPC   PO461692   4.273  15.970   5.853
 9851POPC   GL161693   4.319  15.920   6.153
 9851POPC   GL261694   4.320  16.035   6.153
 9851POPC   C1A61695   4.353  16.003   6.453
 9851POPC   D2A61696   4.355  16.000   6.753
 9851POPC   C3A61697   4.313  15.982   7.053
 9851POPC   C4A61698   4.295  15.970   7.353
 9851POPC   C1B61699   4.385  16.202   6.453
 9851POPC   C2B61700   4.354  16.218   6.753
 9851POPC   C3B61701   4.372  16.216   7.053
 9851POPC   C4B61702   4.324  16.204   7.353
 9852POPC   NC361703  19.055   2.775   5.553
 9852POPC   PO461704  19.091   2.730   5.853
 9852POPC   GL161705  19.028   2.790   6.153
 9852POPC   GL261706  19.175   2.776   6.153
 9852POPC   C1A61707  19.059   2.770   6.453
 9852POPC   D2A61708  19.085   2.811   6.753
 9852POPC   C3A61709  19.087   2.803   7.053
 9852POPC   C4A61710  19.094   2.762   7.353
 9852POPC   C1B61711  19.320   2.915   6.453
 9852POPC   C2B61712  19.290   2.879   6.753
 9852POPC   C3B61713  19.274   2.886   7.053
 9852POPC   C4B61714  19.240   2.861   7.353
 9853POPC   NC361715  33.754   8.223   5.553
 9853POPC   PO461716  33.788   8.206   5.853
 9853POPC   GL161717  33.844   8.195   6.153
 9853POPC   GL261718  33.715   8.286   6.153
 9853POPC   C1A61719  33.801   8.218   6.453
 9853POPC   D2A61720  33.779   8.244   6.753
 9853POPC   C3A61721  33.801   8.161   7.053
 9853POPC   C4A61722  33.783   8.244   7.353
 9853POPC   C1B61723  33.569   8.293   6.453
 9853POPC   C2B61724  33.612   8.330   6.753
 9853POPC   C3B61725  33.565   8.376   7.053
 9853POPC   C4B61726  33.633   8.320   7.353
 9854POPC   NC361727  34.615   5.057   5.553
 9854POPC   PO461728  34.540   5.050   5.853
 9854POPC   GL161729  34.604   5.083   6.153
 9854POPC   GL261730  34.489   5.020   6.153
 9854POPC   C1A61731  34.559   5.070   6.453
 9854POPC   D2A61732  34.622   5.085   6.753
 9854POPC   C3A61733  34.620   5.124   7.053
 9854POPC   C4A61734  34.616   5.054   7.353
 9854POPC   C1B61735  34.427   4.908   6.453
 9854POPC   C2B61736  34.354   4.922   6.753
 9854POPC   C3B61737  34.369   4.933   7.053
 9854POPC   C4B61738  34.397   4.952   7.353
 9855POPC   NC361739  24.532  24.499   5.553
 9855POPC   PO461740  24.532  24.490   5.853
 9855POPC   GL161741  24.475  24.444   6.153
 9855POPC   GL261742  24.392  24.519   6.153
 9855POPC   C1A61743  24.504  24.478   6.453
 9855POPC   D2A61744  24.452  24.523   6.753
 9855POPC   C3A61745  24.502  24.508   7.053
 9855POPC   C4A61746  24.452  24.536   7.353
 9855POPC   C1B61747  24.230  24.507   6.453
 9855POPC   C2B61748  24.256  24.546   6.753
 9855POPC   C3B61749  24.230  24.476   7.053
 9855POPC   C4B61750  24.257  24.497   7.353
 9856POPC   NC361751   8.201  23.728   5.553
 9856POPC   PO461752   8.189  23.688   5.853
 9856POPC   GL161753   8.161  23.733   6.153
 9856POPC   GL261754   8.256  23.642   6.153
 9856POPC   C1A61755   8.186  23.708   6.453
 9856POPC   D2A61756   8.178  23.689   6.753
 9856POPC   C3A61757   8.175  23.727   7.053
 9856POPC   C4A61758   8.173  23.664   7.353
 9856POPC   C1B61759   8.290  23.542   6.453
 9856POPC   C2B61760   8.322  23.450   6.753
 9856POPC   C3B61761   8.281  23.471   7.053
 9856POPC   C4B61762   8.318  23.476   7.353
 9857POPC   NC361763  41.551  39.183   5.553
 9857POPC   PO461764  41.577  39.223   5.853
 9857POPC   GL161765  41.597  39.224   6.153
 9857POPC   GL261766  41.450  39.224   6.153
 9857POPC   C1A61767  41.583  39.206   6.453
 9857POPC   D2A61768  41.579  39.228   6.753
 9857POPC   C3A61769  41.599  39.223   7.053
 9857POPC   C4A61770  41.529  39.196   7.353
 9857POPC   C1B61771  41.274  39.235   6.453
 9857POPC   C2B61772  41.299  39.320   6.753
 9857POPC   C3B61773  41.338  39.232   7.053
 9857POPC   C4B61774  41.268  39.315   7.353
 9858POPC   NC361775   2.729   0.435   5.553
 9858POPC   PO461776   2.777   0.465   5.853
 9858POPC   GL161777   2.795   0.403   6.153
 9858POPC   GL261778   2.641   0.389   6.153
 9858POPC   C1A61779   2.755   0.395   6.453
 9858POPC   D2A61780   2.740   0.477   6.753
 9858POPC   C3A61781   2.814   0.402   7.053
 9858POPC   C4A61782   2.776   0.419   7.353
 9858POPC   C1B61783   2.474   0.423   6.453
 9858POPC   C2B61784   2.556   0.400   6.753
 9858POPC   C3B61785   2.473   0.407   7.053
 9858POPC   C4B61786   2.534   0.372   7.353
 9859POPC   NC361787   4.352  43.872   5.553
 9859POPC   PO461788   4.289  43.853   5.853
 9859POPC   GL161789   4.288  43.839   6.153
 9859POPC   GL261790   4.224  43.818   6.153
 9859POPC   C1A61791   4.363  43.919   6.453
 9859POPC   D2A61792   4.313  43.907   6.753
 9859POPC   C3A61793   4.307  43.873   7.053
 9859POPC   C4A61794   4.316  43.919   7.353
 9859POPC   C1B61795   4.038  43.835   6.453
 9859POPC   C2B61796   4.109  43.794   6.753
 9859POPC   C3B61797   4.051  43.835   7.053
 9859POPC   C4B61798   4.081  43.823   7.353
 9860POPC   NC361799  44.625  34.562   5.553
 9860POPC   PO461800  44.675  34.530   5.853
 9860POPC   GL161801  44.630  34.565   6.153
 9860POPC   GL261802  44.745  34.482   6.153
 9860POPC   C1A61803  44.621  34.570   6.453
 9860POPC   D2A61804  44.710  34.531   6.753
 9860POPC   C3A61805  44.702  34.538   7.053
 9860POPC   C4A61806  44.625  34.610   7.353
 9860POPC   C1B61807  44.844  34.358   6.453
 9860POPC   C2B61808  44.794  34.428   6.753
 9860POPC   C3B61809  44.888  34.364   7.053
 9860POPC   C4B61810  44.885  34.358   7.353
 9861POPC   NC361811  33.799  37.660   5.553
 9861POPC   PO461812  33.842  37.676   5.853
 9861POPC   GL161813  33.768  37.658   6.153
 9861POPC   GL261814  33.841  37.517   6.153
 9861POPC   C1A61815  33.833  37.721   6.453
 9861POPC   D2A61816  33.809  37.653   6.753
 9861POPC   C3A61817  33.832  37.686   7.053
 9861POPC   C4A61818  33.784  37.658   7.353
 9861POPC   C1B61819  33.757  37.401   6.453
 9861POPC   C2B61820  33.818  37.450   6.753
 9861POPC   C3B61821  33.747  37.453   7.053
 9861POPC   C4B61822  33.748  37.429   7.353
 9862POPC   NC361823  16.736  17.501   5.553
 9862POPC   PO461824  16.690  17.483   5.853
 9862POPC   GL161825  16.728  17.476   6.153
 9862POPC   GL261826  16.637  17.591   6.153
 9862POPC   C1A61827  16.696  17.485   6.453
 9862POPC   D2A61828  16.681  17.467   6.753
 9862POPC   C3A61829  16.763  17.523   7.053
 9862POPC   C4A61830  16.683  17.485   7.353
 9862POPC   C1B61831  16.537  17.649   6.453
 9862POPC   C2B61832  16.511  17.590   6.753
 9862POPC   C3B61833  16.518  17.621   7.053
 9862POPC   C4B61834  16.496  17.593   7.353
 9863POPC   NC361835  11.273  44.700   5.553
 9863POPC   PO461836  11.298  44.683   5.853
 9863POPC   GL161837  11.326  44.632   6.153
 9863POPC   GL261838  11.438  44.771   6.153
 9863POPC   C1A61839  11.302  44.692   6.453
 9863POPC   D2A61840  11.338  44.698   6.753
 9863POPC   C3A61841  11.344  44.616   7.053
 9863POPC   C4A61842  11.342  44.701   7.353
 9863POPC   C1B61843  11.518  44.861   6.453
 9863POPC   C2B61844  11.502  44.768   6.753
 9863POPC   C3B61845  11.465  44.861   7.053
 9863POPC   C4B61846  11.483  44.826   7.353
 9864POPC   NC361847   9.751  13.588   5.553
 9864POPC   PO461848   9.705  13.651   5.853
 9864POPC   GL161849   9.701  13.650   6.153
 9864POPC   GL261850   9.664  13.605   6.153
 9864POPC   C1A61851   9.704  13.596   6.453
 9864POPC   D2A61852   9.706  13.587   6.753
 9864POPC   C3A61853   9.747  13.655   7.053
 9864POPC   C4A61854   9.737  13.662   7.353
 9864POPC   C1B61855   9.518  13.546   6.453
 9864POPC   C2B61856   9.465  13.635   6.753
 9864POPC   C3B61857   9.539  13.636   7.053
 9864POPC   C4B61858   9.505  13.569   7.353
 9865POPC   NC361859   8.965   7.373   5.553
 9865POPC   PO461860   9.021   7.452   5.853
 9865POPC   GL161861   9.013   7.443   6.153
 9865POPC   GL261862   8.814   7.433   6.153
 9865POPC   C1A61863   9.016   7.416   6.453
 9865POPC   D2A61864   8.989   7.450   6.753
 9865POPC   C3A61865   8.928   7.409   7.053
 9865POPC   C4A61866   9.021   7.435   7.353
 9865POPC   C1B61867   8.748   7.578   6.453
 9865POPC   C2B61868   8.701   7.512   6.753
 9865POPC   C3B61869   8.784   7.508   7.053
 9865POPC   C4B61870   8.776   7.527   7.353
 9866POPC   NC361871  39.971  42.335   5.553
 9866POPC   PO461872  40.011  42.350   5.853
 9866POPC   GL161873  40.001  42.321   6.153
 9866POPC   GL261874  39.937  42.235   6.153
 9866POPC   C1A61875  39.996  42.364   6.453
 9866POPC   D2A61876  39.969  42.352   6.753
 9866POPC   C3A61877  40.017  42.299   7.053
 9866POPC   C4A61878  39.988  42.312   7.353
 9866POPC   C1B61879  39.893  42.134   6.453
 9866POPC   C2B61880  39.856  42.180   6.753
 9866POPC   C3B61881  39.893  42.125   7.053
 9866POPC   C4B61882  39.860  42.186   7.353
 9867POPC   NC361883  10.484  33.842   5.553
 9867POPC   PO461884  10.563  33.763   5.853
 9867POPC   GL161885  10.509  33.827   6.153
 9867POPC   GL261886  10.472  33.869   6.153
 9867POPC   C1A61887  10.525  33.809   6.453
 9867POPC   D2A61888  10.481  33.778   6.753
 9867POPC   C3A61889  10.496  33.770   7.053
 9867POPC   C4A61890  10.485  33.824   7.353
 9867POPC   C1B61891  10.328  33.970   6.453
 9867POPC   C2B61892  10.324  33.939   6.753
 9867POPC   C3B61893  10.374  34.021   7.053
 9867POPC   C4B61894  10.311  34.003   7.353
 9868POPC   NC361895  16.763  38.432   5.553
 9868POPC   PO461896  16.746  38.489   5.853
 9868POPC   GL161897  16.740  38.493   6.153
 9868POPC   GL261898  16.699  38.610   6.153
 9868POPC   C1A61899  16.765  38.493   6.453
 9868POPC   D2A61900  16.751  38.470   6.753
 9868POPC   C3A61901  16.744  38.435   7.053
 9868POPC   C4A61902  16.714  38.461   7.353
 9868POPC   C1B61903  16.607  38.719   6.453
 9868POPC   C2B61904  16.636  38.650   6.753
 9868POPC   C3B61905  16.675  38.655   7.053
 9868POPC   C4B61906  16.590  38.692   7.353
 9869POPC   NC361907  19.866  32.298   5.553
 9869POPC   PO461908  19.814  32.213   5.853
 9869POPC   GL161909  19.867  32.232   6.153
 9869POPC   GL261910  19.938  32.315   6.153
 9869POPC   C1A61911  19.790  32.296   6.453
 9869POPC   D2A61912  19.884  32.295   6.753
 9869POPC   C3A61913  19.850  32.284   7.053
 9869POPC   C4A61914  19.859  32.276   7.353
 9869POPC   C1B61915  20.041  32.269   6.453
 9869POPC   C2B61916  20.053  32.269   6.753
 9869POPC   C3B61917  20.096  32.297   7.053
 9869POPC   C4B61918  20.039  32.298   7.353
 9870POPC   NC361919  21.400   9.702   5.553
 9870POPC   PO461920  21.429   9.716   5.853
 9870POPC   GL161921  21.425   9.773   6.153
 9870POPC   GL261922  21.450   9.893   6.153
 9870POPC   C1A61923  21.421   9.793   6.453
 9870POPC   D2A61924  21.361   9.794   6.753
 9870POPC   C3A61925  21.413   9.704   7.053
 9870POPC   C4A61926  21.339   9.753   7.353
 9870POPC   C1B61927  21.490  10.027   6.453
 9870POPC   C2B61928  21.465   9.964   6.753
 9870POPC   C3B61929  21.407   9.990   7.053
 9870POPC   C4B61930  21.394   9.966   7.353
 9871POPC   NC361931  25.261   8.989   5.553
 9871POPC   PO461932  25.315   8.994   5.853
 9871POPC   GL161933  25.219   8.969   6.153
 9871POPC   GL261934  25.258   8.886   6.153
 9871POPC   C1A61935  25.255   8.970   6.453
 9871POPC   D2A61936  25.284   8.947   6.753
 9871POPC   C3A61937  25.246   8.944   7.053
 9871POPC   C4A61938  25.305   8.952   7.353
 9871POPC   C1B61939  25.128   8.784   6.453
 9871POPC   C2B61940  25.152   8.778   6.753
 9871POPC   C3B61941  25.200   8.741   7.053
 9871POPC   C4B61942  25.141   8.752   7.353
 9872POPC   NC361943  43.118  15.945   5.553
 9872POPC   PO461944  43.089  15.965   5.853
 9872POPC   GL161945  43.076  15.945   6.153
 9872POPC   GL261946  43.274  15.866   6.153
 9872POPC   C1A61947  43.093  15.911   6.453
 9872POPC   D2A61948  43.127  15.958   6.753
 9872POPC   C3A61949  43.155  15.989   7.053
 9872POPC   C4A61950  43.142  15.935   7.353
 9872POPC   C1B61951  43.369  15.825   6.453
 9872POPC   C2B61952  43.319  15.870   6.753
 9872POPC   C3B61953  43.317  15.827   7.053
 9872POPC   C4B61954  43.344  15.872   7.353
 9873POPC   NC361955  38.497  16.754   5.553
 9873POPC   PO461956  38.424  16.699   5.853
 9873POPC   GL161957  38.468  16.770   6.153
 9873POPC   GL261958  38.504  16.587   6.153
 9873POPC   C1A61959  38.420  16.724   6.453
 9873POPC   D2A61960  38.471  16.751   6.753
 9873POPC   C3A61961  38.450  16.685   7.053
 9873POPC   C4A61962  38.493  16.768   7.353
 9873POPC   C1B61963  38.433  16.461   6.453
 9873POPC   C2B61964  38.526  16.506   6.753
 9873POPC   C3B61965  38.507  16.466   7.053
 9873POPC   C4B61966  38.473  16.500   7.353
 9874POPC   NC361967  19.874  43.151   5.553
 9874POPC   PO461968  19.866  43.121   5.853
 9874POPC   GL161969  19.820  43.133   6.153
 9874POPC   GL261970  19.786  43.021   6.153
 9874POPC   C1A61971  19.793  43.140   6.453
 9874POPC   D2A61972  19.848  43.099   6.753
 9874POPC   C3A61973  19.811  43.061   7.053
 9874POPC   C4A61974  19.882  43.088   7.353
 9874POPC   C1B61975  19.678  42.907   6.453
 9874POPC   C2B61976  19.635  42.906   6.753
 9874POPC   C3B61977  19.614  42.936   7.053
 9874POPC   C4B61978  19.639  42.980   7.353
 9875POPC   NC361979  24.488   5.118   5.553
 9875POPC   PO461980  24.515   5.103   5.853
 9875POPC   GL161981  24.459   5.105   6.153
 9875POPC   GL261982  24.591   5.085   6.153
 9875POPC   C1A61983  24.482   5.131   6.453
 9875POPC   D2A61984  24.464   5.044   6.753
 9875POPC   C3A61985  24.508   5.053   7.053
 9875POPC   C4A61986  24.472   5.097   7.353
 9875POPC   C1B61987  24.762   5.033   6.453
 9875POPC   C2B61988  24.717   5.033   6.753
 9875POPC   C3B61989  24.754   5.019   7.053
 9875POPC   C4B61990  24.689   5.026   7.353
 9876POPC   NC361991  43.141  28.384   5.553
 9876POPC   PO461992  43.144  28.343   5.853
 9876POPC   GL161993  43.102  28.371   6.153
 9876POPC   GL261994  43.034  28.539   6.153
 9876POPC   C1A61995  43.106  28.338   6.453
 9876POPC   D2A61996  43.107  28.354   6.753
 9876POPC   C3A61997  43.091  28.341   7.053
 9876POPC   C4A61998  43.137  28.356   7.353
 9876POPC   C1B61999  43.003  28.564   6.453
 9876POPC   C2B62000  43.032  28.635   6.753
 9876POPC   C3B62001  43.017  28.590   7.053
 9876POPC   C4B62002  43.019  28.624   7.353
 9877POPC   NC362003  11.326  24.491   5.553
 9877POPC   PO462004  11.322  24.538   5.853
 9877POPC   GL162005  11.333  24.483   6.153
 9877POPC   GL262006  11.464  24.449   6.153
 9877POPC   C1A62007  11.286  24.497   6.453
 9877POPC   D2A62008  11.332  24.537   6.753
 9877POPC   C3A62009  11.308  24.459   7.053
 9877POPC   C4A62010  11.261  24.501   7.353
 9877POPC   C1B62011  11.525  24.418   6.453
 9877POPC   C2B62012  11.565  24.481   6.753
 9877POPC   C3B62013  11.528  24.461   7.053
 9877POPC   C4B62014  11.588  24.480   7.353
 9878POPC   NC362015  22.129  35.326   5.553
 9878POPC   PO462016  22.163  35.329   5.853
 9878POPC   GL162017  22.183  35.318   6.153
 9878POPC   GL262018  22.247  35.353   6.153
 9878POPC   C1A62019  22.138  35.328   6.453
 9878POPC   D2A62020  22.131  35.311   6.753
 9878POPC   C3A62021  22.201  35.311   7.053
 9878POPC   C4A62022  22.157  35.329   7.353
 9878POPC   C1B62023  22.359  35.475   6.453
 9878POPC   C2B62024  22.388  35.422   6.753
 9878POPC   C3B62025  22.394  35.453   7.053
 9878POPC   C4B62026  22.424  35.416   7.353
 9879POPC   NC362027  32.240  22.119   5.553
 9879POPC   PO462028  32.209  22.204   5.853
 9879POPC   GL162029  32.199  22.201   6.153
 9879POPC   GL262030  32.293  21.993   6.153
 9879POPC   C1A62031  32.297  22.130   6.453
 9879POPC   D2A62032  32.239  22.186   6.753
 9879POPC   C3A62033  32.233  22.199   7.053
 9879POPC   C4A62034  32.204  22.183   7.353
 9879POPC   C1B62035  32.250  21.883   6.453
 9879POPC   C2B62036  32.262  21.917   6.753
 9879POPC   C3B62037  32.280  21.883   7.053
 9879POPC   C4B62038  32.251  21.886   7.353
 9880POPC   NC362039  28.410  34.606   5.553
 9880POPC   PO462040  28.366  34.604   5.853
 9880POPC   GL162041  28.369  34.594   6.153
 9880POPC   GL262042  28.391  34.693   6.153
 9880POPC   C1A62043  28.415  34.568   6.453
 9880POPC   D2A62044  28.408  34.542   6.753
 9880POPC   C3A62045  28.385  34.580   7.053
 9880POPC   C4A62046  28.378  34.616   7.353
 9880POPC   C1B62047  28.368  34.807   6.453
 9880POPC   C2B62048  28.388  34.818   6.753
 9880POPC   C3B62049  28.414  34.807   7.053
 9880POPC   C4B62050  28.377  34.839   7.353
 9881POPC   NC362051  40.814  31.492   5.553
 9881POPC   PO462052  40.792  31.499   5.853
 9881POPC   GL162053  40.818  31.451   6.153
 9881POPC   GL262054  40.911  31.551   6.153
 9881POPC   C1A62055  40.769  31.469   6.453
 9881POPC   D2A62056  40.820  31.469   6.753
 9881POPC   C3A62057  40.830  31.460   7.053
 9881POPC   C4A62058  40.750  31.506   7.353
 9881POPC   C1B62059  40.981  31.574   6.453
 9881POPC   C2B62060  40.968  31.595   6.753
 9881POPC   C3B62061  40.952  31.597   7.053
 9881POPC   C4B62062  41.020  31.609   7.353
 9882POPC   NC362063  22.207   1.948   5.553
 9882POPC   PO462064  22.211   1.960   5.853
 9882POPC   GL162065  22.144   2.037   6.153
 9882POPC   GL262066  22.096   2.080   6.153
 9882POPC   C1A62067  22.208   2.014   6.453
 9882POPC   D2A62068  22.136   1.981   6.753
 9882POPC   C3A62069  22.173   2.028   7.053
 9882POPC   C4A62070  22.139   2.011   7.353
 9882POPC   C1B62071  22.145   2.232   6.453
 9882POPC   C2B62072  22.149   2.263   6.753
 9882POPC   C3B62073  22.088   2.203   7.053
 9882POPC   C4B62074  22.148   2.263   7.353
 9883POPC   NC362075   3.539  44.698   5.553
 9883POPC   PO462076   3.523  44.643   5.853
 9883POPC   GL162077   3.568  44.615   6.153
 9883POPC   GL262078   3.496  44.560   6.153
 9883POPC   C1A62079   3.542  44.623   6.453
 9883POPC   D2A62080   3.584  44.690   6.753
 9883POPC   C3A62081   3.548  44.707   7.053
 9883POPC   C4A62082   3.545  44.636   7.353
 9883POPC   C1B62083   3.372  44.501   6.453
 9883POPC   C2B62084   3.402  44.506   6.753
 9883POPC   C3B62085   3.335  44.450   7.053
 9883POPC   C4B62086   3.397  44.464   7.353
 9884POPC   NC362087   8.233  33.048   5.553
 9884POPC   PO462088   8.188  32.994   5.853
 9884POPC   GL162089   8.199  33.011   6.153
 9884POPC   GL262090   8.259  32.989   6.153
 9884POPC   C1A62091   8.245  33.036   6.453
 9884POPC   D2A62092   8.231  33.034   6.753
 9884POPC   C3A62093   8.207  33.021   7.053
 9884POPC   C4A62094   8.239  33.066   7.353
 9884POPC   C1B62095   8.399  32.865   6.453
 9884POPC   C2B62096   8.422  32.854   6.753
 9884POPC   C3B62097   8.418  32.871   7.053
 9884POPC   C4B62098   8.382  32.900   7.353
 9885POPC   NC362099  43.888   5.869   5.553
 9885POPC   PO462100  43.903   5.825   5.853
 9885POPC   GL162101  43.847   5.850   6.153
 9885POPC   GL262102  43.904   5.728   6.153
 9885POPC   C1A62103  43.859   5.855   6.453
 9885POPC   D2A62104  43.891   5.841   6.753
 9885POPC   C3A62105  43.907   5.875   7.053
 9885POPC   C4A62106  43.911   5.896   7.353
 9885POPC   C1B62107  43.967   5.620   6.453
 9885POPC   C2B62108  43.936   5.588   6.753
 9885POPC   C3B62109  43.959   5.627   7.053
 9885POPC   C4B62110  43.950   5.626   7.353
 9886POPC   NC362111  36.082  43.914   5.553
 9886POPC   PO462112  36.163  43.908   5.853
 9886POPC   GL162113  36.105  43.860   6.153
 9886POPC   GL262114  36.001  43.804   6.153
 9886POPC   C1A62115  36.166  43.864   6.453
 9886POPC   D2A62116  36.139  43.849   6.753
 9886POPC   C3A62117  36.096  43.862   7.053
 9886POPC   C4A62118  36.123  43.843   7.353
 9886POPC   C1B62119  35.939  43.787   6.453
 9886POPC   C2B62120  35.876  43.774   6.753
 9886POPC   C3B62121  35.939  43.755   7.053
 9886POPC   C4B62122  35.874  43.795   7.353
 9887POPC   NC362123  15.989  36.078   5.553
 9887POPC   PO462124  15.940  36.110   5.853
 9887POPC   GL162125  16.003  36.103   6.153
 9887POPC   GL262126  15.809  36.162   6.153
 9887POPC   C1A62127  15.988  36.110   6.453
 9887POPC   D2A62128  15.963  36.104   6.753
 9887POPC   C3A62129  15.923  36.150   7.053
 9887POPC   C4A62130  15.955  36.177   7.353
 9887POPC   C1B62131  15.763  36.175   6.453
 9887POPC   C2B62132  15.691  36.219   6.753
 9887POPC   C3B62133  15.691  36.235   7.053
 9887POPC   C4B62134  15.684  36.185   7.353
 9888POPC   NC362135  29.102  22.952   5.553
 9888POPC   PO462136  29.157  22.948   5.853
 9888POPC   GL162137  29.190  22.967   6.153
 9888POPC   GL262138  29.300  22.860   6.153
 9888POPC   C1A62139  29.095  22.929   6.453
 9888POPC   D2A62140  29.129  22.939   6.753
 9888POPC   C3A62141  29.147  22.959   7.053
 9888POPC   C4A62142  29.128  22.950   7.353
 9888POPC   C1B62143  29.321  22.845   6.453
 9888POPC   C2B62144  29.351  22.774   6.753
 9888POPC   C3B62145  29.367  22.759   7.053
 9888POPC   C4B62146  29.350  22.856   7.353
 9889POPC   NC362147   1.977  16.693   5.553
 9889POPC   PO462148   2.016  16.697   5.853
 9889POPC   GL162149   1.992  16.756   6.153
 9889POPC   GL262150   1.976  16.898   6.153
 9889POPC   C1A62151   1.990  16.683   6.453
 9889POPC   D2A62152   1.996  16.715   6.753
 9889POPC   C3A62153   2.031  16.772   7.053
 9889POPC   C4A62154   2.035  16.692   7.353
 9889POPC   C1B62155   1.920  16.958   6.453
 9889POPC   C2B62156   1.976  17.013   6.753
 9889POPC   C3B62157   1.966  16.938   7.053
 9889POPC   C4B62158   1.940  17.021   7.353
 9890POPC   NC362159  18.330  43.107   5.553
 9890POPC   PO462160  18.293  43.061   5.853
 9890POPC   GL162161  18.307  43.121   6.153
 9890POPC   GL262162  18.211  43.018   6.153
 9890POPC   C1A62163  18.323  43.133   6.453
 9890POPC   D2A62164  18.252  43.068   6.753
 9890POPC   C3A62165  18.319  43.116   7.053
 9890POPC   C4A62166  18.310  43.157   7.353
 9890POPC   C1B62167  18.083  42.969   6.453
 9890POPC   C2B62168  18.115  42.951   6.753
 9890POPC   C3B62169  18.097  42.903   7.053
 9890POPC   C4B62170  18.099  42.936   7.353
 9891POPC   NC362171  36.937   5.049   5.553
 9891POPC   PO462172  36.949   5.074   5.853
 9891POPC   GL162173  36.888   5.123   6.153
 9891POPC   GL262174  37.047   5.085   6.153
 9891POPC   C1A62175  36.881   5.094   6.453
 9891POPC   D2A62176  36.952   5.056   6.753
 9891POPC   C3A62177  36.876   5.096   7.053
 9891POPC   C4A62178  36.903   5.060   7.353
 9891POPC   C1B62179  37.109   5.056   6.453
 9891POPC   C2B62180  37.151   5.018   6.753
 9891POPC   C3B62181  37.165   5.069   7.053
 9891POPC   C4B62182  37.104   5.005   7.353
 9892POPC   NC362183  21.386   7.381   5.553
 9892POPC   PO462184  21.363   7.385   5.853
 9892POPC   GL162185  21.380   7.381   6.153
 9892POPC   GL262186  21.294   7.348   6.153
 9892POPC   C1A62187  21.345   7.399   6.453
 9892POPC   D2A62188  21.411   7.460   6.753
 9892POPC   C3A62189  21.394   7.429   7.053
 9892POPC   C4A62190  21.339   7.373   7.353
 9892POPC   C1B62191  21.243   7.157   6.453
 9892POPC   C2B62192  21.272   7.227   6.753
 9892POPC   C3B62193  21.259   7.163   7.053
 9892POPC   C4B62194  21.255   7.167   7.353
 9893POPC   NC362195  10.474  13.640   5.553
 9893POPC   PO462196  10.511  13.587   5.853
 9893POPC   GL162197  10.488  13.655   6.153
 9893POPC   GL262198  10.533  13.506   6.153
 9893POPC   C1A62199  10.525  13.633   6.453
 9893POPC   D2A62200  10.551  13.677   6.753
 9893POPC   C3A62201  10.477  13.644   7.053
 9893POPC   C4A62202  10.505  13.660   7.353
 9893POPC   C1B62203  10.550  13.357   6.453
 9893POPC   C2B62204  10.634  13.337   6.753
 9893POPC   C3B62205  10.576  13.414   7.053
 9893POPC   C4B62206  10.544  13.393   7.353
 9894POPC   NC362207  10.571  20.597   5.553
 9894POPC   PO462208  10.492  20.566   5.853
 9894POPC   GL162209  10.476  20.615   6.153
 9894POPC   GL262210  10.524  20.714   6.153
 9894POPC   C1A62211  10.549  20.627   6.453
 9894POPC   D2A62212  10.543  20.616   6.753
 9894POPC   C3A62213  10.485  20.591   7.053
 9894POPC   C4A62214  10.490  20.602   7.353
 9894POPC   C1B62215  10.498  20.895   6.453
 9894POPC   C2B62216  10.438  20.873   6.753
 9894POPC   C3B62217  10.487  20.886   7.053
 9894POPC   C4B62218  10.421  20.832   7.353
 9895POPC   NC362219  16.737  31.492   5.553
 9895POPC   PO462220  16.758  31.470   5.853
 9895POPC   GL162221  16.744  31.449   6.153
 9895POPC   GL262222  16.883  31.478   6.153
 9895POPC   C1A62223  16.709  31.436   6.453
 9895POPC   D2A62224  16.769  31.511   6.753
 9895POPC   C3A62225  16.722  31.519   7.053
 9895POPC   C4A62226  16.683  31.503   7.353
 9895POPC   C1B62227  17.019  31.472   6.453
 9895POPC   C2B62228  17.016  31.504   6.753
 9895POPC   C3B62229  16.976  31.424   7.053
 9895POPC   C4B62230  16.998  31.478   7.353
 9896POPC   NC362231  21.386  32.988   5.553
 9896POPC   PO462232  21.383  33.061   5.853
 9896POPC   GL162233  21.401  33.043   6.153
 9896POPC   GL262234  21.559  33.009   6.153
 9896POPC   C1A62235  21.368  33.052   6.453
 9896POPC   D2A62236  21.361  33.057   6.753
 9896POPC   C3A62237  21.337  33.002   7.053
 9896POPC   C4A62238  21.398  33.054   7.353
 9896POPC   C1B62239  21.603  32.994   6.453
 9896POPC   C2B62240  21.641  33.080   6.753
 9896POPC   C3B62241  21.637  32.991   7.053
 9896POPC   C4B62242  21.615  33.056   7.353
 9897POPC   NC362243   2.021  18.300   5.553
 9897POPC   PO462244   1.943  18.273   5.853
 9897POPC   GL162245   1.947  18.270   6.153
 9897POPC   GL262246   2.123  18.305   6.153
 9897POPC   C1A62247   2.005  18.283   6.453
 9897POPC   D2A62248   2.017  18.268   6.753
 9897POPC   C3A62249   1.945  18.241   7.053
 9897POPC   C4A62250   1.956  18.240   7.353
 9897POPC   C1B62251   2.277  18.287   6.453
 9897POPC   C2B62252   2.263  18.210   6.753
 9897POPC   C3B62253   2.270  18.246   7.053
 9897POPC   C4B62254   2.209  18.230   7.353
 9898POPC   NC362255   2.777  29.871   5.553
 9898POPC   PO462256   2.756  29.945   5.853
 9898POPC   GL162257   2.718  29.914   6.153
 9898POPC   GL262258   2.878  30.045   6.153
 9898POPC   C1A62259   2.792  29.928   6.453
 9898POPC   D2A62260   2.737  29.967   6.753
 9898POPC   C3A62261   2.777  29.873   7.053
 9898POPC   C4A62262   2.733  29.887   7.353
 9898POPC   C1B62263   2.917  30.154   6.453
 9898POPC   C2B62264   2.949  30.110   6.753
 9898POPC   C3B62265   2.896  30.153   7.053
 9898POPC   C4B62266   2.918  30.073   7.353
 9899POPC   NC362267   9.716   7.382   5.553
 9899POPC   PO462268   9.746   7.409   5.853
 9899POPC   GL162269   9.706   7.401   6.153
 9899POPC   GL262270   9.630   7.373   6.153
 9899POPC   C1A62271   9.743   7.462   6.453
 9899POPC   D2A62272   9.785   7.426   6.753
 9899POPC   C3A62273   9.718   7.420   7.053
 9899POPC   C4A62274   9.787   7.373   7.353
 9899POPC   C1B62275   9.487   7.406   6.453
 9899POPC   C2B62276   9.502   7.376   6.753
 9899POPC   C3B62277   9.509   7.366   7.053
 9899POPC   C4B62278   9.534   7.360   7.353
 9900POPC   NC362279  19.821  22.122   5.553
 9900POPC   PO462280  19.799  22.128   5.853
 9900POPC   GL162281  19.863  22.178   6.153
 9900POPC   GL262282  19.743  22.273   6.153
 9900POPC   C1A62283  19.853  22.137   6.453
 9900POPC   D2A62284  19.825  22.164   6.753
 9900POPC   C3A62285  19.846  22.190   7.053
 9900POPC   C4A62286  19.866  22.150   7.353
 9900POPC   C1B62287  19.770  22.382   6.453
 9900POPC   C2B62288  19.759  22.423   6.753
 9900POPC   C3B62289  19.749  22.401   7.053
 9900POPC   C4B62290  19.738  22.419   7.353
 9901POPC   NC362291  19.815  25.270   5.553
 9901POPC   PO462292  19.858  25.309   5.853
 9901POPC   GL162293  19.852  25.231   6.153
 9901POPC   GL262294  19.917  25.218   6.153
 9901POPC   C1A62295  19.832  25.247   6.453
 9901POPC   D2A62296  19.851  25.280   6.753
 9901POPC   C3A62297  19.840  25.303   7.053
 9901POPC   C4A62298  19.791  25.253   7.353
 9901POPC   C1B62299  20.061  25.201   6.453
 9901POPC   C2B62300  20.079  25.172   6.753
 9901POPC   C3B62301  20.081  25.216   7.053
 9901POPC   C4B62302  20.046  25.203   7.353
 9902POPC   NC362303  34.603  22.193   5.553
 9902POPC   PO462304  34.602  22.173   5.853
 9902POPC   GL162305  34.531  22.157   6.153
 9902POPC   GL262306  34.659  22.184   6.153
 9902POPC   C1A62307  34.552  22.117   6.453
 9902POPC   D2A62308  34.622  22.118   6.753
 9902POPC   C3A62309  34.599  22.198   7.053
 9902POPC   C4A62310  34.587  22.206   7.353
 9902POPC   C1B62311  34.861  22.104   6.453
 9902POPC   C2B62312  34.874  22.115   6.753
 9902POPC   C3B62313  34.874  22.100   7.053
 9902POPC   C4B62314  34.782  22.163   7.353
 9903POPC   NC362315  33.814  28.393   5.553
 9903POPC   PO462316  33.758  28.335   5.853
 9903POPC   GL162317  33.763  28.385   6.153
 9903POPC   GL262318  33.763  28.470   6.153
 9903POPC   C1A62319  33.829  28.394   6.453
 9903POPC   D2A62320  33.789  28.406   6.753
 9903POPC   C3A62321  33.826  28.403   7.053
 9903POPC   C4A62322  33.774  28.330   7.353
 9903POPC   C1B62323  33.597  28.568   6.453
 9903POPC   C2B62324  33.643  28.518   6.753
 9903POPC   C3B62325  33.608  28.606   7.053
 9903POPC   C4B62326  33.659  28.590   7.353
 9904POPC   NC362327  30.698  28.348   5.553
 9904POPC   PO462328  30.719  28.327   5.853
 9904POPC   GL162329  30.730  28.333   6.153
 9904POPC   GL262330  30.557  28.457   6.153
 9904POPC   C1A62331  30.656  28.402   6.453
 9904POPC   D2A62332  30.721  28.377   6.753
 9904POPC   C3A62333  30.666  28.322   7.053
 9904POPC   C4A62334  30.722  28.374   7.353
 9904POPC   C1B62335  30.506  28.534   6.453
 9904POPC   C2B62336  30.542  28.535   6.753
 9904POPC   C3B62337  30.512  28.474   7.053
 9904POPC   C4B62338  30.454  28.521   7.353
 9905POPC   NC362339  29.157  27.587   5.553
 9905POPC   PO462340  29.165  27.610   5.853
 9905POPC   GL162341  29.175  27.596   6.153
 9905POPC   GL262342  29.009  27.641   6.153
 9905POPC   C1A62343  29.148  27.557   6.453
 9905POPC   D2A62344  29.191  27.552   6.753
 9905POPC   C3A62345  29.143  27.594   7.053
 9905POPC   C4A62346  29.158  27.561   7.353
 9905POPC   C1B62347  28.866  27.636   6.453
 9905POPC   C2B62348  28.884  27.688   6.753
 9905POPC   C3B62349  28.907  27.601   7.053
 9905POPC   C4B62350  28.949  27.679   7.353
 9906POPC   NC362351  41.517  20.600   5.553
 9906POPC   PO462352  41.572  20.623   5.853
 9906POPC   GL162353  41.522  20.635   6.153
 9906POPC   GL262354  41.708  20.656   6.153
 9906POPC   C1A62355  41.552  20.599   6.453
 9906POPC   D2A62356  41.561  20.581   6.753
 9906POPC   C3A62357  41.565  20.607   7.053
 9906POPC   C4A62358  41.588  20.643   7.353
 9906POPC   C1B62359  41.790  20.744   6.453
 9906POPC   C2B62360  41.808  20.691   6.753
 9906POPC   C3B62361  41.805  20.710   7.053
 9906POPC   C4B62362  41.819  20.698   7.353
 9907POPC   NC362363  15.180  43.062   5.553
 9907POPC   PO462364  15.148  43.133   5.853
 9907POPC   GL162365  15.211  43.075   6.153
 9907POPC   GL262366  15.222  43.065   6.153
 9907POPC   C1A62367  15.201  43.139   6.453
 9907POPC   D2A62368  15.221  43.103   6.753
 9907POPC   C3A62369  15.138  43.062   7.053
 9907POPC   C4A62370  15.210  43.092   7.353
 9907POPC   C1B62371  15.322  42.969   6.453
 9907POPC   C2B62372  15.339  42.953   6.753
 9907POPC   C3B62373  15.312  42.902   7.053
 9907POPC   C4B62374  15.374  42.957   7.353
 9908POPC   NC362375  19.790  44.689   5.553
 9908POPC   PO462376  19.802  44.672   5.853
 9908POPC   GL162377  19.834  44.659   6.153
 9908POPC   GL262378  19.673  44.689   6.153
 9908POPC   C1A62379  19.805  44.681   6.453
 9908POPC   D2A62380  19.806  44.669   6.753
 9908POPC   C3A62381  19.880  44.700   7.053
 9908POPC   C4A62382  19.801  44.680   7.353
 9908POPC   C1B62383  19.604  44.747   6.453
 9908POPC   C2B62384  19.581  44.706   6.753
 9908POPC   C3B62385  19.573  44.687   7.053
 9908POPC   C4B62386  19.570  44.740   7.353
 9909POPC   NC362387  31.454   2.740   5.553
 9909POPC   PO462388  31.425   2.718   5.853
 9909POPC   GL162389  31.516   2.722   6.153
 9909POPC   GL262390  31.585   2.664   6.153
 9909POPC   C1A62391  31.495   2.756   6.453
 9909POPC   D2A62392  31.474   2.739   6.753
 9909POPC   C3A62393  31.426   2.738   7.053
 9909POPC   C4A62394  31.470   2.780   7.353
 9909POPC   C1B62395  31.642   2.578   6.453
 9909POPC   C2B62396  31.665   2.597   6.753
 9909POPC   C3B62397  31.674   2.581   7.053
 9909POPC   C4B62398  31.631   2.569   7.353
 9910POPC   NC362399   5.127  30.746   5.553
 9910POPC   PO462400   5.054  30.743   5.853
 9910POPC   GL162401   5.129  30.691   6.153
 9910POPC   GL262402   5.175  30.836   6.153
 9910POPC   C1A62403   5.121  30.689   6.453
 9910POPC   D2A62404   5.142  30.700   6.753
 9910POPC   C3A62405   5.063  30.734   7.053
 9910POPC   C4A62406   5.142  30.709   7.353
 9910POPC   C1B62407   5.197  30.872   6.453
 9910POPC   C2B62408   5.176  30.956   6.753
 9910POPC   C3B62409   5.223  30.860   7.053
 9910POPC   C4B62410   5.215  30.905   7.353
 9911POPC   NC362411  18.291   8.224   5.553
 9911POPC   PO462412  18.254   8.211   5.853
 9911POPC   GL162413  18.250   8.227   6.153
 9911POPC   GL262414  18.171   8.126   6.153
 9911POPC   C1A62415  18.297   8.189   6.453
 9911POPC   D2A62416  18.243   8.219   6.753
 9911POPC   C3A62417  18.312   8.242   7.053
 9911POPC   C4A62418  18.299   8.209   7.353
 9911POPC   C1B62419  18.205   8.028   6.453
 9911POPC   C2B62420  18.170   7.997   6.753
 9911POPC   C3B62421  18.173   7.933   7.053
 9911POPC   C4B62422  18.176   8.007   7.353
 9912POPC   NC362423  32.239  35.356   5.553
 9912POPC   PO462424  32.277  35.363   5.853
 9912POPC   GL162425  32.249  35.353   6.153
 9912POPC   GL262426  32.250  35.464   6.153
 9912POPC   C1A62427  32.209  35.378   6.453
 9912POPC   D2A62428  32.219  35.356   6.753
 9912POPC   C3A62429  32.247  35.347   7.053
 9912POPC   C4A62430  32.213  35.310   7.353
 9912POPC   C1B62431  32.259  35.568   6.453
 9912POPC   C2B62432  32.230  35.648   6.753
 9912POPC   C3B62433  32.264  35.593   7.053
 9912POPC   C4B62434  32.305  35.645   7.353
 9913POPC   NC362435   2.002  12.879   5.553
 9913POPC   PO462436   1.979  12.894   5.853
 9913POPC   GL162437   1.952  12.871   6.153
 9913POPC   GL262438   1.894  12.766   6.153
 9913POPC   C1A62439   1.949  12.859   6.453
 9913POPC   D2A62440   2.005  12.898   6.753
 9913POPC   C3A62441   1.955  12.902   7.053
 9913POPC   C4A62442   2.035  12.851   7.353
 9913POPC   C1B62443   1.895  12.676   6.453
 9913POPC   C2B62444   1.886  12.589   6.753
 9913POPC   C3B62445   1.881  12.620   7.053
 9913POPC   C4B62446   1.919  12.655   7.353
 9914POPC   NC362447  18.287  32.997   5.553
 9914POPC   PO462448  18.277  33.012   5.853
 9914POPC   GL162449  18.306  33.061   6.153
 9914POPC   GL262450  18.405  33.100   6.153
 9914POPC   C1A62451  18.305  32.992   6.453
 9914POPC   D2A62452  18.324  33.010   6.753
 9914POPC   C3A62453  18.329  33.003   7.053
 9914POPC   C4A62454  18.322  33.042   7.353
 9914POPC   C1B62455  18.481  33.214   6.453
 9914POPC   C2B62456  18.443  33.226   6.753
 9914POPC   C3B62457  18.500  33.228   7.053
 9914POPC   C4B62458  18.509  33.215   7.353
 9915POPC   NC362459  41.529  43.848   5.553
 9915POPC   PO462460  41.544  43.841   5.853
 9915POPC   GL162461  41.595  43.899   6.153
 9915POPC   GL262462  41.590  43.737   6.153
 9915POPC   C1A62463  41.594  43.899   6.453
 9915POPC   D2A62464  41.547  43.924   6.753
 9915POPC   C3A62465  41.509  43.911   7.053
 9915POPC   C4A62466  41.575  43.899   7.353
 9915POPC   C1B62467  41.578  43.605   6.453
 9915POPC   C2B62468  41.552  43.640   6.753
 9915POPC   C3B62469  41.558  43.649   7.053
 9915POPC   C4B62470  41.567  43.602   7.353
 9916POPC   NC362471   7.442  36.139   5.553
 9916POPC   PO462472   7.410  36.089   5.853
 9916POPC   GL162473   7.455  36.153   6.153
 9916POPC   GL262474   7.455  35.958   6.153
 9916POPC   C1A62475   7.379  36.146   6.453
 9916POPC   D2A62476   7.435  36.129   6.753
 9916POPC   C3A62477   7.385  36.088   7.053
 9916POPC   C4A62478   7.382  36.116   7.353
 9916POPC   C1B62479   7.359  35.926   6.453
 9916POPC   C2B62480   7.368  35.836   6.753
 9916POPC   C3B62481   7.431  35.883   7.053
 9916POPC   C4B62482   7.429  35.879   7.353
 9917POPC   NC362483  22.979   0.405   5.553
 9917POPC   PO462484  22.951   0.487   5.853
 9917POPC   GL162485  22.946   0.426   6.153
 9917POPC   GL262486  22.989   0.547   6.153
 9917POPC   C1A62487  22.959   0.425   6.453
 9917POPC   D2A62488  22.912   0.410   6.753
 9917POPC   C3A62489  22.970   0.428   7.053
 9917POPC   C4A62490  22.978   0.389   7.353
 9917POPC   C1B62491  22.940   0.671   6.453
 9917POPC   C2B62492  22.988   0.685   6.753
 9917POPC   C3B62493  22.955   0.703   7.053
 9917POPC   C4B62494  22.938   0.638   7.353
 9918POPC   NC362495   8.993   2.737   5.553
 9918POPC   PO462496   8.935   2.779   5.853
 9918POPC   GL162497   8.947   2.759   6.153
 9918POPC   GL262498   8.847   2.777   6.153
 9918POPC   C1A62499   8.972   2.806   6.453
 9918POPC   D2A62500   8.926   2.751   6.753
 9918POPC   C3A62501   8.997   2.789   7.053
 9918POPC   C4A62502   8.963   2.737   7.353
 9918POPC   C1B62503   8.755   2.833   6.453
 9918POPC   C2B62504   8.716   2.850   6.753
 9918POPC   C3B62505   8.774   2.825   7.053
 9918POPC   C4B62506   8.745   2.823   7.353
 9919POPC   NC362507  25.245   1.173   5.553
 9919POPC   PO462508  25.259   1.233   5.853
 9919POPC   GL162509  25.301   1.256   6.153
 9919POPC   GL262510  25.360   1.303   6.153
 9919POPC   C1A62511  25.271   1.187   6.453
 9919POPC   D2A62512  25.275   1.254   6.753
 9919POPC   C3A62513  25.311   1.198   7.053
 9919POPC   C4A62514  25.256   1.176   7.353
 9919POPC   C1B62515  25.349   1.385   6.453
 9919POPC   C2B62516  25.417   1.397   6.753
 9919POPC   C3B62517  25.356   1.466   7.053
 9919POPC   C4B62518  25.356   1.473   7.353
 9920POPC   NC362519  34.620  15.143   5.553
 9920POPC   PO462520  34.530  15.189   5.853
 9920POPC   GL162521  34.546  15.143   6.153
 9920POPC   GL262522  34.680  15.138   6.153
 9920POPC   C1A62523  34.594  15.201   6.453
 9920POPC   D2A62524  34.547  15.182   6.753
 9920POPC   C3A62525  34.579  15.163   7.053
 9920POPC   C4A62526  34.562  15.159   7.353
 9920POPC   C1B62527  34.813  14.987   6.453
 9920POPC   C2B62528  34.783  15.024   6.753
 9920POPC   C3B62529  34.773  15.065   7.053
 9920POPC   C4B62530  34.760  15.006   7.353
 9921POPC   NC362531  10.500   8.178   5.553
 9921POPC   PO462532  10.548   8.210   5.853
 9921POPC   GL162533  10.548   8.236   6.153
 9921POPC   GL262534  10.443   8.056   6.153
 9921POPC   C1A62535  10.519   8.230   6.453
 9921POPC   D2A62536  10.489   8.209   6.753
 9921POPC   C3A62537  10.538   8.202   7.053
 9921POPC   C4A62538  10.512   8.164   7.353
 9921POPC   C1B62539  10.506   7.918   6.453
 9921POPC   C2B62540  10.483   7.983   6.753
 9921POPC   C3B62541  10.506   7.910   7.053
 9921POPC   C4B62542  10.436   7.979   7.353
 9922POPC   NC362543   8.165   8.215   5.553
 9922POPC   PO462544   8.164   8.152   5.853
 9922POPC   GL162545   8.197   8.223   6.153
 9922POPC   GL262546   8.086   8.247   6.153
 9922POPC   C1A62547   8.162   8.212   6.453
 9922POPC   D2A62548   8.155   8.225   6.753
 9922POPC   C3A62549   8.231   8.229   7.053
 9922POPC   C4A62550   8.156   8.171   7.353
 9922POPC   C1B62551   8.042   8.375   6.453
 9922POPC   C2B62552   7.996   8.403   6.753
 9922POPC   C3B62553   8.070   8.378   7.053
 9922POPC   C4B62554   8.019   8.396   7.353
 9923POPC   NC362555   3.577  21.394   5.553
 9923POPC   PO462556   3.571  21.379   5.853
 9923POPC   GL162557   3.528  21.351   6.153
 9923POPC   GL262558   3.390  21.479   6.153
 9923POPC   C1A62559   3.571  21.363   6.453
 9923POPC   D2A62560   3.530  21.362   6.753
 9923POPC   C3A62561   3.590  21.369   7.053
 9923POPC   C4A62562   3.584  21.360   7.353
 9923POPC   C1B62563   3.275  21.461   6.453
 9923POPC   C2B62564   3.301  21.461   6.753
 9923POPC   C3B62565   3.367  21.534   7.053
 9923POPC   C4B62566   3.369  21.484   7.353
 9924POPC   NC362567  36.150  23.762   5.553
 9924POPC   PO462568  36.138  23.743   5.853
 9924POPC   GL162569  36.103  23.721   6.153
 9924POPC   GL262570  36.227  23.743   6.153
 9924POPC   C1A62571  36.168  23.713   6.453
 9924POPC   D2A62572  36.117  23.716   6.753
 9924POPC   C3A62573  36.132  23.672   7.053
 9924POPC   C4A62574  36.096  23.730   7.353
 9924POPC   C1B62575  36.363  23.716   6.453
 9924POPC   C2B62576  36.424  23.737   6.753
 9924POPC   C3B62577  36.367  23.707   7.053
 9924POPC   C4B62578  36.373  23.702   7.353
 9925POPC   NC362579   8.181   5.901   5.553
 9925POPC   PO462580   8.178   5.877   5.853
 9925POPC   GL162581   8.185   5.834   6.153
 9925POPC   GL262582   8.115   5.936   6.153
 9925POPC   C1A62583   8.192   5.907   6.453
 9925POPC   D2A62584   8.159   5.873   6.753
 9925POPC   C3A62585   8.155   5.827   7.053
 9925POPC   C4A62586   8.173   5.834   7.353
 9925POPC   C1B62587   7.984   6.004   6.453
 9925POPC   C2B62588   8.004   6.051   6.753
 9925POPC   C3B62589   8.027   6.040   7.053
 9925POPC   C4B62590   7.974   6.061   7.353
 9926POPC   NC362591  36.162   1.176   5.553
 9926POPC   PO462592  36.145   1.234   5.853
 9926POPC   GL162593  36.129   1.207   6.153
 9926POPC   GL262594  36.208   1.137   6.153
 9926POPC   C1A62595  36.106   1.204   6.453
 9926POPC   D2A62596  36.151   1.209   6.753
 9926POPC   C3A62597  36.165   1.195   7.053
 9926POPC   C4A62598  36.154   1.201   7.353
 9926POPC   C1B62599  36.249   1.011   6.453
 9926POPC   C2B62600  36.225   0.998   6.753
 9926POPC   C3B62601  36.161   0.947   7.053
 9926POPC   C4B62602  36.187   0.926   7.353
 9927POPC   NC362603   6.694   5.109   5.553
 9927POPC   PO462604   6.653   5.126   5.853
 9927POPC   GL162605   6.692   5.085   6.153
 9927POPC   GL262606   6.766   4.994   6.153
 9927POPC   C1A62607   6.627   5.050   6.453
 9927POPC   D2A62608   6.669   5.111   6.753
 9927POPC   C3A62609   6.666   5.097   7.053
 9927POPC   C4A62610   6.686   5.109   7.353
 9927POPC   C1B62611   6.811   4.976   6.453
 9927POPC   C2B62612   6.887   4.931   6.753
 9927POPC   C3B62613   6.794   4.931   7.053
 9927POPC   C4B62614   6.812   4.908   7.353
 9928POPC   NC362615  15.186  11.291   5.553
 9928POPC   PO462616  15.211  11.296   5.853
 9928POPC   GL162617  15.225  11.312   6.153
 9928POPC   GL262618  15.295  11.303   6.153
 9928POPC   C1A62619  15.206  11.346   6.453
 9928POPC   D2A62620  15.206  11.250   6.753
 9928POPC   C3A62621  15.192  11.258   7.053
 9928POPC   C4A62622  15.157  11.255   7.353
 9928POPC   C1B62623  15.431  11.223   6.453
 9928POPC   C2B62624  15.381  11.320   6.753
 9928POPC   C3B62625  15.388  11.269   7.053
 9928POPC   C4B62626  15.430  11.238   7.353
 9929POPC   NC362627  12.073  10.534   5.553
 9929POPC   PO462628  12.060  10.556   5.853
 9929POPC   GL162629  12.120  10.497   6.153
 9929POPC   GL262630  12.014  10.568   6.153
 9929POPC   C1A62631  12.112  10.506   6.453
 9929POPC   D2A62632  12.107  10.533   6.753
 9929POPC   C3A62633  12.071  10.528   7.053
 9929POPC   C4A62634  12.105  10.524   7.353
 9929POPC   C1B62635  11.836  10.634   6.453
 9929POPC   C2B62636  11.924  10.697   6.753
 9929POPC   C3B62637  11.911  10.643   7.053
 9929POPC   C4B62638  11.903  10.700   7.353
 9930POPC   NC362639   8.943  19.858   5.553
 9930POPC   PO462640   8.958  19.833   5.853
 9930POPC   GL162641   8.950  19.805   6.153
 9930POPC   GL262642   8.955  19.966   6.153
 9930POPC   C1A62643   8.923  19.845   6.453
 9930POPC   D2A62644   8.973  19.798   6.753
 9930POPC   C3A62645   8.986  19.798   7.053
 9930POPC   C4A62646   8.982  19.813   7.353
 9930POPC   C1B62647   8.965  20.118   6.453
 9930POPC   C2B62648   8.926  20.053   6.753
 9930POPC   C3B62649   8.971  20.065   7.053
 9930POPC   C4B62650   8.978  20.108   7.353
 9931POPC   NC362651  38.491  20.656   5.553
 9931POPC   PO462652  38.479  20.571   5.853
 9931POPC   GL162653  38.487  20.562   6.153
 9931POPC   GL262654  38.420  20.740   6.153
 9931POPC   C1A62655  38.410  20.626   6.453
 9931POPC   D2A62656  38.423  20.635   6.753
 9931POPC   C3A62657  38.427  20.638   7.053
 9931POPC   C4A62658  38.409  20.640   7.353
 9931POPC   C1B62659  38.332  20.792   6.453
 9931POPC   C2B62660  38.268  20.833   6.753
 9931POPC   C3B62661  38.302  20.797   7.053
 9931POPC   C4B62662  38.255  20.816   7.353
 9932POPC   NC362663  35.399  15.914   5.553
 9932POPC   PO462664  35.359  15.976   5.853
 9932POPC   GL162665  35.342  15.961   6.153
 9932POPC   GL262666  35.465  15.935   6.153
 9932POPC   C1A62667  35.337  15.910   6.453
 9932POPC   D2A62668  35.366  15.955   6.753
 9932POPC   C3A62669  35.370  15.959   7.053
 9932POPC   C4A62670  35.364  15.987   7.353
 9932POPC   C1B62671  35.546  15.862   6.453
 9932POPC   C2B62672  35.548  15.838   6.753
 9932POPC   C3B62673  35.563  15.864   7.053
 9932POPC   C4B62674  35.575  15.821   7.353
 9933POPC   NC362675   5.832  11.347   5.553
 9933POPC   PO462676   5.850  11.308   5.853
 9933POPC   GL162677   5.871  11.257   6.153
 9933POPC   GL262678   5.944  11.396   6.153
 9933POPC   C1A62679   5.844  11.286   6.453
 9933POPC   D2A62680   5.899  11.349   6.753
 9933POPC   C3A62681   5.819  11.319   7.053
 9933POPC   C4A62682   5.843  11.281   7.353
 9933POPC   C1B62683   6.039  11.484   6.453
 9933POPC   C2B62684   6.078  11.518   6.753
 9933POPC   C3B62685   6.009  11.511   7.053
 9933POPC   C4B62686   6.066  11.442   7.353
 9934POPC   NC362687  41.603  18.329   5.553
 9934POPC   PO462688  41.596  18.329   5.853
 9934POPC   GL162689  41.534  18.258   6.153
 9934POPC   GL262690  41.551  18.116   6.153
 9934POPC   C1A62691  41.563  18.285   6.453
 9934POPC   D2A62692  41.583  18.332   6.753
 9934POPC   C3A62693  41.520  18.255   7.053
 9934POPC   C4A62694  41.535  18.264   7.353
 9934POPC   C1B62695  41.651  18.088   6.453
 9934POPC   C2B62696  41.645  18.065   6.753
 9934POPC   C3B62697  41.593  18.029   7.053
 9934POPC   C4B62698  41.607  18.052   7.353
 9935POPC   NC362699  43.143   3.568   5.553
 9935POPC   PO462700  43.157   3.519   5.853
 9935POPC   GL162701  43.081   3.495   6.153
 9935POPC   GL262702  43.024   3.639   6.153
 9935POPC   C1A62703  43.098   3.580   6.453
 9935POPC   D2A62704  43.068   3.531   6.753
 9935POPC   C3A62705  43.157   3.557   7.053
 9935POPC   C4A62706  43.064   3.505   7.353
 9935POPC   C1B62707  43.037   3.797   6.453
 9935POPC   C2B62708  43.025   3.741   6.753
 9935POPC   C3B62709  43.001   3.785   7.053
 9935POPC   C4B62710  43.085   3.749   7.353
 9936POPC   NC362711  30.708  19.865   5.553
 9936POPC   PO462712  30.744  19.854   5.853
 9936POPC   GL162713  30.706  19.785   6.153
 9936POPC   GL262714  30.671  19.707   6.153
 9936POPC   C1A62715  30.689  19.840   6.453
 9936POPC   D2A62716  30.661  19.818   6.753
 9936POPC   C3A62717  30.696  19.842   7.053
 9936POPC   C4A62718  30.737  19.852   7.353
 9936POPC   C1B62719  30.604  19.606   6.453
 9936POPC   C2B62720  30.623  19.576   6.753
 9936POPC   C3B62721  30.642  19.546   7.053
 9936POPC   C4B62722  30.609  19.643   7.353
 9937POPC   NC362723  26.804  44.658   5.553
 9937POPC   PO462724  26.810  44.707   5.853
 9937POPC   GL162725  26.768  44.660   6.153
 9937POPC   GL262726  26.933  44.707   6.153
 9937POPC   C1A62727  26.840  44.711   6.453
 9937POPC   D2A62728  26.834  44.653   6.753
 9937POPC   C3A62729  26.859  44.634   7.053
 9937POPC   C4A62730  26.770  44.656   7.353
 9937POPC   C1B62731  27.022  44.862   6.453
 9937POPC   C2B62732  26.969  44.840   6.753
 9937POPC   C3B62733  26.997  44.848   7.053
 9937POPC   C4B62734  27.012  44.806   7.353
 9938POPC   NC362735  16.777  36.926   5.553
 9938POPC   PO462736  16.742  36.949   5.853
 9938POPC   GL162737  16.761  36.882   6.153
 9938POPC   GL262738  16.770  37.006   6.153
 9938POPC   C1A62739  16.725  36.950   6.453
 9938POPC   D2A62740  16.758  36.889   6.753
 9938POPC   C3A62741  16.752  36.866   7.053
 9938POPC   C4A62742  16.761  36.925   7.353
 9938POPC   C1B62743  16.855  37.104   6.453
 9938POPC   C2B62744  16.880  37.152   6.753
 9938POPC   C3B62745  16.858  37.076   7.053
 9938POPC   C4B62746  16.881  37.154   7.353
 9939POPC   NC362747  43.913  29.173   5.553
 9939POPC   PO462748  43.914  29.167   5.853
 9939POPC   GL162749  43.900  29.105   6.153
 9939POPC   GL262750  43.766  29.109   6.153
 9939POPC   C1A62751  43.894  29.166   6.453
 9939POPC   D2A62752  43.846  29.147   6.753
 9939POPC   C3A62753  43.881  29.112   7.053
 9939POPC   C4A62754  43.921  29.129   7.353
 9939POPC   C1B62755  43.680  29.087   6.453
 9939POPC   C2B62756  43.630  29.145   6.753
 9939POPC   C3B62757  43.669  29.128   7.053
 9939POPC   C4B62758  43.609  29.123   7.353
 9940POPC   NC362759  19.819  43.899   5.553
 9940POPC   PO462760  19.857  43.845   5.853
 9940POPC   GL162761  19.833  43.910   6.153
 9940POPC   GL262762  19.902  43.780   6.153
 9940POPC   C1A62763  19.795  43.897   6.453
 9940POPC   D2A62764  19.856  43.839   6.753
 9940POPC   C3A62765  19.882  43.853   7.053
 9940POPC   C4A62766  19.873  43.902   7.353
 9940POPC   C1B62767  19.930  43.631   6.453
 9940POPC   C2B62768  19.947  43.625   6.753
 9940POPC   C3B62769  19.931  43.635   7.053
 9940POPC   C4B62770  19.996  43.711   7.353
 9941POPC   NC362771  35.367   7.430   5.553
 9941POPC   PO462772  35.355   7.408   5.853
 9941POPC   GL162773  35.333   7.412   6.153
 9941POPC   GL262774  35.458   7.495   6.153
 9941POPC   C1A62775  35.313   7.399   6.453
 9941POPC   D2A62776  35.319   7.462   6.753
 9941POPC   C3A62777  35.335   7.424   7.053
 9941POPC   C4A62778  35.382   7.459   7.353
 9941POPC   C1B62779  35.576   7.590   6.453
 9941POPC   C2B62780  35.529   7.574   6.753
 9941POPC   C3B62781  35.530   7.619   7.053
 9941POPC   C4B62782  35.526   7.610   7.353
 9942POPC   NC362783  35.397  42.295   5.553
 9942POPC   PO462784  35.384  42.318   5.853
 9942POPC   GL162785  35.329  42.318   6.153
 9942POPC   GL262786  35.291  42.401   6.153
 9942POPC   C1A62787  35.351  42.356   6.453
 9942POPC   D2A62788  35.324  42.312   6.753
 9942POPC   C3A62789  35.351  42.303   7.053
 9942POPC   C4A62790  35.333  42.375   7.353
 9942POPC   C1B62791  35.173  42.503   6.453
 9942POPC   C2B62792  35.130  42.465   6.753
 9942POPC   C3B62793  35.154  42.475   7.053
 9942POPC   C4B62794  35.171  42.460   7.353
 9943POPC   NC362795   0.392  41.514   5.553
 9943POPC   PO462796   0.421  41.572   5.853
 9943POPC   GL162797   0.437  41.539   6.153
 9943POPC   GL262798   0.512  41.468   6.153
 9943POPC   C1A62799   0.439  41.530   6.453
 9943POPC   D2A62800   0.408  41.587   6.753
 9943POPC   C3A62801   0.398  41.547   7.053
 9943POPC   C4A62802   0.456  41.589   7.353
 9943POPC   C1B62803   0.607  41.340   6.453
 9943POPC   C2B62804   0.568  41.390   6.753
 9943POPC   C3B62805   0.599  41.402   7.053
 9943POPC   C4B62806   0.629  41.332   7.353
 9944POPC   NC362807   1.239  33.849   5.553
 9944POPC   PO462808   1.189  33.846   5.853
 9944POPC   GL162809   1.172  33.792   6.153
 9944POPC   GL262810   1.076  33.713   6.153
 9944POPC   C1A62811   1.231  33.818   6.453
 9944POPC   D2A62812   1.263  33.818   6.753
 9944POPC   C3A62813   1.227  33.758   7.053
 9944POPC   C4A62814   1.233  33.783   7.353
 9944POPC   C1B62815   1.039  33.694   6.453
 9944POPC   C2B62816   1.023  33.654   6.753
 9944POPC   C3B62817   0.992  33.613   7.053
 9944POPC   C4B62818   1.047  33.604   7.353
 9945POPC   NC362819  44.694   7.430   5.553
 9945POPC   PO462820  44.648   7.380   5.853
 9945POPC   GL162821  44.626   7.466   6.153
 9945POPC   GL262822  44.775   7.419   6.153
 9945POPC   C1A62823  44.704   7.401   6.453
 9945POPC   D2A62824  44.615   7.426   6.753
 9945POPC   C3A62825  44.620   7.407   7.053
 9945POPC   C4A62826  44.651   7.377   7.353
 9945POPC   C1B62827  44.920   7.395   6.453
 9945POPC   C2B62828  44.883   7.381   6.753
 9945POPC   C3B62829  44.950   7.342   7.053
 9945POPC   C4B62830  44.884   7.308   7.353
 9946POPC   NC362831   3.537  22.910   5.553
 9946POPC   PO462832   3.580  22.892   5.853
 9946POPC   GL162833   3.551  22.940   6.153
 9946POPC   GL262834   3.527  23.065   6.153
 9946POPC   C1A62835   3.525  22.903   6.453
 9946POPC   D2A62836   3.519  22.943   6.753
 9946POPC   C3A62837   3.540  22.896   7.053
 9946POPC   C4A62838   3.529  22.890   7.353
 9946POPC   C1B62839   3.456  23.212   6.453
 9946POPC   C2B62840   3.502  23.232   6.753
 9946POPC   C3B62841   3.542  23.220   7.053
 9946POPC   C4B62842   3.454  23.171   7.353
 9947POPC   NC362843   6.659  39.212   5.553
 9947POPC   PO462844   6.664  39.244   5.853
 9947POPC   GL162845   6.648  39.274   6.153
 9947POPC   GL262846   6.576  39.161   6.153
 9947POPC   C1A62847   6.662  39.232   6.453
 9947POPC   D2A62848   6.671  39.240   6.753
 9947POPC   C3A62849   6.596  39.231   7.053
 9947POPC   C4A62850   6.642  39.241   7.353
 9947POPC   C1B62851   6.537  38.986   6.453
 9947POPC   C2B62852   6.500  39.045   6.753
 9947POPC   C3B62853   6.447  39.011   7.053
 9947POPC   C4B62854   6.463  39.003   7.353
 9948POPC   NC362855  36.867  22.985   5.553
 9948POPC   PO462856  36.854  22.930   5.853
 9948POPC   GL162857  36.880  22.928   6.153
 9948POPC   GL262858  36.890  23.086   6.153
 9948POPC   C1A62859  36.938  22.892   6.453
 9948POPC   D2A62860  36.881  22.988   6.753
 9948POPC   C3A62861  36.909  22.898   7.053
 9948POPC   C4A62862  36.901  22.957   7.353
 9948POPC   C1B62863  36.737  23.122   6.453
 9948POPC   C2B62864  36.737  23.200   6.753
 9948POPC   C3B62865  36.778  23.156   7.053
 9948POPC   C4B62866  36.733  23.187   7.353
 9949POPC   NC362867  32.982  22.179   5.553
 9949POPC   PO462868  33.047  22.203   5.853
 9949POPC   GL162869  33.013  22.180   6.153
 9949POPC   GL262870  32.962  22.005   6.153
 9949POPC   C1A62871  33.029  22.164   6.453
 9949POPC   D2A62872  33.023  22.196   6.753
 9949POPC   C3A62873  33.055  22.168   7.053
 9949POPC   C4A62874  33.053  22.119   7.353
 9949POPC   C1B62875  32.976  21.955   6.453
 9949POPC   C2B62876  33.033  21.902   6.753
 9949POPC   C3B62877  32.992  21.907   7.053
 9949POPC   C4B62878  33.007  21.873   7.353
 9950POPC   NC362879  30.690  14.399   5.553
 9950POPC   PO462880  30.706  14.368   5.853
 9950POPC   GL162881  30.700  14.434   6.153
 9950POPC   GL262882  30.715  14.311   6.153
 9950POPC   C1A62883  30.691  14.361   6.453
 9950POPC   D2A62884  30.737  14.370   6.753
 9950POPC   C3A62885  30.681  14.374   7.053
 9950POPC   C4A62886  30.739  14.395   7.353
 9950POPC   C1B62887  30.628  14.184   6.453
 9950POPC   C2B62888  30.686  14.115   6.753
 9950POPC   C3B62889  30.700  14.206   7.053
 9950POPC   C4B62890  30.670  14.179   7.353
 9951POPC   NC362891   2.813  36.143   5.553
 9951POPC   PO462892   2.723  36.161   5.853
 9951POPC   GL162893   2.718  36.164   6.153
 9951POPC   GL262894   2.764  36.202   6.153
 9951POPC   C1A62895   2.760  36.140   6.453
 9951POPC   D2A62896   2.814  36.170   6.753
 9951POPC   C3A62897   2.813  36.088   7.053
 9951POPC   C4A62898   2.779  36.115   7.353
 9951POPC   C1B62899   2.843  36.321   6.453
 9951POPC   C2B62900   2.835  36.379   6.753
 9951POPC   C3B62901   2.839  36.358   7.053
 9951POPC   C4B62902   2.878  36.347   7.353
 9952POPC   NC362903  19.104  44.625   5.553
 9952POPC   PO462904  19.088  44.704   5.853
 9952POPC   GL162905  19.084  44.672   6.153
 9952POPC   GL262906  19.231  44.630   6.153
 9952POPC   C1A62907  19.060  44.688   6.453
 9952POPC   D2A62908  19.091  44.645   6.753
 9952POPC   C3A62909  19.065  44.640   7.053
 9952POPC   C4A62910  19.040  44.676   7.353
 9952POPC   C1B62911  19.353  44.721   6.453
 9952POPC   C2B62912  19.258  44.693   6.753
 9952POPC   C3B62913  19.305  44.671   7.053
 9952POPC   C4B62914  19.349  44.681   7.353
 9953POPC   NC362915  15.198  36.147   5.553
 9953POPC   PO462916  15.178  36.108   5.853
 9953POPC   GL162917  15.207  36.107   6.153
 9953POPC   GL262918  15.038  36.204   6.153
 9953POPC   C1A62919  15.211  36.141   6.453
 9953POPC   D2A62920  15.149  36.140   6.753
 9953POPC   C3A62921  15.202  36.138   7.053
 9953POPC   C4A62922  15.203  36.161   7.353
 9953POPC   C1B62923  14.954  36.246   6.453
 9953POPC   C2B62924  14.943  36.275   6.753
 9953POPC   C3B62925  14.957  36.243   7.053
 9953POPC   C4B62926  14.981  36.237   7.353
 9954POPC   NC362927  29.958  24.526   5.553
 9954POPC   PO462928  29.897  24.497   5.853
 9954POPC   GL162929  29.946  24.502   6.153
 9954POPC   GL262930  29.913  24.356   6.153
 9954POPC   C1A62931  29.891  24.445   6.453
 9954POPC   D2A62932  29.948  24.467   6.753
 9954POPC   C3A62933  29.886  24.486   7.053
 9954POPC   C4A62934  29.967  24.504   7.353
 9954POPC   C1B62935  29.826  24.224   6.453
 9954POPC   C2B62936  29.890  24.274   6.753
 9954POPC   C3B62937  29.902  24.214   7.053
 9954POPC   C4B62938  29.855  24.288   7.353
 9955POPC   NC362939   6.644  29.142   5.553
 9955POPC   PO462940   6.620  29.096   5.853
 9955POPC   GL162941   6.598  29.109   6.153
 9955POPC   GL262942   6.644  29.273   6.153
 9955POPC   C1A62943   6.599  29.110   6.453
 9955POPC   D2A62944   6.686  29.145   6.753
 9955POPC   C3A62945   6.646  29.095   7.053
 9955POPC   C4A62946   6.676  29.108   7.353
 9955POPC   C1B62947   6.587  29.426   6.453
 9955POPC   C2B62948   6.656  29.383   6.753
 9955POPC   C3B62949   6.592  29.414   7.053
 9955POPC   C4B62950   6.601  29.441   7.353
 9956POPC   NC362951  26.816  31.481   5.553
 9956POPC   PO462952  26.848  31.461   5.853
 9956POPC   GL162953  26.854  31.517   6.153
 9956POPC   GL262954  26.919  31.547   6.153
 9956POPC   C1A62955  26.840  31.487   6.453
 9956POPC   D2A62956  26.836  31.430   6.753
 9956POPC   C3A62957  26.789  31.502   7.053
 9956POPC   C4A62958  26.838  31.475   7.353
 9956POPC   C1B62959  26.992  31.562   6.453
 9956POPC   C2B62960  27.041  31.613   6.753
 9956POPC   C3B62961  27.072  31.577   7.053
 9956POPC   C4B62962  27.003  31.643   7.353
 9957POPC   NC362963   5.839   8.992   5.553
 9957POPC   PO462964   5.841   8.990   5.853
 9957POPC   GL162965   5.823   9.021   6.153
 9957POPC   GL262966   5.757   9.024   6.153
 9957POPC   C1A62967   5.869   8.966   6.453
 9957POPC   D2A62968   5.825   8.995   6.753
 9957POPC   C3A62969   5.915   8.942   7.053
 9957POPC   C4A62970   5.846   8.977   7.353
 9957POPC   C1B62971   5.680   9.035   6.453
 9957POPC   C2B62972   5.595   9.062   6.753
 9957POPC   C3B62973   5.617   9.028   7.053
 9957POPC   C4B62974   5.591   9.028   7.353
 9958POPC   NC362975  28.397  39.249   5.553
 9958POPC   PO462976  28.392  39.257   5.853
 9958POPC   GL162977  28.365  39.265   6.153
 9958POPC   GL262978  28.243  39.227   6.153
 9958POPC   C1A62979  28.365  39.270   6.453
 9958POPC   D2A62980  28.389  39.259   6.753
 9958POPC   C3A62981  28.377  39.199   7.053
 9958POPC   C4A62982  28.341  39.202   7.353
 9958POPC   C1B62983  28.110  39.206   6.453
 9958POPC   C2B62984  28.129  39.283   6.753
 9958POPC   C3B62985  28.124  39.250   7.053
 9958POPC   C4B62986  28.113  39.281   7.353
 9959POPC   NC362987   9.784  25.250   5.553
 9959POPC   PO462988   9.752  25.280   5.853
 9959POPC   GL162989   9.712  25.314   6.153
 9959POPC   GL262990   9.684  25.180   6.153
 9959POPC   C1A62991   9.757  25.235   6.453
 9959POPC   D2A62992   9.751  25.273   6.753
 9959POPC   C3A62993   9.740  25.228   7.053
 9959POPC   C4A62994   9.790  25.266   7.353
 9959POPC   C1B62995   9.635  25.101   6.453
 9959POPC   C2B62996   9.645  25.025   6.753
 9959POPC   C3B62997   9.571  25.052   7.053
 9959POPC   C4B62998   9.604  25.014   7.353
 9960POPC   NC362999  17.507  26.859   5.553
 9960POPC   PO463000  17.485  26.828   5.853
 9960POPC   GL163001  17.549  26.794   6.153
 9960POPC   GL263002  17.518  26.975   6.153
 9960POPC   C1A63003  17.475  26.843   6.453
 9960POPC   D2A63004  17.499  26.863   6.753
 9960POPC   C3A63005  17.551  26.845   7.053
 9960POPC   C4A63006  17.503  26.795   7.353
 9960POPC   C1B63007  17.414  27.057   6.453
 9960POPC   C2B63008  17.399  27.078   6.753
 9960POPC   C3B63009  17.410  27.029   7.053
 9960POPC   C4B63010  17.432  27.098   7.353
 9961POPC   NC363011  12.118  32.274   5.553
 9961POPC   PO463012  12.092  32.255   5.853
 9961POPC   GL163013  12.111  32.283   6.153
 9961POPC   GL263014  12.169  32.259   6.153
 9961POPC   C1A63015  12.036  32.215   6.453
 9961POPC   D2A63016  12.030  32.264   6.753
 9961POPC   C3A63017  12.064  32.274   7.053
 9961POPC   C4A63018  12.091  32.282   7.353
 9961POPC   C1B63019  12.300  32.209   6.453
 9961POPC   C2B63020  12.299  32.195   6.753
 9961POPC   C3B63021  12.292  32.216   7.053
 9961POPC   C4B63022  12.274  32.178   7.353
 9962POPC   NC363023  27.639  38.422   5.553
 9962POPC   PO463024  27.592  38.462   5.853
 9962POPC   GL163025  27.574  38.447   6.153
 9962POPC   GL263026  27.697  38.532   6.153
 9962POPC   C1A63027  27.634  38.445   6.453
 9962POPC   D2A63028  27.627  38.489   6.753
 9962POPC   C3A63029  27.609  38.427   7.053
 9962POPC   C4A63030  27.601  38.478   7.353
 9962POPC   C1B63031  27.854  38.549   6.453
 9962POPC   C2B63032  27.870  38.548   6.753
 9962POPC   C3B63033  27.806  38.534   7.053
 9962POPC   C4B63034  27.818  38.595   7.353
 9963POPC   NC363035  19.822   4.285   5.553
 9963POPC   PO463036  19.812   4.346   5.853
 9963POPC   GL163037  19.805   4.279   6.153
 9963POPC   GL263038  19.876   4.417   6.153
 9963POPC   C1A63039  19.861   4.345   6.453
 9963POPC   D2A63040  19.854   4.350   6.753
 9963POPC   C3A63041  19.791   4.321   7.053
 9963POPC   C4A63042  19.837   4.310   7.353
 9963POPC   C1B63043  19.830   4.561   6.453
 9963POPC   C2B63044  19.854   4.583   6.753
 9963POPC   C3B63045  19.831   4.520   7.053
 9963POPC   C4B63046  19.868   4.536   7.353
 9964POPC   NC363047  27.560  42.314   5.553
 9964POPC   PO463048  27.553  42.356   5.853
 9964POPC   GL163049  27.635  42.318   6.153
 9964POPC   GL263050  27.697  42.428   6.153
 9964POPC   C1A63051  27.605  42.331   6.453
 9964POPC   D2A63052  27.596  42.295   6.753
 9964POPC   C3A63053  27.551  42.370   7.053
 9964POPC   C4A63054  27.609  42.287   7.353
 9964POPC   C1B63055  27.749  42.516   6.453
 9964POPC   C2B63056  27.805  42.468   6.753
 9964POPC   C3B63057  27.812  42.527   7.053
 9964POPC   C4B63058  27.756  42.495   7.353
 9965POPC   NC363059  31.457  17.529   5.553
 9965POPC   PO463060  31.440  17.534   5.853
 9965POPC   GL163061  31.505  17.519   6.153
 9965POPC   GL263062  31.478  17.370   6.153
 9965POPC   C1A63063  31.447  17.556   6.453
 9965POPC   D2A63064  31.424  17.538   6.753
 9965POPC   C3A63065  31.501  17.465   7.053
 9965POPC   C4A63066  31.501  17.554   7.353
 9965POPC   C1B63067  31.539  17.311   6.453
 9965POPC   C2B63068  31.563  17.251   6.753
 9965POPC   C3B63069  31.585  17.273   7.053
 9965POPC   C4B63070  31.545  17.226   7.353
 9966POPC   NC363071  15.906  34.621   5.553
 9966POPC   PO463072  15.908  34.583   5.853
 9966POPC   GL163073  15.998  34.531   6.153
 9966POPC   GL263074  16.019  34.446   6.153
 9966POPC   C1A63075  15.998  34.556   6.453
 9966POPC   D2A63076  15.923  34.617   6.753
 9966POPC   C3A63077  15.928  34.544   7.053
 9966POPC   C4A63078  15.944  34.596   7.353
 9966POPC   C1B63079  16.076  34.382   6.453
 9966POPC   C2B63080  16.085  34.406   6.753
 9966POPC   C3B63081  16.093  34.383   7.053
 9966POPC   C4B63082  16.052  34.406   7.353
 9967POPC   NC363083  14.425  40.785   5.553
 9967POPC   PO463084  14.416  40.832   5.853
 9967POPC   GL163085  14.355  40.786   6.153
 9967POPC   GL263086  14.345  40.726   6.153
 9967POPC   C1A63087  14.416  40.786   6.453
 9967POPC   D2A63088  14.423  40.758   6.753
 9967POPC   C3A63089  14.368  40.774   7.053
 9967POPC   C4A63090  14.410  40.756   7.353
 9967POPC   C1B63091  14.268  40.546   6.453
 9967POPC   C2B63092  14.243  40.606   6.753
 9967POPC   C3B63093  14.287  40.528   7.053
 9967POPC   C4B63094  14.250  40.591   7.353
 9968POPC   NC363095  21.350   3.564   5.553
 9968POPC   PO463096  21.340   3.523   5.853
 9968POPC   GL163097  21.392   3.528   6.153
 9968POPC   GL263098  21.380   3.616   6.153
 9968POPC   C1A63099  21.363   3.590   6.453
 9968POPC   D2A63100  21.415   3.541   6.753
 9968POPC   C3A63101  21.429   3.571   7.053
 9968POPC   C4A63102  21.425   3.570   7.353
 9968POPC   C1B63103  21.448   3.809   6.453
 9968POPC   C2B63104  21.449   3.781   6.753
 9968POPC   C3B63105  21.477   3.822   7.053
 9968POPC   C4B63106  21.463   3.749   7.353
 9969POPC   NC363107  40.783  19.102   5.553
 9969POPC   PO463108  40.814  19.059   5.853
 9969POPC   GL163109  40.759  19.031   6.153
 9969POPC   GL263110  40.778  19.143   6.153
 9969POPC   C1A63111  40.811  19.088   6.453
 9969POPC   D2A63112  40.786  19.082   6.753
 9969POPC   C3A63113  40.784  19.101   7.053
 9969POPC   C4A63114  40.760  19.087   7.353
 9969POPC   C1B63115  40.853  19.289   6.453
 9969POPC   C2B63116  40.848  19.302   6.753
 9969POPC   C3B63117  40.891  19.268   7.053
 9969POPC   C4B63118  40.911  19.287   7.353
 9970POPC   NC363119  19.082  17.489   5.553
 9970POPC   PO463120  19.025  17.539   5.853
 9970POPC   GL163121  19.069  17.513   6.153
 9970POPC   GL263122  19.019  17.582   6.153
 9970POPC   C1A63123  19.104  17.494   6.453
 9970POPC   D2A63124  19.035  17.520   6.753
 9970POPC   C3A63125  19.035  17.517   7.053
 9970POPC   C4A63126  19.089  17.462   7.353
 9970POPC   C1B63127  18.925  17.716   6.453
 9970POPC   C2B63128  18.914  17.770   6.753
 9970POPC   C3B63129  18.955  17.696   7.053
 9970POPC   C4B63130  18.909  17.723   7.353
 9971POPC   NC363131  13.640  13.579   5.553
 9971POPC   PO463132  13.641  13.607   5.853
 9971POPC   GL163133  13.580  13.584   6.153
 9971POPC   GL263134  13.602  13.455   6.153
 9971POPC   C1A63135  13.598  13.650   6.453
 9971POPC   D2A63136  13.668  13.676   6.753
 9971POPC   C3A63137  13.650  13.618   7.053
 9971POPC   C4A63138  13.584  13.618   7.353
 9971POPC   C1B63139  13.670  13.375   6.453
 9971POPC   C2B63140  13.587  13.392   6.753
 9971POPC   C3B63141  13.673  13.353   7.053
 9971POPC   C4B63142  13.597  13.377   7.353
 9972POPC   NC363143  43.132  37.721   5.553
 9972POPC   PO463144  43.103  37.637   5.853
 9972POPC   GL163145  43.064  37.668   6.153
 9972POPC   GL263146  43.049  37.803   6.153
 9972POPC   C1A63147  43.129  37.659   6.453
 9972POPC   D2A63148  43.064  37.690   6.753
 9972POPC   C3A63149  43.109  37.686   7.053
 9972POPC   C4A63150  43.115  37.657   7.353
 9972POPC   C1B63151  43.047  37.866   6.453
 9972POPC   C2B63152  43.012  37.903   6.753
 9972POPC   C3B63153  42.986  37.862   7.053
 9972POPC   C4B63154  42.982  37.957   7.353
 9973POPC   NC363155   5.059  44.687   5.553
 9973POPC   PO463156   5.133  44.673   5.853
 9973POPC   GL163157   5.049  44.676   6.153
 9973POPC   GL263158   5.181  44.708   6.153
 9973POPC   C1A63159   5.085  44.636   6.453
 9973POPC   D2A63160   5.076  44.639   6.753
 9973POPC   C3A63161   5.106  44.679   7.053
 9973POPC   C4A63162   5.123  44.647   7.353
 9973POPC   C1B63163   5.272  44.849   6.453
 9973POPC   C2B63164   5.226  44.864   6.753
 9973POPC   C3B63165   5.271  44.878   7.053
 9973POPC   C4B63166   5.211  44.834   7.353
 9974POPC   NC363167  27.636  40.791   5.553
 9974POPC   PO463168  27.588  40.767   5.853
 9974POPC   GL163169  27.600  40.739   6.153
 9974POPC   GL263170  27.536  40.648   6.153
 9974POPC   C1A63171  27.551  40.773   6.453
 9974POPC   D2A63172  27.543  40.820   6.753
 9974POPC   C3A63173  27.587  40.796   7.053
 9974POPC   C4A63174  27.626  40.809   7.353
 9974POPC   C1B63175  27.476  40.576   6.453
 9974POPC   C2B63176  27.468  40.523   6.753
 9974POPC   C3B63177  27.416  40.615   7.053
 9974POPC   C4B63178  27.501  40.553   7.353
 9975POPC   NC363179   1.173  32.255   5.553
 9975POPC   PO463180   1.201  32.286   5.853
 9975POPC   GL163181   1.169  32.298   6.153
 9975POPC   GL263182   1.303  32.177   6.153
 9975POPC   C1A63183   1.204  32.219   6.453
 9975POPC   D2A63184   1.188  32.258   6.753
 9975POPC   C3A63185   1.201  32.209   7.053
 9975POPC   C4A63186   1.186  32.268   7.353
 9975POPC   C1B63187   1.373  32.140   6.453
 9975POPC   C2B63188   1.387  32.121   6.753
 9975POPC   C3B63189   1.455  32.093   7.053
 9975POPC   C4B63190   1.422  32.104   7.353
 9976POPC   NC363191  12.805  19.861   5.553
 9976POPC   PO463192  12.823  19.880   5.853
 9976POPC   GL163193  12.871  19.787   6.153
 9976POPC   GL263194  12.700  19.889   6.153
 9976POPC   C1A63195  12.849  19.864   6.453
 9976POPC   D2A63196  12.824  19.840   6.753
 9976POPC   C3A63197  12.823  19.848   7.053
 9976POPC   C4A63198  12.821  19.804   7.353
 9976POPC   C1B63199  12.604  19.948   6.453
 9976POPC   C2B63200  12.662  19.960   6.753
 9976POPC   C3B63201  12.576  19.891   7.053
 9976POPC   C4B63202  12.592  19.907   7.353
 9977POPC   NC363203   3.578  27.577   5.553
 9977POPC   PO463204   3.560  27.615   5.853
 9977POPC   GL163205   3.549  27.630   6.153
 9977POPC   GL263206   3.496  27.506   6.153
 9977POPC   C1A63207   3.518  27.640   6.453
 9977POPC   D2A63208   3.517  27.592   6.753
 9977POPC   C3A63209   3.562  27.581   7.053
 9977POPC   C4A63210   3.547  27.553   7.353
 9977POPC   C1B63211   3.424  27.358   6.453
 9977POPC   C2B63212   3.406  27.311   6.753
 9977POPC   C3B63213   3.447  27.311   7.053
 9977POPC   C4B63214   3.492  27.378   7.353
 9978POPC   NC363215  15.949  42.303   5.553
 9978POPC   PO463216  15.957  42.309   5.853
 9978POPC   GL163217  15.949  42.332   6.153
 9978POPC   GL263218  16.100  42.263   6.153
 9978POPC   C1A63219  15.937  42.355   6.453
 9978POPC   D2A63220  15.928  42.353   6.753
 9978POPC   C3A63221  15.938  42.346   7.053
 9978POPC   C4A63222  15.972  42.323   7.353
 9978POPC   C1B63223  16.173  42.270   6.453
 9978POPC   C2B63224  16.140  42.225   6.753
 9978POPC   C3B63225  16.218  42.237   7.053
 9978POPC   C4B63226  16.232  42.235   7.353
 9979POPC   NC363227  35.322  10.505   5.553
 9979POPC   PO463228  35.336  10.494   5.853
 9979POPC   GL163229  35.342  10.504   6.153
 9979POPC   GL263230  35.321  10.373   6.153
 9979POPC   C1A63231  35.375  10.530   6.453
 9979POPC   D2A63232  35.385  10.486   6.753
 9979POPC   C3A63233  35.303  10.513   7.053
 9979POPC   C4A63234  35.312  10.540   7.353
 9979POPC   C1B63235  35.396  10.312   6.453
 9979POPC   C2B63236  35.355  10.312   6.753
 9979POPC   C3B63237  35.357  10.283   7.053
 9979POPC   C4B63238  35.339  10.324   7.353
 9980POPC   NC363239  11.310   4.288   5.553
 9980POPC   PO463240  11.319   4.305   5.853
 9980POPC   GL163241  11.338   4.308   6.153
 9980POPC   GL263242  11.207   4.322   6.153
 9980POPC   C1A63243  11.268   4.288   6.453
 9980POPC   D2A63244  11.281   4.284   6.753
 9980POPC   C3A63245  11.269   4.288   7.053
 9980POPC   C4A63246  11.334   4.298   7.353
 9980POPC   C1B63247  11.097   4.423   6.453
 9980POPC   C2B63248  11.048   4.352   6.753
 9980POPC   C3B63249  11.104   4.416   7.053
 9980POPC   C4B63250  11.007   4.357   7.353
 9981POPC   NC363251  18.329  22.900   5.553
 9981POPC   PO463252  18.283  22.965   5.853
 9981POPC   GL163253  18.260  22.932   6.153
 9981POPC   GL263254  18.226  23.038   6.153
 9981POPC   C1A63255  18.281  22.897   6.453
 9981POPC   D2A63256  18.251  22.916   6.753
 9981POPC   C3A63257  18.241  22.947   7.053
 9981POPC   C4A63258  18.259  22.941   7.353
 9981POPC   C1B63259  18.140  23.168   6.453
 9981POPC   C2B63260  18.112  23.097   6.753
 9981POPC   C3B63261  18.153  23.092   7.053
 9981POPC   C4B63262  18.085  23.145   7.353
 9982POPC   NC363263  34.549  11.265   5.553
 9982POPC   PO463264  34.595  11.304   5.853
 9982POPC   GL163265  34.572  11.346   6.153
 9982POPC   GL263266  34.493  11.253   6.153
 9982POPC   C1A63267  34.582  11.315   6.453
 9982POPC   D2A63268  34.531  11.341   6.753
 9982POPC   C3A63269  34.590  11.328   7.053
 9982POPC   C4A63270  34.578  11.347   7.353
 9982POPC   C1B63271  34.352  11.077   6.453
 9982POPC   C2B63272  34.426  11.152   6.753
 9982POPC   C3B63273  34.366  11.116   7.053
 9982POPC   C4B63274  34.450  11.152   7.353
 9983POPC   NC363275  36.118  14.415   5.553
 9983POPC   PO463276  36.154  14.383   5.853
 9983POPC   GL163277  36.083  14.399   6.153
 9983POPC   GL263278  36.139  14.562   6.153
 9983POPC   C1A63279  36.126  14.394   6.453
 9983POPC   D2A63280  36.149  14.446   6.753
 9983POPC   C3A63281  36.159  14.396   7.053
 9983POPC   C4A63282  36.154  14.410   7.353
 9983POPC   C1B63283  36.116  14.655   6.453
 9983POPC   C2B63284  36.175  14.696   6.753
 9983POPC   C3B63285  36.147  14.677   7.053
 9983POPC   C4B63286  36.167  14.692   7.353
 9984POPC   NC363287  19.087  36.143   5.553
 9984POPC   PO463288  19.010  36.164   5.853
 9984POPC   GL163289  19.026  36.154   6.153
 9984POPC   GL263290  19.043  36.213   6.153
 9984POPC   C1A63291  19.010  36.081   6.453
 9984POPC   D2A63292  19.025  36.110   6.753
 9984POPC   C3A63293  19.098  36.101   7.053
 9984POPC   C4A63294  19.032  36.119   7.353
 9984POPC   C1B63295  19.022  36.395   6.453
 9984POPC   C2B63296  18.989  36.380   6.753
 9984POPC   C3B63297  19.004  36.337   7.053
 9984POPC   C4B63298  18.974  36.375   7.353
 9985POPC   NC363299  15.184  37.672   5.553
 9985POPC   PO463300  15.197  37.650   5.853
 9985POPC   GL163301  15.224  37.655   6.153
 9985POPC   GL263302  15.157  37.606   6.153
 9985POPC   C1A63303  15.138  37.725   6.453
 9985POPC   D2A63304  15.169  37.687   6.753
 9985POPC   C3A63305  15.156  37.666   7.053
 9985POPC   C4A63306  15.162  37.689   7.353
 9985POPC   C1B63307  15.047  37.431   6.453
 9985POPC   C2B63308  15.115  37.473   6.753
 9985POPC   C3B63309  15.092  37.488   7.053
 9985POPC   C4B63310  15.104  37.446   7.353
 9986POPC   NC363311  23.756  35.381   5.553
 9986POPC   PO463312  23.720  35.308   5.853
 9986POPC   GL163313  23.701  35.352   6.153
 9986POPC   GL263314  23.618  35.338   6.153
 9986POPC   C1A63315  23.684  35.387   6.453
 9986POPC   D2A63316  23.674  35.309   6.753
 9986POPC   C3A63317  23.763  35.310   7.053
 9986POPC   C4A63318  23.709  35.321   7.353
 9986POPC   C1B63319  23.426  35.391   6.453
 9986POPC   C2B63320  23.487  35.406   6.753
 9986POPC   C3B63321  23.509  35.427   7.053
 9986POPC   C4B63322  23.439  35.380   7.353
 9987POPC   NC363323  10.535  12.039   5.553
 9987POPC   PO463324  10.528  12.088   5.853
 9987POPC   GL163325  10.509  12.051   6.153
 9987POPC   GL263326  10.457  11.984   6.153
 9987POPC   C1A63327  10.571  12.031   6.453
 9987POPC   D2A63328  10.552  12.049   6.753
 9987POPC   C3A63329  10.496  12.126   7.053
 9987POPC   C4A63330  10.566  12.079   7.353
 9987POPC   C1B63331  10.394  11.828   6.453
 9987POPC   C2B63332  10.360  11.863   6.753
 9987POPC   C3B63333  10.405  11.835   7.053
 9987POPC   C4B63334  10.451  11.844   7.353
 9988POPC   NC363335  12.088  29.915   5.553
 9988POPC   PO463336  12.123  29.919   5.853
 9988POPC   GL163337  12.028  29.952   6.153
 9988POPC   GL263338  12.078  30.078   6.153
 9988POPC   C1A63339  12.044  29.916   6.453
 9988POPC   D2A63340  12.066  29.941   6.753
 9988POPC   C3A63341  12.121  29.941   7.053
 9988POPC   C4A63342  12.101  29.875   7.353
 9988POPC   C1B63343  12.131  30.188   6.453
 9988POPC   C2B63344  12.126  30.158   6.753
 9988POPC   C3B63345  12.169  30.117   7.053
 9988POPC   C4B63346  12.182  30.183   7.353
 9989POPC   NC363347  44.709   8.199   5.553
 9989POPC   PO463348  44.615   8.197   5.853
 9989POPC   GL163349  44.686   8.160   6.153
 9989POPC   GL263350  44.748   8.052   6.153
 9989POPC   C1A63351  44.667   8.160   6.453
 9989POPC   D2A63352  44.686   8.217   6.753
 9989POPC   C3A63353  44.639   8.194   7.053
 9989POPC   C4A63354  44.642   8.245   7.353
 9989POPC   C1B63355  44.854   7.977   6.453
 9989POPC   C2B63356  44.829   8.042   6.753
 9989POPC   C3B63357  44.843   7.981   7.053
 9989POPC   C4B63358  44.769   8.027   7.353
 9990POPC   NC363359   2.771   6.659   5.553
 9990POPC   PO463360   2.726   6.661   5.853
 9990POPC   GL163361   2.806   6.623   6.153
 9990POPC   GL263362   2.662   6.589   6.153
 9990POPC   C1A63363   2.814   6.611   6.453
 9990POPC   D2A63364   2.722   6.640   6.753
 9990POPC   C3A63365   2.787   6.663   7.053
 9990POPC   C4A63366   2.778   6.667   7.353
 9990POPC   C1B63367   2.559   6.524   6.453
 9990POPC   C2B63368   2.541   6.545   6.753
 9990POPC   C3B63369   2.527   6.616   7.053
 9990POPC   C4B63370   2.504   6.576   7.353
 9991POPC   NC363371  18.315  20.624   5.553
 9991POPC   PO463372  18.331  20.623   5.853
 9991POPC   GL163373  18.233  20.561   6.153
 9991POPC   GL263374  18.368  20.733   6.153
 9991POPC   C1A63375  18.303  20.565   6.453
 9991POPC   D2A63376  18.261  20.600   6.753
 9991POPC   C3A63377  18.258  20.652   7.053
 9991POPC   C4A63378  18.291  20.575   7.353
 9991POPC   C1B63379  18.378  20.802   6.453
 9991POPC   C2B63380  18.400  20.842   6.753
 9991POPC   C3B63381  18.432  20.794   7.053
 9991POPC   C4B63382  18.337  20.848   7.353
 9992POPC   NC363383  27.623  26.059   5.553
 9992POPC   PO463384  27.616  26.029   5.853
 9992POPC   GL163385  27.614  26.072   6.153
 9992POPC   GL263386  27.650  25.932   6.153
 9992POPC   C1A63387  27.544  26.072   6.453
 9992POPC   D2A63388  27.635  26.044   6.753
 9992POPC   C3A63389  27.553  26.064   7.053
 9992POPC   C4A63390  27.634  26.045   7.353
 9992POPC   C1B63391  27.713  25.856   6.453
 9992POPC   C2B63392  27.762  25.863   6.753
 9992POPC   C3B63393  27.795  25.869   7.053
 9992POPC   C4B63394  27.755  25.838   7.353
 9993POPC   NC363395  40.828  33.754   5.553
 9993POPC   PO463396  40.736  33.823   5.853
 9993POPC   GL163397  40.740  33.815   6.153
 9993POPC   GL263398  40.723  33.942   6.153
 9993POPC   C1A63399  40.751  33.823   6.453
 9993POPC   D2A63400  40.773  33.799   6.753
 9993POPC   C3A63401  40.760  33.768   7.053
 9993POPC   C4A63402  40.765  33.803   7.353
 9993POPC   C1B63403  40.726  34.033   6.453
 9993POPC   C2B63404  40.728  34.067   6.753
 9993POPC   C3B63405  40.727  34.012   7.053
 9993POPC   C4B63406  40.669  34.020   7.353
 9994POPC   NC363407  19.025   3.546   5.553
 9994POPC   PO463408  19.025   3.499   5.853
 9994POPC   GL163409  19.083   3.551   6.153
 9994POPC   GL263410  18.905   3.572   6.153
 9994POPC   C1A63411  19.085   3.499   6.453
 9994POPC   D2A63412  19.051   3.566   6.753
 9994POPC   C3A63413  19.017   3.540   7.053
 9994POPC   C4A63414  19.063   3.543   7.353
 9994POPC   C1B63415  18.816   3.517   6.453
 9994POPC   C2B63416  18.858   3.471   6.753
 9994POPC   C3B63417  18.843   3.478   7.053
 9994POPC   C4B63418  18.804   3.507   7.353
 9995POPC   NC363419  12.043  37.651   5.553
 9995POPC   PO463420  12.067  37.670   5.853
 9995POPC   GL163421  12.037  37.685   6.153
 9995POPC   GL263422  11.958  37.747   6.153
 9995POPC   C1A63423  12.121  37.706   6.453
 9995POPC   D2A63424  12.100  37.643   6.753
 9995POPC   C3A63425  12.085  37.686   7.053
 9995POPC   C4A63426  12.037  37.718   7.353
 9995POPC   C1B63427  11.921  37.910   6.453
 9995POPC   C2B63428  11.954  37.888   6.753
 9995POPC   C3B63429  11.906  37.902   7.053
 9995POPC   C4B63430  11.942  37.868   7.353
 9996POPC   NC363431  10.506  36.177   5.553
 9996POPC   PO463432  10.515  36.156   5.853
 9996POPC   GL163433  10.497  36.174   6.153
 9996POPC   GL263434  10.584  36.171   6.153
 9996POPC   C1A63435  10.524  36.172   6.453
 9996POPC   D2A63436  10.547  36.091   6.753
 9996POPC   C3A63437  10.545  36.153   7.053
 9996POPC   C4A63438  10.510  36.127   7.353
 9996POPC   C1B63439  10.760  36.301   6.453
 9996POPC   C2B63440  10.691  36.288   6.753
 9996POPC   C3B63441  10.712  36.299   7.053
 9996POPC   C4B63442  10.690  36.313   7.353
 9997POPC   NC363443  40.035  15.940   5.553
 9997POPC   PO463444  40.052  15.946   5.853
 9997POPC   GL163445  40.044  15.973   6.153
 9997POPC   GL263446  40.081  16.104   6.153
 9997POPC   C1A63447  40.040  16.001   6.453
 9997POPC   D2A63448  40.020  15.993   6.753
 9997POPC   C3A63449  40.003  16.004   7.053
 9997POPC   C4A63450  39.980  15.957   7.353
 9997POPC   C1B63451  40.097  16.168   6.453
 9997POPC   C2B63452  40.167  16.218   6.753
 9997POPC   C3B63453  40.176  16.142   7.053
 9997POPC   C4B63454  40.182  16.128   7.353
 9998POPC   NC363455  37.705  15.139   5.553
 9998POPC   PO463456  37.701  15.155   5.853
 9998POPC   GL163457  37.669  15.166   6.153
 9998POPC   GL263458  37.617  15.276   6.153
 9998POPC   C1A63459  37.726  15.133   6.453
 9998POPC   D2A63460  37.717  15.215   6.753
 9998POPC   C3A63461  37.645  15.151   7.053
 9998POPC   C4A63462  37.652  15.180   7.353
 9998POPC   C1B63463  37.552  15.394   6.453
 9998POPC   C2B63464  37.544  15.362   6.753
 9998POPC   C3B63465  37.559  15.325   7.053
 9998POPC   C4B63466  37.488  15.361   7.353
 9999POPC   NC363467  43.907  20.655   5.553
 9999POPC   PO463468  43.864  20.570   5.853
 9999POPC   GL163469  43.875  20.587   6.153
 9999POPC   GL263470  43.966  20.522   6.153
 9999POPC   C1A63471  43.925  20.625   6.453
 9999POPC   D2A63472  43.869  20.611   6.753
 9999POPC   C3A63473  43.847  20.566   7.053
 9999POPC   C4A63474  43.930  20.626   7.353
 9999POPC   C1B63475  44.097  20.510   6.453
 9999POPC   C2B63476  44.104  20.466   6.753
 9999POPC   C3B63477  44.084  20.495   7.053
 9999POPC   C4B63478  44.108  20.519   7.353
10000POPC   NC363479   2.720  26.012   5.553
10000POPC   PO463480   2.802  26.055   5.853
10000POPC   GL163481   2.734  26.005   6.153
10000POPC   GL263482   2.791  25.964   6.153
10000POPC   C1A63483   2.720  26.080   6.453
10000POPC   D2A63484   2.754  26.045   6.753
10000POPC   C3A63485   2.812  26.029   7.053
10000POPC   C4A63486   2.768  26.042   7.353
10000POPC   C1B63487   2.735  25.780   6.453
10000POPC   C2B63488   2.760  25.804   6.753
10000POPC   C3B63489   2.729  25.762   7.053
10000POPC   C4B63490   2.713  25.757   7.353
10001POPC   NC363491   9.704  34.554   5.553
10001POPC   PO463492   9.729  34.597   5.853
10001POPC   GL163493   9.773  34.537   6.153
10001POPC   GL263494   9.879  34.477   6.153
10001POPC   C1A63495   9.735  34.537   6.453
10001POPC   D2A63496   9.713  34.587   6.753
10001POPC   C3A63497   9.724  34.588   7.053
10001POPC   C4A63498   9.781  34.612   7.353
10001POPC   C1B63499   9.923  34.444   6.453
10001POPC   C2B63500   9.913  34.371   6.753
10001POPC   C3B63501   9.898  34.434   7.053
10001POPC   C4B63502   9.902  34.429   7.353
10002POPC   NC363503  41.584  15.927   5.553
10002POPC   PO463504  41.520  15.995   5.853
10002POPC   GL163505  41.565  15.948   6.153
10002POPC   GL263506  41.723  15.897   6.153
10002POPC   C1A63507  41.536  15.937   6.453
10002POPC   D2A63508  41.514  15.949   6.753
10002POPC   C3A63509  41.571  15.976   7.053
10002POPC   C4A63510  41.515  15.951   7.353
10002POPC   C1B63511  41.833  15.950   6.453
10002POPC   C2B63512  41.793  15.884   6.753
10002POPC   C3B63513  41.838  15.893   7.053
10002POPC   C4B63514  41.806  15.949   7.353
10003POPC   NC363515  19.056  19.071   5.553
10003POPC   PO463516  19.030  19.072   5.853
10003POPC   GL163517  19.082  19.051   6.153
10003POPC   GL263518  19.217  19.138   6.153
10003POPC   C1A63519  19.073  19.056   6.453
10003POPC   D2A63520  19.099  19.102   6.753
10003POPC   C3A63521  19.022  19.086   7.053
10003POPC   C4A63522  19.045  19.051   7.353
10003POPC   C1B63523  19.316  19.158   6.453
10003POPC   C2B63524  19.282  19.177   6.753
10003POPC   C3B63525  19.246  19.140   7.053
10003POPC   C4B63526  19.279  19.199   7.353
10004POPC   NC363527  28.379  44.676   5.553
10004POPC   PO463528  28.380  44.669   5.853
10004POPC   GL163529  28.346  44.630   6.153
10004POPC   GL263530  28.476  44.649   6.153
10004POPC   C1A63531  28.404  44.623   6.453
10004POPC   D2A63532  28.413  44.632   6.753
10004POPC   C3A63533  28.394  44.648   7.053
10004POPC   C4A63534  28.372  44.653   7.353
10004POPC   C1B63535  28.595  44.754   6.453
10004POPC   C2B63536  28.659  44.702   6.753
10004POPC   C3B63537  28.601  44.712   7.053
10004POPC   C4B63538  28.652  44.751   7.353
10005POPC   NC363539   1.958  37.639   5.553
10005POPC   PO463540   2.032  37.650   5.853
10005POPC   GL163541   1.950  37.658   6.153
10005POPC   GL263542   1.916  37.617   6.153
10005POPC   C1A63543   2.039  37.663   6.453
10005POPC   D2A63544   1.999  37.718   6.753
10005POPC   C3A63545   1.947  37.666   7.053
10005POPC   C4A63546   2.022  37.678   7.353
10005POPC   C1B63547   1.772  37.460   6.453
10005POPC   C2B63548   1.854  37.462   6.753
10005POPC   C3B63549   1.863  37.477   7.053
10005POPC   C4B63550   1.827  37.458   7.353
10006POPC   NC363551  43.068  42.359   5.553
10006POPC   PO463552  43.128  42.330   5.853
10006POPC   GL163553  43.073  42.303   6.153
10006POPC   GL263554  43.224  42.278   6.153
10006POPC   C1A63555  43.119  42.364   6.453
10006POPC   D2A63556  43.094  42.293   6.753
10006POPC   C3A63557  43.109  42.340   7.053
10006POPC   C4A63558  43.072  42.326   7.353
10006POPC   C1B63559  43.245  42.119   6.453
10006POPC   C2B63560  43.306  42.124   6.753
10006POPC   C3B63561  43.323  42.105   7.053
10006POPC   C4B63562  43.298  42.127   7.353
10007POPC   NC363563   9.739   1.168   5.553
10007POPC   PO463564   9.780   1.257   5.853
10007POPC   GL163565   9.770   1.181   6.153
10007POPC   GL263566   9.723   1.317   6.153
10007POPC   C1A63567   9.718   1.228   6.453
10007POPC   D2A63568   9.738   1.172   6.753
10007POPC   C3A63569   9.744   1.185   7.053
10007POPC   C4A63570   9.751   1.209   7.353
10007POPC   C1B63571   9.832   1.497   6.453
10007POPC   C2B63572   9.762   1.416   6.753
10007POPC   C3B63573   9.797   1.481   7.053
10007POPC   C4B63574   9.801   1.426   7.353
10008POPC   NC363575  35.319  24.465   5.553
10008POPC   PO463576  35.385  24.453   5.853
10008POPC   GL163577  35.308  24.471   6.153
10008POPC   GL263578  35.467  24.571   6.153
10008POPC   C1A63579  35.326  24.508   6.453
10008POPC   D2A63580  35.352  24.485   6.753
10008POPC   C3A63581  35.368  24.520   7.053
10008POPC   C4A63582  35.387  24.493   7.353
10008POPC   C1B63583  35.562  24.649   6.453
10008POPC   C2B63584  35.517  24.635   6.753
10008POPC   C3B63585  35.567  24.645   7.053
10008POPC   C4B63586  35.564  24.620   7.353
10009POPC   NC363587  21.436   6.668   5.553
10009POPC   PO463588  21.389   6.620   5.853
10009POPC   GL163589  21.349   6.644   6.153
10009POPC   GL263590  21.544   6.703   6.153
10009POPC   C1A63591  21.350   6.626   6.453
10009POPC   D2A63592  21.347   6.622   6.753
10009POPC   C3A63593  21.345   6.640   7.053
10009POPC   C4A63594  21.377   6.647   7.353
10009POPC   C1B63595  21.597   6.720   6.453
10009POPC   C2B63596  21.598   6.767   6.753
10009POPC   C3B63597  21.604   6.689   7.053
10009POPC   C4B63598  21.577   6.727   7.353
10010POPC   NC363599   2.009  20.648   5.553
10010POPC   PO463600   1.960  20.601   5.853
10010POPC   GL163601   1.982  20.621   6.153
10010POPC   GL263602   1.923  20.709   6.153
10010POPC   C1A63603   1.993  20.580   6.453
10010POPC   D2A63604   2.005  20.582   6.753
10010POPC   C3A63605   2.023  20.607   7.053
10010POPC   C4A63606   1.961  20.561   7.353
10010POPC   C1B63607   1.956  20.885   6.453
10010POPC   C2B63608   1.885  20.804   6.753
10010POPC   C3B63609   1.925  20.840   7.053
10010POPC   C4B63610   1.944  20.900   7.353
10011POPC   NC363611  33.029  40.008   5.553
10011POPC   PO463612  33.025  40.000   5.853
10011POPC   GL163613  32.993  40.053   6.153
10011POPC   GL263614  33.057  39.890   6.153
10011POPC   C1A63615  33.003  39.995   6.453
10011POPC   D2A63616  33.057  40.004   6.753
10011POPC   C3A63617  32.991  40.050   7.053
10011POPC   C4A63618  33.058  40.033   7.353
10011POPC   C1B63619  33.148  39.823   6.453
10011POPC   C2B63620  33.096  39.747   6.753
10011POPC   C3B63621  33.158  39.761   7.053
10011POPC   C4B63622  33.175  39.777   7.353
10012POPC   NC363623  10.554   4.336   5.553
10012POPC   PO463624  10.495   4.345   5.853
10012POPC   GL163625  10.496   4.348   6.153
10012POPC   GL263626  10.538   4.423   6.153
10012POPC   C1A63627  10.559   4.316   6.453
10012POPC   D2A63628  10.516   4.318   6.753
10012POPC   C3A63629  10.542   4.365   7.053
10012POPC   C4A63630  10.524   4.315   7.353
10012POPC   C1B63631  10.561   4.568   6.453
10012POPC   C2B63632  10.494   4.558   6.753
10012POPC   C3B63633  10.486   4.529   7.053
10012POPC   C4B63634  10.561   4.565   7.353
10013POPC   NC363635   8.157  29.924   5.553
10013POPC   PO463636   8.182  29.873   5.853
10013POPC   GL163637   8.206  29.954   6.153
10013POPC   GL263638   8.321  29.846   6.153
10013POPC   C1A63639   8.188  29.941   6.453
10013POPC   D2A63640   8.245  29.912   6.753
10013POPC   C3A63641   8.198  29.874   7.053
10013POPC   C4A63642   8.195  29.957   7.353
10013POPC   C1B63643   8.380  29.762   6.453
10013POPC   C2B63644   8.337  29.730   6.753
10013POPC   C3B63645   8.368  29.749   7.053
10013POPC   C4B63646   8.354  29.753   7.353
10014POPC   NC363647  40.802  42.301   5.553
10014POPC   PO463648  40.793  42.313   5.853
10014POPC   GL163649  40.801  42.286   6.153
10014POPC   GL263650  40.682  42.198   6.153
10014POPC   C1A63651  40.785  42.309   6.453
10014POPC   D2A63652  40.772  42.380   6.753
10014POPC   C3A63653  40.786  42.359   7.053
10014POPC   C4A63654  40.825  42.338   7.353
10014POPC   C1B63655  40.559  42.159   6.453
10014POPC   C2B63656  40.558  42.143   6.753
10014POPC   C3B63657  40.565  42.188   7.053
10014POPC   C4B63658  40.568  42.178   7.353
10015POPC   NC363659  12.045  20.630   5.553
10015POPC   PO463660  12.108  20.593   5.853
10015POPC   GL163661  12.075  20.640   6.153
10015POPC   GL263662  11.950  20.576   6.153
10015POPC   C1A63663  12.059  20.605   6.453
10015POPC   D2A63664  12.109  20.591   6.753
10015POPC   C3A63665  12.113  20.608   7.053
10015POPC   C4A63666  12.099  20.655   7.353
10015POPC   C1B63667  11.838  20.606   6.453
10015POPC   C2B63668  11.795  20.628   6.753
10015POPC   C3B63669  11.873  20.622   7.053
10015POPC   C4B63670  11.819  20.623   7.353
10016POPC   NC363671  39.959   7.409   5.553
10016POPC   PO463672  39.998   7.425   5.853
10016POPC   GL163673  39.971   7.379   6.153
10016POPC   GL263674  39.999   7.571   6.153
10016POPC   C1A63675  39.958   7.443   6.453
10016POPC   D2A63676  39.991   7.407   6.753
10016POPC   C3A63677  39.969   7.391   7.053
10016POPC   C4A63678  40.043   7.461   7.353
10016POPC   C1B63679  40.103   7.704   6.453
10016POPC   C2B63680  40.022   7.629   6.753
10016POPC   C3B63681  40.054   7.652   7.053
10016POPC   C4B63682  40.105   7.700   7.353
10017POPC   NC363683  44.625  36.118   5.553
10017POPC   PO463684  44.674  36.125   5.853
10017POPC   GL163685  44.659  36.109   6.153
10017POPC   GL263686  44.667  36.259   6.153
10017POPC   C1A63687  44.647  36.147   6.453
10017POPC   D2A63688  44.699  36.163   6.753
10017POPC   C3A63689  44.678  36.126   7.053
10017POPC   C4A63690  44.695  36.128   7.353
10017POPC   C1B63691  44.694  36.382   6.453
10017POPC   C2B63692  44.743  36.364   6.753
10017POPC   C3B63693  44.743  36.408   7.053
10017POPC   C4B63694  44.768  36.347   7.353
10018POPC   NC363695   2.011  40.002   5.553
10018POPC   PO463696   2.020  39.964   5.853
10018POPC   GL163697   1.995  39.963   6.153
10018POPC   GL263698   1.968  39.859   6.153
10018POPC   C1A63699   1.952  40.021   6.453
10018POPC   D2A63700   1.991  40.028   6.753
10018POPC   C3A63701   1.947  40.023   7.053
10018POPC   C4A63702   1.950  39.957   7.353
10018POPC   C1B63703   1.939  39.807   6.453
10018POPC   C2B63704   1.906  39.811   6.753
10018POPC   C3B63705   1.866  39.798   7.053
10018POPC   C4B63706   1.906  39.735   7.353
10019POPC   NC363707  12.087  12.901   5.553
10019POPC   PO463708  12.102  12.840   5.853
10019POPC   GL163709  12.056  12.831   6.153
10019POPC   GL263710  12.165  12.749   6.153
10019POPC   C1A63711  12.061  12.802   6.453
10019POPC   D2A63712  12.068  12.814   6.753
10019POPC   C3A63713  12.103  12.817   7.053
10019POPC   C4A63714  12.032  12.851   7.353
10019POPC   C1B63715  12.331  12.737   6.453
10019POPC   C2B63716  12.272  12.761   6.753
10019POPC   C3B63717  12.302  12.688   7.053
10019POPC   C4B63718  12.328  12.728   7.353
10020POPC   NC363719  39.206  21.399   5.553
10020POPC   PO463720  39.194  21.382   5.853
10020POPC   GL163721  39.209  21.402   6.153
10020POPC   GL263722  39.263  21.273   6.153
10020POPC   C1A63723  39.260  21.403   6.453
10020POPC   D2A63724  39.202  21.433   6.753
10020POPC   C3A63725  39.248  21.423   7.053
10020POPC   C4A63726  39.244  21.355   7.353
10020POPC   C1B63727  39.255  21.099   6.453
10020POPC   C2B63728  39.207  21.140   6.753
10020POPC   C3B63729  39.218  21.108   7.053
10020POPC   C4B63730  39.248  21.102   7.353
10021POPC   NC363731   1.998  40.786   5.553
10021POPC   PO463732   1.961  40.782   5.853
10021POPC   GL163733   2.027  40.771   6.153
10021POPC   GL263734   1.900  40.780   6.153
10021POPC   C1A63735   2.010  40.772   6.453
10021POPC   D2A63736   1.950  40.800   6.753
10021POPC   C3A63737   1.984  40.755   7.053
10021POPC   C4A63738   2.023  40.764   7.353
10021POPC   C1B63739   1.735  40.837   6.453
10021POPC   C2B63740   1.733  40.838   6.753
10021POPC   C3B63741   1.775  40.860   7.053
10021POPC   C4B63742   1.697  40.803   7.353
10022POPC   NC363743   6.633  11.322   5.553
10022POPC   PO463744   6.619  11.327   5.853
10022POPC   GL163745   6.637  11.296   6.153
10022POPC   GL263746   6.591  11.427   6.153
10022POPC   C1A63747   6.636  11.285   6.453
10022POPC   D2A63748   6.681  11.296   6.753
10022POPC   C3A63749   6.684  11.250   7.053
10022POPC   C4A63750   6.656  11.333   7.353
10022POPC   C1B63751   6.598  11.563   6.453
10022POPC   C2B63752   6.548  11.509   6.753
10022POPC   C3B63753   6.589  11.563   7.053
10022POPC   C4B63754   6.538  11.567   7.353
10023POPC   NC363755  14.384  37.634   5.553
10023POPC   PO463756  14.395  37.687   5.853
10023POPC   GL163757  14.404  37.699   6.153
10023POPC   GL263758  14.333  37.761   6.153
10023POPC   C1A63759  14.448  37.638   6.453
10023POPC   D2A63760  14.423  37.699   6.753
10023POPC   C3A63761  14.363  37.658   7.053
10023POPC   C4A63762  14.416  37.680   7.353
10023POPC   C1B63763  14.211  37.758   6.453
10023POPC   C2B63764  14.192  37.775   6.753
10023POPC   C3B63765  14.146  37.765   7.053
10023POPC   C4B63766  14.210  37.746   7.353
10024POPC   NC363767   1.946  14.406   5.553
10024POPC   PO463768   1.988  14.428   5.853
10024POPC   GL163769   1.946  14.383   6.153
10024POPC   GL263770   1.876  14.348   6.153
10024POPC   C1A63771   1.958  14.356   6.453
10024POPC   D2A63772   2.022  14.428   6.753
10024POPC   C3A63773   2.010  14.377   7.053
10024POPC   C4A63774   2.004  14.375   7.353
10024POPC   C1B63775   1.730  14.390   6.453
10024POPC   C2B63776   1.768  14.413   6.753
10024POPC   C3B63777   1.694  14.423   7.053
10024POPC   C4B63778   1.734  14.326   7.353
10025POPC   NC363779  42.383  27.624   5.553
10025POPC   PO463780  42.301  27.545   5.853
10025POPC   GL163781  42.369  27.633   6.153
10025POPC   GL263782  42.309  27.527   6.153
10025POPC   C1A63783  42.315  27.598   6.453
10025POPC   D2A63784  42.331  27.578   6.753
10025POPC   C3A63785  42.285  27.608   7.053
10025POPC   C4A63786  42.331  27.620   7.353
10025POPC   C1B63787  42.244  27.408   6.453
10025POPC   C2B63788  42.219  27.369   6.753
10025POPC   C3B63789  42.197  27.406   7.053
10025POPC   C4B63790  42.207  27.335   7.353
10026POPC   NC363791  26.011  23.676   5.553
10026POPC   PO463792  26.084  23.740   5.853
10026POPC   GL163793  26.056  23.705   6.153
10026POPC   GL263794  26.128  23.642   6.153
10026POPC   C1A63795  26.042  23.722   6.453
10026POPC   D2A63796  26.084  23.686   6.753
10026POPC   C3A63797  26.003  23.665   7.053
10026POPC   C4A63798  26.071  23.735   7.353
10026POPC   C1B63799  26.137  23.478   6.453
10026POPC   C2B63800  26.175  23.466   6.753
10026POPC   C3B63801  26.207  23.490   7.053
10026POPC   C4B63802  26.166  23.505   7.353
10027POPC   NC363803   0.422  19.099   5.553
10027POPC   PO463804   0.436  19.105   5.853
10027POPC   GL163805   0.412  19.012   6.153
10027POPC   GL263806   0.331  19.070   6.153
10027POPC   C1A63807   0.422  19.033   6.453
10027POPC   D2A63808   0.393  19.012   6.753
10027POPC   C3A63809   0.469  19.024   7.053
10027POPC   C4A63810   0.415  19.095   7.353
10027POPC   C1B63811   0.243  19.048   6.453
10027POPC   C2B63812   0.172  18.959   6.753
10027POPC   C3B63813   0.210  18.984   7.053
10027POPC   C4B63814   0.172  18.957   7.353
10028POPC   NC363815  32.987  24.508   5.553
10028POPC   PO463816  32.999  24.532   5.853
10028POPC   GL163817  33.057  24.528   6.153
10028POPC   GL263818  32.991  24.595   6.153
10028POPC   C1A63819  33.039  24.456   6.453
10028POPC   D2A63820  33.018  24.470   6.753
10028POPC   C3A63821  33.013  24.443   7.053
10028POPC   C4A63822  33.022  24.533   7.353
10028POPC   C1B63823  32.829  24.712   6.453
10028POPC   C2B63824  32.847  24.649   6.753
10028POPC   C3B63825  32.823  24.707   7.053
10028POPC   C4B63826  32.888  24.708   7.353
10029POPC   NC363827   7.435  43.093   5.553
10029POPC   PO463828   7.466  43.076   5.853
10029POPC   GL163829   7.373  43.091   6.153
10029POPC   GL263830   7.306  43.192   6.153
10029POPC   C1A63831   7.447  43.108   6.453
10029POPC   D2A63832   7.449  43.065   6.753
10029POPC   C3A63833   7.419  43.102   7.053
10029POPC   C4A63834   7.385  43.090   7.353
10029POPC   C1B63835   7.190  43.161   6.453
10029POPC   C2B63836   7.191  43.220   6.753
10029POPC   C3B63837   7.161  43.188   7.053
10029POPC   C4B63838   7.176  43.192   7.353
10030POPC   NC363839  22.899  35.343   5.553
10030POPC   PO463840  22.950  35.383   5.853
10030POPC   GL163841  22.953  35.335   6.153
10030POPC   GL263842  22.794  35.409   6.153
10030POPC   C1A63843  22.922  35.399   6.453
10030POPC   D2A63844  22.930  35.345   6.753
10030POPC   C3A63845  22.939  35.331   7.053
10030POPC   C4A63846  22.970  35.346   7.353
10030POPC   C1B63847  22.694  35.387   6.453
10030POPC   C2B63848  22.726  35.381   6.753
10030POPC   C3B63849  22.712  35.390   7.053
10030POPC   C4B63850  22.704  35.322   7.353
10031POPC   NC363851  39.185   6.693   5.553
10031POPC   PO463852  39.223   6.650   5.853
10031POPC   GL163853  39.254   6.645   6.153
10031POPC   GL263854  39.317   6.574   6.153
10031POPC   C1A63855  39.239   6.673   6.453
10031POPC   D2A63856  39.216   6.623   6.753
10031POPC   C3A63857  39.249   6.632   7.053
10031POPC   C4A63858  39.218   6.664   7.353
10031POPC   C1B63859  39.468   6.514   6.453
10031POPC   C2B63860  39.515   6.516   6.753
10031POPC   C3B63861  39.427   6.511   7.053
10031POPC   C4B63862  39.497   6.530   7.353
10032POPC   NC363863   8.221   2.749   5.553
10032POPC   PO463864   8.179   2.768   5.853
10032POPC   GL163865   8.240   2.724   6.153
10032POPC   GL263866   8.158   2.655   6.153
10032POPC   C1A63867   8.220   2.732   6.453
10032POPC   D2A63868   8.177   2.774   6.753
10032POPC   C3A63869   8.179   2.737   7.053
10032POPC   C4A63870   8.220   2.767   7.353
10032POPC   C1B63871   8.025   2.545   6.453
10032POPC   C2B63872   8.056   2.518   6.753
10032POPC   C3B63873   8.007   2.590   7.053
10032POPC   C4B63874   8.007   2.556   7.353
10033POPC   NC363875   4.295  40.798   5.553
10033POPC   PO463876   4.360  40.777   5.853
10033POPC   GL163877   4.324  40.807   6.153
10033POPC   GL263878   4.251  40.873   6.153
10033POPC   C1A63879   4.352  40.774   6.453
10033POPC   D2A63880   4.317  40.805   6.753
10033POPC   C3A63881   4.291  40.802   7.053
10033POPC   C4A63882   4.268  40.817   7.353
10033POPC   C1B63883   4.103  40.902   6.453
10033POPC   C2B63884   4.108  40.912   6.753
10033POPC   C3B63885   4.098  40.926   7.053
10033POPC   C4B63886   4.132  40.967   7.353
10034POPC   NC363887  31.439  41.526   5.553
10034POPC   PO463888  31.478  41.531   5.853
10034POPC   GL163889  31.442  41.556   6.153
10034POPC   GL263890  31.551  41.715   6.153
10034POPC   C1A63891  31.478  41.603   6.453
10034POPC   D2A63892  31.478  41.548   6.753
10034POPC   C3A63893  31.450  41.608   7.053
10034POPC   C4A63894  31.477  41.566   7.353
10034POPC   C1B63895  31.555  41.809   6.453
10034POPC   C2B63896  31.534  41.790   6.753
10034POPC   C3B63897  31.602  41.813   7.053
10034POPC   C4B63898  31.592  41.798   7.353
10035POPC   NC363899  16.728   0.452   5.553
10035POPC   PO463900  16.755   0.481   5.853
10035POPC   GL163901  16.696   0.473   6.153
10035POPC   GL263902  16.805   0.274   6.153
10035POPC   C1A63903  16.701   0.471   6.453
10035POPC   D2A63904  16.713   0.481   6.753
10035POPC   C3A63905  16.713   0.454   7.053
10035POPC   C4A63906  16.715   0.395   7.353
10035POPC   C1B63907  16.845   0.181   6.453
10035POPC   C2B63908  16.836   0.214   6.753
10035POPC   C3B63909  16.784   0.158   7.053
10035POPC   C4B63910  16.811   0.174   7.353
10036POPC   NC363911  39.190  22.954   5.553
10036POPC   PO463912  39.266  22.916   5.853
10036POPC   GL163913  39.207  22.980   6.153
10036POPC   GL263914  39.358  22.851   6.153
10036POPC   C1A63915  39.257  22.981   6.453
10036POPC   D2A63916  39.198  22.988   6.753
10036POPC   C3A63917  39.188  22.951   7.053
10036POPC   C4A63918  39.198  22.915   7.353
10036POPC   C1B63919  39.383  22.717   6.453
10036POPC   C2B63920  39.363  22.765   6.753
10036POPC   C3B63921  39.344  22.774   7.053
10036POPC   C4B63922  39.392  22.773   7.353
10037POPC   NC363923  43.097   7.389   5.553
10037POPC   PO463924  43.108   7.389   5.853
10037POPC   GL163925  43.112   7.403   6.153
10037POPC   GL263926  43.157   7.494   6.153
10037POPC   C1A63927  43.062   7.456   6.453
10037POPC   D2A63928  43.107   7.387   6.753
10037POPC   C3A63929  43.092   7.374   7.053
10037POPC   C4A63930  43.081   7.458   7.353
10037POPC   C1B63931  43.135   7.707   6.453
10037POPC   C2B63932  43.184   7.625   6.753
10037POPC   C3B63933  43.212   7.713   7.053
10037POPC   C4B63934  43.138   7.636   7.353
10038POPC   NC363935  32.995  28.382   5.553
10038POPC   PO463936  32.977  28.359   5.853
10038POPC   GL163937  33.024  28.354   6.153
10038POPC   GL263938  32.956  28.238   6.153
10038POPC   C1A63939  33.005  28.369   6.453
10038POPC   D2A63940  33.070  28.399   6.753
10038POPC   C3A63941  33.059  28.396   7.053
10038POPC   C4A63942  32.996  28.342   7.353
10038POPC   C1B63943  32.801  28.150   6.453
10038POPC   C2B63944  32.869  28.152   6.753
10038POPC   C3B63945  32.839  28.147   7.053
10038POPC   C4B63946  32.842  28.152   7.353
10039POPC   NC363947  41.541   5.115   5.553
10039POPC   PO463948  41.595   5.092   5.853
10039POPC   GL163949  41.563   5.104   6.153
10039POPC   GL263950  41.710   5.164   6.153
10039POPC   C1A63951  41.530   5.130   6.453
10039POPC   D2A63952  41.534   5.056   6.753
10039POPC   C3A63953  41.577   5.096   7.053
10039POPC   C4A63954  41.546   5.047   7.353
10039POPC   C1B63955  41.791   5.151   6.453
10039POPC   C2B63956  41.826   5.158   6.753
10039POPC   C3B63957  41.738   5.169   7.053
10039POPC   C4B63958  41.832   5.168   7.353
10040POPC   NC363959  10.551  19.014   5.553
10040POPC   PO463960  10.481  19.011   5.853
10040POPC   GL163961  10.539  19.060   6.153
10040POPC   GL263962  10.616  18.986   6.153
10040POPC   C1A63963  10.525  19.012   6.453
10040POPC   D2A63964  10.505  19.016   6.753
10040POPC   C3A63965  10.570  19.042   7.053
10040POPC   C4A63966  10.546  19.104   7.353
10040POPC   C1B63967  10.723  18.942   6.453
10040POPC   C2B63968  10.795  18.931   6.753
10040POPC   C3B63969  10.714  18.907   7.053
10040POPC   C4B63970  10.737  18.904   7.353
10041POPC   NC363971   4.333  43.111   5.553
10041POPC   PO463972   4.347  43.078   5.853
10041POPC   GL163973   4.302  43.085   6.153
10041POPC   GL263974   4.324  42.983   6.153
10041POPC   C1A63975   4.311  43.094   6.453
10041POPC   D2A63976   4.278  43.148   6.753
10041POPC   C3A63977   4.308  43.115   7.053
10041POPC   C4A63978   4.353  43.088   7.353
10041POPC   C1B63979   4.385  42.881   6.453
10041POPC   C2B63980   4.326  42.869   6.753
10041POPC   C3B63981   4.344  42.837   7.053
10041POPC   C4B63982   4.342  42.853   7.353
10042POPC   NC363983  14.354   0.485   5.553
10042POPC   PO463984  14.443   0.421   5.853
10042POPC   GL163985  14.416   0.423   6.153
10042POPC   GL263986  14.557   0.478   6.153
10042POPC   C1A63987  14.364   0.464   6.453
10042POPC   D2A63988  14.410   0.415   6.753
10042POPC   C3A63989  14.451   0.405   7.053
10042POPC   C4A63990  14.447   0.414   7.353
10042POPC   C1B63991  14.622   0.460   6.453
10042POPC   C2B63992  14.684   0.482   6.753
10042POPC   C3B63993  14.611   0.425   7.053
10042POPC   C4B63994  14.656   0.418   7.353
10043POPC   NC363995  42.380  37.689   5.553
10043POPC   PO463996  42.348  37.670   5.853
10043POPC   GL163997  42.352  37.676   6.153
10043POPC   GL263998  42.200  37.691   6.153
10043POPC   C1A63999  42.353  37.715   6.453
10043POPC   D2A64000  42.379  37.705   6.753
10043POPC   C3A64001  42.361  37.696   7.053
10043POPC   C4A64002  42.344  37.666   7.353
10043POPC   C1B64003  42.061  37.621   6.453
10043POPC   C2B64004  42.040  37.626   6.753
10043POPC   C3B64005  42.037  37.635   7.053
10043POPC   C4B64006  42.080  37.690   7.353
10044POPC   NC364007  41.581   3.545   5.553
10044POPC   PO464008  41.546   3.558   5.853
10044POPC   GL164009  41.587   3.493   6.153
10044POPC   GL264010  41.706   3.537   6.153
10044POPC   C1A64011  41.512   3.540   6.453
10044POPC   D2A64012  41.604   3.520   6.753
10044POPC   C3A64013  41.583   3.511   7.053
10044POPC   C4A64014  41.572   3.515   7.353
10044POPC   C1B64015  41.820   3.424   6.453
10044POPC   C2B64016  41.816   3.408   6.753
10044POPC   C3B64017  41.790   3.386   7.053
10044POPC   C4B64018  41.755   3.481   7.353
10045POPC   NC364019   3.524  32.256   5.553
10045POPC   PO464020   3.560  32.225   5.853
10045POPC   GL164021   3.506  32.213   6.153
10045POPC   GL264022   3.422  32.198   6.153
10045POPC   C1A64023   3.555  32.284   6.453
10045POPC   D2A64024   3.561  32.242   6.753
10045POPC   C3A64025   3.557  32.233   7.053
10045POPC   C4A64026   3.551  32.200   7.353
10045POPC   C1B64027   3.358  32.053   6.453
10045POPC   C2B64028   3.391  32.100   6.753
10045POPC   C3B64029   3.395  32.115   7.053
10045POPC   C4B64030   3.302  32.053   7.353
10046POPC   NC364031  34.558  26.060   5.553
10046POPC   PO464032  34.622  25.993   5.853
10046POPC   GL164033  34.565  26.001   6.153
10046POPC   GL264034  34.474  26.051   6.153
10046POPC   C1A64035  34.605  26.012   6.453
10046POPC   D2A64036  34.538  26.087   6.753
10046POPC   C3A64037  34.589  26.059   7.053
10046POPC   C4A64038  34.613  26.025   7.353
10046POPC   C1B64039  34.338  26.045   6.453
10046POPC   C2B64040  34.327  26.063   6.753
10046POPC   C3B64041  34.350  26.056   7.053
10046POPC   C4B64042  34.316  26.092   7.353
10047POPC   NC364043  33.818  35.342   5.553
10047POPC   PO464044  33.818  35.393   5.853
10047POPC   GL164045  33.835  35.323   6.153
10047POPC   GL264046  33.899  35.418   6.153
10047POPC   C1A64047  33.805  35.384   6.453
10047POPC   D2A64048  33.848  35.354   6.753
10047POPC   C3A64049  33.806  35.344   7.053
10047POPC   C4A64050  33.753  35.357   7.353
10047POPC   C1B64051  34.031  35.480   6.453
10047POPC   C2B64052  34.071  35.487   6.753
10047POPC   C3B64053  34.068  35.420   7.053
10047POPC   C4B64054  34.064  35.492   7.353
10048POPC   NC364055   8.933  31.433   5.553
10048POPC   PO464056   9.015  31.476   5.853
10048POPC   GL164057   8.923  31.479   6.153
10048POPC   GL264058   8.880  31.456   6.153
10048POPC   C1A64059   9.007  31.456   6.453
10048POPC   D2A64060   8.931  31.427   6.753
10048POPC   C3A64061   8.981  31.432   7.053
10048POPC   C4A64062   9.015  31.446   7.353
10048POPC   C1B64063   8.702  31.462   6.453
10048POPC   C2B64064   8.742  31.497   6.753
10048POPC   C3B64065   8.751  31.489   7.053
10048POPC   C4B64066   8.707  31.418   7.353
10049POPC   NC364067  44.691  25.271   5.553
10049POPC   PO464068  44.690  25.225   5.853
10049POPC   GL164069  44.679  25.282   6.153
10049POPC   GL264070  44.645  25.421   6.153
10049POPC   C1A64071  44.629  25.292   6.453
10049POPC   D2A64072  44.668  25.233   6.753
10049POPC   C3A64073  44.637  25.281   7.053
10049POPC   C4A64074  44.645  25.315   7.353
10049POPC   C1B64075  44.586  25.493   6.453
10049POPC   C2B64076  44.559  25.533   6.753
10049POPC   C3B64077  44.533  25.537   7.053
10049POPC   C4B64078  44.613  25.473   7.353
10050POPC   NC364079  40.801  40.830   5.553
10050POPC   PO464080  40.758  40.802   5.853
10050POPC   GL164081  40.812  40.810   6.153
10050POPC   GL264082  40.706  40.777   6.153
10050POPC   C1A64083  40.829  40.774   6.453
10050POPC   D2A64084  40.805  40.784   6.753
10050POPC   C3A64085  40.745  40.832   7.053
10050POPC   C4A64086  40.755  40.771   7.353
10050POPC   C1B64087  40.534  40.685   6.453
10050POPC   C2B64088  40.558  40.718   6.753
10050POPC   C3B64089  40.587  40.730   7.053
10050POPC   C4B64090  40.512  40.669   7.353
10051POPC   NC364091  43.123  38.410   5.553
10051POPC   PO464092  43.128  38.465   5.853
10051POPC   GL164093  43.120  38.475   6.153
10051POPC   GL264094  43.123  38.597   6.153
10051POPC   C1A64095  43.144  38.454   6.453
10051POPC   D2A64096  43.100  38.451   6.753
10051POPC   C3A64097  43.155  38.464   7.053
10051POPC   C4A64098  43.119  38.499   7.353
10051POPC   C1B64099  43.139  38.679   6.453
10051POPC   C2B64100  43.099  38.678   6.753
10051POPC   C3B64101  43.113  38.667   7.053
10051POPC   C4B64102  43.156  38.679   7.353
10052POPC   NC364103  32.257  41.586   5.553
10052POPC   PO464104  32.242  41.607   5.853
10052POPC   GL164105  32.250  41.591   6.153
10052POPC   GL264106  32.121  41.677   6.153
10052POPC   C1A64107  32.220  41.513   6.453
10052POPC   D2A64108  32.219  41.529   6.753
10052POPC   C3A64109  32.286  41.587   7.053
10052POPC   C4A64110  32.227  41.593   7.353
10052POPC   C1B64111  32.083  41.689   6.453
10052POPC   C2B64112  32.046  41.689   6.753
10052POPC   C3B64113  32.041  41.764   7.053
10052POPC   C4B64114  32.105  41.676   7.353
10053POPC   NC364115  17.480  32.209   5.553
10053POPC   PO464116  17.480  32.255   5.853
10053POPC   GL164117  17.518  32.233   6.153
10053POPC   GL264118  17.365  32.318   6.153
10053POPC   C1A64119  17.521  32.289   6.453
10053POPC   D2A64120  17.485  32.230   6.753
10053POPC   C3A64121  17.546  32.200   7.053
10053POPC   C4A64122  17.556  32.276   7.353
10053POPC   C1B64123  17.335  32.415   6.453
10053POPC   C2B64124  17.266  32.385   6.753
10053POPC   C3B64125  17.263  32.379   7.053
10053POPC   C4B64126  17.273  32.436   7.353
10054POPC   NC364127  19.791  28.384   5.553
10054POPC   PO464128  19.792  28.414   5.853
10054POPC   GL164129  19.820  28.415   6.153
10054POPC   GL264130  19.940  28.476   6.153
10054POPC   C1A64131  19.837  28.385   6.453
10054POPC   D2A64132  19.796  28.321   6.753
10054POPC   C3A64133  19.796  28.325   7.053
10054POPC   C4A64134  19.816  28.346   7.353
10054POPC   C1B64135  20.034  28.571   6.453
10054POPC   C2B64136  20.007  28.561   6.753
10054POPC   C3B64137  19.952  28.605   7.053
10054POPC   C4B64138  19.980  28.573   7.353
10055POPC   NC364139  24.500  43.837   5.553
10055POPC   PO464140  24.450  43.850   5.853
10055POPC   GL164141  24.440  43.919   6.153
10055POPC   GL264142  24.416  43.769   6.153
10055POPC   C1A64143  24.513  43.907   6.453
10055POPC   D2A64144  24.501  43.876   6.753
10055POPC   C3A64145  24.500  43.852   7.053
10055POPC   C4A64146  24.473  43.931   7.353
10055POPC   C1B64147  24.327  43.777   6.453
10055POPC   C2B64148  24.291  43.741   6.753
10055POPC   C3B64149  24.255  43.705   7.053
10055POPC   C4B64150  24.249  43.725   7.353
10056POPC   NC364151  41.511  19.881   5.553
10056POPC   PO464152  41.580  19.785   5.853
10056POPC   GL164153  41.541  19.816   6.153
10056POPC   GL264154  41.456  19.785   6.153
10056POPC   C1A64155  41.572  19.855   6.453
10056POPC   D2A64156  41.513  19.808   6.753
10056POPC   C3A64157  41.556  19.849   7.053
10056POPC   C4A64158  41.597  19.812   7.353
10056POPC   C1B64159  41.334  19.771   6.453
10056POPC   C2B64160  41.281  19.738   6.753
10056POPC   C3B64161  41.314  19.753   7.053
10056POPC   C4B64162  41.309  19.732   7.353
10057POPC   NC364163  26.866  40.775   5.553
10057POPC   PO464164  26.861  40.745   5.853
10057POPC   GL164165  26.847  40.735   6.153
10057POPC   GL264166  26.864  40.893   6.153
10057POPC   C1A64167  26.851  40.798   6.453
10057POPC   D2A64168  26.853  40.763   6.753
10057POPC   C3A64169  26.855  40.794   7.053
10057POPC   C4A64170  26.804  40.773   7.353
10057POPC   C1B64171  26.945  40.977   6.453
10057POPC   C2B64172  26.909  41.004   6.753
10057POPC   C3B64173  26.902  41.007   7.053
10057POPC   C4B64174  26.897  41.051   7.353
10058POPC   NC364175  34.550   0.397   5.553
10058POPC   PO464176  34.614   0.460   5.853
10058POPC   GL164177  34.564   0.450   6.153
10058POPC   GL264178  34.714   0.375   6.153
10058POPC   C1A64179  34.606   0.483   6.453
10058POPC   D2A64180  34.552   0.461   6.753
10058POPC   C3A64181  34.598   0.469   7.053
10058POPC   C4A64182  34.543   0.477   7.353
10058POPC   C1B64183  34.816   0.336   6.453
10058POPC   C2B64184  34.771   0.315   6.753
10058POPC   C3B64185  34.802   0.307   7.053
10058POPC   C4B64186  34.805   0.341   7.353
10059POPC   NC364187   0.409   5.088   5.553
10059POPC   PO464188   0.440   5.109   5.853
10059POPC   GL164189   0.416   5.072   6.153
10059POPC   GL264190   0.401   4.980   6.153
10059POPC   C1A64191   0.463   5.087   6.453
10059POPC   D2A64192   0.401   5.064   6.753
10059POPC   C3A64193   0.462   5.065   7.053
10059POPC   C4A64194   0.405   5.063   7.353
10059POPC   C1B64195   0.299   4.843   6.453
10059POPC   C2B64196   0.333   4.857   6.753
10059POPC   C3B64197   0.265   4.891   7.053
10059POPC   C4B64198   0.271   4.858   7.353
10060POPC   NC364199  12.035  33.009   5.553
10060POPC   PO464200  12.080  33.051   5.853
10060POPC   GL164201  12.050  33.008   6.153
10060POPC   GL264202  12.199  33.072   6.153
10060POPC   C1A64203  12.051  32.993   6.453
10060POPC   D2A64204  12.028  33.071   6.753
10060POPC   C3A64205  12.069  33.018   7.053
10060POPC   C4A64206  12.104  32.988   7.353
10060POPC   C1B64207  12.302  33.063   6.453
10060POPC   C2B64208  12.289  33.041   6.753
10060POPC   C3B64209  12.313  33.074   7.053
10060POPC   C4B64210  12.336  33.055   7.353
10061POPC   NC364211   6.656  35.373   5.553
10061POPC   PO464212   6.633  35.393   5.853
10061POPC   GL164213   6.692  35.314   6.153
10061POPC   GL264214   6.680  35.508   6.153
10061POPC   C1A64215   6.599  35.316   6.453
10061POPC   D2A64216   6.620  35.374   6.753
10061POPC   C3A64217   6.596  35.360   7.053
10061POPC   C4A64218   6.662  35.312   7.353
10061POPC   C1B64219   6.746  35.567   6.453
10061POPC   C2B64220   6.761  35.598   6.753
10061POPC   C3B64221   6.716  35.624   7.053
10061POPC   C4B64222   6.697  35.541   7.353
10062POPC   NC364223  13.615  27.566   5.553
10062POPC   PO464224  13.636  27.638   5.853
10062POPC   GL164225  13.619  27.593   6.153
10062POPC   GL264226  13.696  27.688   6.153
10062POPC   C1A64227  13.590  27.569   6.453
10062POPC   D2A64228  13.620  27.546   6.753
10062POPC   C3A64229  13.665  27.639   7.053
10062POPC   C4A64230  13.635  27.613   7.353
10062POPC   C1B64231  13.779  27.788   6.453
10062POPC   C2B64232  13.813  27.731   6.753
10062POPC   C3B64233  13.845  27.779   7.053
10062POPC   C4B64234  13.815  27.746   7.353
10063POPC   NC364235  17.487   0.420   5.553
10063POPC   PO464236  17.549   0.433   5.853
10063POPC   GL164237  17.485   0.461   6.153
10063POPC   GL264238  17.504   0.306   6.153
10063POPC   C1A64239  17.478   0.426   6.453
10063POPC   D2A64240  17.532   0.433   6.753
10063POPC   C3A64241  17.481   0.405   7.053
10063POPC   C4A64242  17.526   0.459   7.353
10063POPC   C1B64243  17.421   0.155   6.453
10063POPC   C2B64244  17.398   0.207   6.753
10063POPC   C3B64245  17.405   0.209   7.053
10063POPC   C4B64246  17.406   0.209   7.353
10064POPC   NC364247  13.592  16.684   5.553
10064POPC   PO464248  13.619  16.730   5.853
10064POPC   GL164249  13.602  16.699   6.153
10064POPC   GL264250  13.750  16.681   6.153
10064POPC   C1A64251  13.637  16.759   6.453
10064POPC   D2A64252  13.677  16.692   6.753
10064POPC   C3A64253  13.644  16.726   7.053
10064POPC   C4A64254  13.582  16.776   7.353
10064POPC   C1B64255  13.833  16.551   6.453
10064POPC   C2B64256  13.817  16.596   6.753
10064POPC   C3B64257  13.841  16.547   7.053
10064POPC   C4B64258  13.810  16.583   7.353
10065POPC   NC364259  43.903  29.878   5.553
10065POPC   PO464260  43.871  29.957   5.853
10065POPC   GL164261  43.907  29.955   6.153
10065POPC   GL264262  43.781  29.825   6.153
10065POPC   C1A64263  43.853  29.963   6.453
10065POPC   D2A64264  43.906  29.914   6.753
10065POPC   C3A64265  43.909  29.932   7.053
10065POPC   C4A64266  43.854  29.920   7.353
10065POPC   C1B64267  43.704  29.820   6.453
10065POPC   C2B64268  43.628  29.754   6.753
10065POPC   C3B64269  43.639  29.766   7.053
10065POPC   C4B64270  43.654  29.774   7.353
10066POPC   NC364271  18.279   7.417   5.553
10066POPC   PO464272  18.287   7.373   5.853
10066POPC   GL164273  18.247   7.401   6.153
10066POPC   GL264274  18.310   7.306   6.153
10066POPC   C1A64275  18.256   7.451   6.453
10066POPC   D2A64276  18.300   7.388   6.753
10066POPC   C3A64277  18.280   7.455   7.053
10066POPC   C4A64278  18.319   7.468   7.353
10066POPC   C1B64279  18.389   7.182   6.453
10066POPC   C2B64280  18.374   7.143   6.753
10066POPC   C3B64281  18.366   7.167   7.053
10066POPC   C4B64282  18.320   7.181   7.353
10067POPC   NC364283   0.455  38.483   5.553
10067POPC   PO464284   0.464  38.488   5.853
10067POPC   GL164285   0.389  38.482   6.153
10067POPC   GL264286   0.573  38.388   6.153
10067POPC   C1A64287   0.480  38.486   6.453
10067POPC   D2A64288   0.425  38.445   6.753
10067POPC   C3A64289   0.426  38.475   7.053
10067POPC   C4A64290   0.438  38.423   7.353
10067POPC   C1B64291   0.722  38.391   6.453
10067POPC   C2B64292   0.679  38.384   6.753
10067POPC   C3B64293   0.695  38.381   7.053
10067POPC   C4B64294   0.700  38.385   7.353
10068POPC   NC364295  28.359  30.654   5.553
10068POPC   PO464296  28.352  30.684   5.853
10068POPC   GL164297  28.398  30.743   6.153
10068POPC   GL264298  28.301  30.575   6.153
10068POPC   C1A64299  28.383  30.655   6.453
10068POPC   D2A64300  28.416  30.701   6.753
10068POPC   C3A64301  28.400  30.689   7.053
10068POPC   C4A64302  28.381  30.657   7.353
10068POPC   C1B64303  28.157  30.503   6.453
10068POPC   C2B64304  28.151  30.533   6.753
10068POPC   C3B64305  28.173  30.564   7.053
10068POPC   C4B64306  28.186  30.500   7.353
10069POPC   NC364307   8.192  35.334   5.553
10069POPC   PO464308   8.222  35.312   5.853
10069POPC   GL164309   8.237  35.397   6.153
10069POPC   GL264310   8.062  35.416   6.153
10069POPC   C1A64311   8.224  35.319   6.453
10069POPC   D2A64312   8.147  35.366   6.753
10069POPC   C3A64313   8.172  35.353   7.053
10069POPC   C4A64314   8.206  35.385   7.353
10069POPC   C1B64315   8.013  35.440   6.453
10069POPC   C2B64316   7.967  35.482   6.753
10069POPC   C3B64317   7.978  35.508   7.053
10069POPC   C4B64318   7.930  35.460   7.353
10070POPC   NC364319   5.051   7.440   5.553
10070POPC   PO464320   5.095   7.403   5.853
10070POPC   GL164321   5.060   7.420   6.153
10070POPC   GL264322   5.120   7.298   6.153
10070POPC   C1A64323   5.120   7.443   6.453
10070POPC   D2A64324   5.056   7.441   6.753
10070POPC   C3A64325   5.066   7.447   7.053
10070POPC   C4A64326   5.105   7.422   7.353
10070POPC   C1B64327   5.140   7.133   6.453
10070POPC   C2B64328   5.100   7.141   6.753
10070POPC   C3B64329   5.148   7.217   7.053
10070POPC   C4B64330   5.134   7.186   7.353
10071POPC   NC364331   5.065  22.952   5.553
10071POPC   PO464332   5.137  22.907   5.853
10071POPC   GL164333   5.123  22.927   6.153
10071POPC   GL264334   5.090  23.014   6.153
10071POPC   C1A64335   5.063  22.945   6.453
10071POPC   D2A64336   5.134  22.977   6.753
10071POPC   C3A64337   5.063  22.954   7.053
10071POPC   C4A64338   5.141  22.969   7.353
10071POPC   C1B64339   5.080  23.221   6.453
10071POPC   C2B64340   5.101  23.168   6.753
10071POPC   C3B64341   5.107  23.222   7.053
10071POPC   C4B64342   5.062  23.139   7.353
10072POPC   NC364343  15.915  17.512   5.553
10072POPC   PO464344  15.913  17.553   5.853
10072POPC   GL164345  15.945  17.520   6.153
10072POPC   GL264346  15.825  17.559   6.153
10072POPC   C1A64347  15.944  17.496   6.453
10072POPC   D2A64348  15.983  17.477   6.753
10072POPC   C3A64349  15.946  17.501   7.053
10072POPC   C4A64350  15.912  17.482   7.353
10072POPC   C1B64351  15.728  17.621   6.453
10072POPC   C2B64352  15.728  17.601   6.753
10072POPC   C3B64353  15.702  17.622   7.053
10072POPC   C4B64354  15.730  17.591   7.353
10073POPC   NC364355  33.761  41.555   5.553
10073POPC   PO464356  33.787  41.569   5.853
10073POPC   GL164357  33.752  41.560   6.153
10073POPC   GL264358  33.696  41.691   6.153
10073POPC   C1A64359  33.767  41.562   6.453
10073POPC   D2A64360  33.759  41.515   6.753
10073POPC   C3A64361  33.773  41.602   7.053
10073POPC   C4A64362  33.781  41.592   7.353
10073POPC   C1B64363  33.628  41.740   6.453
10073POPC   C2B64364  33.622  41.694   6.753
10073POPC   C3B64365  33.619  41.745   7.053
10073POPC   C4B64366  33.636  41.756   7.353
10074POPC   NC364367  26.021  22.955   5.553
10074POPC   PO464368  26.090  22.951   5.853
10074POPC   GL164369  26.029  22.895   6.153
10074POPC   GL264370  26.001  23.017   6.153
10074POPC   C1A64371  26.073  22.938   6.453
10074POPC   D2A64372  26.090  22.910   6.753
10074POPC   C3A64373  26.002  22.967   7.053
10074POPC   C4A64374  26.064  22.931   7.353
10074POPC   C1B64375  26.044  23.217   6.453
10074POPC   C2B64376  26.108  23.173   6.753
10074POPC   C3B64377  26.074  23.223   7.053
10074POPC   C4B64378  26.088  23.227   7.353
10075POPC   NC364379  40.780  15.967   5.553
10075POPC   PO464380  40.734  15.988   5.853
10075POPC   GL164381  40.779  15.939   6.153
10075POPC   GL264382  40.894  15.903   6.153
10075POPC   C1A64383  40.804  15.990   6.453
10075POPC   D2A64384  40.809  15.991   6.753
10075POPC   C3A64385  40.810  15.968   7.053
10075POPC   C4A64386  40.829  15.975   7.353
10075POPC   C1B64387  40.923  15.729   6.453
10075POPC   C2B64388  40.987  15.724   6.753
10075POPC   C3B64389  40.960  15.784   7.053
10075POPC   C4B64390  40.982  15.764   7.353
10076POPC   NC364391   3.561   4.327   5.553
10076POPC   PO464392   3.558   4.285   5.853
10076POPC   GL164393   3.548   4.293   6.153
10076POPC   GL264394   3.594   4.428   6.153
10076POPC   C1A64395   3.502   4.316   6.453
10076POPC   D2A64396   3.559   4.328   6.753
10076POPC   C3A64397   3.520   4.301   7.053
10076POPC   C4A64398   3.533   4.345   7.353
10076POPC   C1B64399   3.683   4.538   6.453
10076POPC   C2B64400   3.608   4.530   6.753
10076POPC   C3B64401   3.634   4.516   7.053
10076POPC   C4B64402   3.637   4.535   7.353
10077POPC   NC364403   8.939  26.023   5.553
10077POPC   PO464404   8.945  26.070   5.853
10077POPC   GL164405   8.982  26.006   6.153
10077POPC   GL264406   9.098  26.055   6.153
10077POPC   C1A64407   8.985  25.995   6.453
10077POPC   D2A64408   8.977  26.021   6.753
10077POPC   C3A64409   8.999  26.021   7.053
10077POPC   C4A64410   8.972  26.054   7.353
10077POPC   C1B64411   9.253  26.074   6.453
10077POPC   C2B64412   9.265  26.108   6.753
10077POPC   C3B64413   9.217  26.106   7.053
10077POPC   C4B64414   9.200  26.078   7.353
10078POPC   NC364415  38.505   6.638   5.553
10078POPC   PO464416  38.458   6.693   5.853
10078POPC   GL164417  38.497   6.617   6.153
10078POPC   GL264418  38.367   6.493   6.153
10078POPC   C1A64419  38.497   6.613   6.453
10078POPC   D2A64420  38.450   6.691   6.753
10078POPC   C3A64421  38.492   6.623   7.053
10078POPC   C4A64422  38.448   6.635   7.353
10078POPC   C1B64423  38.311   6.394   6.453
10078POPC   C2B64424  38.343   6.394   6.753
10078POPC   C3B64425  38.293   6.425   7.053
10078POPC   C4B64426  38.365   6.463   7.353
10079POPC   NC364427  34.557   5.894   5.553
10079POPC   PO464428  34.543   5.887   5.853
10079POPC   GL164429  34.544   5.834   6.153
10079POPC   GL264430  34.571   5.706   6.153
10079POPC   C1A64431  34.621   5.879   6.453
10079POPC   D2A64432  34.555   5.910   6.753
10079POPC   C3A64433  34.603   5.903   7.053
10079POPC   C4A64434  34.546   5.878   7.353
10079POPC   C1B64435  34.448   5.679   6.453
10079POPC   C2B64436  34.491   5.662   6.753
10079POPC   C3B64437  34.460   5.614   7.053
10079POPC   C4B64438  34.452   5.644   7.353
10080POPC   NC364439  13.625  43.158   5.553
10080POPC   PO464440  13.632  43.160   5.853
10080POPC   GL164441  13.661  43.126   6.153
10080POPC   GL264442  13.730  43.198   6.153
10080POPC   C1A64443  13.592  43.146   6.453
10080POPC   D2A64444  13.584  43.113   6.753
10080POPC   C3A64445  13.651  43.121   7.053
10080POPC   C4A64446  13.658  43.126   7.353
10080POPC   C1B64447  13.854  43.264   6.453
10080POPC   C2B64448  13.797  43.238   6.753
10080POPC   C3B64449  13.781  43.297   7.053
10080POPC   C4B64450  13.771  43.260   7.353
10081POPC   NC364451  26.036   6.662   5.553
10081POPC   PO464452  26.072   6.694   5.853
10081POPC   GL164453  26.071   6.655   6.153
10081POPC   GL264454  25.946   6.721   6.153
10081POPC   C1A64455  26.064   6.661   6.453
10081POPC   D2A64456  26.044   6.609   6.753
10081POPC   C3A64457  26.088   6.676   7.053
10081POPC   C4A64458  26.056   6.609   7.353
10081POPC   C1B64459  25.803   6.737   6.453
10081POPC   C2B64460  25.802   6.773   6.753
10081POPC   C3B64461  25.814   6.805   7.053
10081POPC   C4B64462  25.874   6.749   7.353
10082POPC   NC364463   4.269  34.549   5.553
10082POPC   PO464464   4.331  34.537   5.853
10082POPC   GL164465   4.361  34.605   6.153
10082POPC   GL264466   4.214  34.491   6.153
10082POPC   C1A64467   4.297  34.585   6.453
10082POPC   D2A64468   4.289  34.592   6.753
10082POPC   C3A64469   4.327  34.540   7.053
10082POPC   C4A64470   4.348  34.550   7.353
10082POPC   C1B64471   4.090  34.460   6.453
10082POPC   C2B64472   4.137  34.510   6.753
10082POPC   C3B64473   4.110  34.422   7.053
10082POPC   C4B64474   4.109  34.438   7.353
10083POPC   NC364475  41.514  26.061   5.553
10083POPC   PO464476  41.574  26.048   5.853
10083POPC   GL164477  41.580  26.066   6.153
10083POPC   GL264478  41.590  26.123   6.153
10083POPC   C1A64479  41.555  26.087   6.453
10083POPC   D2A64480  41.586  26.044   6.753
10083POPC   C3A64481  41.534  26.074   7.053
10083POPC   C4A64482  41.525  25.998   7.353
10083POPC   C1B64483  41.526  26.337   6.453
10083POPC   C2B64484  41.542  26.295   6.753
10083POPC   C3B64485  41.514  26.333   7.053
10083POPC   C4B64486  41.526  26.327   7.353
10084POPC   NC364487  29.962  30.676   5.553
10084POPC   PO464488  29.900  30.671   5.853
10084POPC   GL164489  29.872  30.717   6.153
10084POPC   GL264490  29.822  30.779   6.153
10084POPC   C1A64491  29.968  30.725   6.453
10084POPC   D2A64492  29.933  30.716   6.753
10084POPC   C3A64493  29.905  30.694   7.053
10084POPC   C4A64494  29.965  30.697   7.353
10084POPC   C1B64495  29.706  30.757   6.453
10084POPC   C2B64496  29.682  30.796   6.753
10084POPC   C3B64497  29.644  30.800   7.053
10084POPC   C4B64498  29.635  30.786   7.353
10085POPC   NC364499  26.009  25.303   5.553
10085POPC   PO464500  26.053  25.312   5.853
10085POPC   GL164501  26.075  25.220   6.153
10085POPC   GL264502  26.029  25.386   6.153
10085POPC   C1A64503  26.077  25.274   6.453
10085POPC   D2A64504  26.077  25.270   6.753
10085POPC   C3A64505  26.038  25.268   7.053
10085POPC   C4A64506  26.091  25.250   7.353
10085POPC   C1B64507  25.894  25.475   6.453
10085POPC   C2B64508  25.967  25.513   6.753
10085POPC   C3B64509  25.881  25.481   7.053
10085POPC   C4B64510  25.876  25.473   7.353
10086POPC   NC364511  30.724   5.906   5.553
10086POPC   PO464512  30.690   5.858   5.853
10086POPC   GL164513  30.678   5.890   6.153
10086POPC   GL264514  30.637   5.786   6.153
10086POPC   C1A64515  30.744   5.820   6.453
10086POPC   D2A64516  30.716   5.820   6.753
10086POPC   C3A64517  30.663   5.859   7.053
10086POPC   C4A64518  30.719   5.900   7.353
10086POPC   C1B64519  30.684   5.585   6.453
10086POPC   C2B64520  30.661   5.573   6.753
10086POPC   C3B64521  30.657   5.620   7.053
10086POPC   C4B64522  30.661   5.627   7.353
10087POPC   NC364523  26.775  35.346   5.553
10087POPC   PO464524  26.777  35.319   5.853
10087POPC   GL164525  26.799  35.329   6.153
10087POPC   GL264526  26.657  35.253   6.153
10087POPC   C1A64527  26.853  35.354   6.453
10087POPC   D2A64528  26.853  35.376   6.753
10087POPC   C3A64529  26.819  35.397   7.053
10087POPC   C4A64530  26.829  35.390   7.353
10087POPC   C1B64531  26.635  35.225   6.453
10087POPC   C2B64532  26.609  35.236   6.753
10087POPC   C3B64533  26.547  35.217   7.053
10087POPC   C4B64534  26.624  35.217   7.353
10088POPC   NC364535  41.591  24.491   5.553
10088POPC   PO464536  41.533  24.443   5.853
10088POPC   GL164537  41.595  24.500   6.153
10088POPC   GL264538  41.608  24.645   6.153
10088POPC   C1A64539  41.509  24.537   6.453
10088POPC   D2A64540  41.559  24.489   6.753
10088POPC   C3A64541  41.583  24.518   7.053
10088POPC   C4A64542  41.537  24.480   7.353
10088POPC   C1B64543  41.639  24.698   6.453
10088POPC   C2B64544  41.624  24.745   6.753
10088POPC   C3B64545  41.588  24.687   7.053
10088POPC   C4B64546  41.620  24.724   7.353
10089POPC   NC364547  33.813  34.608   5.553
10089POPC   PO464548  33.837  34.543   5.853
10089POPC   GL164549  33.817  34.553   6.153
10089POPC   GL264550  33.685  34.606   6.153
10089POPC   C1A64551  33.779  34.613   6.453
10089POPC   D2A64552  33.825  34.614   6.753
10089POPC   C3A64553  33.816  34.582   7.053
10089POPC   C4A64554  33.761  34.600   7.353
10089POPC   C1B64555  33.581  34.542   6.453
10089POPC   C2B64556  33.546  34.597   6.753
10089POPC   C3B64557  33.543  34.601   7.053
10089POPC   C4B64558  33.538  34.559   7.353
10090POPC   NC364559  38.436  35.336   5.553
10090POPC   PO464560  38.503  35.339   5.853
10090POPC   GL164561  38.458  35.347   6.153
10090POPC   GL264562  38.366  35.376   6.153
10090POPC   C1A64563  38.457  35.354   6.453
10090POPC   D2A64564  38.471  35.345   6.753
10090POPC   C3A64565  38.444  35.363   7.053
10090POPC   C4A64566  38.437  35.364   7.353
10090POPC   C1B64567  38.175  35.276   6.453
10090POPC   C2B64568  38.234  35.300   6.753
10090POPC   C3B64569  38.242  35.302   7.053
10090POPC   C4B64570  38.221  35.297   7.353
10091POPC   NC364571  40.775  16.686   5.553
10091POPC   PO464572  40.773  16.769   5.853
10091POPC   GL164573  40.821  16.764   6.153
10091POPC   GL264574  40.815  16.670   6.153
10091POPC   C1A64575  40.816  16.691   6.453
10091POPC   D2A64576  40.789  16.758   6.753
10091POPC   C3A64577  40.794  16.774   7.053
10091POPC   C4A64578  40.782  16.709   7.353
10091POPC   C1B64579  40.905  16.491   6.453
10091POPC   C2B64580  40.882  16.511   6.753
10091POPC   C3B64581  40.888  16.499   7.053
10091POPC   C4B64582  40.961  16.555   7.353
10092POPC   NC364583  36.863  26.077   5.553
10092POPC   PO464584  36.923  26.057   5.853
10092POPC   GL164585  36.914  26.077   6.153
10092POPC   GL264586  36.852  26.117   6.153
10092POPC   C1A64587  36.884  26.066   6.453
10092POPC   D2A64588  36.920  26.087   6.753
10092POPC   C3A64589  36.931  26.047   7.053
10092POPC   C4A64590  36.884  26.032   7.353
10092POPC   C1B64591  36.811  26.283   6.453
10092POPC   C2B64592  36.809  26.281   6.753
10092POPC   C3B64593  36.724  26.250   7.053
10092POPC   C4B64594  36.788  26.264   7.353
10093POPC   NC364595  26.088  43.845   5.553
10093POPC   PO464596  26.090  43.934   5.853
10093POPC   GL164597  26.072  43.905   6.153
10093POPC   GL264598  25.884  43.887   6.153
10093POPC   C1A64599  26.028  43.896   6.453
10093POPC   D2A64600  26.051  43.857   6.753
10093POPC   C3A64601  26.069  43.932   7.053
10093POPC   C4A64602  26.072  43.838   7.353
10093POPC   C1B64603  25.824  43.948   6.453
10093POPC   C2B64604  25.768  43.910   6.753
10093POPC   C3B64605  25.839  43.973   7.053
10093POPC   C4B64606  25.788  43.967   7.353
10094POPC   NC364607  44.708  26.058   5.553
10094POPC   PO464608  44.626  25.992   5.853
10094POPC   GL164609  44.664  26.051   6.153
10094POPC   GL264610  44.575  26.135   6.153
10094POPC   C1A64611  44.614  26.054   6.453
10094POPC   D2A64612  44.634  26.026   6.753
10094POPC   C3A64613  44.655  26.076   7.053
10094POPC   C4A64614  44.647  26.084   7.353
10094POPC   C1B64615  44.458  26.218   6.453
10094POPC   C2B64616  44.499  26.202   6.753
10094POPC   C3B64617  44.449  26.214   7.053
10094POPC   C4B64618  44.456  26.168   7.353
10095POPC   NC364619  31.504   1.237   5.553
10095POPC   PO464620  31.513   1.188   5.853
10095POPC   GL164621  31.479   1.190   6.153
10095POPC   GL264622  31.565   1.171   6.153
10095POPC   C1A64623  31.514   1.195   6.453
10095POPC   D2A64624  31.436   1.180   6.753
10095POPC   C3A64625  31.501   1.206   7.053
10095POPC   C4A64626  31.439   1.249   7.353
10095POPC   C1B64627  31.711   1.191   6.453
10095POPC   C2B64628  31.712   1.203   6.753
10095POPC   C3B64629  31.709   1.200   7.053
10095POPC   C4B64630  31.742   1.164   7.353
10096POPC   NC364631  22.154  15.130   5.553
10096POPC   PO464632  22.156  15.153   5.853
10096POPC   GL164633  22.180  15.153   6.153
10096POPC   GL264634  22.146  15.288   6.153
10096POPC   C1A64635  22.129  15.167   6.453
10096POPC   D2A64636  22.170  15.167   6.753
10096POPC   C3A64637  22.142  15.194   7.053
10096POPC   C4A64638  22.115  15.208   7.353
10096POPC   C1B64639  22.162  15.472   6.453
10096POPC   C2B64640  22.165  15.454   6.753
10096POPC   C3B64641  22.140  15.423   7.053
10096POPC   C4B64642  22.119  15.458   7.353
10097POPC   NC364643  39.202  27.546   5.553
10097POPC   PO464644  39.281  27.548   5.853
10097POPC   GL164645  39.185  27.593   6.153
10097POPC   GL264646  39.234  27.421   6.153
10097POPC   C1A64647  39.256  27.614   6.453
10097POPC   D2A64648  39.225  27.594   6.753
10097POPC   C3A64649  39.228  27.613   7.053
10097POPC   C4A64650  39.243  27.616   7.353
10097POPC   C1B64651  39.205  27.298   6.453
10097POPC   C2B64652  39.251  27.364   6.753
10097POPC   C3B64653  39.260  27.372   7.053
10097POPC   C4B64654  39.232  27.365   7.353
10098POPC   NC364655  42.351  15.992   5.553
10098POPC   PO464656  42.374  15.922   5.853
10098POPC   GL164657  42.371  15.926   6.153
10098POPC   GL264658  42.263  15.930   6.153
10098POPC   C1A64659  42.310  15.978   6.453
10098POPC   D2A64660  42.296  15.993   6.753
10098POPC   C3A64661  42.355  15.954   7.053
10098POPC   C4A64662  42.372  15.946   7.353
10098POPC   C1B64663  42.056  15.896   6.453
10098POPC   C2B64664  42.077  15.827   6.753
10098POPC   C3B64665  42.092  15.858   7.053
10098POPC   C4B64666  42.151  15.860   7.353
10099POPC   NC364667   5.051   6.679   5.553
10099POPC   PO464668   5.073   6.684   5.853
10099POPC   GL164669   5.087   6.683   6.153
10099POPC   GL264670   5.079   6.777   6.153
10099POPC   C1A64671   5.120   6.672   6.453
10099POPC   D2A64672   5.053   6.682   6.753
10099POPC   C3A64673   5.094   6.643   7.053
10099POPC   C4A64674   5.048   6.667   7.353
10099POPC   C1B64675   5.120   6.874   6.453
10099POPC   C2B64676   5.080   6.924   6.753
10099POPC   C3B64677   5.130   6.913   7.053
10099POPC   C4B64678   5.122   6.847   7.353
10100POPC   NC364679   1.202  18.253   5.553
10100POPC   PO464680   1.246  18.323   5.853
10100POPC   GL164681   1.168  18.295   6.153
10100POPC   GL264682   1.304  18.372   6.153
10100POPC   C1A64683   1.258  18.285   6.453
10100POPC   D2A64684   1.216  18.272   6.753
10100POPC   C3A64685   1.219  18.321   7.053
10100POPC   C4A64686   1.174  18.326   7.353
10100POPC   C1B64687   1.330  18.501   6.453
10100POPC   C2B64688   1.328  18.513   6.753
10100POPC   C3B64689   1.344  18.469   7.053
10100POPC   C4B64690   1.399  18.478   7.353
10101POPC   NC364691  43.854  10.551   5.553
10101POPC   PO464692  43.898  10.559   5.853
10101POPC   GL164693  43.909  10.506   6.153
10101POPC   GL264694  43.805  10.418   6.153
10101POPC   C1A64695  43.848  10.546   6.453
10101POPC   D2A64696  43.850  10.528   6.753
10101POPC   C3A64697  43.919  10.517   7.053
10101POPC   C4A64698  43.839  10.479   7.353
10101POPC   C1B64699  43.650  10.399   6.453
10101POPC   C2B64700  43.716  10.343   6.753
10101POPC   C3B64701  43.671  10.382   7.053
10101POPC   C4B64702  43.631  10.396   7.353
10102POPC   NC364703  32.253  15.185   5.553
10102POPC   PO464704  32.231  15.141   5.853
10102POPC   GL164705  32.292  15.149   6.153
10102POPC   GL264706  32.142  15.200   6.153
10102POPC   C1A64707  32.256  15.159   6.453
10102POPC   D2A64708  32.237  15.147   6.753
10102POPC   C3A64709  32.224  15.169   7.053
10102POPC   C4A64710  32.285  15.173   7.353
10102POPC   C1B64711  32.019  15.193   6.453
10102POPC   C2B64712  32.029  15.151   6.753
10102POPC   C3B64713  32.033  15.208   7.053
10102POPC   C4B64714  32.012  15.184   7.353
10103POPC   NC364715  26.040  36.856   5.553
10103POPC   PO464716  26.039  36.874   5.853
10103POPC   GL164717  26.056  36.939   6.153
10103POPC   GL264718  25.895  36.864   6.153
10103POPC   C1A64719  26.056  36.871   6.453
10103POPC   D2A64720  26.020  36.946   6.753
10103POPC   C3A64721  26.014  36.899   7.053
10103POPC   C4A64722  26.086  36.939   7.353
10103POPC   C1B64723  25.754  36.910   6.453
10103POPC   C2B64724  25.749  36.917   6.753
10103POPC   C3B64725  25.836  36.948   7.053
10103POPC   C4B64726  25.771  36.907   7.353
10104POPC   NC364727  20.580   2.805   5.553
10104POPC   PO464728  20.607   2.777   5.853
10104POPC   GL164729  20.606   2.751   6.153
10104POPC   GL264730  20.542   2.619   6.153
10104POPC   C1A64731  20.581   2.812   6.453
10104POPC   D2A64732  20.616   2.721   6.753
10104POPC   C3A64733  20.643   2.813   7.053
10104POPC   C4A64734  20.564   2.744   7.353
10104POPC   C1B64735  20.533   2.509   6.453
10104POPC   C2B64736  20.545   2.564   6.753
10104POPC   C3B64737  20.563   2.509   7.053
10104POPC   C4B64738  20.526   2.496   7.353
10105POPC   NC364739  38.431   7.468   5.553
10105POPC   PO464740  38.483   7.467   5.853
10105POPC   GL164741  38.414   7.405   6.153
10105POPC   GL264742  38.386   7.472   6.153
10105POPC   C1A64743  38.448   7.386   6.453
10105POPC   D2A64744  38.499   7.445   6.753
10105POPC   C3A64745  38.448   7.431   7.053
10105POPC   C4A64746  38.418   7.398   7.353
10105POPC   C1B64747  38.215   7.606   6.453
10105POPC   C2B64748  38.247   7.523   6.753
10105POPC   C3B64749  38.218   7.582   7.053
10105POPC   C4B64750  38.263   7.528   7.353
10106POPC   NC364751  14.402  10.562   5.553
10106POPC   PO464752  14.390  10.565   5.853
10106POPC   GL164753  14.439  10.492   6.153
10106POPC   GL264754  14.301  10.494   6.153
10106POPC   C1A64755  14.394  10.519   6.453
10106POPC   D2A64756  14.443  10.490   6.753
10106POPC   C3A64757  14.443  10.555   7.053
10106POPC   C4A64758  14.450  10.519   7.353
10106POPC   C1B64759  14.199  10.560   6.453
10106POPC   C2B64760  14.204  10.588   6.753
10106POPC   C3B64761  14.167  10.540   7.053
10106POPC   C4B64762  14.130  10.537   7.353
10107POPC   NC364763  19.033  22.149   5.553
10107POPC   PO464764  19.102  22.157   5.853
10107POPC   GL164765  19.059  22.191   6.153
10107POPC   GL264766  19.217  22.090   6.153
10107POPC   C1A64767  19.087  22.190   6.453
10107POPC   D2A64768  19.037  22.172   6.753
10107POPC   C3A64769  19.052  22.120   7.053
10107POPC   C4A64770  19.104  22.157   7.353
10107POPC   C1B64771  19.288  22.077   6.453
10107POPC   C2B64772  19.271  22.027   6.753
10107POPC   C3B64773  19.262  22.019   7.053
10107POPC   C4B64774  19.303  22.010   7.353
10108POPC   NC364775  34.615   2.785   5.553
10108POPC   PO464776  34.554   2.719   5.853
10108POPC   GL164777  34.550   2.777   6.153
10108POPC   GL264778  34.521   2.719   6.153
10108POPC   C1A64779  34.566   2.802   6.453
10108POPC   D2A64780  34.580   2.730   6.753
10108POPC   C3A64781  34.547   2.796   7.053
10108POPC   C4A64782  34.589   2.728   7.353
10108POPC   C1B64783  34.435   2.597   6.453
10108POPC   C2B64784  34.408   2.592   6.753
10108POPC   C3B64785  34.437   2.627   7.053
10108POPC   C4B64786  34.383   2.605   7.353
10109POPC   NC364787   0.460  15.179   5.553
10109POPC   PO464788   0.401  15.204   5.853
10109POPC   GL164789   0.428  15.184   6.153
10109POPC   GL264790   0.396  15.275   6.153
10109POPC   C1A64791   0.469  15.185   6.453
10109POPC   D2A64792   0.411  15.176   6.753
10109POPC   C3A64793   0.439  15.192   7.053
10109POPC   C4A64794   0.475  15.175   7.353
10109POPC   C1B64795   0.387  15.425   6.453
10109POPC   C2B64796   0.373  15.421   6.753
10109POPC   C3B64797   0.335  15.401   7.053
10109POPC   C4B64798   0.374  15.452   7.353
10110POPC   NC364799   3.557  30.705   5.553
10110POPC   PO464800   3.567  30.696   5.853
10110POPC   GL164801   3.540  30.720   6.153
10110POPC   GL264802   3.652  30.651   6.153
10110POPC   C1A64803   3.531  30.736   6.453
10110POPC   D2A64804   3.572  30.723   6.753
10110POPC   C3A64805   3.560  30.668   7.053
10110POPC   C4A64806   3.544  30.675   7.353
10110POPC   C1B64807   3.813  30.710   6.453
10110POPC   C2B64808   3.787  30.683   6.753
10110POPC   C3B64809   3.813  30.652   7.053
10110POPC   C4B64810   3.809  30.622   7.353
10111POPC   NC364811   1.254  27.608   5.553
10111POPC   PO464812   1.229  27.625   5.853
10111POPC   GL164813   1.184  27.558   6.153
10111POPC   GL264814   1.083  27.628   6.153
10111POPC   C1A64815   1.231  27.599   6.453
10111POPC   D2A64816   1.249  27.595   6.753
10111POPC   C3A64817   1.220  27.586   7.053
10111POPC   C4A64818   1.254  27.563   7.353
10111POPC   C1B64819   0.999  27.608   6.453
10111POPC   C2B64820   1.012  27.540   6.753
10111POPC   C3B64821   0.964  27.556   7.053
10111POPC   C4B64822   0.986  27.633   7.353
10112POPC   NC364823  29.116  17.480   5.553
10112POPC   PO464824  29.138  17.486   5.853
10112POPC   GL164825  29.135  17.474   6.153
10112POPC   GL264826  28.980  17.527   6.153
10112POPC   C1A64827  29.117  17.490   6.453
10112POPC   D2A64828  29.187  17.493   6.753
10112POPC   C3A64829  29.184  17.510   7.053
10112POPC   C4A64830  29.099  17.522   7.353
10112POPC   C1B64831  28.927  17.515   6.453
10112POPC   C2B64832  28.894  17.554   6.753
10112POPC   C3B64833  28.903  17.503   7.053
10112POPC   C4B64834  28.938  17.550   7.353
10113POPC   NC364835  32.975  33.787   5.553
10113POPC   PO464836  33.026  33.807   5.853
10113POPC   GL164837  33.026  33.776   6.153
10113POPC   GL264838  32.913  33.767   6.153
10113POPC   C1A64839  33.057  33.809   6.453
10113POPC   D2A64840  33.046  33.775   6.753
10113POPC   C3A64841  33.024  33.823   7.053
10113POPC   C4A64842  33.019  33.833   7.353
10113POPC   C1B64843  32.859  33.625   6.453
10113POPC   C2B64844  32.804  33.697   6.753
10113POPC   C3B64845  32.831  33.662   7.053
10113POPC   C4B64846  32.779  33.720   7.353
10114POPC   NC364847  24.473  36.098   5.553
10114POPC   PO464848  24.535  36.165   5.853
10114POPC   GL164849  24.507  36.100   6.153
10114POPC   GL264850  24.512  36.048   6.153
10114POPC   C1A64851  24.504  36.152   6.453
10114POPC   D2A64852  24.484  36.155   6.753
10114POPC   C3A64853  24.521  36.085   7.053
10114POPC   C4A64854  24.484  36.133   7.353
10114POPC   C1B64855  24.466  35.835   6.453
10114POPC   C2B64856  24.417  35.860   6.753
10114POPC   C3B64857  24.430  35.830   7.053
10114POPC   C4B64858  24.425  35.845   7.353
10115POPC   NC364859  25.263  32.263   5.553
10115POPC   PO464860  25.232  32.266   5.853
10115POPC   GL164861  25.288  32.262   6.153
10115POPC   GL264862  25.399  32.233   6.153
10115POPC   C1A64863  25.232  32.291   6.453
10115POPC   D2A64864  25.287  32.231   6.753
10115POPC   C3A64865  25.237  32.226   7.053
10115POPC   C4A64866  25.244  32.216   7.353
10115POPC   C1B64867  25.483  32.122   6.453
10115POPC   C2B64868  25.519  32.140   6.753
10115POPC   C3B64869  25.497  32.182   7.053
10115POPC   C4B64870  25.507  32.163   7.353
10116POPC   NC364871  19.843  23.744   5.553
10116POPC   PO464872  19.848  23.728   5.853
10116POPC   GL164873  19.821  23.737   6.153
10116POPC   GL264874  19.745  23.791   6.153
10116POPC   C1A64875  19.854  23.745   6.453
10116POPC   D2A64876  19.858  23.751   6.753
10116POPC   C3A64877  19.803  23.756   7.053
10116POPC   C4A64878  19.864  23.700   7.353
10116POPC   C1B64879  19.758  23.911   6.453
10116POPC   C2B64880  19.733  23.929   6.753
10116POPC   C3B64881  19.712  23.900   7.053
10116POPC   C4B64882  19.740  23.889   7.353
10117POPC   NC364883  24.482  34.538   5.553
10117POPC   PO464884  24.506  34.561   5.853
10117POPC   GL164885  24.497  34.568   6.153
10117POPC   GL264886  24.548  34.531   6.153
10117POPC   C1A64887  24.444  34.590   6.453
10117POPC   D2A64888  24.466  34.569   6.753
10117POPC   C3A64889  24.493  34.622   7.053
10117POPC   C4A64890  24.442  34.617   7.353
10117POPC   C1B64891  24.628  34.361   6.453
10117POPC   C2B64892  24.643  34.421   6.753
10117POPC   C3B64893  24.663  34.432   7.053
10117POPC   C4B64894  24.713  34.393   7.353
10118POPC   NC364895   2.761   9.734   5.553
10118POPC   PO464896   2.803   9.782   5.853
10118POPC   GL164897   2.747   9.754   6.153
10118POPC   GL264898   2.899   9.701   6.153
10118POPC   C1A64899   2.810   9.732   6.453
10118POPC   D2A64900   2.811   9.728   6.753
10118POPC   C3A64901   2.765   9.783   7.053
10118POPC   C4A64902   2.764   9.787   7.353
10118POPC   C1B64903   2.998   9.590   6.453
10118POPC   C2B64904   2.968   9.620   6.753
10118POPC   C3B64905   2.906   9.581   7.053
10118POPC   C4B64906   2.968   9.623   7.353
10119POPC   NC364907  44.629  15.166   5.553
10119POPC   PO464908  44.615  15.219   5.853
10119POPC   GL164909  44.615  15.189   6.153
10119POPC   GL264910  44.633  15.306   6.153
10119POPC   C1A64911  44.651  15.217   6.453
10119POPC   D2A64912  44.662  15.142   6.753
10119POPC   C3A64913  44.641  15.188   7.053
10119POPC   C4A64914  44.700  15.218   7.353
10119POPC   C1B64915  44.634  15.389   6.453
10119POPC   C2B64916  44.649  15.444   6.753
10119POPC   C3B64917  44.638  15.453   7.053
10119POPC   C4B64918  44.620  15.444   7.353
10120POPC   NC364919  44.664  36.941   5.553
10120POPC   PO464920  44.701  36.889   5.853
10120POPC   GL164921  44.678  36.945   6.153
10120POPC   GL264922  44.563  37.046   6.153
10120POPC   C1A64923  44.699  36.868   6.453
10120POPC   D2A64924  44.627  36.952   6.753
10120POPC   C3A64925  44.618  36.925   7.053
10120POPC   C4A64926  44.682  36.949   7.353
10120POPC   C1B64927  44.531  37.100   6.453
10120POPC   C2B64928  44.501  37.085   6.753
10120POPC   C3B64929  44.513  37.129   7.053
10120POPC   C4B64930  44.500  37.115   7.353
10121POPC   NC364931  11.317  29.144   5.553
10121POPC   PO464932  11.345  29.158   5.853
10121POPC   GL164933  11.280  29.097   6.153
10121POPC   GL264934  11.140  29.156   6.153
10121POPC   C1A64935  11.286  29.175   6.453
10121POPC   D2A64936  11.344  29.136   6.753
10121POPC   C3A64937  11.278  29.109   7.053
10121POPC   C4A64938  11.298  29.123   7.353
10121POPC   C1B64939  11.107  29.233   6.453
10121POPC   C2B64940  11.061  29.226   6.753
10121POPC   C3B64941  11.112  29.243   7.053
10121POPC   C4B64942  11.106  29.205   7.353
10122POPC   NC364943  19.806   5.839   5.553
10122POPC   PO464944  19.815   5.899   5.853
10122POPC   GL164945  19.795   5.912   6.153
10122POPC   GL264946  19.935   5.733   6.153
10122POPC   C1A64947  19.882   5.855   6.453
10122POPC   D2A64948  19.869   5.908   6.753
10122POPC   C3A64949  19.790   5.840   7.053
10122POPC   C4A64950  19.798   5.851   7.353
10122POPC   C1B64951  19.993   5.691   6.453
10122POPC   C2B64952  19.942   5.662   6.753
10122POPC   C3B64953  19.947   5.608   7.053
10122POPC   C4B64954  19.951   5.622   7.353
10123POPC   NC364955  33.840   9.778   5.553
10123POPC   PO464956  33.759   9.722   5.853
10123POPC   GL164957  33.757   9.777   6.153
10123POPC   GL264958  33.723   9.826   6.153
10123POPC   C1A64959  33.848   9.711   6.453
10123POPC   D2A64960  33.826   9.795   6.753
10123POPC   C3A64961  33.843   9.792   7.053
10123POPC   C4A64962  33.841   9.731   7.353
10123POPC   C1B64963  33.585   9.794   6.453
10123POPC   C2B64964  33.571   9.800   6.753
10123POPC   C3B64965  33.530   9.808   7.053
10123POPC   C4B64966  33.591   9.825   7.353
10124POPC   NC364967  15.938  36.923   5.553
10124POPC   PO464968  15.933  36.899   5.853
10124POPC   GL164969  15.968  36.906   6.153
10124POPC   GL264970  15.984  36.815   6.153
10124POPC   C1A64971  15.974  36.917   6.453
10124POPC   D2A64972  15.969  36.879   6.753
10124POPC   C3A64973  15.989  36.878   7.053
10124POPC   C4A64974  15.993  36.855   7.353
10124POPC   C1B64975  15.924  36.701   6.453
10124POPC   C2B64976  15.958  36.699   6.753
10124POPC   C3B64977  15.928  36.675   7.053
10124POPC   C4B64978  15.924  36.700   7.353
10125POPC   NC364979   7.434  40.055   5.553
10125POPC   PO464980   7.461  40.010   5.853
10125POPC   GL164981   7.433  40.007   6.153
10125POPC   GL264982   7.362  39.963   6.153
10125POPC   C1A64983   7.433  39.986   6.453
10125POPC   D2A64984   7.392  40.031   6.753
10125POPC   C3A64985   7.412  40.016   7.053
10125POPC   C4A64986   7.422  39.997   7.353
10125POPC   C1B64987   7.266  39.859   6.453
10125POPC   C2B64988   7.229  39.852   6.753
10125POPC   C3B64989   7.253  39.849   7.053
10125POPC   C4B64990   7.263  39.829   7.353
10126POPC   NC364991  29.956  12.868   5.553
10126POPC   PO464992  29.948  12.878   5.853
10126POPC   GL164993  29.891  12.878   6.153
10126POPC   GL264994  30.053  12.789   6.153
10126POPC   C1A64995  29.918  12.870   6.453
10126POPC   D2A64996  29.964  12.871   6.753
10126POPC   C3A64997  29.939  12.830   7.053
10126POPC   C4A64998  29.970  12.886   7.353
10126POPC   C1B64999  30.144  12.770   6.453
10126POPC   C2B65000  30.187  12.718   6.753
10126POPC   C3B65001  30.102  12.764   7.053
10126POPC   C4B65002  30.113  12.754   7.353
10127POPC   NC365003   5.079  43.845   5.553
10127POPC   PO465004   5.100  43.928   5.853
10127POPC   GL165005   5.114  43.908   6.153
10127POPC   GL265006   5.219  43.901   6.153
10127POPC   C1A65007   5.141  43.856   6.453
10127POPC   D2A65008   5.047  43.840   6.753
10127POPC   C3A65009   5.055  43.853   7.053
10127POPC   C4A65010   5.062  43.879   7.353
10127POPC   C1B65011   5.354  43.867   6.453
10127POPC   C2B65012   5.353  43.920   6.753
10127POPC   C3B65013   5.299  43.935   7.053
10127POPC   C4B65014   5.374  43.849   7.353
10128POPC   NC365015  39.239   1.209   5.553
10128POPC   PO465016  39.224   1.200   5.853
10128POPC   GL165017  39.241   1.216   6.153
10128POPC   GL265018  39.161   1.137   6.153
10128POPC   C1A65019  39.216   1.174   6.453
10128POPC   D2A65020  39.239   1.210   6.753
10128POPC   C3A65021  39.239   1.242   7.053
10128POPC   C4A65022  39.207   1.246   7.353
10128POPC   C1B65023  39.124   0.956   6.453
10128POPC   C2B65024  39.137   0.996   6.753
10128POPC   C3B65025  39.132   0.966   7.053
10128POPC   C4B65026  39.105   0.971   7.353
10129POPC   NC365027   5.909   1.970   5.553
10129POPC   PO465028   5.884   1.944   5.853
10129POPC   GL165029   5.906   2.009   6.153
10129POPC   GL265030   5.748   1.978   6.153
10129POPC   C1A65031   5.833   1.991   6.453
10129POPC   D2A65032   5.846   2.036   6.753
10129POPC   C3A65033   5.863   2.003   7.053
10129POPC   C4A65034   5.826   1.988   7.353
10129POPC   C1B65035   5.663   1.910   6.453
10129POPC   C2B65036   5.619   1.965   6.753
10129POPC   C3B65037   5.641   1.939   7.053
10129POPC   C4B65038   5.619   1.919   7.353
10130POPC   NC365039  20.575  23.681   5.553
10130POPC   PO465040  20.585  23.730   5.853
10130POPC   GL165041  20.584  23.715   6.153
10130POPC   GL265042  20.692  23.764   6.153
10130POPC   C1A65043  20.647  23.703   6.453
10130POPC   D2A65044  20.599  23.747   6.753
10130POPC   C3A65045  20.630  23.749   7.053
10130POPC   C4A65046  20.623  23.700   7.353
10130POPC   C1B65047  20.813  23.902   6.453
10130POPC   C2B65048  20.806  23.881   6.753
10130POPC   C3B65049  20.809  23.867   7.053
10130POPC   C4B65050  20.832  23.855   7.353
10131POPC   NC365051  33.771  26.087   5.553
10131POPC   PO465052  33.799  26.032   5.853
10131POPC   GL165053  33.805  26.046   6.153
10131POPC   GL265054  33.840  26.110   6.153
10131POPC   C1A65055  33.821  26.070   6.453
10131POPC   D2A65056  33.770  26.080   6.753
10131POPC   C3A65057  33.784  26.000   7.053
10131POPC   C4A65058  33.849  26.033   7.353
10131POPC   C1B65059  33.972  26.203   6.453
10131POPC   C2B65060  33.975  26.300   6.753
10131POPC   C3B65061  33.969  26.216   7.053
10131POPC   C4B65062  33.942  26.230   7.353
10132POPC   NC365063  33.058  15.946   5.553
10132POPC   PO465064  33.074  15.981   5.853
10132POPC   GL165065  33.013  15.929   6.153
10132POPC   GL265066  33.136  15.923   6.153
10132POPC   C1A65067  32.993  15.907   6.453
10132POPC   D2A65068  33.074  15.956   6.753
10132POPC   C3A65069  33.068  15.963   7.053
10132POPC   C4A65070  33.001  15.929   7.353
10132POPC   C1B65071  33.249  15.962   6.453
10132POPC   C2B65072  33.272  15.936   6.753
10132POPC   C3B65073  33.324  15.979   7.053
10132POPC   C4B65074  33.297  15.913   7.353
10133POPC   NC365075   8.930   8.155   5.553
10133POPC   PO465076   8.975   8.174   5.853
10133POPC   GL165077   8.930   8.235   6.153
10133POPC   GL265078   8.878   8.306   6.153
10133POPC   C1A65079   8.967   8.208   6.453
10133POPC   D2A65080   8.994   8.162   6.753
10133POPC   C3A65081   8.964   8.196   7.053
10133POPC   C4A65082   8.961   8.188   7.353
10133POPC   C1B65083   8.798   8.344   6.453
10133POPC   C2B65084   8.786   8.376   6.753
10133POPC   C3B65085   8.755   8.375   7.053
10133POPC   C4B65086   8.797   8.409   7.353
10134POPC   NC365087  24.509   4.322   5.553
10134POPC   PO465088  24.480   4.348   5.853
10134POPC   GL165089  24.511   4.342   6.153
10134POPC   GL265090  24.361   4.272   6.153
10134POPC   C1A65091  24.525   4.304   6.453
10134POPC   D2A65092  24.483   4.351   6.753
10134POPC   C3A65093  24.462   4.341   7.053
10134POPC   C4A65094  24.447   4.331   7.353
10134POPC   C1B65095  24.297   4.169   6.453
10134POPC   C2B65096  24.261   4.221   6.753
10134POPC   C3B65097  24.258   4.210   7.053
10134POPC   C4B65098  24.212   4.263   7.353
10135POPC   NC365099  33.068  10.542   5.553
10135POPC   PO465100  33.061  10.504   5.853
10135POPC   GL165101  33.003  10.492   6.153
10135POPC   GL265102  33.155  10.597   6.153
10135POPC   C1A65103  32.988  10.496   6.453
10135POPC   D2A65104  33.054  10.567   6.753
10135POPC   C3A65105  32.996  10.523   7.053
10135POPC   C4A65106  33.051  10.513   7.353
10135POPC   C1B65107  33.207  10.623   6.453
10135POPC   C2B65108  33.236  10.628   6.753
10135POPC   C3B65109  33.282  10.625   7.053
10135POPC   C4B65110  33.219  10.645   7.353
10136POPC   NC365111   2.752  12.882   5.553
10136POPC   PO465112   2.740  12.871   5.853
10136POPC   GL165113   2.796  12.871   6.153
10136POPC   GL265114   2.856  12.722   6.153
10136POPC   C1A65115   2.748  12.828   6.453
10136POPC   D2A65116   2.744  12.884   6.753
10136POPC   C3A65117   2.813  12.888   7.053
10136POPC   C4A65118   2.749  12.887   7.353
10136POPC   C1B65119   2.917  12.626   6.453
10136POPC   C2B65120   2.974  12.662   6.753
10136POPC   C3B65121   2.963  12.664   7.053
10136POPC   C4B65122   2.919  12.702   7.353
10137POPC   NC365123  35.305   8.242   5.553
10137POPC   PO465124  35.370   8.241   5.853
10137POPC   GL165125  35.322   8.202   6.153
10137POPC   GL265126  35.491   8.164   6.153
10137POPC   C1A65127  35.361   8.162   6.453
10137POPC   D2A65128  35.335   8.237   6.753
10137POPC   C3A65129  35.374   8.205   7.053
10137POPC   C4A65130  35.312   8.200   7.353
10137POPC   C1B65131  35.617   8.140   6.453
10137POPC   C2B65132  35.621   8.160   6.753
10137POPC   C3B65133  35.639   8.140   7.053
10137POPC   C4B65134  35.568   8.146   7.353
10138POPC   NC365135   9.008  13.620   5.553
10138POPC   PO465136   8.964  13.674   5.853
10138POPC   GL165137   8.960  13.626   6.153
10138POPC   GL265138   8.874  13.503   6.153
10138POPC   C1A65139   8.929  13.668   6.453
10138POPC   D2A65140   9.015  13.602   6.753
10138POPC   C3A65141   8.964  13.674   7.053
10138POPC   C4A65142   9.022  13.616   7.353
10138POPC   C1B65143   8.813  13.405   6.453
10138POPC   C2B65144   8.837  13.437   6.753
10138POPC   C3B65145   8.824  13.426   7.053
10138POPC   C4B65146   8.783  13.475   7.353
10139POPC   NC365147  42.369   5.819   5.553
10139POPC   PO465148  42.351   5.834   5.853
10139POPC   GL165149  42.315   5.850   6.153
10139POPC   GL265150  42.292   6.020   6.153
10139POPC   C1A65151  42.358   5.847   6.453
10139POPC   D2A65152  42.330   5.846   6.753
10139POPC   C3A65153  42.330   5.915   7.053
10139POPC   C4A65154  42.334   5.900   7.353
10139POPC   C1B65155  42.283   6.152   6.453
10139POPC   C2B65156  42.352   6.141   6.753
10139POPC   C3B65157  42.315   6.152   7.053
10139POPC   C4B65158  42.302   6.154   7.353
10140POPC   NC365159  42.320   3.517   5.553
10140POPC   PO465160  42.322   3.498   5.853
10140POPC   GL165161  42.338   3.586   6.153
10140POPC   GL265162  42.392   3.413   6.153
10140POPC   C1A65163  42.368   3.500   6.453
10140POPC   D2A65164  42.331   3.588   6.753
10140POPC   C3A65165  42.356   3.519   7.053
10140POPC   C4A65166  42.338   3.536   7.353
10140POPC   C1B65167  42.424   3.257   6.453
10140POPC   C2B65168  42.364   3.298   6.753
10140POPC   C3B65169  42.431   3.341   7.053
10140POPC   C4B65170  42.415   3.333   7.353
10141POPC   NC365171  22.963   6.667   5.553
10141POPC   PO465172  22.910   6.695   5.853
10141POPC   GL165173  22.988   6.643   6.153
10141POPC   GL265174  23.000   6.535   6.153
10141POPC   C1A65175  22.954   6.613   6.453
10141POPC   D2A65176  22.956   6.607   6.753
10141POPC   C3A65177  22.966   6.690   7.053
10141POPC   C4A65178  22.891   6.670   7.353
10141POPC   C1B65179  23.130   6.529   6.453
10141POPC   C2B65180  23.160   6.554   6.753
10141POPC   C3B65181  23.193   6.524   7.053
10141POPC   C4B65182  23.191   6.495   7.353
10142POPC   NC365183  39.240   9.718   5.553
10142POPC   PO465184  39.231   9.708   5.853
10142POPC   GL165185  39.215   9.792   6.153
10142POPC   GL265186  39.139   9.738   6.153
10142POPC   C1A65187  39.235   9.788   6.453
10142POPC   D2A65188  39.265   9.710   6.753
10142POPC   C3A65189  39.191   9.714   7.053
10142POPC   C4A65190  39.265   9.721   7.353
10142POPC   C1B65191  39.009   9.739   6.453
10142POPC   C2B65192  39.030   9.654   6.753
10142POPC   C3B65193  38.995   9.665   7.053
10142POPC   C4B65194  38.979   9.736   7.353
10143POPC   NC365195  39.966  19.093   5.553
10143POPC   PO465196  40.012  19.047   5.853
10143POPC   GL165197  40.039  19.087   6.153
10143POPC   GL265198  40.121  19.010   6.153
10143POPC   C1A65199  39.982  19.031   6.453
10143POPC   D2A65200  40.045  19.025   6.753
10143POPC   C3A65201  40.025  19.017   7.053
10143POPC   C4A65202  40.046  19.078   7.353
10143POPC   C1B65203  40.208  18.919   6.453
10143POPC   C2B65204  40.171  18.919   6.753
10143POPC   C3B65205  40.188  18.953   7.053
10143POPC   C4B65206  40.179  18.889   7.353
10144POPC   NC365207   7.459   5.821   5.553
10144POPC   PO465208   7.455   5.916   5.853
10144POPC   GL165209   7.411   5.880   6.153
10144POPC   GL265210   7.497   5.980   6.153
10144POPC   C1A65211   7.438   5.892   6.453
10144POPC   D2A65212   7.413   5.858   6.753
10144POPC   C3A65213   7.387   5.910   7.053
10144POPC   C4A65214   7.433   5.856   7.353
10144POPC   C1B65215   7.512   6.134   6.453
10144POPC   C2B65216   7.484   6.158   6.753
10144POPC   C3B65217   7.508   6.068   7.053
10144POPC   C4B65218   7.453   6.155   7.353
10145POPC   NC365219   9.017   6.597   5.553
10145POPC   PO465220   9.007   6.653   5.853
10145POPC   GL165221   8.956   6.622   6.153
10145POPC   GL265222   8.961   6.563   6.153
10145POPC   C1A65223   8.962   6.675   6.453
10145POPC   D2A65224   8.988   6.620   6.753
10145POPC   C3A65225   8.974   6.661   7.053
10145POPC   C4A65226   9.012   6.609   7.353
10145POPC   C1B65227   8.983   6.392   6.453
10145POPC   C2B65228   8.948   6.386   6.753
10145POPC   C3B65229   9.003   6.396   7.053
10145POPC   C4B65230   9.017   6.361   7.353
10146POPC   NC365231  24.470  22.953   5.553
10146POPC   PO465232  24.457  22.987   5.853
10146POPC   GL165233  24.531  22.983   6.153
10146POPC   GL265234  24.566  22.887   6.153
10146POPC   C1A65235  24.533  22.915   6.453
10146POPC   D2A65236  24.444  22.888   6.753
10146POPC   C3A65237  24.504  22.935   7.053
10146POPC   C4A65238  24.450  22.973   7.353
10146POPC   C1B65239  24.716  22.831   6.453
10146POPC   C2B65240  24.702  22.843   6.753
10146POPC   C3B65241  24.760  22.832   7.053
10146POPC   C4B65242  24.699  22.855   7.353
10147POPC   NC365243   5.085  21.349   5.553
10147POPC   PO465244   5.085  21.367   5.853
10147POPC   GL165245   5.119  21.419   6.153
10147POPC   GL265246   5.025  21.253   6.153
10147POPC   C1A65247   5.109  21.382   6.453
10147POPC   D2A65248   5.106  21.378   6.753
10147POPC   C3A65249   5.053  21.370   7.053
10147POPC   C4A65250   5.071  21.422   7.353
10147POPC   C1B65251   5.058  21.195   6.453
10147POPC   C2B65252   5.002  21.177   6.753
10147POPC   C3B65253   4.989  21.163   7.053
10147POPC   C4B65254   5.015  21.137   7.353
10148POPC   NC365255   7.446  41.512   5.553
10148POPC   PO465256   7.457  41.602   5.853
10148POPC   GL165257   7.454  41.578   6.153
10148POPC   GL265258   7.590  41.614   6.153
10148POPC   C1A65259   7.460  41.584   6.453
10148POPC   D2A65260   7.417  41.555   6.753
10148POPC   C3A65261   7.432  41.604   7.053
10148POPC   C4A65262   7.375  41.556   7.353
10148POPC   C1B65263   7.650  41.580   6.453
10148POPC   C2B65264   7.692  41.616   6.753
10148POPC   C3B65265   7.708  41.573   7.053
10148POPC   C4B65266   7.636  41.565   7.353
10149POPC   NC365267  22.930  33.752   5.553
10149POPC   PO465268  22.984  33.818   5.853
10149POPC   GL165269  22.940  33.841   6.153
10149POPC   GL265270  22.867  33.843   6.153
10149POPC   C1A65271  22.975  33.796   6.453
10149POPC   D2A65272  22.945  33.769   6.753
10149POPC   C3A65273  22.984  33.844   7.053
10149POPC   C4A65274  22.935  33.807   7.353
10149POPC   C1B65275  22.721  33.840   6.453
10149POPC   C2B65276  22.673  33.896   6.753
10149POPC   C3B65277  22.742  33.904   7.053
10149POPC   C4B65278  22.727  33.917   7.353
10150POPC   NC365279  29.958  13.587   5.553
10150POPC   PO465280  29.953  13.611   5.853
10150POPC   GL165281  29.879  13.586   6.153
10150POPC   GL265282  29.914  13.543   6.153
10150POPC   C1A65283  29.898  13.652   6.453
10150POPC   D2A65284  29.928  13.592   6.753
10150POPC   C3A65285  29.924  13.611   7.053
10150POPC   C4A65286  29.871  13.655   7.353
10150POPC   C1B65287  29.859  13.411   6.453
10150POPC   C2B65288  29.918  13.381   6.753
10150POPC   C3B65289  29.918  13.336   7.053
10150POPC   C4B65290  29.841  13.382   7.353
10151POPC   NC365291  15.922  40.036   5.553
10151POPC   PO465292  15.909  40.056   5.853
10151POPC   GL165293  15.943  39.994   6.153
10151POPC   GL265294  15.949  39.897   6.153
10151POPC   C1A65295  15.952  40.002   6.453
10151POPC   D2A65296  15.951  40.038   6.753
10151POPC   C3A65297  15.926  39.963   7.053
10151POPC   C4A65298  15.946  40.046   7.353
10151POPC   C1B65299  15.891  39.721   6.453
10151POPC   C2B65300  15.870  39.769   6.753
10151POPC   C3B65301  15.892  39.778   7.053
10151POPC   C4B65302  15.925  39.729   7.353
10152POPC   NC365303  36.905   5.906   5.553
10152POPC   PO465304  36.938   5.882   5.853
10152POPC   GL165305  36.927   5.855   6.153
10152POPC   GL265306  37.030   5.909   6.153
10152POPC   C1A65307  36.914   5.860   6.453
10152POPC   D2A65308  36.884   5.846   6.753
10152POPC   C3A65309  36.878   5.833   7.053
10152POPC   C4A65310  36.932   5.902   7.353
10152POPC   C1B65311  37.170   5.888   6.453
10152POPC   C2B65312  37.139   5.815   6.753
10152POPC   C3B65313  37.144   5.822   7.053
10152POPC   C4B65314  37.125   5.833   7.353
10153POPC   NC365315  39.235   2.778   5.553
10153POPC   PO465316  39.262   2.782   5.853
10153POPC   GL165317  39.275   2.741   6.153
10153POPC   GL265318  39.233   2.649   6.153
10153POPC   C1A65319  39.232   2.752   6.453
10153POPC   D2A65320  39.216   2.721   6.753
10153POPC   C3A65321  39.210   2.764   7.053
10153POPC   C4A65322  39.186   2.757   7.353
10153POPC   C1B65323  39.277   2.483   6.453
10153POPC   C2B65324  39.218   2.474   6.753
10153POPC   C3B65325  39.217   2.504   7.053
10153POPC   C4B65326  39.224   2.540   7.353
10154POPC   NC365327  38.449  23.699   5.553
10154POPC   PO465328  38.498  23.757   5.853
10154POPC   GL165329  38.436  23.748   6.153
10154POPC   GL265330  38.323  23.668   6.153
10154POPC   C1A65331  38.417  23.680   6.453
10154POPC   D2A65332  38.464  23.735   6.753
10154POPC   C3A65333  38.419  23.687   7.053
10154POPC   C4A65334  38.407  23.737   7.353
10154POPC   C1B65335  38.291  23.578   6.453
10154POPC   C2B65336  38.288  23.571   6.753
10154POPC   C3B65337  38.286  23.529   7.053
10154POPC   C4B65338  38.258  23.522   7.353
10155POPC   NC365339   4.294  12.835   5.553
10155POPC   PO465340   4.350  12.820   5.853
10155POPC   GL165341   4.300  12.860   6.153
10155POPC   GL265342   4.288  12.947   6.153
10155POPC   C1A65343   4.289  12.886   6.453
10155POPC   D2A65344   4.291  12.822   6.753
10155POPC   C3A65345   4.360  12.847   7.053
10155POPC   C4A65346   4.358  12.865   7.353
10155POPC   C1B65347   4.335  13.149   6.453
10155POPC   C2B65348   4.316  13.119   6.753
10155POPC   C3B65349   4.345  13.140   7.053
10155POPC   C4B65350   4.292  13.139   7.353
10156POPC   NC365351  10.526  29.112   5.553
10156POPC   PO465352  10.519  29.159   5.853
10156POPC   GL165353  10.536  29.113   6.153
10156POPC   GL265354  10.411  29.286   6.153
10156POPC   C1A65355  10.515  29.182   6.453
10156POPC   D2A65356  10.529  29.139   6.753
10156POPC   C3A65357  10.571  29.122   7.053
10156POPC   C4A65358  10.538  29.189   7.353
10156POPC   C1B65359  10.366  29.403   6.453
10156POPC   C2B65360  10.383  29.367   6.753
10156POPC   C3B65361  10.415  29.338   7.053
10156POPC   C4B65362  10.385  29.372   7.353
10157POPC   NC365363   8.239  11.318   5.553
10157POPC   PO465364   8.220  11.346   5.853
10157POPC   GL165365   8.170  11.303   6.153
10157POPC   GL265366   8.160  11.428   6.153
10157POPC   C1A65367   8.244  11.324   6.453
10157POPC   D2A65368   8.174  11.262   6.753
10157POPC   C3A65369   8.184  11.296   7.053
10157POPC   C4A65370   8.164  11.315   7.353
10157POPC   C1B65371   8.062  11.504   6.453
10157POPC   C2B65372   8.090  11.516   6.753
10157POPC   C3B65373   8.023  11.514   7.053
10157POPC   C4B65374   8.080  11.492   7.353
10158POPC   NC365375  36.940   8.177   5.553
10158POPC   PO465376  36.891   8.241   5.853
10158POPC   GL165377  36.884   8.148   6.153
10158POPC   GL265378  36.990   8.335   6.153
10158POPC   C1A65379  36.898   8.224   6.453
10158POPC   D2A65380  36.936   8.170   6.753
10158POPC   C3A65381  36.913   8.170   7.053
10158POPC   C4A65382  36.914   8.154   7.353
10158POPC   C1B65383  37.082   8.395   6.453
10158POPC   C2B65384  37.048   8.424   6.753
10158POPC   C3B65385  37.075   8.427   7.053
10158POPC   C4B65386  37.077   8.344   7.353
10159POPC   NC365387  25.295   9.791   5.553
10159POPC   PO465388  25.276   9.763   5.853
10159POPC   GL165389  25.275   9.743   6.153
10159POPC   GL265390  25.231   9.641   6.153
10159POPC   C1A65391  25.221   9.767   6.453
10159POPC   D2A65392  25.303   9.774   6.753
10159POPC   C3A65393  25.261   9.784   7.053
10159POPC   C4A65394  25.220   9.711   7.353
10159POPC   C1B65395  25.259   9.507   6.453
10159POPC   C2B65396  25.210   9.539   6.753
10159POPC   C3B65397  25.301   9.515   7.053
10159POPC   C4B65398  25.220   9.487   7.353
10160POPC   NC365399  33.785  24.512   5.553
10160POPC   PO465400  33.782  24.461   5.853
10160POPC   GL165401  33.837  24.451   6.153
10160POPC   GL265402  33.699  24.578   6.153
10160POPC   C1A65403  33.831  24.476   6.453
10160POPC   D2A65404  33.807  24.483   6.753
10160POPC   C3A65405  33.762  24.525   7.053
10160POPC   C4A65406  33.783  24.475   7.353
10160POPC   C1B65407  33.549  24.630   6.453
10160POPC   C2B65408  33.599  24.628   6.753
10160POPC   C3B65409  33.597  24.620   7.053
10160POPC   C4B65410  33.625  24.623   7.353
10161POPC   NC365411  15.194  32.273   5.553
10161POPC   PO465412  15.221  32.292   5.853
10161POPC   GL165413  15.154  32.254   6.153
10161POPC   GL265414  15.261  32.191   6.153
10161POPC   C1A65415  15.229  32.266   6.453
10161POPC   D2A65416  15.182  32.209   6.753
10161POPC   C3A65417  15.162  32.264   7.053
10161POPC   C4A65418  15.195  32.213   7.353
10161POPC   C1B65419  15.344  32.083   6.453
10161POPC   C2B65420  15.335  32.106   6.753
10161POPC   C3B65421  15.398  32.072   7.053
10161POPC   C4B65422  15.347  32.076   7.353
10162POPC   NC365423  30.730  22.905   5.553
10162POPC   PO465424  30.715  22.965   5.853
10162POPC   GL165425  30.743  22.904   6.153
10162POPC   GL265426  30.756  22.808   6.153
10162POPC   C1A65427  30.705  22.944   6.453
10162POPC   D2A65428  30.677  22.973   6.753
10162POPC   C3A65429  30.734  22.919   7.053
10162POPC   C4A65430  30.662  22.977   7.353
10162POPC   C1B65431  30.706  22.676   6.453
10162POPC   C2B65432  30.766  22.709   6.753
10162POPC   C3B65433  30.731  22.710   7.053
10162POPC   C4B65434  30.744  22.670   7.353
10163POPC   NC365435  15.225  22.183   5.553
10163POPC   PO465436  15.164  22.171   5.853
10163POPC   GL165437  15.138  22.143   6.153
10163POPC   GL265438  15.259  22.070   6.153
10163POPC   C1A65439  15.207  22.148   6.453
10163POPC   D2A65440  15.138  22.116   6.753
10163POPC   C3A65441  15.212  22.190   7.053
10163POPC   C4A65442  15.174  22.203   7.353
10163POPC   C1B65443  15.317  21.991   6.453
10163POPC   C2B65444  15.284  21.995   6.753
10163POPC   C3B65445  15.308  21.939   7.053
10163POPC   C4B65446  15.307  22.003   7.353
10164POPC   NC365447   1.173  44.687   5.553
10164POPC   PO465448   1.251  44.639   5.853
10164POPC   GL165449   1.224  44.639   6.153
10164POPC   GL265450   1.370  44.676   6.153
10164POPC   C1A65451   1.242  44.703   6.453
10164POPC   D2A65452   1.172  44.652   6.753
10164POPC   C3A65453   1.256  44.669   7.053
10164POPC   C4A65454   1.230  44.707   7.353
10164POPC   C1B65455   1.449  44.776   6.453
10164POPC   C2B65456   1.477  44.706   6.753
10164POPC   C3B65457   1.491  44.708   7.053
10164POPC   C4B65458   1.412  44.709   7.353
10165POPC   NC365459  19.796  33.778   5.553
10165POPC   PO465460  19.839  33.843   5.853
10165POPC   GL165461  19.865  33.838   6.153
10165POPC   GL265462  19.929  33.847   6.153
10165POPC   C1A65463  19.883  33.813   6.453
10165POPC   D2A65464  19.857  33.785   6.753
10165POPC   C3A65465  19.803  33.847   7.053
10165POPC   C4A65466  19.813  33.820   7.353
10165POPC   C1B65467  20.108  33.903   6.453
10165POPC   C2B65468  20.071  33.864   6.753
10165POPC   C3B65469  20.114  33.838   7.053
10165POPC   C4B65470  20.114  33.849   7.353
10166POPC   NC365471  39.254  33.032   5.553
10166POPC   PO465472  39.271  32.975   5.853
10166POPC   GL165473  39.203  33.065   6.153
10166POPC   GL265474  39.160  33.033   6.153
10166POPC   C1A65475  39.227  33.022   6.453
10166POPC   D2A65476  39.244  33.046   6.753
10166POPC   C3A65477  39.230  33.039   7.053
10166POPC   C4A65478  39.187  33.050   7.353
10166POPC   C1B65479  38.973  33.161   6.453
10166POPC   C2B65480  38.959  33.099   6.753
10166POPC   C3B65481  39.054  33.106   7.053
10166POPC   C4B65482  39.055  33.159   7.353
10167POPC   NC365483  26.844  36.174   5.553
10167POPC   PO465484  26.831  36.131   5.853
10167POPC   GL165485  26.854  36.084   6.153
10167POPC   GL265486  26.935  36.127   6.153
10167POPC   C1A65487  26.814  36.121   6.453
10167POPC   D2A65488  26.861  36.082   6.753
10167POPC   C3A65489  26.819  36.160   7.053
10167POPC   C4A65490  26.853  36.170   7.353
10167POPC   C1B65491  27.096  36.075   6.453
10167POPC   C2B65492  27.080  36.050   6.753
10167POPC   C3B65493  27.039  36.128   7.053
10167POPC   C4B65494  27.078  36.064   7.353
10168POPC   NC365495   5.113   8.160   5.553
10168POPC   PO465496   5.059   8.195   5.853
10168POPC   GL165497   5.064   8.198   6.153
10168POPC   GL265498   5.247   8.171   6.153
10168POPC   C1A65499   5.066   8.157   6.453
10168POPC   D2A65500   5.096   8.174   6.753
10168POPC   C3A65501   5.119   8.226   7.053
10168POPC   C4A65502   5.116   8.167   7.353
10168POPC   C1B65503   5.301   8.200   6.453
10168POPC   C2B65504   5.376   8.128   6.753
10168POPC   C3B65505   5.314   8.200   7.053
10168POPC   C4B65506   5.338   8.220   7.353
10169POPC   NC365507  36.865  15.941   5.553
10169POPC   PO465508  36.866  15.941   5.853
10169POPC   GL165509  36.923  16.005   6.153
10169POPC   GL265510  36.918  16.093   6.153
10169POPC   C1A65511  36.882  15.987   6.453
10169POPC   D2A65512  36.874  15.910   6.753
10169POPC   C3A65513  36.869  15.938   7.053
10169POPC   C4A65514  36.929  15.934   7.353
10169POPC   C1B65515  36.873  16.173   6.453
10169POPC   C2B65516  36.832  16.241   6.753
10169POPC   C3B65517  36.856  16.163   7.053
10169POPC   C4B65518  36.919  16.198   7.353
10170POPC   NC365519  33.067  32.991   5.553
10170POPC   PO465520  33.005  33.021   5.853
10170POPC   GL165521  33.010  33.043   6.153
10170POPC   GL265522  33.127  33.042   6.153
10170POPC   C1A65523  32.999  33.026   6.453
10170POPC   D2A65524  33.072  33.025   6.753
10170POPC   C3A65525  32.984  33.024   7.053
10170POPC   C4A65526  33.003  33.067   7.353
10170POPC   C1B65527  33.254  33.035   6.453
10170POPC   C2B65528  33.237  33.021   6.753
10170POPC   C3B65529  33.308  32.963   7.053
10170POPC   C4B65530  33.316  33.035   7.353
10171POPC   NC365531  23.760   6.626   5.553
10171POPC   PO465532  23.694   6.663   5.853
10171POPC   GL165533  23.739   6.642   6.153
10171POPC   GL265534  23.800   6.735   6.153
10171POPC   C1A65535  23.677   6.684   6.453
10171POPC   D2A65536  23.732   6.640   6.753
10171POPC   C3A65537  23.687   6.621   7.053
10171POPC   C4A65538  23.705   6.656   7.353
10171POPC   C1B65539  23.905   6.788   6.453
10171POPC   C2B65540  23.841   6.798   6.753
10171POPC   C3B65541  23.843   6.785   7.053
10171POPC   C4B65542  23.836   6.803   7.353
10172POPC   NC365543  12.884  33.072   5.553
10172POPC   PO465544  12.830  32.991   5.853
10172POPC   GL165545  12.809  33.055   6.153
10172POPC   GL265546  12.835  33.167   6.153
10172POPC   C1A65547  12.864  33.008   6.453
10172POPC   D2A65548  12.804  33.000   6.753
10172POPC   C3A65549  12.895  32.990   7.053
10172POPC   C4A65550  12.852  33.037   7.353
10172POPC   C1B65551  12.754  33.293   6.453
10172POPC   C2B65552  12.730  33.208   6.753
10172POPC   C3B65553  12.709  33.277   7.053
10172POPC   C4B65554  12.693  33.257   7.353
10173POPC   NC365555  19.830   6.597   5.553
10173POPC   PO465556  19.841   6.673   5.853
10173POPC   GL165557  19.834   6.674   6.153
10173POPC   GL265558  19.774   6.561   6.153
10173POPC   C1A65559  19.792   6.665   6.453
10173POPC   D2A65560  19.800   6.678   6.753
10173POPC   C3A65561  19.793   6.679   7.053
10173POPC   C4A65562  19.853   6.657   7.353
10173POPC   C1B65563  19.610   6.505   6.453
10173POPC   C2B65564  19.619   6.525   6.753
10173POPC   C3B65565  19.589   6.495   7.053
10173POPC   C4B65566  19.618   6.482   7.353
10174POPC   NC365567  21.421  44.687   5.553
10174POPC   PO465568  21.401  44.688   5.853
10174POPC   GL165569  21.422  44.629   6.153
10174POPC   GL265570  21.413  44.520   6.153
10174POPC   C1A65571  21.352  44.679   6.453
10174POPC   D2A65572  21.391  44.698   6.753
10174POPC   C3A65573  21.401  44.686   7.053
10174POPC   C4A65574  21.419  44.620   7.353
10174POPC   C1B65575  21.356  44.434   6.453
10174POPC   C2B65576  21.375  44.422   6.753
10174POPC   C3B65577  21.310  44.398   7.053
10174POPC   C4B65578  21.309  44.446   7.353
10175POPC   NC365579  41.526   4.276   5.553
10175POPC   PO465580  41.555   4.357   5.853
10175POPC   GL165581  41.563   4.366   6.153
10175POPC   GL265582  41.481   4.331   6.153
10175POPC   C1A65583  41.569   4.289   6.453
10175POPC   D2A65584  41.599   4.310   6.753
10175POPC   C3A65585  41.530   4.353   7.053
10175POPC   C4A65586  41.515   4.351   7.353
10175POPC   C1B65587  41.303   4.395   6.453
10175POPC   C2B65588  41.320   4.373   6.753
10175POPC   C3B65589  41.330   4.341   7.053
10175POPC   C4B65590  41.342   4.349   7.353
10176POPC   NC365591  19.055  26.035   5.553
10176POPC   PO465592  19.078  26.048   5.853
10176POPC   GL165593  19.026  26.023   6.153
10176POPC   GL265594  19.176  25.972   6.153
10176POPC   C1A65595  19.028  26.057   6.453
10176POPC   D2A65596  19.028  26.077   6.753
10176POPC   C3A65597  19.059  26.034   7.053
10176POPC   C4A65598  19.030  26.039   7.353
10176POPC   C1B65599  19.259  25.916   6.453
10176POPC   C2B65600  19.292  25.880   6.753
10176POPC   C3B65601  19.240  25.927   7.053
10176POPC   C4B65602  19.319  25.925   7.353
10177POPC   NC365603  32.211  10.481   5.553
10177POPC   PO465604  32.212  10.512   5.853
10177POPC   GL165605  32.212  10.532   6.153
10177POPC   GL265606  32.222  10.614   6.153
10177POPC   C1A65607  32.240  10.542   6.453
10177POPC   D2A65608  32.235  10.565   6.753
10177POPC   C3A65609  32.218  10.537   7.053
10177POPC   C4A65610  32.264  10.538   7.353
10177POPC   C1B65611  32.273  10.769   6.453
10177POPC   C2B65612  32.263  10.784   6.753
10177POPC   C3B65613  32.299  10.805   7.053
10177POPC   C4B65614  32.286  10.783   7.353
10178POPC   NC365615  31.469  12.030   5.553
10178POPC   PO465616  31.513  12.086   5.853
10178POPC   GL165617  31.508  12.113   6.153
10178POPC   GL265618  31.338  12.082   6.153
10178POPC   C1A65619  31.488  12.056   6.453
10178POPC   D2A65620  31.505  12.058   6.753
10178POPC   C3A65621  31.458  12.083   7.053
10178POPC   C4A65622  31.508  12.075   7.353
10178POPC   C1B65623  31.285  12.172   6.453
10178POPC   C2B65624  31.252  12.138   6.753
10178POPC   C3B65625  31.280  12.104   7.053
10178POPC   C4B65626  31.276  12.155   7.353
10179POPC   NC365627   2.731  43.918   5.553
10179POPC   PO465628   2.807  43.933   5.853
10179POPC   GL165629   2.767  43.889   6.153
10179POPC   GL265630   2.903  43.922   6.153
10179POPC   C1A65631   2.740  43.901   6.453
10179POPC   D2A65632   2.719  43.876   6.753
10179POPC   C3A65633   2.773  43.866   7.053
10179POPC   C4A65634   2.800  43.905   7.353
10179POPC   C1B65635   3.025  43.939   6.453
10179POPC   C2B65636   3.034  43.853   6.753
10179POPC   C3B65637   2.973  43.851   7.053
10179POPC   C4B65638   3.053  43.890   7.353
10180POPC   NC365639  14.384   9.731   5.553
10180POPC   PO465640  14.424   9.732   5.853
10180POPC   GL165641  14.368   9.740   6.153
10180POPC   GL265642  14.525   9.781   6.153
10180POPC   C1A65643  14.411   9.783   6.453
10180POPC   D2A65644  14.453   9.752   6.753
10180POPC   C3A65645  14.384   9.729   7.053
10180POPC   C4A65646  14.418   9.737   7.353
10180POPC   C1B65647  14.591   9.860   6.453
10180POPC   C2B65648  14.651   9.863   6.753
10180POPC   C3B65649  14.618   9.927   7.053
10180POPC   C4B65650  14.597   9.849   7.353
10181POPC   NC365651  26.077  26.061   5.553
10181POPC   PO465652  26.053  26.076   5.853
10181POPC   GL165653  26.075  26.014   6.153
10181POPC   GL265654  25.929  26.174   6.153
10181POPC   C1A65655  26.079  26.000   6.453
10181POPC   D2A65656  26.040  26.084   6.753
10181POPC   C3A65657  26.075  26.018   7.053
10181POPC   C4A65658  26.032  26.073   7.353
10181POPC   C1B65659  25.925  26.184   6.453
10181POPC   C2B65660  25.926  26.192   6.753
10181POPC   C3B65661  25.879  26.267   7.053
10181POPC   C4B65662  25.932  26.225   7.353
10182POPC   NC365663  16.716   1.233   5.553
10182POPC   PO465664  16.768   1.206   5.853
10182POPC   GL165665  16.727   1.249   6.153
10182POPC   GL265666  16.801   1.142   6.153
10182POPC   C1A65667  16.717   1.213   6.453
10182POPC   D2A65668  16.714   1.261   6.753
10182POPC   C3A65669  16.777   1.208   7.053
10182POPC   C4A65670  16.763   1.253   7.353
10182POPC   C1B65671  16.861   1.003   6.453
10182POPC   C2B65672  16.833   0.987   6.753
10182POPC   C3B65673  16.831   0.998   7.053
10182POPC   C4B65674  16.839   1.020   7.353
10183POPC   NC365675  10.538  41.541   5.553
10183POPC   PO465676  10.496  41.591   5.853
10183POPC   GL165677  10.510  41.540   6.153
10183POPC   GL265678  10.436  41.643   6.153
10183POPC   C1A65679  10.550  41.586   6.453
10183POPC   D2A65680  10.567  41.574   6.753
10183POPC   C3A65681  10.492  41.524   7.053
10183POPC   C4A65682  10.478  41.524   7.353
10183POPC   C1B65683  10.402  41.800   6.453
10183POPC   C2B65684  10.452  41.826   6.753
10183POPC   C3B65685  10.474  41.821   7.053
10183POPC   C4B65686  10.432  41.762   7.353
10184POPC   NC365687  35.313  44.710   5.553
10184POPC   PO465688  35.305  44.682   5.853
10184POPC   GL165689  35.353  44.658   6.153
10184POPC   GL265690  35.469  44.668   6.153
10184POPC   C1A65691  35.315  44.620   6.453
10184POPC   D2A65692  35.359  44.684   6.753
10184POPC   C3A65693  35.349  44.659   7.053
10184POPC   C4A65694  35.314  44.644   7.353
10184POPC   C1B65695  35.570  44.636   6.453
10184POPC   C2B65696  35.600  44.666   6.753
10184POPC   C3B65697  35.592  44.646   7.053
10184POPC   C4B65698  35.589  44.608   7.353
10185POPC   NC365699  12.884  27.595   5.553
10185POPC   PO465700  12.870  27.623   5.853
10185POPC   GL165701  12.895  27.583   6.153
10185POPC   GL265702  12.814  27.671   6.153
10185POPC   C1A65703  12.869  27.590   6.453
10185POPC   D2A65704  12.851  27.579   6.753
10185POPC   C3A65705  12.827  27.546   7.053
10185POPC   C4A65706  12.882  27.631   7.353
10185POPC   C1B65707  12.887  27.827   6.453
10185POPC   C2B65708  12.850  27.804   6.753
10185POPC   C3B65709  12.923  27.855   7.053
10185POPC   C4B65710  12.902  27.868   7.353
10186POPC   NC365711   7.414  26.020   5.553
10186POPC   PO465712   7.418  26.056   5.853
10186POPC   GL165713   7.391  26.086   6.153
10186POPC   GL265714   7.410  25.921   6.153
10186POPC   C1A65715   7.400  26.009   6.453
10186POPC   D2A65716   7.389  26.011   6.753
10186POPC   C3A65717   7.419  26.012   7.053
10186POPC   C4A65718   7.439  26.075   7.353
10186POPC   C1B65719   7.474  25.782   6.453
10186POPC   C2B65720   7.499  25.813   6.753
10186POPC   C3B65721   7.439  25.802   7.053
10186POPC   C4B65722   7.430  25.830   7.353
10187POPC   NC365723  11.295  43.917   5.553
10187POPC   PO465724  11.312  43.905   5.853
10187POPC   GL165725  11.331  43.838   6.153
10187POPC   GL265726  11.222  43.790   6.153
10187POPC   C1A65727  11.336  43.917   6.453
10187POPC   D2A65728  11.254  43.876   6.753
10187POPC   C3A65729  11.332  43.895   7.053
10187POPC   C4A65730  11.276  43.847   7.353
10187POPC   C1B65731  11.198  43.627   6.453
10187POPC   C2B65732  11.165  43.708   6.753
10187POPC   C3B65733  11.165  43.706   7.053
10187POPC   C4B65734  11.165  43.642   7.353
10188POPC   NC365735   2.738  11.310   5.553
10188POPC   PO465736   2.753  11.259   5.853
10188POPC   GL165737   2.718  11.294   6.153
10188POPC   GL265738   2.747  11.379   6.153
10188POPC   C1A65739   2.733  11.330   6.453
10188POPC   D2A65740   2.761  11.310   6.753
10188POPC   C3A65741   2.741  11.348   7.053
10188POPC   C4A65742   2.806  11.330   7.353
10188POPC   C1B65743   2.745  11.572   6.453
10188POPC   C2B65744   2.725  11.523   6.753
10188POPC   C3B65745   2.707  11.594   7.053
10188POPC   C4B65746   2.748  11.539   7.353
10189POPC   NC365747  29.889   3.534   5.553
10189POPC   PO465748  29.891   3.546   5.853
10189POPC   GL165749  29.944   3.583   6.153
10189POPC   GL265750  29.916   3.436   6.153
10189POPC   C1A65751  29.955   3.531   6.453
10189POPC   D2A65752  29.922   3.562   6.753
10189POPC   C3A65753  29.879   3.579   7.053
10189POPC   C4A65754  29.890   3.546   7.353
10189POPC   C1B65755  29.851   3.280   6.453
10189POPC   C2B65756  29.865   3.312   6.753
10189POPC   C3B65757  29.877   3.262   7.053
10189POPC   C4B65758  29.852   3.320   7.353
10190POPC   NC365759  25.271   6.685   5.553
10190POPC   PO465760  25.280   6.666   5.853
10190POPC   GL165761  25.230   6.596   6.153
10190POPC   GL265762  25.212   6.496   6.153
10190POPC   C1A65763  25.290   6.675   6.453
10190POPC   D2A65764  25.268   6.658   6.753
10190POPC   C3A65765  25.224   6.648   7.053
10190POPC   C4A65766  25.271   6.611   7.353
10190POPC   C1B65767  25.161   6.423   6.453
10190POPC   C2B65768  25.187   6.408   6.753
10190POPC   C3B65769  25.194   6.422   7.053
10190POPC   C4B65770  25.187   6.406   7.353
10191POPC   NC365771  28.322  41.581   5.553
10191POPC   PO465772  28.377  41.582   5.853
10191POPC   GL165773  28.340  41.541   6.153
10191POPC   GL265774  28.265  41.615   6.153
10191POPC   C1A65775  28.329  41.599   6.453
10191POPC   D2A65776  28.346  41.557   6.753
10191POPC   C3A65777  28.399  41.530   7.053
10191POPC   C4A65778  28.344  41.569   7.353
10191POPC   C1B65779  28.198  41.685   6.453
10191POPC   C2B65780  28.178  41.667   6.753
10191POPC   C3B65781  28.136  41.671   7.053
10191POPC   C4B65782  28.163  41.704   7.353
10192POPC   NC365783   3.495  34.609   5.553
10192POPC   PO465784   3.495  34.588   5.853
10192POPC   GL165785   3.529  34.623   6.153
10192POPC   GL265786   3.483  34.620   6.153
10192POPC   C1A65787   3.522  34.554   6.453
10192POPC   D2A65788   3.545  34.540   6.753
10192POPC   C3A65789   3.561  34.606   7.053
10192POPC   C4A65790   3.497  34.595   7.353
10192POPC   C1B65791   3.338  34.675   6.453
10192POPC   C2B65792   3.365  34.741   6.753
10192POPC   C3B65793   3.381  34.713   7.053
10192POPC   C4B65794   3.295  34.759   7.353
10193POPC   NC365795  43.853  34.527   5.553
10193POPC   PO465796  43.925  34.564   5.853
10193POPC   GL165797  43.891  34.560   6.153
10193POPC   GL265798  43.791  34.634   6.153
10193POPC   C1A65799  43.926  34.527   6.453
10193POPC   D2A65800  43.891  34.566   6.753
10193POPC   C3A65801  43.843  34.559   7.053
10193POPC   C4A65802  43.921  34.606   7.353
10193POPC   C1B65803  43.699  34.728   6.453
10193POPC   C2B65804  43.690  34.690   6.753
10193POPC   C3B65805  43.675  34.696   7.053
10193POPC   C4B65806  43.670  34.743   7.353
10194POPC   NC365807   5.102  12.854   5.553
10194POPC   PO465808   5.090  12.854   5.853
10194POPC   GL165809   5.133  12.891   6.153
10194POPC   GL265810   5.124  13.009   6.153
10194POPC   C1A65811   5.115  12.832   6.453
10194POPC   D2A65812   5.134  12.837   6.753
10194POPC   C3A65813   5.069  12.821   7.053
10194POPC   C4A65814   5.076  12.870   7.353
10194POPC   C1B65815   5.100  13.079   6.453
10194POPC   C2B65816   5.083  13.146   6.753
10194POPC   C3B65817   5.141  13.066   7.053
10194POPC   C4B65818   5.088  13.113   7.353
10195POPC   NC365819  37.672  18.331   5.553
10195POPC   PO465820  37.713  18.240   5.853
10195POPC   GL165821  37.711  18.264   6.153
10195POPC   GL265822  37.512  18.264   6.153
10195POPC   C1A65823  37.707  18.275   6.453
10195POPC   D2A65824  37.727  18.235   6.753
10195POPC   C3A65825  37.723  18.314   7.053
10195POPC   C4A65826  37.700  18.316   7.353
10195POPC   C1B65827  37.453  18.303   6.453
10195POPC   C2B65828  37.475  18.270   6.753
10195POPC   C3B65829  37.404  18.280   7.053
10195POPC   C4B65830  37.394  18.255   7.353
10196POPC   NC365831  10.569   5.832   5.553
10196POPC   PO465832  10.499   5.848   5.853
10196POPC   GL165833  10.522   5.851   6.153
10196POPC   GL265834  10.501   5.987   6.153
10196POPC   C1A65835  10.495   5.862   6.453
10196POPC   D2A65836  10.508   5.859   6.753
10196POPC   C3A65837  10.540   5.895   7.053
10196POPC   C4A65838  10.543   5.886   7.353
10196POPC   C1B65839  10.460   6.106   6.453
10196POPC   C2B65840  10.511   6.111   6.753
10196POPC   C3B65841  10.521   6.151   7.053
10196POPC   C4B65842  10.450   6.107   7.353
10197POPC   NC365843  40.807  13.659   5.553
10197POPC   PO465844  40.757  13.667   5.853
10197POPC   GL165845  40.772  13.638   6.153
10197POPC   GL265846  40.849  13.741   6.153
10197POPC   C1A65847  40.742  13.634   6.453
10197POPC   D2A65848  40.760  13.666   6.753
10197POPC   C3A65849  40.752  13.593   7.053
10197POPC   C4A65850  40.754  13.580   7.353
10197POPC   C1B65851  40.876  13.791   6.453
10197POPC   C2B65852  40.917  13.882   6.753
10197POPC   C3B65853  40.969  13.819   7.053
10197POPC   C4B65854  40.964  13.800   7.353
10198POPC   NC365855  44.700  40.778   5.553
10198POPC   PO465856  44.690  40.760   5.853
10198POPC   GL165857  44.668  40.775   6.153
10198POPC   GL265858  44.565  40.733   6.153
10198POPC   C1A65859  44.627  40.757   6.453
10198POPC   D2A65860  44.675  40.805   6.753
10198POPC   C3A65861  44.689  40.793   7.053
10198POPC   C4A65862  44.676  40.777   7.353
10198POPC   C1B65863  44.422  40.607   6.453
10198POPC   C2B65864  44.457  40.670   6.753
10198POPC   C3B65865  44.466  40.622   7.053
10198POPC   C4B65866  44.493  40.658   7.353
10199POPC   NC365867  27.633  29.939   5.553
10199POPC   PO465868  27.592  29.907   5.853
10199POPC   GL165869  27.643  29.911   6.153
10199POPC   GL265870  27.704  30.016   6.153
10199POPC   C1A65871  27.618  29.936   6.453
10199POPC   D2A65872  27.578  29.899   6.753
10199POPC   C3A65873  27.628  29.871   7.053
10199POPC   C4A65874  27.641  29.889   7.353
10199POPC   C1B65875  27.743  30.113   6.453
10199POPC   C2B65876  27.759  30.139   6.753
10199POPC   C3B65877  27.782  30.084   7.053
10199POPC   C4B65878  27.741  30.161   7.353
10200POPC   NC365879  29.121  22.207   5.553
10200POPC   PO465880  29.179  22.126   5.853
10200POPC   GL165881  29.106  22.183   6.153
10200POPC   GL265882  29.271  22.272   6.153
10200POPC   C1A65883  29.183  22.181   6.453
10200POPC   D2A65884  29.190  22.168   6.753
10200POPC   C3A65885  29.182  22.153   7.053
10200POPC   C4A65886  29.178  22.177   7.353
10200POPC   C1B65887  29.315  22.323   6.453
10200POPC   C2B65888  29.379  22.358   6.753
10200POPC   C3B65889  29.379  22.329   7.053
10200POPC   C4B65890  29.354  22.345   7.353
10201POPC   NC365891  39.241  25.282   5.553
10201POPC   PO465892  39.193  25.254   5.853
10201POPC   GL165893  39.255  25.297   6.153
10201POPC   GL265894  39.206  25.400   6.153
10201POPC   C1A65895  39.182  25.280   6.453
10201POPC   D2A65896  39.275  25.293   6.753
10201POPC   C3A65897  39.189  25.284   7.053
10201POPC   C4A65898  39.271  25.311   7.353
10201POPC   C1B65899  39.127  25.539   6.453
10201POPC   C2B65900  39.116  25.447   6.753
10201POPC   C3B65901  39.132  25.482   7.053
10201POPC   C4B65902  39.138  25.523   7.353
10202POPC   NC365903  20.571  26.850   5.553
10202POPC   PO465904  20.607  26.829   5.853
10202POPC   GL165905  20.631  26.851   6.153
10202POPC   GL265906  20.479  26.915   6.153
10202POPC   C1A65907  20.618  26.772   6.453
10202POPC   D2A65908  20.618  26.827   6.753
10202POPC   C3A65909  20.601  26.867   7.053
10202POPC   C4A65910  20.657  26.807   7.353
10202POPC   C1B65911  20.430  26.975   6.453
10202POPC   C2B65912  20.364  26.991   6.753
10202POPC   C3B65913  20.385  26.950   7.053
10202POPC   C4B65914  20.404  26.976   7.353
10203POPC   NC365915  22.962  14.356   5.553
10203POPC   PO465916  22.978  14.439   5.853
10203POPC   GL165917  22.988  14.422   6.153
10203POPC   GL265918  22.846  14.345   6.153
10203POPC   C1A65919  22.908  14.373   6.453
10203POPC   D2A65920  22.961  14.448   6.753
10203POPC   C3A65921  22.984  14.452   7.053
10203POPC   C4A65922  22.963  14.430   7.353
10203POPC   C1B65923  22.669  14.338   6.453
10203POPC   C2B65924  22.722  14.305   6.753
10203POPC   C3B65925  22.744  14.285   7.053
10203POPC   C4B65926  22.687  14.381   7.353
10204POPC   NC365927  30.717  25.228   5.553
10204POPC   PO465928  30.672  25.295   5.853
10204POPC   GL165929  30.660  25.292   6.153
10204POPC   GL265930  30.805  25.267   6.153
10204POPC   C1A65931  30.650  25.258   6.453
10204POPC   D2A65932  30.702  25.282   6.753
10204POPC   C3A65933  30.741  25.296   7.053
10204POPC   C4A65934  30.733  25.229   7.353
10204POPC   C1B65935  30.986  25.258   6.453
10204POPC   C2B65936  30.928  25.199   6.753
10204POPC   C3B65937  30.955  25.183   7.053
10204POPC   C4B65938  30.978  25.275   7.353
10205POPC   NC365939  35.343  28.391   5.553
10205POPC   PO465940  35.340  28.333   5.853
10205POPC   GL165941  35.384  28.344   6.153
10205POPC   GL265942  35.313  28.451   6.153
10205POPC   C1A65943  35.397  28.380   6.453
10205POPC   D2A65944  35.340  28.329   6.753
10205POPC   C3A65945  35.396  28.348   7.053
10205POPC   C4A65946  35.339  28.405   7.353
10205POPC   C1B65947  35.227  28.539   6.453
10205POPC   C2B65948  35.167  28.573   6.753
10205POPC   C3B65949  35.221  28.531   7.053
10205POPC   C4B65950  35.250  28.626   7.353
10206POPC   NC365951   5.866   3.551   5.553
10206POPC   PO465952   5.915   3.506   5.853
10206POPC   GL165953   5.821   3.587   6.153
10206POPC   GL265954   5.819   3.665   6.153
10206POPC   C1A65955   5.901   3.540   6.453
10206POPC   D2A65956   5.893   3.533   6.753
10206POPC   C3A65957   5.862   3.521   7.053
10206POPC   C4A65958   5.901   3.554   7.353
10206POPC   C1B65959   5.845   3.756   6.453
10206POPC   C2B65960   5.824   3.740   6.753
10206POPC   C3B65961   5.781   3.791   7.053
10206POPC   C4B65962   5.842   3.813   7.353
10207POPC   NC365963  42.332  36.084   5.553
10207POPC   PO465964  42.367  36.084   5.853
10207POPC   GL165965  42.336  36.108   6.153
10207POPC   GL265966  42.222  36.103   6.153
10207POPC   C1A65967  42.320  36.135   6.453
10207POPC   D2A65968  42.317  36.104   6.753
10207POPC   C3A65969  42.369  36.109   7.053
10207POPC   C4A65970  42.339  36.175   7.353
10207POPC   C1B65971  42.091  36.138   6.453
10207POPC   C2B65972  42.131  36.149   6.753
10207POPC   C3B65973  42.099  36.134   7.053
10207POPC   C4B65974  42.117  36.084   7.353
10208POPC   NC365975  13.647  34.559   5.553
10208POPC   PO465976  13.623  34.601   5.853
10208POPC   GL165977  13.628  34.615   6.153
10208POPC   GL265978  13.773  34.646   6.153
10208POPC   C1A65979  13.650  34.599   6.453
10208POPC   D2A65980  13.618  34.581   6.753
10208POPC   C3A65981  13.624  34.591   7.053
10208POPC   C4A65982  13.643  34.546   7.353
10208POPC   C1B65983  13.886  34.690   6.453
10208POPC   C2B65984  13.825  34.686   6.753
10208POPC   C3B65985  13.848  34.605   7.053
10208POPC   C4B65986  13.861  34.666   7.353
10209POPC   NC365987  22.162   5.864   5.553
10209POPC   PO465988  22.181   5.848   5.853
10209POPC   GL165989  22.153   5.841   6.153
10209POPC   GL265990  22.265   5.785   6.153
10209POPC   C1A65991  22.211   5.869   6.453
10209POPC   D2A65992  22.179   5.860   6.753
10209POPC   C3A65993  22.171   5.827   7.053
10209POPC   C4A65994  22.160   5.884   7.353
10209POPC   C1B65995  22.346   5.689   6.453
10209POPC   C2B65996  22.335   5.732   6.753
10209POPC   C3B65997  22.366   5.746   7.053
10209POPC   C4B65998  22.383   5.745   7.353
10210POPC   NC365999  33.010   3.533   5.553
10210POPC   PO466000  33.038   3.507   5.853
10210POPC   GL166001  32.974   3.495   6.153
10210POPC   GL266002  32.951   3.415   6.153
10210POPC   C1A66003  32.999   3.584   6.453
10210POPC   D2A66004  32.990   3.525   6.753
10210POPC   C3A66005  33.002   3.564   7.053
10210POPC   C4A66006  32.981   3.563   7.353
10210POPC   C1B66007  32.872   3.387   6.453
10210POPC   C2B66008  32.819   3.381   6.753
10210POPC   C3B66009  32.865   3.309   7.053
10210POPC   C4B66010  32.861   3.316   7.353
10211POPC   NC366011  19.859   2.776   5.553
10211POPC   PO466012  19.812   2.801   5.853
10211POPC   GL166013  19.830   2.793   6.153
10211POPC   GL266014  19.727   2.801   6.153
10211POPC   C1A66015  19.870   2.775   6.453
10211POPC   D2A66016  19.882   2.810   6.753
10211POPC   C3A66017  19.842   2.723   7.053
10211POPC   C4A66018  19.853   2.790   7.353
10211POPC   C1B66019  19.540   2.759   6.453
10211POPC   C2B66020  19.554   2.841   6.753
10211POPC   C3B66021  19.636   2.797   7.053
10211POPC   C4B66022  19.598   2.809   7.353
10212POPC   NC366023  11.339  26.860   5.553
10212POPC   PO466024  11.266  26.816   5.853
10212POPC   GL166025  11.343  26.846   6.153
10212POPC   GL266026  11.366  26.651   6.153
10212POPC   C1A66027  11.297  26.817   6.453
10212POPC   D2A66028  11.261  26.862   6.753
10212POPC   C3A66029  11.333  26.847   7.053
10212POPC   C4A66030  11.299  26.850   7.353
10212POPC   C1B66031  11.356  26.530   6.453
10212POPC   C2B66032  11.338  26.610   6.753
10212POPC   C3B66033  11.345  26.521   7.053
10212POPC   C4B66034  11.374  26.600   7.353
10213POPC   NC366035  43.867  35.340   5.553
10213POPC   PO466036  43.924  35.362   5.853
10213POPC   GL166037  43.851  35.359   6.153
10213POPC   GL266038  43.914  35.500   6.153
10213POPC   C1A66039  43.853  35.367   6.453
10213POPC   D2A66040  43.930  35.365   6.753
10213POPC   C3A66041  43.884  35.344   7.053
10213POPC   C4A66042  43.887  35.335   7.353
10213POPC   C1B66043  43.919  35.549   6.453
10213POPC   C2B66044  43.939  35.584   6.753
10213POPC   C3B66045  43.932  35.585   7.053
10213POPC   C4B66046  43.919  35.632   7.353
10214POPC   NC366047  14.443  19.785   5.553
10214POPC   PO466048  14.449  19.828   5.853
10214POPC   GL166049  14.410  19.788   6.153
10214POPC   GL266050  14.430  19.759   6.153
10214POPC   C1A66051  14.364  19.790   6.453
10214POPC   D2A66052  14.402  19.882   6.753
10214POPC   C3A66053  14.398  19.819   7.053
10214POPC   C4A66054  14.375  19.805   7.353
10214POPC   C1B66055  14.515  19.586   6.453
10214POPC   C2B66056  14.563  19.657   6.753
10214POPC   C3B66057  14.514  19.601   7.053
10214POPC   C4B66058  14.477  19.589   7.353
10215POPC   NC366059  25.262  38.457   5.553
10215POPC   PO466060  25.289  38.440   5.853
10215POPC   GL166061  25.240  38.434   6.153
10215POPC   GL266062  25.133  38.434   6.153
10215POPC   C1A66063  25.217  38.464   6.453
10215POPC   D2A66064  25.237  38.415   6.753
10215POPC   C3A66065  25.299  38.460   7.053
10215POPC   C4A66066  25.252  38.418   7.353
10215POPC   C1B66067  25.017  38.369   6.453
10215POPC   C2B66068  25.036  38.420   6.753
10215POPC   C3B66069  25.063  38.423   7.053
10215POPC   C4B66070  25.016  38.408   7.353
10216POPC   NC366071  33.008   8.240   5.553
10216POPC   PO466072  33.055   8.164   5.853
10216POPC   GL166073  33.044   8.232   6.153
10216POPC   GL266074  33.107   8.154   6.153
10216POPC   C1A66075  32.987   8.239   6.453
10216POPC   D2A66076  32.999   8.156   6.753
10216POPC   C3A66077  33.033   8.152   7.053
10216POPC   C4A66078  32.986   8.240   7.353
10216POPC   C1B66079  33.218   8.163   6.453
10216POPC   C2B66080  33.263   8.179   6.753
10216POPC   C3B66081  33.310   8.159   7.053
10216POPC   C4B66082  33.222   8.172   7.353
10217POPC   NC366083  36.918  34.548   5.553
10217POPC   PO466084  36.886  34.547   5.853
10217POPC   GL166085  36.949  34.595   6.153
10217POPC   GL266086  36.850  34.466   6.153
10217POPC   C1A66087  36.861  34.562   6.453
10217POPC   D2A66088  36.911  34.609   6.753
10217POPC   C3A66089  36.865  34.551   7.053
10217POPC   C4A66090  36.922  34.591   7.353
10217POPC   C1B66091  36.716  34.363   6.453
10217POPC   C2B66092  36.705  34.371   6.753
10217POPC   C3B66093  36.709  34.434   7.053
10217POPC   C4B66094  36.719  34.354   7.353
10218POPC   NC366095  12.857  18.327   5.553
10218POPC   PO466096  12.879  18.247   5.853
10218POPC   GL166097  12.812  18.304   6.153
10218POPC   GL266098  12.875  18.188   6.153
10218POPC   C1A66099  12.892  18.323   6.453
10218POPC   D2A66100  12.860  18.290   6.753
10218POPC   C3A66101  12.860  18.254   7.053
10218POPC   C4A66102  12.877  18.279   7.353
10218POPC   C1B66103  12.856  17.993   6.453
10218POPC   C2B66104  12.781  17.998   6.753
10218POPC   C3B66105  12.817  18.053   7.053
10218POPC   C4B66106  12.830  18.051   7.353
10219POPC   NC366107   2.770  21.429   5.553
10219POPC   PO466108   2.735  21.425   5.853
10219POPC   GL166109   2.737  21.400   6.153
10219POPC   GL266110   2.737  21.489   6.153
10219POPC   C1A66111   2.804  21.339   6.453
10219POPC   D2A66112   2.775  21.426   6.753
10219POPC   C3A66113   2.781  21.347   7.053
10219POPC   C4A66114   2.740  21.433   7.353
10219POPC   C1B66115   2.774  21.674   6.453
10219POPC   C2B66116   2.831  21.607   6.753
10219POPC   C3B66117   2.754  21.592   7.053
10219POPC   C4B66118   2.797  21.656   7.353
10220POPC   NC366119   0.420  22.933   5.553
10220POPC   PO466120   0.468  22.958   5.853
10220POPC   GL166121   0.484  22.967   6.153
10220POPC   GL266122   0.521  23.029   6.153
10220POPC   C1A66123   0.433  22.921   6.453
10220POPC   D2A66124   0.421  22.954   6.753
10220POPC   C3A66125   0.436  22.981   7.053
10220POPC   C4A66126   0.422  22.960   7.353
10220POPC   C1B66127   0.676  23.032   6.453
10220POPC   C2B66128   0.620  23.027   6.753
10220POPC   C3B66129   0.615  23.092   7.053
10220POPC   C4B66130   0.622  23.090   7.353
10221POPC   NC366131   2.795  15.947   5.553
10221POPC   PO466132   2.764  15.998   5.853
10221POPC   GL166133   2.808  15.982   6.153
10221POPC   GL266134   2.804  16.048   6.153
10221POPC   C1A66135   2.807  16.005   6.453
10221POPC   D2A66136   2.809  15.990   6.753
10221POPC   C3A66137   2.727  15.981   7.053
10221POPC   C4A66138   2.794  15.937   7.353
10221POPC   C1B66139   2.775  16.174   6.453
10221POPC   C2B66140   2.851  16.210   6.753
10221POPC   C3B66141   2.805  16.192   7.053
10221POPC   C4B66142   2.788  16.244   7.353
10222POPC   NC366143   7.454   2.741   5.553
10222POPC   PO466144   7.425   2.811   5.853
10222POPC   GL166145   7.464   2.729   6.153
10222POPC   GL266146   7.556   2.819   6.153
10222POPC   C1A66147   7.456   2.786   6.453
10222POPC   D2A66148   7.406   2.721   6.753
10222POPC   C3A66149   7.437   2.795   7.053
10222POPC   C4A66150   7.454   2.799   7.353
10222POPC   C1B66151   7.643   2.866   6.453
10222POPC   C2B66152   7.639   2.883   6.753
10222POPC   C3B66153   7.674   2.826   7.053
10222POPC   C4B66154   7.694   2.862   7.353
10223POPC   NC366155  11.319  37.725   5.553
10223POPC   PO466156  11.306  37.672   5.853
10223POPC   GL166157  11.306  37.639   6.153
10223POPC   GL266158  11.408  37.794   6.153
10223POPC   C1A66159  11.313  37.644   6.453
10223POPC   D2A66160  11.267  37.679   6.753
10223POPC   C3A66161  11.272  37.640   7.053
10223POPC   C4A66162  11.330  37.682   7.353
10223POPC   C1B66163  11.466  37.858   6.453
10223POPC   C2B66164  11.448  37.862   6.753
10223POPC   C3B66165  11.419  37.857   7.053
10223POPC   C4B66166  11.409  37.897   7.353
10224POPC   NC366167  40.017  35.323   5.553
10224POPC   PO466168  40.031  35.312   5.853
10224POPC   GL166169  39.969  35.310   6.153
10224POPC   GL266170  40.087  35.396   6.153
10224POPC   C1A66171  39.970  35.324   6.453
10224POPC   D2A66172  40.014  35.389   6.753
10224POPC   C3A66173  39.996  35.396   7.053
10224POPC   C4A66174  40.031  35.391   7.353
10224POPC   C1B66175  40.279  35.348   6.453
10224POPC   C2B66176  40.303  35.347   6.753
10224POPC   C3B66177  40.215  35.382   7.053
10224POPC   C4B66178  40.238  35.390   7.353
10225POPC   NC366179  39.963  11.261   5.553
10225POPC   PO466180  40.056  11.254   5.853
10225POPC   GL166181  39.987  11.253   6.153
10225POPC   GL266182  40.089  11.273   6.153
10225POPC   C1A66183  40.012  11.260   6.453
10225POPC   D2A66184  39.998  11.293   6.753
10225POPC   C3A66185  40.048  11.316   7.053
10225POPC   C4A66186  39.997  11.275   7.353
10225POPC   C1B66187  40.235  11.213   6.453
10225POPC   C2B66188  40.218  11.247   6.753
10225POPC   C3B66189  40.248  11.216   7.053
10225POPC   C4B66190  40.213  11.219   7.353
10226POPC   NC366191  28.331  42.336   5.553
10226POPC   PO466192  28.331  42.369   5.853
10226POPC   GL166193  28.370  42.293   6.153
10226POPC   GL266194  28.224  42.317   6.153
10226POPC   C1A66195  28.413  42.321   6.453
10226POPC   D2A66196  28.390  42.326   6.753
10226POPC   C3A66197  28.370  42.340   7.053
10226POPC   C4A66198  28.416  42.339   7.353
10226POPC   C1B66199  28.125  42.308   6.453
10226POPC   C2B66200  28.106  42.382   6.753
10226POPC   C3B66201  28.125  42.360   7.053
10226POPC   C4B66202  28.158  42.345   7.353
10227POPC   NC366203  12.869  32.243   5.553
10227POPC   PO466204  12.893  32.231   5.853
10227POPC   GL166205  12.817  32.223   6.153
10227POPC   GL266206  12.811  32.357   6.153
10227POPC   C1A66207  12.887  32.262   6.453
10227POPC   D2A66208  12.811  32.274   6.753
10227POPC   C3A66209  12.866  32.287   7.053
10227POPC   C4A66210  12.849  32.231   7.353
10227POPC   C1B66211  12.676  32.463   6.453
10227POPC   C2B66212  12.725  32.416   6.753
10227POPC   C3B66213  12.673  32.462   7.053
10227POPC   C4B66214  12.703  32.436   7.353
10228POPC   NC366215   1.182  39.245   5.553
10228POPC   PO466216   1.167  39.237   5.853
10228POPC   GL166217   1.192  39.204   6.153
10228POPC   GL266218   1.077  39.330   6.153
10228POPC   C1A66219   1.177  39.254   6.453
10228POPC   D2A66220   1.165  39.267   6.753
10228POPC   C3A66221   1.181  39.185   7.053
10228POPC   C4A66222   1.237  39.256   7.353
10228POPC   C1B66223   1.037  39.324   6.453
10228POPC   C2B66224   1.035  39.387   6.753
10228POPC   C3B66225   0.965  39.381   7.053
10228POPC   C4B66226   0.947  39.295   7.353
10229POPC   NC366227  30.662  43.112   5.553
10229POPC   PO466228  30.728  43.066   5.853
10229POPC   GL166229  30.707  43.140   6.153
10229POPC   GL266230  30.546  43.118   6.153
10229POPC   C1A66231  30.655  43.145   6.453
10229POPC   D2A66232  30.734  43.141   6.753
10229POPC   C3A66233  30.685  43.069   7.053
10229POPC   C4A66234  30.682  43.135   7.353
10229POPC   C1B66235  30.479  43.043   6.453
10229POPC   C2B66236  30.433  43.101   6.753
10229POPC   C3B66237  30.406  43.058   7.053
10229POPC   C4B66238  30.431  43.101   7.353
10230POPC   NC366239   1.247  36.078   5.553
10230POPC   PO466240   1.224  36.140   5.853
10230POPC   GL166241   1.208  36.111   6.153
10230POPC   GL266242   1.092  36.089   6.153
10230POPC   C1A66243   1.227  36.113   6.453
10230POPC   D2A66244   1.203  36.087   6.753
10230POPC   C3A66245   1.210  36.131   7.053
10230POPC   C4A66246   1.249  36.088   7.353
10230POPC   C1B66247   0.991  35.992   6.453
10230POPC   C2B66248   1.016  36.021   6.753
10230POPC   C3B66249   1.048  35.938   7.053
10230POPC   C4B66250   1.058  35.957   7.353
10231POPC   NC366251  23.724  22.912   5.553
10231POPC   PO466252  23.758  22.888   5.853
10231POPC   GL166253  23.721  22.965   6.153
10231POPC   GL266254  23.626  22.890   6.153
10231POPC   C1A66255  23.725  22.914   6.453
10231POPC   D2A66256  23.756  22.972   6.753
10231POPC   C3A66257  23.678  22.914   7.053
10231POPC   C4A66258  23.666  22.973   7.353
10231POPC   C1B66259  23.451  22.821   6.453
10231POPC   C2B66260  23.501  22.867   6.753
10231POPC   C3B66261  23.450  22.852   7.053
10231POPC   C4B66262  23.493  22.849   7.353
10232POPC   NC366263   1.224  21.393   5.553
10232POPC   PO466264   1.202  21.407   5.853
10232POPC   GL166265   1.189  21.417   6.153
10232POPC   GL266266   1.283  21.326   6.153
10232POPC   C1A66267   1.256  21.418   6.453
10232POPC   D2A66268   1.202  21.402   6.753
10232POPC   C3A66269   1.202  21.387   7.053
10232POPC   C4A66270   1.223  21.370   7.353
10232POPC   C1B66271   1.401  21.192   6.453
10232POPC   C2B66272   1.395  21.241   6.753
10232POPC   C3B66273   1.406  21.192   7.053
10232POPC   C4B66274   1.352  21.214   7.353
10233POPC   NC366275  11.258  21.369   5.553
10233POPC   PO466276  11.285  21.398   5.853
10233POPC   GL166277  11.345  21.403   6.153
10233POPC   GL266278  11.291  21.257   6.153
10233POPC   C1A66279  11.344  21.347   6.453
10233POPC   D2A66280  11.339  21.360   6.753
10233POPC   C3A66281  11.330  21.361   7.053
10233POPC   C4A66282  11.262  21.425   7.353
10233POPC   C1B66283  11.326  21.185   6.453
10233POPC   C2B66284  11.318  21.126   6.753
10233POPC   C3B66285  11.396  21.145   7.053
10233POPC   C4B66286  11.348  21.152   7.353
10234POPC   NC366287  24.508   1.958   5.553
10234POPC   PO466288  24.460   2.000   5.853
10234POPC   GL166289  24.450   2.022   6.153
10234POPC   GL266290  24.374   2.032   6.153
10234POPC   C1A66291  24.440   2.012   6.453
10234POPC   D2A66292  24.471   1.943   6.753
10234POPC   C3A66293  24.506   2.015   7.053
10234POPC   C4A66294  24.512   2.018   7.353
10234POPC   C1B66295  24.232   2.156   6.453
10234POPC   C2B66296  24.250   2.142   6.753
10234POPC   C3B66297  24.230   2.113   7.053
10234POPC   C4B66298  24.304   2.106   7.353
10235POPC   NC366299  26.031  39.260   5.553
10235POPC   PO466300  26.077  39.185   5.853
10235POPC   GL166301  26.067  39.250   6.153
10235POPC   GL266302  26.145  39.260   6.153
10235POPC   C1A66303  26.058  39.202   6.453
10235POPC   D2A66304  26.033  39.214   6.753
10235POPC   C3A66305  26.004  39.276   7.053
10235POPC   C4A66306  26.028  39.258   7.353
10235POPC   C1B66307  26.263  39.213   6.453
10235POPC   C2B66308  26.276  39.210   6.753
10235POPC   C3B66309  26.281  39.243   7.053
10235POPC   C4B66310  26.268  39.158   7.353
10236POPC   NC366311  29.966  41.588   5.553
10236POPC   PO466312  29.907  41.529   5.853
10236POPC   GL166313  29.918  41.520   6.153
10236POPC   GL266314  29.997  41.513   6.153
10236POPC   C1A66315  29.879  41.556   6.453
10236POPC   D2A66316  29.917  41.546   6.753
10236POPC   C3A66317  29.933  41.576   7.053
10236POPC   C4A66318  29.913  41.577   7.353
10236POPC   C1B66319  30.151  41.554   6.453
10236POPC   C2B66320  30.135  41.540   6.753
10236POPC   C3B66321  30.164  41.481   7.053
10236POPC   C4B66322  30.180  41.519   7.353
10237POPC   NC366323  33.840  36.104   5.553
10237POPC   PO466324  33.759  36.176   5.853
10237POPC   GL166325  33.830  36.120   6.153
10237POPC   GL266326  33.856  36.284   6.153
10237POPC   C1A66327  33.813  36.080   6.453
10237POPC   D2A66328  33.764  36.114   6.753
10237POPC   C3A66329  33.796  36.148   7.053
10237POPC   C4A66330  33.811  36.124   7.353
10237POPC   C1B66331  33.874  36.360   6.453
10237POPC   C2B66332  33.918  36.313   6.753
10237POPC   C3B66333  33.868  36.315   7.053
10237POPC   C4B66334  33.928  36.372   7.353
10238POPC   NC366335  35.385   2.795   5.553
10238POPC   PO466336  35.358   2.760   5.853
10238POPC   GL166337  35.398   2.810   6.153
10238POPC   GL266338  35.241   2.704   6.153
10238POPC   C1A66339  35.370   2.724   6.453
10238POPC   D2A66340  35.322   2.781   6.753
10238POPC   C3A66341  35.370   2.815   7.053
10238POPC   C4A66342  35.322   2.726   7.353
10238POPC   C1B66343  35.207   2.624   6.453
10238POPC   C2B66344  35.186   2.634   6.753
10238POPC   C3B66345  35.198   2.625   7.053
10238POPC   C4B66346  35.136   2.618   7.353
10239POPC   NC366347  29.939  23.707   5.553
10239POPC   PO466348  29.889  23.685   5.853
10239POPC   GL166349  29.896  23.722   6.153
10239POPC   GL266350  30.044  23.737   6.153
10239POPC   C1A66351  29.946  23.704   6.453
10239POPC   D2A66352  29.941  23.737   6.753
10239POPC   C3A66353  29.923  23.672   7.053
10239POPC   C4A66354  29.969  23.734   7.353
10239POPC   C1B66355  30.137  23.855   6.453
10239POPC   C2B66356  30.162  23.820   6.753
10239POPC   C3B66357  30.154  23.803   7.053
10239POPC   C4B66358  30.191  23.854   7.353
10240POPC   NC366359  36.935   1.173   5.553
10240POPC   PO466360  36.907   1.230   5.853
10240POPC   GL166361  36.922   1.249   6.153
10240POPC   GL266362  36.882   1.323   6.153
10240POPC   C1A66363  36.880   1.210   6.453
10240POPC   D2A66364  36.867   1.185   6.753
10240POPC   C3A66365  36.953   1.201   7.053
10240POPC   C4A66366  36.882   1.216   7.353
10240POPC   C1B66367  36.784   1.453   6.453
10240POPC   C2B66368  36.846   1.400   6.753
10240POPC   C3B66369  36.846   1.446   7.053
10240POPC   C4B66370  36.843   1.401   7.353
10241POPC   NC366371   9.002   3.525   5.553
10241POPC   PO466372   8.990   3.493   5.853
10241POPC   GL166373   8.933   3.506   6.153
10241POPC   GL266374   8.869   3.558   6.153
10241POPC   C1A66375   8.931   3.514   6.453
10241POPC   D2A66376   8.982   3.561   6.753
10241POPC   C3A66377   8.956   3.526   7.053
10241POPC   C4A66378   8.949   3.573   7.353
10241POPC   C1B66379   8.698   3.635   6.453
10241POPC   C2B66380   8.710   3.666   6.753
10241POPC   C3B66381   8.702   3.661   7.053
10241POPC   C4B66382   8.714   3.654   7.353
10242POPC   NC366383   2.798  26.858   5.553
10242POPC   PO466384   2.790  26.835   5.853
10242POPC   GL166385   2.751  26.863   6.153
10242POPC   GL266386   2.869  26.919   6.153
10242POPC   C1A66387   2.774  26.841   6.453
10242POPC   D2A66388   2.804  26.772   6.753
10242POPC   C3A66389   2.720  26.842   7.053
10242POPC   C4A66390   2.765  26.852   7.353
10242POPC   C1B66391   2.970  26.903   6.453
10242POPC   C2B66392   3.040  26.976   6.753
10242POPC   C3B66393   3.014  26.897   7.053
10242POPC   C4B66394   2.991  26.948   7.353
10243POPC   NC366395  42.338  16.728   5.553
10243POPC   PO466396  42.328  16.767   5.853
10243POPC   GL166397  42.374  16.760   6.153
10243POPC   GL266398  42.464  16.665   6.153
10243POPC   C1A66399  42.349  16.781   6.453
10243POPC   D2A66400  42.357  16.732   6.753
10243POPC   C3A66401  42.333  16.696   7.053
10243POPC   C4A66402  42.289  16.740   7.353
10243POPC   C1B66403  42.542  16.613   6.453
10243POPC   C2B66404  42.569  16.633   6.753
10243POPC   C3B66405  42.554  16.707   7.053
10243POPC   C4B66406  42.580  16.672   7.353
10244POPC   NC366407  34.534  14.355   5.553
10244POPC   PO466408  34.540  14.428   5.853
10244POPC   GL166409  34.582  14.418   6.153
10244POPC   GL266410  34.551  14.495   6.153
10244POPC   C1A66411  34.597  14.380   6.453
10244POPC   D2A66412  34.576  14.433   6.753
10244POPC   C3A66413  34.540  14.382   7.053
10244POPC   C4A66414  34.527  14.442   7.353
10244POPC   C1B66415  34.504  14.610   6.453
10244POPC   C2B66416  34.523  14.679   6.753
10244POPC   C3B66417  34.469  14.597   7.053
10244POPC   C4B66418  34.526  14.667   7.353
10245POPC   NC366419  26.769  40.048   5.553
10245POPC   PO466420  26.782  39.960   5.853
10245POPC   GL166421  26.859  40.056   6.153
10245POPC   GL266422  26.882  40.138   6.153
10245POPC   C1A66423  26.786  39.957   6.453
10245POPC   D2A66424  26.775  40.049   6.753
10245POPC   C3A66425  26.783  39.985   7.053
10245POPC   C4A66426  26.832  39.989   7.353
10245POPC   C1B66427  26.935  40.242   6.453
10245POPC   C2B66428  26.970  40.155   6.753
10245POPC   C3B66429  27.007  40.153   7.053
10245POPC   C4B66430  26.973  40.227   7.353
10246POPC   NC366431  22.980   8.158   5.553
10246POPC   PO466432  22.892   8.148   5.853
10246POPC   GL166433  22.974   8.155   6.153
10246POPC   GL266434  22.825   8.098   6.153
10246POPC   C1A66435  22.949   8.183   6.453
10246POPC   D2A66436  22.984   8.215   6.753
10246POPC   C3A66437  22.979   8.210   7.053
10246POPC   C4A66438  22.900   8.156   7.353
10246POPC   C1B66439  22.731   8.092   6.453
10246POPC   C2B66440  22.675   8.110   6.753
10246POPC   C3B66441  22.722   8.064   7.053
10246POPC   C4B66442  22.686   8.072   7.353
10247POPC   NC366443  24.476  37.673   5.553
10247POPC   PO466444  24.447  37.651   5.853
10247POPC   GL166445  24.481  37.689   6.153
10247POPC   GL266446  24.488  37.541   6.153
10247POPC   C1A66447  24.502  37.729   6.453
10247POPC   D2A66448  24.466  37.633   6.753
10247POPC   C3A66449  24.489  37.650   7.053
10247POPC   C4A66450  24.440  37.640   7.353
10247POPC   C1B66451  24.469  37.439   6.453
10247POPC   C2B66452  24.486  37.394   6.753
10247POPC   C3B66453  24.467  37.413   7.053
10247POPC   C4B66454  24.492  37.404   7.353
10248POPC   NC366455  21.344   8.998   5.553
10248POPC   PO466456  21.413   9.002   5.853
10248POPC   GL166457  21.359   8.929   6.153
10248POPC   GL266458  21.452   9.079   6.153
10248POPC   C1A66459  21.410   8.971   6.453
10248POPC   D2A66460  21.428   8.959   6.753
10248POPC   C3A66461  21.356   8.990   7.053
10248POPC   C4A66462  21.400   8.972   7.353
10248POPC   C1B66463  21.391   9.178   6.453
10248POPC   C2B66464  21.376   9.265   6.753
10248POPC   C3B66465  21.426   9.211   7.053
10248POPC   C4B66466  21.447   9.188   7.353
10249POPC   NC366467   5.841  29.915   5.553
10249POPC   PO466468   5.895  29.950   5.853
10249POPC   GL166469   5.875  29.923   6.153
10249POPC   GL266470   5.757  29.953   6.153
10249POPC   C1A66471   5.872  29.891   6.453
10249POPC   D2A66472   5.896  29.933   6.753
10249POPC   C3A66473   5.900  29.945   7.053
10249POPC   C4A66474   5.874  29.915   7.353
10249POPC   C1B66475   5.578  29.956   6.453
10249POPC   C2B66476   5.626  29.960   6.753
10249POPC   C3B66477   5.644  29.978   7.053
10249POPC   C4B66478   5.582  29.934   7.353
10250POPC   NC366479  43.109   0.429   5.553
10250POPC   PO466480  43.102   0.393   5.853
10250POPC   GL166481  43.075   0.423   6.153
10250POPC   GL266482  43.203   0.420   6.153
10250POPC   C1A66483  43.160   0.423   6.453
10250POPC   D2A66484  43.127   0.439   6.753
10250POPC   C3A66485  43.105   0.479   7.053
10250POPC   C4A66486  43.129   0.389   7.353
10250POPC   C1B66487  43.320   0.506   6.453
10250POPC   C2B66488  43.347   0.428   6.753
10250POPC   C3B66489  43.328   0.510   7.053
10250POPC   C4B66490  43.324   0.480   7.353
10251POPC   NC366491  26.034  15.181   5.553
10251POPC   PO466492  26.065  15.191   5.853
10251POPC   GL166493  26.004  15.152   6.153
10251POPC   GL266494  25.951  15.266   6.153
10251POPC   C1A66495  26.090  15.200   6.453
10251POPC   D2A66496  26.024  15.189   6.753
10251POPC   C3A66497  26.031  15.220   7.053
10251POPC   C4A66498  26.036  15.206   7.353
10251POPC   C1B66499  25.806  15.321   6.453
10251POPC   C2B66500  25.852  15.295   6.753
10251POPC   C3B66501  25.776  15.251   7.053
10251POPC   C4B66502  25.799  15.266   7.353
10252POPC   NC366503  18.263  37.687   5.553
10252POPC   PO466504  18.272  37.665   5.853
10252POPC   GL166505  18.292  37.663   6.153
10252POPC   GL266506  18.288  37.582   6.153
10252POPC   C1A66507  18.265  37.661   6.453
10252POPC   D2A66508  18.257  37.720   6.753
10252POPC   C3A66509  18.313  37.674   7.053
10252POPC   C4A66510  18.306  37.676   7.353
10252POPC   C1B66511  18.348  37.475   6.453
10252POPC   C2B66512  18.324  37.400   6.753
10252POPC   C3B66513  18.302  37.422   7.053
10252POPC   C4B66514  18.354  37.424   7.353
10253POPC   NC366515  18.273  27.603   5.553
10253POPC   PO466516  18.238  27.621   5.853
10253POPC   GL166517  18.235  27.547   6.153
10253POPC   GL266518  18.231  27.714   6.153
10253POPC   C1A66519  18.240  27.641   6.453
10253POPC   D2A66520  18.315  27.604   6.753
10253POPC   C3A66521  18.327  27.553   7.053
10253POPC   C4A66522  18.312  27.592   7.353
10253POPC   C1B66523  18.191  27.828   6.453
10253POPC   C2B66524  18.182  27.784   6.753
10253POPC   C3B66525  18.159  27.818   7.053
10253POPC   C4B66526  18.248  27.836   7.353
10254POPC   NC366527  34.545   9.014   5.553
10254POPC   PO466528  34.619   9.000   5.853
10254POPC   GL166529  34.609   8.971   6.153
10254POPC   GL266530  34.691   9.074   6.153
10254POPC   C1A66531  34.561   8.925   6.453
10254POPC   D2A66532  34.623   8.985   6.753
10254POPC   C3A66533  34.583   9.014   7.053
10254POPC   C4A66534  34.541   9.011   7.353
10254POPC   C1B66535  34.741   9.124   6.453
10254POPC   C2B66536  34.700   9.222   6.753
10254POPC   C3B66537  34.678   9.140   7.053
10254POPC   C4B66538  34.765   9.192   7.353
10255POPC   NC366539  27.563  29.171   5.553
10255POPC   PO466540  27.638  29.172   5.853
10255POPC   GL166541  27.565  29.142   6.153
10255POPC   GL266542  27.686  29.117   6.153
10255POPC   C1A66543  27.636  29.112   6.453
10255POPC   D2A66544  27.581  29.136   6.753
10255POPC   C3A66545  27.625  29.104   7.053
10255POPC   C4A66546  27.627  29.134   7.353
10255POPC   C1B66547  27.802  29.042   6.453
10255POPC   C2B66548  27.787  29.083   6.753
10255POPC   C3B66549  27.814  29.077   7.053
10255POPC   C4B66550  27.820  29.026   7.353
10256POPC   NC366551   5.843  12.890   5.553
10256POPC   PO466552   5.863  12.840   5.853
10256POPC   GL166553   5.885  12.894   6.153
10256POPC   GL266554   6.007  12.878   6.153
10256POPC   C1A66555   5.859  12.850   6.453
10256POPC   D2A66556   5.898  12.822   6.753
10256POPC   C3A66557   5.864  12.852   7.053
10256POPC   C4A66558   5.838  12.881   7.353
10256POPC   C1B66559   6.126  12.890   6.453
10256POPC   C2B66560   6.120  12.962   6.753
10256POPC   C3B66561   6.095  12.968   7.053
10256POPC   C4B66562   6.087  12.934   7.353
10257POPC   NC366563   3.523  14.355   5.553
10257POPC   PO466564   3.540  14.370   5.853
10257POPC   GL166565   3.547  14.442   6.153
10257POPC   GL266566   3.567  14.478   6.153
10257POPC   C1A66567   3.587  14.356   6.453
10257POPC   D2A66568   3.495  14.424   6.753
10257POPC   C3A66569   3.588  14.445   7.053
10257POPC   C4A66570   3.562  14.400   7.353
10257POPC   C1B66571   3.570  14.596   6.453
10257POPC   C2B66572   3.572  14.611   6.753
10257POPC   C3B66573   3.630  14.648   7.053
10257POPC   C4B66574   3.602  14.635   7.353
10258POPC   NC366575  20.569  16.712   5.553
10258POPC   PO466576  20.602  16.691   5.853
10258POPC   GL166577  20.595  16.739   6.153
10258POPC   GL266578  20.640  16.559   6.153
10258POPC   C1A66579  20.632  16.687   6.453
10258POPC   D2A66580  20.597  16.744   6.753
10258POPC   C3A66581  20.642  16.729   7.053
10258POPC   C4A66582  20.575  16.722   7.353
10258POPC   C1B66583  20.612  16.435   6.453
10258POPC   C2B66584  20.538  16.474   6.753
10258POPC   C3B66585  20.530  16.477   7.053
10258POPC   C4B66586  20.558  16.507   7.353
10259POPC   NC366587  40.759  21.414   5.553
10259POPC   PO466588  40.786  21.390   5.853
10259POPC   GL166589  40.783  21.414   6.153
10259POPC   GL266590  40.857  21.494   6.153
10259POPC   C1A66591  40.745  21.359   6.453
10259POPC   D2A66592  40.822  21.387   6.753
10259POPC   C3A66593  40.808  21.339   7.053
10259POPC   C4A66594  40.742  21.416   7.353
10259POPC   C1B66595  41.024  21.554   6.453
10259POPC   C2B66596  40.991  21.582   6.753
10259POPC   C3B66597  40.941  21.576   7.053
10259POPC   C4B66598  40.967  21.583   7.353
10260POPC   NC366599  36.945   9.709   5.553
10260POPC   PO466600  36.875   9.735   5.853
10260POPC   GL166601  36.920   9.700   6.153
10260POPC   GL266602  37.053   9.769   6.153
10260POPC   C1A66603  36.899   9.747   6.453
10260POPC   D2A66604  36.887   9.751   6.753
10260POPC   C3A66605  36.875   9.759   7.053
10260POPC   C4A66606  36.908   9.763   7.353
10260POPC   C1B66607  37.167   9.809   6.453
10260POPC   C2B66608  37.144   9.814   6.753
10260POPC   C3B66609  37.185   9.855   7.053
10260POPC   C4B66610  37.156   9.862   7.353
10261POPC   NC366611   2.028  28.397   5.553
10261POPC   PO466612   1.967  28.345   5.853
10261POPC   GL166613   1.959  28.362   6.153
10261POPC   GL266614   1.969  28.254   6.153
10261POPC   C1A66615   2.014  28.361   6.453
10261POPC   D2A66616   2.033  28.354   6.753
10261POPC   C3A66617   2.025  28.380   7.053
10261POPC   C4A66618   2.024  28.344   7.353
10261POPC   C1B66619   1.833  28.192   6.453
10261POPC   C2B66620   1.852  28.116   6.753
10261POPC   C3B66621   1.826  28.174   7.053
10261POPC   C4B66622   1.902  28.187   7.353
10262POPC   NC366623  15.956  19.083   5.553
10262POPC   PO466624  15.942  19.021   5.853
10262POPC   GL166625  15.956  19.041   6.153
10262POPC   GL266626  16.039  19.108   6.153
10262POPC   C1A66627  15.953  19.106   6.453
10262POPC   D2A66628  15.945  19.087   6.753
10262POPC   C3A66629  15.953  19.061   7.053
10262POPC   C4A66630  15.970  19.083   7.353
10262POPC   C1B66631  16.141  19.265   6.453
10262POPC   C2B66632  16.117  19.251   6.753
10262POPC   C3B66633  16.166  19.171   7.053
10262POPC   C4B66634  16.174  19.241   7.353
10263POPC   NC366635   1.204  25.257   5.553
10263POPC   PO466636   1.196  25.224   5.853
10263POPC   GL166637   1.203  25.310   6.153
10263POPC   GL266638   1.260  25.200   6.153
10263POPC   C1A66639   1.219  25.226   6.453
10263POPC   D2A66640   1.165  25.222   6.753
10263POPC   C3A66641   1.256  25.257   7.053
10263POPC   C4A66642   1.207  25.250   7.353
10263POPC   C1B66643   1.341  24.995   6.453
10263POPC   C2B66644   1.295  25.002   6.753
10263POPC   C3B66645   1.347  25.035   7.053
10263POPC   C4B66646   1.318  25.031   7.353
10264POPC   NC366647  19.026  34.623   5.553
10264POPC   PO466648  19.071  34.539   5.853
10264POPC   GL166649  19.085  34.618   6.153
10264POPC   GL266650  19.038  34.694   6.153
10264POPC   C1A66651  19.094  34.571   6.453
10264POPC   D2A66652  19.053  34.547   6.753
10264POPC   C3A66653  19.066  34.599   7.053
10264POPC   C4A66654  19.025  34.605   7.353
10264POPC   C1B66655  19.057  34.838   6.453
10264POPC   C2B66656  18.979  34.813   6.753
10264POPC   C3B66657  18.995  34.829   7.053
10264POPC   C4B66658  18.994  34.858   7.353
10265POPC   NC366659  39.182   5.884   5.553
10265POPC   PO466660  39.268   5.865   5.853
10265POPC   GL166661  39.231   5.901   6.153
10265POPC   GL266662  39.343   5.842   6.153
10265POPC   C1A66663  39.201   5.860   6.453
10265POPC   D2A66664  39.224   5.913   6.753
10265POPC   C3A66665  39.231   5.906   7.053
10265POPC   C4A66666  39.250   5.867   7.353
10265POPC   C1B66667  39.406   5.697   6.453
10265POPC   C2B66668  39.387   5.745   6.753
10265POPC   C3B66669  39.390   5.715   7.053
10265POPC   C4B66670  39.401   5.734   7.353
10266POPC   NC366671  44.668  38.438   5.553
10266POPC   PO466672  44.694  38.447   5.853
10266POPC   GL166673  44.668  38.448   6.153
10266POPC   GL266674  44.827  38.477   6.153
10266POPC   C1A66675  44.674  38.505   6.453
10266POPC   D2A66676  44.645  38.445   6.753
10266POPC   C3A66677  44.646  38.477   7.053
10266POPC   C4A66678  44.709  38.436   7.353
10266POPC   C1B66679  44.889  38.425   6.453
10266POPC   C2B66680  44.934  38.516   6.753
10266POPC   C3B66681  44.920  38.426   7.053
10266POPC   C4B66682  44.956  38.439   7.353
10267POPC   NC366683  23.668  15.149   5.553
10267POPC   PO466684  23.737  15.179   5.853
10267POPC   GL166685  23.760  15.166   6.153
10267POPC   GL266686  23.818  15.154   6.153
10267POPC   C1A66687  23.668  15.225   6.453
10267POPC   D2A66688  23.719  15.148   6.753
10267POPC   C3A66689  23.681  15.149   7.053
10267POPC   C4A66690  23.745  15.175   7.353
10267POPC   C1B66691  24.006  15.234   6.453
10267POPC   C2B66692  24.001  15.233   6.753
10267POPC   C3B66693  24.011  15.251   7.053
10267POPC   C4B66694  23.996  15.207   7.353
10268POPC   NC366695  43.911  42.366   5.553
10268POPC   PO466696  43.905  42.346   5.853
10268POPC   GL166697  43.907  42.342   6.153
10268POPC   GL266698  43.848  42.484   6.153
10268POPC   C1A66699  43.889  42.304   6.453
10268POPC   D2A66700  43.884  42.321   6.753
10268POPC   C3A66701  43.935  42.310   7.053
10268POPC   C4A66702  43.888  42.296   7.353
10268POPC   C1B66703  43.817  42.572   6.453
10268POPC   C2B66704  43.821  42.612   6.753
10268POPC   C3B66705  43.746  42.612   7.053
10268POPC   C4B66706  43.750  42.603   7.353
10269POPC   NC366707  19.831  11.345   5.553
10269POPC   PO466708  19.834  11.335   5.853
10269POPC   GL166709  19.819  11.338   6.153
10269POPC   GL266710  19.840  11.187   6.153
10269POPC   C1A66711  19.831  11.324   6.453
10269POPC   D2A66712  19.844  11.324   6.753
10269POPC   C3A66713  19.835  11.345   7.053
10269POPC   C4A66714  19.848  11.310   7.353
10269POPC   C1B66715  19.890  11.032   6.453
10269POPC   C2B66716  19.882  11.086   6.753
10269POPC   C3B66717  19.906  11.095   7.053
10269POPC   C4B66718  19.910  11.082   7.353
10270POPC   NC366719  25.222  13.606   5.553
10270POPC   PO466720  25.233  13.644   5.853
10270POPC   GL166721  25.266  13.584   6.153
10270POPC   GL266722  25.168  13.567   6.153
10270POPC   C1A66723  25.315  13.656   6.453
10270POPC   D2A66724  25.288  13.592   6.753
10270POPC   C3A66725  25.256  13.617   7.053
10270POPC   C4A66726  25.295  13.647   7.353
10270POPC   C1B66727  25.012  13.441   6.453
10270POPC   C2B66728  25.036  13.465   6.753
10270POPC   C3B66729  25.074  13.448   7.053
10270POPC   C4B66730  25.090  13.501   7.353
10271POPC   NC366731  12.845   0.412   5.553
10271POPC   PO466732  12.902   0.393   5.853
10271POPC   GL166733  12.828   0.405   6.153
10271POPC   GL266734  12.739   0.515   6.153
10271POPC   C1A66735  12.861   0.445   6.453
10271POPC   D2A66736  12.857   0.475   6.753
10271POPC   C3A66737  12.861   0.441   7.053
10271POPC   C4A66738  12.883   0.432   7.353
10271POPC   C1B66739  12.641   0.633   6.453
10271POPC   C2B66740  12.692   0.566   6.753
10271POPC   C3B66741  12.624   0.541   7.053
10271POPC   C4B66742  12.624   0.592   7.353
10272POPC   NC366743   5.848  32.994   5.553
10272POPC   PO466744   5.845  33.041   5.853
10272POPC   GL166745   5.906  33.055   6.153
10272POPC   GL266746   5.834  33.140   6.153
10272POPC   C1A66747   5.872  32.989   6.453
10272POPC   D2A66748   5.893  33.007   6.753
10272POPC   C3A66749   5.852  32.979   7.053
10272POPC   C4A66750   5.886  33.057   7.353
10272POPC   C1B66751   5.859  33.291   6.453
10272POPC   C2B66752   5.893  33.294   6.753
10272POPC   C3B66753   5.891  33.304   7.053
10272POPC   C4B66754   5.885  33.271   7.353
10273POPC   NC366755  15.937  33.802   5.553
10273POPC   PO466756  15.920  33.791   5.853
10273POPC   GL166757  15.909  33.784   6.153
10273POPC   GL266758  16.000  33.717   6.153
10273POPC   C1A66759  15.941  33.797   6.453
10273POPC   D2A66760  15.927  33.799   6.753
10273POPC   C3A66761  15.918  33.782   7.053
10273POPC   C4A66762  15.923  33.794   7.353
10273POPC   C1B66763  16.130  33.618   6.453
10273POPC   C2B66764  16.062  33.626   6.753
10273POPC   C3B66765  16.086  33.573   7.053
10273POPC   C4B66766  16.099  33.546   7.353
10274POPC   NC366767  34.553   1.214   5.553
10274POPC   PO466768  34.585   1.194   5.853
10274POPC   GL166769  34.531   1.214   6.153
10274POPC   GL266770  34.506   1.105   6.153
10274POPC   C1A66771  34.532   1.228   6.453
10274POPC   D2A66772  34.606   1.216   6.753
10274POPC   C3A66773  34.536   1.176   7.053
10274POPC   C4A66774  34.528   1.196   7.353
10274POPC   C1B66775  34.413   0.977   6.453
10274POPC   C2B66776  34.390   0.998   6.753
10274POPC   C3B66777  34.468   1.044   7.053
10274POPC   C4B66778  34.427   1.057   7.353
10275POPC   NC366779  26.088  35.389   5.553
10275POPC   PO466780  26.030  35.396   5.853
10275POPC   GL166781  26.067  35.310   6.153
10275POPC   GL266782  26.115  35.249   6.153
10275POPC   C1A66783  26.009  35.332   6.453
10275POPC   D2A66784  26.047  35.400   6.753
10275POPC   C3A66785  26.085  35.372   7.053
10275POPC   C4A66786  26.035  35.379   7.353
10275POPC   C1B66787  26.251  35.233   6.453
10275POPC   C2B66788  26.286  35.226   6.753
10275POPC   C3B66789  26.254  35.223   7.053
10275POPC   C4B66790  26.238  35.239   7.353
10276POPC   NC366791  42.301  34.567   5.553
10276POPC   PO466792  42.323  34.557   5.853
10276POPC   GL166793  42.318  34.594   6.153
10276POPC   GL266794  42.166  34.573   6.153
10276POPC   C1A66795  42.312  34.611   6.453
10276POPC   D2A66796  42.354  34.575   6.753
10276POPC   C3A66797  42.313  34.544   7.053
10276POPC   C4A66798  42.333  34.546   7.353
10276POPC   C1B66799  42.103  34.586   6.453
10276POPC   C2B66800  42.109  34.578   6.753
10276POPC   C3B66801  42.043  34.603   7.053
10276POPC   C4B66802  42.081  34.594   7.353
10277POPC   NC366803  22.905  33.038   5.553
10277POPC   PO466804  22.894  32.975   5.853
10277POPC   GL166805  22.931  33.067   6.153
10277POPC   GL266806  22.779  33.036   6.153
10277POPC   C1A66807  22.952  33.065   6.453
10277POPC   D2A66808  22.949  33.038   6.753
10277POPC   C3A66809  22.908  32.992   7.053
10277POPC   C4A66810  22.986  33.061   7.353
10277POPC   C1B66811  22.751  33.113   6.453
10277POPC   C2B66812  22.669  33.076   6.753
10277POPC   C3B66813  22.672  33.146   7.053
10277POPC   C4B66814  22.697  33.073   7.353
10278POPC   NC366815   5.916  36.888   5.553
10278POPC   PO466816   5.838  36.914   5.853
10278POPC   GL166817   5.880  36.872   6.153
10278POPC   GL266818   5.858  36.754   6.153
10278POPC   C1A66819   5.857  36.902   6.453
10278POPC   D2A66820   5.838  36.947   6.753
10278POPC   C3A66821   5.899  36.864   7.053
10278POPC   C4A66822   5.892  36.934   7.353
10278POPC   C1B66823   5.951  36.616   6.453
10278POPC   C2B66824   5.951  36.699   6.753
10278POPC   C3B66825   5.962  36.617   7.053
10278POPC   C4B66826   5.924  36.621   7.353
10279POPC   NC366827   1.950  36.880   5.553
10279POPC   PO466828   2.029  36.862   5.853
10279POPC   GL166829   2.023  36.935   6.153
10279POPC   GL266830   1.909  36.779   6.153
10279POPC   C1A66831   2.016  36.949   6.453
10279POPC   D2A66832   2.019  36.892   6.753
10279POPC   C3A66833   2.024  36.935   7.053
10279POPC   C4A66834   2.025  36.883   7.353
10279POPC   C1B66835   1.870  36.680   6.453
10279POPC   C2B66836   1.820  36.707   6.753
10279POPC   C3B66837   1.867  36.718   7.053
10279POPC   C4B66838   1.854  36.745   7.353
10280POPC   NC366839   8.929  24.499   5.553
10280POPC   PO466840   8.972  24.511   5.853
10280POPC   GL166841   8.925  24.516   6.153
10280POPC   GL266842   9.067  24.546   6.153
10280POPC   C1A66843   8.930  24.526   6.453
10280POPC   D2A66844   8.943  24.459   6.753
10280POPC   C3A66845   9.004  24.463   7.053
10280POPC   C4A66846   8.991  24.520   7.353
10280POPC   C1B66847   9.260  24.516   6.453
10280POPC   C2B66848   9.189  24.501   6.753
10280POPC   C3B66849   9.239  24.571   7.053
10280POPC   C4B66850   9.216  24.495   7.353
10281POPC   NC366851  42.362  12.104   5.553
10281POPC   PO466852  42.379  12.099   5.853
10281POPC   GL166853  42.372  12.097   6.153
10281POPC   GL266854  42.493  12.109   6.153
10281POPC   C1A66855  42.346  12.113   6.453
10281POPC   D2A66856  42.382  12.090   6.753
10281POPC   C3A66857  42.351  12.110   7.053
10281POPC   C4A66858  42.316  12.056   7.353
10281POPC   C1B66859  42.621  12.102   6.453
10281POPC   C2B66860  42.608  12.082   6.753
10281POPC   C3B66861  42.611  12.059   7.053
10281POPC   C4B66862  42.541  12.081   7.353
10282POPC   NC366863  35.399   2.012   5.553
10282POPC   PO466864  35.372   1.995   5.853
10282POPC   GL166865  35.345   1.957   6.153
10282POPC   GL266866  35.374   2.108   6.153
10282POPC   C1A66867  35.375   2.034   6.453
10282POPC   D2A66868  35.330   1.969   6.753
10282POPC   C3A66869  35.364   2.036   7.053
10282POPC   C4A66870  35.353   1.946   7.353
10282POPC   C1B66871  35.338   2.212   6.453
10282POPC   C2B66872  35.405   2.227   6.753
10282POPC   C3B66873  35.351   2.246   7.053
10282POPC   C4B66874  35.395   2.230   7.353
10283POPC   NC366875  19.839  36.906   5.553
10283POPC   PO466876  19.863  36.906   5.853
10283POPC   GL166877  19.833  36.905   6.153
10283POPC   GL266878  19.692  36.833   6.153
10283POPC   C1A66879  19.810  36.869   6.453
10283POPC   D2A66880  19.845  36.910   6.753
10283POPC   C3A66881  19.803  36.889   7.053
10283POPC   C4A66882  19.838  36.887   7.353
10283POPC   C1B66883  19.645  36.775   6.453
10283POPC   C2B66884  19.635  36.707   6.753
10283POPC   C3B66885  19.611  36.770   7.053
10283POPC   C4B66886  19.668  36.780   7.353
10284POPC   NC366887  41.545  27.564   5.553
10284POPC   PO466888  41.604  27.609   5.853
10284POPC   GL166889  41.533  27.600   6.153
10284POPC   GL266890  41.554  27.514   6.153
10284POPC   C1A66891  41.570  27.640   6.453
10284POPC   D2A66892  41.543  27.635   6.753
10284POPC   C3A66893  41.538  27.632   7.053
10284POPC   C4A66894  41.538  27.593   7.353
10284POPC   C1B66895  41.498  27.332   6.453
10284POPC   C2B66896  41.554  27.319   6.753
10284POPC   C3B66897  41.555  27.392   7.053
10284POPC   C4B66898  41.496  27.324   7.353
10285POPC   NC366899  33.816  23.746   5.553
10285POPC   PO466900  33.798  23.737   5.853
10285POPC   GL166901  33.809  23.688   6.153
10285POPC   GL266902  33.769  23.805   6.153
10285POPC   C1A66903  33.823  23.758   6.453
10285POPC   D2A66904  33.848  23.691   6.753
10285POPC   C3A66905  33.847  23.703   7.053
10285POPC   C4A66906  33.850  23.700   7.353
10285POPC   C1B66907  33.791  24.005   6.453
10285POPC   C2B66908  33.783  23.941   6.753
10285POPC   C3B66909  33.717  23.943   7.053
10285POPC   C4B66910  33.790  23.989   7.353
10286POPC   NC366911   1.173   1.239   5.553
10286POPC   PO466912   1.183   1.223   5.853
10286POPC   GL166913   1.229   1.241   6.153
10286POPC   GL266914   1.338   1.210   6.153
10286POPC   C1A66915   1.207   1.254   6.453
10286POPC   D2A66916   1.180   1.177   6.753
10286POPC   C3A66917   1.228   1.253   7.053
10286POPC   C4A66918   1.197   1.196   7.353
10286POPC   C1B66919   1.463   1.320   6.453
10286POPC   C2B66920   1.450   1.298   6.753
10286POPC   C3B66921   1.437   1.297   7.053
10286POPC   C4B66922   1.476   1.248   7.353
10287POPC   NC366923   1.200  22.162   5.553
10287POPC   PO466924   1.245  22.181   5.853
10287POPC   GL166925   1.256  22.163   6.153
10287POPC   GL266926   1.279  22.028   6.153
10287POPC   C1A66927   1.211  22.205   6.453
10287POPC   D2A66928   1.200  22.157   6.753
10287POPC   C3A66929   1.211  22.115   7.053
10287POPC   C4A66930   1.182  22.165   7.353
10287POPC   C1B66931   1.392  22.006   6.453
10287POPC   C2B66932   1.370  22.004   6.753
10287POPC   C3B66933   1.417  22.024   7.053
10287POPC   C4B66934   1.393  22.010   7.353
10288POPC   NC366935  39.214  25.998   5.553
10288POPC   PO466936  39.197  26.012   5.853
10288POPC   GL166937  39.273  26.028   6.153
10288POPC   GL266938  39.105  26.140   6.153
10288POPC   C1A66939  39.242  26.035   6.453
10288POPC   D2A66940  39.270  26.063   6.753
10288POPC   C3A66941  39.249  25.994   7.053
10288POPC   C4A66942  39.193  26.082   7.353
10288POPC   C1B66943  39.035  26.243   6.453
10288POPC   C2B66944  39.113  26.274   6.753
10288POPC   C3B66945  39.095  26.201   7.053
10288POPC   C4B66946  39.051  26.189   7.353
10289POPC   NC366947  21.378  12.824   5.553
10289POPC   PO466948  21.408  12.821   5.853
10289POPC   GL166949  21.358  12.844   6.153
10289POPC   GL266950  21.303  12.998   6.153
10289POPC   C1A66951  21.368  12.837   6.453
10289POPC   D2A66952  21.435  12.865   6.753
10289POPC   C3A66953  21.339  12.874   7.053
10289POPC   C4A66954  21.399  12.849   7.353
10289POPC   C1B66955  21.350  13.081   6.453
10289POPC   C2B66956  21.348  13.133   6.753
10289POPC   C3B66957  21.292  13.139   7.053
10289POPC   C4B66958  21.316  13.064   7.353
10290POPC   NC366959  22.933  21.386   5.553
10290POPC   PO466960  22.929  21.380   5.853
10290POPC   GL166961  22.896  21.380   6.153
10290POPC   GL266962  22.996  21.263   6.153
10290POPC   C1A66963  22.973  21.419   6.453
10290POPC   D2A66964  22.973  21.393   6.753
10290POPC   C3A66965  22.962  21.392   7.053
10290POPC   C4A66966  22.941  21.396   7.353
10290POPC   C1B66967  22.955  21.160   6.453
10290POPC   C2B66968  22.943  21.090   6.753
10290POPC   C3B66969  23.011  21.147   7.053
10290POPC   C4B66970  23.013  21.126   7.353
10291POPC   NC366971   2.794  17.473   5.553
10291POPC   PO466972   2.720  17.495   5.853
10291POPC   GL166973   2.724  17.541   6.153
10291POPC   GL266974   2.666  17.583   6.153
10291POPC   C1A66975   2.750  17.485   6.453
10291POPC   D2A66976   2.765  17.500   6.753
10291POPC   C3A66977   2.809  17.491   7.053
10291POPC   C4A66978   2.746  17.471   7.353
10291POPC   C1B66979   2.597  17.670   6.453
10291POPC   C2B66980   2.535  17.614   6.753
10291POPC   C3B66981   2.592  17.675   7.053
10291POPC   C4B66982   2.537  17.623   7.353
10292POPC   NC366983  13.649  44.645   5.553
10292POPC   PO466984  13.593  44.624   5.853
10292POPC   GL166985  13.601  44.686   6.153
10292POPC   GL266986  13.543  44.712   6.153
10292POPC   C1A66987  13.674  44.685   6.453
10292POPC   D2A66988  13.640  44.646   6.753
10292POPC   C3A66989  13.610  44.694   7.053
10292POPC   C4A66990  13.617  44.668   7.353
10292POPC   C1B66991  13.479  44.776   6.453
10292POPC   C2B66992  13.426  44.864   6.753
10292POPC   C3B66993  13.455  44.835   7.053
10292POPC   C4B66994  13.401  44.864   7.353
10293POPC   NC366995  13.598  26.796   5.553
10293POPC   PO466996  13.649  26.779   5.853
10293POPC   GL166997  13.600  26.806   6.153
10293POPC   GL266998  13.674  26.734   6.153
10293POPC   C1A66999  13.668  26.796   6.453
10293POPC   D2A67000  13.666  26.808   6.753
10293POPC   C3A67001  13.602  26.796   7.053
10293POPC   C4A67002  13.611  26.785   7.353
10293POPC   C1B67003  13.772  26.682   6.453
10293POPC   C2B67004  13.850  26.619   6.753
10293POPC   C3B67005  13.816  26.666   7.053
10293POPC   C4B67006  13.832  26.677   7.353
10294POPC   NC367007  33.042  41.603   5.553
10294POPC   PO467008  33.067  41.604   5.853
10294POPC   GL167009  33.018  41.511   6.153
10294POPC   GL267010  33.023  41.708   6.153
10294POPC   C1A67011  33.049  41.592   6.453
10294POPC   D2A67012  33.024  41.604   6.753
10294POPC   C3A67013  33.047  41.606   7.053
10294POPC   C4A67014  33.062  41.571   7.353
10294POPC   C1B67015  33.012  41.803   6.453
10294POPC   C2B67016  32.996  41.847   6.753
10294POPC   C3B67017  33.051  41.800   7.053
10294POPC   C4B67018  33.029  41.805   7.353
10295POPC   NC367019  14.399  41.592   5.553
10295POPC   PO467020  14.412  41.587   5.853
10295POPC   GL167021  14.418  41.558   6.153
10295POPC   GL267022  14.307  41.678   6.153
10295POPC   C1A67023  14.441  41.524   6.453
10295POPC   D2A67024  14.376  41.589   6.753
10295POPC   C3A67025  14.422  41.536   7.053
10295POPC   C4A67026  14.446  41.527   7.353
10295POPC   C1B67027  14.265  41.701   6.453
10295POPC   C2B67028  14.180  41.718   6.753
10295POPC   C3B67029  14.207  41.732   7.053
10295POPC   C4B67030  14.176  41.711   7.353
10296POPC   NC367031  43.106  29.159   5.553
10296POPC   PO467032  43.072  29.124   5.853
10296POPC   GL167033  43.092  29.180   6.153
10296POPC   GL267034  43.009  28.993   6.153
10296POPC   C1A67035  43.131  29.099   6.453
10296POPC   D2A67036  43.096  29.186   6.753
10296POPC   C3A67037  43.157  29.160   7.053
10296POPC   C4A67038  43.153  29.112   7.353
10296POPC   C1B67039  43.018  28.939   6.453
10296POPC   C2B67040  42.996  28.938   6.753
10296POPC   C3B67041  42.963  28.961   7.053
10296POPC   C4B67042  42.989  28.918   7.353
10297POPC   NC367043  26.046   8.996   5.553
10297POPC   PO467044  25.998   8.980   5.853
10297POPC   GL167045  26.084   9.002   6.153
10297POPC   GL267046  26.141   9.082   6.153
10297POPC   C1A67047  26.024   9.019   6.453
10297POPC   D2A67048  26.056   8.984   6.753
10297POPC   C3A67049  26.016   8.982   7.053
10297POPC   C4A67050  26.053   8.934   7.353
10297POPC   C1B67051  26.223   9.084   6.453
10297POPC   C2B67052  26.224   9.163   6.753
10297POPC   C3B67053  26.272   9.072   7.053
10297POPC   C4B67054  26.219   9.165   7.353
10298POPC   NC367055   3.542  10.512   5.553
10298POPC   PO467056   3.525  10.536   5.853
10298POPC   GL167057   3.518  10.486   6.153
10298POPC   GL267058   3.432  10.388   6.153
10298POPC   C1A67059   3.519  10.570   6.453
10298POPC   D2A67060   3.529  10.574   6.753
10298POPC   C3A67061   3.553  10.524   7.053
10298POPC   C4A67062   3.508  10.533   7.353
10298POPC   C1B67063   3.335  10.359   6.453
10298POPC   C2B67064   3.382  10.319   6.753
10298POPC   C3B67065   3.394  10.292   7.053
10298POPC   C4B67066   3.334  10.311   7.353
10299POPC   NC367067  40.826  34.595   5.553
10299POPC   PO467068  40.761  34.550   5.853
10299POPC   GL167069  40.829  34.600   6.153
10299POPC   GL267070  40.823  34.485   6.153
10299POPC   C1A67071  40.832  34.583   6.453
10299POPC   D2A67072  40.745  34.537   6.753
10299POPC   C3A67073  40.743  34.589   7.053
10299POPC   C4A67074  40.755  34.538   7.353
10299POPC   C1B67075  40.986  34.403   6.453
10299POPC   C2B67076  40.952  34.406   6.753
10299POPC   C3B67077  40.947  34.384   7.053
10299POPC   C4B67078  40.996  34.366   7.353
10300POPC   NC367079   9.006   5.069   5.553
10300POPC   PO467080   8.955   5.117   5.853
10300POPC   GL167081   8.953   5.090   6.153
10300POPC   GL267082   8.848   4.992   6.153
10300POPC   C1A67083   8.951   5.096   6.453
10300POPC   D2A67084   8.972   5.142   6.753
10300POPC   C3A67085   9.015   5.130   7.053
10300POPC   C4A67086   8.930   5.098   7.353
10300POPC   C1B67087   8.858   4.884   6.453
10300POPC   C2B67088   8.771   4.927   6.753
10300POPC   C3B67089   8.846   4.920   7.053
10300POPC   C4B67090   8.828   4.930   7.353
10301POPC   NC367091  11.324   0.418   5.553
10301POPC   PO467092  11.345   0.482   5.853
10301POPC   GL167093  11.343   0.421   6.153
10301POPC   GL267094  11.425   0.439   6.153
10301POPC   C1A67095  11.278   0.394   6.453
10301POPC   D2A67096  11.306   0.443   6.753
10301POPC   C3A67097  11.333   0.455   7.053
10301POPC   C4A67098  11.339   0.418   7.353
10301POPC   C1B67099  11.565   0.453   6.453
10301POPC   C2B67100  11.554   0.453   6.753
10301POPC   C3B67101  11.558   0.423   7.053
10301POPC   C4B67102  11.516   0.482   7.353
10302POPC   NC367103   5.904   5.099   5.553
10302POPC   PO467104   5.863   5.124   5.853
10302POPC   GL167105   5.903   5.099   6.153
10302POPC   GL267106   5.976   5.065   6.153
10302POPC   C1A67107   5.825   5.067   6.453
10302POPC   D2A67108   5.855   5.075   6.753
10302POPC   C3A67109   5.820   5.126   7.053
10302POPC   C4A67110   5.848   5.096   7.353
10302POPC   C1B67111   6.043   5.020   6.453
10302POPC   C2B67112   6.077   4.980   6.753
10302POPC   C3B67113   6.133   4.933   7.053
10302POPC   C4B67114   6.071   4.943   7.353
10303POPC   NC367115  17.552  42.380   5.553
10303POPC   PO467116  17.523  42.297   5.853
10303POPC   GL167117  17.511  42.344   6.153
10303POPC   GL267118  17.419  42.242   6.153
10303POPC   C1A67119  17.502  42.313   6.453
10303POPC   D2A67120  17.481  42.380   6.753
10303POPC   C3A67121  17.471  42.354   7.053
10303POPC   C4A67122  17.509  42.331   7.353
10303POPC   C1B67123  17.359  42.123   6.453
10303POPC   C2B67124  17.325  42.156   6.753
10303POPC   C3B67125  17.404  42.175   7.053
10303POPC   C4B67126  17.378  42.118   7.353
10304POPC   NC367127  15.970  40.734   5.553
10304POPC   PO467128  15.963  40.803   5.853
10304POPC   GL167129  15.993  40.746   6.153
10304POPC   GL267130  15.995  40.706   6.153
10304POPC   C1A67131  15.961  40.786   6.453
10304POPC   D2A67132  15.992  40.822   6.753
10304POPC   C3A67133  15.974  40.753   7.053
10304POPC   C4A67134  15.928  40.784   7.353
10304POPC   C1B67135  15.954  40.496   6.453
10304POPC   C2B67136  15.955  40.554   6.753
10304POPC   C3B67137  15.958  40.506   7.053
10304POPC   C4B67138  15.974  40.566   7.353
10305POPC   NC367139  22.186  25.995   5.553
10305POPC   PO467140  22.155  26.080   5.853
10305POPC   GL167141  22.148  26.051   6.153
10305POPC   GL267142  22.309  25.942   6.153
10305POPC   C1A67143  22.162  26.061   6.453
10305POPC   D2A67144  22.197  26.072   6.753
10305POPC   C3A67145  22.137  26.053   7.053
10305POPC   C4A67146  22.163  26.067   7.353
10305POPC   C1B67147  22.338  25.955   6.453
10305POPC   C2B67148  22.385  25.864   6.753
10305POPC   C3B67149  22.379  25.946   7.053
10305POPC   C4B67150  22.396  25.955   7.353
10306POPC   NC367151  14.360  36.897   5.553
10306POPC   PO467152  14.441  36.873   5.853
10306POPC   GL167153  14.453  36.860   6.153
10306POPC   GL267154  14.366  36.737   6.153
10306POPC   C1A67155  14.385  36.854   6.453
10306POPC   D2A67156  14.374  36.910   6.753
10306POPC   C3A67157  14.372  36.879   7.053
10306POPC   C4A67158  14.378  36.935   7.353
10306POPC   C1B67159  14.390  36.657   6.453
10306POPC   C2B67160  14.422  36.681   6.753
10306POPC   C3B67161  14.358  36.609   7.053
10306POPC   C4B67162  14.423  36.658   7.353
10307POPC   NC367163   5.874  32.292   5.553
10307POPC   PO467164   5.872  32.224   5.853
10307POPC   GL167165   5.919  32.223   6.153
10307POPC   GL267166   5.982  32.156   6.153
10307POPC   C1A67167   5.909  32.231   6.453
10307POPC   D2A67168   5.860  32.245   6.753
10307POPC   C3A67169   5.844  32.230   7.053
10307POPC   C4A67170   5.840  32.287   7.353
10307POPC   C1B67171   6.112  32.180   6.453
10307POPC   C2B67172   6.054  32.110   6.753
10307POPC   C3B67173   6.147  32.145   7.053
10307POPC   C4B67174   6.136  32.196   7.353
10308POPC   NC367175  36.102   7.390   5.553
10308POPC   PO467176  36.105   7.405   5.853
10308POPC   GL167177  36.155   7.437   6.153
10308POPC   GL267178  36.222   7.393   6.153
10308POPC   C1A67179  36.170   7.402   6.453
10308POPC   D2A67180  36.152   7.397   6.753
10308POPC   C3A67181  36.116   7.382   7.053
10308POPC   C4A67182  36.132   7.467   7.353
10308POPC   C1B67183  36.371   7.481   6.453
10308POPC   C2B67184  36.423   7.489   6.753
10308POPC   C3B67185  36.407   7.428   7.053
10308POPC   C4B67186  36.421   7.459   7.353
10309POPC   NC367187   1.978  26.801   5.553
10309POPC   PO467188   1.952  26.830   5.853
10309POPC   GL167189   2.031  26.865   6.153
10309POPC   GL267190   1.855  26.759   6.153
10309POPC   C1A67191   2.006  26.840   6.453
10309POPC   D2A67192   2.002  26.803   6.753
10309POPC   C3A67193   2.020  26.813   7.053
10309POPC   C4A67194   2.012  26.850   7.353
10309POPC   C1B67195   1.736  26.805   6.453
10309POPC   C2B67196   1.702  26.828   6.753
10309POPC   C3B67197   1.737  26.804   7.053
10309POPC   C4B67198   1.773  26.820   7.353
10310POPC   NC367199  43.899  15.974   5.553
10310POPC   PO467200  43.875  15.951   5.853
10310POPC   GL167201  43.883  15.908   6.153
10310POPC   GL267202  43.888  16.030   6.153
10310POPC   C1A67203  43.883  15.913   6.453
10310POPC   D2A67204  43.899  15.990   6.753
10310POPC   C3A67205  43.850  15.921   7.053
10310POPC   C4A67206  43.849  15.983   7.353
10310POPC   C1B67207  43.870  16.245   6.453
10310POPC   C2B67208  43.857  16.220   6.753
10310POPC   C3B67209  43.870  16.242   7.053
10310POPC   C4B67210  43.882  16.247   7.353
10311POPC   NC367211  40.798  18.327   5.553
10311POPC   PO467212  40.779  18.258   5.853
10311POPC   GL167213  40.785  18.237   6.153
10311POPC   GL267214  40.894  18.325   6.153
10311POPC   C1A67215  40.753  18.322   6.453
10311POPC   D2A67216  40.821  18.302   6.753
10311POPC   C3A67217  40.751  18.252   7.053
10311POPC   C4A67218  40.769  18.249   7.353
10311POPC   C1B67219  40.994  18.300   6.453
10311POPC   C2B67220  40.978  18.297   6.753
10311POPC   C3B67221  40.998  18.317   7.053
10311POPC   C4B67222  40.998  18.294   7.353
10312POPC   NC367223   9.006  20.660   5.553
10312POPC   PO467224   8.978  20.585   5.853
10312POPC   GL167225   8.962  20.572   6.153
10312POPC   GL267226   8.839  20.682   6.153
10312POPC   C1A67227   8.977  20.615   6.453
10312POPC   D2A67228   8.986  20.646   6.753
10312POPC   C3A67229   8.961  20.634   7.053
10312POPC   C4A67230   9.001  20.613   7.353
10312POPC   C1B67231   8.726  20.645   6.453
10312POPC   C2B67232   8.707  20.697   6.753
10312POPC   C3B67233   8.772  20.701   7.053
10312POPC   C4B67234   8.738  20.693   7.353
10313POPC   NC367235   0.487  12.887   5.553
10313POPC   PO467236   0.400  12.853   5.853
10313POPC   GL167237   0.480  12.822   6.153
10313POPC   GL267238   0.302  12.824   6.153
10313POPC   C1A67239   0.401  12.846   6.453
10313POPC   D2A67240   0.464  12.864   6.753
10313POPC   C3A67241   0.474  12.849   7.053
10313POPC   C4A67242   0.483  12.852   7.353
10313POPC   C1B67243   0.224  12.784   6.453
10313POPC   C2B67244   0.222  12.723   6.753
10313POPC   C3B67245   0.230  12.701   7.053
10313POPC   C4B67246   0.253  12.738   7.353
10314POPC   NC367247  43.101  30.650   5.553
10314POPC   PO467248  43.067  30.678   5.853
10314POPC   GL167249  43.124  30.672   6.153
10314POPC   GL267250  43.120  30.799   6.153
10314POPC   C1A67251  43.103  30.722   6.453
10314POPC   D2A67252  43.105  30.720   6.753
10314POPC   C3A67253  43.151  30.728   7.053
10314POPC   C4A67254  43.116  30.726   7.353
10314POPC   C1B67255  43.043  30.913   6.453
10314POPC   C2B67256  43.070  30.933   6.753
10314POPC   C3B67257  43.032  30.913   7.053
10314POPC   C4B67258  43.050  30.953   7.353
10315POPC   NC367259  43.078  21.434   5.553
10315POPC   PO467260  43.076  21.398   5.853
10315POPC   GL167261  43.076  21.386   6.153
10315POPC   GL267262  42.983  21.391   6.153
10315POPC   C1A67263  43.066  21.361   6.453
10315POPC   D2A67264  43.135  21.394   6.753
10315POPC   C3A67265  43.144  21.368   7.053
10315POPC   C4A67266  43.086  21.342   7.353
10315POPC   C1B67267  42.900  21.392   6.453
10315POPC   C2B67268  42.901  21.417   6.753
10315POPC   C3B67269  42.856  21.388   7.053
10315POPC   C4B67270  42.882  21.392   7.353
10316POPC   NC367271   6.641  33.050   5.553
10316POPC   PO467272   6.602  32.980   5.853
10316POPC   GL167273   6.612  33.035   6.153
10316POPC   GL267274   6.660  32.885   6.153
10316POPC   C1A67275   6.630  33.066   6.453
10316POPC   D2A67276   6.617  33.041   6.753
10316POPC   C3A67277   6.642  33.074   7.053
10316POPC   C4A67278   6.630  32.998   7.353
10316POPC   C1B67279   6.627  32.818   6.453
10316POPC   C2B67280   6.682  32.817   6.753
10316POPC   C3B67281   6.692  32.774   7.053
10316POPC   C4B67282   6.664  32.727   7.353
10317POPC   NC367283  27.598  22.138   5.553
10317POPC   PO467284  27.545  22.206   5.853
10317POPC   GL167285  27.613  22.166   6.153
10317POPC   GL267286  27.740  22.089   6.153
10317POPC   C1A67287  27.601  22.113   6.453
10317POPC   D2A67288  27.561  22.204   6.753
10317POPC   C3A67289  27.609  22.201   7.053
10317POPC   C4A67290  27.628  22.147   7.353
10317POPC   C1B67291  27.821  22.030   6.453
10317POPC   C2B67292  27.763  22.005   6.753
10317POPC   C3B67293  27.848  22.020   7.053
10317POPC   C4B67294  27.770  22.022   7.353
10318POPC   NC367295  30.691  24.502   5.553
10318POPC   PO467296  30.743  24.469   5.853
10318POPC   GL167297  30.723  24.498   6.153
10318POPC   GL267298  30.788  24.400   6.153
10318POPC   C1A67299  30.654  24.516   6.453
10318POPC   D2A67300  30.654  24.445   6.753
10318POPC   C3A67301  30.675  24.464   7.053
10318POPC   C4A67302  30.682  24.473   7.353
10318POPC   C1B67303  30.817  24.340   6.453
10318POPC   C2B67304  30.861  24.288   6.753
10318POPC   C3B67305  30.854  24.285   7.053
10318POPC   C4B67306  30.894  24.279   7.353
10319POPC   NC367307   1.955  30.724   5.553
10319POPC   PO467308   2.033  30.745   5.853
10319POPC   GL167309   2.035  30.715   6.153
10319POPC   GL267310   2.077  30.798   6.153
10319POPC   C1A67311   1.963  30.663   6.453
10319POPC   D2A67312   1.990  30.746   6.753
10319POPC   C3A67313   1.998  30.710   7.053
10319POPC   C4A67314   1.979  30.679   7.353
10319POPC   C1B67315   2.197  30.882   6.453
10319POPC   C2B67316   2.179  30.931   6.753
10319POPC   C3B67317   2.182  30.913   7.053
10319POPC   C4B67318   2.113  30.903   7.353
10320POPC   NC367319  15.224  10.494   5.553
10320POPC   PO467320  15.154  10.523   5.853
10320POPC   GL167321  15.156  10.525   6.153
10320POPC   GL267322  15.053  10.406   6.153
10320POPC   C1A67323  15.177  10.525   6.453
10320POPC   D2A67324  15.210  10.476   6.753
10320POPC   C3A67325  15.184  10.536   7.053
10320POPC   C4A67326  15.145  10.531   7.353
10320POPC   C1B67327  14.971  10.339   6.453
10320POPC   C2B67328  15.026  10.359   6.753
10320POPC   C3B67329  15.029  10.330   7.053
10320POPC   C4B67330  15.004  10.354   7.353
10321POPC   NC367331  24.453  16.002   5.553
10321POPC   PO467332  24.514  15.958   5.853
10321POPC   GL167333  24.471  15.939   6.153
10321POPC   GL267334  24.630  16.006   6.153
10321POPC   C1A67335  24.524  15.940   6.453
10321POPC   D2A67336  24.488  15.945   6.753
10321POPC   C3A67337  24.444  15.987   7.053
10321POPC   C4A67338  24.488  15.906   7.353
10321POPC   C1B67339  24.696  16.118   6.453
10321POPC   C2B67340  24.716  16.113   6.753
10321POPC   C3B67341  24.717  16.069   7.053
10321POPC   C4B67342  24.671  16.077   7.353
10322POPC   NC367343   5.824   8.164   5.553
10322POPC   PO467344   5.828   8.232   5.853
10322POPC   GL167345   5.864   8.194   6.153
10322POPC   GL267346   6.025   8.096   6.153
10322POPC   C1A67347   5.895   8.228   6.453
10322POPC   D2A67348   5.849   8.148   6.753
10322POPC   C3A67349   5.842   8.155   7.053
10322POPC   C4A67350   5.885   8.199   7.353
10322POPC   C1B67351   6.105   8.116   6.453
10322POPC   C2B67352   6.072   8.130   6.753
10322POPC   C3B67353   6.083   8.040   7.053
10322POPC   C4B67354   6.125   8.092   7.353
10323POPC   NC367355   6.628   1.208   5.553
10323POPC   PO467356   6.612   1.204   5.853
10323POPC   GL167357   6.674   1.193   6.153
10323POPC   GL267358   6.639   1.109   6.153
10323POPC   C1A67359   6.693   1.221   6.453
10323POPC   D2A67360   6.645   1.201   6.753
10323POPC   C3A67361   6.605   1.170   7.053
10323POPC   C4A67362   6.598   1.241   7.353
10323POPC   C1B67363   6.567   0.959   6.453
10323POPC   C2B67364   6.617   0.932   6.753
10323POPC   C3B67365   6.565   0.943   7.053
10323POPC   C4B67366   6.658   0.948   7.353
10324POPC   NC367367  42.346  41.568   5.553
10324POPC   PO467368  42.308  41.512   5.853
10324POPC   GL167369  42.308  41.583   6.153
10324POPC   GL267370  42.184  41.633   6.153
10324POPC   C1A67371  42.323  41.544   6.453
10324POPC   D2A67372  42.287  41.524   6.753
10324POPC   C3A67373  42.321  41.510   7.053
10324POPC   C4A67374  42.379  41.571   7.353
10324POPC   C1B67375  42.097  41.624   6.453
10324POPC   C2B67376  42.053  41.678   6.753
10324POPC   C3B67377  42.121  41.667   7.053
10324POPC   C4B67378  42.134  41.607   7.353
10325POPC   NC367379  41.588   2.725   5.553
10325POPC   PO467380  41.558   2.754   5.853
10325POPC   GL167381  41.555   2.778   6.153
10325POPC   GL267382  41.590   2.916   6.153
10325POPC   C1A67383  41.588   2.815   6.453
10325POPC   D2A67384  41.533   2.763   6.753
10325POPC   C3A67385  41.561   2.754   7.053
10325POPC   C4A67386  41.523   2.810   7.353
10325POPC   C1B67387  41.635   3.025   6.453
10325POPC   C2B67388  41.635   2.969   6.753
10325POPC   C3B67389  41.699   2.992   7.053
10325POPC   C4B67390  41.704   3.036   7.353
10326POPC   NC367391   1.959  43.103   5.553
10326POPC   PO467392   2.011  43.136   5.853
10326POPC   GL167393   2.010  43.114   6.153
10326POPC   GL267394   1.869  43.178   6.153
10326POPC   C1A67395   2.002  43.139   6.453
10326POPC   D2A67396   2.022  43.076   6.753
10326POPC   C3A67397   1.951  43.139   7.053
10326POPC   C4A67398   2.022  43.063   7.353
10326POPC   C1B67399   1.777  43.245   6.453
10326POPC   C2B67400   1.741  43.246   6.753
10326POPC   C3B67401   1.808  43.279   7.053
10326POPC   C4B67402   1.786  43.235   7.353
10327POPC   NC367403  25.288  26.056   5.553
10327POPC   PO467404  25.229  26.077   5.853
10327POPC   GL167405  25.224  26.066   6.153
10327POPC   GL267406  25.197  25.942   6.153
10327POPC   C1A67407  25.299  26.029   6.453
10327POPC   D2A67408  25.254  25.995   6.753
10327POPC   C3A67409  25.252  26.011   7.053
10327POPC   C4A67410  25.225  26.027   7.353
10327POPC   C1B67411  25.150  25.815   6.453
10327POPC   C2B67412  25.169  25.816   6.753
10327POPC   C3B67413  25.147  25.814   7.053
10327POPC   C4B67414  25.095  25.784   7.353
10328POPC   NC367415  35.398  21.387   5.553
10328POPC   PO467416  35.382  21.339   5.853
10328POPC   GL167417  35.362  21.400   6.153
10328POPC   GL267418  35.504  21.386   6.153
10328POPC   C1A67419  35.354  21.411   6.453
10328POPC   D2A67420  35.395  21.341   6.753
10328POPC   C3A67421  35.383  21.388   7.053
10328POPC   C4A67422  35.350  21.337   7.353
10328POPC   C1B67423  35.573  21.358   6.453
10328POPC   C2B67424  35.616  21.400   6.753
10328POPC   C3B67425  35.609  21.353   7.053
10328POPC   C4B67426  35.589  21.368   7.353
10329POPC   NC367427  10.522   6.687   5.553
10329POPC   PO467428  10.505   6.672   5.853
10329POPC   GL167429  10.545   6.616   6.153
10329POPC   GL267430  10.595   6.600   6.153
10329POPC   C1A67431  10.553   6.678   6.453
10329POPC   D2A67432  10.528   6.675   6.753
10329POPC   C3A67433  10.538   6.668   7.053
10329POPC   C4A67434  10.545   6.664   7.353
10329POPC   C1B67435  10.682   6.499   6.453
10329POPC   C2B67436  10.750   6.463   6.753
10329POPC   C3B67437  10.691   6.518   7.053
10329POPC   C4B67438  10.749   6.497   7.353
10330POPC   NC367439  26.782  14.355   5.553
10330POPC   PO467440  26.864  14.444   5.853
10330POPC   GL167441  26.857  14.363   6.153
10330POPC   GL267442  26.765  14.288   6.153
10330POPC   C1A67443  26.793  14.426   6.453
10330POPC   D2A67444  26.830  14.409   6.753
10330POPC   C3A67445  26.816  14.450   7.053
10330POPC   C4A67446  26.810  14.450   7.353
10330POPC   C1B67447  26.823  14.118   6.453
10330POPC   C2B67448  26.810  14.170   6.753
10330POPC   C3B67449  26.786  14.190   7.053
10330POPC   C4B67450  26.807  14.124   7.353
10331POPC   NC367451  44.712  43.881   5.553
10331POPC   PO467452  44.692  43.923   5.853
10331POPC   GL167453  44.644  43.839   6.153
10331POPC   GL267454  44.743  43.787   6.153
10331POPC   C1A67455  44.685  43.855   6.453
10331POPC   D2A67456  44.643  43.865   6.753
10331POPC   C3A67457  44.678  43.929   7.053
10331POPC   C4A67458  44.693  43.909   7.353
10331POPC   C1B67459  44.851  43.729   6.453
10331POPC   C2B67460  44.853  43.724   6.753
10331POPC   C3B67461  44.879  43.745   7.053
10331POPC   C4B67462  44.796  43.656   7.353
10332POPC   NC367463  36.151  42.321   5.553
10332POPC   PO467464  36.102  42.323   5.853
10332POPC   GL167465  36.171  42.289   6.153
10332POPC   GL267466  36.019  42.312   6.153
10332POPC   C1A67467  36.122  42.295   6.453
10332POPC   D2A67468  36.133  42.359   6.753
10332POPC   C3A67469  36.107  42.361   7.053
10332POPC   C4A67470  36.111  42.354   7.353
10332POPC   C1B67471  35.949  42.255   6.453
10332POPC   C2B67472  35.934  42.234   6.753
10332POPC   C3B67473  35.928  42.178   7.053
10332POPC   C4B67474  35.905  42.172   7.353
10333POPC   NC367475  21.396  32.276   5.553
10333POPC   PO467476  21.424  32.252   5.853
10333POPC   GL167477  21.356  32.265   6.153
10333POPC   GL267478  21.237  32.270   6.153
10333POPC   C1A67479  21.387  32.259   6.453
10333POPC   D2A67480  21.391  32.261   6.753
10333POPC   C3A67481  21.362  32.290   7.053
10333POPC   C4A67482  21.421  32.209   7.353
10333POPC   C1B67483  21.125  32.289   6.453
10333POPC   C2B67484  21.158  32.232   6.753
10333POPC   C3B67485  21.102  32.216   7.053
10333POPC   C4B67486  21.140  32.289   7.353
10334POPC   NC367487  18.319  39.990   5.553
10334POPC   PO467488  18.330  40.042   5.853
10334POPC   GL167489  18.271  39.960   6.153
10334POPC   GL267490  18.389  39.925   6.153
10334POPC   C1A67491  18.245  40.049   6.453
10334POPC   D2A67492  18.267  39.989   6.753
10334POPC   C3A67493  18.257  40.008   7.053
10334POPC   C4A67494  18.301  40.027   7.353
10334POPC   C1B67495  18.464  39.910   6.453
10334POPC   C2B67496  18.528  39.914   6.753
10334POPC   C3B67497  18.519  39.865   7.053
10334POPC   C4B67498  18.490  39.902   7.353
10335POPC   NC367499   9.733   9.728   5.553
10335POPC   PO467500   9.704   9.787   5.853
10335POPC   GL167501   9.753   9.751   6.153
10335POPC   GL267502   9.881   9.832   6.153
10335POPC   C1A67503   9.754   9.711   6.453
10335POPC   D2A67504   9.702   9.732   6.753
10335POPC   C3A67505   9.767   9.743   7.053
10335POPC   C4A67506   9.729   9.701   7.353
10335POPC   C1B67507   9.976   9.883   6.453
10335POPC   C2B67508  10.013   9.884   6.753
10335POPC   C3B67509   9.943   9.859   7.053
10335POPC   C4B67510   9.947   9.862   7.353
10336POPC   NC367511  41.565  34.561   5.553
10336POPC   PO467512  41.522  34.559   5.853
10336POPC   GL167513  41.514  34.592   6.153
10336POPC   GL267514  41.526  34.445   6.153
10336POPC   C1A67515  41.563  34.581   6.453
10336POPC   D2A67516  41.553  34.555   6.753
10336POPC   C3A67517  41.564  34.596   7.053
10336POPC   C4A67518  41.548  34.574   7.353
10336POPC   C1B67519  41.558  34.325   6.453
10336POPC   C2B67520  41.579  34.318   6.753
10336POPC   C3B67521  41.577  34.327   7.053
10336POPC   C4B67522  41.604  34.294   7.353
10337POPC   NC367523   7.433  30.657   5.553
10337POPC   PO467524   7.414  30.672   5.853
10337POPC   GL167525   7.443  30.700   6.153
10337POPC   GL267526   7.555  30.798   6.153
10337POPC   C1A67527   7.411  30.662   6.453
10337POPC   D2A67528   7.380  30.677   6.753
10337POPC   C3A67529   7.383  30.739   7.053
10337POPC   C4A67530   7.433  30.724   7.353
10337POPC   C1B67531   7.626  30.806   6.453
10337POPC   C2B67532   7.593  30.844   6.753
10337POPC   C3B67533   7.610  30.865   7.053
10337POPC   C4B67534   7.664  30.844   7.353
10338POPC   NC367535   4.346   0.430   5.553
10338POPC   PO467536   4.338   0.450   5.853
10338POPC   GL167537   4.363   0.422   6.153
10338POPC   GL267538   4.209   0.313   6.153
10338POPC   C1A67539   4.332   0.407   6.453
10338POPC   D2A67540   4.323   0.463   6.753
10338POPC   C3A67541   4.286   0.485   7.053
10338POPC   C4A67542   4.301   0.460   7.353
10338POPC   C1B67543   4.149   0.217   6.453
10338POPC   C2B67544   4.184   0.252   6.753
10338POPC   C3B67545   4.147   0.271   7.053
10338POPC   C4B67546   4.115   0.261   7.353
10339POPC   NC367547  15.227  28.351   5.553
10339POPC   PO467548  15.209  28.330   5.853
10339POPC   GL167549  15.129  28.333   6.153
10339POPC   GL267550  15.183  28.284   6.153
10339POPC   C1A67551  15.171  28.343   6.453
10339POPC   D2A67552  15.229  28.328   6.753
10339POPC   C3A67553  15.177  28.332   7.053
10339POPC   C4A67554  15.169  28.349   7.353
10339POPC   C1B67555  15.251  28.140   6.453
10339POPC   C2B67556  15.267  28.132   6.753
10339POPC   C3B67557  15.221  28.155   7.053
10339POPC   C4B67558  15.207  28.168   7.353
10340POPC   NC367559   8.927  30.691   5.553
10340POPC   PO467560   8.997  30.659   5.853
10340POPC   GL167561   8.943  30.675   6.153
10340POPC   GL267562   8.943  30.798   6.153
10340POPC   C1A67563   8.934  30.670   6.453
10340POPC   D2A67564   9.010  30.697   6.753
10340POPC   C3A67565   9.010  30.697   7.053
10340POPC   C4A67566   9.016  30.716   7.353
10340POPC   C1B67567   9.004  30.900   6.453
10340POPC   C2B67568   9.037  30.898   6.753
10340POPC   C3B67569   9.042  30.971   7.053
10340POPC   C4B67570   9.006  30.962   7.353
10341POPC   NC367571   4.291  39.994   5.553
10341POPC   PO467572   4.297  40.032   5.853
10341POPC   GL167573   4.348  40.023   6.153
10341POPC   GL267574   4.316  39.842   6.153
10341POPC   C1A67575   4.356  40.033   6.453
10341POPC   D2A67576   4.345  40.014   6.753
10341POPC   C3A67577   4.278  40.012   7.053
10341POPC   C4A67578   4.314  39.994   7.353
10341POPC   C1B67579   4.420  39.803   6.453
10341POPC   C2B67580   4.411  39.764   6.753
10341POPC   C3B67581   4.431  39.793   7.053
10341POPC   C4B67582   4.383  39.744   7.353
10342POPC   NC367583  27.602  30.717   5.553
10342POPC   PO467584  27.614  30.696   5.853
10342POPC   GL167585  27.596  30.703   6.153
10342POPC   GL267586  27.575  30.610   6.153
10342POPC   C1A67587  27.593  30.679   6.453
10342POPC   D2A67588  27.553  30.651   6.753
10342POPC   C3A67589  27.639  30.719   7.053
10342POPC   C4A67590  27.606  30.664   7.353
10342POPC   C1B67591  27.510  30.480   6.453
10342POPC   C2B67592  27.597  30.492   6.753
10342POPC   C3B67593  27.545  30.475   7.053
10342POPC   C4B67594  27.553  30.433   7.353
10343POPC   NC367595  39.251   7.424   5.553
10343POPC   PO467596  39.206   7.447   5.853
10343POPC   GL167597  39.259   7.463   6.153
10343POPC   GL267598  39.335   7.371   6.153
10343POPC   C1A67599  39.190   7.466   6.453
10343POPC   D2A67600  39.222   7.467   6.753
10343POPC   C3A67601  39.278   7.387   7.053
10343POPC   C4A67602  39.197   7.407   7.353
10343POPC   C1B67603  39.385   7.283   6.453
10343POPC   C2B67604  39.431   7.289   6.753
10343POPC   C3B67605  39.431   7.220   7.053
10343POPC   C4B67606  39.441   7.207   7.353
10344POPC   NC367607  21.436  14.387   5.553
10344POPC   PO467608  21.348  14.412   5.853
10344POPC   GL167609  21.406  14.397   6.153
10344POPC   GL267610  21.491  14.500   6.153
10344POPC   C1A67611  21.424  14.446   6.453
10344POPC   D2A67612  21.431  14.424   6.753
10344POPC   C3A67613  21.416  14.430   7.053
10344POPC   C4A67614  21.344  14.393   7.353
10344POPC   C1B67615  21.643  14.575   6.453
10344POPC   C2B67616  21.608  14.508   6.753
10344POPC   C3B67617  21.624  14.517   7.053
10344POPC   C4B67618  21.617  14.584   7.353
10345POPC   NC367619   6.640   2.718   5.553
10345POPC   PO467620   6.618   2.769   5.853
10345POPC   GL167621   6.689   2.791   6.153
10345POPC   GL267622   6.791   2.727   6.153
10345POPC   C1A67623   6.598   2.791   6.453
10345POPC   D2A67624   6.645   2.730   6.753
10345POPC   C3A67625   6.692   2.764   7.053
10345POPC   C4A67626   6.644   2.755   7.353
10345POPC   C1B67627   6.901   2.631   6.453
10345POPC   C2B67628   6.842   2.628   6.753
10345POPC   C3B67629   6.889   2.628   7.053
10345POPC   C4B67630   6.873   2.658   7.353
10346POPC   NC367631  32.249   0.478   5.553
10346POPC   PO467632  32.201   0.433   5.853
10346POPC   GL167633  32.233   0.474   6.153
10346POPC   GL267634  32.163   0.443   6.153
10346POPC   C1A67635  32.273   0.454   6.453
10346POPC   D2A67636  32.262   0.484   6.753
10346POPC   C3A67637  32.266   0.411   7.053
10346POPC   C4A67638  32.230   0.476   7.353
10346POPC   C1B67639  31.993   0.304   6.453
10346POPC   C2B67640  32.016   0.309   6.753
10346POPC   C3B67641  32.009   0.401   7.053
10346POPC   C4B67642  32.018   0.389   7.353
10347POPC   NC367643  20.598   3.554   5.553
10347POPC   PO467644  20.609   3.563   5.853
10347POPC   GL167645  20.648   3.499   6.153
10347POPC   GL267646  20.568   3.450   6.153
10347POPC   C1A67647  20.596   3.532   6.453
10347POPC   D2A67648  20.645   3.508   6.753
10347POPC   C3A67649  20.619   3.567   7.053
10347POPC   C4A67650  20.619   3.584   7.353
10347POPC   C1B67651  20.514   3.262   6.453
10347POPC   C2B67652  20.558   3.290   6.753
10347POPC   C3B67653  20.516   3.353   7.053
10347POPC   C4B67654  20.517   3.345   7.353
10348POPC   NC367655  18.324  36.111   5.553
10348POPC   PO467656  18.279  36.098   5.853
10348POPC   GL167657  18.329  36.124   6.153
10348POPC   GL267658  18.194  35.990   6.153
10348POPC   C1A67659  18.286  36.149   6.453
10348POPC   D2A67660  18.302  36.108   6.753
10348POPC   C3A67661  18.238  36.143   7.053
10348POPC   C4A67662  18.323  36.095   7.353
10348POPC   C1B67663  18.129  35.909   6.453
10348POPC   C2B67664  18.156  35.987   6.753
10348POPC   C3B67665  18.116  35.987   7.053
10348POPC   C4B67666  18.156  35.971   7.353
10349POPC   NC367667  17.517  34.563   5.553
10349POPC   PO467668  17.503  34.551   5.853
10349POPC   GL167669  17.531  34.542   6.153
10349POPC   GL267670  17.424  34.617   6.153
10349POPC   C1A67671  17.484  34.605   6.453
10349POPC   D2A67672  17.510  34.526   6.753
10349POPC   C3A67673  17.512  34.560   7.053
10349POPC   C4A67674  17.529  34.608   7.353
10349POPC   C1B67675  17.286  34.596   6.453
10349POPC   C2B67676  17.271  34.611   6.753
10349POPC   C3B67677  17.311  34.657   7.053
10349POPC   C4B67678  17.239  34.682   7.353
10350POPC   NC367679  36.882   7.383   5.553
10350POPC   PO467680  36.912   7.378   5.853
10350POPC   GL167681  36.943   7.400   6.153
10350POPC   GL267682  36.983   7.373   6.153
10350POPC   C1A67683  36.887   7.376   6.453
10350POPC   D2A67684  36.900   7.455   6.753
10350POPC   C3A67685  36.945   7.392   7.053
10350POPC   C4A67686  36.893   7.381   7.353
10350POPC   C1B67687  37.162   7.330   6.453
10350POPC   C2B67688  37.189   7.391   6.753
10350POPC   C3B67689  37.098   7.328   7.053
10350POPC   C4B67690  37.144   7.349   7.353
10351POPC   NC367691  33.766  19.068   5.553
10351POPC   PO467692  33.762  19.045   5.853
10351POPC   GL167693  33.810  19.041   6.153
10351POPC   GL267694  33.917  19.069   6.153
10351POPC   C1A67695  33.773  19.030   6.453
10351POPC   D2A67696  33.794  19.010   6.753
10351POPC   C3A67697  33.766  19.064   7.053
10351POPC   C4A67698  33.762  19.072   7.353
10351POPC   C1B67699  34.037  18.963   6.453
10351POPC   C2B67700  34.011  18.997   6.753
10351POPC   C3B67701  34.079  19.026   7.053
10351POPC   C4B67702  34.026  18.965   7.353
10352POPC   NC367703  25.218   5.882   5.553
10352POPC   PO467704  25.315   5.833   5.853
10352POPC   GL167705  25.246   5.846   6.153
10352POPC   GL267706  25.334   5.977   6.153
10352POPC   C1A67707  25.306   5.869   6.453
10352POPC   D2A67708  25.224   5.845   6.753
10352POPC   C3A67709  25.299   5.912   7.053
10352POPC   C4A67710  25.273   5.879   7.353
10352POPC   C1B67711  25.383   6.067   6.453
10352POPC   C2B67712  25.427   6.031   6.753
10352POPC   C3B67713  25.384   6.099   7.053
10352POPC   C4B67714  25.440   6.057   7.353
10353POPC   NC367715   7.463  29.179   5.553
10353POPC   PO467716   7.436  29.128   5.853
10353POPC   GL167717   7.395  29.148   6.153
10353POPC   GL267718   7.284  29.194   6.153
10353POPC   C1A67719   7.426  29.152   6.453
10353POPC   D2A67720   7.404  29.118   6.753
10353POPC   C3A67721   7.446  29.174   7.053
10353POPC   C4A67722   7.400  29.149   7.353
10353POPC   C1B67723   7.202  29.188   6.453
10353POPC   C2B67724   7.188  29.159   6.753
10353POPC   C3B67725   7.174  29.192   7.053
10353POPC   C4B67726   7.215  29.216   7.353
10354POPC   NC367727  44.630  39.192   5.553
10354POPC   PO467728  44.692  39.245   5.853
10354POPC   GL167729  44.620  39.274   6.153
10354POPC   GL267730  44.603  39.346   6.153
10354POPC   C1A67731  44.677  39.194   6.453
10354POPC   D2A67732  44.679  39.200   6.753
10354POPC   C3A67733  44.627  39.246   7.053
10354POPC   C4A67734  44.651  39.190   7.353
10354POPC   C1B67735  44.670  39.452   6.453
10354POPC   C2B67736  44.602  39.451   6.753
10354POPC   C3B67737  44.659  39.469   7.053
10354POPC   C4B67738  44.649  39.465   7.353
10355POPC   NC367739   1.247  43.922   5.553
10355POPC   PO467740   1.241  43.910   5.853
10355POPC   GL167741   1.210  43.840   6.153
10355POPC   GL267742   1.266  43.784   6.153
10355POPC   C1A67743   1.204  43.916   6.453
10355POPC   D2A67744   1.195  43.921   6.753
10355POPC   C3A67745   1.212  43.902   7.053
10355POPC   C4A67746   1.230  43.904   7.353
10355POPC   C1B67747   1.379  43.715   6.453
10355POPC   C2B67748   1.431  43.670   6.753
10355POPC   C3B67749   1.366  43.708   7.053
10355POPC   C4B67750   1.427  43.741   7.353
10356POPC   NC367751  23.760  24.455   5.553
10356POPC   PO467752  23.728  24.499   5.853
10356POPC   GL167753  23.704  24.528   6.153
10356POPC   GL267754  23.639  24.469   6.153
10356POPC   C1A67755  23.742  24.520   6.453
10356POPC   D2A67756  23.732  24.515   6.753
10356POPC   C3A67757  23.676  24.510   7.053
10356POPC   C4A67758  23.708  24.535   7.353
10356POPC   C1B67759  23.466  24.376   6.453
10356POPC   C2B67760  23.534  24.394   6.753
10356POPC   C3B67761  23.485  24.346   7.053
10356POPC   C4B67762  23.500  24.352   7.353
10357POPC   NC367763  35.381  43.077   5.553
10357POPC   PO467764  35.322  43.107   5.853
10357POPC   GL167765  35.322  43.148   6.153
10357POPC   GL267766  35.259  42.993   6.153
10357POPC   C1A67767  35.338  43.146   6.453
10357POPC   D2A67768  35.318  43.142   6.753
10357POPC   C3A67769  35.335  43.083   7.053
10357POPC   C4A67770  35.332  43.096   7.353
10357POPC   C1B67771  35.185  42.880   6.453
10357POPC   C2B67772  35.186  42.928   6.753
10357POPC   C3B67773  35.242  42.957   7.053
10357POPC   C4B67774  35.153  42.884   7.353
10358POPC   NC367775   6.599  43.083   5.553
10358POPC   PO467776   6.659  43.160   5.853
10358POPC   GL167777   6.620  43.107   6.153
10358POPC   GL267778   6.510  43.083   6.153
10358POPC   C1A67779   6.609  43.072   6.453
10358POPC   D2A67780   6.602  43.101   6.753
10358POPC   C3A67781   6.694  43.084   7.053
10358POPC   C4A67782   6.686  43.091   7.353
10358POPC   C1B67783   6.383  43.179   6.453
10358POPC   C2B67784   6.423  43.186   6.753
10358POPC   C3B67785   6.381  43.143   7.053
10358POPC   C4B67786   6.428  43.183   7.353
10359POPC   NC367787  43.071  10.481   5.553
10359POPC   PO467788  43.081  10.570   5.853
10359POPC   GL167789  43.077  10.510   6.153
10359POPC   GL267790  43.181  10.556   6.153
10359POPC   C1A67791  43.145  10.482   6.453
10359POPC   D2A67792  43.064  10.565   6.753
10359POPC   C3A67793  43.108  10.500   7.053
10359POPC   C4A67794  43.100  10.530   7.353
10359POPC   C1B67795  43.369  10.601   6.453
10359POPC   C2B67796  43.335  10.573   6.753
10359POPC   C3B67797  43.316  10.631   7.053
10359POPC   C4B67798  43.299  10.623   7.353
10360POPC   NC367799  31.499  15.147   5.553
10360POPC   PO467800  31.433  15.222   5.853
10360POPC   GL167801  31.425  15.194   6.153
10360POPC   GL267802  31.578  15.238   6.153
10360POPC   C1A67803  31.470  15.161   6.453
10360POPC   D2A67804  31.509  15.152   6.753
10360POPC   C3A67805  31.427  15.194   7.053
10360POPC   C4A67806  31.440  15.150   7.353
10360POPC   C1B67807  31.636  15.339   6.453
10360POPC   C2B67808  31.657  15.360   6.753
10360POPC   C3B67809  31.727  15.357   7.053
10360POPC   C4B67810  31.710  15.289   7.353
10361POPC   NC367811  36.120  33.011   5.553
10361POPC   PO467812  36.177  33.064   5.853
10361POPC   GL167813  36.083  33.071   6.153
10361POPC   GL267814  36.146  32.947   6.153
10361POPC   C1A67815  36.095  33.023   6.453
10361POPC   D2A67816  36.154  32.984   6.753
10361POPC   C3A67817  36.130  33.047   7.053
10361POPC   C4A67818  36.128  33.022   7.353
10361POPC   C1B67819  36.156  32.748   6.453
10361POPC   C2B67820  36.174  32.754   6.753
10361POPC   C3B67821  36.169  32.813   7.053
10361POPC   C4B67822  36.209  32.750   7.353
10362POPC   NC367823  33.813  11.329   5.553
10362POPC   PO467824  33.806  11.295   5.853
10362POPC   GL167825  33.769  11.340   6.153
10362POPC   GL267826  33.897  11.354   6.153
10362POPC   C1A67827  33.804  11.333   6.453
10362POPC   D2A67828  33.754  11.300   6.753
10362POPC   C3A67829  33.806  11.273   7.053
10362POPC   C4A67830  33.770  11.263   7.353
10362POPC   C1B67831  33.997  11.361   6.453
10362POPC   C2B67832  34.030  11.383   6.753
10362POPC   C3B67833  34.021  11.392   7.053
10362POPC   C4B67834  34.002  11.432   7.353
10363POPC   NC367835  14.425  39.188   5.553
10363POPC   PO467836  14.411  39.185   5.853
10363POPC   GL167837  14.389  39.217   6.153
10363POPC   GL267838  14.294  39.170   6.153
10363POPC   C1A67839  14.360  39.220   6.453
10363POPC   D2A67840  14.355  39.275   6.753
10363POPC   C3A67841  14.373  39.206   7.053
10363POPC   C4A67842  14.372  39.244   7.353
10363POPC   C1B67843  14.225  39.051   6.453
10363POPC   C2B67844  14.190  39.063   6.753
10363POPC   C3B67845  14.171  39.056   7.053
10363POPC   C4B67846  14.160  39.052   7.353
10364POPC   NC367847  23.758   1.239   5.553
10364POPC   PO467848  23.735   1.165   5.853
10364POPC   GL167849  23.754   1.256   6.153
10364POPC   GL267850  23.558   1.179   6.153
10364POPC   C1A67851  23.700   1.228   6.453
10364POPC   D2A67852  23.677   1.219   6.753
10364POPC   C3A67853  23.706   1.232   7.053
10364POPC   C4A67854  23.751   1.216   7.353
10364POPC   C1B67855  23.536   1.052   6.453
10364POPC   C2B67856  23.527   1.081   6.753
10364POPC   C3B67857  23.548   1.076   7.053
10364POPC   C4B67858  23.521   1.075   7.353
10365POPC   NC367859  42.291  32.212   5.553
10365POPC   PO467860  42.380  32.276   5.853
10365POPC   GL167861  42.340  32.203   6.153
10365POPC   GL267862  42.406  32.251   6.153
10365POPC   C1A67863  42.285  32.241   6.453
10365POPC   D2A67864  42.328  32.255   6.753
10365POPC   C3A67865  42.364  32.223   7.053
10365POPC   C4A67866  42.365  32.252   7.353
10365POPC   C1B67867  42.547  32.147   6.453
10365POPC   C2B67868  42.540  32.139   6.753
10365POPC   C3B67869  42.558  32.165   7.053
10365POPC   C4B67870  42.569  32.226   7.353
10366POPC   NC367871   2.747  13.595   5.553
10366POPC   PO467872   2.762  13.643   5.853
10366POPC   GL167873   2.763  13.661   6.153
10366POPC   GL267874   2.888  13.684   6.153
10366POPC   C1A67875   2.772  13.586   6.453
10366POPC   D2A67876   2.778  13.621   6.753
10366POPC   C3A67877   2.774  13.651   7.053
10366POPC   C4A67878   2.716  13.661   7.353
10366POPC   C1B67879   2.980  13.623   6.453
10366POPC   C2B67880   3.031  13.680   6.753
10366POPC   C3B67881   3.013  13.654   7.053
10366POPC   C4B67882   3.020  13.677   7.353
10367POPC   NC367883   0.486  31.467   5.553
10367POPC   PO467884   0.439  31.490   5.853
10367POPC   GL167885   0.420  31.453   6.153
10367POPC   GL267886   0.402  31.347   6.153
10367POPC   C1A67887   0.470  31.458   6.453
10367POPC   D2A67888   0.463  31.499   6.753
10367POPC   C3A67889   0.426  31.428   7.053
10367POPC   C4A67890   0.468  31.476   7.353
10367POPC   C1B67891   0.229  31.308   6.453
10367POPC   C2B67892   0.307  31.293   6.753
10367POPC   C3B67893   0.247  31.279   7.053
10367POPC   C4B67894   0.308  31.246   7.353
10368POPC   NC367895  22.203  34.572   5.553
10368POPC   PO467896  22.133  34.621   5.853
10368POPC   GL167897  22.142  34.565   6.153
10368POPC   GL267898  22.248  34.572   6.153
10368POPC   C1A67899  22.127  34.536   6.453
10368POPC   D2A67900  22.166  34.571   6.753
10368POPC   C3A67901  22.165  34.603   7.053
10368POPC   C4A67902  22.154  34.591   7.353
10368POPC   C1B67903  22.417  34.493   6.453
10368POPC   C2B67904  22.364  34.528   6.753
10368POPC   C3B67905  22.385  34.517   7.053
10368POPC   C4B67906  22.354  34.476   7.353
10369POPC   NC367907  22.145  22.132   5.553
10369POPC   PO467908  22.195  22.209   5.853
10369POPC   GL167909  22.153  22.181   6.153
10369POPC   GL267910  22.171  22.334   6.153
10369POPC   C1A67911  22.145  22.202   6.453
10369POPC   D2A67912  22.181  22.152   6.753
10369POPC   C3A67913  22.206  22.175   7.053
10369POPC   C4A67914  22.185  22.125   7.353
10369POPC   C1B67915  22.161  22.418   6.453
10369POPC   C2B67916  22.227  22.400   6.753
10369POPC   C3B67917  22.222  22.434   7.053
10369POPC   C4B67918  22.243  22.439   7.353
10370POPC   NC367919  33.045  26.006   5.553
10370POPC   PO467920  33.063  26.025   5.853
10370POPC   GL167921  33.043  26.016   6.153
10370POPC   GL267922  33.047  26.158   6.153
10370POPC   C1A67923  33.045  26.086   6.453
10370POPC   D2A67924  32.978  26.060   6.753
10370POPC   C3A67925  33.068  25.999   7.053
10370POPC   C4A67926  32.998  26.085   7.353
10370POPC   C1B67927  32.957  26.285   6.453
10370POPC   C2B67928  33.024  26.290   6.753
10370POPC   C3B67929  33.029  26.332   7.053
10370POPC   C4B67930  32.968  26.327   7.353
10371POPC   NC367931  15.906  32.981   5.553
10371POPC   PO467932  16.005  33.043   5.853
10371POPC   GL167933  15.991  33.029   6.153
10371POPC   GL267934  16.004  32.904   6.153
10371POPC   C1A67935  15.997  33.035   6.453
10371POPC   D2A67936  15.919  33.071   6.753
10371POPC   C3A67937  15.909  33.031   7.053
10371POPC   C4A67938  15.941  33.039   7.353
10371POPC   C1B67939  16.012  32.807   6.453
10371POPC   C2B67940  16.048  32.793   6.753
10371POPC   C3B67941  15.975  32.788   7.053
10371POPC   C4B67942  15.975  32.747   7.353
10372POPC   NC367943  26.846  27.595   5.553
10372POPC   PO467944  26.866  27.619   5.853
10372POPC   GL167945  26.857  27.570   6.153
10372POPC   GL267946  26.945  27.540   6.153
10372POPC   C1A67947  26.841  27.573   6.453
10372POPC   D2A67948  26.833  27.614   6.753
10372POPC   C3A67949  26.798  27.629   7.053
10372POPC   C4A67950  26.787  27.627   7.353
10372POPC   C1B67951  26.995  27.487   6.453
10372POPC   C2B67952  27.044  27.428   6.753
10372POPC   C3B67953  27.038  27.487   7.053
10372POPC   C4B67954  26.972  27.433   7.353
10373POPC   NC367955  22.119  27.601   5.553
10373POPC   PO467956  22.197  27.555   5.853
10373POPC   GL167957  22.209  27.570   6.153
10373POPC   GL267958  22.235  27.757   6.153
10373POPC   C1A67959  22.164  27.551   6.453
10373POPC   D2A67960  22.148  27.546   6.753
10373POPC   C3A67961  22.135  27.583   7.053
10373POPC   C4A67962  22.167  27.552   7.353
10373POPC   C1B67963  22.247  27.850   6.453
10373POPC   C2B67964  22.246  27.835   6.753
10373POPC   C3B67965  22.207  27.807   7.053
10373POPC   C4B67966  22.197  27.835   7.353
10374POPC   NC367967  38.486  25.235   5.553
10374POPC   PO467968  38.459  25.256   5.853
10374POPC   GL167969  38.446  25.288   6.153
10374POPC   GL267970  38.474  25.189   6.153
10374POPC   C1A67971  38.478  25.287   6.453
10374POPC   D2A67972  38.500  25.301   6.753
10374POPC   C3A67973  38.426  25.276   7.053
10374POPC   C4A67974  38.468  25.290   7.353
10374POPC   C1B67975  38.548  25.026   6.453
10374POPC   C2B67976  38.529  24.977   6.753
10374POPC   C3B67977  38.525  25.071   7.053
10374POPC   C4B67978  38.541  25.071   7.353
10375POPC   NC367979  26.086  26.866   5.553
10375POPC   PO467980  26.017  26.829   5.853
10375POPC   GL167981  26.053  26.794   6.153
10375POPC   GL267982  25.934  26.806   6.153
10375POPC   C1A67983  25.999  26.779   6.453
10375POPC   D2A67984  26.090  26.824   6.753
10375POPC   C3A67985  25.995  26.837   7.053
10375POPC   C4A67986  26.042  26.839   7.353
10375POPC   C1B67987  25.789  26.833   6.453
10375POPC   C2B67988  25.840  26.879   6.753
10375POPC   C3B67989  25.815  26.884   7.053
10375POPC   C4B67990  25.818  26.862   7.353
10376POPC   NC367991  12.085  36.931   5.553
10376POPC   PO467992  12.090  36.862   5.853
10376POPC   GL167993  12.120  36.936   6.153
10376POPC   GL267994  12.165  37.055   6.153
10376POPC   C1A67995  12.033  36.858   6.453
10376POPC   D2A67996  12.054  36.864   6.753
10376POPC   C3A67997  12.125  36.909   7.053
10376POPC   C4A67998  12.071  36.915   7.353
10376POPC   C1B67999  12.210  37.091   6.453
10376POPC   C2B68000  12.174  37.111   6.753
10376POPC   C3B68001  12.130  37.115   7.053
10376POPC   C4B68002  12.126  37.131   7.353
10377POPC   NC368003  44.673   5.857   5.553
10377POPC   PO468004  44.620   5.903   5.853
10377POPC   GL168005  44.621   5.832   6.153
10377POPC   GL268006  44.537   5.725   6.153
10377POPC   C1A68007  44.683   5.895   6.453
10377POPC   D2A68008  44.637   5.836   6.753
10377POPC   C3A68009  44.655   5.851   7.053
10377POPC   C4A68010  44.670   5.883   7.353
10377POPC   C1B68011  44.499   5.656   6.453
10377POPC   C2B68012  44.534   5.690   6.753
10377POPC   C3B68013  44.472   5.682   7.053
10377POPC   C4B68014  44.530   5.693   7.353
10378POPC   NC368015  14.379  29.172   5.553
10378POPC   PO468016  14.397  29.187   5.853
10378POPC   GL168017  14.446  29.136   6.153
10378POPC   GL268018  14.418  29.267   6.153
10378POPC   C1A68019  14.446  29.102   6.453
10378POPC   D2A68020  14.398  29.130   6.753
10378POPC   C3A68021  14.385  29.122   7.053
10378POPC   C4A68022  14.377  29.101   7.353
10378POPC   C1B68023  14.430  29.359   6.453
10378POPC   C2B68024  14.386  29.392   6.753
10378POPC   C3B68025  14.356  29.415   7.053
10378POPC   C4B68026  14.344  29.420   7.353
10379POPC   NC368027  17.490   8.200   5.553
10379POPC   PO468028  17.464   8.152   5.853
10379POPC   GL168029  17.482   8.150   6.153
10379POPC   GL268030  17.411   8.092   6.153
10379POPC   C1A68031  17.498   8.206   6.453
10379POPC   D2A68032  17.547   8.150   6.753
10379POPC   C3A68033  17.533   8.231   7.053
10379POPC   C4A68034  17.527   8.199   7.353
10379POPC   C1B68035  17.321   7.982   6.453
10379POPC   C2B68036  17.394   7.998   6.753
10379POPC   C3B68037  17.333   8.042   7.053
10379POPC   C4B68038  17.375   8.048   7.353
10380POPC   NC368039  37.692  27.577   5.553
10380POPC   PO468040  37.630  27.547   5.853
10380POPC   GL168041  37.701  27.608   6.153
10380POPC   GL268042  37.636  27.653   6.153
10380POPC   C1A68043  37.639  27.602   6.453
10380POPC   D2A68044  37.642  27.622   6.753
10380POPC   C3A68045  37.655  27.544   7.053
10380POPC   C4A68046  37.661  27.562   7.353
10380POPC   C1B68047  37.544  27.752   6.453
10380POPC   C2B68048  37.477  27.811   6.753
10380POPC   C3B68049  37.499  27.772   7.053
10380POPC   C4B68050  37.508  27.827   7.353
10381POPC   NC368051  37.643  22.138   5.553
10381POPC   PO468052  37.716  22.179   5.853
10381POPC   GL168053  37.631  22.117   6.153
10381POPC   GL268054  37.625  22.310   6.153
10381POPC   C1A68055  37.686  22.212   6.453
10381POPC   D2A68056  37.695  22.211   6.753
10381POPC   C3A68057  37.704  22.144   7.053
10381POPC   C4A68058  37.728  22.115   7.353
10381POPC   C1B68059  37.671  22.433   6.453
10381POPC   C2B68060  37.630  22.371   6.753
10381POPC   C3B68061  37.649  22.409   7.053
10381POPC   C4B68062  37.677  22.407   7.353
10382POPC   NC368063  12.852  40.826   5.553
10382POPC   PO468064  12.810  40.790   5.853
10382POPC   GL168065  12.880  40.749   6.153
10382POPC   GL268066  12.949  40.739   6.153
10382POPC   C1A68067  12.871  40.757   6.453
10382POPC   D2A68068  12.889  40.829   6.753
10382POPC   C3A68069  12.833  40.776   7.053
10382POPC   C4A68070  12.900  40.833   7.353
10382POPC   C1B68071  13.135  40.775   6.453
10382POPC   C2B68072  13.129  40.827   6.753
10382POPC   C3B68073  13.130  40.802   7.053
10382POPC   C4B68074  13.139  40.804   7.353
10383POPC   NC368075  24.526  16.699   5.553
10383POPC   PO468076  24.497  16.720   5.853
10383POPC   GL168077  24.472  16.766   6.153
10383POPC   GL268078  24.581  16.835   6.153
10383POPC   C1A68079  24.536  16.720   6.453
10383POPC   D2A68080  24.462  16.734   6.753
10383POPC   C3A68081  24.510  16.732   7.053
10383POPC   C4A68082  24.473  16.751   7.353
10383POPC   C1B68083  24.631  16.946   6.453
10383POPC   C2B68084  24.596  16.950   6.753
10383POPC   C3B68085  24.628  16.915   7.053
10383POPC   C4B68086  24.642  16.985   7.353
10384POPC   NC368087  43.881   7.391   5.553
10384POPC   PO468088  43.868   7.436   5.853
10384POPC   GL168089  43.847   7.378   6.153
10384POPC   GL268090  43.793   7.420   6.153
10384POPC   C1A68091  43.884   7.423   6.453
10384POPC   D2A68092  43.894   7.372   6.753
10384POPC   C3A68093  43.881   7.437   7.053
10384POPC   C4A68094  43.901   7.412   7.353
10384POPC   C1B68095  43.637   7.349   6.453
10384POPC   C2B68096  43.663   7.349   6.753
10384POPC   C3B68097  43.602   7.381   7.053
10384POPC   C4B68098  43.619   7.350   7.353
10385POPC   NC368099  14.399  43.092   5.553
10385POPC   PO468100  14.438  43.079   5.853
10385POPC   GL168101  14.399  43.129   6.153
10385POPC   GL268102  14.280  43.237   6.153
10385POPC   C1A68103  14.431  43.131   6.453
10385POPC   D2A68104  14.405  43.120   6.753
10385POPC   C3A68105  14.421  43.074   7.053
10385POPC   C4A68106  14.358  43.149   7.353
10385POPC   C1B68107  14.230  43.287   6.453
10385POPC   C2B68108  14.203  43.334   6.753
10385POPC   C3B68109  14.182  43.281   7.053
10385POPC   C4B68110  14.225  43.256   7.353
10386POPC   NC368111  10.509  14.417   5.553
10386POPC   PO468112  10.492  14.395   5.853
10386POPC   GL168113  10.530  14.418   6.153
10386POPC   GL268114  10.600  14.372   6.153
10386POPC   C1A68115  10.487  14.415   6.453
10386POPC   D2A68116  10.553  14.397   6.753
10386POPC   C3A68117  10.501  14.392   7.053
10386POPC   C4A68118  10.533  14.369   7.353
10386POPC   C1B68119  10.746  14.373   6.453
10386POPC   C2B68120  10.805  14.381   6.753
10386POPC   C3B68121  10.777  14.376   7.053
10386POPC   C4B68122  10.820  14.417   7.353
10387POPC   NC368123  43.083  25.286   5.553
10387POPC   PO468124  43.131  25.231   5.853
10387POPC   GL168125  43.106  25.242   6.153
10387POPC   GL268126  43.069  25.164   6.153
10387POPC   C1A68127  43.114  25.271   6.453
10387POPC   D2A68128  43.141  25.234   6.753
10387POPC   C3A68129  43.064  25.250   7.053
10387POPC   C4A68130  43.104  25.229   7.353
10387POPC   C1B68131  43.056  25.005   6.453
10387POPC   C2B68132  42.988  25.024   6.753
10387POPC   C3B68133  42.978  25.060   7.053
10387POPC   C4B68134  43.022  25.027   7.353
10388POPC   NC368135  41.522  22.122   5.553
10388POPC   PO468136  41.588  22.198   5.853
10388POPC   GL168137  41.568  22.139   6.153
10388POPC   GL268138  41.412  22.064   6.153
10388POPC   C1A68139  41.514  22.211   6.453
10388POPC   D2A68140  41.601  22.169   6.753
10388POPC   C3A68141  41.544  22.157   7.053
10388POPC   C4A68142  41.519  22.168   7.353
10388POPC   C1B68143  41.371  22.028   6.453
10388POPC   C2B68144  41.348  22.077   6.753
10388POPC   C3B68145  41.321  22.047   7.053
10388POPC   C4B68146  41.358  22.077   7.353
10389POPC   NC368147  43.922  40.785   5.553
10389POPC   PO468148  43.851  40.760   5.853
10389POPC   GL168149  43.930  40.804   6.153
10389POPC   GL268150  43.970  40.907   6.153
10389POPC   C1A68151  43.895  40.802   6.453
10389POPC   D2A68152  43.917  40.735   6.753
10389POPC   C3A68153  43.933  40.829   7.053
10389POPC   C4A68154  43.860  40.776   7.353
10389POPC   C1B68155  43.990  40.973   6.453
10389POPC   C2B68156  43.987  40.988   6.753
10389POPC   C3B68157  43.959  41.019   7.053
10389POPC   C4B68158  44.042  41.014   7.353
10390POPC   NC368159  17.541  36.939   5.553
10390POPC   PO468160  17.477  36.915   5.853
10390POPC   GL168161  17.469  36.916   6.153
10390POPC   GL268162  17.547  36.848   6.153
10390POPC   C1A68163  17.468  36.943   6.453
10390POPC   D2A68164  17.551  36.855   6.753
10390POPC   C3A68165  17.525  36.885   7.053
10390POPC   C4A68166  17.536  36.935   7.353
10390POPC   C1B68167  17.615  36.666   6.453
10390POPC   C2B68168  17.643  36.742   6.753
10390POPC   C3B68169  17.600  36.741   7.053
10390POPC   C4B68170  17.668  36.652   7.353
10391POPC   NC368171   1.226  23.699   5.553
10391POPC   PO468172   1.204  23.745   5.853
10391POPC   GL168173   1.174  23.738   6.153
10391POPC   GL268174   1.313  23.647   6.153
10391POPC   C1A68175   1.262  23.758   6.453
10391POPC   D2A68176   1.179  23.709   6.753
10391POPC   C3A68177   1.196  23.717   7.053
10391POPC   C4A68178   1.181  23.758   7.353
10391POPC   C1B68179   1.494  23.717   6.453
10391POPC   C2B68180   1.495  23.655   6.753
10391POPC   C3B68181   1.452  23.719   7.053
10391POPC   C4B68182   1.415  23.667   7.353
10392POPC   NC368183  29.188  28.406   5.553
10392POPC   PO468184  29.153  28.320   5.853
10392POPC   GL168185  29.166  28.374   6.153
10392POPC   GL268186  29.204  28.223   6.153
10392POPC   C1A68187  29.181  28.334   6.453
10392POPC   D2A68188  29.177  28.350   6.753
10392POPC   C3A68189  29.159  28.375   7.053
10392POPC   C4A68190  29.154  28.372   7.353
10392POPC   C1B68191  29.284  28.210   6.453
10392POPC   C2B68192  29.255  28.207   6.753
10392POPC   C3B68193  29.296  28.172   7.053
10392POPC   C4B68194  29.294  28.200   7.353
10393POPC   NC368195  26.785   1.200   5.553
10393POPC   PO468196  26.809   1.257   5.853
10393POPC   GL168197  26.777   1.222   6.153
10393POPC   GL268198  26.680   1.157   6.153
10393POPC   C1A68199  26.813   1.205   6.453
10393POPC   D2A68200  26.799   1.245   6.753
10393POPC   C3A68201  26.805   1.224   7.053
10393POPC   C4A68202  26.845   1.226   7.353
10393POPC   C1B68203  26.556   1.054   6.453
10393POPC   C2B68204  26.570   1.063   6.753
10393POPC   C3B68205  26.632   1.124   7.053
10393POPC   C4B68206  26.615   1.070   7.353
10394POPC   NC368207  44.680  16.719   5.553
10394POPC   PO468208  44.687  16.707   5.853
10394POPC   GL168209  44.614  16.753   6.153
10394POPC   GL268210  44.699  16.586   6.153
10394POPC   C1A68211  44.663  16.715   6.453
10394POPC   D2A68212  44.698  16.684   6.753
10394POPC   C3A68213  44.622  16.740   7.053
10394POPC   C4A68214  44.686  16.702   7.353
10394POPC   C1B68215  44.757  16.523   6.453
10394POPC   C2B68216  44.744  16.456   6.753
10394POPC   C3B68217  44.690  16.520   7.053
10394POPC   C4B68218  44.689  16.487   7.353
10395POPC   NC368219  27.582  37.678   5.553
10395POPC   PO468220  27.594  37.710   5.853
10395POPC   GL168221  27.623  37.712   6.153
10395POPC   GL268222  27.703  37.782   6.153
10395POPC   C1A68223  27.601  37.687   6.453
10395POPC   D2A68224  27.574  37.694   6.753
10395POPC   C3A68225  27.590  37.653   7.053
10395POPC   C4A68226  27.583  37.687   7.353
10395POPC   C1B68227  27.783  37.871   6.453
10395POPC   C2B68228  27.734  37.927   6.753
10395POPC   C3B68229  27.773  37.850   7.053
10395POPC   C4B68230  27.765  37.909   7.353
10396POPC   NC368231  22.961   5.133   5.553
10396POPC   PO468232  22.988   5.048   5.853
10396POPC   GL168233  22.963   5.131   6.153
10396POPC   GL268234  22.807   5.058   6.153
10396POPC   C1A68235  22.985   5.104   6.453
10396POPC   D2A68236  22.922   5.071   6.753
10396POPC   C3A68237  22.927   5.064   7.053
10396POPC   C4A68238  22.920   5.107   7.353
10396POPC   C1B68239  22.741   4.942   6.453
10396POPC   C2B68240  22.689   4.982   6.753
10396POPC   C3B68241  22.706   5.032   7.053
10396POPC   C4B68242  22.733   4.980   7.353
10397POPC   NC368243   1.175  29.966   5.553
10397POPC   PO468244   1.223  29.933   5.853
10397POPC   GL168245   1.243  29.888   6.153
10397POPC   GL268246   1.311  30.033   6.153
10397POPC   C1A68247   1.187  29.889   6.453
10397POPC   D2A68248   1.212  29.967   6.753
10397POPC   C3A68249   1.178  29.876   7.053
10397POPC   C4A68250   1.179  29.875   7.353
10397POPC   C1B68251   1.367  30.162   6.453
10397POPC   C2B68252   1.371  30.091   6.753
10397POPC   C3B68253   1.381  30.133   7.053
10397POPC   C4B68254   1.312  30.132   7.353
10398POPC   NC368255  28.417  35.344   5.553
10398POPC   PO468256  28.374  35.400   5.853
10398POPC   GL168257  28.387  35.332   6.153
10398POPC   GL268258  28.379  35.428   6.153
10398POPC   C1A68259  28.372  35.392   6.453
10398POPC   D2A68260  28.380  35.382   6.753
10398POPC   C3A68261  28.350  35.328   7.053
10398POPC   C4A68262  28.356  35.387   7.353
10398POPC   C1B68263  28.361  35.555   6.453
10398POPC   C2B68264  28.412  35.630   6.753
10398POPC   C3B68265  28.410  35.586   7.053
10398POPC   C4B68266  28.449  35.552   7.353
10399POPC   NC368267   8.935  33.783   5.553
10399POPC   PO468268   8.949  33.829   5.853
10399POPC   GL168269   9.002  33.823   6.153
10399POPC   GL268270   8.916  33.639   6.153
10399POPC   C1A68271   8.939  33.811   6.453
10399POPC   D2A68272   8.995  33.815   6.753
10399POPC   C3A68273   8.935  33.756   7.053
10399POPC   C4A68274   8.958  33.791   7.353
10399POPC   C1B68275   8.854  33.596   6.453
10399POPC   C2B68276   8.935  33.516   6.753
10399POPC   C3B68277   8.908  33.516   7.053
10399POPC   C4B68278   8.899  33.555   7.353
10400POPC   NC368279  32.287  38.464   5.553
10400POPC   PO468280  32.261  38.485   5.853
10400POPC   GL168281  32.283  38.462   6.153
10400POPC   GL268282  32.200  38.334   6.153
10400POPC   C1A68283  32.287  38.457   6.453
10400POPC   D2A68284  32.269  38.494   6.753
10400POPC   C3A68285  32.244  38.498   7.053
10400POPC   C4A68286  32.270  38.462   7.353
10400POPC   C1B68287  32.228  38.188   6.453
10400POPC   C2B68288  32.232  38.239   6.753
10400POPC   C3B68289  32.159  38.235   7.053
10400POPC   C4B68290  32.195  38.184   7.353
10401POPC   NC368291  20.610  44.679   5.553
10401POPC   PO468292  20.614  44.697   5.853
10401POPC   GL168293  20.626  44.697   6.153
10401POPC   GL268294  20.519  44.714   6.153
10401POPC   C1A68295  20.593  44.645   6.453
10401POPC   D2A68296  20.606  44.688   6.753
10401POPC   C3A68297  20.568  44.620   7.053
10401POPC   C4A68298  20.582  44.688   7.353
10401POPC   C1B68299  20.396  44.640   6.453
10401POPC   C2B68300  20.379  44.662   6.753
10401POPC   C3B68301  20.384  44.642   7.053
10401POPC   C4B68302  20.375  44.710   7.353
10402POPC   NC368303   1.981   3.561   5.553
10402POPC   PO468304   1.954   3.572   5.853
10402POPC   GL168305   1.992   3.530   6.153
10402POPC   GL268306   2.021   3.397   6.153
10402POPC   C1A68307   2.013   3.570   6.453
10402POPC   D2A68308   2.032   3.510   6.753
10402POPC   C3A68309   1.963   3.552   7.053
10402POPC   C4A68310   1.990   3.548   7.353
10402POPC   C1B68311   1.978   3.309   6.453
10402POPC   C2B68312   2.017   3.258   6.753
10402POPC   C3B68313   1.954   3.242   7.053
10402POPC   C4B68314   1.990   3.318   7.353
10403POPC   NC368315  42.373  40.755   5.553
10403POPC   PO468316  42.371  40.749   5.853
10403POPC   GL168317  42.336  40.773   6.153
10403POPC   GL268318  42.398  40.877   6.153
10403POPC   C1A68319  42.309  40.740   6.453
10403POPC   D2A68320  42.345  40.784   6.753
10403POPC   C3A68321  42.335  40.778   7.053
10403POPC   C4A68322  42.350  40.816   7.353
10403POPC   C1B68323  42.475  40.948   6.453
10403POPC   C2B68324  42.460  40.996   6.753
10403POPC   C3B68325  42.487  41.009   7.053
10403POPC   C4B68326  42.514  41.010   7.353
10404POPC   NC368327  42.297  28.395   5.553
10404POPC   PO468328  42.328  28.384   5.853
10404POPC   GL168329  42.377  28.414   6.153
10404POPC   GL268330  42.493  28.353   6.153
10404POPC   C1A68331  42.351  28.401   6.453
10404POPC   D2A68332  42.328  28.343   6.753
10404POPC   C3A68333  42.293  28.346   7.053
10404POPC   C4A68334  42.297  28.389   7.353
10404POPC   C1B68335  42.596  28.327   6.453
10404POPC   C2B68336  42.531  28.329   6.753
10404POPC   C3B68337  42.574  28.298   7.053
10404POPC   C4B68338  42.610  28.289   7.353
10405POPC   NC368339  35.334  35.336   5.553
10405POPC   PO468340  35.402  35.352   5.853
10405POPC   GL168341  35.370  35.388   6.153
10405POPC   GL268342  35.381  35.488   6.153
10405POPC   C1A68343  35.379  35.355   6.453
10405POPC   D2A68344  35.363  35.356   6.753
10405POPC   C3A68345  35.377  35.383   7.053
10405POPC   C4A68346  35.340  35.367   7.353
10405POPC   C1B68347  35.286  35.600   6.453
10405POPC   C2B68348  35.327  35.640   6.753
10405POPC   C3B68349  35.367  35.582   7.053
10405POPC   C4B68350  35.349  35.613   7.353
10406POPC   NC368351  42.328  32.982   5.553
10406POPC   PO468352  42.362  33.023   5.853
10406POPC   GL168353  42.364  33.061   6.153
10406POPC   GL268354  42.403  32.958   6.153
10406POPC   C1A68355  42.344  33.024   6.453
10406POPC   D2A68356  42.298  33.000   6.753
10406POPC   C3A68357  42.313  33.073   7.053
10406POPC   C4A68358  42.333  33.056   7.353
10406POPC   C1B68359  42.528  32.929   6.453
10406POPC   C2B68360  42.610  32.898   6.753
10406POPC   C3B68361  42.587  32.955   7.053
10406POPC   C4B68362  42.587  32.902   7.353
10407POPC   NC368363   2.807  41.554   5.553
10407POPC   PO468364   2.813  41.567   5.853
10407POPC   GL168365   2.737  41.567   6.153
10407POPC   GL268366   2.844  41.691   6.153
10407POPC   C1A68367   2.736  41.558   6.453
10407POPC   D2A68368   2.731  41.577   6.753
10407POPC   C3A68369   2.803  41.560   7.053
10407POPC   C4A68370   2.732  41.515   7.353
10407POPC   C1B68371   2.939  41.721   6.453
10407POPC   C2B68372   2.924  41.749   6.753
10407POPC   C3B68373   2.979  41.716   7.053
10407POPC   C4B68374   2.947  41.723   7.353
10408POPC   NC368375  26.089   3.550   5.553
10408POPC   PO468376  26.008   3.497   5.853
10408POPC   GL168377  26.032   3.522   6.153
10408POPC   GL268378  25.973   3.422   6.153
10408POPC   C1A68379  25.998   3.546   6.453
10408POPC   D2A68380  26.057   3.571   6.753
10408POPC   C3A68381  26.004   3.522   7.053
10408POPC   C4A68382  26.083   3.524   7.353
10408POPC   C1B68383  25.860   3.385   6.453
10408POPC   C2B68384  25.938   3.348   6.753
10408POPC   C3B68385  25.933   3.337   7.053
10408POPC   C4B68386  25.850   3.378   7.353
10409POPC   NC368387  36.165  35.308   5.553
10409POPC   PO468388  36.098  35.389   5.853
10409POPC   GL168389  36.111  35.373   6.153
10409POPC   GL268390  36.218  35.313   6.153
10409POPC   C1A68391  36.155  35.340   6.453
10409POPC   D2A68392  36.091  35.334   6.753
10409POPC   C3A68393  36.118  35.401   7.053
10409POPC   C4A68394  36.177  35.361   7.353
10409POPC   C1B68395  36.371  35.280   6.453
10409POPC   C2B68396  36.316  35.233   6.753
10409POPC   C3B68397  36.328  35.203   7.053
10409POPC   C4B68398  36.393  35.200   7.353
10410POPC   NC368399   8.239  20.580   5.553
10410POPC   PO468400   8.147  20.609   5.853
10410POPC   GL168401   8.163  20.645   6.153
10410POPC   GL268402   8.272  20.711   6.153
10410POPC   C1A68403   8.156  20.633   6.453
10410POPC   D2A68404   8.179  20.659   6.753
10410POPC   C3A68405   8.223  20.611   7.053
10410POPC   C4A68406   8.193  20.659   7.353
10410POPC   C1B68407   8.285  20.847   6.453
10410POPC   C2B68408   8.356  20.811   6.753
10410POPC   C3B68409   8.359  20.853   7.053
10410POPC   C4B68410   8.322  20.848   7.353
10411POPC   NC368411   1.971  29.943   5.553
10411POPC   PO468412   2.014  29.891   5.853
10411POPC   GL168413   1.952  29.940   6.153
10411POPC   GL268414   2.095  29.866   6.153
10411POPC   C1A68415   2.014  29.961   6.453
10411POPC   D2A68416   1.961  29.951   6.753
10411POPC   C3A68417   1.976  29.958   7.053
10411POPC   C4A68418   1.996  29.918   7.353
10411POPC   C1B68419   2.094  29.758   6.453
10411POPC   C2B68420   2.132  29.675   6.753
10411POPC   C3B68421   2.145  29.721   7.053
10411POPC   C4B68422   2.182  29.681   7.353
10412POPC   NC368423  13.579  37.645   5.553
10412POPC   PO468424  13.656  37.713   5.853
10412POPC   GL168425  13.635  37.726   6.153
10412POPC   GL268426  13.757  37.700   6.153
10412POPC   C1A68427  13.623  37.693   6.453
10412POPC   D2A68428  13.663  37.631   6.753
10412POPC   C3A68429  13.599  37.681   7.053
10412POPC   C4A68430  13.580  37.724   7.353
10412POPC   C1B68431  13.906  37.627   6.453
10412POPC   C2B68432  13.837  37.630   6.753
10412POPC   C3B68433  13.837  37.634   7.053
10412POPC   C4B68434  13.884  37.669   7.353
10413POPC   NC368435  15.130  41.543   5.553
10413POPC   PO468436  15.220  41.526   5.853
10413POPC   GL168437  15.181  41.595   6.153
10413POPC   GL268438  15.092  41.500   6.153
10413POPC   C1A68439  15.202  41.591   6.453
10413POPC   D2A68440  15.215  41.561   6.753
10413POPC   C3A68441  15.151  41.526   7.053
10413POPC   C4A68442  15.131  41.606   7.353
10413POPC   C1B68443  14.882  41.492   6.453
10413POPC   C2B68444  14.883  41.581   6.753
10413POPC   C3B68445  14.890  41.556   7.053
10413POPC   C4B68446  14.941  41.519   7.353
10414POPC   NC368447  12.890  11.273   5.553
10414POPC   PO468448  12.899  11.327   5.853
10414POPC   GL168449  12.873  11.285   6.153
10414POPC   GL268450  12.774  11.456   6.153
10414POPC   C1A68451  12.823  11.279   6.453
10414POPC   D2A68452  12.891  11.348   6.753
10414POPC   C3A68453  12.895  11.279   7.053
10414POPC   C4A68454  12.863  11.293   7.353
10414POPC   C1B68455  12.697  11.502   6.453
10414POPC   C2B68456  12.753  11.560   6.753
10414POPC   C3B68457  12.785  11.481   7.053
10414POPC   C4B68458  12.698  11.535   7.353
10415POPC   NC368459  22.979  12.826   5.553
10415POPC   PO468460  22.895  12.851   5.853
10415POPC   GL168461  22.918  12.859   6.153
10415POPC   GL268462  22.816  12.877   6.153
10415POPC   C1A68463  22.899  12.849   6.453
10415POPC   D2A68464  22.933  12.876   6.753
10415POPC   C3A68465  22.904  12.829   7.053
10415POPC   C4A68466  22.914  12.815   7.353
10415POPC   C1B68467  22.712  12.867   6.453
10415POPC   C2B68468  22.671  12.795   6.753
10415POPC   C3B68469  22.647  12.801   7.053
10415POPC   C4B68470  22.683  12.829   7.353
10416POPC   NC368471  33.778  15.916   5.553
10416POPC   PO468472  33.772  15.991   5.853
10416POPC   GL168473  33.794  15.978   6.153
10416POPC   GL268474  33.916  15.924   6.153
10416POPC   C1A68475  33.847  15.980   6.453
10416POPC   D2A68476  33.766  15.966   6.753
10416POPC   C3A68477  33.751  15.922   7.053
10416POPC   C4A68478  33.849  15.965   7.353
10416POPC   C1B68479  34.033  15.961   6.453
10416POPC   C2B68480  34.002  15.916   6.753
10416POPC   C3B68481  34.046  15.896   7.053
10416POPC   C4B68482  34.071  15.926   7.353
10417POPC   NC368483  29.915  33.823   5.553
10417POPC   PO468484  29.950  33.760   5.853
10417POPC   GL168485  29.915  33.752   6.153
10417POPC   GL268486  29.849  33.765   6.153
10417POPC   C1A68487  29.882  33.783   6.453
10417POPC   D2A68488  29.910  33.792   6.753
10417POPC   C3A68489  29.969  33.842   7.053
10417POPC   C4A68490  29.891  33.758   7.353
10417POPC   C1B68491  29.659  33.682   6.453
10417POPC   C2B68492  29.660  33.700   6.753
10417POPC   C3B68493  29.736  33.680   7.053
10417POPC   C4B68494  29.692  33.659   7.353
10418POPC   NC368495  19.806   2.013   5.553
10418POPC   PO468496  19.860   2.028   5.853
10418POPC   GL168497  19.865   1.940   6.153
10418POPC   GL268498  19.960   2.123   6.153
10418POPC   C1A68499  19.861   2.039   6.453
10418POPC   D2A68500  19.842   1.966   6.753
10418POPC   C3A68501  19.824   2.012   7.053
10418POPC   C4A68502  19.858   1.993   7.353
10418POPC   C1B68503  20.043   2.116   6.453
10418POPC   C2B68504  20.041   2.160   6.753
10418POPC   C3B68505  19.972   2.137   7.053
10418POPC   C4B68506  19.979   2.189   7.353
10419POPC   NC368507   5.129  34.565   5.553
10419POPC   PO468508   5.142  34.531   5.853
10419POPC   GL168509   5.045  34.613   6.153
10419POPC   GL268510   5.184  34.523   6.153
10419POPC   C1A68511   5.139  34.543   6.453
10419POPC   D2A68512   5.054  34.600   6.753
10419POPC   C3A68513   5.086  34.597   7.053
10419POPC   C4A68514   5.088  34.549   7.353
10419POPC   C1B68515   5.297  34.468   6.453
10419POPC   C2B68516   5.273  34.392   6.753
10419POPC   C3B68517   5.288  34.416   7.053
10419POPC   C4B68518   5.302  34.432   7.353
10420POPC   NC368519  13.672  42.361   5.553
10420POPC   PO468520  13.606  42.309   5.853
10420POPC   GL168521  13.579  42.359   6.153
10420POPC   GL268522  13.735  42.262   6.153
10420POPC   C1A68523  13.605  42.372   6.453
10420POPC   D2A68524  13.585  42.323   6.753
10420POPC   C3A68525  13.648  42.309   7.053
10420POPC   C4A68526  13.623  42.295   7.353
10420POPC   C1B68527  13.741  42.111   6.453
10420POPC   C2B68528  13.712  42.130   6.753
10420POPC   C3B68529  13.796  42.087   7.053
10420POPC   C4B68530  13.752  42.119   7.353
10421POPC   NC368531  33.835   7.459   5.553
10421POPC   PO468532  33.818   7.413   5.853
10421POPC   GL168533  33.836   7.383   6.153
10421POPC   GL268534  33.692   7.494   6.153
10421POPC   C1A68535  33.751   7.457   6.453
10421POPC   D2A68536  33.812   7.404   6.753
10421POPC   C3A68537  33.840   7.450   7.053
10421POPC   C4A68538  33.841   7.409   7.353
10421POPC   C1B68539  33.579   7.619   6.453
10421POPC   C2B68540  33.555   7.540   6.753
10421POPC   C3B68541  33.634   7.583   7.053
10421POPC   C4B68542  33.627   7.599   7.353
10422POPC   NC368543  43.118  19.100   5.553
10422POPC   PO468544  43.115  19.047   5.853
10422POPC   GL168545  43.077  19.026   6.153
10422POPC   GL268546  43.152  18.921   6.153
10422POPC   C1A68547  43.102  19.026   6.453
10422POPC   D2A68548  43.157  19.073   6.753
10422POPC   C3A68549  43.157  19.040   7.053
10422POPC   C4A68550  43.122  19.064   7.353
10422POPC   C1B68551  43.165  18.820   6.453
10422POPC   C2B68552  43.144  18.768   6.753
10422POPC   C3B68553  43.149  18.791   7.053
10422POPC   C4B68554  43.186  18.847   7.353
10423POPC   NC368555  19.050  31.429   5.553
10423POPC   PO468556  19.017  31.513   5.853
10423POPC   GL168557  19.076  31.488   6.153
10423POPC   GL268558  19.196  31.442   6.153
10423POPC   C1A68559  19.031  31.501   6.453
10423POPC   D2A68560  19.080  31.455   6.753
10423POPC   C3A68561  19.103  31.438   7.053
10423POPC   C4A68562  19.101  31.489   7.353
10423POPC   C1B68563  19.235  31.342   6.453
10423POPC   C2B68564  19.256  31.334   6.753
10423POPC   C3B68565  19.305  31.373   7.053
10423POPC   C4B68566  19.324  31.387   7.353
10424POPC   NC368567  38.479  12.855   5.553
10424POPC   PO468568  38.486  12.826   5.853
10424POPC   GL168569  38.408  12.878   6.153
10424POPC   GL268570  38.536  12.960   6.153
10424POPC   C1A68571  38.416  12.862   6.453
10424POPC   D2A68572  38.489  12.887   6.753
10424POPC   C3A68573  38.449  12.886   7.053
10424POPC   C4A68574  38.479  12.871   7.353
10424POPC   C1B68575  38.635  13.024   6.453
10424POPC   C2B68576  38.579  13.101   6.753
10424POPC   C3B68577  38.637  13.076   7.053
10424POPC   C4B68578  38.562  13.063   7.353
10425POPC   NC368579  32.253  39.219   5.553
10425POPC   PO468580  32.295  39.255   5.853
10425POPC   GL168581  32.234  39.276   6.153
10425POPC   GL268582  32.132  39.198   6.153
10425POPC   C1A68583  32.243  39.212   6.453
10425POPC   D2A68584  32.224  39.202   6.753
10425POPC   C3A68585  32.289  39.273   7.053
10425POPC   C4A68586  32.284  39.185   7.353
10425POPC   C1B68587  31.985  39.225   6.453
10425POPC   C2B68588  32.018  39.270   6.753
10425POPC   C3B68589  31.951  39.204   7.053
10425POPC   C4B68590  31.955  39.287   7.353
10426POPC   NC368591  27.585   9.701   5.553
10426POPC   PO468592  27.626   9.768   5.853
10426POPC   GL168593  27.625   9.703   6.153
10426POPC   GL268594  27.751   9.732   6.153
10426POPC   C1A68595  27.639   9.715   6.453
10426POPC   D2A68596  27.631   9.728   6.753
10426POPC   C3A68597  27.544   9.719   7.053
10426POPC   C4A68598  27.588   9.747   7.353
10426POPC   C1B68599  27.814   9.792   6.453
10426POPC   C2B68600  27.812   9.767   6.753
10426POPC   C3B68601  27.886   9.816   7.053
10426POPC   C4B68602  27.873   9.822   7.353
10427POPC   NC368603  15.164  40.788   5.553
10427POPC   PO468604  15.192  40.770   5.853
10427POPC   GL168605  15.135  40.813   6.153
10427POPC   GL268606  15.088  40.949   6.153
10427POPC   C1A68607  15.193  40.761   6.453
10427POPC   D2A68608  15.203  40.805   6.753
10427POPC   C3A68609  15.152  40.761   7.053
10427POPC   C4A68610  15.149  40.830   7.353
10427POPC   C1B68611  15.038  41.033   6.453
10427POPC   C2B68612  15.043  41.048   6.753
10427POPC   C3B68613  15.090  41.038   7.053
10427POPC   C4B68614  15.045  41.004   7.353
10428POPC   NC368615  35.304  17.536   5.553
10428POPC   PO468616  35.374  17.504   5.853
10428POPC   GL168617  35.367  17.538   6.153
10428POPC   GL268618  35.248  17.574   6.153
10428POPC   C1A68619  35.326  17.494   6.453
10428POPC   D2A68620  35.373  17.479   6.753
10428POPC   C3A68621  35.379  17.550   7.053
10428POPC   C4A68622  35.377  17.504   7.353
10428POPC   C1B68623  35.231  17.666   6.453
10428POPC   C2B68624  35.199  17.733   6.753
10428POPC   C3B68625  35.142  17.705   7.053
10428POPC   C4B68626  35.189  17.669   7.353
10429POPC   NC368627   3.572  16.765   5.553
10429POPC   PO468628   3.530  16.749   5.853
10429POPC   GL168629   3.585  16.742   6.153
10429POPC   GL268630   3.492  16.563   6.153
10429POPC   C1A68631   3.554  16.780   6.453
10429POPC   D2A68632   3.504  16.727   6.753
10429POPC   C3A68633   3.567  16.747   7.053
10429POPC   C4A68634   3.501  16.704   7.353
10429POPC   C1B68635   3.522  16.436   6.453
10429POPC   C2B68636   3.475  16.533   6.753
10429POPC   C3B68637   3.457  16.491   7.053
10429POPC   C4B68638   3.518  16.515   7.353
10430POPC   NC368639  10.483  15.956   5.553
10430POPC   PO468640  10.509  15.990   5.853
10430POPC   GL168641  10.530  15.966   6.153
10430POPC   GL268642  10.443  15.885   6.153
10430POPC   C1A68643  10.501  15.974   6.453
10430POPC   D2A68644  10.496  15.988   6.753
10430POPC   C3A68645  10.539  15.925   7.053
10430POPC   C4A68646  10.543  15.926   7.353
10430POPC   C1B68647  10.309  15.923   6.453
10430POPC   C2B68648  10.246  15.941   6.753
10430POPC   C3B68649  10.229  15.880   7.053
10430POPC   C4B68650  10.315  15.919   7.353
10431POPC   NC368651   5.832  10.500   5.553
10431POPC   PO468652   5.918  10.479   5.853
10431POPC   GL168653   5.884  10.554   6.153
10431POPC   GL268654   5.728  10.422   6.153
10431POPC   C1A68655   5.849  10.501   6.453
10431POPC   D2A68656   5.891  10.550   6.753
10431POPC   C3A68657   5.903  10.560   7.053
10431POPC   C4A68658   5.893  10.547   7.353
10431POPC   C1B68659   5.613  10.430   6.453
10431POPC   C2B68660   5.659  10.432   6.753
10431POPC   C3B68661   5.604  10.420   7.053
10431POPC   C4B68662   5.638  10.439   7.353
10432POPC   NC368663   4.279  33.822   5.553
10432POPC   PO468664   4.328  33.842   5.853
10432POPC   GL168665   4.330  33.826   6.153
10432POPC   GL268666   4.360  33.964   6.153
10432POPC   C1A68667   4.289  33.807   6.453
10432POPC   D2A68668   4.341  33.815   6.753
10432POPC   C3A68669   4.313  33.843   7.053
10432POPC   C4A68670   4.336  33.792   7.353
10432POPC   C1B68671   4.347  34.060   6.453
10432POPC   C2B68672   4.399  34.039   6.753
10432POPC   C3B68673   4.361  34.077   7.053
10432POPC   C4B68674   4.422  34.064   7.353
10433POPC   NC368675  39.273  43.846   5.553
10433POPC   PO468676  39.264  43.843   5.853
10433POPC   GL168677  39.247  43.927   6.153
10433POPC   GL268678  39.313  43.892   6.153
10433POPC   C1A68679  39.204  43.895   6.453
10433POPC   D2A68680  39.189  43.874   6.753
10433POPC   C3A68681  39.238  43.845   7.053
10433POPC   C4A68682  39.261  43.928   7.353
10433POPC   C1B68683  39.462  43.833   6.453
10433POPC   C2B68684  39.484  43.894   6.753
10433POPC   C3B68685  39.489  43.876   7.053
10433POPC   C4B68686  39.491  43.814   7.353
10434POPC   NC368687  15.976  32.219   5.553
10434POPC   PO468688  15.945  32.202   5.853
10434POPC   GL168689  15.994  32.232   6.153
10434POPC   GL268690  15.862  32.387   6.153
10434POPC   C1A68691  15.986  32.264   6.453
10434POPC   D2A68692  15.974  32.220   6.753
10434POPC   C3A68693  15.959  32.247   7.053
10434POPC   C4A68694  15.954  32.222   7.353
10434POPC   C1B68695  15.817  32.429   6.453
10434POPC   C2B68696  15.846  32.520   6.753
10434POPC   C3B68697  15.848  32.496   7.053
10434POPC   C4B68698  15.876  32.510   7.353
10435POPC   NC368699  44.626  27.625   5.553
10435POPC   PO468700  44.659  27.562   5.853
10435POPC   GL168701  44.644  27.596   6.153
10435POPC   GL268702  44.548  27.569   6.153
10435POPC   C1A68703  44.682  27.608   6.453
10435POPC   D2A68704  44.706  27.579   6.753
10435POPC   C3A68705  44.615  27.557   7.053
10435POPC   C4A68706  44.700  27.637   7.353
10435POPC   C1B68707  44.419  27.544   6.453
10435POPC   C2B68708  44.425  27.499   6.753
10435POPC   C3B68709  44.428  27.569   7.053
10435POPC   C4B68710  44.422  27.573   7.353
10436POPC   NC368711  27.598  36.096   5.553
10436POPC   PO468712  27.603  36.175   5.853
10436POPC   GL168713  27.561  36.091   6.153
10436POPC   GL268714  27.470  36.153   6.153
10436POPC   C1A68715  27.598  36.098   6.453
10436POPC   D2A68716  27.612  36.176   6.753
10436POPC   C3A68717  27.637  36.155   7.053
10436POPC   C4A68718  27.553  36.103   7.353
10436POPC   C1B68719  27.382  36.199   6.453
10436POPC   C2B68720  27.367  36.217   6.753
10436POPC   C3B68721  27.327  36.245   7.053
10436POPC   C4B68722  27.316  36.201   7.353
10437POPC   NC368723  15.181  35.347   5.553
10437POPC   PO468724  15.147  35.381   5.853
10437POPC   GL168725  15.191  35.395   6.153
10437POPC   GL268726  15.135  35.486   6.153
10437POPC   C1A68727  15.209  35.358   6.453
10437POPC   D2A68728  15.184  35.390   6.753
10437POPC   C3A68729  15.189  35.314   7.053
10437POPC   C4A68730  15.166  35.367   7.353
10437POPC   C1B68731  15.017  35.554   6.453
10437POPC   C2B68732  15.093  35.597   6.753
10437POPC   C3B68733  15.028  35.578   7.053
10437POPC   C4B68734  15.107  35.619   7.353
10438POPC   NC368735  16.776   8.232   5.553
10438POPC   PO468736  16.718   8.148   5.853
10438POPC   GL168737  16.709   8.159   6.153
10438POPC   GL268738  16.631   8.115   6.153
10438POPC   C1A68739  16.756   8.159   6.453
10438POPC   D2A68740  16.770   8.156   6.753
10438POPC   C3A68741  16.726   8.180   7.053
10438POPC   C4A68742  16.700   8.217   7.353
10438POPC   C1B68743  16.495   8.058   6.453
10438POPC   C2B68744  16.528   8.070   6.753
10438POPC   C3B68745  16.548   8.043   7.053
10438POPC   C4B68746  16.526   8.073   7.353
10439POPC   NC368747   7.440   9.752   5.553
10439POPC   PO468748   7.379   9.773   5.853
10439POPC   GL168749   7.406   9.761   6.153
10439POPC   GL268750   7.410   9.664   6.153
10439POPC   C1A68751   7.436   9.715   6.453
10439POPC   D2A68752   7.393   9.757   6.753
10439POPC   C3A68753   7.433   9.713   7.053
10439POPC   C4A68754   7.416   9.776   7.353
10439POPC   C1B68755   7.426   9.488   6.453
10439POPC   C2B68756   7.442   9.458   6.753
10439POPC   C3B68757   7.391   9.541   7.053
10439POPC   C4B68758   7.419   9.493   7.353
10440POPC   NC368759  15.995  41.605   5.553
10440POPC   PO468760  15.906  41.566   5.853
10440POPC   GL168761  15.983  41.591   6.153
10440POPC   GL268762  16.043  41.646   6.153
10440POPC   C1A68763  15.941  41.553   6.453
10440POPC   D2A68764  15.975  41.598   6.753
10440POPC   C3A68765  15.915  41.577   7.053
10440POPC   C4A68766  15.967  41.590   7.353
10440POPC   C1B68767  16.145  41.699   6.453
10440POPC   C2B68768  16.219  41.644   6.753
10440POPC   C3B68769  16.180  41.699   7.053
10440POPC   C4B68770  16.209  41.678   7.353
10441POPC   NC368771  26.834   2.001   5.553
10441POPC   PO468772  26.807   1.953   5.853
10441POPC   GL168773  26.842   2.027   6.153
10441POPC   GL268774  26.918   1.947   6.153
10441POPC   C1A68775  26.795   1.971   6.453
10441POPC   D2A68776  26.829   2.002   6.753
10441POPC   C3A68777  26.789   1.946   7.053
10441POPC   C4A68778  26.863   1.990   7.353
10441POPC   C1B68779  27.017   1.810   6.453
10441POPC   C2B68780  27.041   1.848   6.753
10441POPC   C3B68781  26.965   1.795   7.053
10441POPC   C4B68782  27.041   1.790   7.353
10442POPC   NC368783  10.551  17.519   5.553
10442POPC   PO468784  10.517  17.511   5.853
10442POPC   GL168785  10.530  17.467   6.153
10442POPC   GL268786  10.465  17.592   6.153
10442POPC   C1A68787  10.534  17.527   6.453
10442POPC   D2A68788  10.533  17.513   6.753
10442POPC   C3A68789  10.522  17.491   7.053
10442POPC   C4A68790  10.570  17.504   7.353
10442POPC   C1B68791  10.464  17.740   6.453
10442POPC   C2B68792  10.457  17.800   6.753
10442POPC   C3B68793  10.427  17.727   7.053
10442POPC   C4B68794  10.509  17.710   7.353
10443POPC   NC368795  39.231  17.500   5.553
10443POPC   PO468796  39.227  17.525   5.853
10443POPC   GL168797  39.246  17.543   6.153
10443POPC   GL268798  39.349  17.621   6.153
10443POPC   C1A68799  39.266  17.547   6.453
10443POPC   D2A68800  39.230  17.553   6.753
10443POPC   C3A68801  39.239  17.523   7.053
10443POPC   C4A68802  39.253  17.550   7.353
10443POPC   C1B68803  39.387  17.712   6.453
10443POPC   C2B68804  39.395  17.743   6.753
10443POPC   C3B68805  39.426  17.740   7.053
10443POPC   C4B68806  39.386  17.715   7.353
10444POPC   NC368807  27.561  36.902   5.553
10444POPC   PO468808  27.573  36.914   5.853
10444POPC   GL168809  27.572  36.889   6.153
10444POPC   GL268810  27.443  36.891   6.153
10444POPC   C1A68811  27.631  36.886   6.453
10444POPC   D2A68812  27.543  36.859   6.753
10444POPC   C3A68813  27.577  36.856   7.053
10444POPC   C4A68814  27.636  36.882   7.353
10444POPC   C1B68815  27.326  36.852   6.453
10444POPC   C2B68816  27.311  36.825   6.753
10444POPC   C3B68817  27.372  36.874   7.053
10444POPC   C4B68818  27.313  36.828   7.353
10445POPC   NC368819  26.834   8.173   5.553
10445POPC   PO468820  26.812   8.209   5.853
10445POPC   GL168821  26.779   8.216   6.153
10445POPC   GL268822  26.721   8.114   6.153
10445POPC   C1A68823  26.783   8.204   6.453
10445POPC   D2A68824  26.840   8.162   6.753
10445POPC   C3A68825  26.854   8.199   7.053
10445POPC   C4A68826  26.796   8.208   7.353
10445POPC   C1B68827  26.549   8.141   6.453
10445POPC   C2B68828  26.538   8.092   6.753
10445POPC   C3B68829  26.570   8.141   7.053
10445POPC   C4B68830  26.627   8.128   7.353
10446POPC   NC368831  28.324  33.790   5.553
10446POPC   PO468832  28.369  33.848   5.853
10446POPC   GL168833  28.350  33.762   6.153
10446POPC   GL268834  28.259  33.746   6.153
10446POPC   C1A68835  28.320  33.800   6.453
10446POPC   D2A68836  28.342  33.774   6.753
10446POPC   C3A68837  28.344  33.835   7.053
10446POPC   C4A68838  28.330  33.769   7.353
10446POPC   C1B68839  28.211  33.663   6.453
10446POPC   C2B68840  28.203  33.675   6.753
10446POPC   C3B68841  28.157  33.654   7.053
10446POPC   C4B68842  28.223  33.687   7.353
10447POPC   NC368843  42.301  13.637   5.553
10447POPC   PO468844  42.359  13.629   5.853
10447POPC   GL168845  42.346  13.624   6.153
10447POPC   GL268846  42.390  13.707   6.153
10447POPC   C1A68847  42.384  13.668   6.453
10447POPC   D2A68848  42.307  13.590   6.753
10447POPC   C3A68849  42.326  13.597   7.053
10447POPC   C4A68850  42.297  13.610   7.353
10447POPC   C1B68851  42.457  13.904   6.453
10447POPC   C2B68852  42.458  13.897   6.753
10447POPC   C3B68853  42.389  13.877   7.053
10447POPC   C4B68854  42.441  13.875   7.353
10448POPC   NC368855  40.754  27.562   5.553
10448POPC   PO468856  40.817  27.629   5.853
10448POPC   GL168857  40.742  27.591   6.153
10448POPC   GL268858  40.866  27.572   6.153
10448POPC   C1A68859  40.783  27.582   6.453
10448POPC   D2A68860  40.736  27.625   6.753
10448POPC   C3A68861  40.768  27.631   7.053
10448POPC   C4A68862  40.817  27.546   7.353
10448POPC   C1B68863  40.998  27.477   6.453
10448POPC   C2B68864  40.992  27.444   6.753
10448POPC   C3B68865  40.975  27.476   7.053
10448POPC   C4B68866  40.992  27.477   7.353
10449POPC   NC368867  29.881  28.411   5.553
10449POPC   PO468868  29.883  28.346   5.853
10449POPC   GL168869  29.927  28.326   6.153
10449POPC   GL268870  30.078  28.430   6.153
10449POPC   C1A68871  29.932  28.357   6.453
10449POPC   D2A68872  29.958  28.398   6.753
10449POPC   C3A68873  29.950  28.320   7.053
10449POPC   C4A68874  29.939  28.344   7.353
10449POPC   C1B68875  30.142  28.392   6.453
10449POPC   C2B68876  30.158  28.386   6.753
10449POPC   C3B68877  30.199  28.459   7.053
10449POPC   C4B68878  30.199  28.401   7.353
10450POPC   NC368879  19.009  23.739   5.553
10450POPC   PO468880  19.030  23.731   5.853
10450POPC   GL168881  19.021  23.755   6.153
10450POPC   GL268882  18.905  23.714   6.153
10450POPC   C1A68883  19.013  23.687   6.453
10450POPC   D2A68884  19.083  23.734   6.753
10450POPC   C3A68885  19.031  23.725   7.053
10450POPC   C4A68886  19.076  23.748   7.353
10450POPC   C1B68887  18.840  23.824   6.453
10450POPC   C2B68888  18.853  23.794   6.753
10450POPC   C3B68889  18.786  23.790   7.053
10450POPC   C4B68890  18.838  23.772   7.353
10451POPC   NC368891  37.646  26.848   5.553
10451POPC   PO468892  37.711  26.776   5.853
10451POPC   GL168893  37.643  26.781   6.153
10451POPC   GL268894  37.597  26.760   6.153
10451POPC   C1A68895  37.629  26.779   6.453
10451POPC   D2A68896  37.633  26.770   6.753
10451POPC   C3A68897  37.639  26.777   7.053
10451POPC   C4A68898  37.721  26.819   7.353
10451POPC   C1B68899  37.552  26.633   6.453
10451POPC   C2B68900  37.551  26.668   6.753
10451POPC   C3B68901  37.527  26.595   7.053
10451POPC   C4B68902  37.537  26.661   7.353
10452POPC   NC368903  26.002  36.104   5.553
10452POPC   PO468904  26.031  36.156   5.853
10452POPC   GL168905  26.065  36.165   6.153
10452POPC   GL268906  26.035  35.990   6.153
10452POPC   C1A68907  26.029  36.177   6.453
10452POPC   D2A68908  26.042  36.162   6.753
10452POPC   C3A68909  26.061  36.140   7.053
10452POPC   C4A68910  26.021  36.117   7.353
10452POPC   C1B68911  25.921  35.921   6.453
10452POPC   C2B68912  25.929  35.933   6.753
10452POPC   C3B68913  25.990  35.892   7.053
10452POPC   C4B68914  25.989  35.940   7.353
10453POPC   NC368915  12.026  41.543   5.553
10453POPC   PO468916  12.113  41.604   5.853
10453POPC   GL168917  12.053  41.561   6.153
10453POPC   GL268918  12.198  41.491   6.153
10453POPC   C1A68919  12.047  41.603   6.453
10453POPC   D2A68920  12.031  41.599   6.753
10453POPC   C3A68921  12.054  41.534   7.053
10453POPC   C4A68922  12.082  41.522   7.353
10453POPC   C1B68923  12.371  41.524   6.453
10453POPC   C2B68924  12.317  41.550   6.753
10453POPC   C3B68925  12.342  41.540   7.053
10453POPC   C4B68926  12.301  41.545   7.353
10454POPC   NC368927  30.728  15.994   5.553
10454POPC   PO468928  30.731  15.926   5.853
10454POPC   GL168929  30.669  15.915   6.153
10454POPC   GL268930  30.572  15.899   6.153
10454POPC   C1A68931  30.654  15.965   6.453
10454POPC   D2A68932  30.708  15.910   6.753
10454POPC   C3A68933  30.656  15.947   7.053
10454POPC   C4A68934  30.688  15.982   7.353
10454POPC   C1B68935  30.494  15.788   6.453
10454POPC   C2B68936  30.541  15.763   6.753
10454POPC   C3B68937  30.507  15.819   7.053
10454POPC   C4B68938  30.490  15.810   7.353
10455POPC   NC368939  38.442   8.941   5.553
10455POPC   PO468940  38.472   9.007   5.853
10455POPC   GL168941  38.478   9.016   6.153
10455POPC   GL268942  38.451   8.883   6.153
10455POPC   C1A68943  38.417   9.009   6.453
10455POPC   D2A68944  38.453   8.973   6.753
10455POPC   C3A68945  38.412   8.932   7.053
10455POPC   C4A68946  38.442   8.973   7.353
10455POPC   C1B68947  38.360   8.736   6.453
10455POPC   C2B68948  38.377   8.741   6.753
10455POPC   C3B68949  38.395   8.703   7.053
10455POPC   C4B68950  38.389   8.756   7.353
10456POPC   NC368951   9.713  14.409   5.553
10456POPC   PO468952   9.798  14.402   5.853
10456POPC   GL168953   9.717  14.356   6.153
10456POPC   GL268954   9.666  14.447   6.153
10456POPC   C1A68955   9.782  14.373   6.453
10456POPC   D2A68956   9.705  14.447   6.753
10456POPC   C3A68957   9.782  14.432   7.053
10456POPC   C4A68958   9.719  14.387   7.353
10456POPC   C1B68959   9.615  14.617   6.453
10456POPC   C2B68960   9.589  14.579   6.753
10456POPC   C3B68961   9.594  14.546   7.053
10456POPC   C4B68962   9.609  14.527   7.353
10457POPC   NC368963  29.923  44.672   5.553
10457POPC   PO468964  29.950  44.682   5.853
10457POPC   GL168965  29.968  44.655   6.153
10457POPC   GL268966  29.945  44.488   6.153
10457POPC   C1A68967  29.876  44.624   6.453
10457POPC   D2A68968  29.943  44.621   6.753
10457POPC   C3A68969  29.963  44.672   7.053
10457POPC   C4A68970  29.872  44.653   7.353
10457POPC   C1B68971  29.858  44.422   6.453
10457POPC   C2B68972  29.872  44.427   6.753
10457POPC   C3B68973  29.949  44.382   7.053
10457POPC   C4B68974  29.863  44.384   7.353
10458POPC   NC368975  37.710   6.674   5.553
10458POPC   PO468976  37.694   6.663   5.853
10458POPC   GL168977  37.660   6.695   6.153
10458POPC   GL268978  37.742   6.493   6.153
10458POPC   C1A68979  37.668   6.606   6.453
10458POPC   D2A68980  37.699   6.672   6.753
10458POPC   C3A68981  37.715   6.633   7.053
10458POPC   C4A68982  37.688   6.617   7.353
10458POPC   C1B68983  37.768   6.437   6.453
10458POPC   C2B68984  37.734   6.359   6.753
10458POPC   C3B68985  37.686   6.379   7.053
10458POPC   C4B68986  37.711   6.404   7.353
10459POPC   NC368987  40.818  33.039   5.553
10459POPC   PO468988  40.778  33.024   5.853
10459POPC   GL168989  40.805  33.020   6.153
10459POPC   GL268990  40.819  32.939   6.153
10459POPC   C1A68991  40.809  33.072   6.453
10459POPC   D2A68992  40.785  33.053   6.753
10459POPC   C3A68993  40.832  33.041   7.053
10459POPC   C4A68994  40.823  33.012   7.353
10459POPC   C1B68995  40.900  32.793   6.453
10459POPC   C2B68996  40.876  32.810   6.753
10459POPC   C3B68997  40.842  32.743   7.053
10459POPC   C4B68998  40.880  32.769   7.353
10460POPC   NC368999  42.313  19.824   5.553
10460POPC   PO469000  42.356  19.792   5.853
10460POPC   GL169001  42.379  19.846   6.153
10460POPC   GL269002  42.297  19.709   6.153
10460POPC   C1A69003  42.287  19.815   6.453
10460POPC   D2A69004  42.319  19.881   6.753
10460POPC   C3A69005  42.297  19.874   7.053
10460POPC   C4A69006  42.347  19.799   7.353
10460POPC   C1B69007  42.290  19.571   6.453
10460POPC   C2B69008  42.255  19.636   6.753
10460POPC   C3B69009  42.305  19.588   7.053
10460POPC   C4B69010  42.271  19.578   7.353
10461POPC   NC369011  44.689   1.200   5.553
10461POPC   PO469012  44.675   1.243   5.853
10461POPC   GL169013  44.620   1.172   6.153
10461POPC   GL269014  44.759   1.319   6.153
10461POPC   C1A69015  44.657   1.172   6.453
10461POPC   D2A69016  44.641   1.209   6.753
10461POPC   C3A69017  44.698   1.228   7.053
10461POPC   C4A69018  44.613   1.166   7.353
10461POPC   C1B69019  44.814   1.473   6.453
10461POPC   C2B69020  44.774   1.435   6.753
10461POPC   C3B69021  44.729   1.391   7.053
10461POPC   C4B69022  44.811   1.472   7.353
10462POPC   NC369023   9.757  27.629   5.553
10462POPC   PO469024   9.764  27.641   5.853
10462POPC   GL169025   9.753  27.623   6.153
10462POPC   GL269026   9.825  27.676   6.153
10462POPC   C1A69027   9.719  27.558   6.453
10462POPC   D2A69028   9.797  27.582   6.753
10462POPC   C3A69029   9.730  27.642   7.053
10462POPC   C4A69030   9.728  27.577   7.353
10462POPC   C1B69031   9.949  27.659   6.453
10462POPC   C2B69032   9.965  27.638   6.753
10462POPC   C3B69033  10.030  27.692   7.053
10462POPC   C4B69034   9.941  27.646   7.353
10463POPC   NC369035   5.143  19.815   5.553
10463POPC   PO469036   5.058  19.865   5.853
10463POPC   GL169037   5.046  19.807   6.153
10463POPC   GL269038   5.045  19.934   6.153
10463POPC   C1A69039   5.125  19.846   6.453
10463POPC   D2A69040   5.142  19.852   6.753
10463POPC   C3A69041   5.122  19.794   7.053
10463POPC   C4A69042   5.118  19.826   7.353
10463POPC   C1B69043   4.940  20.026   6.453
10463POPC   C2B69044   4.967  20.020   6.753
10463POPC   C3B69045   4.950  20.024   7.053
10463POPC   C4B69046   4.954  20.005   7.353
10464POPC   NC369047  23.725   8.178   5.553
10464POPC   PO469048  23.665   8.231   5.853
10464POPC   GL169049  23.684   8.193   6.153
10464POPC   GL269050  23.662   8.082   6.153
10464POPC   C1A69051  23.681   8.149   6.453
10464POPC   D2A69052  23.728   8.230   6.753
10464POPC   C3A69053  23.664   8.155   7.053
10464POPC   C4A69054  23.699   8.147   7.353
10464POPC   C1B69055  23.578   7.944   6.453
10464POPC   C2B69056  23.623   7.973   6.753
10464POPC   C3B69057  23.569   7.929   7.053
10464POPC   C4B69058  23.632   7.979   7.353
10465POPC   NC369059  36.924  22.198   5.553
10465POPC   PO469060  36.854  22.149   5.853
10465POPC   GL169061  36.907  22.188   6.153
10465POPC   GL269062  36.856  22.085   6.153
10465POPC   C1A69063  36.940  22.158   6.453
10465POPC   D2A69064  36.893  22.133   6.753
10465POPC   C3A69065  36.912  22.129   7.053
10465POPC   C4A69066  36.900  22.147   7.353
10465POPC   C1B69067  36.844  21.916   6.453
10465POPC   C2B69068  36.833  21.888   6.753
10465POPC   C3B69069  36.818  21.933   7.053
10465POPC   C4B69070  36.811  21.900   7.353
10466POPC   NC369071  20.602   6.657   5.553
10466POPC   PO469072  20.606   6.658   5.853
10466POPC   GL169073  20.633   6.606   6.153
10466POPC   GL269074  20.529   6.527   6.153
10466POPC   C1A69075  20.640   6.638   6.453
10466POPC   D2A69076  20.615   6.687   6.753
10466POPC   C3A69077  20.602   6.685   7.053
10466POPC   C4A69078  20.579   6.611   7.353
10466POPC   C1B69079  20.581   6.367   6.453
10466POPC   C2B69080  20.550   6.443   6.753
10466POPC   C3B69081  20.543   6.403   7.053
10466POPC   C4B69082  20.577   6.394   7.353
10467POPC   NC369083   3.529  15.218   5.553
10467POPC   PO469084   3.549  15.153   5.853
10467POPC   GL169085   3.543  15.153   6.153
10467POPC   GL269086   3.423  15.274   6.153
10467POPC   C1A69087   3.536  15.177   6.453
10467POPC   D2A69088   3.493  15.197   6.753
10467POPC   C3A69089   3.575  15.135   7.053
10467POPC   C4A69090   3.579  15.217   7.353
10467POPC   C1B69091   3.286  15.292   6.453
10467POPC   C2B69092   3.280  15.313   6.753
10467POPC   C3B69093   3.360  15.268   7.053
10467POPC   C4B69094   3.294  15.299   7.353
10468POPC   NC369095  36.946   6.641   5.553
10468POPC   PO469096  36.940   6.670   5.853
10468POPC   GL169097  36.899   6.692   6.153
10468POPC   GL269098  37.032   6.701   6.153
10468POPC   C1A69099  36.935   6.650   6.453
10468POPC   D2A69100  36.866   6.595   6.753
10468POPC   C3A69101  36.900   6.633   7.053
10468POPC   C4A69102  36.908   6.655   7.353
10468POPC   C1B69103  37.139   6.738   6.453
10468POPC   C2B69104  37.180   6.712   6.753
10468POPC   C3B69105  37.131   6.776   7.053
10468POPC   C4B69106  37.139   6.760   7.353
10469POPC   NC369107  36.904  21.349   5.553
10469POPC   PO469108  36.856  21.423   5.853
10469POPC   GL169109  36.917  21.420   6.153
10469POPC   GL269110  36.776  21.407   6.153
10469POPC   C1A69111  36.911  21.434   6.453
10469POPC   D2A69112  36.940  21.366   6.753
10469POPC   C3A69113  36.923  21.367   7.053
10469POPC   C4A69114  36.938  21.421   7.353
10469POPC   C1B69115  36.667  21.413   6.453
10469POPC   C2B69116  36.647  21.453   6.753
10469POPC   C3B69117  36.618  21.495   7.053
10469POPC   C4B69118  36.681  21.408   7.353
10470POPC   NC369119   7.450   6.681   5.553
10470POPC   PO469120   7.448   6.670   5.853
10470POPC   GL169121   7.436   6.652   6.153
10470POPC   GL269122   7.481   6.723   6.153
10470POPC   C1A69123   7.392   6.663   6.453
10470POPC   D2A69124   7.395   6.603   6.753
10470POPC   C3A69125   7.410   6.628   7.053
10470POPC   C4A69126   7.432   6.612   7.353
10470POPC   C1B69127   7.487   6.885   6.453
10470POPC   C2B69128   7.427   6.902   6.753
10470POPC   C3B69129   7.490   6.923   7.053
10470POPC   C4B69130   7.441   6.905   7.353
10471POPC   NC369131  32.993   0.413   5.553
10471POPC   PO469132  33.013   0.396   5.853
10471POPC   GL169133  33.034   0.487   6.153
10471POPC   GL269134  33.048   0.573   6.153
10471POPC   C1A69135  32.995   0.431   6.453
10471POPC   D2A69136  33.067   0.436   6.753
10471POPC   C3A69137  33.003   0.390   7.053
10471POPC   C4A69138  33.055   0.400   7.353
10471POPC   C1B69139  32.999   0.650   6.453
10471POPC   C2B69140  33.010   0.679   6.753
10471POPC   C3B69141  33.004   0.685   7.053
10471POPC   C4B69142  33.001   0.652   7.353
10472POPC   NC369143  15.977  43.140   5.553
10472POPC   PO469144  15.940  43.110   5.853
10472POPC   GL169145  15.974  43.100   6.153
10472POPC   GL269146  15.819  43.054   6.153
10472POPC   C1A69147  15.915  43.150   6.453
10472POPC   D2A69148  15.981  43.132   6.753
10472POPC   C3A69149  15.936  43.078   7.053
10472POPC   C4A69150  15.978  43.105   7.353
10472POPC   C1B69151  15.748  42.894   6.453
10472POPC   C2B69152  15.808  42.964   6.753
10472POPC   C3B69153  15.786  42.961   7.053
10472POPC   C4B69154  15.744  42.893   7.353
10473POPC   NC369155  19.073  33.771   5.553
10473POPC   PO469156  19.015  33.758   5.853
10473POPC   GL169157  19.084  33.769   6.153
10473POPC   GL269158  18.928  33.847   6.153
10473POPC   C1A69159  19.034  33.756   6.453
10473POPC   D2A69160  19.056  33.840   6.753
10473POPC   C3A69161  19.088  33.793   7.053
10473POPC   C4A69162  19.032  33.842   7.353
10473POPC   C1B69163  18.835  33.878   6.453
10473POPC   C2B69164  18.843  33.923   6.753
10473POPC   C3B69165  18.783  33.871   7.053
10473POPC   C4B69166  18.802  33.928   7.353
10474POPC   NC369167  12.056  36.171   5.553
10474POPC   PO469168  12.033  36.094   5.853
10474POPC   GL169169  12.057  36.135   6.153
10474POPC   GL269170  12.071  35.966   6.153
10474POPC   C1A69171  12.055  36.172   6.453
10474POPC   D2A69172  12.062  36.172   6.753
10474POPC   C3A69173  12.031  36.127   7.053
10474POPC   C4A69174  12.063  36.130   7.353
10474POPC   C1B69175  12.045  35.830   6.453
10474POPC   C2B69176  12.098  35.907   6.753
10474POPC   C3B69177  12.090  35.835   7.053
10474POPC   C4B69178  12.104  35.889   7.353
10475POPC   NC369179  34.553  19.055   5.553
10475POPC   PO469180  34.585  19.033   5.853
10475POPC   GL169181  34.583  19.082   6.153
10475POPC   GL269182  34.609  19.140   6.153
10475POPC   C1A69183  34.579  19.060   6.453
10475POPC   D2A69184  34.602  19.052   6.753
10475POPC   C3A69185  34.595  19.045   7.053
10475POPC   C4A69186  34.573  19.082   7.353
10475POPC   C1B69187  34.622  19.256   6.453
10475POPC   C2B69188  34.699  19.250   6.753
10475POPC   C3B69189  34.659  19.286   7.053
10475POPC   C4B69190  34.707  19.293   7.353
10476POPC   NC369191  42.364  18.313   5.553
10476POPC   PO469192  42.307  18.311   5.853
10476POPC   GL169193  42.292  18.274   6.153
10476POPC   GL269194  42.350  18.439   6.153
10476POPC   C1A69195  42.362  18.299   6.453
10476POPC   D2A69196  42.357  18.257   6.753
10476POPC   C3A69197  42.365  18.322   7.053
10476POPC   C4A69198  42.353  18.266   7.353
10476POPC   C1B69199  42.422  18.539   6.453
10476POPC   C2B69200  42.404  18.510   6.753
10476POPC   C3B69201  42.393  18.507   7.053
10476POPC   C4B69202  42.446  18.486   7.353
10477POPC   NC369203  23.753   7.406   5.553
10477POPC   PO469204  23.725   7.444   5.853
10477POPC   GL169205  23.697   7.407   6.153
10477POPC   GL269206  23.700   7.534   6.153
10477POPC   C1A69207  23.701   7.459   6.453
10477POPC   D2A69208  23.752   7.468   6.753
10477POPC   C3A69209  23.712   7.373   7.053
10477POPC   C4A69210  23.666   7.447   7.353
10477POPC   C1B69211  23.755   7.700   6.453
10477POPC   C2B69212  23.777   7.658   6.753
10477POPC   C3B69213  23.728   7.699   7.053
10477POPC   C4B69214  23.764   7.700   7.353
10478POPC   NC369215  43.148   2.791   5.553
10478POPC   PO469216  43.075   2.803   5.853
10478POPC   GL169217  43.064   2.782   6.153
10478POPC   GL269218  43.227   2.897   6.153
10478POPC   C1A69219  43.124   2.734   6.453
10478POPC   D2A69220  43.130   2.736   6.753
10478POPC   C3A69221  43.156   2.767   7.053
10478POPC   C4A69222  43.074   2.727   7.353
10478POPC   C1B69223  43.248   2.905   6.453
10478POPC   C2B69224  43.290   2.941   6.753
10478POPC   C3B69225  43.291   2.956   7.053
10478POPC   C4B69226  43.314   2.935   7.353
10479POPC   NC369227  43.111  13.647   5.553
10479POPC   PO469228  43.139  13.661   5.853
10479POPC   GL169229  43.157  13.654   6.153
10479POPC   GL269230  43.179  13.496   6.153
10479POPC   C1A69231  43.130  13.585   6.453
10479POPC   D2A69232  43.123  13.606   6.753
10479POPC   C3A69233  43.119  13.671   7.053
10479POPC   C4A69234  43.152  13.598   7.353
10479POPC   C1B69235  43.305  13.464   6.453
10479POPC   C2B69236  43.294  13.406   6.753
10479POPC   C3B69237  43.309  13.426   7.053
10479POPC   C4B69238  43.294  13.419   7.353
10480POPC   NC369239   9.792  43.116   5.553
10480POPC   PO469240   9.785  43.110   5.853
10480POPC   GL169241   9.709  43.092   6.153
10480POPC   GL269242   9.628  43.177   6.153
10480POPC   C1A69243   9.710  43.129   6.453
10480POPC   D2A69244   9.782  43.101   6.753
10480POPC   C3A69245   9.796  43.114   7.053
10480POPC   C4A69246   9.738  43.061   7.353
10480POPC   C1B69247   9.583  43.244   6.453
10480POPC   C2B69248   9.582  43.245   6.753
10480POPC   C3B69249   9.536  43.247   7.053
10480POPC   C4B69250   9.595  43.319   7.353
10481POPC   NC369251  39.988  43.911   5.553
10481POPC   PO469252  40.039  43.911   5.853
10481POPC   GL169253  40.001  43.893   6.153
10481POPC   GL269254  40.127  43.990   6.153
10481POPC   C1A69255  40.007  43.872   6.453
10481POPC   D2A69256  39.976  43.876   6.753
10481POPC   C3A69257  40.011  43.847   7.053
10481POPC   C4A69258  40.055  43.884   7.353
10481POPC   C1B69259  40.174  44.015   6.453
10481POPC   C2B69260  40.202  44.104   6.753
10481POPC   C3B69261  40.224  44.038   7.053
10481POPC   C4B69262  40.200  44.098   7.353
10482POPC   NC369263  19.074  35.332   5.553
10482POPC   PO469264  19.019  35.368   5.853
10482POPC   GL169265  19.059  35.316   6.153
10482POPC   GL269266  19.054  35.488   6.153
10482POPC   C1A69267  19.049  35.337   6.453
10482POPC   D2A69268  19.107  35.397   6.753
10482POPC   C3A69269  19.051  35.389   7.053
10482POPC   C4A69270  19.092  35.365   7.353
10482POPC   C1B69271  18.985  35.568   6.453
10482POPC   C2B69272  19.035  35.608   6.753
10482POPC   C3B69273  19.017  35.562   7.053
10482POPC   C4B69274  18.983  35.626   7.353
10483POPC   NC369275   5.844  20.634   5.553
10483POPC   PO469276   5.830  20.568   5.853
10483POPC   GL169277   5.835  20.588   6.153
10483POPC   GL269278   5.844  20.727   6.153
10483POPC   C1A69279   5.911  20.622   6.453
10483POPC   D2A69280   5.864  20.649   6.753
10483POPC   C3A69281   5.866  20.658   7.053
10483POPC   C4A69282   5.916  20.653   7.353
10483POPC   C1B69283   5.938  20.855   6.453
10483POPC   C2B69284   5.921  20.842   6.753
10483POPC   C3B69285   5.868  20.907   7.053
10483POPC   C4B69286   5.945  20.878   7.353
10484POPC   NC369287  27.621  33.783   5.553
10484POPC   PO469288  27.561  33.807   5.853
10484POPC   GL169289  27.580  33.752   6.153
10484POPC   GL269290  27.480  33.908   6.153
10484POPC   C1A69291  27.586  33.763   6.453
10484POPC   D2A69292  27.558  33.799   6.753
10484POPC   C3A69293  27.562  33.812   7.053
10484POPC   C4A69294  27.561  33.787   7.353
10484POPC   C1B69295  27.409  33.874   6.453
10484POPC   C2B69296  27.352  33.880   6.753
10484POPC   C3B69297  27.387  33.896   7.053
10484POPC   C4B69298  27.391  33.941   7.353
10485POPC   NC369299  25.292   2.723   5.553
10485POPC   PO469300  25.231   2.796   5.853
10485POPC   GL169301  25.283   2.764   6.153
10485POPC   GL269302  25.317   2.690   6.153
10485POPC   C1A69303  25.257   2.725   6.453
10485POPC   D2A69304  25.293   2.719   6.753
10485POPC   C3A69305  25.271   2.803   7.053
10485POPC   C4A69306  25.216   2.765   7.353
10485POPC   C1B69307  25.392   2.550   6.453
10485POPC   C2B69308  25.369   2.578   6.753
10485POPC   C3B69309  25.419   2.589   7.053
10485POPC   C4B69310  25.424   2.567   7.353
10486POPC   NC369311  38.449   5.854   5.553
10486POPC   PO469312  38.411   5.899   5.853
10486POPC   GL169313  38.481   5.866   6.153
10486POPC   GL269314  38.351   6.023   6.153
10486POPC   C1A69315  38.429   5.835   6.453
10486POPC   D2A69316  38.468   5.848   6.753
10486POPC   C3A69317  38.452   5.854   7.053
10486POPC   C4A69318  38.428   5.828   7.353
10486POPC   C1B69319  38.333   6.088   6.453
10486POPC   C2B69320  38.315   6.064   6.753
10486POPC   C3B69321  38.334   6.086   7.053
10486POPC   C4B69322  38.316   6.081   7.353
10487POPC   NC369323  25.277  43.100   5.553
10487POPC   PO469324  25.306  43.091   5.853
10487POPC   GL169325  25.295  43.085   6.153
10487POPC   GL269326  25.347  43.156   6.153
10487POPC   C1A69327  25.251  43.098   6.453
10487POPC   D2A69328  25.307  43.062   6.753
10487POPC   C3A69329  25.249  43.069   7.053
10487POPC   C4A69330  25.303  43.140   7.353
10487POPC   C1B69331  25.506  43.271   6.453
10487POPC   C2B69332  25.495  43.192   6.753
10487POPC   C3B69333  25.522  43.262   7.053
10487POPC   C4B69334  25.505  43.228   7.353
10488POPC   NC369335  21.390  12.089   5.553
10488POPC   PO469336  21.398  12.082   5.853
10488POPC   GL169337  21.369  12.038   6.153
10488POPC   GL269338  21.223  12.068   6.153
10488POPC   C1A69339  21.364  12.029   6.453
10488POPC   D2A69340  21.428  12.057   6.753
10488POPC   C3A69341  21.386  12.110   7.053
10488POPC   C4A69342  21.373  12.058   7.353
10488POPC   C1B69343  21.124  12.064   6.453
10488POPC   C2B69344  21.105  12.047   6.753
10488POPC   C3B69345  21.186  12.063   7.053
10488POPC   C4B69346  21.173  12.023   7.353
10489POPC   NC369347   5.047  40.810   5.553
10489POPC   PO469348   5.081  40.829   5.853
10489POPC   GL169349   5.086  40.808   6.153
10489POPC   GL269350   5.040  40.636   6.153
10489POPC   C1A69351   5.116  40.760   6.453
10489POPC   D2A69352   5.057  40.791   6.753
10489POPC   C3A69353   5.131  40.783   7.053
10489POPC   C4A69354   5.100  40.794   7.353
10489POPC   C1B69355   5.032  40.507   6.453
10489POPC   C2B69356   5.072  40.578   6.753
10489POPC   C3B69357   5.019  40.548   7.053
10489POPC   C4B69358   5.075  40.507   7.353
10490POPC   NC369359  29.098  33.796   5.553
10490POPC   PO469360  29.106  33.768   5.853
10490POPC   GL169361  29.117  33.780   6.153
10490POPC   GL269362  29.210  33.926   6.153
10490POPC   C1A69363  29.100  33.830   6.453
10490POPC   D2A69364  29.112  33.785   6.753
10490POPC   C3A69365  29.110  33.774   7.053
10490POPC   C4A69366  29.128  33.769   7.353
10490POPC   C1B69367  29.285  33.965   6.453
10490POPC   C2B69368  29.298  33.991   6.753
10490POPC   C3B69369  29.250  34.043   7.053
10490POPC   C4B69370  29.318  34.011   7.353
10491POPC   NC369371  16.762  42.382   5.553
10491POPC   PO469372  16.763  42.321   5.853
10491POPC   GL169373  16.770  42.365   6.153
10491POPC   GL269374  16.897  42.359   6.153
10491POPC   C1A69375  16.703  42.314   6.453
10491POPC   D2A69376  16.755  42.299   6.753
10491POPC   C3A69377  16.774  42.334   7.053
10491POPC   C4A69378  16.728  42.370   7.353
10491POPC   C1B69379  16.957  42.293   6.453
10491POPC   C2B69380  17.002  42.304   6.753
10491POPC   C3B69381  17.005  42.349   7.053
10491POPC   C4B69382  16.970  42.332   7.353
10492POPC   NC369383  26.844  39.253   5.553
10492POPC   PO469384  26.771  39.232   5.853
10492POPC   GL169385  26.829  39.273   6.153
10492POPC   GL269386  26.895  39.300   6.153
10492POPC   C1A69387  26.797  39.251   6.453
10492POPC   D2A69388  26.856  39.259   6.753
10492POPC   C3A69389  26.807  39.199   7.053
10492POPC   C4A69390  26.792  39.192   7.353
10492POPC   C1B69391  27.072  39.359   6.453
10492POPC   C2B69392  27.085  39.360   6.753
10492POPC   C3B69393  27.051  39.284   7.053
10492POPC   C4B69394  27.052  39.379   7.353
10493POPC   NC369395   5.867   4.276   5.553
10493POPC   PO469396   5.832   4.309   5.853
10493POPC   GL169397   5.857   4.324   6.153
10493POPC   GL269398   5.950   4.337   6.153
10493POPC   C1A69399   5.890   4.278   6.453
10493POPC   D2A69400   5.908   4.348   6.753
10493POPC   C3A69401   5.905   4.346   7.053
10493POPC   C4A69402   5.861   4.325   7.353
10493POPC   C1B69403   6.140   4.379   6.453
10493POPC   C2B69404   6.107   4.455   6.753
10493POPC   C3B69405   6.122   4.443   7.053
10493POPC   C4B69406   6.054   4.413   7.353
10494POPC   NC369407  42.298  40.036   5.553
10494POPC   PO469408  42.337  39.961   5.853
10494POPC   GL169409  42.374  39.975   6.153
10494POPC   GL269410  42.351  39.847   6.153
10494POPC   C1A69411  42.361  39.958   6.453
10494POPC   D2A69412  42.303  40.006   6.753
10494POPC   C3A69413  42.294  39.974   7.053
10494POPC   C4A69414  42.371  39.980   7.353
10494POPC   C1B69415  42.273  39.797   6.453
10494POPC   C2B69416  42.367  39.756   6.753
10494POPC   C3B69417  42.327  39.728   7.053
10494POPC   C4B69418  42.332  39.728   7.353
10495POPC   NC369419  12.091  26.791   5.553
10495POPC   PO469420  12.051  26.786   5.853
10495POPC   GL169421  12.087  26.802   6.153
10495POPC   GL269422  12.147  26.706   6.153
10495POPC   C1A69423  12.110  26.833   6.453
10495POPC   D2A69424  12.050  26.840   6.753
10495POPC   C3A69425  12.037  26.824   7.053
10495POPC   C4A69426  12.084  26.797   7.353
10495POPC   C1B69427  12.287  26.713   6.453
10495POPC   C2B69428  12.267  26.706   6.753
10495POPC   C3B69429  12.300  26.694   7.053
10495POPC   C4B69430  12.278  26.650   7.353
10496POPC   NC369431   8.175  12.888   5.553
10496POPC   PO469432   8.206  12.879   5.853
10496POPC   GL169433   8.195  12.886   6.153
10496POPC   GL269434   8.160  13.012   6.153
10496POPC   C1A69435   8.200  12.834   6.453
10496POPC   D2A69436   8.174  12.890   6.753
10496POPC   C3A69437   8.149  12.891   7.053
10496POPC   C4A69438   8.185  12.809   7.353
10496POPC   C1B69439   8.130  13.117   6.453
10496POPC   C2B69440   8.175  13.086   6.753
10496POPC   C3B69441   8.167  13.098   7.053
10496POPC   C4B69442   8.128  13.063   7.353
10497POPC   NC369443   5.881  39.988   5.553
10497POPC   PO469444   5.848  40.030   5.853
10497POPC   GL169445   5.887  40.008   6.153
10497POPC   GL269446   5.818  40.107   6.153
10497POPC   C1A69447   5.831  39.961   6.453
10497POPC   D2A69448   5.882  40.046   6.753
10497POPC   C3A69449   5.842  39.961   7.053
10497POPC   C4A69450   5.900  40.050   7.353
10497POPC   C1B69451   5.746  40.202   6.453
10497POPC   C2B69452   5.653  40.229   6.753
10497POPC   C3B69453   5.727  40.213   7.053
10497POPC   C4B69454   5.701  40.149   7.353
10498POPC   NC369455  38.487   2.009   5.553
10498POPC   PO469456  38.493   1.979   5.853
10498POPC   GL169457  38.438   2.025   6.153
10498POPC   GL269458  38.360   1.947   6.153
10498POPC   C1A69459  38.437   1.983   6.453
10498POPC   D2A69460  38.501   1.995   6.753
10498POPC   C3A69461  38.494   2.034   7.053
10498POPC   C4A69462  38.411   2.032   7.353
10498POPC   C1B69463  38.277   1.863   6.453
10498POPC   C2B69464  38.230   1.833   6.753
10498POPC   C3B69465  38.246   1.833   7.053
10498POPC   C4B69466  38.206   1.857   7.353
10499POPC   NC369467  44.617  15.909   5.553
10499POPC   PO469468  44.623  15.915   5.853
10499POPC   GL169469  44.695  15.926   6.153
10499POPC   GL269470  44.777  16.017   6.153
10499POPC   C1A69471  44.679  15.971   6.453
10499POPC   D2A69472  44.676  15.988   6.753
10499POPC   C3A69473  44.623  15.960   7.053
10499POPC   C4A69474  44.677  15.934   7.353
10499POPC   C1B69475  44.802  16.119   6.453
10499POPC   C2B69476  44.806  16.116   6.753
10499POPC   C3B69477  44.841  16.121   7.053
10499POPC   C4B69478  44.770  16.196   7.353
10500POPC   NC369479   8.171  43.094   5.553
10500POPC   PO469480   8.150  43.108   5.853
10500POPC   GL169481   8.198  43.077   6.153
10500POPC   GL269482   8.191  42.947   6.153
10500POPC   C1A69483   8.188  43.116   6.453
10500POPC   D2A69484   8.157  43.065   6.753
10500POPC   C3A69485   8.198  43.090   7.053
10500POPC   C4A69486   8.161  43.141   7.353
10500POPC   C1B69487   8.092  42.839   6.453
10500POPC   C2B69488   8.067  42.893   6.753
10500POPC   C3B69489   8.145  42.859   7.053
10500POPC   C4B69490   8.145  42.923   7.353
10501POPC   NC369491   2.779   8.997   5.553
10501POPC   PO469492   2.717   9.020   5.853
10501POPC   GL169493   2.745   8.960   6.153
10501POPC   GL269494   2.713   8.865   6.153
10501POPC   C1A69495   2.790   8.940   6.453
10501POPC   D2A69496   2.788   8.934   6.753
10501POPC   C3A69497   2.796   8.981   7.053
10501POPC   C4A69498   2.725   8.974   7.353
10501POPC   C1B69499   2.737   8.715   6.453
10501POPC   C2B69500   2.736   8.725   6.753
10501POPC   C3B69501   2.681   8.743   7.053
10501POPC   C4B69502   2.680   8.770   7.353
10502POPC   NC369503  25.223  35.380   5.553
10502POPC   PO469504  25.274  35.392   5.853
10502POPC   GL169505  25.266  35.396   6.153
10502POPC   GL269506  25.144  35.242   6.153
10502POPC   C1A69507  25.294  35.317   6.453
10502POPC   D2A69508  25.236  35.386   6.753
10502POPC   C3A69509  25.253  35.318   7.053
10502POPC   C4A69510  25.309  35.306   7.353
10502POPC   C1B69511  25.129  35.153   6.453
10502POPC   C2B69512  25.112  35.144   6.753
10502POPC   C3B69513  25.112  35.158   7.053
10502POPC   C4B69514  25.103  35.181   7.353
10503POPC   NC369515  26.037  16.681   5.553
10503POPC   PO469516  26.026  16.756   5.853
10503POPC   GL169517  26.034  16.745   6.153
10503POPC   GL269518  26.017  16.592   6.153
10503POPC   C1A69519  26.042  16.682   6.453
10503POPC   D2A69520  26.058  16.714   6.753
10503POPC   C3A69521  25.993  16.780   7.053
10503POPC   C4A69522  26.005  16.685   7.353
10503POPC   C1B69523  25.941  16.508   6.453
10503POPC   C2B69524  25.955  16.483   6.753
10503POPC   C3B69525  25.926  16.485   7.053
10503POPC   C4B69526  25.951  16.559   7.353
10504POPC   NC369527  13.662  33.847   5.553
10504POPC   PO469528  13.643  33.808   5.853
10504POPC   GL169529  13.610  33.809   6.153
10504POPC   GL269530  13.535  33.692   6.153
10504POPC   C1A69531  13.675  33.835   6.453
10504POPC   D2A69532  13.607  33.833   6.753
10504POPC   C3A69533  13.677  33.809   7.053
10504POPC   C4A69534  13.673  33.769   7.353
10504POPC   C1B69535  13.442  33.661   6.453
10504POPC   C2B69536  13.409  33.658   6.753
10504POPC   C3B69537  13.446  33.612   7.053
10504POPC   C4B69538  13.471  33.664   7.353
10505POPC   NC369539  18.329  19.049   5.553
10505POPC   PO469540  18.291  19.083   5.853
10505POPC   GL169541  18.276  19.017   6.153
10505POPC   GL269542  18.306  18.959   6.153
10505POPC   C1A69543  18.273  19.106   6.453
10505POPC   D2A69544  18.253  19.024   6.753
10505POPC   C3A69545  18.248  19.083   7.053
10505POPC   C4A69546  18.308  19.010   7.353
10505POPC   C1B69547  18.354  18.844   6.453
10505POPC   C2B69548  18.347  18.820   6.753
10505POPC   C3B69549  18.363  18.859   7.053
10505POPC   C4B69550  18.378  18.838   7.353
10506POPC   NC369551  22.895  36.104   5.553
10506POPC   PO469552  22.969  36.141   5.853
10506POPC   GL169553  22.948  36.176   6.153
10506POPC   GL269554  23.054  36.253   6.153
10506POPC   C1A69555  22.902  36.168   6.453
10506POPC   D2A69556  22.937  36.157   6.753
10506POPC   C3A69557  22.924  36.122   7.053
10506POPC   C4A69558  22.955  36.107   7.353
10506POPC   C1B69559  23.150  36.333   6.453
10506POPC   C2B69560  23.106  36.238   6.753
10506POPC   C3B69561  23.101  36.276   7.053
10506POPC   C4B69562  23.164  36.280   7.353
10507POPC   NC369563  29.911  43.844   5.553
10507POPC   PO469564  29.881  43.889   5.853
10507POPC   GL169565  29.953  43.927   6.153
10507POPC   GL269566  29.827  43.955   6.153
10507POPC   C1A69567  29.902  43.935   6.453
10507POPC   D2A69568  29.959  43.841   6.753
10507POPC   C3A69569  29.949  43.914   7.053
10507POPC   C4A69570  29.936  43.881   7.353
10507POPC   C1B69571  29.792  44.027   6.453
10507POPC   C2B69572  29.711  44.111   6.753
10507POPC   C3B69573  29.727  44.057   7.053
10507POPC   C4B69574  29.773  44.092   7.353
10508POPC   NC369575  36.171   6.619   5.553
10508POPC   PO469576  36.134   6.603   5.853
10508POPC   GL169577  36.110   6.646   6.153
10508POPC   GL269578  36.052   6.566   6.153
10508POPC   C1A69579  36.142   6.670   6.453
10508POPC   D2A69580  36.147   6.619   6.753
10508POPC   C3A69581  36.150   6.628   7.053
10508POPC   C4A69582  36.088   6.641   7.353
10508POPC   C1B69583  36.047   6.388   6.453
10508POPC   C2B69584  36.058   6.373   6.753
10508POPC   C3B69585  36.052   6.446   7.053
10508POPC   C4B69586  36.058   6.379   7.353
10509POPC   NC369587   0.480   5.916   5.553
10509POPC   PO469588   0.484   5.906   5.853
10509POPC   GL169589   0.464   5.862   6.153
10509POPC   GL269590   0.470   5.728   6.153
10509POPC   C1A69591   0.398   5.881   6.453
10509POPC   D2A69592   0.421   5.831   6.753
10509POPC   C3A69593   0.473   5.888   7.053
10509POPC   C4A69594   0.477   5.825   7.353
10509POPC   C1B69595   0.428   5.580   6.453
10509POPC   C2B69596   0.518   5.592   6.753
10509POPC   C3B69597   0.496   5.571   7.053
10509POPC   C4B69598   0.430   5.618   7.353
10510POPC   NC369599   5.127   4.271   5.553
10510POPC   PO469600   5.116   4.313   5.853
10510POPC   GL169601   5.142   4.318   6.153
10510POPC   GL269602   5.249   4.373   6.153
10510POPC   C1A69603   5.055   4.337   6.453
10510POPC   D2A69604   5.133   4.334   6.753
10510POPC   C3A69605   5.121   4.347   7.053
10510POPC   C4A69606   5.132   4.349   7.353
10510POPC   C1B69607   5.290   4.417   6.453
10510POPC   C2B69608   5.325   4.379   6.753
10510POPC   C3B69609   5.369   4.373   7.053
10510POPC   C4B69610   5.318   4.390   7.353
10511POPC   NC369611  25.232  37.632   5.553
10511POPC   PO469612  25.217  37.680   5.853
10511POPC   GL169613  25.232  37.697   6.153
10511POPC   GL269614  25.381  37.601   6.153
10511POPC   C1A69615  25.219  37.637   6.453
10511POPC   D2A69616  25.242  37.667   6.753
10511POPC   C3A69617  25.252  37.691   7.053
10511POPC   C4A69618  25.303  37.698   7.353
10511POPC   C1B69619  25.428  37.556   6.453
10511POPC   C2B69620  25.408  37.506   6.753
10511POPC   C3B69621  25.406  37.479   7.053
10511POPC   C4B69622  25.455  37.494   7.353
10512POPC   NC369623  29.875  22.204   5.553
10512POPC   PO469624  29.887  22.176   5.853
10512POPC   GL169625  29.890  22.177   6.153
10512POPC   GL269626  29.953  22.313   6.153
10512POPC   C1A69627  29.965  22.120   6.453
10512POPC   D2A69628  29.902  22.157   6.753
10512POPC   C3A69629  29.905  22.130   7.053
10512POPC   C4A69630  29.903  22.180   7.353
10512POPC   C1B69631  30.026  22.436   6.453
10512POPC   C2B69632  30.002  22.368   6.753
10512POPC   C3B69633  30.005  22.396   7.053
10512POPC   C4B69634  29.991  22.367   7.353
10513POPC   NC369635  15.147  19.805   5.553
10513POPC   PO469636  15.131  19.875   5.853
10513POPC   GL169637  15.137  19.801   6.153
10513POPC   GL269638  15.130  19.937   6.153
10513POPC   C1A69639  15.179  19.816   6.453
10513POPC   D2A69640  15.201  19.841   6.753
10513POPC   C3A69641  15.171  19.874   7.053
10513POPC   C4A69642  15.162  19.832   7.353
10513POPC   C1B69643  15.063  20.061   6.453
10513POPC   C2B69644  15.066  20.053   6.753
10513POPC   C3B69645  15.089  20.067   7.053
10513POPC   C4B69646  15.051  20.007   7.353
10514POPC   NC369647  44.663  21.405   5.553
10514POPC   PO469648  44.697  21.361   5.853
10514POPC   GL169649  44.649  21.370   6.153
10514POPC   GL269650  44.585  21.504   6.153
10514POPC   C1A69651  44.646  21.344   6.453
10514POPC   D2A69652  44.644  21.348   6.753
10514POPC   C3A69653  44.623  21.428   7.053
10514POPC   C4A69654  44.639  21.357   7.353
10514POPC   C1B69655  44.433  21.534   6.453
10514POPC   C2B69656  44.452  21.537   6.753
10514POPC   C3B69657  44.526  21.598   7.053
10514POPC   C4B69658  44.501  21.590   7.353
10515POPC   NC369659   8.239  10.493   5.553
10515POPC   PO469660   8.193  10.521   5.853
10515POPC   GL169661   8.215  10.573   6.153
10515POPC   GL269662   8.317  10.414   6.153
10515POPC   C1A69663   8.157  10.563   6.453
10515POPC   D2A69664   8.214  10.505   6.753
10515POPC   C3A69665   8.246  10.479   7.053
10515POPC   C4A69666   8.182  10.501   7.353
10515POPC   C1B69667   8.445  10.389   6.453
10515POPC   C2B69668   8.379  10.382   6.753
10515POPC   C3B69669   8.383  10.379   7.053
10515POPC   C4B69670   8.428  10.402   7.353
10516POPC   NC369671  19.013  16.702   5.553
10516POPC   PO469672  19.082  16.703   5.853
10516POPC   GL169673  19.108  16.703   6.153
10516POPC   GL269674  19.194  16.706   6.153
10516POPC   C1A69675  19.035  16.722   6.453
10516POPC   D2A69676  19.093  16.770   6.753
10516POPC   C3A69677  19.069  16.698   7.053
10516POPC   C4A69678  19.050  16.720   7.353
10516POPC   C1B69679  19.335  16.618   6.453
10516POPC   C2B69680  19.346  16.701   6.753
10516POPC   C3B69681  19.340  16.675   7.053
10516POPC   C4B69682  19.276  16.638   7.353
10517POPC   NC369683  14.407  33.000   5.553
10517POPC   PO469684  14.433  32.985   5.853
10517POPC   GL169685  14.434  32.986   6.153
10517POPC   GL269686  14.442  32.946   6.153
10517POPC   C1A69687  14.401  32.983   6.453
10517POPC   D2A69688  14.420  32.995   6.753
10517POPC   C3A69689  14.424  33.013   7.053
10517POPC   C4A69690  14.412  33.062   7.353
10517POPC   C1B69691  14.380  32.760   6.453
10517POPC   C2B69692  14.441  32.817   6.753
10517POPC   C3B69693  14.426  32.771   7.053
10517POPC   C4B69694  14.437  32.756   7.353
10518POPC   NC369695   9.790  26.085   5.553
10518POPC   PO469696   9.754  26.047   5.853
10518POPC   GL169697   9.750  26.064   6.153
10518POPC   GL269698   9.639  25.910   6.153
10518POPC   C1A69699   9.719  26.038   6.453
10518POPC   D2A69700   9.782  26.074   6.753
10518POPC   C3A69701   9.738  26.041   7.053
10518POPC   C4A69702   9.755  26.057   7.353
10518POPC   C1B69703   9.553  25.833   6.453
10518POPC   C2B69704   9.579  25.828   6.753
10518POPC   C3B69705   9.590  25.923   7.053
10518POPC   C4B69706   9.610  25.921   7.353
10519POPC   NC369707   8.193  38.462   5.553
10519POPC   PO469708   8.195  38.448   5.853
10519POPC   GL169709   8.213  38.471   6.153
10519POPC   GL269710   8.197  38.363   6.153
10519POPC   C1A69711   8.206  38.410   6.453
10519POPC   D2A69712   8.227  38.473   6.753
10519POPC   C3A69713   8.224  38.422   7.053
10519POPC   C4A69714   8.209  38.422   7.353
10519POPC   C1B69715   8.105  38.248   6.453
10519POPC   C2B69716   8.101  38.239   6.753
10519POPC   C3B69717   8.114  38.185   7.053
10519POPC   C4B69718   8.147  38.185   7.353
10520POPC   NC369719  35.394  26.063   5.553
10520POPC   PO469720  35.366  26.075   5.853
10520POPC   GL169721  35.393  26.007   6.153
10520POPC   GL269722  35.281  25.911   6.153
10520POPC   C1A69723  35.374  26.080   6.453
10520POPC   D2A69724  35.345  26.061   6.753
10520POPC   C3A69725  35.308  26.068   7.053
10520POPC   C4A69726  35.366  26.071   7.353
10520POPC   C1B69727  35.251  25.853   6.453
10520POPC   C2B69728  35.296  25.782   6.753
10520POPC   C3B69729  35.273  25.818   7.053
10520POPC   C4B69730  35.290  25.772   7.353
10521POPC   NC369731  44.618   1.973   5.553
10521POPC   PO469732  44.663   2.019   5.853
10521POPC   GL169733  44.679   1.967   6.153
10521POPC   GL269734  44.684   1.889   6.153
10521POPC   C1A69735  44.696   2.009   6.453
10521POPC   D2A69736  44.655   1.999   6.753
10521POPC   C3A69737  44.674   1.945   7.053
10521POPC   C4A69738  44.682   2.004   7.353
10521POPC   C1B69739  44.653   1.694   6.453
10521POPC   C2B69740  44.648   1.762   6.753
10521POPC   C3B69741  44.699   1.771   7.053
10521POPC   C4B69742  44.708   1.787   7.353
10522POPC   NC369743  29.910  33.065   5.553
10522POPC   PO469744  29.946  33.047   5.853
10522POPC   GL169745  29.877  33.017   6.153
10522POPC   GL269746  30.014  32.997   6.153
10522POPC   C1A69747  29.921  33.025   6.453
10522POPC   D2A69748  29.949  33.006   6.753
10522POPC   C3A69749  29.924  33.041   7.053
10522POPC   C4A69750  29.963  33.050   7.353
10522POPC   C1B69751  30.184  32.914   6.453
10522POPC   C2B69752  30.196  32.929   6.753
10522POPC   C3B69753  30.170  32.934   7.053
10522POPC   C4B69754  30.183  32.956   7.353
10523POPC   NC369755  33.843  20.642   5.553
10523POPC   PO469756  33.814  20.627   5.853
10523POPC   GL169757  33.824  20.648   6.153
10523POPC   GL269758  33.730  20.567   6.153
10523POPC   C1A69759  33.787  20.609   6.453
10523POPC   D2A69760  33.809  20.616   6.753
10523POPC   C3A69761  33.806  20.592   7.053
10523POPC   C4A69762  33.833  20.610   7.353
10523POPC   C1B69763  33.591  20.508   6.453
10523POPC   C2B69764  33.529  20.529   6.753
10523POPC   C3B69765  33.611  20.462   7.053
10523POPC   C4B69766  33.603  20.496   7.353
10524POPC   NC369767   8.221  19.803   5.553
10524POPC   PO469768   8.178  19.845   5.853
10524POPC   GL169769   8.215  19.832   6.153
10524POPC   GL269770   8.163  19.977   6.153
10524POPC   C1A69771   8.224  19.798   6.453
10524POPC   D2A69772   8.191  19.799   6.753
10524POPC   C3A69773   8.243  19.865   7.053
10524POPC   C4A69774   8.191  19.877   7.353
10524POPC   C1B69775   8.209  20.078   6.453
10524POPC   C2B69776   8.145  20.078   6.753
10524POPC   C3B69777   8.159  20.108   7.053
10524POPC   C4B69778   8.170  20.067   7.353
10525POPC   NC369779  38.407  15.991   5.553
10525POPC   PO469780  38.426  15.979   5.853
10525POPC   GL169781  38.487  15.955   6.153
10525POPC   GL269782  38.442  16.061   6.153
10525POPC   C1A69783  38.431  15.919   6.453
10525POPC   D2A69784  38.494  15.941   6.753
10525POPC   C3A69785  38.448  15.953   7.053
10525POPC   C4A69786  38.463  15.997   7.353
10525POPC   C1B69787  38.448  16.219   6.453
10525POPC   C2B69788  38.356  16.153   6.753
10525POPC   C3B69789  38.371  16.172   7.053
10525POPC   C4B69790  38.358  16.221   7.353
10526POPC   NC369791  12.893  43.116   5.553
10526POPC   PO469792  12.854  43.072   5.853
10526POPC   GL169793  12.856  43.070   6.153
10526POPC   GL269794  12.843  43.029   6.153
10526POPC   C1A69795  12.803  43.103   6.453
10526POPC   D2A69796  12.819  43.147   6.753
10526POPC   C3A69797  12.810  43.104   7.053
10526POPC   C4A69798  12.882  43.074   7.353
10526POPC   C1B69799  12.846  42.905   6.453
10526POPC   C2B69800  12.834  42.849   6.753
10526POPC   C3B69801  12.843  42.864   7.053
10526POPC   C4B69802  12.836  42.826   7.353
10527POPC   NC369803  22.189   6.682   5.553
10527POPC   PO469804  22.136   6.657   5.853
10527POPC   GL169805  22.161   6.602   6.153
10527POPC   GL269806  22.091   6.523   6.153
10527POPC   C1A69807  22.183   6.619   6.453
10527POPC   D2A69808  22.183   6.652   6.753
10527POPC   C3A69809  22.182   6.614   7.053
10527POPC   C4A69810  22.181   6.672   7.353
10527POPC   C1B69811  22.093   6.441   6.453
10527POPC   C2B69812  22.087   6.462   6.753
10527POPC   C3B69813  22.056   6.382   7.053
10527POPC   C4B69814  22.095   6.396   7.353
10528POPC   NC369815  19.068  18.237   5.553
10528POPC   PO469816  19.057  18.311   5.853
10528POPC   GL169817  19.058  18.248   6.153
10528POPC   GL269818  19.131  18.421   6.153
10528POPC   C1A69819  19.011  18.284   6.453
10528POPC   D2A69820  19.033  18.264   6.753
10528POPC   C3A69821  19.095  18.261   7.053
10528POPC   C4A69822  19.098  18.301   7.353
10528POPC   C1B69823  19.138  18.483   6.453
10528POPC   C2B69824  19.061  18.504   6.753
10528POPC   C3B69825  19.076  18.500   7.053
10528POPC   C4B69826  19.108  18.545   7.353
10529POPC   NC369827  44.651  35.352   5.553
10529POPC   PO469828  44.636  35.396   5.853
10529POPC   GL169829  44.673  35.311   6.153
10529POPC   GL269830  44.561  35.386   6.153
10529POPC   C1A69831  44.680  35.356   6.453
10529POPC   D2A69832  44.635  35.344   6.753
10529POPC   C3A69833  44.653  35.399   7.053
10529POPC   C4A69834  44.639  35.352   7.353
10529POPC   C1B69835  44.433  35.546   6.453
10529POPC   C2B69836  44.497  35.495   6.753
10529POPC   C3B69837  44.468  35.497   7.053
10529POPC   C4B69838  44.457  35.510   7.353
10530POPC   NC369839  31.448  16.749   5.553
10530POPC   PO469840  31.507  16.745   5.853
10530POPC   GL169841  31.489  16.764   6.153
10530POPC   GL269842  31.403  16.853   6.153
10530POPC   C1A69843  31.462  16.719   6.453
10530POPC   D2A69844  31.467  16.685   6.753
10530POPC   C3A69845  31.454  16.713   7.053
10530POPC   C4A69846  31.507  16.771   7.353
10530POPC   C1B69847  31.302  16.919   6.453
10530POPC   C2B69848  31.339  16.947   6.753
10530POPC   C3B69849  31.367  16.924   7.053
10530POPC   C4B69850  31.300  16.909   7.353
10531POPC   NC369851  22.975  11.274   5.553
10531POPC   PO469852  22.928  11.313   5.853
10531POPC   GL169853  22.900  11.325   6.153
10531POPC   GL269854  22.953  11.183   6.153
10531POPC   C1A69855  22.932  11.264   6.453
10531POPC   D2A69856  22.894  11.258   6.753
10531POPC   C3A69857  22.963  11.341   7.053
10531POPC   C4A69858  22.935  11.323   7.353
10531POPC   C1B69859  22.978  11.059   6.453
10531POPC   C2B69860  23.023  11.102   6.753
10531POPC   C3B69861  22.942  11.061   7.053
10531POPC   C4B69862  23.010  11.067   7.353
10532POPC   NC369863  42.310  20.623   5.553
10532POPC   PO469864  42.299  20.565   5.853
10532POPC   GL169865  42.321  20.583   6.153
10532POPC   GL269866  42.505  20.666   6.153
10532POPC   C1A69867  42.354  20.620   6.453
10532POPC   D2A69868  42.371  20.572   6.753
10532POPC   C3A69869  42.383  20.646   7.053
10532POPC   C4A69870  42.307  20.614   7.353
10532POPC   C1B69871  42.595  20.612   6.453
10532POPC   C2B69872  42.583  20.653   6.753
10532POPC   C3B69873  42.617  20.613   7.053
10532POPC   C4B69874  42.601  20.666   7.353
10533POPC   NC369875  26.791  33.795   5.553
10533POPC   PO469876  26.831  33.765   5.853
10533POPC   GL169877  26.826  33.826   6.153
10533POPC   GL269878  26.727  33.708   6.153
10533POPC   C1A69879  26.861  33.793   6.453
10533POPC   D2A69880  26.768  33.783   6.753
10533POPC   C3A69881  26.825  33.751   7.053
10533POPC   C4A69882  26.803  33.782   7.353
10533POPC   C1B69883  26.741  33.582   6.453
10533POPC   C2B69884  26.760  33.534   6.753
10533POPC   C3B69885  26.726  33.521   7.053
10533POPC   C4B69886  26.763  33.576   7.353
10534POPC   NC369887  32.223  40.746   5.553
10534POPC   PO469888  32.226  40.737   5.853
10534POPC   GL169889  32.272  40.751   6.153
10534POPC   GL269890  32.345  40.708   6.153
10534POPC   C1A69891  32.295  40.826   6.453
10534POPC   D2A69892  32.290  40.808   6.753
10534POPC   C3A69893  32.278  40.746   7.053
10534POPC   C4A69894  32.269  40.811   7.353
10534POPC   C1B69895  32.412  40.649   6.453
10534POPC   C2B69896  32.440  40.592   6.753
10534POPC   C3B69897  32.395  40.671   7.053
10534POPC   C4B69898  32.402  40.631   7.353
10535POPC   NC369899   1.211   5.841   5.553
10535POPC   PO469900   1.235   5.838   5.853
10535POPC   GL169901   1.258   5.907   6.153
10535POPC   GL269902   1.170   5.729   6.153
10535POPC   C1A69903   1.234   5.870   6.453
10535POPC   D2A69904   1.234   5.826   6.753
10535POPC   C3A69905   1.231   5.918   7.053
10535POPC   C4A69906   1.214   5.902   7.353
10535POPC   C1B69907   1.146   5.579   6.453
10535POPC   C2B69908   1.231   5.594   6.753
10535POPC   C3B69909   1.209   5.593   7.053
10535POPC   C4B69910   1.183   5.652   7.353
10536POPC   NC369911  30.708  26.020   5.553
10536POPC   PO469912  30.738  26.067   5.853
10536POPC   GL169913  30.672  25.992   6.153
10536POPC   GL269914  30.763  25.942   6.153
10536POPC   C1A69915  30.699  26.067   6.453
10536POPC   D2A69916  30.684  26.074   6.753
10536POPC   C3A69917  30.671  26.056   7.053
10536POPC   C4A69918  30.714  26.081   7.353
10536POPC   C1B69919  30.744  25.771   6.453
10536POPC   C2B69920  30.774  25.785   6.753
10536POPC   C3B69921  30.735  25.817   7.053
10536POPC   C4B69922  30.799  25.805   7.353
10537POPC   NC369923  28.404  14.358   5.553
10537POPC   PO469924  28.379  14.364   5.853
10537POPC   GL169925  28.369  14.377   6.153
10537POPC   GL269926  28.279  14.412   6.153
10537POPC   C1A69927  28.337  14.373   6.453
10537POPC   D2A69928  28.383  14.407   6.753
10537POPC   C3A69929  28.349  14.401   7.053
10537POPC   C4A69930  28.322  14.363   7.353
10537POPC   C1B69931  28.145  14.373   6.453
10537POPC   C2B69932  28.168  14.380   6.753
10537POPC   C3B69933  28.133  14.430   7.053
10537POPC   C4B69934  28.116  14.408   7.353
10538POPC   NC369935   9.732  28.361   5.553
10538POPC   PO469936   9.737  28.332   5.853
10538POPC   GL169937   9.790  28.378   6.153
10538POPC   GL269938   9.755  28.538   6.153
10538POPC   C1A69939   9.796  28.336   6.453
10538POPC   D2A69940   9.768  28.344   6.753
10538POPC   C3A69941   9.742  28.406   7.053
10538POPC   C4A69942   9.751  28.398   7.353
10538POPC   C1B69943   9.811  28.616   6.453
10538POPC   C2B69944   9.769  28.596   6.753
10538POPC   C3B69945   9.799  28.661   7.053
10538POPC   C4B69946   9.783  28.623   7.353
10539POPC   NC369947  40.799  25.994   5.553
10539POPC   PO469948  40.738  26.053   5.853
10539POPC   GL169949  40.752  26.017   6.153
10539POPC   GL269950  40.895  26.060   6.153
10539POPC   C1A69951  40.833  26.032   6.453
10539POPC   D2A69952  40.768  26.082   6.753
10539POPC   C3A69953  40.758  26.042   7.053
10539POPC   C4A69954  40.775  26.003   7.353
10539POPC   C1B69955  41.063  26.040   6.453
10539POPC   C2B69956  41.025  26.086   6.753
10539POPC   C3B69957  41.034  26.093   7.053
10539POPC   C4B69958  41.071  26.037   7.353
10540POPC   NC369959  36.890  19.846   5.553
10540POPC   PO469960  36.883  19.867   5.853
10540POPC   GL169961  36.871  19.824   6.153
10540POPC   GL269962  36.825  19.966   6.153
10540POPC   C1A69963  36.949  19.794   6.453
10540POPC   D2A69964  36.945  19.809   6.753
10540POPC   C3A69965  36.857  19.849   7.053
10540POPC   C4A69966  36.914  19.819   7.353
10540POPC   C1B69967  36.777  20.100   6.453
10540POPC   C2B69968  36.839  20.062   6.753
10540POPC   C3B69969  36.853  20.040   7.053
10540POPC   C4B69970  36.777  20.106   7.353
10541POPC   NC369971  29.950   0.457   5.553
10541POPC   PO469972  29.889   0.404   5.853
10541POPC   GL169973  29.907   0.437   6.153
10541POPC   GL269974  30.036   0.536   6.153
10541POPC   C1A69975  29.929   0.448   6.453
10541POPC   D2A69976  29.927   0.391   6.753
10541POPC   C3A69977  29.912   0.402   7.053
10541POPC   C4A69978  29.897   0.478   7.353
10541POPC   C1B69979  30.040   0.651   6.453
10541POPC   C2B69980  30.057   0.653   6.753
10541POPC   C3B69981  30.065   0.580   7.053
10541POPC   C4B69982  30.094   0.646   7.353
10542POPC   NC369983  39.278  26.786   5.553
10542POPC   PO469984  39.267  26.802   5.853
10542POPC   GL169985  39.259  26.804   6.153
10542POPC   GL269986  39.129  26.807   6.153
10542POPC   C1A69987  39.271  26.854   6.453
10542POPC   D2A69988  39.217  26.844   6.753
10542POPC   C3A69989  39.210  26.840   7.053
10542POPC   C4A69990  39.221  26.800   7.353
10542POPC   C1B69991  38.975  26.831   6.453
10542POPC   C2B69992  39.015  26.811   6.753
10542POPC   C3B69993  39.019  26.803   7.053
10542POPC   C4B69994  38.933  26.809   7.353
10543POPC   NC369995  12.816   4.338   5.553
10543POPC   PO469996  12.881   4.294   5.853
10543POPC   GL169997  12.887   4.337   6.153
10543POPC   GL269998  12.840   4.454   6.153
10543POPC   C1A69999  12.899   4.291   6.453
10543POPC   D2A70000  12.873   4.296   6.753
10543POPC   C3A70001  12.845   4.296   7.053
10543POPC   C4A70002  12.807   4.317   7.353
10543POPC   C1B70003  12.718   4.551   6.453
10543POPC   C2B70004  12.704   4.585   6.753
10543POPC   C3B70005  12.725   4.588   7.053
10543POPC   C4B70006  12.784   4.546   7.353
10544POPC   NC370007  27.622  41.579   5.553
10544POPC   PO470008  27.628  41.595   5.853
10544POPC   GL170009  27.577  41.583   6.153
10544POPC   GL270010  27.699  41.481   6.153
10544POPC   C1A70011  27.598  41.523   6.453
10544POPC   D2A70012  27.603  41.591   6.753
10544POPC   C3A70013  27.636  41.588   7.053
10544POPC   C4A70014  27.622  41.545   7.353
10544POPC   C1B70015  27.826  41.421   6.453
10544POPC   C2B70016  27.806  41.386   6.753
10544POPC   C3B70017  27.792  41.449   7.053
10544POPC   C4B70018  27.756  41.382   7.353
10545POPC   NC370019  20.601   5.066   5.553
10545POPC   PO470020  20.616   5.119   5.853
10545POPC   GL170021  20.642   5.106   6.153
10545POPC   GL270022  20.649   5.182   6.153
10545POPC   C1A70023  20.599   5.064   6.453
10545POPC   D2A70024  20.626   5.106   6.753
10545POPC   C3A70025  20.627   5.139   7.053
10545POPC   C4A70026  20.595   5.132   7.353
10545POPC   C1B70027  20.735   5.291   6.453
10545POPC   C2B70028  20.738   5.344   6.753
10545POPC   C3B70029  20.724   5.289   7.053
10545POPC   C4B70030  20.754   5.276   7.353
10546POPC   NC370031  33.009  27.560   5.553
10546POPC   PO470032  32.979  27.629   5.853
10546POPC   GL170033  33.038  27.608   6.153
10546POPC   GL270034  33.110  27.673   6.153
10546POPC   C1A70035  33.010  27.572   6.453
10546POPC   D2A70036  33.055  27.630   6.753
10546POPC   C3A70037  32.984  27.623   7.053
10546POPC   C4A70038  33.045  27.590   7.353
10546POPC   C1B70039  33.273  27.686   6.453
10546POPC   C2B70040  33.251  27.737   6.753
10546POPC   C3B70041  33.235  27.774   7.053
10546POPC   C4B70042  33.252  27.760   7.353
10547POPC   NC370043  29.918  12.114   5.553
10547POPC   PO470044  29.953  12.072   5.853
10547POPC   GL170045  29.935  12.109   6.153
10547POPC   GL270046  30.066  11.998   6.153
10547POPC   C1A70047  29.963  12.090   6.453
10547POPC   D2A70048  29.906  12.064   6.753
10547POPC   C3A70049  29.920  12.072   7.053
10547POPC   C4A70050  29.960  12.062   7.353
10547POPC   C1B70051  30.128  11.927   6.453
10547POPC   C2B70052  30.174  11.927   6.753
10547POPC   C3B70053  30.093  11.904   7.053
10547POPC   C4B70054  30.149  11.911   7.353
10548POPC   NC370055  29.884  26.851   5.553
10548POPC   PO470056  29.920  26.813   5.853
10548POPC   GL170057  29.892  26.787   6.153
10548POPC   GL270058  30.040  26.813   6.153
10548POPC   C1A70059  29.958  26.797   6.453
10548POPC   D2A70060  29.962  26.816   6.753
10548POPC   C3A70061  29.947  26.799   7.053
10548POPC   C4A70062  29.880  26.802   7.353
10548POPC   C1B70063  30.128  26.842   6.453
10548POPC   C2B70064  30.190  26.784   6.753
10548POPC   C3B70065  30.129  26.860   7.053
10548POPC   C4B70066  30.154  26.815   7.353
10549POPC   NC370067   1.183  17.555   5.553
10549POPC   PO470068   1.214  17.462   5.853
10549POPC   GL170069   1.171  17.514   6.153
10549POPC   GL270070   1.120  17.409   6.153
10549POPC   C1A70071   1.189  17.475   6.453
10549POPC   D2A70072   1.175  17.539   6.753
10549POPC   C3A70073   1.244  17.498   7.053
10549POPC   C4A70074   1.214  17.462   7.353
10549POPC   C1B70075   1.128  17.309   6.453
10549POPC   C2B70076   1.100  17.297   6.753
10549POPC   C3B70077   1.149  17.261   7.053
10549POPC   C4B70078   1.160  17.275   7.353
10550POPC   NC370079   1.989  33.007   5.553
10550POPC   PO470080   2.016  32.991   5.853
10550POPC   GL170081   2.007  33.025   6.153
10550POPC   GL270082   2.115  33.034   6.153
10550POPC   C1A70083   1.972  33.037   6.453
10550POPC   D2A70084   2.016  33.003   6.753
10550POPC   C3A70085   2.029  32.979   7.053
10550POPC   C4A70086   2.016  33.070   7.353
10550POPC   C1B70087   2.261  32.920   6.453
10550POPC   C2B70088   2.202  32.991   6.753
10550POPC   C3B70089   2.194  32.946   7.053
10550POPC   C4B70090   2.266  32.988   7.353
10551POPC   NC370091  20.576  19.036   5.553
10551POPC   PO470092  20.627  19.071   5.853
10551POPC   GL170093  20.615  19.089   6.153
10551POPC   GL270094  20.510  19.064   6.153
10551POPC   C1A70095  20.615  19.011   6.453
10551POPC   D2A70096  20.600  19.060   6.753
10551POPC   C3A70097  20.621  19.035   7.053
10551POPC   C4A70098  20.647  19.071   7.353
10551POPC   C1B70099  20.338  19.023   6.453
10551POPC   C2B70100  20.376  19.038   6.753
10551POPC   C3B70101  20.382  19.064   7.053
10551POPC   C4B70102  20.360  19.043   7.353
10552POPC   NC370103  44.649  33.802   5.553
10552POPC   PO470104  44.711  33.765   5.853
10552POPC   GL170105  44.678  33.762   6.153
10552POPC   GL270106  44.762  33.860   6.153
10552POPC   C1A70107  44.693  33.846   6.453
10552POPC   D2A70108  44.706  33.779   6.753
10552POPC   C3A70109  44.694  33.751   7.053
10552POPC   C4A70110  44.686  33.828   7.353
10552POPC   C1B70111  44.886  33.826   6.453
10552POPC   C2B70112  44.942  33.787   6.753
10552POPC   C3B70113  44.883  33.870   7.053
10552POPC   C4B70114  44.919  33.804   7.353
10553POPC   NC370115   4.275   5.857   5.553
10553POPC   PO470116   4.366   5.882   5.853
10553POPC   GL170117   4.289   5.889   6.153
10553POPC   GL270118   4.257   5.985   6.153
10553POPC   C1A70119   4.268   5.889   6.453
10553POPC   D2A70120   4.316   5.917   6.753
10553POPC   C3A70121   4.303   5.884   7.053
10553POPC   C4A70122   4.321   5.890   7.353
10553POPC   C1B70123   4.181   6.110   6.453
10553POPC   C2B70124   4.243   6.056   6.753
10553POPC   C3B70125   4.169   6.077   7.053
10553POPC   C4B70126   4.215   6.044   7.353
10554POPC   NC370127   7.380  12.063   5.553
10554POPC   PO470128   7.419  12.062   5.853
10554POPC   GL170129   7.413  12.116   6.153
10554POPC   GL270130   7.361  12.052   6.153
10554POPC   C1A70131   7.395  12.067   6.453
10554POPC   D2A70132   7.401  12.030   6.753
10554POPC   C3A70133   7.423  12.081   7.053
10554POPC   C4A70134   7.430  12.070   7.353
10554POPC   C1B70135   7.213  11.982   6.453
10554POPC   C2B70136   7.172  11.962   6.753
10554POPC   C3B70137   7.179  11.952   7.053
10554POPC   C4B70138   7.165  11.928   7.353
10555POPC   NC370139  36.903   1.983   5.553
10555POPC   PO470140  36.857   2.009   5.853
10555POPC   GL170141  36.897   1.996   6.153
10555POPC   GL270142  36.801   1.931   6.153
10555POPC   C1A70143  36.933   1.986   6.453
10555POPC   D2A70144  36.863   1.969   6.753
10555POPC   C3A70145  36.891   2.001   7.053
10555POPC   C4A70146  36.911   1.957   7.353
10555POPC   C1B70147  36.729   1.813   6.453
10555POPC   C2B70148  36.668   1.828   6.753
10555POPC   C3B70149  36.660   1.833   7.053
10555POPC   C4B70150  36.694   1.821   7.353
10556POPC   NC370151  37.703  23.728   5.553
10556POPC   PO470152  37.712  23.732   5.853
10556POPC   GL170153  37.637  23.673   6.153
10556POPC   GL270154  37.752  23.720   6.153
10556POPC   C1A70155  37.702  23.727   6.453
10556POPC   D2A70156  37.673  23.730   6.753
10556POPC   C3A70157  37.649  23.670   7.053
10556POPC   C4A70158  37.669  23.718   7.353
10556POPC   C1B70159  37.899  23.586   6.453
10556POPC   C2B70160  37.955  23.610   6.753
10556POPC   C3B70161  37.921  23.643   7.053
10556POPC   C4B70162  37.897  23.664   7.353
10557POPC   NC370163   7.402  25.306   5.553
10557POPC   PO470164   7.423  25.229   5.853
10557POPC   GL170165   7.375  25.284   6.153
10557POPC   GL270166   7.394  25.399   6.153
10557POPC   C1A70167   7.421  25.280   6.453
10557POPC   D2A70168   7.402  25.242   6.753
10557POPC   C3A70169   7.413  25.263   7.053
10557POPC   C4A70170   7.467  25.254   7.353
10557POPC   C1B70171   7.465  25.478   6.453
10557POPC   C2B70172   7.443  25.487   6.753
10557POPC   C3B70173   7.400  25.526   7.053
10557POPC   C4B70174   7.407  25.493   7.353
10558POPC   NC370175  38.410  17.522   5.553
10558POPC   PO470176  38.443  17.537   5.853
10558POPC   GL170177  38.480  17.463   6.153
10558POPC   GL270178  38.372  17.485   6.153
10558POPC   C1A70179  38.496  17.549   6.453
10558POPC   D2A70180  38.496  17.473   6.753
10558POPC   C3A70181  38.454  17.543   7.053
10558POPC   C4A70182  38.421  17.499   7.353
10558POPC   C1B70183  38.240  17.559   6.453
10558POPC   C2B70184  38.245  17.548   6.753
10558POPC   C3B70185  38.187  17.561   7.053
10558POPC   C4B70186  38.244  17.523   7.353
10559POPC   NC370187  12.858  36.100   5.553
10559POPC   PO470188  12.816  36.173   5.853
10559POPC   GL170189  12.827  36.164   6.153
10559POPC   GL270190  13.022  36.141   6.153
10559POPC   C1A70191  12.813  36.105   6.453
10559POPC   D2A70192  12.894  36.112   6.753
10559POPC   C3A70193  12.861  36.078   7.053
10559POPC   C4A70194  12.866  36.125   7.353
10559POPC   C1B70195  13.083  36.094   6.453
10559POPC   C2B70196  13.121  36.129   6.753
10559POPC   C3B70197  13.122  36.080   7.053
10559POPC   C4B70198  13.128  36.086   7.353
10560POPC   NC370199  43.894  22.121   5.553
10560POPC   PO470200  43.926  22.152   5.853
10560POPC   GL170201  43.856  22.179   6.153
10560POPC   GL270202  43.740  22.120   6.153
10560POPC   C1A70203  43.861  22.142   6.453
10560POPC   D2A70204  43.915  22.194   6.753
10560POPC   C3A70205  43.896  22.179   7.053
10560POPC   C4A70206  43.932  22.125   7.353
10560POPC   C1B70207  43.648  22.020   6.453
10560POPC   C2B70208  43.674  22.029   6.753
10560POPC   C3B70209  43.715  21.989   7.053
10560POPC   C4B70210  43.709  21.992   7.353
10561POPC   NC370211   5.135  36.952   5.553
10561POPC   PO470212   5.096  36.927   5.853
10561POPC   GL170213   5.105  36.898   6.153
10561POPC   GL270214   5.045  36.760   6.153
10561POPC   C1A70215   5.058  36.862   6.453
10561POPC   D2A70216   5.075  36.906   6.753
10561POPC   C3A70217   5.108  36.862   7.053
10561POPC   C4A70218   5.090  36.900   7.353
10561POPC   C1B70219   4.985  36.694   6.453
10561POPC   C2B70220   4.989  36.649   6.753
10561POPC   C3B70221   4.987  36.739   7.053
10561POPC   C4B70222   4.956  36.659   7.353
10562POPC   NC370223  27.635   1.240   5.553
10562POPC   PO470224  27.587   1.198   5.853
10562POPC   GL170225  27.561   1.234   6.153
10562POPC   GL270226  27.586   1.042   6.153
10562POPC   C1A70227  27.618   1.207   6.453
10562POPC   D2A70228  27.613   1.210   6.753
10562POPC   C3A70229  27.584   1.208   7.053
10562POPC   C4A70230  27.610   1.238   7.353
10562POPC   C1B70231  27.578   0.930   6.453
10562POPC   C2B70232  27.632   0.935   6.753
10562POPC   C3B70233  27.595   0.992   7.053
10562POPC   C4B70234  27.557   1.004   7.353
10563POPC   NC370235  19.819  21.352   5.553
10563POPC   PO470236  19.825  21.401   5.853
10563POPC   GL170237  19.824  21.361   6.153
10563POPC   GL270238  19.938  21.378   6.153
10563POPC   C1A70239  19.829  21.420   6.453
10563POPC   D2A70240  19.798  21.366   6.753
10563POPC   C3A70241  19.872  21.357   7.053
10563POPC   C4A70242  19.852  21.381   7.353
10563POPC   C1B70243  20.090  21.418   6.453
10563POPC   C2B70244  20.046  21.377   6.753
10563POPC   C3B70245  20.123  21.428   7.053
10563POPC   C4B70246  20.042  21.442   7.353
10564POPC   NC370247  19.090  29.932   5.553
10564POPC   PO470248  19.044  29.943   5.853
10564POPC   GL170249  19.036  29.895   6.153
10564POPC   GL270250  19.103  29.843   6.153
10564POPC   C1A70251  19.108  29.936   6.453
10564POPC   D2A70252  19.108  29.910   6.753
10564POPC   C3A70253  19.094  29.952   7.053
10564POPC   C4A70254  19.080  29.968   7.353
10564POPC   C1B70255  19.146  29.717   6.453
10564POPC   C2B70256  19.116  29.701   6.753
10564POPC   C3B70257  19.112  29.638   7.053
10564POPC   C4B70258  19.130  29.720   7.353
10565POPC   NC370259  21.366  33.772   5.553
10565POPC   PO470260  21.418  33.824   5.853
10565POPC   GL170261  21.435  33.764   6.153
10565POPC   GL270262  21.476  33.706   6.153
10565POPC   C1A70263  21.383  33.758   6.453
10565POPC   D2A70264  21.400  33.789   6.753
10565POPC   C3A70265  21.434  33.754   7.053
10565POPC   C4A70266  21.412  33.789   7.353
10565POPC   C1B70267  21.527  33.613   6.453
10565POPC   C2B70268  21.542  33.589   6.753
10565POPC   C3B70269  21.530  33.564   7.053
10565POPC   C4B70270  21.564  33.603   7.353
10566POPC   NC370271  18.235   2.779   5.553
10566POPC   PO470272  18.300   2.716   5.853
10566POPC   GL170273  18.249   2.805   6.153
10566POPC   GL270274  18.288   2.625   6.153
10566POPC   C1A70275  18.331   2.750   6.453
10566POPC   D2A70276  18.293   2.752   6.753
10566POPC   C3A70277  18.280   2.797   7.053
10566POPC   C4A70278  18.273   2.773   7.353
10566POPC   C1B70279  18.304   2.546   6.453
10566POPC   C2B70280  18.260   2.532   6.753
10566POPC   C3B70281  18.269   2.528   7.053
10566POPC   C4B70282  18.296   2.483   7.353
10567POPC   NC370283  28.337  10.520   5.553
10567POPC   PO470284  28.343  10.562   5.853
10567POPC   GL170285  28.328  10.511   6.153
10567POPC   GL270286  28.479  10.648   6.153
10567POPC   C1A70287  28.413  10.514   6.453
10567POPC   D2A70288  28.328  10.529   6.753
10567POPC   C3A70289  28.406  10.513   7.053
10567POPC   C4A70290  28.393  10.519   7.353
10567POPC   C1B70291  28.586  10.730   6.453
10567POPC   C2B70292  28.555  10.717   6.753
10567POPC   C3B70293  28.549  10.660   7.053
10567POPC   C4B70294  28.529  10.719   7.353
10568POPC   NC370295  36.901  12.810   5.553
10568POPC   PO470296  36.863  12.825   5.853
10568POPC   GL170297  36.898  12.870   6.153
10568POPC   GL270298  37.017  12.819   6.153
10568POPC   C1A70299  36.898  12.884   6.453
10568POPC   D2A70300  36.886  12.821   6.753
10568POPC   C3A70301  36.923  12.820   7.053
10568POPC   C4A70302  36.881  12.850   7.353
10568POPC   C1B70303  37.139  12.748   6.453
10568POPC   C2B70304  37.100  12.703   6.753
10568POPC   C3B70305  37.077  12.714   7.053
10568POPC   C4B70306  37.076  12.751   7.353
10569POPC   NC370307  44.694   2.802   5.553
10569POPC   PO470308  44.686   2.730   5.853
10569POPC   GL170309  44.629   2.761   6.153
10569POPC   GL270310  44.740   2.698   6.153
10569POPC   C1A70311  44.643   2.768   6.453
10569POPC   D2A70312  44.618   2.782   6.753
10569POPC   C3A70313  44.635   2.746   7.053
10569POPC   C4A70314  44.665   2.771   7.353
10569POPC   C1B70315  44.885   2.649   6.453
10569POPC   C2B70316  44.865   2.688   6.753
10569POPC   C3B70317  44.852   2.675   7.053
10569POPC   C4B70318  44.879   2.640   7.353
10570POPC   NC370319  43.145  44.700   5.553
10570POPC   PO470320  43.141  44.690   5.853
10570POPC   GL170321  43.096  44.690   6.153
10570POPC   GL270322  43.127  44.490   6.153
10570POPC   C1A70323  43.093  44.663   6.453
10570POPC   D2A70324  43.157  44.637   6.753
10570POPC   C3A70325  43.113  44.636   7.053
10570POPC   C4A70326  43.152  44.644   7.353
10570POPC   C1B70327  43.152  44.419   6.453
10570POPC   C2B70328  43.076  44.392   6.753
10570POPC   C3B70329  43.075  44.419   7.053
10570POPC   C4B70330  43.081  44.459   7.353
10571POPC   NC370331  40.822   7.454   5.553
10571POPC   PO470332  40.748   7.444   5.853
10571POPC   GL170333  40.772   7.436   6.153
10571POPC   GL270334  40.822   7.346   6.153
10571POPC   C1A70335  40.780   7.398   6.453
10571POPC   D2A70336  40.789   7.412   6.753
10571POPC   C3A70337  40.792   7.373   7.053
10571POPC   C4A70338  40.744   7.435   7.353
10571POPC   C1B70339  40.907   7.169   6.453
10571POPC   C2B70340  40.902   7.248   6.753
10571POPC   C3B70341  40.930   7.200   7.053
10571POPC   C4B70342  40.870   7.185   7.353
10572POPC   NC370343  43.874  11.286   5.553
10572POPC   PO470344  43.927  11.289   5.853
10572POPC   GL170345  43.887  11.252   6.153
10572POPC   GL270346  43.948  11.170   6.153
10572POPC   C1A70347  43.877  11.263   6.453
10572POPC   D2A70348  43.909  11.265   6.753
10572POPC   C3A70349  43.888  11.288   7.053
10572POPC   C4A70350  43.931  11.342   7.353
10572POPC   C1B70351  43.893  11.047   6.453
10572POPC   C2B70352  43.903  11.064   6.753
10572POPC   C3B70353  43.928  11.091   7.053
10572POPC   C4B70354  43.919  11.007   7.353
10573POPC   NC370355   0.488  10.502   5.553
10573POPC   PO470356   0.454  10.573   5.853
10573POPC   GL170357   0.447  10.488   6.153
10573POPC   GL270358   0.335  10.588   6.153
10573POPC   C1A70359   0.487  10.508   6.453
10573POPC   D2A70360   0.401  10.493   6.753
10573POPC   C3A70361   0.459  10.490   7.053
10573POPC   C4A70362   0.409  10.521   7.353
10573POPC   C1B70363   0.235  10.653   6.453
10573POPC   C2B70364   0.200  10.652   6.753
10573POPC   C3B70365   0.190  10.624   7.053
10573POPC   C4B70366   0.179  10.682   7.353
10574POPC   NC370367  12.820  10.477   5.553
10574POPC   PO470368  12.848  10.536   5.853
10574POPC   GL170369  12.838  10.503   6.153
10574POPC   GL270370  12.939  10.506   6.153
10574POPC   C1A70371  12.873  10.550   6.453
10574POPC   D2A70372  12.825  10.490   6.753
10574POPC   C3A70373  12.819  10.504   7.053
10574POPC   C4A70374  12.864  10.520   7.353
10574POPC   C1B70375  13.119  10.424   6.453
10574POPC   C2B70376  13.037  10.381   6.753
10574POPC   C3B70377  13.059  10.373   7.053
10574POPC   C4B70378  13.101  10.357   7.353
10575POPC   NC370379  39.281  24.452   5.553
10575POPC   PO470380  39.241  24.499   5.853
10575POPC   GL170381  39.270  24.536   6.153
10575POPC   GL270382  39.122  24.413   6.153
10575POPC   C1A70383  39.223  24.471   6.453
10575POPC   D2A70384  39.182  24.532   6.753
10575POPC   C3A70385  39.188  24.473   7.053
10575POPC   C4A70386  39.275  24.466   7.353
10575POPC   C1B70387  39.040  24.281   6.453
10575POPC   C2B70388  39.039  24.347   6.753
10575POPC   C3B70389  39.047  24.294   7.053
10575POPC   C4B70390  39.022  24.332   7.353
10576POPC   NC370391  36.894  14.386   5.553
10576POPC   PO470392  36.903  14.367   5.853
10576POPC   GL170393  36.904  14.418   6.153
10576POPC   GL270394  36.794  14.336   6.153
10576POPC   C1A70395  36.862  14.422   6.453
10576POPC   D2A70396  36.878  14.428   6.753
10576POPC   C3A70397  36.939  14.373   7.053
10576POPC   C4A70398  36.857  14.445   7.353
10576POPC   C1B70399  36.696  14.314   6.453
10576POPC   C2B70400  36.666  14.276   6.753
10576POPC   C3B70401  36.704  14.315   7.053
10576POPC   C4B70402  36.668  14.303   7.353
10577POPC   NC370403  12.053  29.192   5.553
10577POPC   PO470404  12.069  29.145   5.853
10577POPC   GL170405  12.109  29.101   6.153
10577POPC   GL270406  11.961  29.218   6.153
10577POPC   C1A70407  12.028  29.159   6.453
10577POPC   D2A70408  12.070  29.167   6.753
10577POPC   C3A70409  12.079  29.176   7.053
10577POPC   C4A70410  12.113  29.102   7.353
10577POPC   C1B70411  11.927  29.337   6.453
10577POPC   C2B70412  11.912  29.267   6.753
10577POPC   C3B70413  11.873  29.285   7.053
10577POPC   C4B70414  11.926  29.345   7.353
10578POPC   NC370415  17.545  28.349   5.553
10578POPC   PO470416  17.460  28.324   5.853
10578POPC   GL170417  17.483  28.389   6.153
10578POPC   GL270418  17.545  28.490   6.153
10578POPC   C1A70419  17.514  28.418   6.453
10578POPC   D2A70420  17.469  28.409   6.753
10578POPC   C3A70421  17.522  28.332   7.053
10578POPC   C4A70422  17.532  28.408   7.353
10578POPC   C1B70423  17.605  28.562   6.453
10578POPC   C2B70424  17.620  28.587   6.753
10578POPC   C3B70425  17.667  28.586   7.053
10578POPC   C4B70426  17.655  28.579   7.353
10579POPC   NC370427  40.006   8.993   5.553
10579POPC   PO470428  40.027   8.974   5.853
10579POPC   GL170429  40.019   8.992   6.153
10579POPC   GL270430  39.869   8.933   6.153
10579POPC   C1A70431  39.985   8.980   6.453
10579POPC   D2A70432  40.022   8.953   6.753
10579POPC   C3A70433  40.001   9.008   7.053
10579POPC   C4A70434  39.960   8.957   7.353
10579POPC   C1B70435  39.766   8.916   6.453
10579POPC   C2B70436  39.788   8.847   6.753
10579POPC   C3B70437  39.767   8.854   7.053
10579POPC   C4B70438  39.748   8.860   7.353
10580POPC   NC370439  43.095  41.576   5.553
10580POPC   PO470440  43.113  41.608   5.853
10580POPC   GL170441  43.125  41.547   6.153
10580POPC   GL270442  43.059  41.510   6.153
10580POPC   C1A70443  43.160  41.557   6.453
10580POPC   D2A70444  43.159  41.583   6.753
10580POPC   C3A70445  43.123  41.520   7.053
10580POPC   C4A70446  43.064  41.563   7.353
10580POPC   C1B70447  42.943  41.348   6.453
10580POPC   C2B70448  42.953  41.339   6.753
10580POPC   C3B70449  42.970  41.378   7.053
10580POPC   C4B70450  42.910  41.372   7.353
10581POPC   NC370451   3.505  26.015   5.553
10581POPC   PO470452   3.584  26.013   5.853
10581POPC   GL170453   3.536  25.992   6.153
10581POPC   GL270454   3.595  25.884   6.153
10581POPC   C1A70455   3.551  26.017   6.453
10581POPC   D2A70456   3.569  26.067   6.753
10581POPC   C3A70457   3.518  26.044   7.053
10581POPC   C4A70458   3.583  26.085   7.353
10581POPC   C1B70459   3.579  25.803   6.453
10581POPC   C2B70460   3.641  25.789   6.753
10581POPC   C3B70461   3.623  25.754   7.053
10581POPC   C4B70462   3.571  25.829   7.353
10582POPC   NC370463  44.619  14.408   5.553
10582POPC   PO470464  44.640  14.406   5.853
10582POPC   GL170465  44.625  14.391   6.153
10582POPC   GL270466  44.609  14.277   6.153
10582POPC   C1A70467  44.661  14.447   6.453
10582POPC   D2A70468  44.670  14.364   6.753
10582POPC   C3A70469  44.699  14.420   7.053
10582POPC   C4A70470  44.627  14.425   7.353
10582POPC   C1B70471  44.625  14.185   6.453
10582POPC   C2B70472  44.617  14.199   6.753
10582POPC   C3B70473  44.654  14.109   7.053
10582POPC   C4B70474  44.617  14.161   7.353
10583POPC   NC370475  39.989  21.370   5.553
10583POPC   PO470476  39.972  21.393   5.853
10583POPC   GL170477  40.042  21.341   6.153
10583POPC   GL270478  40.106  21.325   6.153
10583POPC   C1A70479  40.024  21.428   6.453
10583POPC   D2A70480  40.052  21.339   6.753
10583POPC   C3A70481  40.048  21.363   7.053
10583POPC   C4A70482  39.981  21.427   7.353
10583POPC   C1B70483  40.136  21.198   6.453
10583POPC   C2B70484  40.158  21.151   6.753
10583POPC   C3B70485  40.184  21.169   7.053
10583POPC   C4B70486  40.154  21.184   7.353
10584POPC   NC370487   2.746  16.712   5.553
10584POPC   PO470488   2.787  16.748   5.853
10584POPC   GL170489   2.752  16.731   6.153
10584POPC   GL270490   2.837  16.682   6.153
10584POPC   C1A70491   2.757  16.699   6.453
10584POPC   D2A70492   2.753  16.756   6.753
10584POPC   C3A70493   2.755  16.741   7.053
10584POPC   C4A70494   2.768  16.705   7.353
10584POPC   C1B70495   2.969  16.680   6.453
10584POPC   C2B70496   3.020  16.657   6.753
10584POPC   C3B70497   3.034  16.656   7.053
10584POPC   C4B70498   2.967  16.663   7.353
10585POPC   NC370499  44.637   6.623   5.553
10585POPC   PO470500  44.697   6.630   5.853
10585POPC   GL170501  44.688   6.657   6.153
10585POPC   GL270502  44.612   6.816   6.153
10585POPC   C1A70503  44.711   6.618   6.453
10585POPC   D2A70504  44.652   6.626   6.753
10585POPC   C3A70505  44.689   6.671   7.053
10585POPC   C4A70506  44.650   6.660   7.353
10585POPC   C1B70507  44.653   6.881   6.453
10585POPC   C2B70508  44.582   6.860   6.753
10585POPC   C3B70509  44.578   6.875   7.053
10585POPC   C4B70510  44.585   6.903   7.353
10586POPC   NC370511  29.110  38.410   5.553
10586POPC   PO470512  29.107  38.444   5.853
10586POPC   GL170513  29.185  38.484   6.153
10586POPC   GL270514  29.160  38.369   6.153
10586POPC   C1A70515  29.102  38.485   6.453
10586POPC   D2A70516  29.114  38.462   6.753
10586POPC   C3A70517  29.098  38.424   7.053
10586POPC   C4A70518  29.120  38.460   7.353
10586POPC   C1B70519  29.304  38.234   6.453
10586POPC   C2B70520  29.269  38.260   6.753
10586POPC   C3B70521  29.224  38.250   7.053
10586POPC   C4B70522  29.218  38.246   7.353
10587POPC   NC370523  24.503   7.371   5.553
10587POPC   PO470524  24.481   7.378   5.853
10587POPC   GL170525  24.518   7.389   6.153
10587POPC   GL270526  24.556   7.455   6.153
10587POPC   C1A70527  24.484   7.401   6.453
10587POPC   D2A70528  24.539   7.391   6.753
10587POPC   C3A70529  24.490   7.461   7.053
10587POPC   C4A70530  24.534   7.449   7.353
10587POPC   C1B70531  24.737   7.506   6.453
10587POPC   C2B70532  24.738   7.489   6.753
10587POPC   C3B70533  24.727   7.561   7.053
10587POPC   C4B70534  24.665   7.567   7.353
10588POPC   NC370535  29.970   1.993   5.553
10588POPC   PO470536  29.885   2.022   5.853
10588POPC   GL170537  29.939   1.966   6.153
10588POPC   GL270538  29.870   2.102   6.153
10588POPC   C1A70539  29.933   2.015   6.453
10588POPC   D2A70540  29.963   2.005   6.753
10588POPC   C3A70541  29.942   1.989   7.053
10588POPC   C4A70542  29.935   1.962   7.353
10588POPC   C1B70543  29.806   2.265   6.453
10588POPC   C2B70544  29.860   2.175   6.753
10588POPC   C3B70545  29.860   2.181   7.053
10588POPC   C4B70546  29.790   2.209   7.353
10589POPC   NC370547   5.857   2.731   5.553
10589POPC   PO470548   5.890   2.727   5.853
10589POPC   GL170549   5.918   2.804   6.153
10589POPC   GL270550   6.022   2.724   6.153
10589POPC   C1A70551   5.885   2.772   6.453
10589POPC   D2A70552   5.830   2.748   6.753
10589POPC   C3A70553   5.847   2.814   7.053
10589POPC   C4A70554   5.861   2.760   7.353
10589POPC   C1B70555   6.123   2.740   6.453
10589POPC   C2B70556   6.107   2.770   6.753
10589POPC   C3B70557   6.085   2.717   7.053
10589POPC   C4B70558   6.100   2.749   7.353
10590POPC   NC370559   6.672  31.453   5.553
10590POPC   PO470560   6.672  31.509   5.853
10590POPC   GL170561   6.627  31.520   6.153
10590POPC   GL270562   6.478  31.514   6.153
10590POPC   C1A70563   6.610  31.522   6.453
10590POPC   D2A70564   6.638  31.479   6.753
10590POPC   C3A70565   6.643  31.475   7.053
10590POPC   C4A70566   6.663  31.424   7.353
10590POPC   C1B70567   6.441  31.491   6.453
10590POPC   C2B70568   6.361  31.481   6.753
10590POPC   C3B70569   6.412  31.512   7.053
10590POPC   C4B70570   6.396  31.456   7.353
10591POPC   NC370571  32.268  12.857   5.553
10591POPC   PO470572  32.271  12.869   5.853
10591POPC   GL170573  32.201  12.802   6.153
10591POPC   GL270574  32.217  12.976   6.153
10591POPC   C1A70575  32.266  12.878   6.453
10591POPC   D2A70576  32.235  12.829   6.753
10591POPC   C3A70577  32.284  12.802   7.053
10591POPC   C4A70578  32.226  12.884   7.353
10591POPC   C1B70579  32.198  13.126   6.453
10591POPC   C2B70580  32.177  13.129   6.753
10591POPC   C3B70581  32.172  13.061   7.053
10591POPC   C4B70582  32.207  13.132   7.353
10592POPC   NC370583  30.716  18.274   5.553
10592POPC   PO470584  30.651  18.273   5.853
10592POPC   GL170585  30.708  18.297   6.153
10592POPC   GL270586  30.592  18.346   6.153
10592POPC   C1A70587  30.654  18.279   6.453
10592POPC   D2A70588  30.726  18.285   6.753
10592POPC   C3A70589  30.678  18.249   7.053
10592POPC   C4A70590  30.658  18.277   7.353
10592POPC   C1B70591  30.439  18.309   6.453
10592POPC   C2B70592  30.433  18.353   6.753
10592POPC   C3B70593  30.431  18.356   7.053
10592POPC   C4B70594  30.402  18.317   7.353
10593POPC   NC370595   0.403   6.679   5.553
10593POPC   PO470596   0.410   6.644   5.853
10593POPC   GL170597   0.422   6.599   6.153
10593POPC   GL270598   0.452   6.510   6.153
10593POPC   C1A70599   0.390   6.622   6.453
10593POPC   D2A70600   0.398   6.601   6.753
10593POPC   C3A70601   0.441   6.657   7.053
10593POPC   C4A70602   0.416   6.607   7.353
10593POPC   C1B70603   0.370   6.351   6.453
10593POPC   C2B70604   0.380   6.440   6.753
10593POPC   C3B70605   0.417   6.358   7.053
10593POPC   C4B70606   0.384   6.446   7.353
10594POPC   NC370607  25.226  11.264   5.553
10594POPC   PO470608  25.313  11.344   5.853
10594POPC   GL170609  25.236  11.327   6.153
10594POPC   GL270610  25.213  11.424   6.153
10594POPC   C1A70611  25.315  11.278   6.453
10594POPC   D2A70612  25.304  11.267   6.753
10594POPC   C3A70613  25.258  11.278   7.053
10594POPC   C4A70614  25.221  11.325   7.353
10594POPC   C1B70615  25.172  11.512   6.453
10594POPC   C2B70616  25.262  11.582   6.753
10594POPC   C3B70617  25.198  11.551   7.053
10594POPC   C4B70618  25.228  11.576   7.353
10595POPC   NC370619  41.545  38.489   5.553
10595POPC   PO470620  41.606  38.435   5.853
10595POPC   GL170621  41.517  38.473   6.153
10595POPC   GL270622  41.701  38.539   6.153
10595POPC   C1A70623  41.556  38.477   6.453
10595POPC   D2A70624  41.525  38.454   6.753
10595POPC   C3A70625  41.577  38.480   7.053
10595POPC   C4A70626  41.595  38.410   7.353
10595POPC   C1B70627  41.805  38.564   6.453
10595POPC   C2B70628  41.821  38.615   6.753
10595POPC   C3B70629  41.811  38.630   7.053
10595POPC   C4B70630  41.793  38.602   7.353
10596POPC   NC370631  33.751  26.834   5.553
10596POPC   PO470632  33.751  26.773   5.853
10596POPC   GL170633  33.844  26.819   6.153
10596POPC   GL270634  33.774  26.943   6.153
10596POPC   C1A70635  33.791  26.803   6.453
10596POPC   D2A70636  33.799  26.804   6.753
10596POPC   C3A70637  33.831  26.840   7.053
10596POPC   C4A70638  33.788  26.817   7.353
10596POPC   C1B70639  33.737  27.039   6.453
10596POPC   C2B70640  33.706  27.060   6.753
10596POPC   C3B70641  33.792  27.103   7.053
10596POPC   C4B70642  33.715  27.061   7.353
10597POPC   NC370643   0.405  33.783   5.553
10597POPC   PO470644   0.470  33.825   5.853
10597POPC   GL170645   0.455  33.780   6.153
10597POPC   GL270646   0.508  33.728   6.153
10597POPC   C1A70647   0.399  33.831   6.453
10597POPC   D2A70648   0.430  33.824   6.753
10597POPC   C3A70649   0.454  33.792   7.053
10597POPC   C4A70650   0.456  33.771   7.353
10597POPC   C1B70651   0.477  33.535   6.453
10597POPC   C2B70652   0.511  33.574   6.753
10597POPC   C3B70653   0.485  33.553   7.053
10597POPC   C4B70654   0.505  33.608   7.353
10598POPC   NC370655   5.831  42.382   5.553
10598POPC   PO470656   5.897  42.315   5.853
10598POPC   GL170657   5.870  42.286   6.153
10598POPC   GL270658   5.911  42.484   6.153
10598POPC   C1A70659   5.901  42.293   6.453
10598POPC   D2A70660   5.901  42.347   6.753
10598POPC   C3A70661   5.843  42.375   7.053
10598POPC   C4A70662   5.852  42.362   7.353
10598POPC   C1B70663   5.862  42.594   6.453
10598POPC   C2B70664   5.941  42.629   6.753
10598POPC   C3B70665   5.875  42.624   7.053
10598POPC   C4B70666   5.859  42.534   7.353
10599POPC   NC370667  12.877  41.554   5.553
10599POPC   PO470668  12.883  41.546   5.853
10599POPC   GL170669  12.856  41.540   6.153
10599POPC   GL270670  12.810  41.474   6.153
10599POPC   C1A70671  12.889  41.570   6.453
10599POPC   D2A70672  12.822  41.604   6.753
10599POPC   C3A70673  12.817  41.599   7.053
10599POPC   C4A70674  12.890  41.516   7.353
10599POPC   C1B70675  12.817  41.358   6.453
10599POPC   C2B70676  12.767  41.274   6.753
10599POPC   C3B70677  12.739  41.310   7.053
10599POPC   C4B70678  12.780  41.282   7.353
10600POPC   NC370679  25.245  25.285   5.553
10600POPC   PO470680  25.227  25.279   5.853
10600POPC   GL170681  25.252  25.307   6.153
10600POPC   GL270682  25.362  25.235   6.153
10600POPC   C1A70683  25.302  25.313   6.453
10600POPC   D2A70684  25.306  25.233   6.753
10600POPC   C3A70685  25.238  25.280   7.053
10600POPC   C4A70686  25.231  25.253   7.353
10600POPC   C1B70687  25.555  25.286   6.453
10600POPC   C2B70688  25.557  25.292   6.753
10600POPC   C3B70689  25.529  25.295   7.053
10600POPC   C4B70690  25.498  25.249   7.353
10601POPC   NC370691  16.749   6.682   5.553
10601POPC   PO470692  16.703   6.681   5.853
10601POPC   GL170693  16.684   6.614   6.153
10601POPC   GL270694  16.676   6.776   6.153
10601POPC   C1A70695  16.759   6.655   6.453
10601POPC   D2A70696  16.730   6.638   6.753
10601POPC   C3A70697  16.743   6.675   7.053
10601POPC   C4A70698  16.746   6.663   7.353
10601POPC   C1B70699  16.567   6.882   6.453
10601POPC   C2B70700  16.625   6.884   6.753
10601POPC   C3B70701  16.571   6.901   7.053
10601POPC   C4B70702  16.660   6.879   7.353
10602POPC   NC370703  44.623  26.861   5.553
10602POPC   PO470704  44.649  26.847   5.853
10602POPC   GL170705  44.659  26.790   6.153
10602POPC   GL270706  44.509  26.822   6.153
10602POPC   C1A70707  44.627  26.775   6.453
10602POPC   D2A70708  44.627  26.865   6.753
10602POPC   C3A70709  44.671  26.783   7.053
10602POPC   C4A70710  44.648  26.771   7.353
10602POPC   C1B70711  44.373  26.776   6.453
10602POPC   C2B70712  44.436  26.781   6.753
10602POPC   C3B70713  44.425  26.775   7.053
10602POPC   C4B70714  44.364  26.792   7.353
10603POPC   NC370715   5.918  25.269   5.553
10603POPC   PO470716   5.829  25.230   5.853
10603POPC   GL170717   5.826  25.300   6.153
10603POPC   GL270718   5.918  25.197   6.153
10603POPC   C1A70719   5.899  25.235   6.453
10603POPC   D2A70720   5.839  25.310   6.753
10603POPC   C3A70721   5.868  25.237   7.053
10603POPC   C4A70722   5.881  25.300   7.353
10603POPC   C1B70723   6.042  25.120   6.453
10603POPC   C2B70724   6.003  25.034   6.753
10603POPC   C3B70725   6.051  25.033   7.053
10603POPC   C4B70726   6.074  25.099   7.353
10604POPC   NC370727  39.267  22.167   5.553
10604POPC   PO470728  39.198  22.168   5.853
10604POPC   GL170729  39.279  22.151   6.153
10604POPC   GL270730  39.143  22.142   6.153
10604POPC   C1A70731  39.204  22.194   6.453
10604POPC   D2A70732  39.275  22.146   6.753
10604POPC   C3A70733  39.185  22.116   7.053
10604POPC   C4A70734  39.182  22.179   7.353
10604POPC   C1B70735  38.985  22.038   6.453
10604POPC   C2B70736  38.957  22.063   6.753
10604POPC   C3B70737  39.029  22.057   7.053
10604POPC   C4B70738  39.035  22.077   7.353
10605POPC   NC370739  17.486  40.013   5.553
10605POPC   PO470740  17.530  40.047   5.853
10605POPC   GL170741  17.486  40.002   6.153
10605POPC   GL270742  17.572  39.926   6.153
10605POPC   C1A70743  17.508  39.961   6.453
10605POPC   D2A70744  17.490  40.052   6.753
10605POPC   C3A70745  17.499  39.990   7.053
10605POPC   C4A70746  17.515  40.010   7.353
10605POPC   C1B70747  17.660  39.752   6.453
10605POPC   C2B70748  17.652  39.767   6.753
10605POPC   C3B70749  17.672  39.761   7.053
10605POPC   C4B70750  17.632  39.826   7.353
10606POPC   NC370751  26.036  19.092   5.553
10606POPC   PO470752  26.054  19.077   5.853
10606POPC   GL170753  26.041  19.062   6.153
10606POPC   GL270754  25.964  19.089   6.153
10606POPC   C1A70755  26.032  19.034   6.453
10606POPC   D2A70756  26.050  19.043   6.753
10606POPC   C3A70757  26.046  19.077   7.053
10606POPC   C4A70758  26.024  19.029   7.353
10606POPC   C1B70759  25.744  19.072   6.453
10606POPC   C2B70760  25.755  19.049   6.753
10606POPC   C3B70761  25.809  19.049   7.053
10606POPC   C4B70762  25.762  19.083   7.353
10607POPC   NC370763  27.639  14.434   5.553
10607POPC   PO470764  27.621  14.375   5.853
10607POPC   GL170765  27.609  14.430   6.153
10607POPC   GL270766  27.668  14.541   6.153
10607POPC   C1A70767  27.596  14.373   6.453
10607POPC   D2A70768  27.619  14.369   6.753
10607POPC   C3A70769  27.628  14.372   7.053
10607POPC   C4A70770  27.572  14.419   7.353
10607POPC   C1B70771  27.708  14.655   6.453
10607POPC   C2B70772  27.679  14.661   6.753
10607POPC   C3B70773  27.730  14.649   7.053
10607POPC   C4B70774  27.676  14.637   7.353
10608POPC   NC370775  31.465  39.207   5.553
10608POPC   PO470776  31.425  39.261   5.853
10608POPC   GL170777  31.450  39.247   6.153
10608POPC   GL270778  31.337  39.278   6.153
10608POPC   C1A70779  31.488  39.243   6.453
10608POPC   D2A70780  31.423  39.255   6.753
10608POPC   C3A70781  31.463  39.268   7.053
10608POPC   C4A70782  31.509  39.197   7.353
10608POPC   C1B70783  31.347  39.391   6.453
10608POPC   C2B70784  31.322  39.436   6.753
10608POPC   C3B70785  31.313  39.433   7.053
10608POPC   C4B70786  31.286  39.452   7.353
10609POPC   NC370787   7.435  38.470   5.553
10609POPC   PO470788   7.435  38.496   5.853
10609POPC   GL170789   7.455  38.437   6.153
10609POPC   GL270790   7.527  38.603   6.153
10609POPC   C1A70791   7.396  38.423   6.453
10609POPC   D2A70792   7.396  38.432   6.753
10609POPC   C3A70793   7.441  38.464   7.053
10609POPC   C4A70794   7.416  38.434   7.353
10609POPC   C1B70795   7.545  38.722   6.453
10609POPC   C2B70796   7.541  38.631   6.753
10609POPC   C3B70797   7.546  38.645   7.053
10609POPC   C4B70798   7.512  38.709   7.353
10610POPC   NC370799  39.989  26.081   5.553
10610POPC   PO470800  40.034  26.052   5.853
10610POPC   GL170801  40.007  25.997   6.153
10610POPC   GL270802  40.119  26.032   6.153
10610POPC   C1A70803  40.005  26.045   6.453
10610POPC   D2A70804  40.018  26.001   6.753
10610POPC   C3A70805  39.998  26.059   7.053
10610POPC   C4A70806  40.027  26.023   7.353
10610POPC   C1B70807  40.265  26.071   6.453
10610POPC   C2B70808  40.226  26.062   6.753
10610POPC   C3B70809  40.249  26.110   7.053
10610POPC   C4B70810  40.232  26.112   7.353
10611POPC   NC370811   1.256  14.441   5.553
10611POPC   PO470812   1.183  14.416   5.853
10611POPC   GL170813   1.173  14.362   6.153
10611POPC   GL270814   1.136  14.402   6.153
10611POPC   C1A70815   1.250  14.399   6.453
10611POPC   D2A70816   1.256  14.360   6.753
10611POPC   C3A70817   1.191  14.444   7.053
10611POPC   C4A70818   1.178  14.359   7.353
10611POPC   C1B70819   0.918  14.387   6.453
10611POPC   C2B70820   1.012  14.320   6.753
10611POPC   C3B70821   0.960  14.406   7.053
10611POPC   C4B70822   0.989  14.370   7.353
10612POPC   NC370823  13.664  10.532   5.553
10612POPC   PO470824  13.603  10.544   5.853
10612POPC   GL170825  13.676  10.527   6.153
10612POPC   GL270826  13.538  10.382   6.153
10612POPC   C1A70827  13.602  10.531   6.453
10612POPC   D2A70828  13.612  10.506   6.753
10612POPC   C3A70829  13.671  10.532   7.053
10612POPC   C4A70830  13.585  10.534   7.353
10612POPC   C1B70831  13.451  10.272   6.453
10612POPC   C2B70832  13.461  10.271   6.753
10612POPC   C3B70833  13.474  10.293   7.053
10612POPC   C4B70834  13.509  10.320   7.353
10613POPC   NC370835   0.455   9.791   5.553
10613POPC   PO470836   0.450   9.749   5.853
10613POPC   GL170837   0.422   9.721   6.153
10613POPC   GL270838   0.380   9.653   6.153
10613POPC   C1A70839   0.456   9.748   6.453
10613POPC   D2A70840   0.399   9.734   6.753
10613POPC   C3A70841   0.459   9.735   7.053
10613POPC   C4A70842   0.428   9.715   7.353
10613POPC   C1B70843   0.311   9.537   6.453
10613POPC   C2B70844   0.363   9.555   6.753
10613POPC   C3B70845   0.330   9.545   7.053
10613POPC   C4B70846   0.327   9.549   7.353
10614POPC   NC370847   2.031  36.159   5.553
10614POPC   PO470848   2.036  36.170   5.853
10614POPC   GL170849   2.007  36.107   6.153
10614POPC   GL270850   1.893  36.259   6.153
10614POPC   C1A70851   2.034  36.085   6.453
10614POPC   D2A70852   2.034  36.142   6.753
10614POPC   C3A70853   1.980  36.125   7.053
10614POPC   C4A70854   1.995  36.109   7.353
10614POPC   C1B70855   1.853  36.311   6.453
10614POPC   C2B70856   1.850  36.351   6.753
10614POPC   C3B70857   1.808  36.278   7.053
10614POPC   C4B70858   1.867  36.334   7.353
10615POPC   NC370859   5.889  21.353   5.553
10615POPC   PO470860   5.843  21.353   5.853
10615POPC   GL170861   5.907  21.381   6.153
10615POPC   GL270862   5.773  21.338   6.153
10615POPC   C1A70863   5.867  21.349   6.453
10615POPC   D2A70864   5.888  21.409   6.753
10615POPC   C3A70865   5.850  21.419   7.053
10615POPC   C4A70866   5.880  21.407   7.353
10615POPC   C1B70867   5.677  21.268   6.453
10615POPC   C2B70868   5.691  21.216   6.753
10615POPC   C3B70869   5.666  21.226   7.053
10615POPC   C4B70870   5.660  21.244   7.353
10616POPC   NC370871  23.733  26.012   5.553
10616POPC   PO470872  23.704  26.084   5.853
10616POPC   GL170873  23.670  26.025   6.153
10616POPC   GL270874  23.638  26.075   6.153
10616POPC   C1A70875  23.734  26.006   6.453
10616POPC   D2A70876  23.712  26.046   6.753
10616POPC   C3A70877  23.668  26.066   7.053
10616POPC   C4A70878  23.730  26.056   7.353
10616POPC   C1B70879  23.449  26.117   6.453
10616POPC   C2B70880  23.463  26.104   6.753
10616POPC   C3B70881  23.467  26.089   7.053
10616POPC   C4B70882  23.438  26.097   7.353
10617POPC   NC370883  41.557  33.850   5.553
10617POPC   PO470884  41.516  33.820   5.853
10617POPC   GL170885  41.517  33.758   6.153
10617POPC   GL270886  41.493  33.882   6.153
10617POPC   C1A70887  41.520  33.790   6.453
10617POPC   D2A70888  41.549  33.835   6.753
10617POPC   C3A70889  41.559  33.780   7.053
10617POPC   C4A70890  41.586  33.788   7.353
10617POPC   C1B70891  41.342  33.937   6.453
10617POPC   C2B70892  41.291  33.924   6.753
10617POPC   C3B70893  41.353  33.917   7.053
10617POPC   C4B70894  41.321  33.914   7.353
10618POPC   NC370895   8.212  42.369   5.553
10618POPC   PO470896   8.205  42.381   5.853
10618POPC   GL170897   8.221  42.317   6.153
10618POPC   GL270898   8.225  42.201   6.153
10618POPC   C1A70899   8.200  42.314   6.453
10618POPC   D2A70900   8.162  42.347   6.753
10618POPC   C3A70901   8.203  42.372   7.053
10618POPC   C4A70902   8.160  42.329   7.353
10618POPC   C1B70903   8.243  42.078   6.453
10618POPC   C2B70904   8.190  42.048   6.753
10618POPC   C3B70905   8.240  42.118   7.053
10618POPC   C4B70906   8.262  42.106   7.353
10619POPC   NC370907  41.552  25.308   5.553
10619POPC   PO470908  41.596  25.218   5.853
10619POPC   GL170909  41.579  25.216   6.153
10619POPC   GL270910  41.502  25.099   6.153
10619POPC   C1A70911  41.578  25.302   6.453
10619POPC   D2A70912  41.590  25.305   6.753
10619POPC   C3A70913  41.569  25.282   7.053
10619POPC   C4A70914  41.539  25.245   7.353
10619POPC   C1B70915  41.487  24.994   6.453
10619POPC   C2B70916  41.485  25.075   6.753
10619POPC   C3B70917  41.508  25.073   7.053
10619POPC   C4B70918  41.462  25.036   7.353
10620POPC   NC370919  27.553  27.634   5.553
10620POPC   PO470920  27.605  27.571   5.853
10620POPC   GL170921  27.609  27.560   6.153
10620POPC   GL270922  27.510  27.707   6.153
10620POPC   C1A70923  27.567  27.586   6.453
10620POPC   D2A70924  27.559  27.634   6.753
10620POPC   C3A70925  27.613  27.582   7.053
10620POPC   C4A70926  27.582  27.569   7.353
10620POPC   C1B70927  27.380  27.716   6.453
10620POPC   C2B70928  27.356  27.747   6.753
10620POPC   C3B70929  27.372  27.760   7.053
10620POPC   C4B70930  27.416  27.751   7.353
10621POPC   NC370931  33.779  44.629   5.553
10621POPC   PO470932  33.789  44.628   5.853
10621POPC   GL170933  33.809  44.629   6.153
10621POPC   GL270934  33.754  44.621   6.153
10621POPC   C1A70935  33.838  44.640   6.453
10621POPC   D2A70936  33.826  44.613   6.753
10621POPC   C3A70937  33.814  44.681   7.053
10621POPC   C4A70938  33.820  44.668   7.353
10621POPC   C1B70939  33.657  44.503   6.453
10621POPC   C2B70940  33.657  44.483   6.753
10621POPC   C3B70941  33.650  44.500   7.053
10621POPC   C4B70942  33.644  44.451   7.353
10622POPC   NC370943  30.649  11.280   5.553
10622POPC   PO470944  30.674  11.275   5.853
10622POPC   GL170945  30.710  11.271   6.153
10622POPC   GL270946  30.748  11.216   6.153
10622POPC   C1A70947  30.717  11.347   6.453
10622POPC   D2A70948  30.691  11.316   6.753
10622POPC   C3A70949  30.647  11.347   7.053
10622POPC   C4A70950  30.705  11.316   7.353
10622POPC   C1B70951  30.771  11.113   6.453
10622POPC   C2B70952  30.769  11.052   6.753
10622POPC   C3B70953  30.765  11.085   7.053
10622POPC   C4B70954  30.767  11.093   7.353
10623POPC   NC370955  33.767   0.477   5.553
10623POPC   PO470956  33.790   0.486   5.853
10623POPC   GL170957  33.790   0.471   6.153
10623POPC   GL270958  33.839   0.368   6.153
10623POPC   C1A70959  33.764   0.397   6.453
10623POPC   D2A70960  33.844   0.421   6.753
10623POPC   C3A70961  33.808   0.393   7.053
10623POPC   C4A70962  33.789   0.485   7.353
10623POPC   C1B70963  33.912   0.244   6.453
10623POPC   C2B70964  33.902   0.232   6.753
10623POPC   C3B70965  33.881   0.195   7.053
10623POPC   C4B70966  33.929   0.210   7.353
10624POPC   NC370967   4.342  22.116   5.553
10624POPC   PO470968   4.334  22.197   5.853
10624POPC   GL170969   4.363  22.172   6.153
10624POPC   GL270970   4.429  22.167   6.153
10624POPC   C1A70971   4.269  22.142   6.453
10624POPC   D2A70972   4.291  22.168   6.753
10624POPC   C3A70973   4.341  22.183   7.053
10624POPC   C4A70974   4.339  22.151   7.353
10624POPC   C1B70975   4.591  22.266   6.453
10624POPC   C2B70976   4.524  22.227   6.753
10624POPC   C3B70977   4.529  22.268   7.053
10624POPC   C4B70978   4.554  22.201   7.353
10625POPC   NC370979  40.790  20.658   5.553
10625POPC   PO470980  40.772  20.581   5.853
10625POPC   GL170981  40.758  20.614   6.153
10625POPC   GL270982  40.656  20.477   6.153
10625POPC   C1A70983  40.792  20.651   6.453
10625POPC   D2A70984  40.757  20.568   6.753
10625POPC   C3A70985  40.761  20.596   7.053
10625POPC   C4A70986  40.773  20.647   7.353
10625POPC   C1B70987  40.627  20.407   6.453
10625POPC   C2B70988  40.678  20.438   6.753
10625POPC   C3B70989  40.604  20.414   7.053
10625POPC   C4B70990  40.662  20.369   7.353
10626POPC   NC370991  19.067  19.872   5.553
10626POPC   PO470992  19.078  19.877   5.853
10626POPC   GL170993  19.014  19.876   6.153
10626POPC   GL270994  19.036  19.986   6.153
10626POPC   C1A70995  19.035  19.813   6.453
10626POPC   D2A70996  19.051  19.795   6.753
10626POPC   C3A70997  19.039  19.875   7.053
10626POPC   C4A70998  19.047  19.820   7.353
10626POPC   C1B70999  19.098  20.111   6.453
10626POPC   C2B71000  19.065  20.048   6.753
10626POPC   C3B71001  19.113  20.055   7.053
10626POPC   C4B71002  19.122  20.065   7.353
10627POPC   NC371003  36.101  15.140   5.553
10627POPC   PO471004  36.100  15.137   5.853
10627POPC   GL171005  36.104  15.190   6.153
10627POPC   GL271006  36.196  15.248   6.153
10627POPC   C1A71007  36.117  15.165   6.453
10627POPC   D2A71008  36.125  15.159   6.753
10627POPC   C3A71009  36.142  15.141   7.053
10627POPC   C4A71010  36.088  15.217   7.353
10627POPC   C1B71011  36.345  15.287   6.453
10627POPC   C2B71012  36.298  15.359   6.753
10627POPC   C3B71013  36.341  15.350   7.053
10627POPC   C4B71014  36.328  15.309   7.353
10628POPC   NC371015  15.945  10.571   5.553
10628POPC   PO471016  15.987  10.483   5.853
10628POPC   GL171017  15.914  10.536   6.153
10628POPC   GL271018  16.015  10.415   6.153
10628POPC   C1A71019  15.919  10.521   6.453
10628POPC   D2A71020  15.959  10.509   6.753
10628POPC   C3A71021  15.911  10.556   7.053
10628POPC   C4A71022  15.994  10.537   7.353
10628POPC   C1B71023  16.111  10.347   6.453
10628POPC   C2B71024  16.181  10.400   6.753
10628POPC   C3B71025  16.140  10.385   7.053
10628POPC   C4B71026  16.152  10.406   7.353
10629POPC   NC371027  27.640  31.470   5.553
10629POPC   PO471028  27.582  31.450   5.853
10629POPC   GL171029  27.549  31.446   6.153
10629POPC   GL271030  27.627  31.615   6.153
10629POPC   C1A71031  27.602  31.497   6.453
10629POPC   D2A71032  27.626  31.463   6.753
10629POPC   C3A71033  27.550  31.488   7.053
10629POPC   C4A71034  27.633  31.502   7.353
10629POPC   C1B71035  27.764  31.703   6.453
10629POPC   C2B71036  27.712  31.673   6.753
10629POPC   C3B71037  27.756  31.630   7.053
10629POPC   C4B71038  27.690  31.661   7.353
10630POPC   NC371039  28.405  15.170   5.553
10630POPC   PO471040  28.388  15.134   5.853
10630POPC   GL171041  28.368  15.202   6.153
10630POPC   GL271042  28.311  15.049   6.153
10630POPC   C1A71043  28.360  15.174   6.453
10630POPC   D2A71044  28.402  15.208   6.753
10630POPC   C3A71045  28.359  15.202   7.053
10630POPC   C4A71046  28.397  15.189   7.353
10630POPC   C1B71047  28.376  14.956   6.453
10630POPC   C2B71048  28.371  14.943   6.753
10630POPC   C3B71049  28.340  14.967   7.053
10630POPC   C4B71050  28.345  14.908   7.353
10631POPC   NC371051  24.481   2.803   5.553
10631POPC   PO471052  24.491   2.732   5.853
10631POPC   GL171053  24.528   2.717   6.153
10631POPC   GL271054  24.489   2.641   6.153
10631POPC   C1A71055  24.447   2.779   6.453
10631POPC   D2A71056  24.510   2.726   6.753
10631POPC   C3A71057  24.473   2.766   7.053
10631POPC   C4A71058  24.449   2.776   7.353
10631POPC   C1B71059  24.513   2.508   6.453
10631POPC   C2B71060  24.525   2.560   6.753
10631POPC   C3B71061  24.471   2.541   7.053
10631POPC   C4B71062  24.481   2.472   7.353
10632POPC   NC371063   5.086   5.065   5.553
10632POPC   PO471064   5.121   5.117   5.853
10632POPC   GL171065   5.139   5.045   6.153
10632POPC   GL271066   5.169   5.038   6.153
10632POPC   C1A71067   5.043   5.123   6.453
10632POPC   D2A71068   5.105   5.052   6.753
10632POPC   C3A71069   5.059   5.142   7.053
10632POPC   C4A71070   5.084   5.076   7.353
10632POPC   C1B71071   5.357   5.025   6.453
10632POPC   C2B71072   5.379   5.053   6.753
10632POPC   C3B71073   5.318   5.102   7.053
10632POPC   C4B71074   5.363   5.053   7.353
10633POPC   NC371075  31.442  11.330   5.553
10633POPC   PO471076  31.441  11.255   5.853
10633POPC   GL171077  31.458  11.322   6.153
10633POPC   GL271078  31.301  11.237   6.153
10633POPC   C1A71079  31.460  11.307   6.453
10633POPC   D2A71080  31.431  11.289   6.753
10633POPC   C3A71081  31.497  11.282   7.053
10633POPC   C4A71082  31.493  11.278   7.353
10633POPC   C1B71083  31.211  11.236   6.453
10633POPC   C2B71084  31.270  11.254   6.753
10633POPC   C3B71085  31.195  11.240   7.053
10633POPC   C4B71086  31.218  11.219   7.353
10634POPC   NC371087  42.291  36.864   5.553
10634POPC   PO471088  42.363  36.896   5.853
10634POPC   GL171089  42.380  36.944   6.153
10634POPC   GL271090  42.366  36.986   6.153
10634POPC   C1A71091  42.290  36.952   6.453
10634POPC   D2A71092  42.357  36.869   6.753
10634POPC   C3A71093  42.383  36.856   7.053
10634POPC   C4A71094  42.380  36.859   7.353
10634POPC   C1B71095  42.383  37.134   6.453
10634POPC   C2B71096  42.460  37.095   6.753
10634POPC   C3B71097  42.455  37.129   7.053
10634POPC   C4B71098  42.371  37.151   7.353
10635POPC   NC371099  40.766  43.847   5.553
10635POPC   PO471100  40.827  43.852   5.853
10635POPC   GL171101  40.797  43.902   6.153
10635POPC   GL271102  40.827  43.774   6.153
10635POPC   C1A71103  40.792  43.848   6.453
10635POPC   D2A71104  40.748  43.866   6.753
10635POPC   C3A71105  40.747  43.839   7.053
10635POPC   C4A71106  40.738  43.869   7.353
10635POPC   C1B71107  40.935  43.698   6.453
10635POPC   C2B71108  40.905  43.696   6.753
10635POPC   C3B71109  40.905  43.649   7.053
10635POPC   C4B71110  40.930  43.673   7.353
10636POPC   NC371111   9.729   5.914   5.553
10636POPC   PO471112   9.756   5.904   5.853
10636POPC   GL171113   9.714   5.827   6.153
10636POPC   GL271114   9.861   5.806   6.153
10636POPC   C1A71115   9.794   5.883   6.453
10636POPC   D2A71116   9.784   5.837   6.753
10636POPC   C3A71117   9.780   5.846   7.053
10636POPC   C4A71118   9.739   5.886   7.353
10636POPC   C1B71119   9.920   5.708   6.453
10636POPC   C2B71120   9.873   5.697   6.753
10636POPC   C3B71121   9.945   5.732   7.053
10636POPC   C4B71122   9.872   5.718   7.353
10637POPC   NC371123  21.412   0.476   5.553
10637POPC   PO471124  21.341   0.413   5.853
10637POPC   GL171125  21.340   0.459   6.153
10637POPC   GL271126  21.301   0.478   6.153
10637POPC   C1A71127  21.365   0.473   6.453
10637POPC   D2A71128  21.382   0.427   6.753
10637POPC   C3A71129  21.402   0.476   7.053
10637POPC   C4A71130  21.431   0.415   7.353
10637POPC   C1B71131  21.161   0.518   6.453
10637POPC   C2B71132  21.173   0.539   6.753
10637POPC   C3B71133  21.119   0.474   7.053
10637POPC   C4B71134  21.155   0.540   7.353
10638POPC   NC371135  37.661   7.413   5.553
10638POPC   PO471136  37.705   7.408   5.853
10638POPC   GL171137  37.707   7.376   6.153
10638POPC   GL271138  37.607   7.547   6.153
10638POPC   C1A71139  37.650   7.415   6.453
10638POPC   D2A71140  37.696   7.447   6.753
10638POPC   C3A71141  37.648   7.423   7.053
10638POPC   C4A71142  37.687   7.391   7.353
10638POPC   C1B71143  37.634   7.633   6.453
10638POPC   C2B71144  37.593   7.704   6.753
10638POPC   C3B71145  37.651   7.689   7.053
10638POPC   C4B71146  37.594   7.702   7.353
10639POPC   NC371147   8.932  28.390   5.553
10639POPC   PO471148   8.989  28.368   5.853
10639POPC   GL171149   9.010  28.357   6.153
10639POPC   GL271150   8.903  28.332   6.153
10639POPC   C1A71151   9.008  28.339   6.453
10639POPC   D2A71152   8.982  28.365   6.753
10639POPC   C3A71153   9.011  28.321   7.053
10639POPC   C4A71154   8.940  28.355   7.353
10639POPC   C1B71155   8.813  28.243   6.453
10639POPC   C2B71156   8.798  28.172   6.753
10639POPC   C3B71157   8.744  28.162   7.053
10639POPC   C4B71158   8.770  28.204   7.353
10640POPC   NC371159  30.738  27.558   5.553
10640POPC   PO471160  30.701  27.633   5.853
10640POPC   GL171161  30.664  27.631   6.153
10640POPC   GL271162  30.612  27.660   6.153
10640POPC   C1A71163  30.693  27.638   6.453
10640POPC   D2A71164  30.685  27.564   6.753
10640POPC   C3A71165  30.651  27.589   7.053
10640POPC   C4A71166  30.675  27.619   7.353
10640POPC   C1B71167  30.494  27.747   6.453
10640POPC   C2B71168  30.440  27.764   6.753
10640POPC   C3B71169  30.526  27.723   7.053
10640POPC   C4B71170  30.520  27.763   7.353
10641POPC   NC371171   6.615  12.124   5.553
10641POPC   PO471172   6.660  12.116   5.853
10641POPC   GL171173   6.610  12.059   6.153
10641POPC   GL271174   6.642  11.969   6.153
10641POPC   C1A71175   6.680  12.062   6.453
10641POPC   D2A71176   6.677  12.093   6.753
10641POPC   C3A71177   6.683  12.048   7.053
10641POPC   C4A71178   6.641  12.072   7.353
10641POPC   C1B71179   6.610  11.805   6.453
10641POPC   C2B71180   6.585  11.803   6.753
10641POPC   C3B71181   6.539  11.851   7.053
10641POPC   C4B71182   6.617  11.877   7.353
10642POPC   NC371183  21.394   5.919   5.553
10642POPC   PO471184  21.433   5.894   5.853
10642POPC   GL171185  21.413   5.842   6.153
10642POPC   GL271186  21.248   5.878   6.153
10642POPC   C1A71187  21.375   5.904   6.453
10642POPC   D2A71188  21.431   5.848   6.753
10642POPC   C3A71189  21.396   5.822   7.053
10642POPC   C4A71190  21.382   5.830   7.353
10642POPC   C1B71191  21.113   5.841   6.453
10642POPC   C2B71192  21.179   5.843   6.753
10642POPC   C3B71193  21.172   5.766   7.053
10642POPC   C4B71194  21.136   5.842   7.353
10643POPC   NC371195  42.343   4.271   5.553
10643POPC   PO471196  42.378   4.346   5.853
10643POPC   GL171197  42.307   4.278   6.153
10643POPC   GL271198  42.329   4.221   6.153
10643POPC   C1A71199  42.350   4.292   6.453
10643POPC   D2A71200  42.354   4.344   6.753
10643POPC   C3A71201  42.303   4.341   7.053
10643POPC   C4A71202  42.317   4.349   7.353
10643POPC   C1B71203  42.251   4.063   6.453
10643POPC   C2B71204  42.245   4.111   6.753
10643POPC   C3B71205  42.308   4.036   7.053
10643POPC   C4B71206  42.240   4.074   7.353
10644POPC   NC371207   5.890   1.196   5.553
10644POPC   PO471208   5.908   1.173   5.853
10644POPC   GL171209   5.902   1.204   6.153
10644POPC   GL271210   5.898   1.053   6.153
10644POPC   C1A71211   5.884   1.204   6.453
10644POPC   D2A71212   5.900   1.247   6.753
10644POPC   C3A71213   5.839   1.200   7.053
10644POPC   C4A71214   5.906   1.239   7.353
10644POPC   C1B71215   5.957   0.921   6.453
10644POPC   C2B71216   5.890   0.961   6.753
10644POPC   C3B71217   5.888   0.956   7.053
10644POPC   C4B71218   5.954   0.930   7.353
10645POPC   NC371219  12.110  40.774   5.553
10645POPC   PO471220  12.085  40.826   5.853
10645POPC   GL171221  12.026  40.814   6.153
10645POPC   GL271222  12.061  40.859   6.153
10645POPC   C1A71223  12.115  40.799   6.453
10645POPC   D2A71224  12.036  40.751   6.753
10645POPC   C3A71225  12.104  40.734   7.053
10645POPC   C4A71226  12.068  40.779   7.353
10645POPC   C1B71227  12.028  41.064   6.453
10645POPC   C2B71228  11.937  41.044   6.753
10645POPC   C3B71229  11.956  40.977   7.053
10645POPC   C4B71230  11.972  41.001   7.353
10646POPC   NC371231  41.540  10.531   5.553
10646POPC   PO471232  41.592  10.490   5.853
10646POPC   GL171233  41.531  10.482   6.153
10646POPC   GL271234  41.480  10.471   6.153
10646POPC   C1A71235  41.580  10.550   6.453
10646POPC   D2A71236  41.566  10.537   6.753
10646POPC   C3A71237  41.560  10.546   7.053
10646POPC   C4A71238  41.538  10.516   7.353
10646POPC   C1B71239  41.301  10.497   6.453
10646POPC   C2B71240  41.345  10.468   6.753
10646POPC   C3B71241  41.273  10.458   7.053
10646POPC   C4B71242  41.264  10.536   7.353
10647POPC   NC371243  32.278  42.375   5.553
10647POPC   PO471244  32.272  42.305   5.853
10647POPC   GL171245  32.227  42.359   6.153
10647POPC   GL271246  32.200  42.285   6.153
10647POPC   C1A71247  32.253  42.326   6.453
10647POPC   D2A71248  32.209  42.300   6.753
10647POPC   C3A71249  32.202  42.333   7.053
10647POPC   C4A71250  32.257  42.294   7.353
10647POPC   C1B71251  32.062  42.133   6.453
10647POPC   C2B71252  32.005  42.154   6.753
10647POPC   C3B71253  32.088  42.211   7.053
10647POPC   C4B71254  32.010  42.177   7.353
10648POPC   NC371255   5.124  29.123   5.553
10648POPC   PO471256   5.054  29.096   5.853
10648POPC   GL171257   5.086  29.177   6.153
10648POPC   GL271258   4.995  29.132   6.153
10648POPC   C1A71259   5.111  29.111   6.453
10648POPC   D2A71260   5.107  29.113   6.753
10648POPC   C3A71261   5.129  29.160   7.053
10648POPC   C4A71262   5.092  29.110   7.353
10648POPC   C1B71263   4.891  29.082   6.453
10648POPC   C2B71264   4.842  29.068   6.753
10648POPC   C3B71265   4.895  29.059   7.053
10648POPC   C4B71266   4.886  29.010   7.353
10649POPC   NC371267  37.692  25.234   5.553
10649POPC   PO471268  37.663  25.225   5.853
10649POPC   GL171269  37.716  25.273   6.153
10649POPC   GL271270  37.562  25.390   6.153
10649POPC   C1A71271  37.663  25.271   6.453
10649POPC   D2A71272  37.723  25.274   6.753
10649POPC   C3A71273  37.677  25.312   7.053
10649POPC   C4A71274  37.726  25.265   7.353
10649POPC   C1B71275  37.442  25.419   6.453
10649POPC   C2B71276  37.485  25.433   6.753
10649POPC   C3B71277  37.537  25.420   7.053
10649POPC   C4B71278  37.441  25.466   7.353
10650POPC   NC371279  19.035   1.960   5.553
10650POPC   PO471280  19.072   2.020   5.853
10650POPC   GL171281  19.020   1.999   6.153
10650POPC   GL271282  19.119   1.931   6.153
10650POPC   C1A71283  19.037   1.994   6.453
10650POPC   D2A71284  19.039   1.960   6.753
10650POPC   C3A71285  19.095   2.012   7.053
10650POPC   C4A71286  19.039   2.005   7.353
10650POPC   C1B71287  19.221   1.741   6.453
10650POPC   C2B71288  19.164   1.782   6.753
10650POPC   C3B71289  19.169   1.738   7.053
10650POPC   C4B71290  19.244   1.773   7.353
10651POPC   NC371291  42.299  11.318   5.553
10651POPC   PO471292  42.298  11.310   5.853
10651POPC   GL171293  42.325  11.329   6.153
10651POPC   GL271294  42.404  11.164   6.153
10651POPC   C1A71295  42.370  11.305   6.453
10651POPC   D2A71296  42.338  11.274   6.753
10651POPC   C3A71297  42.357  11.261   7.053
10651POPC   C4A71298  42.304  11.298   7.353
10651POPC   C1B71299  42.545  11.147   6.453
10651POPC   C2B71300  42.540  11.118   6.753
10651POPC   C3B71301  42.495  11.098   7.053
10651POPC   C4B71302  42.489  11.079   7.353
10652POPC   NC371303  26.840  41.569   5.553
10652POPC   PO471304  26.849  41.595   5.853
10652POPC   GL171305  26.827  41.544   6.153
10652POPC   GL271306  26.784  41.386   6.153
10652POPC   C1A71307  26.784  41.531   6.453
10652POPC   D2A71308  26.861  41.533   6.753
10652POPC   C3A71309  26.804  41.572   7.053
10652POPC   C4A71310  26.824  41.597   7.353
10652POPC   C1B71311  26.854  41.300   6.453
10652POPC   C2B71312  26.806  41.266   6.753
10652POPC   C3B71313  26.815  41.289   7.053
10652POPC   C4B71314  26.882  41.287   7.353
10653POPC   NC371315  19.035   8.955   5.553
10653POPC   PO471316  19.092   9.000   5.853
10653POPC   GL171317  19.104   8.999   6.153
10653POPC   GL271318  19.176   8.904   6.153
10653POPC   C1A71319  19.088   9.017   6.453
10653POPC   D2A71320  19.054   8.950   6.753
10653POPC   C3A71321  19.043   9.002   7.053
10653POPC   C4A71322  19.043   8.965   7.353
10653POPC   C1B71323  19.251   8.847   6.453
10653POPC   C2B71324  19.261   8.881   6.753
10653POPC   C3B71325  19.265   8.866   7.053
10653POPC   C4B71326  19.270   8.913   7.353
10654POPC   NC371327  13.657  29.898   5.553
10654POPC   PO471328  13.675  29.927   5.853
10654POPC   GL171329  13.661  29.959   6.153
10654POPC   GL271330  13.741  29.957   6.153
10654POPC   C1A71331  13.663  29.928   6.453
10654POPC   D2A71332  13.662  29.900   6.753
10654POPC   C3A71333  13.651  29.952   7.053
10654POPC   C4A71334  13.650  29.945   7.353
10654POPC   C1B71335  13.845  30.035   6.453
10654POPC   C2B71336  13.900  30.028   6.753
10654POPC   C3B71337  13.858  30.028   7.053
10654POPC   C4B71338  13.895  29.991   7.353
10655POPC   NC371339  23.682  43.892   5.553
10655POPC   PO471340  23.678  43.846   5.853
10655POPC   GL171341  23.676  43.928   6.153
10655POPC   GL271342  23.593  43.759   6.153
10655POPC   C1A71343  23.757  43.887   6.453
10655POPC   D2A71344  23.746  43.870   6.753
10655POPC   C3A71345  23.685  43.917   7.053
10655POPC   C4A71346  23.746  43.935   7.353
10655POPC   C1B71347  23.482  43.747   6.453
10655POPC   C2B71348  23.570  43.737   6.753
10655POPC   C3B71349  23.536  43.693   7.053
10655POPC   C4B71350  23.536  43.741   7.353
10656POPC   NC371351  28.349  19.102   5.553
10656POPC   PO471352  28.375  19.031   5.853
10656POPC   GL171353  28.320  19.037   6.153
10656POPC   GL271354  28.531  19.062   6.153
10656POPC   C1A71355  28.330  19.083   6.453
10656POPC   D2A71356  28.415  19.065   6.753
10656POPC   C3A71357  28.410  19.021   7.053
10656POPC   C4A71358  28.395  19.034   7.353
10656POPC   C1B71359  28.589  19.016   6.453
10656POPC   C2B71360  28.574  19.100   6.753
10656POPC   C3B71361  28.571  19.066   7.053
10656POPC   C4B71362  28.590  19.022   7.353
10657POPC   NC371363   8.172  21.391   5.553
10657POPC   PO471364   8.155  21.425   5.853
10657POPC   GL171365   8.217  21.396   6.153
10657POPC   GL271366   8.244  21.321   6.153
10657POPC   C1A71367   8.153  21.399   6.453
10657POPC   D2A71368   8.215  21.385   6.753
10657POPC   C3A71369   8.177  21.375   7.053
10657POPC   C4A71370   8.220  21.415   7.353
10657POPC   C1B71371   8.422  21.264   6.453
10657POPC   C2B71372   8.334  21.195   6.753
10657POPC   C3B71373   8.351  21.198   7.053
10657POPC   C4B71374   8.405  21.245   7.353
10658POPC   NC371375  25.300  42.300   5.553
10658POPC   PO471376  25.268  42.368   5.853
10658POPC   GL171377  25.277  42.383   6.153
10658POPC   GL271378  25.362  42.322   6.153
10658POPC   C1A71379  25.306  42.376   6.453
10658POPC   D2A71380  25.220  42.377   6.753
10658POPC   C3A71381  25.275  42.326   7.053
10658POPC   C4A71382  25.308  42.371   7.353
10658POPC   C1B71383  25.548  42.261   6.453
10658POPC   C2B71384  25.486  42.282   6.753
10658POPC   C3B71385  25.519  42.279   7.053
10658POPC   C4B71386  25.503  42.304   7.353
10659POPC   NC371387  17.469  21.385   5.553
10659POPC   PO471388  17.496  21.381   5.853
10659POPC   GL171389  17.554  21.375   6.153
10659POPC   GL271390  17.414  21.491   6.153
10659POPC   C1A71391  17.498  21.366   6.453
10659POPC   D2A71392  17.547  21.418   6.753
10659POPC   C3A71393  17.525  21.414   7.053
10659POPC   C4A71394  17.473  21.427   7.353
10659POPC   C1B71395  17.346  21.555   6.453
10659POPC   C2B71396  17.373  21.628   6.753
10659POPC   C3B71397  17.330  21.578   7.053
10659POPC   C4B71398  17.393  21.560   7.353
10660POPC   NC371399  16.704   8.941   5.553
10660POPC   PO471400  16.769   9.003   5.853
10660POPC   GL171401  16.728   8.946   6.153
10660POPC   GL271402  16.588   9.027   6.153
10660POPC   C1A71403  16.712   8.947   6.453
10660POPC   D2A71404  16.711   9.006   6.753
10660POPC   C3A71405  16.721   8.958   7.053
10660POPC   C4A71406  16.689   9.000   7.353
10660POPC   C1B71407  16.468   9.011   6.453
10660POPC   C2B71408  16.466   9.028   6.753
10660POPC   C3B71409  16.439   8.948   7.053
10660POPC   C4B71410  16.503   8.984   7.353
10661POPC   NC371411   2.035   1.971   5.553
10661POPC   PO471412   2.029   1.975   5.853
10661POPC   GL171413   2.039   1.966   6.153
10661POPC   GL271414   1.914   2.050   6.153
10661POPC   C1A71415   1.972   1.963   6.453
10661POPC   D2A71416   1.990   2.026   6.753
10661POPC   C3A71417   1.941   2.006   7.053
10661POPC   C4A71418   1.973   1.957   7.353
10661POPC   C1B71419   1.785   2.155   6.453
10661POPC   C2B71420   1.800   2.179   6.753
10661POPC   C3B71421   1.789   2.127   7.053
10661POPC   C4B71422   1.817   2.121   7.353
10662POPC   NC371423   0.401  26.072   5.553
10662POPC   PO471424   0.473  26.087   5.853
10662POPC   GL171425   0.427  26.060   6.153
10662POPC   GL271426   0.387  25.923   6.153
10662POPC   C1A71427   0.427  26.072   6.453
10662POPC   D2A71428   0.435  26.089   6.753
10662POPC   C3A71429   0.483  25.993   7.053
10662POPC   C4A71430   0.488  26.091   7.353
10662POPC   C1B71431   0.336  25.861   6.453
10662POPC   C2B71432   0.254  25.832   6.753
10662POPC   C3B71433   0.307  25.811   7.053
10662POPC   C4B71434   0.248  25.882   7.353
10663POPC   NC371435   2.771  36.914   5.553
10663POPC   PO471436   2.723  36.930   5.853
10663POPC   GL171437   2.761  36.910   6.153
10663POPC   GL271438   2.668  36.931   6.153
10663POPC   C1A71439   2.717  36.884   6.453
10663POPC   D2A71440   2.735  36.862   6.753
10663POPC   C3A71441   2.773  36.928   7.053
10663POPC   C4A71442   2.792  36.854   7.353
10663POPC   C1B71443   2.473  36.880   6.453
10663POPC   C2B71444   2.506  36.888   6.753
10663POPC   C3B71445   2.534  36.823   7.053
10663POPC   C4B71446   2.490  36.899   7.353
10664POPC   NC371447   1.188  42.315   5.553
10664POPC   PO471448   1.207  42.317   5.853
10664POPC   GL171449   1.205  42.294   6.153
10664POPC   GL271450   1.306  42.274   6.153
10664POPC   C1A71451   1.250  42.350   6.453
10664POPC   D2A71452   1.236  42.301   6.753
10664POPC   C3A71453   1.179  42.327   7.053
10664POPC   C4A71454   1.185  42.323   7.353
10664POPC   C1B71455   1.387  42.103   6.453
10664POPC   C2B71456   1.338  42.108   6.753
10664POPC   C3B71457   1.339  42.118   7.053
10664POPC   C4B71458   1.422  42.102   7.353
10665POPC   NC371459   3.523  43.889   5.553
10665POPC   PO471460   3.525  43.928   5.853
10665POPC   GL171461   3.536  43.916   6.153
10665POPC   GL271462   3.531  43.792   6.153
10665POPC   C1A71463   3.568  43.884   6.453
10665POPC   D2A71464   3.535  43.872   6.753
10665POPC   C3A71465   3.560  43.843   7.053
10665POPC   C4A71466   3.580  43.865   7.353
10665POPC   C1B71467   3.512  43.681   6.453
10665POPC   C2B71468   3.521  43.620   6.753
10665POPC   C3B71469   3.529  43.641   7.053
10665POPC   C4B71470   3.523  43.595   7.353
10666POPC   NC371471  26.069  12.070   5.553
10666POPC   PO471472  26.061  12.051   5.853
10666POPC   GL171473  26.006  12.030   6.153
10666POPC   GL271474  26.001  11.979   6.153
10666POPC   C1A71475  25.994  12.036   6.453
10666POPC   D2A71476  25.992  12.037   6.753
10666POPC   C3A71477  26.084  12.085   7.053
10666POPC   C4A71478  26.011  12.091   7.353
10666POPC   C1B71479  25.953  11.796   6.453
10666POPC   C2B71480  25.958  11.793   6.753
10666POPC   C3B71481  26.037  11.877   7.053
10666POPC   C4B71482  25.944  11.852   7.353
10667POPC   NC371483   4.360  10.520   5.553
10667POPC   PO471484   4.356  10.497   5.853
10667POPC   GL171485   4.292  10.508   6.153
10667POPC   GL271486   4.230  10.394   6.153
10667POPC   C1A71487   4.346  10.477   6.453
10667POPC   D2A71488   4.331  10.501   6.753
10667POPC   C3A71489   4.287  10.557   7.053
10667POPC   C4A71490   4.342  10.502   7.353
10667POPC   C1B71491   4.187  10.333   6.453
10667POPC   C2B71492   4.220  10.300   6.753
10667POPC   C3B71493   4.213  10.334   7.053
10667POPC   C4B71494   4.209  10.313   7.353
10668POPC   NC371495   5.888  31.506   5.553
10668POPC   PO471496   5.828  31.489   5.853
10668POPC   GL171497   5.900  31.433   6.153
10668POPC   GL271498   6.004  31.424   6.153
10668POPC   C1A71499   5.822  31.477   6.453
10668POPC   D2A71500   5.871  31.515   6.753
10668POPC   C3A71501   5.871  31.427   7.053
10668POPC   C4A71502   5.902  31.463   7.353
10668POPC   C1B71503   6.140  31.403   6.453
10668POPC   C2B71504   6.053  31.343   6.753
10668POPC   C3B71505   6.052  31.360   7.053
10668POPC   C4B71506   6.091  31.382   7.353
10669POPC   NC371507  12.114   8.232   5.553
10669POPC   PO471508  12.062   8.206   5.853
10669POPC   GL171509  12.030   8.153   6.153
10669POPC   GL271510  11.972   8.253   6.153
10669POPC   C1A71511  12.084   8.148   6.453
10669POPC   D2A71512  12.109   8.163   6.753
10669POPC   C3A71513  12.061   8.187   7.053
10669POPC   C4A71514  12.077   8.219   7.353
10669POPC   C1B71515  11.924   8.404   6.453
10669POPC   C2B71516  11.931   8.404   6.753
10669POPC   C3B71517  11.955   8.408   7.053
10669POPC   C4B71518  11.957   8.420   7.353
10670POPC   NC371519  15.178  29.935   5.553
10670POPC   PO471520  15.144  29.904   5.853
10670POPC   GL171521  15.147  29.906   6.153
10670POPC   GL271522  15.054  30.053   6.153
10670POPC   C1A71523  15.154  29.882   6.453
10670POPC   D2A71524  15.168  29.919   6.753
10670POPC   C3A71525  15.204  29.938   7.053
10670POPC   C4A71526  15.173  29.958   7.353
10670POPC   C1B71527  15.033  30.114   6.453
10670POPC   C2B71528  15.040  30.074   6.753
10670POPC   C3B71529  15.034  30.126   7.053
10670POPC   C4B71530  15.008  30.073   7.353
10671POPC   NC371531  23.695  13.657   5.553
10671POPC   PO471532  23.733  13.634   5.853
10671POPC   GL171533  23.728  13.608   6.153
10671POPC   GL271534  23.788  13.689   6.153
10671POPC   C1A71535  23.717  13.634   6.453
10671POPC   D2A71536  23.665  13.666   6.753
10671POPC   C3A71537  23.688  13.649   7.053
10671POPC   C4A71538  23.742  13.581   7.353
10671POPC   C1B71539  23.984  13.693   6.453
10671POPC   C2B71540  24.010  13.703   6.753
10671POPC   C3B71541  23.971  13.708   7.053
10671POPC   C4B71542  23.968  13.627   7.353
10672POPC   NC371543  14.386  33.758   5.553
10672POPC   PO471544  14.386  33.755   5.853
10672POPC   GL171545  14.384  33.780   6.153
10672POPC   GL271546  14.384  33.877   6.153
10672POPC   C1A71547  14.369  33.789   6.453
10672POPC   D2A71548  14.360  33.796   6.753
10672POPC   C3A71549  14.424  33.767   7.053
10672POPC   C4A71550  14.387  33.771   7.353
10672POPC   C1B71551  14.426  34.054   6.453
10672POPC   C2B71552  14.422  34.062   6.753
10672POPC   C3B71553  14.440  34.048   7.053
10672POPC   C4B71554  14.445  34.064   7.353
10673POPC   NC371555   7.399  10.510   5.553
10673POPC   PO471556   7.397  10.492   5.853
10673POPC   GL171557   7.409  10.533   6.153
10673POPC   GL271558   7.448  10.390   6.153
10673POPC   C1A71559   7.415  10.564   6.453
10673POPC   D2A71560   7.394  10.485   6.753
10673POPC   C3A71561   7.451  10.518   7.053
10673POPC   C4A71562   7.386  10.485   7.353
10673POPC   C1B71563   7.464  10.235   6.453
10673POPC   C2B71564   7.416  10.314   6.753
10673POPC   C3B71565   7.429  10.304   7.053
10673POPC   C4B71566   7.413  10.230   7.353
10674POPC   NC371567   5.852  23.763   5.553
10674POPC   PO471568   5.890  23.665   5.853
10674POPC   GL171569   5.831  23.668   6.153
10674POPC   GL271570   5.701  23.684   6.153
10674POPC   C1A71571   5.891  23.682   6.453
10674POPC   D2A71572   5.876  23.744   6.753
10674POPC   C3A71573   5.820  23.733   7.053
10674POPC   C4A71574   5.851  23.670   7.353
10674POPC   C1B71575   5.625  23.668   6.453
10674POPC   C2B71576   5.586  23.648   6.753
10674POPC   C3B71577   5.629  23.645   7.053
10674POPC   C4B71578   5.665  23.660   7.353
10675POPC   NC371579  20.573  22.888   5.553
10675POPC   PO471580  20.621  22.953   5.853
10675POPC   GL171581  20.634  22.976   6.153
10675POPC   GL271582  20.467  22.875   6.153
10675POPC   C1A71583  20.572  22.933   6.453
10675POPC   D2A71584  20.649  22.952   6.753
10675POPC   C3A71585  20.649  22.957   7.053
10675POPC   C4A71586  20.633  22.933   7.353
10675POPC   C1B71587  20.392  22.871   6.453
10675POPC   C2B71588  20.348  22.854   6.753
10675POPC   C3B71589  20.408  22.871   7.053
10675POPC   C4B71590  20.371  22.849   7.353
10676POPC   NC371591  22.182   1.236   5.553
10676POPC   PO471592  22.170   1.255   5.853
10676POPC   GL171593  22.134   1.183   6.153
10676POPC   GL271594  22.136   1.058   6.153
10676POPC   C1A71595  22.186   1.177   6.453
10676POPC   D2A71596  22.137   1.227   6.753
10676POPC   C3A71597  22.117   1.173   7.053
10676POPC   C4A71598  22.205   1.202   7.353
10676POPC   C1B71599  22.072   0.956   6.453
10676POPC   C2B71600  22.134   0.994   6.753
10676POPC   C3B71601  22.080   0.968   7.053
10676POPC   C4B71602  22.052   0.959   7.353
10677POPC   NC371603  19.868  36.124   5.553
10677POPC   PO471604  19.880  36.137   5.853
10677POPC   GL171605  19.793  36.110   6.153
10677POPC   GL271606  19.705  36.016   6.153
10677POPC   C1A71607  19.834  36.091   6.453
10677POPC   D2A71608  19.824  36.146   6.753
10677POPC   C3A71609  19.795  36.083   7.053
10677POPC   C4A71610  19.879  36.110   7.353
10677POPC   C1B71611  19.639  35.956   6.453
10677POPC   C2B71612  19.624  35.999   6.753
10677POPC   C3B71613  19.639  36.007   7.053
10677POPC   C4B71614  19.649  35.960   7.353
10678POPC   NC371615  12.047   1.955   5.553
10678POPC   PO471616  12.081   2.002   5.853
10678POPC   GL171617  12.089   1.985   6.153
10678POPC   GL271618  12.096   1.867   6.153
10678POPC   C1A71619  12.063   1.977   6.453
10678POPC   D2A71620  12.032   1.960   6.753
10678POPC   C3A71621  12.118   2.010   7.053
10678POPC   C4A71622  12.055   2.000   7.353
10678POPC   C1B71623  12.046   1.704   6.453
10678POPC   C2B71624  12.139   1.719   6.753
10678POPC   C3B71625  12.108   1.698   7.053
10678POPC   C4B71626  12.105   1.706   7.353
10679POPC   NC371627  27.602  34.553   5.553
10679POPC   PO471628  27.588  34.586   5.853
10679POPC   GL171629  27.550  34.590   6.153
10679POPC   GL271630  27.540  34.628   6.153
10679POPC   C1A71631  27.605  34.545   6.453
10679POPC   D2A71632  27.622  34.567   6.753
10679POPC   C3A71633  27.607  34.531   7.053
10679POPC   C4A71634  27.604  34.559   7.353
10679POPC   C1B71635  27.456  34.765   6.453
10679POPC   C2B71636  27.406  34.780   6.753
10679POPC   C3B71637  27.398  34.760   7.053
10679POPC   C4B71638  27.436  34.731   7.353
10680POPC   NC371639  31.441  26.006   5.553
10680POPC   PO471640  31.433  26.026   5.853
10680POPC   GL171641  31.450  26.063   6.153
10680POPC   GL271642  31.356  26.058   6.153
10680POPC   C1A71643  31.460  26.008   6.453
10680POPC   D2A71644  31.428  26.049   6.753
10680POPC   C3A71645  31.494  26.037   7.053
10680POPC   C4A71646  31.444  26.003   7.353
10680POPC   C1B71647  31.181  26.008   6.453
10680POPC   C2B71648  31.263  26.092   6.753
10680POPC   C3B71649  31.212  26.019   7.053
10680POPC   C4B71650  31.179  26.083   7.353
10681POPC   NC371651  26.857  36.950   5.553
10681POPC   PO471652  26.865  36.921   5.853
10681POPC   GL171653  26.808  36.888   6.153
10681POPC   GL271654  26.886  36.792   6.153
10681POPC   C1A71655  26.858  36.863   6.453
10681POPC   D2A71656  26.858  36.872   6.753
10681POPC   C3A71657  26.836  36.896   7.053
10681POPC   C4A71658  26.773  36.867   7.353
10681POPC   C1B71659  26.933  36.696   6.453
10681POPC   C2B71660  26.921  36.694   6.753
10681POPC   C3B71661  26.915  36.738   7.053
10681POPC   C4B71662  26.954  36.706   7.353
10682POPC   NC371663   5.108  33.810   5.553
10682POPC   PO471664   5.135  33.824   5.853
10682POPC   GL171665   5.051  33.768   6.153
10682POPC   GL271666   5.070  33.680   6.153
10682POPC   C1A71667   5.133  33.801   6.453
10682POPC   D2A71668   5.129  33.823   6.753
10682POPC   C3A71669   5.108  33.826   7.053
10682POPC   C4A71670   5.119  33.810   7.353
10682POPC   C1B71671   5.051  33.573   6.453
10682POPC   C2B71672   5.102  33.587   6.753
10682POPC   C3B71673   5.064  33.552   7.053
10682POPC   C4B71674   5.085  33.535   7.353
10683POPC   NC371675   9.782  26.789   5.553
10683POPC   PO471676   9.766  26.815   5.853
10683POPC   GL171677   9.789  26.791   6.153
10683POPC   GL271678   9.668  26.671   6.153
10683POPC   C1A71679   9.721  26.787   6.453
10683POPC   D2A71680   9.795  26.832   6.753
10683POPC   C3A71681   9.790  26.799   7.053
10683POPC   C4A71682   9.770  26.804   7.353
10683POPC   C1B71683   9.640  26.561   6.453
10683POPC   C2B71684   9.660  26.615   6.753
10683POPC   C3B71685   9.634  26.579   7.053
10683POPC   C4B71686   9.628  26.639   7.353
10684POPC   NC371687   4.361   8.946   5.553
10684POPC   PO471688   4.296   8.940   5.853
10684POPC   GL171689   4.316   8.926   6.153
10684POPC   GL271690   4.346   8.878   6.153
10684POPC   C1A71691   4.288   8.934   6.453
10684POPC   D2A71692   4.332   8.978   6.753
10684POPC   C3A71693   4.345   9.001   7.053
10684POPC   C4A71694   4.299   8.941   7.353
10684POPC   C1B71695   4.478   8.795   6.453
10684POPC   C2B71696   4.460   8.809   6.753
10684POPC   C3B71697   4.514   8.735   7.053
10684POPC   C4B71698   4.511   8.751   7.353
10685POPC   NC371699  33.004   6.611   5.553
10685POPC   PO471700  33.064   6.660   5.853
10685POPC   GL171701  33.054   6.675   6.153
10685POPC   GL271702  33.044   6.787   6.153
10685POPC   C1A71703  33.065   6.630   6.453
10685POPC   D2A71704  32.987   6.622   6.753
10685POPC   C3A71705  33.008   6.640   7.053
10685POPC   C4A71706  33.051   6.610   7.353
10685POPC   C1B71707  33.049   6.893   6.453
10685POPC   C2B71708  33.120   6.903   6.753
10685POPC   C3B71709  33.117   6.844   7.053
10685POPC   C4B71710  33.090   6.932   7.353
10686POPC   NC371711  22.150  14.423   5.553
10686POPC   PO471712  22.183  14.361   5.853
10686POPC   GL171713  22.184  14.418   6.153
10686POPC   GL271714  22.231  14.438   6.153
10686POPC   C1A71715  22.144  14.366   6.453
10686POPC   D2A71716  22.122  14.431   6.753
10686POPC   C3A71717  22.184  14.400   7.053
10686POPC   C4A71718  22.143  14.421   7.353
10686POPC   C1B71719  22.389  14.528   6.453
10686POPC   C2B71720  22.412  14.516   6.753
10686POPC   C3B71721  22.350  14.511   7.053
10686POPC   C4B71722  22.365  14.544   7.353
10687POPC   NC371723  43.117  33.001   5.553
10687POPC   PO471724  43.136  33.057   5.853
10687POPC   GL171725  43.124  33.062   6.153
10687POPC   GL271726  43.021  33.065   6.153
10687POPC   C1A71727  43.136  33.004   6.453
10687POPC   D2A71728  43.115  33.001   6.753
10687POPC   C3A71729  43.148  32.976   7.053
10687POPC   C4A71730  43.087  33.003   7.353
10687POPC   C1B71731  42.884  33.071   6.453
10687POPC   C2B71732  42.896  33.085   6.753
10687POPC   C3B71733  42.868  33.060   7.053
10687POPC   C4B71734  42.855  33.027   7.353
10688POPC   NC371735  33.014  17.514   5.553
10688POPC   PO471736  32.984  17.522   5.853
10688POPC   GL171737  33.038  17.554   6.153
10688POPC   GL271738  32.854  17.438   6.153
10688POPC   C1A71739  33.029  17.473   6.453
10688POPC   D2A71740  33.001  17.457   6.753
10688POPC   C3A71741  33.062  17.474   7.053
10688POPC   C4A71742  32.989  17.475   7.353
10688POPC   C1B71743  32.780  17.472   6.453
10688POPC   C2B71744  32.779  17.457   6.753
10688POPC   C3B71745  32.753  17.462   7.053
10688POPC   C4B71746  32.829  17.482   7.353
10689POPC   NC371747  40.762  41.573   5.553
10689POPC   PO471748  40.805  41.521   5.853
10689POPC   GL171749  40.805  41.590   6.153
10689POPC   GL271750  40.659  41.480   6.153
10689POPC   C1A71751  40.773  41.603   6.453
10689POPC   D2A71752  40.826  41.530   6.753
10689POPC   C3A71753  40.792  41.558   7.053
10689POPC   C4A71754  40.805  41.519   7.353
10689POPC   C1B71755  40.597  41.457   6.453
10689POPC   C2B71756  40.562  41.378   6.753
10689POPC   C3B71757  40.613  41.433   7.053
10689POPC   C4B71758  40.594  41.381   7.353
10690POPC   NC371759  43.869   4.366   5.553
10690POPC   PO471760  43.910   4.308   5.853
10690POPC   GL171761  43.861   4.303   6.153
10690POPC   GL271762  43.921   4.465   6.153
10690POPC   C1A71763  43.933   4.272   6.453
10690POPC   D2A71764  43.881   4.316   6.753
10690POPC   C3A71765  43.919   4.290   7.053
10690POPC   C4A71766  43.859   4.324   7.353
10690POPC   C1B71767  43.968   4.588   6.453
10690POPC   C2B71768  43.948   4.608   6.753
10690POPC   C3B71769  43.942   4.564   7.053
10690POPC   C4B71770  43.992   4.516   7.353
10691POPC   NC371771  36.861  17.544   5.553
10691POPC   PO471772  36.876  17.468   5.853
10691POPC   GL171773  36.898  17.553   6.153
10691POPC   GL271774  36.875  17.368   6.153
10691POPC   C1A71775  36.913  17.543   6.453
10691POPC   D2A71776  36.932  17.542   6.753
10691POPC   C3A71777  36.937  17.494   7.053
10691POPC   C4A71778  36.933  17.467   7.353
10691POPC   C1B71779  36.814  17.262   6.453
10691POPC   C2B71780  36.844  17.239   6.753
10691POPC   C3B71781  36.839  17.264   7.053
10691POPC   C4B71782  36.858  17.229   7.353
10692POPC   NC371783  26.057  15.906   5.553
10692POPC   PO471784  26.011  15.965   5.853
10692POPC   GL171785  26.027  15.911   6.153
10692POPC   GL271786  26.153  15.955   6.153
10692POPC   C1A71787  26.058  15.956   6.453
10692POPC   D2A71788  26.019  15.912   6.753
10692POPC   C3A71789  25.995  15.939   7.053
10692POPC   C4A71790  26.022  15.999   7.353
10692POPC   C1B71791  26.272  15.882   6.453
10692POPC   C2B71792  26.252  15.892   6.753
10692POPC   C3B71793  26.269  15.917   7.053
10692POPC   C4B71794  26.305  15.905   7.353
10693POPC   NC371795  35.335  20.627   5.553
10693POPC   PO471796  35.380  20.584   5.853
10693POPC   GL171797  35.313  20.649   6.153
10693POPC   GL271798  35.265  20.653   6.153
10693POPC   C1A71799  35.401  20.595   6.453
10693POPC   D2A71800  35.400  20.658   6.753
10693POPC   C3A71801  35.394  20.625   7.053
10693POPC   C4A71802  35.315  20.626   7.353
10693POPC   C1B71803  35.135  20.744   6.453
10693POPC   C2B71804  35.108  20.778   6.753
10693POPC   C3B71805  35.114  20.769   7.053
10693POPC   C4B71806  35.155  20.731   7.353
10694POPC   NC371807  27.550  28.354   5.553
10694POPC   PO471808  27.607  28.353   5.853
10694POPC   GL171809  27.625  28.325   6.153
10694POPC   GL271810  27.705  28.272   6.153
10694POPC   C1A71811  27.579  28.414   6.453
10694POPC   D2A71812  27.579  28.409   6.753
10694POPC   C3A71813  27.543  28.335   7.053
10694POPC   C4A71814  27.549  28.370   7.353
10694POPC   C1B71815  27.829  28.228   6.453
10694POPC   C2B71816  27.765  28.250   6.753
10694POPC   C3B71817  27.742  28.214   7.053
10694POPC   C4B71818  27.736  28.241   7.353
10695POPC   NC371819  33.010  31.468   5.553
10695POPC   PO471820  33.032  31.442   5.853
10695POPC   GL171821  33.039  31.494   6.153
10695POPC   GL271822  33.191  31.511   6.153
10695POPC   C1A71823  33.020  31.433   6.453
10695POPC   D2A71824  33.017  31.441   6.753
10695POPC   C3A71825  33.061  31.469   7.053
10695POPC   C4A71826  33.051  31.500   7.353
10695POPC   C1B71827  33.235  31.534   6.453
10695POPC   C2B71828  33.243  31.550   6.753
10695POPC   C3B71829  33.263  31.562   7.053
10695POPC   C4B71830  33.238  31.553   7.353
10696POPC   NC371831  43.917  17.520   5.553
10696POPC   PO471832  43.876  17.489   5.853
10696POPC   GL171833  43.917  17.500   6.153
10696POPC   GL271834  43.734  17.519   6.153
10696POPC   C1A71835  43.896  17.518   6.453
10696POPC   D2A71836  43.925  17.538   6.753
10696POPC   C3A71837  43.869  17.514   7.053
10696POPC   C4A71838  43.852  17.478   7.353
10696POPC   C1B71839  43.647  17.590   6.453
10696POPC   C2B71840  43.645  17.548   6.753
10696POPC   C3B71841  43.603  17.524   7.053
10696POPC   C4B71842  43.658  17.558   7.353
10697POPC   NC371843  11.319  30.690   5.553
10697POPC   PO471844  11.285  30.679   5.853
10697POPC   GL171845  11.274  30.691   6.153
10697POPC   GL271846  11.272  30.823   6.153
10697POPC   C1A71847  11.325  30.714   6.453
10697POPC   D2A71848  11.313  30.682   6.753
10697POPC   C3A71849  11.327  30.670   7.053
10697POPC   C4A71850  11.261  30.725   7.353
10697POPC   C1B71851  11.273  30.895   6.453
10697POPC   C2B71852  11.233  30.922   6.753
10697POPC   C3B71853  11.236  30.900   7.053
10697POPC   C4B71854  11.230  30.943   7.353
10698POPC   NC371855  43.153  35.390   5.553
10698POPC   PO471856  43.126  35.304   5.853
10698POPC   GL171857  43.072  35.335   6.153
10698POPC   GL271858  43.225  35.284   6.153
10698POPC   C1A71859  43.125  35.325   6.453
10698POPC   D2A71860  43.138  35.351   6.753
10698POPC   C3A71861  43.090  35.398   7.053
10698POPC   C4A71862  43.148  35.360   7.353
10698POPC   C1B71863  43.265  35.170   6.453
10698POPC   C2B71864  43.349  35.188   6.753
10698POPC   C3B71865  43.279  35.217   7.053
10698POPC   C4B71866  43.285  35.193   7.353
10699POPC   NC371867  29.150  12.035   5.553
10699POPC   PO471868  29.141  12.031   5.853
10699POPC   GL171869  29.187  12.066   6.153
10699POPC   GL271870  28.984  12.031   6.153
10699POPC   C1A71871  29.157  12.123   6.453
10699POPC   D2A71872  29.125  12.060   6.753
10699POPC   C3A71873  29.108  12.085   7.053
10699POPC   C4A71874  29.172  12.114   7.353
10699POPC   C1B71875  28.855  12.054   6.453
10699POPC   C2B71876  28.923  12.014   6.753
10699POPC   C3B71877  28.923  12.014   7.053
10699POPC   C4B71878  28.918  12.020   7.353
10700POPC   NC371879  29.129  12.807   5.553
10700POPC   PO471880  29.143  12.822   5.853
10700POPC   GL171881  29.189  12.859   6.153
10700POPC   GL271882  29.133  12.969   6.153
10700POPC   C1A71883  29.162  12.879   6.453
10700POPC   D2A71884  29.174  12.885   6.753
10700POPC   C3A71885  29.160  12.855   7.053
10700POPC   C4A71886  29.189  12.845   7.353
10700POPC   C1B71887  29.071  13.066   6.453
10700POPC   C2B71888  29.078  13.128   6.753
10700POPC   C3B71889  29.046  13.140   7.053
10700POPC   C4B71890  29.102  13.046   7.353
10701POPC   NC371891  14.452  43.899   5.553
10701POPC   PO471892  14.374  43.926   5.853
10701POPC   GL171893  14.371  43.886   6.153
10701POPC   GL271894  14.271  43.843   6.153
10701POPC   C1A71895  14.448  43.897   6.453
10701POPC   D2A71896  14.391  43.934   6.753
10701POPC   C3A71897  14.440  43.883   7.053
10701POPC   C4A71898  14.435  43.874   7.353
10701POPC   C1B71899  14.151  43.769   6.453
10701POPC   C2B71900  14.199  43.744   6.753
10701POPC   C3B71901  14.180  43.768   7.053
10701POPC   C4B71902  14.161  43.787   7.353
10702POPC   NC371903  43.112  40.002   5.553
10702POPC   PO471904  43.075  40.056   5.853
10702POPC   GL171905  43.083  39.987   6.153
10702POPC   GL271906  43.215  40.134   6.153
10702POPC   C1A71907  43.153  39.979   6.453
10702POPC   D2A71908  43.125  40.012   6.753
10702POPC   C3A71909  43.115  40.046   7.053
10702POPC   C4A71910  43.099  39.990   7.353
10702POPC   C1B71911  43.304  40.245   6.453
10702POPC   C2B71912  43.277  40.219   6.753
10702POPC   C3B71913  43.272  40.229   7.053
10702POPC   C4B71914  43.236  40.183   7.353
10703POPC   NC371915  32.239   2.735   5.553
10703POPC   PO471916  32.250   2.768   5.853
10703POPC   GL171917  32.230   2.792   6.153
10703POPC   GL271918  32.184   2.617   6.153
10703POPC   C1A71919  32.264   2.803   6.453
10703POPC   D2A71920  32.267   2.778   6.753
10703POPC   C3A71921  32.211   2.735   7.053
10703POPC   C4A71922  32.252   2.726   7.353
10703POPC   C1B71923  32.145   2.581   6.453
10703POPC   C2B71924  32.157   2.506   6.753
10703POPC   C3B71925  32.191   2.493   7.053
10703POPC   C4B71926  32.149   2.528   7.353
10704POPC   NC371927  28.346  32.996   5.553
10704POPC   PO471928  28.332  32.976   5.853
10704POPC   GL171929  28.410  33.027   6.153
10704POPC   GL271930  28.294  33.146   6.153
10704POPC   C1A71931  28.371  33.012   6.453
10704POPC   D2A71932  28.327  33.054   6.753
10704POPC   C3A71933  28.355  32.977   7.053
10704POPC   C4A71934  28.340  33.004   7.353
10704POPC   C1B71935  28.161  33.210   6.453
10704POPC   C2B71936  28.156  33.197   6.753
10704POPC   C3B71937  28.146  33.212   7.053
10704POPC   C4B71938  28.175  33.208   7.353
10705POPC   NC371939  43.844  24.493   5.553
10705POPC   PO471940  43.857  24.517   5.853
10705POPC   GL171941  43.848  24.452   6.153
10705POPC   GL271942  43.798  24.418   6.153
10705POPC   C1A71943  43.881  24.520   6.453
10705POPC   D2A71944  43.861  24.475   6.753
10705POPC   C3A71945  43.935  24.470   7.053
10705POPC   C4A71946  43.868  24.523   7.353
10705POPC   C1B71947  43.704  24.335   6.453
10705POPC   C2B71948  43.702  24.297   6.753
10705POPC   C3B71949  43.699  24.384   7.053
10705POPC   C4B71950  43.705  24.355   7.353
10706POPC   NC371951   2.029  12.091   5.553
10706POPC   PO471952   2.038  12.083   5.853
10706POPC   GL171953   2.035  12.089   6.153
10706POPC   GL271954   2.066  12.104   6.153
10706POPC   C1A71955   1.959  12.060   6.453
10706POPC   D2A71956   1.982  12.051   6.753
10706POPC   C3A71957   1.966  12.077   7.053
10706POPC   C4A71958   1.981  12.091   7.353
10706POPC   C1B71959   2.190  12.166   6.453
10706POPC   C2B71960   2.266  12.138   6.753
10706POPC   C3B71961   2.191  12.120   7.053
10706POPC   C4B71962   2.221  12.151   7.353
10707POPC   NC371963   4.294  22.935   5.553
10707POPC   PO471964   4.358  22.973   5.853
10707POPC   GL171965   4.359  22.947   6.153
10707POPC   GL271966   4.273  22.877   6.153
10707POPC   C1A71967   4.293  22.890   6.453
10707POPC   D2A71968   4.288  22.908   6.753
10707POPC   C3A71969   4.278  22.926   7.053
10707POPC   C4A71970   4.310  22.944   7.353
10707POPC   C1B71971   4.189  22.709   6.453
10707POPC   C2B71972   4.156  22.715   6.753
10707POPC   C3B71973   4.158  22.711   7.053
10707POPC   C4B71974   4.213  22.762   7.353
10708POPC   NC371975  32.988  36.156   5.553
10708POPC   PO471976  33.007  36.088   5.853
10708POPC   GL171977  32.987  36.123   6.153
10708POPC   GL271978  33.018  35.974   6.153
10708POPC   C1A71979  32.991  36.099   6.453
10708POPC   D2A71980  33.007  36.091   6.753
10708POPC   C3A71981  33.028  36.138   7.053
10708POPC   C4A71982  33.034  36.082   7.353
10708POPC   C1B71983  33.084  35.847   6.453
10708POPC   C2B71984  33.098  35.880   6.753
10708POPC   C3B71985  33.049  35.909   7.053
10708POPC   C4B71986  33.021  35.927   7.353
10709POPC   NC371987  29.888  36.886   5.553
10709POPC   PO471988  29.929  36.881   5.853
10709POPC   GL171989  29.954  36.895   6.153
10709POPC   GL271990  29.868  37.002   6.153
10709POPC   C1A71991  29.909  36.937   6.453
10709POPC   D2A71992  29.886  36.918   6.753
10709POPC   C3A71993  29.901  36.945   7.053
10709POPC   C4A71994  29.910  36.949   7.353
10709POPC   C1B71995  29.735  37.051   6.453
10709POPC   C2B71996  29.710  37.089   6.753
10709POPC   C3B71997  29.773  37.025   7.053
10709POPC   C4B71998  29.696  37.103   7.353
10710POPC   NC371999  13.642   9.740   5.553
10710POPC   PO472000  13.580   9.752   5.853
10710POPC   GL172001  13.652   9.710   6.153
10710POPC   GL272002  13.621   9.644   6.153
10710POPC   C1A72003  13.670   9.768   6.453
10710POPC   D2A72004  13.596   9.720   6.753
10710POPC   C3A72005  13.601   9.792   7.053
10710POPC   C4A72006  13.593   9.737   7.353
10710POPC   C1B72007  13.670   9.493   6.453
10710POPC   C2B72008  13.624   9.487   6.753
10710POPC   C3B72009  13.678   9.488   7.053
10710POPC   C4B72010  13.664   9.540   7.353
10711POPC   NC372011  11.276  10.515   5.553
10711POPC   PO472012  11.322  10.556   5.853
10711POPC   GL172013  11.345  10.527   6.153
10711POPC   GL272014  11.300  10.661   6.153
10711POPC   C1A72015  11.276  10.569   6.453
10711POPC   D2A72016  11.329  10.561   6.753
10711POPC   C3A72017  11.267  10.555   7.053
10711POPC   C4A72018  11.274  10.496   7.353
10711POPC   C1B72019  11.363  10.775   6.453
10711POPC   C2B72020  11.367  10.745   6.753
10711POPC   C3B72021  11.354  10.757   7.053
10711POPC   C4B72022  11.342  10.808   7.353
10712W        W72023  26.516  17.770   2.244
10713W        W72024  37.363  25.572  10.897
10714W        W72025  12.136  33.496   4.760
10715W        W72026  28.647  36.906  13.978
10716W        W72027  18.599   2.921  14.911
10717W        W72028  19.182  41.789  14.371
10718W        W72029  16.285  14.801  13.466
10719W        W72030  44.397  42.370   3.362
10720W        W72031   6.209   6.320  11.538
10721W        W72032  41.523   0.383   2.826
10722W        W72033   9.825  31.018  12.458
10723W        W72034  30.560  12.645  12.419
10724W        W72035  18.552  10.367   2.798
10725W        W72036  16.177  15.824  12.872
10726W        W72037  11.176  14.304  14.287
10727W        W72038  32.979  35.579  13.329
10728W        W72039  24.603  13.661   2.870
10729W        W72040  39.361  35.000   2.869
10730W        W72041   7.185  11.694   1.429
10731W        W72042   4.248   6.258   4.267
10732W        W72043  24.110  30.435  14.854
10733W        W72044  44.996   5.429  14.771
10734W        W72045  16.783  30.578  12.835
10735W        W72046  36.521  15.086   1.370
10736W        W72047  24.063  20.258   0.874
10737W        W72048  42.932  42.345   0.346
10738W        W72049  44.769  40.834  12.837
10739W        W72050  13.241  14.194   4.610
10740W        W72051  31.017  29.576   0.326
10741W        W72052  23.207  41.416   1.905
10742W        W72053  19.162  35.588   3.735
10743W        W72054  22.006  24.693   1.309
10744W        W72055   5.900  30.062  11.934
10745W        W72056   1.452  18.692   3.643
10746W        W72057  37.860  35.408   4.311
10747W        W72058   7.786  41.359  14.455
10748W        W72059  17.263  22.717  13.416
10749W        W72060  17.295  16.641  10.131
10750W        W72061  40.543  18.122   3.152
10751W        W72062  41.449  27.064  13.528
10752W        W72063  38.362  11.756  14.007
10753W        W72064   5.883  23.613  11.944
10754W        W72065  43.459   6.203   2.788
10755W        W72066   6.427   0.826   1.768
10756W        W72067  29.483  39.555  14.391
10757W        W72068  20.199  31.546  14.503
10758W        W72069   2.464  27.597  10.521
10759W        W72070  20.253   2.967   3.280
10760W        W72071  27.173   7.414   1.876
10761W        W72072  26.966   2.270   1.788
10762W        W72073  36.955  14.657   3.168
10763W        W72074  21.048  25.621   2.408
10764W        W72075   7.245  13.210   0.410
10765W        W72076  40.358  13.302  13.973
10766W        W72077  23.583  17.661   1.868
10767W        W72078   1.879  35.955   4.143
10768W        W72079  14.281  33.522   0.291
10769W        W72080  18.093   8.780  13.938
10770W        W72081  19.055  22.215  10.586
10771W        W72082   9.237   9.273   4.725
10772W        W72083  24.104  21.707  10.529
10773W        W72084  13.305   6.697   1.730
10774W        W72085  21.236  41.505   4.166
10775W        W72086   0.963  12.756   0.362
10776W        W72087  43.826  28.608  14.289
10777W        W72088  32.120   9.244   3.853
10778W        W72089  29.068   8.786  12.838
10779W        W72090  13.179  17.084   5.265
10780W        W72091  40.499  39.485   3.647
10781W        W72092   0.455  20.232  12.057
10782W        W72093   7.910   6.821   4.130
10783W        W72094   0.813  29.434   0.784
10784W        W72095   0.787  16.772   0.288
10785W        W72096  41.988  26.005  12.944
10786W        W72097  11.343   3.238   3.354
10787W        W72098  35.558  12.339  12.034
10788W        W72099   2.365  41.353  12.467
10789W        W72100   2.270  19.072  11.067
10790W        W72101  16.720  32.039  14.301
10791W        W72102  42.918  43.443  13.537
10792W        W72103  30.460  37.891   4.272
10793W        W72104  15.673  29.439  13.029
10794W        W72105  18.094  18.785  13.482
10795W        W72106  13.749  36.430  12.483
10796W        W72107   4.324   1.440  12.865
10797W        W72108  33.888   3.941   1.710
10798W        W72109  31.081  24.706  13.025
10799W        W72110   6.403   2.921  11.038
10800W        W72111  31.517  34.939  10.448
10801W        W72112   2.301   2.934   3.231
10802W        W72113  15.764  43.832  12.561
10803W        W72114  30.138  29.577  13.881
10804W        W72115  34.954  41.415   4.622
10805W        W72116  21.067  12.225  11.477
10806W        W72117  35.041   2.236   1.306
10807W        W72118   1.365  28.005  14.029
10808W        W72119  23.159  17.765  10.921
10809W        W72120  29.053   1.296  11.894
10810W        W72121  12.123  11.162  13.307
10811W        W72122  19.042   4.428  12.043
10812W        W72123  31.560  34.987  12.087
10813W        W72124  29.172  33.494  11.865
10814W        W72125  28.956  23.734   1.300
10815W        W72126  17.657   4.396   1.422
10816W        W72127  38.464  19.122  12.421
10817W        W72128  19.762  32.999   1.755
10818W        W72129  19.071  14.715   3.771
10819W        W72130  13.719  42.965  14.413
10820W        W72131   9.258   1.376  13.988
10821W        W72132  38.026   1.290  12.959
10822W        W72133  33.435  35.918   4.765
10823W        W72134  31.152   3.251   1.307
10824W        W72135  28.988  26.099  13.418
10825W        W72136  42.468  17.173   2.754
10826W        W72137   9.228  11.656   0.406
10827W        W72138  12.714  14.814  12.987
10828W        W72139   9.739   7.334  12.963
10829W        W72140  43.783  33.905  12.008
10830W        W72141  38.878  23.682  13.389
10831W        W72142  37.965  26.636  10.920
10832W        W72143  38.465  21.686  13.411
10833W        W72144  21.156  33.960  12.381
10834W        W72145  37.518  35.911   5.264
10835W        W72146   1.807  40.351   2.792
10836W        W72147  21.601  13.838   4.716
10837W        W72148  34.479  30.039   2.759
10838W        W72149  25.181  43.910   2.900
10839W        W72150  10.159  26.686  13.828
10840W        W72151  35.412  19.189  13.873
10841W        W72152  41.537  18.660   5.097
10842W        W72153  22.703  33.596  14.839
10843W        W72154  22.207  43.961   4.202
10844W        W72155  37.889  32.405  11.088
10845W        W72156   2.756  19.109  12.392
10846W        W72157  40.384  16.625  13.905
10847W        W72158   1.941  24.554  12.871
10848W        W72159  15.715   2.891  14.031
10849W        W72160   3.337  17.154  11.424
10850W        W72161  22.724  33.034   3.287
10851W        W72162   5.819   8.753  12.480
10852W        W72163   2.764  24.199   0.290
10853W        W72164   5.221  18.561   0.322
10854W        W72165  38.481  37.883   4.318
10855W        W72166   6.199  26.029  10.511
10856W        W72167  36.022  10.148   3.684
10857W        W72168  26.659  37.023  11.411
10858W        W72169  40.010  36.845  10.638
10859W        W72170   1.793   3.257   1.347
10860W        W72171  10.156  12.784   2.813
10861W        W72172  12.282  14.330   0.481
10862W        W72173  32.424  36.887  12.342
10863W        W72174   0.825  25.141   2.281
10864W        W72175   4.770  26.495  12.552
10865W        W72176  12.362  42.827   3.151
10866W        W72177  10.781  22.711   1.358
10867W        W72178  37.004  39.366   0.775
10868W        W72179  43.348  44.342   2.332
10869W        W72180   0.298   9.741   4.193
10870W        W72181   8.169   8.322   0.818
10871W        W72182  17.688  26.644   1.390
10872W        W72183  36.013  42.383   1.412
10873W        W72184  18.237  43.802  11.378
10874W        W72185  32.559  26.083   4.140
10875W        W72186  40.040  27.548   1.215
10876W        W72187   8.354  21.035   2.288
10877W        W72188  22.094  30.524   3.696
10878W        W72189  42.781   6.263  11.088
10879W        W72190  41.475  35.004   4.251
10880W        W72191  11.706  27.104   4.659
10881W        W72192  31.944   5.257   9.552
10882W        W72193  37.364  42.332  12.046
10883W        W72194  37.467  12.632  13.407
10884W        W72195   7.393  42.897   1.887
10885W        W72196  10.856  16.798  14.869
10886W        W72197  18.292   0.787  14.490
10887W        W72198  44.451  44.902  11.041
10888W        W72199  44.953  21.263  11.507
10889W        W72200  10.234  29.093   2.327
10890W        W72201  31.535   1.339  13.344
10891W        W72202  42.915  44.316   5.239
10892W        W72203  24.198  42.786   5.106
10893W        W72204  15.597  28.528  10.554
10894W        W72205  36.998   2.779   0.437
10895W        W72206  17.658   9.651  13.864
10896W        W72207  26.606  26.205   3.791
10897W        W72208  11.255   3.305   3.688
10898W        W72209   9.350  32.982   1.261
10899W        W72210  44.472  21.716   0.386
10900W        W72211   3.339  21.051  12.468
10901W        W72212  25.617  30.623  13.949
10902W        W72213  41.480  26.961   0.949
10903W        W72214  17.642   3.878  10.644
10904W        W72215  44.970  38.347  14.763
10905W        W72216  10.795  38.423   0.908
10906W        W72217  17.771  10.268   2.410
10907W        W72218  35.466  24.990  12.542
10908W        W72219  43.782   8.892   4.280
10909W        W72220  24.694  33.936  11.869
10910W        W72221  40.448  17.757  10.991
10911W        W72222  33.120  30.516   1.314
10912W        W72223  15.139   3.320  11.021
10913W        W72224  43.782  37.072  12.856
10914W        W72225  30.971  35.957  14.877
10915W        W72226  44.440   4.395  13.903
10916W        W72227   6.402  41.030   0.350
10917W        W72228  22.154  43.326  14.945
10918W        W72229   8.396  44.501   3.369
10919W        W72230  11.711  37.960  14.368
10920W        W72231  39.936  16.779  11.930
10921W        W72232  10.277  29.968  14.446
10922W        W72233   6.201   8.359   3.793
10923W        W72234   8.255  42.825  11.590
10924W        W72235  26.006  24.217   4.757
10925W        W72236  44.481  23.612  12.950
10926W        W72237   0.950   4.281  14.433
10927W        W72238  24.096  11.689   2.797
10928W        W72239   7.405  37.939   2.411
10929W        W72240  28.169   8.851  12.444
10930W        W72241   1.388   3.885   2.900
10931W        W72242  11.225   2.775  13.917
10932W        W72243  28.176   9.716   2.373
10933W        W72244  31.486  14.153   1.833
10934W        W72245   3.285  27.595  10.530
10935W        W72246  15.307  20.119  13.347
10936W        W72247  37.070  14.212  11.007
10937W        W72248   9.819  20.608  13.010
10938W        W72249  31.940  44.417  14.347
10939W        W72250   6.335   8.354   4.207
10940W        W72251  22.501   9.383  11.997
10941W        W72252  38.477  19.601   2.316
10942W        W72253  22.663  12.831  13.844
10943W        W72254  12.834  31.129  10.908
10944W        W72255  11.298  40.513   3.787
10945W        W72256   4.365  31.508   4.117
10946W        W72257  26.128   2.235  13.940
10947W        W72258   2.254  42.911  14.411
10948W        W72259  20.061  29.090  10.540
10949W        W72260  12.674  12.712  12.849
10950W        W72261  32.994  41.389   1.921
10951W        W72262  17.073  34.530  14.407
10952W        W72263   8.795  20.229   4.191
10953W        W72264  34.903  12.136  11.115
10954W        W72265  27.521  32.499   0.822
10955W        W72266  24.128  43.513   3.788
10956W        W72267   3.937   9.313   2.852
10957W        W72268  22.039  38.953   0.870
10958W        W72269  10.842  35.999   1.851
10959W        W72270  40.317  31.571   5.213
10960W        W72271  20.672   8.371  10.439
10961W        W72272  13.271   3.750   9.620
10962W        W72273  31.583  27.117  10.929
10963W        W72274  17.206   6.256   1.325
10964W        W72275   6.278   7.795   4.762
10965W        W72276  30.999  41.893  10.505
10966W        W72277  14.119  27.574   5.228
10967W        W72278  12.782  11.713  11.894
10968W        W72279  38.833  35.937   2.245
10969W        W72280  27.635   1.472  11.448
10970W        W72281  18.635  20.100   0.797
10971W        W72282  29.543   6.783  13.003
10972W        W72283  31.425   5.401   5.699
10973W        W72284  23.117  23.662   4.782
10974W        W72285  31.597  29.131  14.027
10975W        W72286   5.423  43.415  12.406
10976W        W72287   1.915  42.459   2.349
10977W        W72288   7.193  34.934   3.813
10978W        W72289  36.355  39.373  11.962
10979W        W72290   0.481   3.771  10.639
10980W        W72291  21.701  41.864  11.605
10981W        W72292  31.046  44.907  13.391
10982W        W72293  30.003  27.463  12.888
10983W        W72294  33.978  18.603   1.297
10984W        W72295  32.010  16.167  12.365
10985W        W72296  29.042  13.331   1.283
10986W        W72297  33.458   1.390   1.296
10987W        W72298  34.441  17.145  10.564
10988W        W72299   8.211   4.852  10.435
10989W        W72300  43.304   0.446  14.800
10990W        W72301   3.305  28.537   4.245
10991W        W72302  32.480  10.381   1.242
10992W        W72303  16.772  35.109  14.441
10993W        W72304  36.358  41.950  10.426
10994W        W72305  26.165  14.108   4.185
10995W        W72306  42.828   0.310  10.643
10996W        W72307  19.611  44.922   4.188
10997W        W72308  14.594   2.468   4.115
10998W        W72309  35.997  36.990  13.528
10999W        W72310  44.908  20.596  11.557
11000W        W72311  36.367  34.874  13.420
11001W        W72312  11.659  15.278   0.276
11002W        W72313   7.311  14.313   5.159
11003W        W72314  16.630  43.445  11.060
11004W        W72315  43.993  38.402  13.841
11005W        W72316  14.106  13.217  14.885
11006W        W72317  27.653  30.094  11.862
11007W        W72318  40.408   1.767  11.596
11008W        W72319  29.448  19.612   4.679
11009W        W72320  19.564  15.742   4.654
11010W        W72321  25.710  13.218   1.702
11011W        W72322  17.649  12.236  11.953
11012W        W72323  19.539  42.296  14.451
11013W        W72324  25.062  39.997  12.371
11014W        W72325   5.309  42.329  12.081
11015W        W72326   7.857  28.087  11.570
11016W        W72327   0.935  26.030   3.866
11017W        W72328  28.619  27.601   1.223
11018W        W72329  25.968  11.650   2.807
11019W        W72330  14.653  21.097  12.481
11020W        W72331  18.134   3.780   0.766
11021W        W72332   8.254  20.579   1.263
11022W        W72333  41.878  18.175  12.860
11023W        W72334   6.676   5.362  11.933
11024W        W72335  40.349  20.189   1.247
11025W        W72336  18.742  18.259  12.351
11026W        W72337  39.533  24.168  13.838
11027W        W72338  17.224  31.647  11.063
11028W        W72339  41.017  21.545   1.918
11029W        W72340  36.417  22.173  11.122
11030W        W72341  18.260   0.307  10.966
11031W        W72342   0.750  18.688  11.099
11032W        W72343  19.261  22.155  11.037
11033W        W72344  25.468  39.354  13.407
11034W        W72345  33.399  29.999   4.671
11035W        W72346  44.271  31.036   3.324
11036W        W72347  35.401  30.082   9.962
11037W        W72348   6.395  28.999   1.808
11038W        W72349   3.759  30.562   5.090
11039W        W72350  16.191  28.970  12.369
11040W        W72351  17.707   4.246  12.476
11041W        W72352  16.691  29.137  13.051
11042W        W72353  35.064  39.531   2.671
11043W        W72354  15.126  42.784  14.916
11044W        W72355  26.490  39.835   3.181
11045W        W72356  15.620   2.874  10.159
11046W        W72357  22.692  38.875   3.772
11047W        W72358  33.899  13.607  13.424
11048W        W72359  27.030  44.306  14.921
11049W        W72360  11.709  12.677  13.986
11050W        W72361  22.036  19.226   2.391
11051W        W72362   2.742  21.689  12.549
11052W        W72363  27.551   4.764   1.702
11053W        W72364   6.276  16.234  11.024
11054W        W72365  10.690   3.871   0.388
11055W        W72366   8.367  10.859   3.865
11056W        W72367  24.200  28.147  14.331
11057W        W72368  30.418  24.574  12.550
11058W        W72369   0.745   7.710   0.941
11059W        W72370  27.560  39.459  14.328
11060W        W72371   2.241  14.241  13.338
11061W        W72372  23.700  33.054  10.969
11062W        W72373  33.524  32.428   0.454
11063W        W72374  17.726   0.451   4.694
11064W        W72375  12.182  10.778   4.142
11065W        W72376  11.324  24.544  12.989
11066W        W72377  34.413  33.574  12.488
11067W        W72378   7.416  20.590   0.961
11068W        W72379  43.304  18.131  10.943
11069W        W72380  26.978  32.890   2.677
11070W        W72381  29.517  42.940  12.366
11071W        W72382  11.827  12.833  11.593
11072W        W72383   3.835   2.288   2.724
11073W        W72384   0.763   5.718  14.364
11074W        W72385  20.564  10.754   1.810
11075W        W72386  32.522  26.538  13.957
11076W        W72387  25.712  10.273  11.525
11077W        W72388  34.416  30.019   0.385
11078W        W72389  29.972  18.742  11.104
11079W        W72390  11.676  44.829  11.984
11080W        W72391  39.937  42.823   3.715
11081W        W72392   9.795  22.243  11.430
11082W        W72393  23.496  38.840  12.861
11083W        W72394  37.468  16.082  13.960
11084W        W72395  37.047   3.234   1.339
11085W        W72396  41.428   0.752   4.746
11086W        W72397   8.272  21.712  10.613
11087W        W72398   5.817  15.194  12.995
11088W        W72399  31.422   2.724  13.934
11089W        W72400   4.818   4.755   1.697
11090W        W72401  31.573  27.990   0.365
11091W        W72402  43.957  41.523  12.910
11092W        W72403   2.859  16.573  10.439
11093W        W72404  35.575  35.094   4.599
11094W        W72405  29.469   6.414  10.918
11095W        W72406  40.939  28.154  11.471
11096W        W72407  19.617  40.444  14.824
11097W        W72408  42.299  41.010  14.020
11098W        W72409  27.494  12.620   0.436
11099W        W72410  12.297  37.077  13.372
11100W        W72411  36.903  18.269  12.892
11101W        W72412  39.871   0.758   3.679
11102W        W72413   3.368  10.292   4.664
11103W        W72414   3.776  18.571   4.239
11104W        W72415  34.472  24.160   3.763
11105W        W72416  25.054  31.480   1.360
11106W        W72417  16.813  40.512  11.955
11107W        W72418  12.842  22.209   4.140
11108W        W72419   3.447  43.270  11.478
11109W        W72420  37.060  12.733  12.071
11110W        W72421  22.219  30.953  10.136
11111W        W72422  10.815  23.496  13.505
11112W        W72423   8.387  21.734   3.630
11113W        W72424  12.202  37.986   2.283
11114W        W72425  37.464   9.788  13.422
11115W        W72426  41.377  41.022  14.483
11116W        W72427  14.795  44.382  10.055
11117W        W72428  26.506  44.773  11.600
11118W        W72429   7.910  28.954   3.228
11119W        W72430   6.811  10.369  14.505
11120W        W72431  31.488  39.533  13.825
11121W        W72432  35.953  40.472  14.891
11122W        W72433  13.605  31.066  10.910
11123W        W72434  29.021   3.759   5.682
11124W        W72435  25.712  29.143   4.637
11125W        W72436  40.414  13.146   1.369
11126W        W72437  35.496  15.642  11.460
11127W        W72438  32.969  26.124   2.310
11128W        W72439  44.331  18.647   1.355
11129W        W72440  40.994  22.219   2.781
11130W        W72441  38.348  15.739   0.844
11131W        W72442  31.628  31.554  12.878
11132W        W72443  28.176   2.859   3.642
11133W        W72444  30.130  40.356  11.017
11134W        W72445  15.189  37.041  11.005
11135W        W72446  13.294  22.065   0.924
11136W        W72447  25.579  38.423   4.220
11137W        W72448  14.648   1.424   3.654
11138W        W72449  39.484  29.166  10.475
11139W        W72450  40.334  41.440   1.904
11140W        W72451  43.794  40.521  12.450
11141W        W72452  21.756  31.003   3.224
11142W        W72453  14.601  31.025  14.856
11143W        W72454   1.851  42.950   4.667
11144W        W72455  19.114  16.241   3.259
11145W        W72456  21.606  25.701  10.626
11146W        W72457   1.461  22.690   0.318
11147W        W72458  33.029  12.636  14.442
11148W        W72459   6.825  20.580  13.003
11149W        W72460  28.655  28.576  12.077
11150W        W72461  36.077  26.168  14.803
11151W        W72462  23.207  40.460   0.824
11152W        W72463  15.223  42.318  14.472
11153W        W72464  40.825  37.384   3.383
11154W        W72465  30.987  15.782  12.516
11155W        W72466  33.546  37.911   3.738
11156W        W72467  17.566  28.444   3.812
11157W        W72468  30.949  24.994   2.838
11158W        W72469  30.060   7.394   2.239
11159W        W72470  12.854  18.139  14.473
11160W        W72471  33.061  38.471   0.255
11161W        W72472  20.233  22.252   1.300
11162W        W72473   2.964  39.050   1.805
11163W        W72474  43.940  32.046  10.078
11164W        W72475  26.677  30.031  13.320
11165W        W72476  10.290  44.985   1.918
11166W        W72477  33.557   5.404   2.894
11167W        W72478   7.810  12.799   5.301
11168W        W72479   1.753  10.180  13.387
11169W        W72480   4.339  12.811  12.381
11170W        W72481  13.184  19.583   2.716
11171W        W72482  30.581   1.290  13.947
11172W        W72483  39.852  25.644   4.167
11173W        W72484  22.666   3.733   2.265
11174W        W72485  41.837   5.798  13.986
11175W        W72486   4.915  16.591  14.830
11176W        W72487  44.400  16.692  14.888
11177W        W72488  26.134   5.793  13.460
11178W        W72489  21.548  20.746   0.925
11179W        W72490   2.843  23.218   0.894
11180W        W72491  30.511   1.768   4.694
11181W        W72492   6.850  42.999   2.901
11182W        W72493  42.306  19.623   0.887
11183W        W72494  44.900  19.131  10.535
11184W        W72495  29.002  27.156  12.458
11185W        W72496   5.201  39.915  11.005
11186W        W72497  18.267   6.252  10.405
11187W        W72498  40.964  29.609  13.950
11188W        W72499   6.846  35.994   4.774
11189W        W72500   1.971  36.494   1.237
11190W        W72501   8.676   6.897   2.837
11191W        W72502  38.361  37.373   2.678
11192W        W72503  17.654   3.740  12.575
11193W        W72504  15.139  39.381  14.293
11194W        W72505  11.372  41.855   4.239
11195W        W72506  29.458  40.384  14.813
11196W        W72507  36.553   5.717  12.555
11197W        W72508  20.221  12.800  14.834
11198W        W72509  12.179  29.508  11.434
11199W        W72510  37.962  23.112   3.366
11200W        W72511   1.270  24.503  10.552
11201W        W72512  10.686  29.670   2.694
11202W        W72513   2.461  44.390  14.277
11203W        W72514   0.491  26.132  12.054
11204W        W72515  23.100  24.701  12.542
11205W        W72516   5.906  35.096   1.227
11206W        W72517  40.002  23.619  14.445
11207W        W72518  14.654  15.140   1.882
11208W        W72519  14.805   8.374   2.403
11209W        W72520  27.639  32.618  12.432
11210W        W72521   1.431   5.831   4.268
11211W        W72522   4.286  16.298   3.864
11212W        W72523   9.811   9.867  10.592
11213W        W72524  21.708  29.962   2.799
11214W        W72525  34.931  42.919  12.852
11215W        W72526  32.027  16.226   3.815
11216W        W72527  40.990  11.186   0.398
11217W        W72528  12.222  27.963  12.048
11218W        W72529   1.871  34.035   4.245
11219W        W72530  21.705   6.286   1.807
11220W        W72531  33.602  32.958   3.171
11221W        W72532  28.664  42.984   2.396
11222W        W72533   6.799  21.573  11.587
11223W        W72534  41.453   5.881   3.694
11224W        W72535  43.996   0.810   3.681
11225W        W72536  29.566   6.187  10.416
11226W        W72537  39.371   4.328   0.371
11227W        W72538   1.404  39.401   3.147
11228W        W72539   8.804  26.632   0.947
11229W        W72540  41.036  16.692  13.849
11230W        W72541  35.856  23.183  13.541
11231W        W72542  25.629  14.703   3.665
11232W        W72543  22.543   4.888   4.259
11233W        W72544   1.776  43.898   1.313
11234W        W72545  24.679  18.101  14.490
11235W        W72546   9.253   1.901   3.205
11236W        W72547   8.186  24.140  12.096
11237W        W72548  10.229   4.730  13.427
11238W        W72549  43.448  28.062   2.184
11239W        W72550  16.079  33.539   4.113
11240W        W72551  19.077  34.494  13.816
11241W        W72552  39.928  35.928  12.971
11242W        W72553  42.497  43.467  13.315
11243W        W72554  41.367  14.219  14.970
11244W        W72555  16.088  42.977   4.671
11245W        W72556   3.404   8.401  13.981
11246W        W72557   0.259  39.328  12.482
11247W        W72558  36.065  35.559  14.882
11248W        W72559  33.995   2.295   0.957
11249W        W72560  25.112  18.604  13.374
11250W        W72561  10.346  37.927  11.536
11251W        W72562  44.271  41.500   4.670
11252W        W72563  28.595  10.813  12.386
11253W        W72564  18.244  43.447   4.776
11254W        W72565  15.606   9.736   0.892
11255W        W72566   5.726  34.921   4.310
11256W        W72567   2.884  29.525  13.362
11257W        W72568  31.968  15.632   0.855
11258W        W72569  28.027  13.703  11.414
11259W        W72570  12.249  24.191  11.015
11260W        W72571  34.540  22.671  14.362
11261W        W72572   2.766  34.564  13.927
11262W        W72573   3.916  21.712   3.188
11263W        W72574  40.915  15.199  13.355
11264W        W72575  15.277  40.957   3.632
11265W        W72576  26.057  36.577  14.987
11266W        W72577  33.908   5.721  11.591
11267W        W72578   2.836  11.697   4.645
11268W        W72579  42.368  34.555   0.325
11269W        W72580  28.954   8.230  11.402
11270W        W72581   8.705  33.519  14.497
11271W        W72582  26.514   9.835  11.521
11272W        W72583  14.298   9.644   0.938
11273W        W72584  23.052  11.323   0.297
11274W        W72585   1.481  14.614  14.305
11275W        W72586  25.078  31.506   2.406
11276W        W72587  31.049  42.024  11.509
11277W        W72588  37.391  28.538  13.442
11278W        W72589  31.107   5.209   5.776
11279W        W72590  26.981  15.820   4.247
11280W        W72591  11.724  43.853  12.001
11281W        W72592  31.597  42.436   1.918
11282W        W72593  12.843  31.932  13.510
11283W        W72594  27.468  17.288  10.521
11284W        W72595  14.200  44.789   0.357
11285W        W72596  23.649  29.159   4.738
11286W        W72597  27.449  33.081   0.893
11287W        W72598  37.911  35.855   2.731
11288W        W72599  42.943  41.891   2.327
11289W        W72600  37.539  30.586  13.052
11290W        W72601  38.347   8.876  10.909
11291W        W72602   5.893   2.955   0.770
11292W        W72603  40.456   3.456   1.272
11293W        W72604  34.992   3.219  14.936
11294W        W72605   8.836  29.126  11.860
11295W        W72606  42.313  22.650  13.034
11296W        W72607  24.039  13.739   3.830
11297W        W72608  42.983   7.789   2.210
11298W        W72609  27.093  12.622   1.768
11299W        W72610  24.704  22.704  13.830
11300W        W72611   1.452  21.577  14.289
11301W        W72612  13.686  32.589   2.849
11302W        W72613  33.091   0.875  13.970
11303W        W72614  21.564  35.967   3.384
11304W        W72615  36.420   8.262  12.491
11305W        W72616  26.961  34.865   3.280
11306W        W72617  38.523  24.075  13.011
11307W        W72618  21.077  44.387  11.089
11308W        W72619  44.379  19.706  10.077
11309W        W72620  11.671   1.941   4.653
11310W        W72621  42.283  30.634  13.444
11311W        W72622  16.754   2.385  13.830
11312W        W72623   0.453  37.339  14.836
11313W        W72624  33.993  35.524   1.373
11314W        W72625   6.905  31.463   4.731
11315W        W72626  37.867  20.544  14.023
11316W        W72627  42.461  37.084   4.324
11317W        W72628   6.332  39.336   1.761
11318W        W72629  39.922   4.891   2.760
11319W        W72630  10.658   1.867  14.877
11320W        W72631  35.063  30.913  12.073
11321W        W72632  11.204   7.384   3.272
11322W        W72633   0.248  34.537   3.752
11323W        W72634   2.762  13.145   3.231
11324W        W72635  30.535  18.627   1.253
11325W        W72636  28.635   6.181   3.638
11326W        W72637  29.479  10.845   2.890
11327W        W72638  29.667  29.077  10.415
11328W        W72639  43.789  24.009  13.938
11329W        W72640  32.998  33.886   4.792
11330W        W72641  40.360   0.473  14.437
11331W        W72642  24.501  11.223   1.711
11332W        W72643  42.472  40.485   3.696
11333W        W72644  37.085   7.775  10.998
11334W        W72645  42.326  27.508  14.944
11335W        W72646  23.045  28.123  11.041
11336W        W72647  10.183  34.563   0.934
11337W        W72648  43.853   4.726   0.930
11338W        W72649  35.019  18.665   1.864
11339W        W72650  19.549  34.020   3.234
11340W        W72651   2.255  11.195  11.007
11341W        W72652  41.530  23.616   1.905
11342W        W72653   5.774   3.360   5.314
11343W        W72654  29.962  14.698  11.869
11344W        W72655  26.110   8.302   2.387
11345W        W72656   4.718  26.548   1.275
11346W        W72657   1.792   4.844   4.787
11347W        W72658   9.196   6.755   3.369
11348W        W72659  15.767  28.997   5.265
11349W        W72660  14.148   3.736  13.524
11350W        W72661  21.091  42.514  12.503
11351W        W72662  25.107  37.492   0.755
11352W        W72663   8.246  42.897  13.311
11353W        W72664  40.446  41.518  10.041
11354W        W72665  17.689  26.520  11.417
11355W        W72666  17.198  26.029  12.833
11356W        W72667   5.841  32.091  11.496
11357W        W72668  21.162  27.961  13.547
11358W        W72669  39.434   1.751  11.902
11359W        W72670  22.174  10.188  14.463
11360W        W72671  25.667  21.190   1.864
11361W        W72672  30.425  37.986   3.719
11362W        W72673  37.988   9.718   2.411
11363W        W72674   5.834  42.904   4.250
11364W        W72675  42.388  27.588  13.411
11365W        W72676  29.957  21.635  14.031
11366W        W72677  10.229  39.980   0.824
11367W        W72678   9.311  29.543   3.790
11368W        W72679  23.570  43.410  12.895
11369W        W72680  40.444  38.570   0.284
11370W        W72681  35.065  20.032  14.941
11371W        W72682  43.477  23.542  14.283
11372W        W72683  35.510  23.561   1.710
11373W        W72684  14.806  41.362   0.942
11374W        W72685  28.984  38.394   3.788
11375W        W72686  16.688  17.130  14.939
11376W        W72687  43.390  44.997  12.952
11377W        W72688   4.402   8.312  13.043
11378W        W72689   5.195   6.784   3.325
11379W        W72690   4.855  10.801   2.693
11380W        W72691  21.699  33.033  10.564
11381W        W72692  20.070  42.030   3.810
11382W        W72693   6.865  15.622   5.646
11383W        W72694  33.489  10.805   4.208
11384W        W72695  43.330  26.977  13.307
11385W        W72696  27.593  21.037  12.348
11386W        W72697   0.933  40.020  12.050
11387W        W72698  26.583  31.492   3.355
11388W        W72699  19.213  41.387  12.965
11389W        W72700   3.720   7.705   0.918
11390W        W72701  21.053  41.822   1.426
11391W        W72702  23.571  10.711  11.595
11392W        W72703  32.941  31.029   1.743
11393W        W72704  25.511  20.640   1.798
11394W        W72705  44.499   4.283  12.917
11395W        W72706  32.016  28.631  13.903
11396W        W72707  11.207  37.897  13.012
11397W        W72708  44.356   3.953  12.490
11398W        W72709  14.594  23.628  14.287
11399W        W72710   0.749   6.299   2.312
11400W        W72711  21.741  20.243  11.451
11401W        W72712  37.990   9.805  14.949
11402W        W72713   3.310  27.078   1.909
11403W        W72714  25.569  23.583   2.284
11404W        W72715  29.490  23.060   4.159
11405W        W72716  43.351  35.559   4.770
11406W        W72717   8.689  30.022   1.289
11407W        W72718  31.454  20.180   1.444
11408W        W72719   2.748  33.107   0.871
11409W        W72720  41.911   0.979  10.567
11410W        W72721   0.252  35.588   2.390
11411W        W72722  43.898   7.335   4.793
11412W        W72723  21.731  34.372  11.469
11413W        W72724  17.617  40.540   1.745
11414W        W72725   2.407   1.956   4.822
11415W        W72726  22.225  44.415   0.373
11416W        W72727  42.933  33.396  13.911
11417W        W72728  30.469  28.950  10.495
11418W        W72729  44.462  27.968  12.976
11419W        W72730  11.792  27.005   0.909
11420W        W72731  20.175  37.027  11.929
11421W        W72732   9.371  31.088  12.419
11422W        W72733   5.927  30.638   4.325
11423W        W72734  36.864  40.467  11.549
11424W        W72735  22.741  35.068  10.576
11425W        W72736  41.949  31.439   1.866
11426W        W72737  17.638  32.978  13.839
11427W        W72738   7.189  10.856  11.891
11428W        W72739  33.034  10.291   2.702
11429W        W72740  13.110  14.728  14.396
11430W        W72741  14.653  22.233   1.258
11431W        W72742  37.060   9.656   3.677
11432W        W72743  10.706  44.934  11.495
11433W        W72744  44.301  21.240   2.799
11434W        W72745  43.410  38.073   0.733
11435W        W72746  43.826  40.374  11.994
11436W        W72747  36.409   5.928  10.447
11437W        W72748  18.571  34.538   3.790
11438W        W72749  10.838  35.088   2.892
11439W        W72750  10.267   4.849   1.364
11440W        W72751  21.227  23.031  13.959
11441W        W72752  26.977   7.312  14.935
11442W        W72753  32.408  44.490  11.054
11443W        W72754   5.687  11.210  11.601
11444W        W72755  16.649  32.401   0.826
11445W        W72756   9.301  42.799  13.322
11446W        W72757  39.825  39.942   5.193
11447W        W72758  37.461  41.881   0.407
11448W        W72759   8.867  23.204   4.638
11449W        W72760   8.168  35.440  13.313
11450W        W72761  28.458   6.867   2.794
11451W        W72762  12.195   4.375   2.744
11452W        W72763   0.941  42.885  14.027
11453W        W72764  44.985  10.854   4.133
11454W        W72765  16.175  37.409   4.668
11455W        W72766   9.660  36.911   0.448
11456W        W72767  16.145  34.422   0.263
11457W        W72768  30.627  37.922  11.949
11458W        W72769   4.908  12.728   4.654
11459W        W72770  28.932   6.325  13.863
11460W        W72771  37.992  14.690  13.325
11461W        W72772  12.835  17.705  14.989
11462W        W72773  13.820  40.887  12.488
11463W        W72774   9.197  23.592   1.895
11464W        W72775   6.678  34.518   0.785
11465W        W72776   1.413  23.086  11.416
11466W        W72777  30.953  43.001   4.760
11467W        W72778  11.632  20.725  13.039
11468W        W72779  20.217   3.761   2.895
11469W        W72780   9.311  20.722  13.938
11470W        W72781  16.139  15.265   1.410
11471W        W72782   2.437  22.116  12.377
11472W        W72783   7.344  29.578   2.209
11473W        W72784  13.801  10.727   3.328
11474W        W72785  37.914  36.483   3.251
11475W        W72786   0.417   1.424   4.133
11476W        W72787  14.710  42.999  14.903
11477W        W72788   3.805  15.767   0.948
11478W        W72789   9.328  26.092  13.485
11479W        W72790  42.812   8.252  12.927
11480W        W72791  40.905   6.787  12.990
11481W        W72792  37.535  42.975   4.288
11482W        W72793   6.403  22.571  10.907
11483W        W72794   0.749   6.882   4.135
11484W        W72795  14.234  21.172   0.427
11485W        W72796  11.657  36.390  13.418
11486W        W72797  28.140  22.639  11.939
11487W        W72798  24.078  13.682   4.350
11488W        W72799  18.577  28.975  10.947
11489W        W72800   1.816  11.212   0.376
11490W        W72801  29.590  30.114  12.471
11491W        W72802  42.936  44.851   3.193
11492W        W72803  27.523   5.264  12.441
11493W        W72804  16.592   1.442   2.831
11494W        W72805  31.030  40.373   0.368
11495W        W72806  12.619  26.134   1.400
11496W        W72807   1.410   5.221  10.554
11497W        W72808   5.789  44.358   2.693
11498W        W72809  22.025  22.201  11.930
11499W        W72810  25.646  10.644   4.248
11500W        W72811  28.553   3.747  10.138
11501W        W72812  43.405  42.519   2.278
11502W        W72813  30.110  12.676  12.062
11503W        W72814  23.530  20.229   1.899
11504W        W72815  27.197  21.523  10.482
11505W        W72816  39.952  14.772  10.623
11506W        W72817  31.462  31.544  12.567
11507W        W72818  38.965  18.698   3.820
11508W        W72819  31.917  29.522  13.455
11509W        W72820   2.326  28.060   1.406
11510W        W72821  41.887  44.305  14.815
11511W        W72822  12.622  10.782   3.145
11512W        W72823  10.157  18.131   0.385
11513W        W72824  38.951  39.432  11.603
11514W        W72825  34.514   8.798   5.108
11515W        W72826  22.200  13.601  10.915
11516W        W72827   0.380   7.827  12.567
11517W        W72828  23.710   8.367  14.976
11518W        W72829  12.774  10.259   0.472
11519W        W72830  17.556   9.700   3.660
11520W        W72831  11.799  21.152  12.969
11521W        W72832   6.301   3.409  11.495
11522W        W72833   7.877  39.339  14.904
11523W        W72834  36.588  23.551  13.977
11524W        W72835   2.942  31.571  10.579
11525W        W72836  34.401   2.852   0.781
11526W        W72837  25.642  43.806   4.681
11527W        W72838   1.835  25.692  13.029
11528W        W72839  22.628  44.308   0.761
11529W        W72840  34.482  11.294  11.421
11530W        W72841  39.032  36.845   2.662
11531W        W72842  16.316  40.402  13.329
11532W        W72843  39.373  22.663  14.024
11533W        W72844  28.662  32.069  14.382
11534W        W72845   0.847  26.689  10.559
11535W        W72846  12.730  24.203   0.278
11536W        W72847  32.125  17.636   1.424
11537W        W72848  18.213  14.750  12.453
11538W        W72849  41.937   1.934   0.431
11539W        W72850   8.240   6.869  11.508
11540W        W72851  24.116  12.621   3.370
11541W        W72852   1.272   5.841  14.939
11542W        W72853  10.813  25.508  12.384
11543W        W72854   0.468   4.754   3.862
11544W        W72855  18.264  17.219   9.940
11545W        W72856  38.552  28.059  12.517
11546W        W72857  33.975  10.809  13.519
11547W        W72858  41.033  17.761   4.797
11548W        W72859  18.650   9.766   4.787
11549W        W72860  22.054   2.283  12.999
11550W        W72861   8.192  37.411  12.079
11551W        W72862  30.433  31.142   4.256
11552W        W72863   8.320  36.980   1.280
11553W        W72864  27.124  43.494  14.387
11554W        W72865  24.579  12.725  13.979
11555W        W72866  26.671   2.721  11.962
11556W        W72867  18.148  13.316   2.745
11557W        W72868  44.373  19.720   1.433
11558W        W72869   7.723   9.783  11.076
11559W        W72870  28.670  23.232   3.195
11560W        W72871  43.279  27.655  13.897
11561W        W72872  16.144  30.658  13.438
11562W        W72873  43.974  42.964  11.953
11563W        W72874  21.071  42.842  11.503
11564W        W72875  42.356  40.047  10.943
11565W        W72876  37.360  24.638   4.688
11566W        W72877  32.008  18.653   1.422
11567W        W72878   4.314  42.791   1.713
11568W        W72879   9.844  12.166   1.924
11569W        W72880  38.072  30.580   0.882
11570W        W72881  24.547  21.567  11.012
11571W        W72882  32.555  36.406  14.809
11572W        W72883   5.257  15.719   1.444
11573W        W72884  29.168  22.133   3.636
11574W        W72885   4.918  12.630  13.854
11575W        W72886  17.122   7.391   1.427
11576W        W72887  25.037  29.081   1.378
11577W        W72888  39.908  24.205   4.779
11578W        W72889   8.748  21.752  13.817
11579W        W72890  22.701  42.503  13.326
11580W        W72891  21.043   9.267  11.864
11581W        W72892  41.459   0.952   5.111
11582W        W72893  26.040  15.726  12.498
11583W        W72894   7.802  37.551   0.244
11584W        W72895  44.829  28.049   3.681
11585W        W72896  24.157   7.368  12.826
11586W        W72897  23.626  10.307   0.379
11587W        W72898   3.803  11.656   2.686
11588W        W72899   8.163  22.152   3.708
11589W        W72900   9.186  10.801  11.095
11590W        W72901  35.425  10.680   1.788
11591W        W72902   1.744  42.317   4.760
11592W        W72903   3.800  26.608  13.323
11593W        W72904  41.811  27.002   4.669
11594W        W72905  37.081  31.009  12.372
11595W        W72906  40.849   0.811   1.419
11596W        W72907  33.520   0.896   4.750
11597W        W72908  13.836  28.143  12.035
11598W        W72909  11.275  28.608  12.466
11599W        W72910  33.973  43.349  11.485
11600W        W72911   7.334  19.764  14.411
11601W        W72912  13.330   2.247   0.456
11602W        W72913  23.009  15.126  14.764
11603W        W72914  44.857   5.421   2.259
11604W        W72915   1.892  17.754   0.946
11605W        W72916  28.596  18.636   2.815
11606W        W72917  11.725  34.953   2.676
11607W        W72918  25.492  44.301   3.274
11608W        W72919  32.537   2.252   3.355
11609W        W72920  38.823  29.466  11.926
11610W        W72921  37.571  17.293   4.126
11611W        W72922   1.932  33.993  14.026
11612W        W72923   8.374  20.209  11.518
11613W        W72924  41.467  38.482   1.764
11614W        W72925   0.891  27.195  11.577
11615W        W72926  13.130  12.307  11.007
11616W        W72927  19.094  38.859   0.270
11617W        W72928  27.461  20.554   3.765
11618W        W72929  13.655  16.782  13.538
11619W        W72930  15.203  11.208  14.895
11620W        W72931   7.284  33.963  13.872
11621W        W72932   3.279  17.801  10.932
11622W        W72933   9.335  11.209   2.736
11623W        W72934  41.296   2.916   1.816
11624W        W72935  36.998  42.839   1.908
11625W        W72936  27.965   5.317   3.736
11626W        W72937  15.773   8.242  12.440
11627W        W72938   4.390  24.571   4.767
11628W        W72939   8.809  44.433  12.392
11629W        W72940  11.736  22.562   3.340
11630W        W72941   8.330  21.056   2.698
11631W        W72942  42.446   9.288   1.274
11632W        W72943   6.869  32.949   3.175
11633W        W72944  32.395  27.103  11.929
11634W        W72945  31.422  41.441   4.186
11635W        W72946   0.847  37.066  10.995
11636W        W72947  22.653  35.474   1.722
11637W        W72948  17.207  29.450  11.506
11638W        W72949  15.641  34.038  13.317
11639W        W72950  28.176  38.879  14.950
11640W        W72951  37.551   3.944   1.365
11641W        W72952  32.108   5.758   1.422
11642W        W72953  12.130   2.381   3.676
11643W        W72954   2.926  16.080   1.808
11644W        W72955  33.099  31.467  12.482
11645W        W72956  27.034  22.135   2.804
11646W        W72957  37.850  33.025   4.256
11647W        W72958  23.675   1.480   0.426
11648W        W72959  12.134  29.443   2.757
11649W        W72960  16.240   7.405  11.878
11650W        W72961  43.502  16.583  12.478
11651W        W72962  41.480  22.575   3.255
11652W        W72963  21.119  10.638  14.817
11653W        W72964  25.991  35.092  13.444
11654W        W72965  24.182   2.437   2.827
11655W        W72966  12.154  14.755   0.308
11656W        W72967   4.817  16.281   9.599
11657W        W72968  10.144  23.557   3.649
11658W        W72969  36.463  27.955  14.760
11659W        W72970  17.082  19.584   4.670
11660W        W72971  20.631  19.595  10.053
11661W        W72972  35.363  40.979  10.458
11662W        W72973  33.996  17.298  12.872
11663W        W72974  14.592  44.433  13.041
11664W        W72975  43.937  19.552  10.643
11665W        W72976  11.278  32.974  10.972
11666W        W72977  20.648  21.241  13.961
11667W        W72978   7.726  18.120   3.783
11668W        W72979   1.315  36.987  10.904
11669W        W72980  14.820   5.279   1.832
11670W        W72981  36.487  21.683   0.935
11671W        W72982   4.788   0.796  13.818
11672W        W72983  25.556  38.058  14.384
11673W        W72984  13.214  19.714  11.938
11674W        W72985   5.419  34.881  14.030
11675W        W72986  12.666   6.875   2.765
11676W        W72987   0.926  29.620   0.382
11677W        W72988  21.201  33.053   2.391
11678W        W72989  24.069  29.466  11.861
11679W        W72990   5.396  34.554  10.990
11680W        W72991  10.260  25.040  13.405
11681W        W72992  38.433   1.859  14.386
11682W        W72993  37.884   6.821   3.266
11683W        W72994  14.132   7.306   5.243
11684W        W72995  38.488  44.266  12.424
11685W        W72996  11.828  34.902   0.354
11686W        W72997  42.986  25.115  13.921
11687W        W72998  22.243  39.482   1.699
11688W        W72999  27.495  43.866  12.033
11689W        W73000  15.745  22.143   3.754
11690W        W73001  16.245  26.469  11.609
11691W        W73002  14.269   0.310   1.763
11692W        W73003  23.594  28.968   4.326
11693W        W73004  18.610   5.237   9.984
11694W        W73005   5.265  20.197  13.529
11695W        W73006  11.174  38.012  14.768
11696W        W73007   5.369   0.487   1.404
11697W        W73008  36.048  23.112   0.802
11698W        W73009   2.764  26.122   1.303
11699W        W73010   2.868  17.758  10.442
11700W        W73011   5.302  39.908   0.262
11701W        W73012  38.052  23.714   2.320
11702W        W73013   4.723   9.721  14.280
11703W        W73014  23.604  31.572   0.901
11704W        W73015  19.600  43.295   1.405
11705W        W73016  38.962  44.423   3.151
11706W        W73017  44.002  44.316   0.279
11707W        W73018  31.571  29.011  13.473
11708W        W73019  11.764   0.290  13.956
11709W        W73020  41.895  37.900   2.896
11710W        W73021  14.759  35.516  13.332
11711W        W73022  32.406  25.660   3.332
11712W        W73023  40.519  11.660   2.285
11713W        W73024   0.862  21.529   2.320
11714W        W73025  37.547   6.228  12.463
11715W        W73026   0.788   4.217   3.205
11716W        W73027  24.605  38.357  11.857
11717W        W73028  42.331   5.415  12.992
11718W        W73029  28.949   8.224   3.286
11719W        W73030  43.961   9.778  14.977
11720W        W73031  18.252   9.239   3.831
11721W        W73032  39.356  10.651   1.734
11722W        W73033  34.117  17.773   0.898
11723W        W73034   6.819  24.569   2.692
11724W        W73035  16.661  16.182  10.644
11725W        W73036  16.182  36.384   4.234
11726W        W73037  33.127   6.804  13.846
11727W        W73038  25.065   2.366   0.323
11728W        W73039  16.233  26.199  10.976
11729W        W73040  35.084   5.792   0.731
11730W        W73041  13.205  32.602  13.821
11731W        W73042   5.398  34.449   0.911
11732W        W73043  10.704   8.344  14.383
11733W        W73044  42.309  30.068  10.908
11734W        W73045  16.303  42.795  11.965
11735W        W73046  24.582   0.358   1.800
11736W        W73047  37.863  11.138   3.269
11737W        W73048  17.651   3.430   2.751
11738W        W73049  37.013  42.464  14.397
11739W        W73050   4.446   8.248   0.326
11740W        W73051  32.981   9.155   1.754
11741W        W73052   0.480  12.134   4.171
11742W        W73053  15.806  31.998   1.823
11743W        W73054  21.085  28.575  12.092
11744W        W73055  18.725  20.585  12.482
11745W        W73056  42.966   6.219   3.698
11746W        W73057  44.273   8.732   1.307
11747W        W73058   9.844  28.964   0.850
11748W        W73059  42.913   8.236   3.658
11749W        W73060  16.247  35.079   3.803
11750W        W73061  35.901  13.607   4.295
11751W        W73062  32.473   4.884  12.485
11752W        W73063   3.847  24.183  11.377
11753W        W73064  42.403  31.956   1.792
11754W        W73065  20.118  20.037   3.834
11755W        W73066  16.610  35.040  11.864
11756W        W73067  30.537  38.478  11.502
11757W        W73068  38.417  18.284   2.810
11758W        W73069  30.959  11.178   1.261
11759W        W73070  39.859  31.914  11.889
11760W        W73071  36.935   9.171  14.459
11761W        W73072  39.402  28.605  14.334
11762W        W73073  16.677   1.244  13.858
11763W        W73074  17.133   3.355  13.900
11764W        W73075  21.700  17.076  12.529
11765W        W73076  31.961  32.399   1.839
11766W        W73077  37.376  29.989   3.771
11767W        W73078  26.033  10.803  13.342
11768W        W73079  39.852   2.399   3.216
11769W        W73080  40.959  25.112   2.897
11770W        W73081   0.904  43.321   3.335
11771W        W73082  22.694  22.743   1.801
11772W        W73083  44.389  18.156   4.627
11773W        W73084  33.389   0.455   2.681
11774W        W73085  43.396  38.512  12.834
11775W        W73086  22.212  11.253  10.531
11776W        W73087  34.394  29.593   0.852
11777W        W73088  36.528   3.764  11.055
11778W        W73089  43.997  37.917  12.494
11779W        W73090   7.284   0.465  12.352
11780W        W73091  12.233   5.734   2.254
11781W        W73092  35.364  32.985   2.781
11782W        W73093   4.765  32.423   3.216
11783W        W73094  25.068   1.461  14.945
11784W        W73095   2.382   8.848  11.509
11785W        W73096   0.802  41.528   4.189
11786W        W73097  11.802  16.246  12.998
11787W        W73098  43.991  42.404   3.240
11788W        W73099  22.138  33.109  11.075
11789W        W73100  43.305  36.879   3.359
11790W        W73101   1.293  32.902  13.537
11791W        W73102  11.868   6.901  14.002
11792W        W73103  28.497   5.838  12.902
11793W        W73104  38.886   1.423  14.453
11794W        W73105  21.594  36.439  10.014
11795W        W73106  24.198  18.550   0.426
11796W        W73107  13.105   6.761   1.252
11797W        W73108  15.739  14.779   0.242
11798W        W73109  37.069   6.782   1.406
11799W        W73110  23.132  23.587  10.538
11800W        W73111  32.430   4.447   0.336
11801W        W73112  12.698  15.208  13.993
11802W        W73113  19.688  18.105   2.762
11803W        W73114  14.312  14.791   3.253
11804W        W73115   1.799  24.040  10.583
11805W        W73116  12.694  20.144  14.978
11806W        W73117   5.915  13.661   2.838
11807W        W73118  28.179  27.045  10.619
11808W        W73119  11.135  32.918  12.489
11809W        W73120  22.538  14.215   0.404
11810W        W73121  26.987  44.851  11.012
11811W        W73122  12.295   0.296  13.481
11812W        W73123  24.038   0.758   1.299
11813W        W73124  13.307  33.087   3.727
11814W        W73125  14.149   4.219  11.387
11815W        W73126   9.661  38.068  14.812
11816W        W73127   5.285  11.855   2.260
11817W        W73128  21.129  20.093   1.908
11818W        W73129  26.483   9.709  14.011
11819W        W73130  41.002  43.810  13.492
11820W        W73131  34.372  23.558   2.857
11821W        W73132  12.655  19.604  13.527
11822W        W73133   9.728  12.211  14.913
11823W        W73134  39.888  22.514   4.289
11824W        W73135   5.897   9.352   1.355
11825W        W73136   1.951  38.984   4.603
11826W        W73137  33.961  29.549  12.477
11827W        W73138  33.963  27.625  10.539
11828W        W73139  25.980  14.830   3.331
11829W        W73140  37.508  22.648  12.472
11830W        W73141   7.803  33.434   4.322
11831W        W73142  27.143  28.988   5.220
11832W        W73143  40.014  36.936  11.571
11833W        W73144  20.612  31.493  12.092
11834W        W73145  37.405  28.086   4.605
11835W        W73146   5.933  11.209  13.797
11836W        W73147  43.375  12.362  13.422
11837W        W73148   1.249   1.390   4.760
11838W        W73149  41.899  31.408   3.195
11839W        W73150  31.995  17.771  13.349
11840W        W73151  22.746  44.426   5.284
11841W        W73152  41.411  15.119   0.922
11842W        W73153  17.600  25.661  14.883
11843W        W73154  38.570  44.466  10.413
11844W        W73155  19.042  43.455   4.734
11845W        W73156  39.817   1.759  13.984
11846W        W73157   1.298  10.812   2.338
11847W        W73158  29.978  21.552  14.492
11848W        W73159   8.795  34.564  14.403
11849W        W73160  19.662   7.248  12.499
11850W        W73161  28.931   4.793   4.247
11851W        W73162  13.191  42.324  11.026
11852W        W73163  27.510  29.471  12.379
11853W        W73164  34.564  44.786   2.362
11854W        W73165  16.095   3.457   1.859
11855W        W73166  40.890  43.850   1.212
11856W        W73167  23.985  27.042  11.461
11857W        W73168  24.664   5.324   2.320
11858W        W73169  36.855   4.751   3.254
11859W        W73170  33.526  16.592   4.629
11860W        W73171  28.178  44.353  12.873
11861W        W73172  41.914  44.479  11.550
11862W        W73173  36.550  37.450  11.470
11863W        W73174   9.351  25.212  13.872
11864W        W73175  21.197   4.281   4.622
11865W        W73176   6.891   0.951  12.072
11866W        W73177   4.302  44.459  13.392
11867W        W73178  44.977  42.780  10.429
11868W        W73179   5.785   7.685  13.432
11869W        W73180   3.765  24.103   2.195
11870W        W73181   5.408  24.177  10.444
11871W        W73182   2.449  21.755   3.635
11872W        W73183   9.848  16.756   0.424
11873W        W73184  26.978  13.239  14.855
11874W        W73185  27.076  43.505   4.811
11875W        W73186  31.556  39.558  13.445
11876W        W73187  35.454  33.626  11.071
11877W        W73188  25.644  16.138   0.745
11878W        W73189  11.216  42.422   4.672
11879W        W73190  35.049  24.080   0.247
11880W        W73191   8.256  39.967   2.662
11881W        W73192  30.562  37.379   1.341
11882W        W73193   8.834  42.022   1.451
11883W        W73194  43.500  44.385  13.926
11884W        W73195  26.172  30.023   4.270
11885W        W73196  44.404  24.520  10.967
11886W        W73197   2.235   9.855   2.342
11887W        W73198  35.581   0.406  11.609
11888W        W73199  10.351  18.240  13.432
11889W        W73200   0.476  38.929   1.406
11890W        W73201  41.962  28.631   3.791
11891W        W73202  37.962   6.428  10.513
11892W        W73203  11.807  15.730  11.882
11893W        W73204   3.745  16.160  14.288
11894W        W73205  34.416  39.872  14.456
11895W        W73206  21.058  36.422   5.158
11896W        W73207  10.771  43.344   1.399
11897W        W73208  43.341  29.618   4.311
11898W        W73209  42.987   9.339  14.444
11899W        W73210   2.755  29.985  14.920
11900W        W73211  42.824  30.567   4.258
11901W        W73212  42.003  43.452  13.876
11902W        W73213  23.580  14.703  11.461
11903W        W73214  27.000  44.496  13.999
11904W        W73215   2.290  18.204  14.799
11905W        W73216   4.337   5.865  13.853
11906W        W73217   5.769  37.381  12.998
11907W        W73218  29.573   3.860   4.771
11908W        W73219   9.861  14.635   3.257
11909W        W73220  24.110  44.917  14.420
11910W        W73221  25.617   8.261  14.414
11911W        W73222  23.496   0.384   2.868
11912W        W73223  32.445  18.256   2.884
11913W        W73224  40.812  10.173  10.407
11914W        W73225  43.978  35.045  12.074
11915W        W73226   2.728  25.700  13.319
11916W        W73227  10.211  21.589  12.446
11917W        W73228   7.898  10.798   1.817
11918W        W73229  14.803  27.065   0.479
11919W        W73230  29.061  41.346  14.399
11920W        W73231  42.375   0.816  12.015
11921W        W73232   9.299  41.795   2.419
11922W        W73233  43.831   6.409   2.883
11923W        W73234  11.794  19.614   4.732
11924W        W73235  36.936  27.487   4.223
11925W        W73236  20.676  30.028   1.703
11926W        W73237  12.689  36.925   0.305
11927W        W73238   0.356   6.393  11.486
11928W        W73239   9.740  39.424   0.439
11929W        W73240  14.304  10.251   3.371
11930W        W73241   9.356  28.638  10.908
11931W        W73242  28.597  27.132   1.886
11932W        W73243   4.294  37.992  12.445
11933W        W73244  14.277   5.231  12.914
11934W        W73245  42.471  15.762   4.753
11935W        W73246  26.969   6.878   5.123
11936W        W73247  32.057  43.814  13.034
11937W        W73248  17.070  17.204  13.375
11938W        W73249   6.378  22.650  11.887
11939W        W73250  22.054   8.740   1.697
11940W        W73251  14.237   5.253  13.925
11941W        W73252  41.470  25.678  12.935
11942W        W73253  14.248  39.820   3.310
11943W        W73254  12.699   0.472  13.971
11944W        W73255  37.443  20.138   0.331
11945W        W73256  42.926  35.100   1.410
11946W        W73257   1.345   3.939  13.518
11947W        W73258  16.156  25.982   4.652
11948W        W73259  14.332   0.345  13.899
11949W        W73260  28.628   9.755   4.657
11950W        W73261  33.035  24.163  12.967
11951W        W73262  33.549  39.426  11.475
11952W        W73263  13.294  14.751   2.882
11953W        W73264   0.950  11.703   4.254
11954W        W73265  32.063   5.227   0.911
11955W        W73266  14.781  29.612  12.506
11956W        W73267  15.644   1.453  11.511
11957W        W73268  14.179  10.159  11.988
11958W        W73269  40.326   9.845  13.432
11959W        W73270   2.270   2.395   0.335
11960W        W73271   3.431  39.984  13.363
11961W        W73272   9.276  19.102   9.501
11962W        W73273  26.046   8.812  14.875
11963W        W73274  15.602  20.546   4.282
11964W        W73275  17.766  41.036   4.718
11965W        W73276  20.030  33.956   2.709
11966W        W73277   5.905  36.557   3.380
11967W        W73278  26.975  25.552   2.339
11968W        W73279  43.466  12.735  12.542
11969W        W73280  11.221   3.869   0.243
11970W        W73281   3.776  44.400  13.477
11971W        W73282  11.628  26.974   3.380
11972W        W73283  20.123  24.103   1.356
11973W        W73284  11.356  42.855   3.147
11974W        W73285  24.013   5.781   1.247
11975W        W73286   0.965  30.989   1.423
11976W        W73287  21.547  11.720  10.108
11977W        W73288  10.800  17.153  14.912
11978W        W73289  32.396   9.389  12.466
11979W        W73290  36.460  18.271  10.126
11980W        W73291  15.149  15.736   3.253
11981W        W73292  34.955  35.942   1.376
11982W        W73293  25.052   0.767   1.450
11983W        W73294  30.951  24.214   4.173
11984W        W73295  18.580   5.718   3.655
11985W        W73296  13.814  20.056   3.844
11986W        W73297  11.764  30.595  14.936
11987W        W73298  29.122   9.778   1.902
11988W        W73299  18.653  18.580  11.464
11989W        W73300   8.816   1.419   0.384
11990W        W73301  38.037  26.202   0.424
11991W        W73302  31.413  37.524  13.417
11992W        W73303   3.900  27.604  12.865
11993W        W73304  14.183  31.593   4.231
11994W        W73305  34.112  32.920  13.346
11995W        W73306   2.750  21.251   1.715
11996W        W73307  20.063   7.698  11.577
11997W        W73308  31.146   9.367   3.739
11998W        W73309  39.885  32.566   4.220
11999W        W73310  24.494  39.851   3.666
12000W        W73311   2.385  44.827   4.313
12001W        W73312  32.631  25.011  13.921
12002W        W73313  18.241  39.555  11.944
12003W        W73314   2.448  39.515  10.906
12004W        W73315  42.341  27.509   2.849
12005W        W73316  40.926  42.817   3.743
12006W        W73317  14.326   3.256   2.884
12007W        W73318  21.632   0.490   1.856
12008W        W73319  15.650  13.297  13.888
12009W        W73320   1.736  22.513  13.908
12010W        W73321  39.017  30.073   0.810
12011W        W73322  38.882  21.250   3.275
12012W        W73323  24.593   1.842   0.287
12013W        W73324  41.039  29.449  10.404
12014W        W73325  37.424  11.276  14.880
12015W        W73326   7.344  18.257  13.411
12016W        W73327  35.396  33.423  14.859
12017W        W73328   3.313  14.239   2.838
12018W        W73329  33.044   5.421  13.905
12019W        W73330   0.368  12.795  10.488
12020W        W73331  37.515  39.477   0.876
12021W        W73332  12.202   0.461  10.899
12022W        W73333  18.594  33.600   1.915
12023W        W73334  13.838  39.377   2.418
12024W        W73335  40.039   4.374  10.435
12025W        W73336  40.338  12.250   1.780
12026W        W73337  41.873   6.389   2.663
12027W        W73338  31.014  13.840   2.312
12028W        W73339  10.151   0.785  12.437
12029W        W73340  41.852  17.183   0.756
12030W        W73341  17.639   5.379   4.749
12031W        W73342  15.682   5.720  14.300
12032W        W73343   1.811   4.321   1.437
12033W        W73344  37.414  41.353   3.217
12034W        W73345  18.294   3.948   3.686
12035W        W73346   9.273  31.067   0.934
12036W        W73347  12.350  43.444  13.997
12037W        W73348  39.435  38.351   1.864
12038W        W73349  26.061   2.410   3.753
12039W        W73350  19.121  39.914  12.834
12040W        W73351  20.177  18.558  11.906
12041W        W73352  23.716  23.569   3.851
12042W        W73353  22.127  28.106  11.558
12043W        W73354  29.453  29.489   0.462
12044W        W73355   4.322  10.781   4.185
12045W        W73356  19.620  18.752  13.992
12046W        W73357  24.712  34.095  12.857
12047W        W73358  13.345  23.655   0.450
12048W        W73359  17.617  16.772   0.797
12049W        W73360   5.836  20.640  10.458
12050W        W73361  14.775  44.906   4.777
12051W        W73362   9.667  14.724  10.636
12052W        W73363  44.950   2.467   2.876
12053W        W73364  22.654  38.537  13.843
12054W        W73365  24.003  24.053   1.375
12055W        W73366  36.878  40.326   1.325
12056W        W73367  26.012  28.660   1.391
12057W        W73368  33.478  19.072   4.722
12058W        W73369  12.844  19.085  11.557
12059W        W73370  38.859  13.341   1.729
12060W        W73371  27.483  32.013   4.128
12061W        W73372  25.994  11.159  14.988
12062W        W73373  29.123  14.231  12.565
12063W        W73374  29.989  13.319   2.797
12064W        W73375   6.336  35.491   2.404
12065W        W73376  16.577  34.920  14.887
12066W        W73377  13.842  33.960  10.921
12067W        W73378  42.318  36.859   3.336
12068W        W73379   3.400  10.207  12.515
12069W        W73380  16.170   6.808  10.537
12070W        W73381  29.038  37.835   0.419
12071W        W73382   1.253  29.111  14.406
12072W        W73383  27.575  16.244   0.443
12073W        W73384  29.432  15.587   3.267
12074W        W73385  13.645  27.981   0.863
12075W        W73386  14.798  32.894  12.556
12076W        W73387   2.949  31.020   1.220
12077W        W73388  25.665  11.794   0.459
12078W        W73389  29.959  16.567   2.773
12079W        W73390  12.182  36.012   3.850
12080W        W73391  32.061  25.598  12.570
12081W        W73392  15.592  29.149  12.890
12082W        W73393  32.576  14.832  13.057
12083W        W73394  29.928  36.579   2.825
12084W        W73395   1.884   6.821  14.778
12085W        W73396   3.288   7.388  10.898
12086W        W73397   1.897  37.912   4.152
12087W        W73398   7.872   4.390   1.796
12088W        W73399  27.192   0.774   2.213
12089W        W73400   7.239  23.602  13.857
12090W        W73401  30.651  40.966   4.323
12091W        W73402   9.186   8.372  12.510
12092W        W73403  14.704  20.674  12.556
12093W        W73404  44.761   9.704   0.908
12094W        W73405  28.968  40.814  12.512
12095W        W73406   9.245  23.194   2.213
12096W        W73407  16.757  29.117  14.302
12097W        W73408  24.175  10.874  12.077
12098W        W73409  29.167  34.448  13.049
12099W        W73410   7.840  27.589   3.812
12100W        W73411   6.340  36.528  13.320
12101W        W73412  28.624  10.313  13.046
12102W        W73413  19.254  40.008  11.002
12103W        W73414  39.033  13.766  11.482
12104W        W73415  40.918  33.562   3.212
12105W        W73416  24.044   0.433  12.991
12106W        W73417  26.146  35.449   3.244
12107W        W73418  33.920   8.728  11.890
12108W        W73419  41.406  32.926  10.477
12109W        W73420   1.768  22.657   3.362
12110W        W73421   7.386  43.792  12.887
12111W        W73422  15.292  38.961   1.713
12112W        W73423  19.091  18.130   2.390
12113W        W73424   0.925  25.980  14.297
12114W        W73425  13.289  20.575  11.411
12115W        W73426  16.162  12.674   2.804
12116W        W73427  30.420  18.184   0.760
12117W        W73428  23.995  34.427  14.275
12118W        W73429  36.001   8.190   4.670
12119W        W73430   7.376  25.028   4.128
12120W        W73431  41.985   1.742   3.264
12121W        W73432  23.512   4.793   3.280
12122W        W73433  32.571  28.102  11.896
12123W        W73434  44.319  29.548  10.947
12124W        W73435  35.008  37.017   4.120
12125W        W73436  40.485  42.946   1.236
12126W        W73437   9.872  20.053  14.312
12127W        W73438   0.325  26.579   3.838
12128W        W73439  18.106  27.672  14.379
12129W        W73440  26.587  16.765  14.944
12130W        W73441  44.434  31.558   0.281
12131W        W73442  40.016  29.474   3.828
12132W        W73443  13.249  19.214   1.436
12133W        W73444  25.511   1.915   4.303
12134W        W73445   7.193  33.002  13.440
12135W        W73446   6.410  28.501   0.767
12136W        W73447  19.633   1.810   1.229
12137W        W73448  21.579  14.188  11.528
12138W        W73449   9.752   1.934  12.021
12139W        W73450  31.422   2.853  11.954
12140W        W73451  39.426  17.202  11.492
12141W        W73452  32.911  39.003   0.934
12142W        W73453  11.303  37.937   3.837
12143W        W73454  22.160   7.713   0.843
12144W        W73455  27.142  23.139  10.906
12145W        W73456  14.279  23.162  10.506
12146W        W73457  17.140  30.925  10.892
12147W        W73458   0.802  31.624   2.883
12148W        W73459   3.279  35.950  10.635
12149W        W73460  12.232  34.482   0.418
12150W        W73461  11.753  41.450  11.542
12151W        W73462  34.513  26.483  14.502
12152W        W73463  18.097  39.400  12.494
12153W        W73464  28.124  41.005  10.455
12154W        W73465  44.774  21.719  13.926
12155W        W73466  27.458  37.475   5.313
12156W        W73467  43.825  14.788  14.459
12157W        W73468   5.879  10.189   4.611
12158W        W73469  32.944  12.218   4.829
12159W        W73470  43.326   9.218  11.112
12160W        W73471  36.351  36.865  11.576
12161W        W73472  42.806  36.514  13.436
12162W        W73473  33.078   0.968  12.094
12163W        W73474   8.876  25.141  12.979
12164W        W73475  30.525  38.046  10.464
12165W        W73476  29.660  12.259   1.319
12166W        W73477   4.446  12.186  11.478
12167W        W73478  12.712  32.421  13.817
12168W        W73479   3.864  30.937  12.824
12169W        W73480  17.300  21.605   1.898
12170W        W73481  24.167  37.920  11.932
12171W        W73482  19.614  40.808   3.677
12172W        W73483  20.053  23.066  10.917
12173W        W73484  32.907  42.303   0.352
12174W        W73485  13.610   5.382   0.455
12175W        W73486  38.897  37.536  10.897
12176W        W73487  27.047  11.141  12.964
12177W        W73488  32.056  25.988   4.748
12178W        W73489  32.547  20.211   3.323
12179W        W73490  22.229  29.091   4.773
12180W        W73491  31.603  24.624  10.522
12181W        W73492  24.553  15.719   4.231
12182W        W73493  25.627  15.202   3.760
12183W        W73494  21.217   2.444  11.078
12184W        W73495  28.970   4.252  12.405
12185W        W73496  10.852   1.420  12.081
12186W        W73497  12.333   4.301  11.004
12187W        W73498  40.973  40.837  14.021
12188W        W73499  24.514  10.155   3.794
12189W        W73500   8.844  15.732  13.427
12190W        W73501  12.228  12.797   1.254
12191W        W73502   4.209  17.755   0.761
12192W        W73503   6.677  13.659   5.151
12193W        W73504  27.566  37.846   3.271
12194W        W73505  17.627   9.732   4.788
12195W        W73506  30.605  44.280   2.194
12196W        W73507   5.251  44.907   4.680
12197W        W73508  10.182  44.948  11.555
12198W        W73509  16.781  25.111   0.882
12199W        W73510   0.919   7.829  11.938
12200W        W73511  38.983  41.311   1.918
12201W        W73512   8.282   2.761   1.270
12202W        W73513   3.724   2.453   1.413
12203W        W73514  40.520   7.667   0.856
12204W        W73515  21.725  11.698   3.257
12205W        W73516  39.063  35.480  10.921
12206W        W73517   8.892  24.511  11.573
12207W        W73518  19.113   8.826   1.247
12208W        W73519  29.952  15.781  11.445
12209W        W73520   9.688  31.430  12.041
12210W        W73521  13.332  42.361   2.866
12211W        W73522  16.728  22.154   0.903
12212W        W73523   4.332  36.465  11.420
12213W        W73524  18.646  17.271   3.855
12214W        W73525  11.266   2.296  11.112
12215W        W73526   9.750  29.613   3.831
12216W        W73527  13.665  36.997   2.368
12217W        W73528  25.213  32.137   3.171
12218W        W73529  17.179   8.715  10.569
12219W        W73530   4.443  26.571   4.273
12220W        W73531  26.144  15.596   4.232
12221W        W73532  30.590  19.104  10.965
12222W        W73533  33.059  36.386  10.930
12223W        W73534  44.258  24.160  10.579
12224W        W73535  27.025  37.431   2.685
12225W        W73536  20.575  16.679  11.009
12226W        W73537   9.667   3.898   3.826
12227W        W73538  44.953  37.488  14.436
12228W        W73539  33.115  35.459  10.515
12229W        W73540   2.932  18.220   3.772
12230W        W73541  17.682  36.076  14.827
12231W        W73542  42.835  25.015   4.232
12232W        W73543   6.818  31.921   3.736
12233W        W73544   8.233  34.893   0.891
12234W        W73545   2.464   2.848   0.387
12235W        W73546  21.597  20.734  12.543
12236W        W73547  17.626  33.615   0.900
12237W        W73548  43.289  16.190  13.800
12238W        W73549  44.365  33.423   1.211
12239W        W73550  21.639  44.760   0.866
12240W        W73551   5.760  34.558   3.719
12241W        W73552   9.248  27.645  11.423
12242W        W73553  42.317  24.186   0.729
12243W        W73554  20.668  15.744   2.741
12244W        W73555  10.845  32.952   2.805
12245W        W73556  31.026  29.475   1.280
12246W        W73557  19.667  18.176   0.268
12247W        W73558   0.839   6.354  14.815
12248W        W73559  40.445  34.082  11.493
12249W        W73560  23.688  12.819   3.172
12250W        W73561  19.609  11.269  14.904
12251W        W73562  19.538   4.732   5.159
12252W        W73563  19.172  41.795   3.697
12253W        W73564  35.952  12.262  13.493
12254W        W73565  36.985   8.695   0.269
12255W        W73566   0.871  33.886   1.389
12256W        W73567  16.103   7.793   5.191
12257W        W73568  31.606  37.062   3.688
12258W        W73569  40.384  17.690  13.343
12259W        W73570  28.606  12.673  14.916
12260W        W73571   7.208   6.377  11.941
12261W        W73572   9.169  30.561  11.554
12262W        W73573   0.855   5.276   1.358
12263W        W73574  43.319   4.318   1.361
12264W        W73575  39.425   0.385  12.344
12265W        W73576   0.880  15.254  12.578
12266W        W73577  27.630  12.325   2.695
12267W        W73578   2.905  23.206  12.840
12268W        W73579  42.914   1.435  13.889
12269W        W73580  17.789   1.403  13.458
12270W        W73581  34.890  38.337  14.472
12271W        W73582  34.063  40.531   2.242
12272W        W73583   8.791   7.899  12.535
12273W        W73584   2.269  39.559   3.193
12274W        W73585  16.308  17.267   3.327
12275W        W73586  17.090  20.110   1.726
12276W        W73587  39.949  33.464   3.732
12277W        W73588  29.159  20.734   1.818
12278W        W73589  25.507  39.975   1.318
12279W        W73590  16.741   7.682   3.300
12280W        W73591  10.149  36.956   4.219
12281W        W73592  40.356  12.303  13.870
12282W        W73593  29.086  32.055   4.260
12283W        W73594  43.938   5.690  12.075
12284W        W73595  38.017  32.548  13.316
12285W        W73596  40.822  12.278  10.993
12286W        W73597  43.925  11.667   2.892
12287W        W73598  31.968  43.323  10.927
12288W        W73599  43.456   3.888   4.621
12289W        W73600  42.952  17.285  11.048
12290W        W73601   4.835  35.467  12.856
12291W        W73602  16.786   2.336   0.384
12292W        W73603  13.215  28.486  13.876
12293W        W73604  15.605   2.449  13.452
12294W        W73605   8.871  43.009   4.139
12295W        W73606   6.692  34.507  11.916
12296W        W73607   8.863  29.579   3.278
12297W        W73608  35.364  10.841  11.378
12298W        W73609   0.781  37.475   4.305
12299W        W73610  12.788  41.814   2.709
12300W        W73611  39.476  31.142   1.300
12301W        W73612  33.437  37.559  14.448
12302W        W73613  28.638  20.617   2.225
12303W        W73614   7.304  39.484  11.072
12304W        W73615   9.833  32.068  11.412
12305W        W73616  33.485  18.761   2.663
12306W        W73617  42.312  24.695   1.450
12307W        W73618   9.212  37.989   3.683
12308W        W73619   9.327  41.309   2.899
12309W        W73620  15.690   6.232  13.546
12310W        W73621  14.144  39.920  12.015
12311W        W73622  32.626  35.417   0.465
12312W        W73623  32.540  12.842  14.493
12313W        W73624  35.943   1.887  14.375
12314W        W73625  40.980   0.791  14.515
12315W        W73626  38.052  13.105   4.273
12316W        W73627  42.462  38.341  12.575
12317W        W73628  13.177  25.517  11.381
12318W        W73629  25.096  36.495  10.976
12319W        W73630  24.051  35.007  10.605
12320W        W73631  39.888  42.878  11.439
12321W        W73632  41.846   6.700  12.047
12322W        W73633   1.922  29.433  12.365
12323W        W73634   6.212  12.670   4.150
12324W        W73635  32.958  26.056   1.775
12325W        W73636   5.702  25.066  11.473
12326W        W73637  28.117  43.498  12.454
12327W        W73638  18.065  25.042   4.620
12328W        W73639  29.597  26.486  10.043
12329W        W73640   9.766   6.861  13.856
12330W        W73641  14.692  34.964  14.879
12331W        W73642  15.278  26.006   2.282
12332W        W73643  20.056  10.753  14.306
12333W        W73644  31.481   6.851   5.195
12334W        W73645   4.913  34.992   0.945
12335W        W73646  23.720  38.382   0.469
12336W        W73647   1.801  10.648  12.840
12337W        W73648   5.778  33.424   3.869
12338W        W73649  28.075  25.675   2.842
12339W        W73650  23.709  17.188   4.310
12340W        W73651   0.472  19.673  11.606
12341W        W73652   9.160  35.490  11.611
12342W        W73653  24.980  37.932  11.955
12343W        W73654  17.664  12.783  11.554
12344W        W73655  30.132  28.080   0.864
12345W        W73656  33.432  23.093   4.268
12346W        W73657  33.495  27.632  11.498
12347W        W73658   0.382   0.412  12.982
12348W        W73659   1.784   9.258   0.749
12349W        W73660  34.447  38.975   1.414
12350W        W73661  34.084  34.543   3.783
12351W        W73662  23.984  41.940  14.865
12352W        W73663  25.038   7.331  13.824
12353W        W73664   9.345  14.310  11.595
12354W        W73665   4.921   5.282  11.051
12355W        W73666   3.244  15.315   4.669
12356W        W73667  32.975   9.759  12.462
12357W        W73668  32.414  10.166   3.185
12358W        W73669   4.844  21.666  10.552
12359W        W73670  16.688  20.719   2.696
12360W        W73671  31.503  27.121  12.855
12361W        W73672   7.246  41.298   3.190
12362W        W73673  39.997   7.694  13.325
12363W        W73674  39.925  24.555   3.770
12364W        W73675  33.914  10.310  11.979
12365W        W73676  36.956  14.631   3.769
12366W        W73677   5.407  43.337  13.436
12367W        W73678  27.566  22.513  13.933
12368W        W73679  20.540  41.382   3.348
12369W        W73680  34.937  17.106   2.803
12370W        W73681  26.593   3.800   0.777
12371W        W73682  28.500   9.881   1.934
12372W        W73683  44.996  35.946   3.823
12373W        W73684  39.334  37.351  14.322
12374W        W73685  17.229  42.287  13.536
12375W        W73686  32.457  36.513   4.130
12376W        W73687  40.951   3.899  13.826
12377W        W73688  40.950  43.456   3.779
12378W        W73689  30.107  43.799   3.161
12379W        W73690  11.740  10.323  14.808
12380W        W73691   8.870  33.121  10.544
12381W        W73692  33.550  41.313   0.952
12382W        W73693  33.038   0.942   3.171
12383W        W73694  41.002  15.186  13.852
12384W        W73695  13.730  30.482  11.510
12385W        W73696  26.044  35.402  12.979
12386W        W73697   9.650  33.454   2.726
12387W        W73698  14.322   5.761   1.357
12388W        W73699  28.165   8.871  13.470
12389W        W73700  39.437   2.274  13.045
12390W        W73701  37.575  43.516  12.442
12391W        W73702  39.020   5.391  11.516
12392W        W73703  14.655  35.562  14.844
12393W        W73704  21.210  23.200   1.404
12394W        W73705   6.712  44.800   2.184
12395W        W73706  40.429  26.157  10.635
12396W        W73707  40.487  19.762   2.368
12397W        W73708  32.136  24.585   1.279
12398W        W73709   2.930   8.245   1.837
12399W        W73710  28.016   2.386   4.127
12400W        W73711   3.237  42.923  11.492
12401W        W73712  35.443  12.761   2.192
12402W        W73713  14.211  32.481  14.028
12403W        W73714  40.536  10.188   2.877
12404W        W73715  18.226  38.330   3.638
12405W        W73716  29.972   2.452  13.903
12406W        W73717   5.873  34.094  12.938
12407W        W73718  18.204   5.919  13.872
12408W        W73719  24.133  13.750   4.783
12409W        W73720  15.325   5.881   1.403
12410W        W73721  12.231  44.965   4.282
12411W        W73722  21.645  25.674   4.724
12412W        W73723  19.109  26.656   4.130
12413W        W73724   9.189  11.692   3.383
12414W        W73725  38.042  18.077   2.733
12415W        W73726  18.687  19.744  14.954
12416W        W73727   6.424  17.211   2.737
12417W        W73728  30.614  35.889  12.552
12418W        W73729  13.188  40.454   4.791
12419W        W73730  36.496  37.027   5.568
12420W        W73731  19.137  38.387   0.370
12421W        W73732  39.451   1.422  12.544
12422W        W73733  37.869  28.981   1.336
12423W        W73734  11.652  34.409  13.308
12424W        W73735  23.630  40.841  13.435
12425W        W73736  21.614  13.350  10.492
12426W        W73737  35.524  43.401   2.349
12427W        W73738   1.310  30.121  13.545
12428W        W73739  40.953  21.715  13.929
12429W        W73740   3.226   7.262   3.785
12430W        W73741  32.080  22.596   3.269
12431W        W73742  22.577   3.225  11.002
12432W        W73743  31.476  25.679   4.190
12433W        W73744   3.298  22.136  14.511
12434W        W73745  16.096  13.305  13.867
12435W        W73746  34.604   0.863  10.582
12436W        W73747  42.889  39.319  11.593
12437W        W73748   6.752   0.752  12.397
12438W        W73749  14.592  25.673  14.312
12439W        W73750  32.913   9.835  11.462
12440W        W73751  16.166  39.907  11.499
12441W        W73752  13.836   7.737   4.804
12442W        W73753   0.395  38.851  12.530
12443W        W73754  28.043   3.230  11.945
12444W        W73755  33.541   4.417   3.644
12445W        W73756   9.166  16.216  12.395
12446W        W73757  23.582   9.716   4.709
12447W        W73758  28.978  42.472  13.024
12448W        W73759   6.421   7.268  14.428
12449W        W73760   2.356   2.431   4.263
12450W        W73761   7.173  24.690   2.787
12451W        W73762  31.124   7.808   3.185
12452W        W73763  41.880  16.235  14.025
12453W        W73764  40.307  14.636   1.323
12454W        W73765  29.653   9.888   4.789
12455W        W73766  30.437  31.118   1.776
12456W        W73767  34.008  16.073   1.338
12457W        W73768   2.251  19.724  12.460
12458W        W73769  23.545  31.572  13.977
12459W        W73770  13.110  11.787   3.175
12460W        W73771  32.123  34.916   0.324
12461W        W73772  10.738  18.620   0.938
12462W        W73773  21.089   2.462  13.979
12463W        W73774  14.659   2.391  10.464
12464W        W73775  40.938  31.514   2.688
12465W        W73776  43.004  29.039   2.769
12466W        W73777  20.630  44.474   1.296
12467W        W73778   7.851   8.311   0.322
12468W        W73779  20.215   9.173  12.535
12469W        W73780  28.159  41.796  12.460
12470W        W73781   2.913  23.015  12.442
12471W        W73782  18.549  44.299  13.425
12472W        W73783  30.642  40.448  11.487
12473W        W73784  23.501  44.000   4.715
12474W        W73785  31.109  35.377   1.749
12475W        W73786  22.637  36.079  11.530
12476W        W73787  27.617  16.784  12.907
12477W        W73788  40.458  44.954   0.826
12478W        W73789  26.495   4.432  13.457
12479W        W73790   3.335  17.660   1.914
12480W        W73791   3.887  41.447   2.783
12481W        W73792   4.355  38.975  13.542
12482W        W73793  26.505  29.629  10.133
12483W        W73794  37.016   1.389  14.921
12484W        W73795   1.381   1.282  11.513
12485W        W73796  19.610  36.360   2.255
12486W        W73797  22.101   8.751   2.328
12487W        W73798  38.873  32.075  11.550
12488W        W73799  36.430  10.244  11.431
12489W        W73800  42.915  15.216   2.316
12490W        W73801  35.042  12.143  13.927
12491W        W73802  34.074  10.718   4.621
12492W        W73803   4.305   5.848   4.169
12493W        W73804  22.186  32.625   4.146
12494W        W73805  15.236   2.352  10.411
12495W        W73806  30.108  11.753  11.086
12496W        W73807  14.773  24.070   0.890
12497W        W73808  29.594   0.750  10.159
12498W        W73809  30.912  44.975   2.314
12499W        W73810   4.394  32.126   2.875
12500W        W73811   7.273  39.969   1.825
12501W        W73812  41.383  24.044  14.375
12502W        W73813  42.778  22.738   3.382
12503W        W73814  12.759  24.119   2.305
12504W        W73815  15.620  18.146  12.972
12505W        W73816  19.699   3.873   1.913
12506W        W73817  29.928   2.917  12.485
12507W        W73818  13.306  20.254   0.917
12508W        W73819   8.228  19.152   3.822
12509W        W73820   1.973  17.168  13.834
12510W        W73821  14.729  44.943  12.567
12511W        W73822  14.729  25.140  12.943
12512W        W73823  16.752  27.192   2.754
12513W        W73824  28.971  20.553  13.390
12514W        W73825   2.943  28.150  11.113
12515W        W73826  36.934   2.787  14.446
12516W        W73827  19.589  33.454   1.344
12517W        W73828   4.317  10.824  12.484
12518W        W73829  37.004  27.638  12.540
12519W        W73830  32.569  22.544   3.766
12520W        W73831  22.192  31.644   0.364
12521W        W73832  34.912  12.671  12.348
12522W        W73833  12.319  14.146   3.146
12523W        W73834   0.250  14.284  14.922
12524W        W73835  21.641  17.280   1.725
12525W        W73836   8.896  30.521  12.901
12526W        W73837   4.928  22.009  10.590
12527W        W73838  32.114  40.889   3.310
12528W        W73839  10.211  44.921  11.958
12529W        W73840  28.942  12.142   3.363
12530W        W73841  37.555   6.403   1.861
12531W        W73842  28.548  12.660   4.299
12532W        W73843  22.675  33.948  11.069
12533W        W73844  38.437  43.829   4.747
12534W        W73845  21.163  15.275  10.097
12535W        W73846  12.317  44.776  11.395
12536W        W73847  40.912   2.959  13.389
12537W        W73848  33.882   2.882   0.921
12538W        W73849   8.878   1.319   1.696
12539W        W73850  39.854  33.959   2.829
12540W        W73851  31.898  30.912   0.450
12541W        W73852   0.251  16.300  10.620
12542W        W73853   6.698  38.013  11.490
12543W        W73854  30.057  14.802   3.169
12544W        W73855   4.331  12.830  10.585
12545W        W73856  19.637  29.971  14.991
12546W        W73857  14.666  35.377   1.813
12547W        W73858  17.735   5.431   0.404
12548W        W73859   0.419   3.937   0.813
12549W        W73860  43.406   4.824   0.921
12550W        W73861   6.309   6.422   4.325
12551W        W73862  33.617  24.548   1.878
12552W        W73863  13.813  43.766   2.698
12553W        W73864  26.093  27.691  14.856
12554W        W73865   7.841  35.535  13.908
12555W        W73866  32.079  35.385  11.418
12556W        W73867  14.784  27.071   1.794
12557W        W73868  29.614  38.858   3.740
12558W        W73869  23.671  41.435  13.434
12559W        W73870   6.184  22.641   1.225
12560W        W73871   8.880   5.805  14.326
12561W        W73872  10.381  11.806   5.117
12562W        W73873   7.275  25.474   1.424
12563W        W73874   7.776  14.624   4.775
12564W        W73875  26.669  20.119   3.763
12565W        W73876  42.899  34.595   2.407
12566W        W73877   2.781  27.069   2.372
12567W        W73878  26.958  23.173  10.607
12568W        W73879  36.526   0.974  14.893
12569W        W73880  35.401  33.122  12.524
12570W        W73881  33.527   4.353   2.902
12571W        W73882   8.267   3.740  10.931
12572W        W73883  27.482  43.477   3.157
12573W        W73884  22.546  16.770  10.493
12574W        W73885  42.346  41.357  10.451
12575W        W73886   5.352  44.467  10.583
12576W        W73887  21.681   4.437   0.965
12577W        W73888  25.010  31.488  14.483
12578W        W73889  15.726  36.573  13.351
12579W        W73890  19.660  34.601  10.897
12580W        W73891  31.535   6.366  14.880
12581W        W73892  21.058  18.782  11.040
12582W        W73893  16.800   8.880  11.500
12583W        W73894  26.564  36.885   2.758
12584W        W73895  29.053   5.847  10.918
12585W        W73896  35.900   1.892  10.455
12586W        W73897  31.642   0.334   2.296
12587W        W73898  26.465  27.142   1.842
12588W        W73899   8.260   6.352  10.907
12589W        W73900  42.368  40.834   0.933
12590W        W73901  27.548  18.140   0.906
12591W        W73902  44.990  44.765  14.340
12592W        W73903  38.927  25.118  10.619
12593W        W73904  41.876  23.575  12.877
12594W        W73905  17.732  21.519  13.498
12595W        W73906  38.550  10.281   4.741
12596W        W73907  14.646  39.878  14.860
12597W        W73908   3.327  38.446   2.192
12598W        W73909   6.679  13.775  10.575
12599W        W73910  34.103   8.819  12.430
12600W        W73911  38.922  29.547  12.841
12601W        W73912  31.965  16.147   1.861
12602W        W73913  12.319  14.189   3.835
12603W        W73914  17.274  14.738   1.706
12604W        W73915   0.324  30.972   1.317
12605W        W73916  26.097  26.963   1.793
12606W        W73917  35.506   1.321  14.356
12607W        W73918   1.319  24.060  11.992
12608W        W73919  11.365  24.480   1.829
12609W        W73920   0.923  43.813  12.458
12610W        W73921  41.005   6.333   3.338
12611W        W73922   6.699   8.302  12.377
12612W        W73923  14.303  26.567  11.089
12613W        W73924  38.424  22.105   1.929
12614W        W73925  32.901  35.050   2.727
12615W        W73926  23.011   1.805  13.427
12616W        W73927   5.200  13.163   4.289
12617W        W73928  20.541  18.728   4.189
12618W        W73929   5.831  39.857   1.858
12619W        W73930  38.520  36.048  10.409
12620W        W73931  40.857  44.449  13.866
12621W        W73932   8.380  38.439   2.385
12622W        W73933   0.457   2.375  11.409
12623W        W73934  23.659  22.144   0.936
12624W        W73935  28.603  27.143  14.444
12625W        W73936  30.090  36.357   0.333
12626W        W73937  35.357  42.304  14.914
12627W        W73938  20.113   7.863  10.907
12628W        W73939  38.447  36.052  10.931
12629W        W73940  18.281  37.850   3.334
12630W        W73941   3.757  29.587  14.281
12631W        W73942  25.161  10.304   4.152
12632W        W73943  28.481  16.702   3.217
12633W        W73944  38.431  38.830  12.886
12634W        W73945  26.056  43.438  10.410
12635W        W73946  25.555  29.541  14.493
12636W        W73947   6.901  36.396   1.284
12637W        W73948  39.821  44.979   2.697
12638W        W73949  22.722  38.073   4.754
12639W        W73950  43.980  40.507   0.896
12640W        W73951  19.655  23.209  11.915
12641W        W73952  44.405  31.533  10.467
12642W        W73953  30.429  44.475  11.488
12643W        W73954  22.695  20.066   2.401
12644W        W73955  40.400  23.019  14.493
12645W        W73956  19.109  33.514   2.792
12646W        W73957  32.535  44.409   1.347
12647W        W73958   0.399  22.057  14.970
12648W        W73959  34.947  17.627   0.777
12649W        W73960  44.945  10.272  13.413
12650W        W73961  11.239  25.540  13.835
12651W        W73962  12.782  10.634   2.184
12652W        W73963  33.087   7.403  13.350
12653W        W73964  36.957  36.851   3.649
12654W        W73965  42.831  14.160   0.924
12655W        W73966  34.004  15.152  11.527
12656W        W73967   1.421  20.566  11.911
12657W        W73968  37.582  32.545  13.523
12658W        W73969  14.181  13.781   2.362
12659W        W73970  20.769  16.159   1.847
12660W        W73971  28.966  19.559   4.615
12661W        W73972   5.256  32.082  12.082
12662W        W73973  42.355  10.354   9.979
12663W        W73974  42.839  27.018   1.781
12664W        W73975   1.974  15.274   0.476
12665W        W73976  34.418  26.134  14.860
12666W        W73977  20.741  32.514  11.387
12667W        W73978  23.660   4.422   3.692
12668W        W73979   2.277  20.672   0.300
12669W        W73980   5.916  20.602   1.862
12670W        W73981  32.633  23.155  14.369
12671W        W73982  10.257  20.536  12.341
12672W        W73983  20.153   9.784  14.940
12673W        W73984  35.404  19.611   1.381
12674W        W73985  31.524   1.285   0.899
12675W        W73986  44.428  28.566   3.749
12676W        W73987  21.139   3.374  12.039
12677W        W73988   6.693  42.006  14.415
12678W        W73989   2.805  34.089  11.952
12679W        W73990   4.318  13.197  13.880
12680W        W73991  35.901  16.809   4.618
12681W        W73992  35.028  19.773   5.180
12682W        W73993  20.726   0.278   1.810
12683W        W73994  34.017  39.990  13.028
12684W        W73995   6.386  40.488   4.142
12685W        W73996  41.435  13.119  12.428
12686W        W73997   8.855  25.635  13.041
12687W        W73998  11.845  29.092   3.255
12688W        W73999  31.503  15.590  11.418
12689W        W74000  43.007  29.582   0.306
12690W        W74001  32.995  23.024   1.361
12691W        W74002  18.673  29.950   1.324
12692W        W74003  26.692  17.584   3.756
12693W        W74004  18.143   8.795  11.867
12694W        W74005   0.446  28.583   3.783
12695W        W74006   2.836  16.582  14.381
12696W        W74007  44.389  34.018  14.950
12697W        W74008  27.959  22.020  13.061
12698W        W74009   5.718   8.868  11.015
12699W        W74010  41.836   1.886   3.817
12700W        W74011  19.732  41.872  12.017
12701W        W74012   7.175  13.279   4.195
12702W        W74013  38.942  30.947  14.801
12703W        W74014  38.406   7.342  14.898
12704W        W74015  28.075  30.621   4.115
12705W        W74016  29.058  25.964  10.526
12706W        W74017  21.175   1.759   4.174
12707W        W74018  23.196  35.441   0.453
12708W        W74019   8.863  26.699  11.910
12709W        W74020  43.273  21.591  12.403
12710W        W74021   6.810  35.507  10.976
12711W        W74022  29.940  17.228   4.113
12712W        W74023  38.401  12.715   4.318
12713W        W74024  38.017  33.053   1.829
12714W        W74025  15.199  34.091  14.019
12715W        W74026  22.511  44.481  12.836
12716W        W74027  33.384   9.265   0.383
12717W        W74028  24.516   2.832  12.350
12718W        W74029  44.787  32.892  13.518
12719W        W74030   6.260  27.573  10.636
12720W        W74031  18.094  31.144  14.310
12721W        W74032  24.596  41.018   4.608
12722W        W74033  18.269  18.061   2.386
12723W        W74034  35.601  29.464  10.950
12724W        W74035  12.304  24.603  10.142
12725W        W74036  22.563  42.522   4.743
12726W        W74037  28.171  28.584  10.637
12727W        W74038  16.105  40.862  13.412
12728W        W74039  35.972  35.566  11.923
12729W        W74040  39.422  18.749   4.638
12730W        W74041   9.887  30.151  14.851
12731W        W74042  36.975  38.863   4.353
12732W        W74043   2.740   2.270  13.386
12733W        W74044  21.095  21.610   0.292
12734W        W74045  11.821   1.461  12.861
12735W        W74046  13.325  42.354  12.063
12736W        W74047  37.033  41.495   5.629
12737W        W74048  12.146  17.100  12.548
12738W        W74049  19.637  33.574  14.406
12739W        W74050  34.095  33.963  13.488
12740W        W74051  24.072  31.537   4.781
12741W        W74052  17.562  12.255  12.972
12742W        W74053  30.632  11.358   3.282
12743W        W74054  10.710   7.703  14.346
12744W        W74055  16.175   4.279  10.975
12745W        W74056  24.589   1.251  13.455
12746W        W74057  25.149  16.079  13.424
12747W        W74058  22.110  39.013  12.495
12748W        W74059   1.757  44.487   0.752
12749W        W74060  15.682  23.684  14.961
12750W        W74061  28.997  11.158   3.150
12751W        W74062  12.237  29.499  10.503
12752W        W74063  16.796  23.043   2.299
12753W        W74064  21.640  12.265   0.408
12754W        W74065  34.438  26.023   4.619
12755W        W74066  18.114  39.933   2.830
12756W        W74067  35.458  37.885  14.848
12757W        W74068   7.380  15.268  11.378
12758W        W74069  23.680  43.511   3.214
12759W        W74070  43.845  10.162   1.329
12760W        W74071   1.851  34.016  10.926
12761W        W74072  19.166   6.738  12.921
12762W        W74073  27.631  33.460  12.538
12763W        W74074   9.240  42.784   1.368
12764W        W74075  30.091  41.487  10.456
12765W        W74076   9.812  44.970   0.436
12766W        W74077  24.543  22.642   3.661
12767W        W74078  29.462  39.428  12.872
12768W        W74079  18.680   4.415  10.423
12769W        W74080  15.092   7.383  13.328
12770W        W74081   3.426  32.946  14.348
12771W        W74082   6.858  21.735  10.604
12772W        W74083  21.129  23.202   3.832
12773W        W74084  21.685  40.895  13.378
12774W        W74085  23.188   9.267  14.930
12775W        W74086  44.356   2.442  11.970
12776W        W74087  35.406   3.373  14.812
12777W        W74088  41.965   8.687   1.324
12778W        W74089  22.052  38.050  10.100
12779W        W74090  19.693  41.841  11.464
12780W        W74091  38.044   1.891  11.529
12781W        W74092  19.077  12.833   3.686
12782W        W74093  29.934   3.418  13.544
12783W        W74094  35.970  41.851  13.825
12784W        W74095  38.327   3.368   3.313
12785W        W74096  32.434  34.542   3.798
12786W        W74097  19.046  13.153  14.297
12787W        W74098  19.260  10.698   2.738
12788W        W74099   0.955  21.129   1.405
12789W        W74100   6.808   1.766   3.291
12790W        W74101   4.936  33.907   3.855
12791W        W74102  30.536   3.808   3.689
12792W        W74103  33.599  39.948   4.137
12793W        W74104  42.374  29.578   4.136
12794W        W74105  42.919  18.729   0.872
12795W        W74106  41.909  25.132  11.978
12796W        W74107  37.076  26.083   2.325
12797W        W74108  27.050  34.874  10.469
12798W        W74109  28.057   4.868   1.232
12799W        W74110  36.381  32.523  14.842
12800W        W74111  31.104  13.686  13.905
12801W        W74112  37.528  22.679  11.041
12802W        W74113  40.006  20.617   3.209
12803W        W74114  25.700  39.331  12.472
12804W        W74115   3.936  35.096   0.375
12805W        W74116  15.230  35.477   2.302
12806W        W74117  31.490  13.841  14.021
12807W        W74118  39.551  38.419  14.900
12808W        W74119  30.601  20.537   4.304
12809W        W74120  33.063   7.851   0.951
12810W        W74121  36.352  25.652   3.347
12811W        W74122  23.731  33.882   1.811
12812W        W74123  37.461  19.063   2.830
12813W        W74124  12.801  29.578   3.728
12814W        W74125  11.755   7.899   1.230
12815W        W74126   0.910   6.358  12.419
12816W        W74127  41.810  39.524  10.523
12817W        W74128   9.382  37.959  11.515
12818W        W74129  20.223  30.452  13.897
12819W        W74130  37.960  25.503   3.682
12820W        W74131  10.805  15.246  14.368
12821W        W74132  30.591  34.480  13.868
12822W        W74133   0.921  25.155  11.575
12823W        W74134  26.142  15.778   0.456
12824W        W74135  29.034  26.133   0.309
12825W        W74136  15.179   9.850  12.538
12826W        W74137  12.621  24.482  13.974
12827W        W74138  43.981   9.358  14.911
12828W        W74139  35.447  29.026  14.963
12829W        W74140  15.159   0.312  10.487
12830W        W74141  15.644  39.394   2.775
12831W        W74142   0.319  10.284  12.059
12832W        W74143  10.246   8.705   1.901
12833W        W74144   7.881  40.882  13.912
12834W        W74145  15.300  39.551   3.791
12835W        W74146  19.700  38.369  13.433
12836W        W74147  13.602  35.022  11.965
12837W        W74148  37.355  43.383   1.417
12838W        W74149  29.554  10.824  14.916
12839W        W74150  24.014  23.530   3.161
12840W        W74151  19.182  40.904  10.974
12841W        W74152   4.363  22.515   3.179
12842W        W74153  43.885  43.482   3.837
12843W        W74154  11.155  28.517  14.877
12844W        W74155  35.454   4.778   4.207
12845W        W74156  19.577  33.091   3.323
12846W        W74157  10.770  25.086  13.905
12847W        W74158  17.751   6.713   3.289
12848W        W74159  34.614  28.488  14.863
12849W        W74160   5.282  26.073   2.399
12850W        W74161  32.511  21.528   4.771
12851W        W74162  36.409  35.552  11.482
12852W        W74163  25.090  14.667  14.977
12853W        W74164  38.857  36.885   2.204
12854W        W74165   2.316   0.318  12.398
12855W        W74166  37.397  12.252  14.011
12856W        W74167  36.913  43.456  11.468
12857W        W74168  43.293   8.694   2.711
12858W        W74169  42.857  37.560   1.696
12859W        W74170  16.635  28.088   2.412
12860W        W74171  36.977   9.199  10.586
12861W        W74172   7.864  14.686   4.308
12862W        W74173  23.190   4.213   4.785
12863W        W74174  17.150  27.689   0.916
12864W        W74175   3.738  35.461  11.030
12865W        W74176   4.298  35.530   4.209
12866W        W74177   3.866  33.981   1.248
12867W        W74178  25.093  28.081   1.221
12868W        W74179  44.295   5.308  12.544
12869W        W74180   6.816  36.383  14.918
12870W        W74181  24.567  28.625  14.379
12871W        W74182  29.138  20.260  13.994
12872W        W74183  12.332  17.596   2.201
12873W        W74184   0.944  31.075   3.355
12874W        W74185   0.756  11.777  14.027
12875W        W74186  34.599  41.348   2.767
12876W        W74187  41.827  11.647  12.037
12877W        W74188   0.373  33.879   3.839
12878W        W74189  24.681  33.379  10.105
12879W        W74190   9.360   1.312   1.822
12880W        W74191  28.021  33.010  11.021
12881W        W74192  29.584  11.784  11.446
12882W        W74193  28.096  12.228  12.533
12883W        W74194  12.653   4.427   1.784
12884W        W74195  12.774  40.858  11.590
12885W        W74196   7.212  31.519   1.935
12886W        W74197  15.691  39.400   3.171
12887W        W74198  19.150   5.808  14.982
12888W        W74199  43.295  31.441  12.457
12889W        W74200  16.568   3.407  12.345
12890W        W74201  18.144  31.036  11.047
12891W        W74202  36.414  22.645  14.504
12892W        W74203   7.899  42.501  12.019
12893W        W74204   6.361  24.488  14.006
12894W        W74205  43.852  33.965   4.777
12895W        W74206  16.769  16.164   1.873
12896W        W74207  41.928  13.661   0.738
12897W        W74208  19.081  39.374   1.916
12898W        W74209  28.999   3.745   2.754
12899W        W74210  14.321  13.148  13.396
12900W        W74211   9.273  27.137  10.636
12901W        W74212  41.315   7.252  11.919
12902W        W74213   3.272  40.992  14.779
12903W        W74214  41.380  44.996   0.748
12904W        W74215  31.421  18.232   2.336
12905W        W74216   8.727   6.694   1.406
12906W        W74217  27.124  16.743   1.427
12907W        W74218  25.690  44.974   3.253
12908W        W74219  43.469  35.980   4.760
12909W        W74220  16.127  23.104   2.727
12910W        W74221   6.415  15.179  11.484
12911W        W74222  11.371  28.597  10.486
12912W        W74223  40.407  22.180  11.889
12913W        W74224  28.125  25.173   5.298
12914W        W74225  13.676  32.610   0.376
12915W        W74226  34.086  36.372  14.808
12916W        W74227   5.903  32.925  11.489
12917W        W74228   4.907  38.921  10.956
12918W        W74229   2.807  27.963   2.886
12919W        W74230  17.105  29.020  11.487
12920W        W74231  17.279  32.564   0.437
12921W        W74232  23.715  19.746   4.125
12922W        W74233  25.067  40.361   3.748
12923W        W74234  14.835  40.437  10.572
12924W        W74235  26.681  36.038  11.009
12925W        W74236  43.991   4.331  13.806
12926W        W74237   9.202  20.031   2.357
12927W        W74238   4.723   2.799   0.414
12928W        W74239  41.923  40.322  13.923
12929W        W74240  32.952   0.881   3.808
12930W        W74241  17.109   9.721   3.232
12931W        W74242  27.572   9.661   2.228
12932W        W74243   2.916  17.716  12.904
12933W        W74244  36.012  23.228   0.417
12934W        W74245  39.560  10.263  11.015
12935W        W74246  16.232   9.218  14.455
12936W        W74247  20.612  32.466  14.950
12937W        W74248  24.493  32.460   4.625
12938W        W74249  42.986  15.206   3.700
12939W        W74250  39.471   1.328   4.181
12940W        W74251  19.156  25.548   2.690
12941W        W74252  20.542  37.964  14.282
12942W        W74253  32.490  24.578  11.396
12943W        W74254  43.496  38.037  10.422
12944W        W74255  10.758   1.796  11.993
12945W        W74256  22.220  29.481  13.798
12946W        W74257  19.645   1.842   2.829
12947W        W74258  42.304  38.995   0.858
12948W        W74259   1.397  35.072   1.395
12949W        W74260  38.468   0.458  14.874
12950W        W74261  13.767  23.105   5.247
12951W        W74262   5.244  24.554   2.864
12952W        W74263   8.296  23.713   4.222
12953W        W74264   6.856   1.301  14.286
12954W        W74265   2.899  20.060   0.448
12955W        W74266  19.555  22.222   0.783
12956W        W74267  24.150  16.737   2.246
12957W        W74268  17.649  36.054   4.147
12958W        W74269  19.074  17.637  13.471
12959W        W74270  18.058  14.774   0.409
12960W        W74271  23.545  28.095  11.577
12961W        W74272   2.862  16.264   4.837
12962W        W74273  17.579  15.616  11.958
12963W        W74274  17.294  33.008   0.380
12964W        W74275  36.350  20.118   4.279
12965W        W74276  23.204  25.532  12.011
12966W        W74277  20.178  20.090   3.169
12967W        W74278  31.566  12.292   2.810
12968W        W74279  20.722  15.699  11.033
12969W        W74280  44.832  12.635  14.852
12970W        W74281   0.379  11.827   1.348
12971W        W74282  24.209   1.905   0.388
12972W        W74283  41.029   7.791  12.018
12973W        W74284  33.432  25.555  13.835
12974W        W74285   2.263   7.687  12.884
12975W        W74286  30.416  41.920   4.834
12976W        W74287  19.643   3.450  13.804
12977W        W74288  32.618  18.777  14.763
12978W        W74289  31.544   7.254  12.471
12979W        W74290  37.481  38.563  13.336
12980W        W74291  14.681  42.494  14.928
12981W        W74292  39.029   7.853   4.316
12982W        W74293  34.419  29.168  12.963
12983W        W74294  16.175  28.956   2.840
12984W        W74295  26.970  41.536  11.012
12985W        W74296  22.184  26.981  13.400
12986W        W74297  20.042  43.783   2.223
12987W        W74298  38.549  28.479  11.549
12988W        W74299   0.468  43.491   1.432
12989W        W74300  17.694  15.221   3.732
12990W        W74301   3.871  37.390  13.361
12991W        W74302  12.355  17.117  13.399
12992W        W74303  16.258  36.437  11.990
12993W        W74304  42.369   8.246  11.573
12994W        W74305  11.224   1.465   2.826
12995W        W74306  38.359   0.468  12.371
12996W        W74307  34.894  24.637  14.890
12997W        W74308  19.226  27.517   1.360
12998W        W74309  25.576  43.947   1.843
12999W        W74310  38.395  35.425   1.879
13000W        W74311  22.137  27.115   2.817
13001W        W74312   3.799  32.958  12.339
13002W        W74313  11.253  13.318  14.508
13003W        W74314   8.871   3.366   0.456
13004W        W74315  35.858   3.462  10.493
13005W        W74316  22.629   3.427   4.288
13006W        W74317  27.581   6.879   2.342
13007W        W74318  17.155  35.461  14.428
13008W        W74319  31.467   3.385  12.014
13009W        W74320   9.175  20.629   2.418
13010W        W74321  43.465   0.252   1.328
13011W        W74322  41.309  21.577   1.389
13012W        W74323  27.115  20.044  11.009
13013W        W74324  17.130  33.517   1.232
13014W        W74325  24.085  42.368  13.428
13015W        W74326   6.889   3.725   4.833
13016W        W74327   5.288  16.192   2.404
13017W        W74328   5.750   8.785  10.405
13018W        W74329  26.558  18.690   9.501
13019W        W74330  32.065  35.996   0.826
13020W        W74331  11.356  12.619  12.396
13021W        W74332  32.495   0.884  10.493
13022W        W74333  26.564  17.114  13.912
13023W        W74334  31.140  17.661   4.348
13024W        W74335  33.515  24.510   2.702
13025W        W74336  26.053   7.363  10.004
13026W        W74337  13.168  16.300   2.677
13027W        W74338  13.288   8.330   1.696
13028W        W74339  41.011   7.848  13.909
13029W        W74340  17.690  17.741  12.049
13030W        W74341   9.283  21.224   0.291
13031W        W74342   2.930  44.356  13.404
13032W        W74343  27.467   9.165  13.362
13033W        W74344  29.519   6.273   3.338
13034W        W74345  14.678  31.541   3.302
13035W        W74346  24.095  30.094   4.700
13036W        W74347   4.386   9.797   3.735
13037W        W74348  18.763  38.481  12.085
13038W        W74349  16.301  33.897  11.034
13039W        W74350  27.641  11.352  12.353
13040W        W74351  36.589  29.991   3.713
13041W        W74352  21.126  44.270  12.579
13042W        W74353  34.452  23.179  10.407
13043W        W74354  18.181  35.017  12.071
13044W        W74355  42.011  10.700  14.809
13045W        W74356  28.529  36.500   1.869
13046W        W74357  43.370  43.808  14.940
13047W        W74358  17.152  36.374   4.611
13048W        W74359  44.860  40.043   3.204
13049W        W74360  11.763  35.977  11.084
13050W        W74361  24.550   3.755   0.409
13051W        W74362  28.091  19.160   3.789
13052W        W74363  15.822  38.423   3.817
13053W        W74364  31.953  25.981  10.432
13054W        W74365  44.815  32.936  14.339
13055W        W74366   9.779  21.040  11.502
13056W        W74367  29.472  23.046   3.315
13057W        W74368  14.721  19.264  14.385
13058W        W74369  31.982   0.891   4.289
13059W        W74370  29.062  38.552   3.191
13060W        W74371   5.852  35.096  11.404
13061W        W74372  12.831   2.914  12.502
13062W        W74373   3.427  42.980  10.138
13063W        W74374   3.228   2.310  14.026
13064W        W74375   9.202  20.157  13.798
13065W        W74376  36.380  13.845  12.467
13066W        W74377   1.357  32.512  13.027
13067W        W74378  27.462   4.291  10.893
13068W        W74379  22.239  39.902  12.443
13069W        W74380  19.215  15.739   2.273
13070W        W74381  26.539  24.014  11.474
13071W        W74382  10.264  17.076   1.350
13072W        W74383  44.275  19.142  10.532
13073W        W74384  32.041  27.102   0.962
13074W        W74385  19.645  16.705  12.981
13075W        W74386  38.475  21.516  10.509
13076W        W74387  13.670  19.191  10.543
13077W        W74388  16.768   2.724   5.209
13078W        W74389  17.557   2.339  12.041
13079W        W74390  41.889  25.180   3.814
13080W        W74391  32.032  29.464  14.381
13081W        W74392  19.571  41.972   1.232
13082W        W74393  37.552   0.380   1.406
13083W        W74394   8.255  22.189  13.346
13084W        W74395  11.333  35.887   4.730
13085W        W74396  10.353  32.460   2.866
13086W        W74397  25.172  12.631  14.359
13087W        W74398  38.880   7.350  13.833
13088W        W74399  40.521  34.571   2.221
13089W        W74400  22.513  25.009  14.490
13090W        W74401  16.174  44.847   3.729
13091W        W74402  44.886   3.447  11.425
13092W        W74403  34.967  29.641   4.130
13093W        W74404  41.292  10.814   3.328
13094W        W74405  44.812   2.724   3.239
13095W        W74406  37.494  10.381   0.338
13096W        W74407  19.227  32.061  11.072
13097W        W74408  33.489  42.335  11.458
13098W        W74409  27.975  23.516   2.678
13099W        W74410  30.910   4.288   0.883
13100W        W74411  27.584  23.556  11.958
13101W        W74412  24.642  42.396   2.411
13102W        W74413  28.503  32.097  13.024
13103W        W74414  31.922   8.322  10.429
13104W        W74415  16.706  42.381   4.816
13105W        W74416  12.654   4.796  10.435
13106W        W74417  21.029  20.633   0.867
13107W        W74418   7.413  22.521  14.468
13108W        W74419  37.363  38.995  14.029
13109W        W74420  35.042   0.479  10.971
13110W        W74421  14.112  12.221   2.705
13111W        W74422  24.034  13.842   2.271
13112W        W74423  14.103  24.187   3.712
13113W        W74424   0.817  14.732  13.334
13114W        W74425  40.457  25.009  13.821
13115W        W74426  43.341   8.318   4.813
13116W        W74427   7.172  15.252   4.303
13117W        W74428  22.998  22.646  10.559
13118W        W74429  19.596   0.449   0.445
13119W        W74430  24.551  43.443   2.236
13120W        W74431  22.009  23.233   4.267
13121W        W74432  35.935  44.954  14.882
13122W        W74433  21.602  42.391  14.430
13123W        W74434  34.375  40.803   0.355
13124W        W74435  33.943  35.473   3.677
13125W        W74436  19.674  23.715   1.808
13126W        W74437  17.084  25.213   4.115
13127W        W74438  21.743  22.558   2.897
13128W        W74439  19.217  34.563  12.853
13129W        W74440  23.489  36.592  10.896
13130W        W74441   6.192  42.356  12.072
13131W        W74442   8.319  15.704   0.944
13132W        W74443  15.809  42.424  12.374
13133W        W74444  16.175  42.316   1.825
13134W        W74445  21.629  20.640   4.318
13135W        W74446   5.223   0.401   4.671
13136W        W74447  20.561  18.117   1.746
13137W        W74448  38.885  17.671   2.903
13138W        W74449  44.270  41.870  12.842
13139W        W74450   8.330  10.695  10.460
13140W        W74451  18.786  11.185   4.724
13141W        W74452  28.048   9.239  12.344
13142W        W74453  18.578  39.911  12.352
13143W        W74454  26.057  37.489  10.429
13144W        W74455  42.813  39.860   3.302
13145W        W74456  20.632   0.752   0.306
13146W        W74457  42.004  34.525  12.466
13147W        W74458  31.447  37.978   4.820
13148W        W74459  16.696  12.223   4.684
13149W        W74460  14.754  36.467  13.523
13150W        W74461  35.448  22.560   1.240
13151W        W74462  32.556   8.236   3.867
13152W        W74463  32.536  29.033   3.763
13153W        W74464  18.733  42.867  10.984
13154W        W74465  28.441  14.828   1.757
13155W        W74466  37.512   0.823   0.887
13156W        W74467  30.064   8.325  11.396
13157W        W74468  28.001  34.868  12.860
13158W        W74469   4.747   6.371   2.239
13159W        W74470  36.539  14.323   3.757
13160W        W74471  34.089   9.238  12.571
13161W        W74472  42.395  29.668   0.391
13162W        W74473  34.950  28.666   4.784
13163W        W74474  34.988  35.057  13.017
13164W        W74475  21.053  44.795   2.696
13165W        W74476  31.615   5.374  12.458
13166W        W74477  36.350   6.863  11.414
13167W        W74478  30.433  37.056  10.453
13168W        W74479   3.854  26.520   4.744
13169W        W74480  22.712  15.175  11.028
13170W        W74481  23.220   4.857   1.343
13171W        W74482  31.902   9.664   4.311
13172W        W74483  26.994  32.997  14.024
13173W        W74484  32.042  24.144  13.841
13174W        W74485   0.972  30.532  14.819
13175W        W74486  25.496  40.417  14.481
13176W        W74487  26.635  44.490   1.323
13177W        W74488  41.362   1.329  10.534
13178W        W74489  17.737  16.203  14.403
13179W        W74490  30.622  41.455   4.135
13180W        W74491  10.688   8.687   2.320
13181W        W74492   5.718  39.550   2.781
13182W        W74493  22.629  10.160   3.865
13183W        W74494  22.192  43.768   2.859
13184W        W74495  16.276  27.959  11.383
13185W        W74496  20.153  24.088  13.872
13186W        W74497   0.841  38.401   4.309
13187W        W74498  35.960  33.425  12.847
13188W        W74499  26.490  25.091   1.447
13189W        W74500  27.944  31.534  13.895
13190W        W74501  39.551  36.430   4.607
13191W        W74502  11.815  38.506  11.586
13192W        W74503   4.922  27.550   1.327
13193W        W74504   5.759  32.564   3.246
13194W        W74505  31.001  44.894   4.182
13195W        W74506   4.931  37.384  13.476
13196W        W74507  23.040  35.491  11.567
13197W        W74508  20.738  12.847   0.343
13198W        W74509  43.858  37.384   1.765
13199W        W74510  14.599  21.251   1.268
13200W        W74511  20.094   1.744  12.344
13201W        W74512  32.909  16.597  11.033
13202W        W74513   0.476  40.884   2.878
13203W        W74514  21.657  29.968  12.476
13204W        W74515  40.376  14.719   3.742
13205W        W74516  24.179   2.739  11.602
13206W        W74517  39.413  38.530  11.448
13207W        W74518  28.008  20.676  12.476
13208W        W74519   9.798   2.914   1.278
13209W        W74520  12.641  23.160  12.572
13210W        W74521  35.109   3.335  10.082
13211W        W74522  27.147  36.087   2.764
13212W        W74523  23.735  13.617  11.413
13213W        W74524   5.713  34.040  14.778
13214W        W74525  14.614  41.404   2.792
13215W        W74526  37.351  39.540   1.300
13216W        W74527  36.546  15.221  11.561
13217W        W74528  38.915  31.050  13.532
13218W        W74529  23.991   1.822   3.693
13219W        W74530  27.138  26.643   1.415
13220W        W74531  29.167   2.829  14.394
13221W        W74532   3.760   5.414   1.283
13222W        W74533  17.737  11.776   4.164
13223W        W74534   5.431   1.265  12.549
13224W        W74535  27.974   3.412   2.303
13225W        W74536  17.729   2.852  11.910
13226W        W74537  14.126  20.089  14.812
13227W        W74538  44.319  43.397  12.501
13228W        W74539  22.638  24.009   0.452
13229W        W74540  34.441  11.809  11.921
13230W        W74541  33.504  34.871   0.434
13231W        W74542  26.188  42.021   2.774
13232W        W74543  33.575  39.050   3.812
13233W        W74544  22.144  41.913  14.489
13234W        W74545   1.464   5.750  13.368
13235W        W74546  39.439  43.423   4.670
13236W        W74547   0.475  10.657  10.639
13237W        W74548  31.527  15.583   0.385
13238W        W74549  41.475  32.073   1.306
13239W        W74550   6.277  26.975   4.179
13240W        W74551  17.784  11.659  12.993
13241W        W74552  14.235  30.949   4.672
13242W        W74553   0.932  20.564  14.767
13243W        W74554  18.736  33.522   1.355
13244W        W74555  36.408  37.354   3.718
13245W        W74556   1.376  22.501  14.017
13246W        W74557  30.108  13.143   3.723
13247W        W74558   6.301   3.331   4.200
13248W        W74559  14.261  38.524   2.307
13249W        W74560  16.212   1.274  12.554
13250W        W74561  40.417  37.582   1.268
13251W        W74562   0.468  19.631  13.893
13252W        W74563  21.526  18.255   2.681
13253W        W74564  44.890  21.634   3.182
13254W        W74565  10.667  30.501  14.342
13255W        W74566  43.442  22.207  11.546
13256W        W74567  34.597  32.575  11.034
13257W        W74568  30.117  14.233   4.161
13258W        W74569  21.155  23.129   2.804
13259W        W74570  13.114  33.552   9.974
13260W        W74571  37.529  25.616  10.439
13261W        W74572  38.826  28.958  14.840
13262W        W74573  18.152   4.826   0.939
13263W        W74574  42.429  13.707   4.265
13264W        W74575  21.611  25.568   3.737
13265W        W74576  34.423  11.216   0.466
13266W        W74577  15.126   5.916   2.847
13267W        W74578  41.461  26.515  12.987
13268W        W74579   1.332  43.351   2.879
13269W        W74580  16.233  26.064   0.337
13270W        W74581  39.542  13.687  13.375
13271W        W74582  35.494  10.868  13.898
13272W        W74583   1.832  27.596   0.372
13273W        W74584  17.690  12.843  14.342
13274W        W74585  14.771   2.466   2.300
13275W        W74586  25.682  25.476  12.059
13276W        W74587   5.309   7.289  11.950
13277W        W74588  24.720  36.847   1.325
13278W        W74589  13.839  13.621   1.409
13279W        W74590  35.968  27.970   1.425
13280W        W74591  37.405  21.101   0.766
13281W        W74592  16.700  23.631   3.716
13282W        W74593  17.635  11.366  12.866
13283W        W74594  44.272  30.526  10.479
13284W        W74595  17.802  39.406   3.696
13285W        W74596  41.966  43.858   1.371
13286W        W74597   6.252   2.446  13.021
13287W        W74598  24.633   4.845  12.069
13288W        W74599  39.809   6.307   1.246
13289W        W74600  26.095   1.845  12.450
13290W        W74601  16.307   5.830   4.201
13291W        W74602  37.511  27.479   2.279
13292W        W74603   0.827   2.327   3.642
13293W        W74604  17.286  43.445   2.708
13294W        W74605  34.504  39.414  10.553
13295W        W74606   6.230  16.757  14.894
13296W        W74607  16.712   6.270  14.509
13297W        W74608  38.536   6.310   2.218
13298W        W74609  37.457  26.124   4.254
13299W        W74610  32.501  20.177   1.894
13300W        W74611  16.658  18.231   2.204
13301W        W74612  10.353  14.722   4.351
13302W        W74613  13.616  39.539  12.465
13303W        W74614  24.681  42.927   2.691
13304W        W74615  15.157  42.304  14.980
13305W        W74616  43.796  36.877  12.079
13306W        W74617  44.937   1.392   1.449
13307W        W74618   7.210  17.285  11.876
13308W        W74619  26.605   3.419  14.295
13309W        W74620  10.281  41.014  10.052
13310W        W74621  35.857  14.823   1.837
13311W        W74622  43.958  29.513  12.392
13312W        W74623  33.994  31.141  13.885
13313W        W74624  35.573  19.148  13.451
13314W        W74625  26.140  43.941   3.850
13315W        W74626   4.747  36.550   2.321
13316W        W74627   8.367  23.104  11.378
13317W        W74628  38.050   3.374  14.481
13318W        W74629  28.623  33.562   2.368
13319W        W74630  15.162  12.123   9.470
13320W        W74631  34.070  18.142   2.211
13321W        W74632  23.025  40.348  11.901
13322W        W74633  17.681  14.224  14.351
13323W        W74634  15.772  23.206  13.511
13324W        W74635  16.759  18.129  12.095
13325W        W74636  10.139  16.118  14.489
13326W        W74637  25.972  26.634  13.826
13327W        W74638  35.405  35.097   3.357
13328W        W74639  11.684  16.204  14.031
13329W        W74640  11.701  14.110  13.319
13330W        W74641   4.823   6.789  10.555
13331W        W74642  19.172  42.851  13.416
13332W        W74643  43.481  28.531   4.621
13333W        W74644  30.442  25.133   1.879
13334W        W74645   3.907  25.973  14.329
13335W        W74646   3.424   6.829  13.446
13336W        W74647   5.230  41.829   2.227
13337W        W74648   1.904  15.643  14.495
13338W        W74649  26.139   7.804  14.398
13339W        W74650  29.424  18.197   1.408
13340W        W74651  44.935  35.903  13.909
13341W        W74652   9.869  30.031   2.878
13342W        W74653  34.032  35.532  13.444
13343W        W74654  24.674  23.059  11.476
13344W        W74655  33.023  10.269   0.940
13345W        W74656   5.225  32.064   4.184
13346W        W74657   8.859   8.889   0.793
13347W        W74658   6.882  23.144   1.757
13348W        W74659  15.281  21.239   3.770
13349W        W74660  20.616  12.750  10.545
13350W        W74661  11.283  11.648  14.997
13351W        W74662  38.542  25.573  10.526
13352W        W74663   3.953  26.626   1.705
13353W        W74664  11.792  33.104   3.657
13354W        W74665  31.131  27.659  10.945
13355W        W74666   6.183   6.901   4.331
13356W        W74667  43.296  15.759   1.699
13357W        W74668  27.563  37.398   2.315
13358W        W74669   5.746  32.125   1.318
13359W        W74670  33.491   8.774   2.802
13360W        W74671  12.323  26.179   1.882
13361W        W74672   0.470  13.247   4.352
13362W        W74673  18.077  24.661  14.416
13363W        W74674  24.138  11.136  10.547
13364W        W74675  15.124  32.033  14.363
13365W        W74676  16.759  32.981   2.759
13366W        W74677  43.836  12.738  13.333
13367W        W74678  38.047  25.711   4.609
13368W        W74679   3.722  38.471   4.158
13369W        W74680  20.572  12.291   4.204
13370W        W74681  26.123  40.388  14.324
13371W        W74682  10.845  12.343  12.050
13372W        W74683  14.129  18.691  10.405
13373W        W74684  26.568  19.207  11.486
13374W        W74685   9.750  42.337   2.189
13375W        W74686  27.597  25.116   2.268
13376W        W74687  39.379   3.881   4.818
13377W        W74688  37.393  21.130  14.377
13378W        W74689  11.866  31.930   1.808
13379W        W74690  31.615  31.457   3.650
13380W        W74691  32.895  35.956  10.429
13381W        W74692  44.764  30.052   1.738
13382W        W74693  24.085  25.668   3.215
13383W        W74694  19.650  22.086   2.884
13384W        W74695   5.285   4.918  11.128
13385W        W74696  14.793  17.768   0.909
13386W        W74697  21.704   4.265  14.406
13387W        W74698  20.619  19.128   1.777
13388W        W74699  31.557   6.737  13.449
13389W        W74700  19.690  21.181   0.967
13390W        W74701  28.065  44.773   3.285
13391W        W74702  13.155  25.203   4.293
13392W        W74703  26.087   9.817   1.924
13393W        W74704  12.132  10.817   2.242
13394W        W74705  34.570  25.676  11.417
13395W        W74706  13.735  10.211  12.471
13396W        W74707  29.064  17.103  14.870
13397W        W74708  29.452  13.782   1.348
13398W        W74709  43.938  10.639   4.819
13399W        W74710  39.030   9.877  13.385
13400W        W74711  27.585  15.714  13.818
13401W        W74712  29.097  38.377   4.293
13402W        W74713  43.915  33.047   1.263
13403W        W74714   3.455  14.757   5.242
13404W        W74715  20.677  20.689  14.453
13405W        W74716   4.230  13.192  14.801
13406W        W74717  36.900   1.432   4.331
13407W        W74718   5.295   6.909  11.027
13408W        W74719  43.901  12.640  14.397
13409W        W74720  43.293  31.411   3.376
13410W        W74721  22.161  17.601   3.329
13411W        W74722  38.846  36.442  14.512
13412W        W74723   5.352  12.786  13.030
13413W        W74724  43.772   4.333  12.344
13414W        W74725  20.044  14.309  11.054
13415W        W74726  25.710   3.237   4.307
13416W        W74727   6.368  43.282   1.338
13417W        W74728  11.846  25.469  10.537
13418W        W74729  38.865  30.553  12.060
13419W        W74730   4.363  42.500  11.486
13420W        W74731  20.572  44.999  13.534
13421W        W74732  19.070   3.862   4.325
13422W        W74733  39.996  29.069  10.910
13423W        W74734  38.452  36.519   0.868
13424W        W74735  44.970  17.561   3.811
13425W        W74736  44.754  29.481  12.008
13426W        W74737  12.236  32.894  14.511
13427W        W74738  21.222  21.238  14.955
13428W        W74739  21.746  18.262   1.424
13429W        W74740   1.259   3.928  13.928
13430W        W74741  26.996  25.573  14.355
13431W        W74742  40.488  41.423   0.879
13432W        W74743  30.032   8.837  10.557
13433W        W74744  33.404  28.611  13.511
13434W        W74745  28.497  29.146   1.333
13435W        W74746  15.728  14.110   2.847
13436W        W74747  26.609   7.693   3.194
13437W        W74748  15.112  42.009  14.916
13438W        W74749  11.255   8.819   4.124
13439W        W74750  33.502  31.048   3.213
13440W        W74751  32.047   2.299   1.752
13441W        W74752  44.807  36.089  12.420
13442W        W74753   5.434  32.019   2.325
13443W        W74754  20.224  30.580  14.438
13444W        W74755   4.850  31.119   1.806
13445W        W74756   9.810  18.787   4.155
13446W        W74757  17.196  38.049  10.629
13447W        W74758  30.069  12.196  14.795
13448W        W74759  26.506   2.851   0.818
13449W        W74760  20.615  41.291   4.335
13450W        W74761  34.575   9.786   1.278
13451W        W74762  38.034  42.521   2.400
13452W        W74763   9.887  20.648  11.049
13453W        W74764   4.935  43.487  11.087
13454W        W74765  30.617  11.357  11.925
13455W        W74766  42.947  20.652  13.876
13456W        W74767  24.723  41.854  13.505
13457W        W74768  23.233   4.736  14.416
13458W        W74769  37.475  31.488   3.245
13459W        W74770   9.393  38.492  13.037
13460W        W74771  21.022  13.666   4.616
13461W        W74772  10.342  27.065   0.935
13462W        W74773  17.182  19.724  12.944
13463W        W74774  42.318   9.369   4.639
13464W        W74775  32.993   3.818  12.974
13465W        W74776  23.630  20.042   1.418
13466W        W74777  16.226  37.371  12.962
13467W        W74778   9.699   9.746  12.043
13468W        W74779   5.753  35.511  11.471
13469W        W74780  34.421  43.818  14.277
13470W        W74781  19.743  29.444  13.321
13471W        W74782  44.909  27.469   0.291
13472W        W74783  20.270  33.995  13.862
13473W        W74784  27.658  39.940  13.944
13474W        W74785  39.474  35.528  10.964
13475W        W74786  32.566   0.311  13.512
13476W        W74787  31.617  27.542   0.474
13477W        W74788   5.929  22.705   0.372
13478W        W74789  30.622   4.804  13.978
13479W        W74790  12.800   7.232  10.613
13480W        W74791  35.537  22.044   2.852
13481W        W74792  40.490  25.988  11.417
13482W        W74793  36.055  32.082   9.932
13483W        W74794  12.843  40.887   4.697
13484W        W74795  23.059  33.959   0.944
13485W        W74796  29.571  11.821   5.097
13486W        W74797   3.719  40.901  12.386
13487W        W74798  27.673  13.318   0.447
13488W        W74799  33.605   3.428  12.841
13489W        W74800  34.900  40.437  12.853
13490W        W74801  22.213  15.320  13.979
13491W        W74802  24.688  32.930  14.420
13492W        W74803  42.962   2.804  14.326
13493W        W74804  31.001  15.696   1.439
13494W        W74805  40.999   3.770   4.819
13495W        W74806   4.748  42.315   1.377
13496W        W74807  35.005  13.701   0.449
13497W        W74808  35.470  43.477   0.440
13498W        W74809  10.222  25.982  12.047
13499W        W74810  34.390  19.753  14.423
13500W        W74811  34.881  38.459   0.347
13501W        W74812   5.407   7.883  11.451
13502W        W74813  21.697  38.985   2.662
13503W        W74814   9.230  16.263  13.850
13504W        W74815  22.140   0.863  11.883
13505W        W74816  32.441  40.324  12.941
13506W        W74817  31.426  40.853  13.906
13507W        W74818  21.023  21.602  11.461
13508W        W74819  39.906  39.831   2.215
13509W        W74820  14.316  20.072  13.975
13510W        W74821  11.803   0.927   2.855
13511W        W74822  30.626  13.659  10.446
13512W        W74823  30.424   2.464  14.923
13513W        W74824  24.088   5.764  13.376
13514W        W74825  19.689   1.926  14.847
13515W        W74826  23.608   3.943   4.242
13516W        W74827   3.412  28.083  14.004
13517W        W74828   1.465  37.835   2.723
13518W        W74829  40.397   9.250  14.302
13519W        W74830  11.161  23.552   3.809
13520W        W74831  41.478  12.777  11.980
13521W        W74832  21.627   9.795   4.822
13522W        W74833  22.166  40.377   1.432
13523W        W74834  16.308   6.808   0.295
13524W        W74835   2.407  36.406   2.836
13525W        W74836  29.161  43.413   2.360
13526W        W74837  24.711  25.126   1.903
13527W        W74838  30.615  37.066   2.716
13528W        W74839  32.028  43.319  13.400
13529W        W74840  10.347  31.145  14.418
13530W        W74841  11.354  41.035   2.393
13531W        W74842   4.325  29.097  12.911
13532W        W74843  24.542  43.946   3.686
13533W        W74844   6.921  42.947  11.980
13534W        W74845  38.435  32.549  14.286
13535W        W74846  39.898  20.599   4.191
13536W        W74847  37.900  21.151  10.008
13537W        W74848  18.672  42.418   1.734
13538W        W74849  37.562  37.548  10.443
13539W        W74850  23.010  28.435   1.791
13540W        W74851  25.497  31.152   0.762
13541W        W74852  39.525  44.427   4.802
13542W        W74853  35.080   7.886  13.798
13543W        W74854  44.851   0.920   2.826
13544W        W74855  27.513  26.011   3.366
13545W        W74856  18.210   3.245   2.695
13546W        W74857  20.219   8.256  14.857
13547W        W74858  16.247   8.289  14.463
13548W        W74859   4.890   3.867   1.763
13549W        W74860  21.171  18.700  12.513
13550W        W74861  40.947  17.786   3.254
13551W        W74862  36.894  39.931   1.899
13552W        W74863  17.577  11.800  13.976
13553W        W74864  30.121  10.652  13.836
13554W        W74865  21.582  18.726   1.813
13555W        W74866   3.388  30.505  14.001
13556W        W74867  29.154  14.832  10.508
13557W        W74868  42.856   4.396  11.957
13558W        W74869  36.944  26.131   1.278
13559W        W74870  33.564  24.625   5.153
13560W        W74871  34.581   7.872  11.883
13561W        W74872   7.671  22.135  14.427
13562W        W74873  34.025  10.849  10.412
13563W        W74874  18.271  31.413   3.383
13564W        W74875   8.221  32.044  13.001
13565W        W74876  27.561   3.894  12.492
13566W        W74877  40.006  14.321  10.453
13567W        W74878  40.875  29.123  14.405
13568W        W74879  18.279  43.439  12.578
13569W        W74880  29.555   0.884   3.825
13570W        W74881  27.499  23.598   3.352
13571W        W74882  42.987  26.083  10.513
13572W        W74883  30.455  20.577   1.704
13573W        W74884  23.034  35.468  12.407
13574W        W74885   7.767   8.241  10.987
13575W        W74886  25.695  30.910   0.323
13576W        W74887  39.334  26.120   4.684
13577W        W74888   3.398   6.720  11.511
13578W        W74889  34.919  39.025   2.358
13579W        W74890  31.988  10.290   2.803
13580W        W74891   2.349  32.052  14.786
13581W        W74892  23.137  42.860  12.366
13582W        W74893  37.566  13.624   3.815
13583W        W74894  22.736  31.941   3.372
13584W        W74895  15.243  20.258   4.239
13585W        W74896  19.092  15.166  11.380
13586W        W74897  10.722  28.495  12.458
13587W        W74898  39.909   7.371   2.774
13588W        W74899  28.180  36.360   2.856
13589W        W74900  22.629  27.173  13.425
13590W        W74901  19.247  21.713  12.376
13591W        W74902   8.810   1.416  12.493
13592W        W74903   6.696  19.615  14.912
13593W        W74904   2.751  13.188   1.388
13594W        W74905   7.844  43.906  10.906
13595W        W74906   9.846   2.406  13.408
13596W        W74907  25.576  11.717   0.960
13597W        W74908  18.087  32.968   0.909
13598W        W74909  18.201  30.059  14.432
13599W        W74910  10.673  36.031   0.306
13600W        W74911  22.561  31.907   2.874
13601W        W74912  36.452  15.716   0.285
13602W        W74913   2.882  16.146   0.897
13603W        W74914  27.554  19.241  11.462
13604W        W74915  41.390  44.487  13.337
13605W        W74916  13.721  14.330   2.318
13606W        W74917   3.224  21.555   3.708
13607W        W74918  22.132  44.479  12.401
13608W        W74919  41.939  16.124   4.311
13609W        W74920   3.452  36.014  12.450
13610W        W74921  12.706  42.475   2.665
13611W        W74922  21.145  23.004  12.001
13612W        W74923  39.413   0.480   1.377
13613W        W74924  37.456  41.341   0.288
13614W        W74925  33.067  41.395  11.492
13615W        W74926  14.738  36.894   1.316
13616W        W74927  30.478  35.540  14.026
13617W        W74928  14.615  41.805  14.400
13618W        W74929  34.088  19.102   4.126
13619W        W74930  23.504  27.634   0.346
13620W        W74931  39.529  16.158   4.732
13621W        W74932  44.942  32.922  12.397
13622W        W74933  17.177  15.124   1.210
13623W        W74934  12.262  42.895  11.031
13624W        W74935  20.674  43.327   0.945
13625W        W74936  27.451  21.519  10.434
13626W        W74937  33.381  40.845   2.734
13627W        W74938  30.481  38.891   2.295
13628W        W74939  40.466  27.027   3.167
13629W        W74940  14.168  27.463  13.307
13630W        W74941  34.599  19.215   4.831
13631W        W74942  41.463  36.378   4.249
13632W        W74943  12.843  38.330  11.534
13633W        W74944  41.832  41.869  10.463
13634W        W74945  14.740  28.570  14.367
13635W        W74946  36.459  42.800   1.309
13636W        W74947  36.365   5.439  11.937
13637W        W74948  31.462  18.605  13.359
13638W        W74949  18.206  23.688   3.764
13639W        W74950  39.463  36.365   4.336
13640W        W74951  13.201  30.132  13.825
13641W        W74952   5.763   4.870  10.479
13642W        W74953  30.996  13.269  11.960
13643W        W74954  24.096   5.336  13.417
13644W        W74955  34.451   9.263  11.982
13645W        W74956  24.032  17.709   1.429
13646W        W74957   3.760  13.701  13.062
13647W        W74958  39.043  13.620  11.978
13648W        W74959  15.672  20.663  14.383
13649W        W74960  16.680  19.588  12.037
13650W        W74961  29.533  41.995   1.303
13651W        W74962  36.353   2.435  10.929
13652W        W74963  27.122   0.291  11.555
13653W        W74964  12.694  42.487   0.954
13654W        W74965  10.315  41.978  12.503
13655W        W74966  21.062  24.184  13.995
13656W        W74967  20.037  14.155   3.231
13657W        W74968  16.644  39.976   3.383
13658W        W74969  11.651  28.064   2.768
13659W        W74970  37.409  38.946   1.798
13660W        W74971  39.457  17.784  14.466
13661W        W74972  21.678   5.879   4.654
13662W        W74973  36.513  43.867  13.367
13663W        W74974  16.644  16.085   4.699
13664W        W74975  10.315  15.692   3.259
13665W        W74976  16.801   0.476   0.882
13666W        W74977  31.493  32.425  10.930
13667W        W74978  12.342  22.719   1.702
13668W        W74979  34.424   2.857   0.418
13669W        W74980  18.611  41.869   4.355
13670W        W74981   3.428  32.014   4.131
13671W        W74982  39.829  18.167   1.441
13672W        W74983  14.291  42.994  14.336
13673W        W74984  28.959   3.935  14.014
13674W        W74985  14.754  33.043  10.888
13675W        W74986  36.877   8.208   2.699
13676W        W74987  42.516  41.878   0.465
13677W        W74988  14.287  27.649  13.062
13678W        W74989  29.459  43.925   3.805
13679W        W74990  19.575  13.821  12.399
13680W        W74991  17.132  16.179  11.965
13681W        W74992   6.220   4.212  14.798
13682W        W74993  29.581  23.575   4.600
13683W        W74994  23.034  17.720   3.637
13684W        W74995  23.573  34.891   1.296
13685W        W74996  15.182  22.688  11.895
13686W        W74997  14.682   6.221   1.830
13687W        W74998   1.266   8.758   3.294
13688W        W74999  25.179   5.365   0.767
13689W        W75000  34.021  43.986  13.367
13690W        W75001  18.559  44.373  13.967
13691W        W75002  36.431  29.981  14.029
13692W        W75003  18.725  39.062   3.784
13693W        W75004  19.115  43.339   1.719
13694W        W75005  21.716  26.096  10.933
13695W        W75006  19.215   8.264  14.374
13696W        W75007  21.158  17.209  11.466
13697W        W75008  40.398  29.546  14.790
13698W        W75009  21.181  26.101   2.714
13699W        W75010  25.103  32.982   0.837
13700W        W75011  34.376  18.251   1.913
13701W        W75012  28.956  35.095   3.637
13702W        W75013  37.335  42.326  12.454
13703W        W75014  25.208  40.893   0.757
13704W        W75015  23.588  34.054  10.538
13705W        W75016  34.413  38.528  10.969
13706W        W75017  31.430   0.752   1.405
13707W        W75018  38.074   2.748  12.410
13708W        W75019  21.085   3.917   4.814
13709W        W75020  43.375  17.764   1.373
13710W        W75021  14.195  17.244  10.926
13711W        W75022  11.191  32.529   2.703
13712W        W75023  43.945  14.094   0.934
13713W        W75024   2.865  10.359   4.803
13714W        W75025  16.586  35.061   4.348
13715W        W75026   7.271  26.550   0.424
13716W        W75027  13.822  21.708   2.797
13717W        W75028  19.237  32.462  14.278
13718W        W75029   5.880   9.844  14.814
13719W        W75030  22.067  10.235  11.523
13720W        W75031  15.205   5.337   0.960
13721W        W75032  37.337  19.103   0.887
13722W        W75033  27.187  34.967   1.749
13723W        W75034  16.675  34.913   0.944
13724W        W75035  28.083  18.196   2.249
13725W        W75036  29.953   2.919  11.041
13726W        W75037  10.349  20.568   3.201
13727W        W75038  17.224  13.351   5.083
13728W        W75039   3.309  14.722  10.555
13729W        W75040  20.731   2.727   2.383
13730W        W75041  42.502  16.625   3.740
13731W        W75042  15.224  15.681  10.614
13732W        W75043  43.010  40.964  13.791
13733W        W75044  20.717   7.747   3.849
13734W        W75045  41.400  29.593  14.856
13735W        W75046   6.809  42.007   1.388
13736W        W75047   3.794   8.305  11.008
13737W        W75048  29.074   1.258   2.379
13738W        W75049   2.270   1.436  13.995
13739W        W75050  41.353   1.800  11.061
13740W        W75051  44.952  18.211  13.330
13741W        W75052  16.118  30.023  11.379
13742W        W75053  15.178   5.352  10.010
13743W        W75054  23.138  32.902   2.381
13744W        W75055  23.728  41.342   4.346
13745W        W75056  13.811  22.668   0.353
13746W        W75057  23.734  38.426   2.899
13747W        W75058  17.595  14.639   3.762
13748W        W75059   2.372  44.986  11.039
13749W        W75060  43.327  42.296  14.930
13750W        W75061   8.339  36.443   1.879
13751W        W75062  41.479  11.838  12.915
13752W        W75063  12.312  38.392   0.292
13753W        W75064  41.918  29.125  13.326
13754W        W75065  41.490  36.992   2.224
13755W        W75066  17.620  17.188   2.901
13756W        W75067   7.399  40.383  13.530
13757W        W75068  32.095  37.878   0.407
13758W        W75069  42.841  28.523   1.344
13759W        W75070  20.079  38.500   4.294
13760W        W75071  28.063  34.598  10.496
13761W        W75072  28.133  30.144   3.668
13762W        W75073  41.042  16.773  14.330
13763W        W75074   1.454  35.058  13.985
13764W        W75075  35.071  16.189  13.914
13765W        W75076  28.993   9.721  11.081
13766W        W75077   2.867  23.735   3.206
13767W        W75078  39.992  23.062  10.964
13768W        W75079  29.502  29.136   0.912
13769W        W75080   2.729  14.228  11.514
13770W        W75081  31.599   6.402   2.763
13771W        W75082  29.168   5.791  13.368
13772W        W75083  17.192  41.786  13.330
13773W        W75084   4.839  44.469  13.040
13774W        W75085  26.538  18.190   0.766
13775W        W75086  19.557  19.274   4.754
13776W        W75087   3.818  34.563  11.050
13777W        W75088  19.218  20.089  10.513
13778W        W75089   4.419  28.496   2.755
13779W        W75090  13.758  34.377  11.967
13780W        W75091   0.884  43.936  11.500
13781W        W75092  41.359  43.855   4.665
13782W        W75093  31.075  15.663  11.098
13783W        W75094  17.623   6.235   1.358
13784W        W75095  42.964  16.659  10.031
13785W        W75096  20.126   0.395   3.259
13786W        W75097   5.818   4.730   2.230
13787W        W75098   5.399   6.353   3.382
13788W        W75099  41.380  13.772   4.828
13789W        W75100  38.458  39.373  11.061
13790W        W75101  30.508  19.658  13.059
13791W        W75102  23.574   1.858   1.264
13792W        W75103  30.655   9.739  14.009
13793W        W75104  35.060   5.235   0.398
13794W        W75105  20.118   1.734  11.946
13795W        W75106  39.458  14.775   4.199
13796W        W75107  41.483  13.730  12.849
13797W        W75108   4.442  33.962  12.001
13798W        W75109  20.696  36.446  10.089
13799W        W75110  29.138  18.593  13.389
13800W        W75111  40.323  17.786  13.880
13801W        W75112  20.193  21.682   3.339
13802W        W75113  35.856  10.747  12.845
13803W        W75114  18.761  21.023  13.859
13804W        W75115  23.201  30.974  12.934
13805W        W75116  41.415  43.997  10.997
13806W        W75117  30.134  17.774  12.868
13807W        W75118   6.325  16.318  12.379
13808W        W75119   3.274  13.290   5.171
13809W        W75120  20.068  43.950  14.773
13810W        W75121  14.257  42.316  13.523
13811W        W75122  38.344  30.148   9.931
13812W        W75123  17.771  28.073  12.995
13813W        W75124  41.031  40.805   1.933
13814W        W75125  39.974  14.694  14.394
13815W        W75126  27.615  15.152  10.537
13816W        W75127  10.762  41.011   3.335
13817W        W75128  19.113  24.222  11.460
13818W        W75129  38.951   0.381  12.486
13819W        W75130   3.712  21.222  13.495
13820W        W75131  44.849   9.843  11.025
13821W        W75132  35.878  25.530   4.213
13822W        W75133  12.825   6.747   2.274
13823W        W75134  27.116  36.383   2.736
13824W        W75135  24.620  38.352   9.545
13825W        W75136  16.720   0.447  12.053
13826W        W75137  11.628  27.684  14.359
13827W        W75138  36.457  30.418   1.858
13828W        W75139  23.545  16.155   3.827
13829W        W75140   1.845  31.466   1.919
13830W        W75141  15.759   0.406  11.051
13831W        W75142  13.202   1.246  14.317
13832W        W75143   4.924  10.206   1.856
13833W        W75144  14.114  16.087  11.086
13834W        W75145   4.712  12.345  10.941
13835W        W75146  11.641  32.929   4.172
13836W        W75147  42.326  33.503   4.605
13837W        W75148  40.990   6.922  11.878
13838W        W75149  10.174   8.257   2.801
13839W        W75150   9.877   7.819  14.870
13840W        W75151  24.046  13.234  10.437
13841W        W75152   1.897   4.211  14.885
13842W        W75153  27.664  12.272   4.756
13843W        W75154  13.678  29.560   0.408
13844W        W75155  41.505  40.397   2.189
13845W        W75156  37.409  29.551  12.848
13846W        W75157  18.226   9.372  13.951
13847W        W75158  12.799  24.581  14.952
13848W        W75159  14.326  11.330   0.781
13849W        W75160  44.480  30.022  11.008
13850W        W75161  32.986  22.696   0.829
13851W        W75162  33.942  20.220  13.337
13852W        W75163  33.041  32.896   3.778
13853W        W75164  32.447   8.880  11.396
13854W        W75165  13.178  18.744   1.395
13855W        W75166   2.813  25.656  14.474
13856W        W75167  39.388  20.086  11.083
13857W        W75168  30.082   4.746   0.762
13858W        W75169  44.302  21.592   1.374
13859W        W75170   7.847  36.900  11.115
13860W        W75171  40.481  37.461   2.771
13861W        W75172  28.955  44.305   4.654
13862W        W75173  24.616   6.846  11.039
13863W        W75174   4.265  22.217  10.898
13864W        W75175  10.819   2.327   4.218
13865W        W75176  25.091  35.392   1.873
13866W        W75177  42.469   5.798   2.247
13867W        W75178  17.764  30.529   4.134
13868W        W75179  28.601  10.780  11.066
13869W        W75180  35.429  13.293   3.742
13870W        W75181  24.500  40.039  13.340
13871W        W75182  38.884  18.195  13.907
13872W        W75183  41.009  11.688   4.689
13873W        W75184  32.543  24.186  12.468
13874W        W75185  44.955  22.164   2.826
13875W        W75186  12.741   1.861  14.376
13876W        W75187  44.440  28.563  14.275
13877W        W75188  21.214  36.930   1.853
13878W        W75189   5.827  34.019  11.482
13879W        W75190  27.511  40.983  13.047
13880W        W75191  15.712  38.515  11.124
13881W        W75192  26.200  12.679  11.106
13882W        W75193  36.998  41.018   5.269
13883W        W75194   1.932  24.175   3.633
13884W        W75195  22.702   5.688   0.441
13885W        W75196   8.737  11.854  13.422
13886W        W75197  30.418  13.148  14.860
13887W        W75198   3.327  17.200   1.219
13888W        W75199  23.546  39.349   1.840
13889W        W75200  42.372   6.715  13.337
13890W        W75201  33.408   9.168   1.887
13891W        W75202  18.677   7.803  13.951
13892W        W75203   8.812  10.719   1.413
13893W        W75204  25.120  20.127   0.310
13894W        W75205   9.704   3.276   3.357
13895W        W75206  43.507   6.351   0.760
13896W        W75207  41.039  29.100  14.999
13897W        W75208   5.770  29.551   0.386
13898W        W75209  30.917  36.038  11.406
13899W        W75210  19.639   9.354  14.939
13900W        W75211  22.243   1.424  11.508
13901W        W75212  40.518  28.554   1.304
13902W        W75213   2.386  32.913  13.489
13903W        W75214  36.588  42.861  10.055
13904W        W75215  36.510   0.861  12.526
13905W        W75216  20.585   1.952   3.335
13906W        W75217  42.397  28.626   1.391
13907W        W75218   3.310  14.295  10.925
13908W        W75219  36.538  13.333  11.563
13909W        W75220  10.800   0.958  11.462
13910W        W75221  11.847  39.884  10.564
13911W        W75222  32.126   8.372   0.478
13912W        W75223  17.665  10.289  14.406
13913W        W75224   1.244   7.754   3.306
13914W        W75225  24.512  43.964   3.382
13915W        W75226   5.351   5.346   2.230
13916W        W75227  22.136  20.729  13.542
13917W        W75228   0.873  33.554   5.252
13918W        W75229  20.655  21.581   1.866
13919W        W75230  23.220  30.039   0.474
13920W        W75231  20.116  11.340   2.688
13921W        W75232  39.375  40.971   1.226
13922W        W75233  14.280   0.447   4.768
13923W        W75234  13.341  42.381  12.996
13924W        W75235  42.925   4.328  10.585
13925W        W75236  14.176  40.355   3.764
13926W        W75237  32.471  40.001  11.458
13927W        W75238   6.254   3.879  11.541
13928W        W75239   3.812  20.071  11.574
13929W        W75240   9.270  16.754  13.048
13930W        W75241  15.208  39.554   3.243
13931W        W75242  26.072  44.867  14.849
13932W        W75243  34.593  38.396  10.131
13933W        W75244  10.829  18.079   0.313
13934W        W75245  22.157   0.392  12.552
13935W        W75246  36.517  14.741  12.540
13936W        W75247  13.605  19.206   3.175
13937W        W75248  31.139  38.360  14.927
13938W        W75249  17.557  16.106  15.000
13939W        W75250  23.109  42.839   0.278
13940W        W75251  34.098  22.102  13.017
13941W        W75252  41.002  30.047  13.362
13942W        W75253  16.606  25.102  14.493
13943W        W75254  15.775  15.790   3.729
13944W        W75255   3.218   6.721  10.521
13945W        W75256  10.810  13.209   3.230
13946W        W75257   7.316  38.472  12.854
13947W        W75258  42.513  29.471   3.634
13948W        W75259   4.788  30.935  11.406
13949W        W75260   5.432  11.744  11.059
13950W        W75261   3.743  15.295  10.025
13951W        W75262   9.223  20.580  14.411
13952W        W75263  43.848  40.870   2.367
13953W        W75264  43.975   4.292  11.125
13954W        W75265  16.153  13.122  14.940
13955W        W75266  22.583  35.060  11.434
13956W        W75267  24.565  16.318   4.761
13957W        W75268  39.828   3.261   3.163
13958W        W75269  16.704  42.841  11.438
13959W        W75270  17.708   8.861  10.546
13960W        W75271   0.321  16.629  14.333
13961W        W75272   7.845  31.117  11.117
13962W        W75273  15.302  26.553   4.723
13963W        W75274  33.518  35.522  14.849
13964W        W75275  24.705   4.926   4.144
13965W        W75276  32.478   2.406   4.777
13966W        W75277   7.349  41.857   3.821
13967W        W75278  41.961   3.887   1.844
13968W        W75279  19.576   4.396   2.340
13969W        W75280  15.713   0.302  13.872
13970W        W75281  15.760  36.386   3.181
13971W        W75282  30.444  25.119  12.390
13972W        W75283   4.867  30.039  14.494
13973W        W75284  14.100  29.085  11.954
13974W        W75285   2.954   9.651   4.833
13975W        W75286  20.659  40.883   2.251
13976W        W75287  39.422  40.046  14.873
13977W        W75288  16.202  23.524  10.995
13978W        W75289  20.670  18.594  11.462
13979W        W75290  24.509  44.905  14.501
13980W        W75291  11.798   9.843   1.856
13981W        W75292  16.789   5.381  13.914
13982W        W75293  25.530   0.437   3.695
13983W        W75294  38.386   0.832   1.428
13984W        W75295  38.389  41.946  13.880
13985W        W75296  26.069   7.750   2.793
13986W        W75297  21.123  26.687  12.005
13987W        W75298  36.877   6.213  11.479
13988W        W75299  38.437  26.117  12.355
13989W        W75300   4.774  42.409   5.121
13990W        W75301   6.189  25.695   0.794
13991W        W75302  25.649  16.105   1.388
13992W        W75303  21.528  43.820  11.920
13993W        W75304   9.179  20.050   1.754
13994W        W75305  33.399  18.156   3.821
13995W        W75306   1.261  43.391  10.974
13996W        W75307  25.079  35.433   0.425
13997W        W75308  40.476  19.177   0.758
13998W        W75309  10.652  16.090   0.317
13999W        W75310  36.977  32.533   5.607
14000W        W75311  24.998  33.060   4.644
14001W        W75312  14.692  17.668   2.671
14002W        W75313  30.441  14.762   4.318
14003W        W75314  42.813  13.663  11.484
14004W        W75315   7.382   9.729  10.946
14005W        W75316   3.712   0.821  12.880
14006W        W75317  36.418  36.462  13.831
14007W        W75318   3.238  14.325  14.895
14008W        W75319  17.680  17.619   3.753
14009W        W75320  29.556  39.919  12.851
14010W        W75321  14.725  39.344   0.828
14011W        W75322  11.790  14.720   0.802
14012W        W75323  44.812   2.263  14.793
14013W        W75324   0.891   8.746   2.382
14014W        W75325   5.848  39.995   3.190
14015W        W75326   1.834  20.606  14.447
14016W        W75327  40.396  23.141   0.285
14017W        W75328   7.852   6.713  14.334
14018W        W75329   0.765  21.179  10.466
14019W        W75330  21.160  41.819  11.032
14020W        W75331   1.900  26.029   1.222
14021W        W75332  14.104  31.468   0.754
14022W        W75333   5.794  44.981   4.785
14023W        W75334  34.408  42.518   4.655
14024W        W75335   7.277  35.933   4.804
14025W        W75336  30.521  32.106   3.698
14026W        W75337  21.578  33.091   3.285
14027W        W75338  20.106  28.673   2.366
14028W        W75339  33.441  40.011  14.994
14029W        W75340  16.208  39.391  11.494
14030W        W75341  12.852  24.027   0.812
14031W        W75342   5.405  11.149  14.515
14032W        W75343  42.343   1.477   0.272
14033W        W75344  14.291   6.299   2.253
14034W        W75345  25.168   7.746   4.326
14035W        W75346   7.404  41.972   0.963
14036W        W75347  11.129  14.588   3.860
14037W        W75348  42.396  17.103   4.199
14038W        W75349   9.309  26.015   1.418
14039W        W75350   6.788  38.562   2.719
14040W        W75351  28.579  30.141  14.951
14041W        W75352  21.592  23.101   1.292
14042W        W75353   6.246  12.731   2.345
14043W        W75354   0.892  16.203  11.002
14044W        W75355  35.385  23.687   4.765
14045W        W75356  29.021  40.545  14.832
14046W        W75357  25.092  30.959   1.231
14047W        W75358  15.308  24.171  12.934
14048W        W75359   9.760  36.974   4.604
14049W        W75360  39.324   4.285  12.439
14050W        W75361  10.274  21.073   1.877
14051W        W75362   9.172   6.263   2.380
14052W        W75363  32.635  18.595   0.775
14053W        W75364  28.972  40.039   0.349
14054W        W75365  29.573   6.404  14.324
14055W        W75366  44.996  11.638  14.853
14056W        W75367  31.437  10.709  10.990
14057W        W75368  15.324   6.366   4.304
14058W        W75369  24.659  41.994  11.393
14059W        W75370  18.087  17.147  14.336
14060W        W75371  34.550  38.467  11.883
14061W        W75372  30.425  18.620  13.806
14062W        W75373  42.917  39.461   1.816
14063W        W75374  25.092  22.535  12.428
14064W        W75375  24.225  16.745   1.756
14065W        W75376  25.038  27.196  11.085
14066W        W75377  27.525   9.195   2.364
14067W        W75378  17.799  43.007   4.264
14068W        W75379  25.996  23.069   3.194
14069W        W75380  36.022  12.217   3.274
14070W        W75381   2.283  28.601  11.926
14071W        W75382  17.212   6.183   3.154
14072W        W75383  18.103  24.693  11.072
14073W        W75384  15.101  38.931   3.240
14074W        W75385  35.586  40.836  12.399
14075W        W75386   0.853  19.737   1.780
14076W        W75387  35.882  10.868  10.985
14077W        W75388   4.329  39.337  14.315
14078W        W75389  27.996  29.015  10.896
14079W        W75390  42.013  13.142  10.565
14080W        W75391   6.227  31.556   1.310
14081W        W75392  18.221  37.483   2.335
14082W        W75393  29.005   1.866  12.391
14083W        W75394  14.340   8.755  11.435
14084W        W75395  35.594  16.311  13.479
14085W        W75396  36.569   8.739  12.054
14086W        W75397  32.992  27.073  10.422
14087W        W75398  12.634   6.366   1.898
14088W        W75399   6.785  28.034   1.262
14089W        W75400  25.136   7.763   5.125
14090W        W75401  31.935   5.781  14.397
14091W        W75402  32.118  17.224  12.911
14092W        W75403  22.663  42.925  13.914
14093W        W75404  27.119  42.480   4.306
14094W        W75405  20.543  31.640   9.660
14095W        W75406  17.276  15.626   9.974
14096W        W75407   7.880  10.860   0.245
14097W        W75408  23.242  29.489   3.747
14098W        W75409  17.202  23.179  14.790
14099W        W75410  26.995  29.440   4.633
14100W        W75411  16.755  36.858  14.436
14101W        W75412  43.799  26.157  11.884
14102W        W75413  39.034  21.183   0.780
14103W        W75414  17.191   2.860   2.717
14104W        W75415  26.092  12.770  11.457
14105W        W75416  23.640  11.847  11.472
14106W        W75417  26.624  41.485   0.370
14107W        W75418  21.567  43.510   9.480
14108W        W75419  39.002  10.299   9.992
14109W        W75420   2.292  43.857   3.793
14110W        W75421  22.252  36.405   4.255
14111W        W75422  35.941  20.726   3.310
14112W        W75423   0.357  29.516  14.325
14113W        W75424  11.317   7.318   2.711
14114W        W75425  43.428   8.298   1.444
14115W        W75426  13.302  12.766   4.600
14116W        W75427   1.848  43.484  13.363
14117W        W75428   3.443  18.216   4.175
14118W        W75429  41.330  21.025  11.455
14119W        W75430  41.481  21.082   2.266
14120W        W75431  13.672  19.694  11.955
14121W        W75432  43.299   7.905   1.733
14122W        W75433   5.727  28.586   2.855
14123W        W75434   2.361  41.949  14.446
14124W        W75435  27.608  29.143  12.069
14125W        W75436  34.501  42.372  13.045
14126W        W75437  10.836  41.389  13.324
14127W        W75438   5.910  32.570   2.841
14128W        W75439  14.727  33.062   2.857
14129W        W75440  31.001  10.703   1.308
14130W        W75441  13.834  43.902  14.014
14131W        W75442  43.434  14.802  12.929
14132W        W75443  17.668  38.010  13.432
14133W        W75444  14.683   4.396  13.378
14134W        W75445   0.813  27.632   2.788
14135W        W75446   1.846   2.346  14.280
14136W        W75447  23.727  18.778   2.758
14137W        W75448  30.446  13.620   3.698
14138W        W75449   2.736  29.945   4.734
14139W        W75450  27.575  19.241   4.789
14140W        W75451  29.528  20.170  12.372
14141W        W75452  18.257   2.745   3.692
14142W        W75453  39.999  11.202  11.575
14143W        W75454  25.088  39.933   0.890
14144W        W75455   4.836   9.775  11.893
14145W        W75456   9.765   6.777  10.972
14146W        W75457  29.588  37.868   3.360
14147W        W75458   5.774  36.886  14.950
14148W        W75459  21.115  29.970   3.220
14149W        W75460   7.349  12.260   2.837
14150W        W75461  22.193  12.259   3.633
14151W        W75462  23.527  27.042   0.314
14152W        W75463  29.003  26.128   2.876
14153W        W75464  34.910  30.062   0.278
14154W        W75465  43.771  39.864  11.864
14155W        W75466   9.856  44.433   0.909
14156W        W75467  43.785  12.299   3.727
14157W        W75468  38.830   4.834  12.066
14158W        W75469  19.049   9.154   1.427
14159W        W75470   6.216   2.245   3.808
14160W        W75471  42.464  16.588   3.284
14161W        W75472  35.984   6.315  13.346
14162W        W75473  43.905   5.192   3.301
14163W        W75474  25.515  11.257  12.410
14164W        W75475   2.304   0.772  10.612
14165W        W75476  28.444  37.507  13.376
14166W        W75477  32.633  40.851  12.508
14167W        W75478  29.517  42.847  11.589
14168W        W75479  16.222  24.695   2.223
14169W        W75480  12.708  11.341   0.936
14170W        W75481  27.986  21.637   0.243
14171W        W75482  22.048  26.464  11.074
14172W        W75483   4.239   2.923  11.535
14173W        W75484  43.442  13.177  11.446
14174W        W75485   4.733  10.244   3.817
14175W        W75486  30.437  44.453  14.415
14176W        W75487  17.603  33.487  14.888
14177W        W75488  15.282  38.342  14.435
14178W        W75489   3.332  42.340   3.796
14179W        W75490   1.950   1.900   0.454
14180W        W75491  26.605  44.954   1.917
14181W        W75492  10.287  20.561   2.345
14182W        W75493  32.509  26.997   0.829
14183W        W75494  22.505   6.897  12.900
14184W        W75495  39.335  24.554   3.806
14185W        W75496   1.363  11.186  11.551
14186W        W75497  16.667   9.257  13.862
14187W        W75498  38.532   9.340   1.439
14188W        W75499  36.518   0.813  11.937
14189W        W75500  34.971  44.755   4.823
14190W        W75501  26.964  39.530   1.304
14191W        W75502   4.901  26.039  11.530
14192W        W75503  35.553  42.854  14.784
14193W        W75504  16.629  34.424  11.585
14194W        W75505  35.000  32.453   0.459
14195W        W75506  11.230   9.153   2.862
14196W        W75507  24.124  16.809  11.572
14197W        W75508  41.367   8.836  10.436
14198W        W75509  20.123  38.040   2.206
14199W        W75510  26.477  35.381  10.998
14200W        W75511   0.782   4.303  13.312
14201W        W75512  30.150  13.266  10.578
14202W        W75513  19.744  31.443  10.579
14203W        W75514  25.566   1.963   1.255
14204W        W75515  10.147  17.203  11.371
14205W        W75516  10.726  39.370   1.776
14206W        W75517  33.585   3.909  11.970
14207W        W75518  14.771  33.900   0.827
14208W        W75519  37.574  44.867   0.897
14209W        W75520  20.122  30.456  13.397
14210W        W75521  28.617  28.035  10.600
14211W        W75522  37.938  36.892  11.478
14212W        W75523  17.634  13.197  11.975
14213W        W75524  30.617  23.595   2.786
14214W        W75525  35.437  10.878  11.014
14215W        W75526  34.874   9.283  14.300
14216W        W75527  26.497  30.478  14.789
14217W        W75528  39.392  10.730  13.341
14218W        W75529   9.791   4.776  12.472
14219W        W75530  11.655  41.919  13.971
14220W        W75531  34.382  41.038   1.747
14221W        W75532  34.035  22.586  12.546
14222W        W75533  28.449   4.380  11.384
14223W        W75534   8.865  41.395   2.262
14224W        W75535  11.859  20.122  10.489
14225W        W75536   3.767  21.183   0.479
14226W        W75537  32.081  36.585  12.342
14227W        W75538  43.775   2.240   4.122
14228W        W75539  10.853  13.706   4.127
14229W        W75540  28.476  34.907   2.312
14230W        W75541   2.302   2.877   3.647
14231W        W75542  12.849  30.616  11.462
14232W        W75543  28.451  34.025  12.997
14233W        W75544  16.135  24.979   0.368
14234W        W75545  22.580  40.433  13.466
14235W        W75546  41.529   6.380  14.310
14236W        W75547  19.163  12.134   4.721
14237W        W75548  29.526  10.177   2.402
14238W        W75549  21.235  26.621  14.869
14239W        W75550  35.472   8.213   2.397
14240W        W75551  44.468  19.283  11.045
14241W        W75552  32.052  27.041  11.960
14242W        W75553  13.794  42.991  11.413
14243W        W75554  18.747   0.340   0.452
14244W        W75555  30.967   7.335   3.842
14245W        W75556  26.054  42.338   3.381
14246W        W75557  20.072  38.037  11.596
14247W        W75558  44.314  19.724  14.497
14248W        W75559  39.890   7.284   3.337
14249W        W75560  13.156  38.446   1.312
14250W        W75561  26.512  22.697  14.941
14251W        W75562  18.095  37.835  11.457
14252W        W75563  21.209  36.561   1.705
14253W        W75564  11.712  35.904  10.043
14254W        W75565  15.649  15.275  12.402
14255W        W75566  40.798   6.186  13.981
14256W        W75567   3.798  30.468  11.598
14257W        W75568  41.996   7.682  14.974
14258W        W75569  36.842  23.016  10.923
14259W        W75570  14.314  42.822   2.410
14260W        W75571   1.392   0.327   4.205
14261W        W75572  20.192  27.524   1.802
14262W        W75573  11.158  35.097  10.918
14263W        W75574  41.965  14.280  14.446
14264W        W75575  14.192   8.813   3.259
14265W        W75576  21.091  11.795  13.403
14266W        W75577  22.641  34.522   2.757
14267W        W75578  26.548  39.501  12.401
14268W        W75579  13.246   0.447  12.973
14269W        W75580   9.351   8.721  13.886
14270W        W75581   7.691   2.782  12.396
14271W        W75582   4.698  43.837  14.276
14272W        W75583  27.640  38.891  11.930
14273W        W75584  43.425   6.333  14.485
14274W        W75585  44.885  32.568  14.470
14275W        W75586  10.268  17.267   1.713
14276W        W75587  26.182  10.164   3.808
14277W        W75588  35.900  27.511  12.439
14278W        W75589   7.862  28.158  10.554
14279W        W75590  18.711   1.399  13.933
14280W        W75591  30.608   8.358  11.431
14281W        W75592  15.616   6.235  10.599
14282W        W75593  28.121  36.842   4.190
14283W        W75594   6.211  24.073  13.016
14284W        W75595   0.765  43.414  14.511
14285W        W75596  23.029  35.589   3.332
14286W        W75597  43.374  38.424   1.345
14287W        W75598  18.092  41.323   0.775
14288W        W75599   9.203  13.624  13.935
14289W        W75600  21.036  16.616   3.220
14290W        W75601  28.072  16.182   0.299
14291W        W75602  14.824  22.054  10.505
14292W        W75603  32.896  22.522  11.961
14293W        W75604   2.801  43.942  13.985
14294W        W75605   1.281  37.988   3.150
14295W        W75606   0.958   4.283  11.872
14296W        W75607  11.775   3.282   0.425
14297W        W75608  43.959  41.797   0.940
14298W        W75609  31.911  24.155   3.149
14299W        W75610  20.607  39.545  12.094
14300W        W75611  12.630  10.859   3.725
14301W        W75612  33.608  24.147   4.353
14302W        W75613  11.199   9.643   2.239
14303W        W75614  14.738  28.931   3.740
14304W        W75615   5.847  14.656   5.245
14305W        W75616  31.896  30.623   2.798
14306W        W75617  23.119  28.983  14.969
14307W        W75618  34.926   4.894   1.449
14308W        W75619  24.119  41.809   4.160
14309W        W75620  25.197  14.611  12.046
14310W        W75621  34.886  16.169  11.395
14311W        W75622  12.136  37.366   3.718
14312W        W75623  35.436  14.284  12.070
14313W        W75624  42.775  31.559  14.930
14314W        W75625  43.913  11.806   0.902
14315W        W75626  22.591  44.440   3.323
14316W        W75627   2.760  42.285   4.220
14317W        W75628  44.929  42.471  11.905
14318W        W75629  17.602  37.085  10.612
14319W        W75630   9.868  10.664   0.249
14320W        W75631   2.266  13.607   1.773
14321W        W75632  16.657  35.095   0.375
14322W        W75633   4.889   4.813   5.167
14323W        W75634  24.605  22.101  12.873
14324W        W75635  28.461  20.184  10.406
14325W        W75636   9.668  18.550  10.917
14326W        W75637  24.132  16.173  11.975
14327W        W75638  29.632  21.641   1.402
14328W        W75639  35.995  38.491   0.450
14329W        W75640  18.207   5.701  12.487
14330W        W75641  12.190  30.133   2.764
14331W        W75642   5.312  17.231   1.730
14332W        W75643  44.965  36.946  13.836
14333W        W75644  38.429  35.046   1.770
14334W        W75645   8.339  22.619   3.175
14335W        W75646  27.008  15.085  12.922
14336W        W75647  24.490   8.866  12.340
14337W        W75648  40.405   7.807   0.331
14338W        W75649   3.740  10.337  10.554
14339W        W75650   6.245   3.360   1.710
14340W        W75651  36.408  20.110  11.603
14341W        W75652  44.362  34.911  14.013
14342W        W75653  31.039  23.652   2.757
14343W        W75654  36.470  40.812  12.547
14344W        W75655   7.801   0.373  11.939
14345W        W75656  35.368   9.677   4.748
14346W        W75657  22.080   3.422  11.568
14347W        W75658   6.396  44.324   2.277
14348W        W75659  16.644   3.231  13.402
14349W        W75660  11.643  16.104  10.423
14350W        W75661  25.018  32.996  11.380
14351W        W75662  12.330   4.774   1.723
14352W        W75663   3.218  37.446   3.658
14353W        W75664  39.509  27.669   0.823
14354W        W75665  15.764   5.919  10.539
14355W        W75666  30.098  44.394   2.313
14356W        W75667  44.914   3.837   0.328
14357W        W75668  11.742   7.289  14.005
14358W        W75669  42.909  44.321   0.781
14359W        W75670  28.502  37.513   4.211
14360W        W75671  42.460  34.520  11.456
14361W        W75672  44.413  38.852  10.970
14362W        W75673  34.881   8.168   0.438
14363W        W75674  40.414  25.026  10.644
14364W        W75675  41.497  24.009   4.302
14365W        W75676  19.052  15.313   4.219
14366W        W75677  12.167  31.969  11.513
14367W        W75678  34.954  24.001  14.513
14368W        W75679  37.350  35.443  13.364
14369W        W75680   4.928   8.324   0.954
14370W        W75681  24.016  44.840   1.252
14371W        W75682   7.813  13.615  12.345
14372W        W75683  16.308  37.420   2.266
14373W        W75684   0.919  20.722   1.696
14374W        W75685  39.978  10.156  13.979
14375W        W75686  21.529  11.267  10.976
14376W        W75687  22.554  11.635   3.854
14377W        W75688   2.721  18.118  13.911
14378W        W75689  39.933  35.387   0.469
14379W        W75690   8.225  23.173  12.477
14380W        W75691   5.885  13.611  14.291
14381W        W75692  44.356  22.247  11.992
14382W        W75693  22.688  18.587  12.448
14383W        W75694  27.537  14.144  14.301
14384W        W75695  36.065  38.968  12.383
14385W        W75696  26.008  30.095   1.738
14386W        W75697   0.953  35.074  13.470
14387W        W75698  20.154  42.951   2.363
14388W        W75699   0.764  23.490  14.856
14389W        W75700  39.894   4.270   1.933
14390W        W75701  14.724   1.473   4.703
14391W        W75702  11.844   1.401   3.671
14392W        W75703  31.438  34.001   2.721
14393W        W75704  43.781  41.355  11.980
14394W        W75705   7.213  38.438   1.725
14395W        W75706   1.473   1.756  11.050
14396W        W75707  38.359  34.612  12.833
14397W        W75708  19.041   2.760   0.363
14398W        W75709  32.895  29.640   4.139
14399W        W75710  43.856   3.935  14.376
14400W        W75711  13.105  16.238  13.355
14401W        W75712  39.453  34.956  13.342
14402W        W75713  16.677  36.072  12.055
14403W        W75714  40.948  35.107   3.147
14404W        W75715  29.000  12.765   2.679
14405W        W75716  29.448   9.380   5.132
14406W        W75717  37.912  33.465   2.401
14407W        W75718   4.699   7.835   2.293
14408W        W75719  30.428   7.676  13.544
14409W        W75720  20.549  27.670  14.313
14410W        W75721  27.135  15.634   1.919
14411W        W75722  13.314  10.140   1.354
14412W        W75723   9.788  24.984  14.833
14413W        W75724  11.158  36.502  13.877
14414W        W75725   4.820  14.151   5.311
14415W        W75726  12.751  38.559   2.193
14416W        W75727  30.919  13.226  13.460
14417W        W75728  35.919   8.893  11.466
14418W        W75729  43.300  23.057   3.295
14419W        W75730  39.522  15.173   2.387
14420W        W75731   0.761  28.619  11.534
14421W        W75732  17.769  34.514  12.003
14422W        W75733  14.744   7.213  13.323
14423W        W75734  23.009  21.045   2.407
14424W        W75735  22.698  24.994  11.584
14425W        W75736   1.279  36.895   1.251
14426W        W75737  36.413  35.558   2.789
14427W        W75738  19.551  26.582   1.785
14428W        W75739   8.292  15.721  10.642
14429W        W75740  22.157  21.172  11.569
14430W        W75741   5.280  32.488   1.839
14431W        W75742  10.266  15.249   1.910
14432W        W75743  44.962  40.934   4.614
14433W        W75744  11.657  29.938   1.315
14434W        W75745  11.815  26.501   5.155
14435W        W75746  19.769  31.509   4.126
14436W        W75747  33.116  27.519  14.468
14437W        W75748  12.742   1.340   4.662
14438W        W75749  43.836  37.993   3.149
14439W        W75750  42.379  14.186  12.930
14440W        W75751  13.331   5.293  10.949
14441W        W75752  36.935  34.039  13.531
14442W        W75753  23.030   4.361   1.238
14443W        W75754  24.708  11.629  11.870
14444W        W75755  21.125  20.594  12.929
14445W        W75756  18.058  26.598   1.814
14446W        W75757  22.213  15.159   4.118
14447W        W75758  29.427   0.748   2.269
14448W        W75759   0.265  17.776  10.513
14449W        W75760   7.241  31.443   2.803
14450W        W75761  38.406  14.155  10.529
14451W        W75762  30.508  13.162   3.785
14452W        W75763  33.470  24.208   4.824
14453W        W75764  32.042  24.684  10.612
14454W        W75765  41.343   5.283   1.404
14455W        W75766  18.239  19.134  10.915
14456W        W75767  13.184  10.784   2.223
14457W        W75768  32.423  29.525  14.289
14458W        W75769  42.793   8.175   2.827
14459W        W75770  14.266  16.724  14.907
14460W        W75771  37.388   1.431  11.435
14461W        W75772  26.986   9.738  14.948
14462W        W75773   5.427   5.226   0.423
14463W        W75774   7.240   5.327   4.686
14464W        W75775  40.820   7.683  12.573
14465W        W75776  26.034   4.773   4.661
14466W        W75777  42.931  18.720  11.517
14467W        W75778  27.508  20.165  14.947
14468W        W75779  23.679  34.011  11.437
14469W        W75780  27.100  14.621   3.166
14470W        W75781  32.056  43.874  13.486
14471W        W75782  42.525  17.265  11.600
14472W        W75783   3.771  23.562   2.714
14473W        W75784  40.356  10.270   3.711
14474W        W75785   4.777  16.244  14.443
14475W        W75786  30.118  37.554   0.946
14476W        W75787   8.343  15.276   2.878
14477W        W75788  12.628   7.204  12.506
14478W        W75789  18.148   6.870   2.840
14479W        W75790  26.655  38.947   2.370
14480W        W75791  34.101  26.020   4.253
14481W        W75792  23.545  30.414  12.993
14482W        W75793  44.775  19.721   0.296
14483W        W75794   7.189  41.936   0.433
14484W        W75795  29.140   4.344   1.812
14485W        W75796  24.162  38.533  11.528
14486W        W75797  41.458  36.348   5.247
14487W        W75798  32.478  22.242  14.990
14488W        W75799  24.142  11.826  14.861
14489W        W75800  12.854  14.606  14.824
14490W        W75801  28.463   5.254  12.906
14491W        W75802  32.526  33.085   1.446
14492W        W75803  16.283  20.729   0.259
14493W        W75804   5.824  33.595  14.386
14494W        W75805  36.428  26.131  10.896
14495W        W75806  36.011  14.292   2.836
14496W        W75807   5.929  38.499   1.295
14497W        W75808  42.891  43.811  13.354
14498W        W75809  27.069  15.581  13.010
14499W        W75810  33.973  27.178  11.068
14500W        W75811  26.951  22.737   2.822
14501W        W75812  30.059  43.889   1.421
14502W        W75813  23.528  10.823  14.398
14503W        W75814   1.249  40.508   4.736
14504W        W75815  39.377  17.215  10.037
14505W        W75816  13.350  27.476   3.291
14506W        W75817  28.955   4.922  13.834
14507W        W75818  32.549  34.544  14.958
14508W        W75819  28.450  30.967  10.955
14509W        W75820  14.776  31.432   1.934
14510W        W75821  24.020   3.359  14.443
14511W        W75822  33.057  34.109   2.413
14512W        W75823  10.216  28.979  14.294
14513W        W75824  27.689   3.770  13.964
14514W        W75825   3.770  32.421  11.459
14515W        W75826   8.388  28.504  10.476
14516W        W75827  22.702  25.973   0.484
14517W        W75828  33.480  16.104   4.179
14518W        W75829  20.625  23.104   2.254
14519W        W75830  35.879  40.318   2.323
14520W        W75831  34.934  42.988   3.226
14521W        W75832   5.765   2.403  12.904
14522W        W75833  32.602   0.336   0.807
14523W        W75834  20.721   9.305   1.863
14524W        W75835  10.293  36.973  10.958
14525W        W75836   6.836   3.937  12.969
14526W        W75837  23.597  18.694  13.846
14527W        W75838  25.113  20.089  14.797
14528W        W75839  12.848  13.127  10.585
14529W        W75840   7.345  40.983   3.800
14530W        W75841  32.395  22.037  14.341
14531W        W75842  31.935  13.693   2.326
14532W        W75843  11.145  24.095   1.308
14533W        W75844  28.494  34.018  12.516
14534W        W75845  27.005   8.829   4.680
14535W        W75846  11.231  40.826  11.926
14536W        W75847  24.633  32.894   3.810
14537W        W75848  31.949  20.179  12.966
14538W        W75849  42.809  34.603   4.153
14539W        W75850  39.554  28.538   0.475
14540W        W75851  26.958   9.321  10.935
14541W        W75852   4.718  35.502   3.166
14542W        W75853  21.695   5.851   5.311
14543W        W75854  20.114  34.897   4.201
14544W        W75855  34.037   5.861   3.863
14545W        W75856  32.963   1.919   0.924
14546W        W75857  11.632   2.406   3.660
14547W        W75858  18.730  24.074   3.683
14548W        W75859  14.756   0.448  14.016
14549W        W75860   4.336  25.178   1.804
14550W        W75861  30.631  26.671  10.476
14551W        W75862  15.645   8.271  14.398
14552W        W75863  11.179  15.610  12.929
14553W        W75864  16.779  24.995   0.394
14554W        W75865  35.443  30.623  12.567
14555W        W75866   7.750  41.820   1.345
14556W        W75867  31.515  40.321  14.972
14557W        W75868   2.336  29.957  14.479
14558W        W75869  15.209  26.532  12.403
14559W        W75870  39.425  31.602   2.188
14560W        W75871   4.908  29.158   0.461
14561W        W75872   5.784  43.368   2.744
14562W        W75873  15.212  30.954   1.308
14563W        W75874  19.217   9.184   4.741
14564W        W75875  38.832  27.682   3.656
14565W        W75876  22.728   9.274  13.905
14566W        W75877  34.405  41.533  14.401
14567W        W75878  26.468  13.629   3.717
14568W        W75879  12.799  38.835   0.924
14569W        W75880  18.574   6.704  10.984
14570W        W75881   7.355  23.679  12.360
14571W        W75882   2.852  17.656   0.483
14572W        W75883  38.429  43.944   1.854
14573W        W75884  21.135  16.279  12.911
14574W        W75885  39.398  20.231  13.377
14575W        W75886  26.185  18.112   2.291
14576W        W75887  15.264  34.454  12.951
14577W        W75888  30.938  24.075  14.795
14578W        W75889  14.715  18.608   1.236
14579W        W75890  20.049  25.657   0.295
14580W        W75891  19.144  43.771  13.513
14581W        W75892  44.946   3.904   1.694
14582W        W75893  41.822  41.314   0.749
14583W        W75894  25.612  17.197  11.106
14584W        W75895  35.535  36.039   2.849
14585W        W75896  11.654  44.863  12.435
14586W        W75897   2.865  29.507   3.743
14587W        W75898   4.736  21.205   4.179
14588W        W75899  37.033  17.243  13.829
14589W        W75900  41.400   8.723  11.947
14590W        W75901  28.088  27.109  13.434
14591W        W75902  18.697  30.927  11.380
14592W        W75903  23.670   4.941  10.930
14593W        W75904  20.071   1.387  11.421
14594W        W75905  44.440  22.237   4.351
14595W        W75906   1.249   2.831  14.396
14596W        W75907  18.779  35.374   0.310
14597W        W75908  26.029  31.513   3.211
14598W        W75909  39.360  19.194   1.884
14599W        W75910  36.372   6.889   1.315
14600W        W75911  14.749  22.121  10.026
14601W        W75912  17.165  43.976   1.762
14602W        W75913   3.771  29.561  13.834
14603W        W75914  28.519  10.171  10.556
14604W        W75915  16.164  17.074  10.988
14605W        W75916  40.366   8.269   0.351
14606W        W75917   9.701  32.510   3.697
14607W        W75918  22.662  39.972  11.395
14608W        W75919  32.580  13.713  14.300
14609W        W75920   9.170  44.322   3.753
14610W        W75921  34.079   7.904   0.797
14611W        W75922  41.990   9.842   0.917
14612W        W75923  10.762  41.983  10.460
14613W        W75924  34.910  26.500   3.657
14614W        W75925   1.803  20.046   3.649
14615W        W75926  34.531  31.992  14.332
14616W        W75927   9.651  12.233   1.324
14617W        W75928   6.777  26.558  12.011
14618W        W75929   2.437  39.498   3.868
14619W        W75930  33.399  31.609   0.257
14620W        W75931  37.407   4.229   0.425
14621W        W75932  10.267  39.316  14.791
14622W        W75933  33.127  17.628   2.701
14623W        W75934   0.386  10.663   4.245
14624W        W75935  26.196  26.015  10.607
14625W        W75936  18.216  29.473   0.881
14626W        W75937  11.148  43.882  14.456
14627W        W75938   4.373  14.706  12.539
14628W        W75939  34.868  14.241  11.931
14629W        W75940   0.813  26.979  12.031
14630W        W75941  42.327  19.594   4.294
14631W        W75942   1.892  21.552   3.858
14632W        W75943  31.530  35.569   0.933
14633W        W75944  24.502  38.495   4.143
14634W        W75945  43.833  16.144   0.397
14635W        W75946  25.537  27.940   0.459
14636W        W75947  18.667  10.725   1.818
14637W        W75948  36.404   3.297  13.311
14638W        W75949  16.148  12.762  14.821
14639W        W75950  29.993  25.208   3.657
14640W        W75951  41.340   2.741  12.550
14641W        W75952  17.124   3.348  11.032
14642W        W75953  38.445  36.972  12.074
14643W        W75954  25.089  40.912  13.968
14644W        W75955   8.868  32.555   4.799
14645W        W75956  25.153  34.994  13.389
14646W        W75957  41.373   7.767   1.870
14647W        W75958  33.054  20.720  13.807
14648W        W75959  26.112  11.811   3.190
14649W        W75960  23.567  31.546  14.485
14650W        W75961  43.845  26.615   4.701
14651W        W75962  14.740   6.824  13.544
14652W        W75963  26.057  43.833  14.798
14653W        W75964  29.043  20.036   3.647
14654W        W75965  38.896  44.342   9.966
14655W        W75966  13.655  13.197   2.776
14656W        W75967  16.244  10.312   3.661
14657W        W75968   6.265  22.602   3.240
14658W        W75969  34.027  20.546   3.370
14659W        W75970  22.033  28.139   1.238
14660W        W75971  25.071  23.503  11.023
14661W        W75972  34.585   1.832   0.433
14662W        W75973  12.807  23.711   1.884
14663W        W75974  36.585  28.441  14.340
14664W        W75975  15.774   5.438   5.605
14665W        W75976  13.809  43.850  11.499
14666W        W75977  28.595   1.946  10.555
14667W        W75978  16.192  12.225   4.655
14668W        W75979  33.916  15.617  10.544
14669W        W75980  40.950  34.070   2.796
14670W        W75981  13.696  26.658   3.827
14671W        W75982  34.889   7.272   0.856
14672W        W75983  39.821  13.253  10.631
14673W        W75984  26.041  17.067  12.346
14674W        W75985   2.303  15.666   4.778
14675W        W75986  24.127  38.061   0.289
14676W        W75987  33.513  39.445   0.359
14677W        W75988   4.837  35.534   3.845
14678W        W75989   3.335   7.668  12.385
14679W        W75990  38.514  21.222   4.766
14680W        W75991  42.914   9.774  12.082
14681W        W75992  12.264   5.236   0.335
14682W        W75993  17.172   8.261  13.327
14683W        W75994  22.617  20.272  12.567
14684W        W75995  15.278  24.507   2.767
14685W        W75996  30.118  26.665   2.311
14686W        W75997  42.460  16.214   0.941
14687W        W75998  28.096  36.447   3.293
14688W        W75999  37.504  25.471  11.939
14689W        W76000  33.513  10.242   1.921
14690W        W76001   8.706  34.103   0.270
14691W        W76002   2.236  38.458   0.394
14692W        W76003   6.914  17.594   4.235
14693W        W76004   9.318  43.303  11.543
14694W        W76005   2.888  16.176  13.330
14695W        W76006  36.855  21.217  10.959
14696W        W76007   2.420  12.290   2.315
14697W        W76008  16.734  37.544  13.061
14698W        W76009  13.615   2.796   0.262
14699W        W76010  30.629  41.298  11.927
14700W        W76011   4.710  37.975   3.286
14701W        W76012  19.053  20.569  11.928
14702W        W76013   8.669  29.523  13.024
14703W        W76014  21.697  31.135  12.562
14704W        W76015  21.251  21.077   3.643
14705W        W76016  37.877  15.123  13.963
14706W        W76017   4.842  41.431  11.587
14707W        W76018  39.951  34.531  13.336
14708W        W76019  36.349  26.555  10.541
14709W        W76020   7.706   7.852   2.378
14710W        W76021  42.925  28.060   2.300
14711W        W76022  28.464   1.250  13.486
14712W        W76023   3.303  40.046  11.004
14713W        W76024  26.040  31.954   4.617
14714W        W76025   4.449  17.279   2.243
14715W        W76026   4.778  15.124  11.545
14716W        W76027  20.671  28.584   3.323
14717W        W76028   1.908  41.516   2.319
14718W        W76029   6.234  41.302   0.257
14719W        W76030  35.053   6.848   4.137
14720W        W76031  43.412  24.680   4.643
14721W        W76032  13.222  42.365  13.797
14722W        W76033  16.281   2.403  14.777
14723W        W76034   5.720  15.289  13.511
14724W        W76035  26.627   9.690  12.936
14725W        W76036  34.613  38.422  12.886
14726W        W76037  23.990  26.089  12.068
14727W        W76038  39.436   0.823  13.928
14728W        W76039  35.068  37.049  14.371
14729W        W76040   9.645  38.352  13.862
14730W        W76041  20.078  42.870  13.964
14731W        W76042   0.478  27.123   3.325
14732W        W76043  19.717  34.419  13.050
14733W        W76044  16.800  35.999   1.919
14734W        W76045  27.959  11.247   1.355
14735W        W76046   8.821  44.501   3.705
14736W        W76047  19.204   7.754  11.442
14737W        W76048   3.378  43.883  10.429
14738W        W76049  18.291  10.282   2.349
14739W        W76050  41.427  22.016  13.953
14740W        W76051  44.810  14.182   3.792
14741W        W76052  17.131   2.346  10.439
14742W        W76053  11.625  29.465  14.402
14743W        W76054  23.232  30.557   3.362
14744W        W76055  20.210  16.805   3.255
14745W        W76056  31.474  29.627   0.866
14746W        W76057  33.530  26.499   3.699
14747W        W76058  29.432  36.490   2.893
14748W        W76059  16.594  29.968  14.778
14749W        W76060  17.568  31.007  13.332
14750W        W76061  12.265  43.782  14.024
14751W        W76062  36.575  34.117  12.877
14752W        W76063  43.297  31.483  14.414
14753W        W76064  28.005  31.073   1.891
14754W        W76065   9.812  37.949   4.186
14755W        W76066  24.026  32.622  14.804
14756W        W76067  24.048  28.070   4.337
14757W        W76068   8.773  20.263  11.944
14758W        W76069  34.930  13.738  12.849
14759W        W76070  21.164  37.401   2.823
14760W        W76071  15.709  14.763   1.915
14761W        W76072  15.671  37.860  11.489
14762W        W76073  20.084  33.121   4.796
14763W        W76074  40.485  26.020  12.982
14764W        W76075  30.952   3.902  13.377
14765W        W76076  43.340  42.783   1.743
14766W        W76077  10.349  15.684  13.313
14767W        W76078  30.993  14.831   2.209
14768W        W76079  43.998   8.901   1.899
14769W        W76080  12.316  16.659  14.415
14770W        W76081  16.653  33.125   3.217
14771W        W76082  21.258  38.555   1.916
14772W        W76083   9.241  44.330   4.182
14773W        W76084  15.675   9.856  14.368
14774W        W76085  40.884  42.844   4.764
14775W        W76086  20.165   4.330   0.945
14776W        W76087  12.142  43.376  14.963
14777W        W76088  40.815  20.564   3.302
14778W        W76089  25.161  42.949  12.981
14779W        W76090  22.242  13.211  11.462
14780W        W76091  34.012  12.811  13.349
14781W        W76092  15.799  33.001   2.209
14782W        W76093   9.297   4.789  13.880
14783W        W76094  41.506   1.314  11.457
14784W        W76095  11.347   7.261  13.895
14785W        W76096  27.986  18.156   0.855
14786W        W76097  33.059  26.112  12.448
14787W        W76098  32.538   8.230   1.834
14788W        W76099  11.725  40.444   1.768
14789W        W76100  26.955   3.813   3.644
14790W        W76101  28.018  39.839  13.997
14791W        W76102  29.948  42.445   4.791
14792W        W76103  23.535  43.339   0.894
14793W        W76104  30.107  11.678  14.915
14794W        W76105  22.090  40.417   3.373
14795W        W76106  29.995  14.831   3.863
14796W        W76107  10.864   3.285  13.945
14797W        W76108   2.416  15.312  10.624
14798W        W76109  22.736  44.262  14.507
14799W        W76110  41.920  17.729  11.998
14800W        W76111  22.073  12.628   4.285
14801W        W76112  40.371  41.915   2.203
14802W        W76113  13.324  26.681  14.513
14803W        W76114  24.682  10.732  13.311
14804W        W76115  24.021   8.840   1.760
14805W        W76116  36.963   6.329  11.073
14806W        W76117  36.550  42.405  12.425
14807W        W76118  25.014  36.530   3.796
14808W        W76119  40.379  37.914  14.386
14809W        W76120   1.323  32.415  12.470
14810W        W76121  27.128  19.741   5.167
14811W        W76122  11.709  10.742   9.927
14812W        W76123   5.377  43.808  11.999
14813W        W76124  44.339  23.492   4.743
14814W        W76125  29.523  37.528   4.140
14815W        W76126  23.197  24.085   4.836
14816W        W76127  23.171  31.473   2.309
14817W        W76128  28.653  18.143  10.404
14818W        W76129   6.827   6.869  11.598
14819W        W76130  39.898  37.000   3.851
14820W        W76131  34.939  37.470   4.713
14821W        W76132  28.092  12.159  11.405
14822W        W76133   5.723  11.221   3.757
14823W        W76134  10.789  18.685  14.472
14824W        W76135   1.933  27.638  14.479
14825W        W76136  25.110  34.959   1.440
14826W        W76137   1.835  39.557   0.356
14827W        W76138   9.671  21.071   0.429
14828W        W76139   6.365  23.050  11.914
14829W        W76140  37.465   4.864  10.420
14830W        W76141  37.379  33.518   3.752
14831W        W76142  20.574  43.426  12.358
14832W        W76143  10.314  16.680   4.682
14833W        W76144   7.384  11.688  10.914
14834W        W76145  10.676   6.397   2.760
14835W        W76146  16.792  39.469   3.753
14836W        W76147  25.033  34.530   4.635
14837W        W76148  21.702  22.066   4.119
14838W        W76149  42.369  34.000  12.078
14839W        W76150  22.253  33.120   1.373
14840W        W76151  31.424   8.229   1.771
14841W        W76152  26.492  31.002   3.209
14842W        W76153  42.523   1.350  11.986
14843W        W76154   8.236   4.446   1.272
14844W        W76155  24.486   7.309   0.733
14845W        W76156  30.503  15.820  12.430
14846W        W76157  24.038  26.458  10.623
14847W        W76158  33.616   8.776   0.318
14848W        W76159  22.026  27.643   0.730
14849W        W76160  27.949   8.694  13.906
14850W        W76161  30.108  11.824   3.246
14851W        W76162  41.835   2.274  14.975
14852W        W76163  11.680  31.519  14.456
14853W        W76164  18.073   9.353  13.491
14854W        W76165  27.670  38.485   3.637
14855W        W76166  30.108  24.627  11.881
14856W        W76167  36.378  40.810  11.558
14857W        W76168  23.678  23.115  14.864
14858W        W76169   1.479  31.099   3.679
14859W        W76170  13.228  24.059  14.831
14860W        W76171  34.539  36.047  11.026
14861W        W76172  12.697  44.273   4.348
14862W        W76173   1.431  30.034   2.716
14863W        W76174  35.503  17.627  10.624
14864W        W76175  29.977   4.272  12.845
14865W        W76176  14.717  25.096  10.415
14866W        W76177  23.045  34.454   2.290
14867W        W76178  40.449  27.183  10.984
14868W        W76179  37.989  44.950  13.951
14869W        W76180  37.916  26.565  14.342
14870W        W76181  27.120  27.683   4.205
14871W        W76182  24.667  23.496  12.367
14872W        W76183  15.767  43.321   0.769
14873W        W76184  31.519   5.372   4.247
14874W        W76185  33.480  37.050  12.925
14875W        W76186   4.444   3.409  10.496
14876W        W76187   7.255  32.904  13.983
14877W        W76188   7.288  17.752  14.022
14878W        W76189  41.802   8.362   0.768
14879W        W76190   1.317  24.682   0.367
14880W        W76191   8.279  29.607  12.048
14881W        W76192  36.868  23.730  10.958
14882W        W76193  23.693  41.493   3.348
14883W        W76194   3.246  14.282  10.470
14884W        W76195  33.117   1.410  14.811
14885W        W76196  25.110  36.044  14.448
14886W        W76197  25.502  19.185   0.438
14887W        W76198  34.067  15.212  13.534
14888W        W76199  27.567   8.199  13.842
14889W        W76200  14.681  24.028  13.973
14890W        W76201  41.293   1.921  11.519
14891W        W76202  21.630  36.037  11.909
14892W        W76203  10.697  15.595   1.269
14893W        W76204  34.104   7.815   0.343
14894W        W76205  15.170  42.282   4.135
14895W        W76206  23.120  42.925  13.919
14896W        W76207  14.108   3.267   3.811
14897W        W76208   2.734  31.153  12.572
14898W        W76209  35.510  16.074   2.891
14899W        W76210  41.827  44.834   2.669
14900W        W76211  39.340  41.497   3.315
14901W        W76212  40.022  34.461   0.441
14902W        W76213  19.205  13.147  12.050
14903W        W76214  31.542  29.134   2.676
14904W        W76215   5.327   1.343   3.265
14905W        W76216   5.199   6.701  13.044
14906W        W76217  33.511  13.788   2.295
14907W        W76218  41.381  41.443  10.600
14908W        W76219  38.368  26.046  14.903
14909W        W76220  25.522  18.216  11.579
14910W        W76221  41.484  20.238   1.272
14911W        W76222  22.203   0.902   4.160
14912W        W76223   4.886  41.418   3.740
14913W        W76224  14.653  26.079   9.656
14914W        W76225  33.512  20.676   2.224
14915W        W76226  23.006  40.339   1.785
14916W        W76227  10.714  20.651   0.427
14917W        W76228  10.808  42.906   1.242
14918W        W76229   0.281  38.356   0.255
14919W        W76230  27.026  18.568  12.542
14920W        W76231   0.852  39.400  11.082
14921W        W76232  18.545   4.815   1.860
14922W        W76233  27.040  30.599  14.304
14923W        W76234  30.625  30.506  13.949
14924W        W76235  14.146  40.911   2.284
14925W        W76236  30.981  30.607  14.888
14926W        W76237  36.378  10.354   2.799
14927W        W76238  32.496  40.830   3.696
14928W        W76239  41.836  20.765  14.341
14929W        W76240  34.884  27.526   3.186
14930W        W76241   5.244  31.081   4.750
14931W        W76242  17.586  38.549   2.376
14932W        W76243   2.958  22.081  14.906
14933W        W76244  20.751  19.545   3.342
14934W        W76245   7.837  13.739   0.785
14935W        W76246  20.071  33.496   1.790
14936W        W76247   4.832  32.614  13.521
14937W        W76248  19.712  15.630  13.537
14938W        W76249  29.046  32.434  12.357
14939W        W76250  22.705   8.835   3.867
14940W        W76251  13.212   5.706  10.921
14941W        W76252  22.024  13.340   0.959
14942W        W76253  25.087  10.242  14.787
14943W        W76254   5.294  40.885   4.615
14944W        W76255  25.678   4.847  14.465
14945W        W76256   5.925  24.186   4.635
14946W        W76257  33.989  27.093   3.859
14947W        W76258  16.137  37.923   3.259
14948W        W76259   4.238  39.377   1.906
14949W        W76260   3.416  11.208  10.929
14950W        W76261  40.972  18.092  12.581
14951W        W76262  16.778  13.208   9.973
14952W        W76263  44.891  39.533   4.163
14953W        W76264  38.926  17.185   2.797
14954W        W76265  21.536   3.768   4.808
14955W        W76266  43.275  22.131   3.870
14956W        W76267  28.184  14.332   1.386
14957W        W76268   6.274  27.661   3.803
14958W        W76269  39.931  23.735  10.567
14959W        W76270  11.205  43.513  11.499
14960W        W76271  24.049  31.486  13.372
14961W        W76272   0.475   5.913  10.453
14962W        W76273  18.664  20.228   3.683
14963W        W76274  43.318  12.717  13.530
14964W        W76275   4.387  24.607   1.287
14965W        W76276  28.562  16.704  12.498
14966W        W76277  10.762  43.411  10.636
14967W        W76278   5.278  41.347  11.013
14968W        W76279  37.943  40.840  11.047
14969W        W76280  41.441  42.461  12.040
14970W        W76281  44.419  25.113  13.371
14971W        W76282   4.353  35.857  10.411
14972W        W76283  32.093   8.803   2.861
14973W        W76284  44.485  25.024   2.684
14974W        W76285   6.364  43.899   1.720
14975W        W76286  26.050  39.896  11.865
14976W        W76287  31.062  24.659  12.563
14977W        W76288  14.332   0.960  10.927
14978W        W76289   4.308  15.652   1.394
14979W        W76290  34.111   0.308   1.774
14980W        W76291  42.817   8.747  10.021
14981W        W76292  34.076  30.127  11.496
14982W        W76293  38.542   3.775   4.639
14983W        W76294  29.549  42.850   0.313
14984W        W76295   6.402  21.754   4.665
14985W        W76296   5.795  30.963  11.876
14986W        W76297  42.510  11.822  13.979
14987W        W76298  33.030  21.092  12.851
14988W        W76299  27.040  34.033   1.357
14989W        W76300   6.299  19.275   1.916
14990W        W76301  40.920  20.121   2.751
14991W        W76302  25.096  28.497   0.834
14992W        W76303  17.606  21.632  14.764
14993W        W76304  31.135  39.845  11.944
14994W        W76305  34.949   9.789  14.955
14995W        W76306  13.695  22.997   1.441
14996W        W76307   2.963  35.913  11.032
14997W        W76308  28.677  29.023   0.338
14998W        W76309  43.439  33.068  13.900
14999W        W76310   8.709   4.738  14.807
15000W        W76311  30.925  21.592  14.296
15001W        W76312   0.922  13.272   1.929
15002W        W76313  14.700   0.492  14.315
15003W        W76314  18.275   7.826  11.066
15004W        W76315  29.035  18.096   4.632
15005W        W76316  29.097  39.936   0.967
15006W        W76317  36.396  22.531  13.802
15007W        W76318  11.272  44.483   1.774
15008W        W76319   2.880  37.000   2.416
15009W        W76320  44.834  32.404  13.848
15010W        W76321  21.214  32.907  14.924
15011W        W76322   5.755  39.013  13.354
15012W        W76323  13.148  28.039   2.902
15013W        W76324  31.090  35.944   4.165
15014W        W76325   4.431   7.364   3.835
15015W        W76326  23.588  18.184  13.822
15016W        W76327  22.140  40.049   3.657
15017W        W76328   3.349   1.356   1.382
15018W        W76329  20.579  13.673   0.268
15019W        W76330   4.886  12.278   1.212
15020W        W76331  37.455  27.584  13.895
15021W        W76332  18.596  31.101  13.056
15022W        W76333  26.969  30.620   4.681
15023W        W76334  34.401  29.538  10.433
15024W        W76335  34.489   3.720   1.338
15025W        W76336  38.387  29.660  13.880
15026W        W76337  42.428  16.135  14.025
15027W        W76338  35.076  13.295  13.394
15028W        W76339  12.838  36.506  12.899
15029W        W76340  38.530  15.817   4.332
15030W        W76341  36.848  35.908   0.337
15031W        W76342   8.787  32.951   0.967
15032W        W76343  37.878  30.978  13.941
15033W        W76344  23.518  19.634  11.385
15034W        W76345  17.303   6.838  10.563
15035W        W76346  25.115  20.129   2.331
15036W        W76347  30.031  16.174   1.380
15037W        W76348   7.728  40.388  13.482
15038W        W76349  10.784  34.086  12.020
15039W        W76350  36.535  29.624   4.330
15040W        W76351  12.210   0.324   3.295
15041W        W76352   0.452  41.388   0.461
15042W        W76353  34.576   2.817  13.870
15043W        W76354  19.161  15.255   2.240
15044W        W76355  16.732  15.687  11.587
15045W        W76356  36.355  10.827   3.758
15046W        W76357  27.618  18.168  12.012
15047W        W76358  39.367  38.860   3.699
15048W        W76359  39.996  21.141  12.510
15049W        W76360  23.034  27.512   9.925
15050W        W76361  16.595  28.674   0.410
15051W        W76362  30.415  32.020  12.089
15052W        W76363  38.992   2.310  12.530
15053W        W76364   5.197   9.798   0.294
15054W        W76365  16.705  37.070  10.415
15055W        W76366  14.138  30.418   4.170
15056W        W76367   7.297  11.241  14.276
15057W        W76368   7.846   2.794   0.254
15058W        W76369   8.691  44.914   0.939
15059W        W76370   3.942   2.295   0.903
15060W        W76371   4.815   7.185   1.337
15061W        W76372  34.029  30.585  14.813
15062W        W76373  14.101   9.206   1.214
15063W        W76374  29.561   1.903  10.407
15064W        W76375  29.980  21.564   0.417
15065W        W76376  18.635   5.389   1.755
15066W        W76377   1.836  10.746  13.336
15067W        W76378  36.047   3.822   1.392
15068W        W76379  12.817  30.925  12.410
15069W        W76380  18.725  33.076   3.329
15070W        W76381  44.443  40.316   2.730
15071W        W76382  12.629  29.663   2.848
15072W        W76383  23.204  33.104  13.910
15073W        W76384  15.220   7.726  13.525
15074W        W76385   2.957   5.757   1.927
15075W        W76386  32.919  21.180  10.607
15076W        W76387   8.370  28.609   2.259
15077W        W76388  39.880  30.100  11.954
15078W        W76389  38.900  32.899   1.935
15079W        W76390  23.107  28.482  12.869
15080W        W76391  19.107  37.443  13.496
15081W        W76392  20.221  36.946   1.791
15082W        W76393  33.617  44.930   4.283
15083W        W76394  37.362  42.878  12.841
15084W        W76395  33.492  21.742   0.400
15085W        W76396  36.944  26.201  12.860
15086W        W76397  34.517  31.944  13.451
15087W        W76398  39.929  42.340   3.321
15088W        W76399  44.843  31.504  13.415
15089W        W76400  34.592  12.288  11.868
15090W        W76401  18.078  25.647  13.795
15091W        W76402  21.078   7.214  13.504
15092W        W76403  40.449  18.684   3.243
15093W        W76404  24.018  14.780  14.468
15094W        W76405   6.851  21.634  14.758
15095W        W76406  17.275  33.393  14.004
15096W        W76407  33.528  31.943  14.294
15097W        W76408   2.309  37.974   3.209
15098W        W76409  10.259  19.137  13.417
15099W        W76410  38.046  35.570   0.861
15100W        W76411  12.741  44.930   3.210
15101W        W76412  35.041  36.468   0.922
15102W        W76413   6.787   2.961   1.703
15103W        W76414   8.196  40.843  11.070
15104W        W76415  19.140  20.740  11.372
15105W        W76416  25.047  28.438   2.362
15106W        W76417   5.887   8.790  11.980
15107W        W76418  14.236  40.316  13.444
15108W        W76419   3.260  26.621   5.162
15109W        W76420  44.787   5.437   4.644
15110W        W76421  37.449  40.325  11.443
15111W        W76422   2.868  19.079  13.965
15112W        W76423   8.393  40.527   3.176
15113W        W76424  29.175  22.712   3.315
15114W        W76425  22.060  35.417   4.737
15115W        W76426  12.150  40.345   2.861
15116W        W76427  25.650  32.479  11.046
15117W        W76428  15.657  32.916   1.425
15118W        W76429   7.846  11.817   0.874
15119W        W76430   7.740   2.456  14.889
15120W        W76431  25.197  18.263   9.985
15121W        W76432  16.668  13.311   4.601
15122W        W76433  37.842  23.700  13.803
15123W        W76434  28.023  35.537  12.558
15124W        W76435  43.343  43.971  11.858
15125W        W76436  10.279  15.234  11.100
15126W        W76437   1.346  31.432   2.261
15127W        W76438  17.259  39.965  11.393
15128W        W76439  25.494  37.063  13.961
15129W        W76440  15.087  31.504  13.392
15130W        W76441  40.506  38.972  11.521
15131W        W76442  34.939  32.978   3.858
15132W        W76443  41.343  34.875   3.737
15133W        W76444  36.925  20.121   3.330
15134W        W76445  25.065  30.134  14.392
15135W        W76446   2.472  27.549   3.657
15136W        W76447  30.930  11.709   4.208
15137W        W76448  40.968  13.834   0.951
15138W        W76449  40.342  34.518  10.610
15139W        W76450   2.827  40.866   2.663
15140W        W76451  10.641  41.818  12.880
15141W        W76452  41.911  25.596  14.431
15142W        W76453  15.766  19.721   1.381
15143W        W76454  14.752  40.907   2.752
15144W        W76455  31.505   6.392   3.824
15145W        W76456   4.395  17.238   3.649
15146W        W76457  11.148  27.519   4.796
15147W        W76458  25.632  30.041  11.876
15148W        W76459  19.110  44.985   2.250
15149W        W76460   6.347   0.820   1.263
15150W        W76461   6.867   8.395  10.429
15151W        W76462  24.641  11.639  12.908
15152W        W76463  12.716  36.943   4.598
15153W        W76464  39.414  37.029  13.489
15154W        W76465  37.485   5.214   4.628
15155W        W76466  30.656  11.660  13.846
15156W        W76467  29.489  25.529   0.835
15157W        W76468  25.671  24.616  12.367
15158W        W76469   3.222  41.351  11.046
15159W        W76470  37.348  33.544  10.477
15160W        W76471   5.328  22.675  10.069
15161W        W76472   8.365   0.949  12.565
15162W        W76473  34.879  17.748  12.940
15163W        W76474  44.344  39.830  13.834
15164W        W76475  39.926  23.170   1.312
15165W        W76476  34.416  30.955   0.823
15166W        W76477  16.725  28.041  10.626
15167W        W76478  11.635   7.324   2.400
15168W        W76479  10.190   7.750  14.375
15169W        W76480  19.758  25.111  12.544
15170W        W76481   9.372  12.838  13.953
15171W        W76482  44.008  43.287  14.782
15172W        W76483  12.336   5.242   4.806
15173W        W76484  13.845  26.064  14.373
15174W        W76485   3.730   9.874   2.236
15175W        W76486  20.741  20.243   9.549
15176W        W76487  37.951   8.866   0.322
15177W        W76488  34.534  36.914   1.278
15178W        W76489  33.481  41.401   3.188
15179W        W76490   6.682  35.932  14.817
15180W        W76491  42.783   6.217   2.378
15181W        W76492  41.831  39.983   2.257
15182W        W76493  37.483  37.453   0.849
15183W        W76494  31.008  29.527  12.555
15184W        W76495  14.744  39.860   3.157
15185W        W76496  11.769  32.457  11.548
15186W        W76497  23.220  39.873  14.014
15187W        W76498  22.558  30.625   0.384
15188W        W76499  22.632  22.603   3.254
15189W        W76500  15.630  40.962  14.443
15190W        W76501  20.042  41.356   3.199
15191W        W76502   3.910  30.455   2.284
15192W        W76503  38.946  11.221   3.233
15193W        W76504  41.931  14.759   4.631
15194W        W76505  40.823  42.324  13.893
15195W        W76506  26.977  28.052   1.305
15196W        W76507   1.743  32.468  13.477
15197W        W76508  18.099  19.261  11.907
15198W        W76509  13.702   4.848   3.365
15199W        W76510  30.952   3.712   2.701
15200W        W76511   7.320  13.713   3.313
15201W        W76512  25.631  39.020   4.736
15202W        W76513  16.299   2.830  12.547
15203W        W76514  44.354  15.249   3.159
15204W        W76515  32.039  30.019  14.493
15205W        W76516   0.868  19.552   3.743
15206W        W76517  21.193   3.333  13.354
15207W        W76518  13.764  37.518   0.348
15208W        W76519  18.086  27.608  12.521
15209W        W76520  39.505  33.937  13.313
15210W        W76521  42.332   8.788  12.962
15211W        W76522  12.224  34.386   2.729
15212W        W76523  29.152   7.334  12.985
15213W        W76524  21.753  15.223  12.968
15214W        W76525  27.644  28.143  13.391
15215W        W76526  10.666  18.562   2.367
15216W        W76527  40.363  18.105  11.401
15217W        W76528  29.079   6.686   5.794
15218W        W76529   5.797  30.125   2.770
15219W        W76530  24.501  44.261   4.277
15220W        W76531  21.094  38.077  14.390
15221W        W76532  35.536  35.385  11.989
15222W        W76533  29.991  35.446   2.380
15223W        W76534  15.163  16.155  13.872
15224W        W76535   8.283   4.739  11.064
15225W        W76536  24.100   1.946   4.825
15226W        W76537  36.415   5.748  14.875
15227W        W76538  38.051  10.272  10.425
15228W        W76539   0.844  21.102   3.721
15229W        W76540  29.010   7.326   5.633
15230W        W76541  10.381   3.794  12.425
15231W        W76542  14.148  30.001   1.256
15232W        W76543  37.954  38.069   2.345
15233W        W76544  32.092  26.650  13.865
15234W        W76545   4.339  32.054  11.509
15235W        W76546  39.926  44.871  13.317
15236W        W76547   0.297  27.579   1.729
15237W        W76548   2.903  29.919   1.214
15238W        W76549  24.021  25.986   4.313
15239W        W76550  24.604  17.646  10.934
15240W        W76551  22.668  44.960  13.457
15241W        W76552   1.926   1.781  10.456
15242W        W76553  22.628  20.718  11.601
15243W        W76554  17.708  19.682  13.922
15244W        W76555  34.003  23.141  14.024
15245W        W76556  36.003  37.872   0.861
15246W        W76557  37.043  24.973   2.880
15247W        W76558   5.816   3.843   4.174
15248W        W76559  10.362  22.684  14.339
15249W        W76560  24.541  27.539   2.812
15250W        W76561  28.002   1.732  13.064
15251W        W76562  11.694   2.431  13.542
15252W        W76563  38.462  21.199   0.362
15253W        W76564   9.168  29.145   0.956
15254W        W76565  36.024   7.260  11.600
15255W        W76566  26.147  26.051   3.304
15256W        W76567  29.959  36.368  13.406
15257W        W76568   4.772   3.312   9.926
15258W        W76569   0.269  28.020  13.533
15259W        W76570  36.375  26.195   3.677
15260W        W76571   9.798  21.143  13.031
15261W        W76572  18.202   6.184  14.774
15262W        W76573  34.473  27.567   0.271
15263W        W76574  34.990   7.373   4.300
15264W        W76575  25.659  24.121   1.794
15265W        W76576   6.832  24.557   3.853
15266W        W76577  30.163   6.769  13.485
15267W        W76578  27.599  13.813   1.789
15268W        W76579  16.772   4.797  11.025
15269W        W76580   6.363  34.615  13.850
15270W        W76581   8.325  32.477  12.538
15271W        W76582  18.259  38.355  11.593
15272W        W76583   8.354   2.266   0.400
15273W        W76584  40.466   5.787   1.280
15274W        W76585   4.230  29.982   1.810
15275W        W76586   8.828  28.565  14.916
15276W        W76587  35.072  35.582  13.973
15277W        W76588  26.113  38.370  11.942
15278W        W76589  33.382  37.993   2.884
15279W        W76590  36.549  17.221   2.357
15280W        W76591  31.899  17.748  11.410
15281W        W76592  35.546  12.740   4.280
15282W        W76593   3.949   9.230  14.309
15283W        W76594  11.183  42.383   1.364
15284W        W76595  31.451  26.176   4.290
15285W        W76596  20.246   3.710   2.232
15286W        W76597  15.728  39.435  13.323
15287W        W76598  21.099  25.089  11.484
15288W        W76599  28.562  12.286  14.811
15289W        W76600  21.250   9.217   1.253
15290W        W76601  30.569   5.204   9.950
15291W        W76602   7.192  13.352   3.278
15292W        W76603  27.464  17.178   3.366
15293W        W76604  43.995  35.934   3.839
15294W        W76605  30.050  31.074  13.423
15295W        W76606  19.594   9.295  11.552
15296W        W76607  23.573  22.711  10.528
15297W        W76608   9.312  27.542   4.254
15298W        W76609  15.678  18.588  14.862
15299W        W76610  40.374  24.033   1.886
15300W        W76611  41.400  42.300  10.611
15301W        W76612  13.331  29.499   1.256
15302W        W76613  21.128   2.902   0.733
15303W        W76614  23.083  15.698  11.871
15304W        W76615  14.607  33.094  12.973
15305W        W76616  19.171  21.606   2.871
15306W        W76617  13.707   8.396  13.894
15307W        W76618  27.179  36.929   0.761
15308W        W76619  14.741   2.789  10.918
15309W        W76620  14.182   1.315  11.018
15310W        W76621  30.628  17.629  13.403
15311W        W76622  40.980  30.454  12.460
15312W        W76623   0.459  44.504   1.907
15313W        W76624  15.280  34.030  10.448
15314W        W76625   6.249   8.759  14.368
15315W        W76626  15.697  30.551   3.283
15316W        W76627  35.483  19.710  12.495
15317W        W76628   6.277  44.320   0.328
15318W        W76629  24.027  12.333   0.737
15319W        W76630  41.350   3.291  12.472
15320W        W76631  23.675  20.611  13.815
15321W        W76632  15.663  25.563   2.767
15322W        W76633  11.822  26.674  14.306
15323W        W76634  26.090  29.434   4.144
15324W        W76635   0.766  37.373  14.935
15325W        W76636  10.163  32.612  14.000
15326W        W76637  14.718  12.764  14.815
15327W        W76638  27.646   6.761  14.811
15328W        W76639  28.479  31.994  12.464
15329W        W76640  24.209  11.644   1.870
15330W        W76641   0.747  24.678   3.857
15331W        W76642   4.760   2.327  11.557
15332W        W76643   7.686  30.469   0.389
15333W        W76644  16.101   5.312   4.324
15334W        W76645  37.991  21.514  13.516
15335W        W76646  22.584  13.721   2.701
15336W        W76647  14.300  14.691  14.430
15337W        W76648  41.880  25.124  12.943
15338W        W76649   3.743  33.986   4.766
15339W        W76650   5.254  26.659  14.332
15340W        W76651  27.054  20.670   4.673
15341W        W76652  43.831   9.172  11.510
15342W        W76653  14.316  11.856   3.260
15343W        W76654  15.666  27.149   3.295
15344W        W76655  43.291  39.370  10.633
15345W        W76656  32.033  16.803   1.280
15346W        W76657  22.620  11.149  14.814
15347W        W76658  36.998  22.574  10.476
15348W        W76659  38.422   7.857  12.011
15349W        W76660  32.067  30.420  11.078
15350W        W76661  25.058  41.336  11.966
15351W        W76662  12.834  38.358  13.846
15352W        W76663  35.895  44.771   1.756
15353W        W76664  42.953  39.350  11.989
15354W        W76665  31.597   3.447  14.774
15355W        W76666  15.718  28.631  14.824
15356W        W76667  29.924  25.025   0.258
15357W        W76668  14.690   6.312  11.386
15358W        W76669  29.642  28.163   2.707
15359W        W76670  18.136  42.487  11.552
15360W        W76671  20.577  38.337   9.595
15361W        W76672  31.462  37.463  14.941
15362W        W76673  36.027  36.395  10.924
15363W        W76674  22.541  22.573   2.314
15364W        W76675  23.603  31.900  10.560
15365W        W76676   2.878  16.771  13.332
15366W        W76677   1.454  31.039  13.937
15367W        W76678  31.124  38.466  14.021
15368W        W76679  25.684  17.796   0.882
15369W        W76680  37.084  42.417   0.427
15370W        W76681  28.011  26.179  13.326
15371W        W76682  39.353  44.880   3.330
15372W        W76683  29.459   0.326  12.069
15373W        W76684  42.425   4.727  14.454
15374W        W76685  40.532   7.890   3.657
15375W        W76686  34.505   5.295   4.171
15376W        W76687  30.479  14.179  11.982
15377W        W76688  39.458  34.031   0.250
15378W        W76689  20.720  20.657   3.705
15379W        W76690  20.685  17.638   3.732
15380W        W76691   1.845  30.501   1.440
15381W        W76692   6.370  41.372  14.294
15382W        W76693  21.613  24.164   2.356
15383W        W76694  15.660  14.209  14.023
15384W        W76695  17.779  28.966  12.943
15385W        W76696   9.872  25.546   0.952
15386W        W76697  36.961  10.269   1.430
15387W        W76698  19.599  24.568   3.306
15388W        W76699  16.646  13.610   0.281
15389W        W76700   2.803  43.490  14.787
15390W        W76701  23.672   5.232   1.775
15391W        W76702  43.451  17.659  12.831
15392W        W76703  42.865  39.918  10.057
15393W        W76704   2.791  44.869  14.389
15394W        W76705  39.851  12.282   2.338
15395W        W76706   8.856  39.831   2.316
15396W        W76707  29.670   2.336  14.854
15397W        W76708   8.787  40.333   5.106
15398W        W76709  37.937  26.996  14.980
15399W        W76710  29.515  39.400  12.483
15400W        W76711  12.695  15.610   2.200
15401W        W76712  26.980  32.594  12.030
15402W        W76713  36.484  29.986  11.477
15403W        W76714  32.488  38.541  13.827
15404W        W76715   5.728   2.397  14.005
15405W        W76716  24.537  31.589   3.736
15406W        W76717  15.244   5.287  13.005
15407W        W76718  28.569  17.786  13.981
15408W        W76719   6.910  27.066  10.615
15409W        W76720  24.982   3.258  10.406
15410W        W76721  30.928  25.609  10.607
15411W        W76722  38.996  24.052  12.341
15412W        W76723  20.748   9.315  13.012
15413W        W76724   2.448  36.350   0.755
15414W        W76725  21.723  38.028   9.565
15415W        W76726   6.696  39.968  10.576
15416W        W76727  32.584  18.674   0.295
15417W        W76728  13.760  41.032  14.360
15418W        W76729  36.036  16.661   0.418
15419W        W76730   3.813  27.476   3.803
15420W        W76731  38.486   3.763   3.166
15421W        W76732  14.135  13.635  13.438
15422W        W76733  20.593   9.345   3.739
15423W        W76734  15.160   0.939   4.606
15424W        W76735  30.943   9.818  12.870
15425W        W76736  15.130  42.880  10.454
15426W        W76737  20.569  28.588   0.343
15427W        W76738  12.303  39.065  10.936
15428W        W76739  44.321  24.590  14.485
15429W        W76740  13.282  18.289   2.686
15430W        W76741  17.075  24.062   1.299
15431W        W76742  26.700   6.332  13.821
15432W        W76743  42.806  38.532   2.194
15433W        W76744   7.363  19.177   3.193
15434W        W76745  36.004  28.540  12.930
15435W        W76746  10.747   5.712   2.257
15436W        W76747   8.871  37.408  11.101
15437W        W76748  42.896  21.621   2.814
15438W        W76749  34.906  30.572  14.391
15439W        W76750  43.384  35.494  12.987
15440W        W76751  33.621  31.488   4.829
15441W        W76752   6.788  12.747   0.270
15442W        W76753  28.611  29.575  10.471
15443W        W76754  21.582  23.050   2.383
15444W        W76755  39.369  22.121  14.790
15445W        W76756  34.422  35.500  12.903
15446W        W76757  25.644  35.867  14.873
15447W        W76758   2.781  25.641  13.929
15448W        W76759  32.063  41.790  13.017
15449W        W76760  24.171  18.650   1.235
15450W        W76761  27.610   2.332   4.773
15451W        W76762  10.796  38.894   1.721
15452W        W76763  31.990   6.246  14.932
15453W        W76764  16.810  12.324  13.962
15454W        W76765  13.798  29.648  11.432
15455W        W76766  19.147  40.880  12.417
15456W        W76767  11.639  35.583   0.382
15457W        W76768   8.784  40.913   2.389
15458W        W76769  28.665  33.954   1.247
15459W        W76770  29.000   0.824   4.658
15460W        W76771  22.606  21.243  14.431
15461W        W76772  29.034  11.686  14.889
15462W        W76773  10.875   8.307  13.829
15463W        W76774  40.022  20.170   0.770
15464W        W76775  37.943  29.541   4.765
15465W        W76776  30.140  38.400  12.971
15466W        W76777  40.530  31.972   1.863
15467W        W76778  43.281  36.009  13.023
15468W        W76779  26.645   2.270   2.392
15469W        W76780   8.320  15.819   2.834
15470W        W76781  20.240  13.607   4.757
15471W        W76782  35.940  24.978  13.930
15472W        W76783  36.000  12.337   4.641
15473W        W76784  28.100  44.338  14.478
15474W        W76785  24.092  27.627  10.516
15475W        W76786  29.625  31.451   2.788
15476W        W76787  25.484  34.454  11.507
15477W        W76788  38.477  30.094  12.051
15478W        W76789   6.920  17.153  11.016
15479W        W76790  29.008  19.613   4.317
15480W        W76791  34.473  42.483  11.464
15481W        W76792  14.655   8.219   3.725
15482W        W76793  22.638   0.264   4.640
15483W        W76794  11.228  26.161   3.215
15484W        W76795  14.299  11.825   2.762
15485W        W76796   0.490  41.825   0.809
15486W        W76797  20.057  40.960  13.394
15487W        W76798  34.877  11.131  10.463
15488W        W76799   7.666   5.752  14.794
15489W        W76800  25.688  35.050   2.359
15490W        W76801   4.297   4.791  12.051
15491W        W76802  14.158  42.473  11.115
15492W        W76803  38.388  10.664  10.437
15493W        W76804  33.942  18.683   3.171
15494W        W76805   9.253  40.390   1.280
15495W        W76806  33.400  20.604  12.372
15496W        W76807  36.408  27.644  11.965
15497W        W76808  21.618   5.268  14.322
15498W        W76809  36.517   7.281  14.852
15499W        W76810  12.634  28.486  14.814
15500W        W76811   1.371  36.548  14.401
15501W        W76812  36.961  27.583  13.839
15502W        W76813  44.892   1.891   2.828
15503W        W76814  31.626   7.367   0.851
15504W        W76815  17.301   2.300  10.099
15505W        W76816  24.596  18.090   1.780
15506W        W76817   1.875  43.966  14.508
15507W        W76818   0.391  19.231  12.550
15508W        W76819  15.083  44.428  13.920
15509W        W76820  28.585  18.270   3.705
15510W        W76821  22.705  33.018   2.192
15511W        W76822   7.259  36.002   2.321
15512W        W76823  40.477   8.812  14.834
15513W        W76824  38.508   5.410   1.926
15514W        W76825  29.060   6.877   1.374
15515W        W76826   2.949   0.392   1.702
15516W        W76827  30.976  16.175   0.354
15517W        W76828  35.030  24.502  12.033
15518W        W76829   3.251   0.969   2.867
15519W        W76830  30.994  16.129  14.913
15520W        W76831  27.513  28.074   4.625
15521W        W76832  15.230  40.980  10.559
15522W        W76833  24.181  20.214  12.479
15523W        W76834   3.239  14.613   0.925
15524W        W76835  19.619   0.801  11.039
15525W        W76836  43.904  34.899   3.149
15526W        W76837  37.879  35.060   3.365
15527W        W76838  32.058  10.710   4.641
15528W        W76839   4.794  30.643  13.507
15529W        W76840   1.328  16.714  14.954
15530W        W76841  36.388  22.586  14.776
15531W        W76842   0.253  38.016   1.931
15532W        W76843   0.360   1.332   3.214
15533W        W76844   6.380  14.327  13.545
15534W        W76845  17.272  42.509  10.429
15535W        W76846  36.856  42.368   4.318
15536W        W76847   9.333  24.556  14.319
15537W        W76848  27.473  10.384   4.794
15538W        W76849  14.797   7.383  11.116
15539W        W76850  32.629  32.518  11.556
15540W        W76851  41.934   6.716   2.263
15541W        W76852  19.275  44.392  12.933
15542W        W76853   6.211  17.062   0.270
15543W        W76854  28.156  23.664   3.801
15544W        W76855  32.611  10.862   1.844
15545W        W76856  43.783  35.063  10.612
15546W        W76857  34.955  33.395  11.546
15547W        W76858   5.786  11.799   4.723
15548W        W76859  17.748  43.842  13.999
15549W        W76860   1.778  13.280  10.591
15550W        W76861   6.413  41.412   1.283
15551W        W76862  15.753  15.226   1.772
15552W        W76863  25.974  24.054   3.341
15553W        W76864   5.843  11.792   4.267
15554W        W76865  28.142  24.157   1.841
15555W        W76866  26.572  25.087   0.353
15556W        W76867  37.881   4.341   3.716
15557W        W76868   3.256  21.643   2.875
15558W        W76869   9.388   0.399   1.857
15559W        W76870  29.109  23.023  13.313
15560W        W76871  39.020  26.152  11.578
15561W        W76872  35.388   7.723  14.437
15562W        W76873  10.176  20.057   2.756
15563W        W76874   7.307  31.046  11.099
15564W        W76875  23.489  19.141  14.465
15565W        W76876  22.591  30.640  13.943
15566W        W76877  34.483  28.005  11.110
15567W        W76878  24.203  42.826  10.416
15568W        W76879   2.827  23.729  14.781
15569W        W76880  37.420  26.701   4.624
15570W        W76881  21.192  10.155   4.167
15571W        W76882   0.368   9.857  10.488
15572W        W76883  20.702   2.836   3.176
15573W        W76884   3.230  35.084   2.254
15574W        W76885  37.363  16.795  13.837
15575W        W76886  10.827  16.284   2.847
15576W        W76887  40.314  40.053   9.445
15577W        W76888  18.758  25.610  12.831
15578W        W76889  32.909   2.872   0.879
15579W        W76890  11.306  23.606  10.585
15580W        W76891   1.303  16.117   2.708
15581W        W76892  21.533   1.944  11.092
15582W        W76893  27.007   8.295   0.355
15583W        W76894  36.920  43.769  11.603
15584W        W76895  31.056  33.585  13.312
15585W        W76896  40.872  22.200  11.988
15586W        W76897  17.571  31.433  14.452
15587W        W76898   3.234  42.430   2.415
15588W        W76899  26.597  29.440   3.262
15589W        W76900  39.543  23.210  12.498
15590W        W76901  41.805  31.070   3.824
15591W        W76902  44.903  12.237   2.822
15592W        W76903  29.084  15.755   4.614
15593W        W76904   3.888  37.918   0.314
15594W        W76905   8.336  33.412  13.354
15595W        W76906  17.167  33.905   1.798
15596W        W76907  16.619  12.612   9.988
15597W        W76908  23.054  16.318   4.337
15598W        W76909   9.266   7.732  10.487
15599W        W76910  41.856  27.689  14.277
15600W        W76911  39.447  13.745  10.484
15601W        W76912  14.199  22.023  12.520
15602W        W76913  23.215   5.911  10.511
15603W        W76914  14.163   4.861   3.857
15604W        W76915   7.229   0.318   2.690
15605W        W76916  29.569   5.266   2.224
15606W        W76917  33.094   1.466   2.717
15607W        W76918  13.699   7.813   2.768
15608W        W76919  42.332  44.337  14.312
15609W        W76920  40.876  30.632  12.034
15610W        W76921   4.216  33.466   2.194
15611W        W76922  42.947  22.041   0.960
15612W        W76923  21.643  19.187  14.423
15613W        W76924  10.826   1.336   0.794
15614W        W76925  38.884  21.053  12.964
15615W        W76926  40.405  29.170  13.949
15616W        W76927  26.637  15.793   4.658
15617W        W76928  12.689  31.022  11.514
15618W        W76929  34.917   5.331  12.379
15619W        W76930  23.223  20.742  11.565
15620W        W76931  44.836  36.576  11.882
15621W        W76932  28.627  26.685  12.000
15622W        W76933  29.482  23.563  10.923
15623W        W76934  22.530  36.932  12.065
15624W        W76935  38.948  16.247  12.046
15625W        W76936  42.015  36.915   4.346
15626W        W76937  40.030  32.903  14.295
15627W        W76938  28.503  27.966   4.838
15628W        W76939  44.989  44.780   0.760
15629W        W76940  30.564  29.055   2.723
15630W        W76941  15.132  14.777  12.392
15631W        W76942  26.645  11.315  11.550
15632W        W76943  28.680  31.500   4.751
15633W        W76944  24.016  39.953  11.864
15634W        W76945  40.879   9.372  13.986
15635W        W76946  33.962  42.029  12.506
15636W        W76947  13.795   0.799  14.320
15637W        W76948  12.324  41.797  11.914
15638W        W76949   3.273  22.719  10.915
15639W        W76950  11.148  33.007   2.890
15640W        W76951  15.814  42.801  11.093
15641W        W76952  42.827  16.147  10.888
15642W        W76953  23.597  26.138  12.916
15643W        W76954  42.443  41.808   3.642
15644W        W76955  23.146  42.514  12.373
15645W        W76956  44.942   5.411  11.584
15646W        W76957   6.304  27.055   0.943
15647W        W76958   1.853  42.790   0.245
15648W        W76959  32.553  12.699   0.842
15649W        W76960   7.232   8.290   0.861
15650W        W76961   6.385  37.504  14.390
15651W        W76962  40.487  29.497   0.727
15652W        W76963  24.224  33.472  11.383
15653W        W76964   3.452   3.756   1.748
15654W        W76965   5.216  27.131   0.270
15655W        W76966  29.937  42.319   1.765
15656W        W76967   4.923   0.776   2.767
15657W        W76968  22.538  37.403  10.888
15658W        W76969  22.135  36.550   9.677
15659W        W76970  24.063  22.617  11.949
15660W        W76971  39.880   9.238   0.914
15661W        W76972  18.574  32.480   4.761
15662W        W76973  23.606   6.252  11.495
15663W        W76974  28.970   5.707   0.791
15664W        W76975  25.116  38.861  14.843
15665W        W76976  23.493  20.611  14.302
15666W        W76977  40.025   2.249   0.456
15667W        W76978  22.715  12.693  12.042
15668W        W76979  14.163   9.218  12.452
15669W        W76980  23.694  26.191   1.372
15670W        W76981  33.902  23.717   1.854
15671W        W76982  44.420  29.129   4.803
15672W        W76983  40.544  34.597  13.540
15673W        W76984  44.821  34.391   4.152
15674W        W76985  42.881   1.397   1.835
15675W        W76986  13.776  39.923  12.019
15676W        W76987  32.398  34.380  11.883
15677W        W76988  31.593  30.629   2.741
15678W        W76989   1.265   3.441  13.886
15679W        W76990  27.494  18.631   1.907
15680W        W76991  43.330  26.695   3.665
15681W        W76992   7.671  28.932  12.506
15682W        W76993  44.406  15.248  13.802
15683W        W76994  11.272  42.889  13.885
15684W        W76995  19.157  11.748   1.229
15685W        W76996  26.613  33.905  13.861
15686W        W76997  32.134   1.388  12.840
15687W        W76998  34.879  25.013  10.081
15688W        W76999  23.594  40.841  13.011
15689W        W77000  28.057  23.205   0.481
15690W        W77001   9.666  41.343   0.311
15691W        W77002  18.269  27.688   1.325
15692W        W77003  37.397  16.598  13.479
15693W        W77004  26.682   8.246   3.359
15694W        W77005  29.927  38.043   1.269
15695W        W77006   7.786  38.878   1.238
15696W        W77007   7.204  14.280   0.315
15697W        W77008  24.974   0.339  11.057
15698W        W77009  30.989  16.568  12.552
15699W        W77010  21.650  25.981  11.560
15700W        W77011   6.354  21.154   2.417
15701W        W77012  27.023  34.992  12.991
15702W        W77013   9.358  16.252   5.142
15703W        W77014  40.928  24.092   4.661
15704W        W77015  35.084  26.160  13.916
15705W        W77016  38.040   8.291   3.365
15706W        W77017  28.462  28.570  12.826
15707W        W77018   0.794  10.301  12.900
15708W        W77019  34.882  11.647   1.279
15709W        W77020  14.108  22.008   3.228
15710W        W77021   2.782  18.724   1.296
15711W        W77022  40.918  11.347  14.509
15712W        W77023  37.059  25.666   0.794
15713W        W77024  18.240  17.768   0.871
15714W        W77025  12.229  30.922   2.874
15715W        W77026  37.518  40.520   1.259
15716W        W77027  43.920  34.074  11.397
15717W        W77028  18.210   5.768  14.820
15718W        W77029  18.571  26.654   3.157
15719W        W77030  26.012  30.146  12.881
15720W        W77031  35.467   4.273   4.684
15721W        W77032   2.879  15.091  14.928
15722W        W77033   1.246   5.917  11.995
15723W        W77034   6.881  31.587  10.581
15724W        W77035  12.268  23.524   0.895
15725W        W77036  15.653   3.953   3.260
15726W        W77037  23.632   6.806   2.786
15727W        W77038   0.404   8.352  13.360
15728W        W77039  17.085  23.700   0.292
15729W        W77040  20.621  10.730   0.891
15730W        W77041  24.598  27.178   2.807
15731W        W77042   3.348   3.223  10.592
15732W        W77043  21.590  38.855  14.876
15733W        W77044  23.521  12.729   0.853
15734W        W77045  29.116   0.437  11.465
15735W        W77046  11.672   7.733  11.055
15736W        W77047  18.077  33.596   0.837
15737W        W77048  40.348   8.685  10.425
15738W        W77049   4.869  28.592   0.458
15739W        W77050   2.253  37.895  10.576
15740W        W77051  41.040  28.155   0.900
15741W        W77052  26.685  20.645  10.423
15742W        W77053  33.479  33.536  10.471
15743W        W77054  42.875   5.908  13.845
15744W        W77055  40.429  23.207  13.829
15745W        W77056  27.479  31.954  10.892
15746W        W77057  17.266  19.533   1.421
15747W        W77058  29.143  39.424  14.378
15748W        W77059  33.434  20.158   3.298
15749W        W77060  33.898  17.296  10.095
15750W        W77061  31.073  25.006   3.207
15751W        W77062   2.763  10.783   1.879
15752W        W77063  44.437   2.286  10.147
15753W        W77064   0.892  22.212  13.389
15754W        W77065  44.891  24.115   4.729
15755W        W77066   4.450  38.546  12.993
15756W        W77067  19.243  33.063  14.508
15757W        W77068  28.105  44.430   0.903
15758W        W77069  31.040   9.853   0.867
15759W        W77070  26.634  32.934   1.252
15760W        W77071  11.845  43.822  11.087
15761W        W77072  13.262  15.638  11.874
15762W        W77073   4.763   2.901   1.327
15763W        W77074  27.159   2.375   0.249
15764W        W77075  41.958   1.462   2.402
15765W        W77076   6.384  14.106  12.858
15766W        W77077  19.277   8.193   1.292
15767W        W77078  15.264  42.821   0.458
15768W        W77079   9.785  44.471   3.867
15769W        W77080  31.412  28.112   4.807
15770W        W77081  19.650  26.671   5.180
15771W        W77082  36.457  23.149  13.381
15772W        W77083  43.441  41.343   0.822
15773W        W77084  21.239  11.154   2.669
15774W        W77085  13.138  23.525  12.910
15775W        W77086  14.691   6.855   2.205
15776W        W77087   7.266  28.124  11.021
15777W        W77088   8.889  39.528   4.715
15778W        W77089  26.082  40.986  10.889
15779W        W77090  30.111  10.144  14.919
15780W        W77091  26.131   8.322  11.066
15781W        W77092  29.145  12.159  12.522
15782W        W77093  22.698   1.967   3.632
15783W        W77094   8.260  18.199   3.807
15784W        W77095  38.012  32.590  14.977
15785W        W77096   4.419  41.875  11.570
15786W        W77097   7.812   0.787  14.776
15787W        W77098  20.655  26.076   3.833
15788W        W77099   3.902  38.428  11.947
15789W        W77100   0.758   1.359   4.152
15790W        W77101  16.179  44.995   3.226
15791W        W77102  18.710  44.950  11.523
15792W        W77103  38.387  41.516  11.465
15793W        W77104  29.163  23.569  14.788
15794W        W77105   7.175   8.250  10.902
15795W        W77106  21.580   8.700  11.444
15796W        W77107  39.340   5.832  12.368
15797W        W77108   1.382  36.401   1.428
15798W        W77109  41.538  14.150   0.293
15799W        W77110  31.153  25.703   4.129
15800W        W77111   0.419   2.944   0.791
15801W        W77112  41.918  41.829   2.902
15802W        W77113  22.605  18.221  13.934
15803W        W77114   7.886  25.065   1.761
15804W        W77115  27.968  31.586  12.418
15805W        W77116   7.759  18.249   4.614
15806W        W77117   2.411  18.258  12.450
15807W        W77118  42.776  20.226   0.347
15808W        W77119  12.731  26.560   4.664
15809W        W77120  26.186  20.751  12.445
15810W        W77121   1.298  14.197  11.408
15811W        W77122  18.600  16.627  12.963
15812W        W77123  24.548   0.945   2.303
15813W        W77124  33.500  26.624   0.950
15814W        W77125  30.114   3.947   0.962
15815W        W77126  13.335  35.988  10.520
15816W        W77127  40.913  37.453   5.305
15817W        W77128  44.967  43.965  11.955
15818W        W77129  33.925  19.743   0.835
15819W        W77130   0.766   7.266  11.052
15820W        W77131  28.984  22.235   3.347
15821W        W77132  31.100  39.454   0.411
15822W        W77133  38.968  12.358  13.049
15823W        W77134   6.374   4.823  14.320
15824W        W77135  40.955  10.730  14.284
15825W        W77136  17.093   2.332   5.086
15826W        W77137  20.227  33.007  13.939
15827W        W77138  27.961  43.005   2.721
15828W        W77139  23.530  42.435  12.887
15829W        W77140  34.559  29.537  13.843
15830W        W77141  11.803  38.012  10.411
15831W        W77142  19.232  35.413   2.271
15832W        W77143   8.837  12.642   0.772
15833W        W77144   5.365  24.012  11.377
15834W        W77145   5.740  24.717  12.433
15835W        W77146   0.759  36.567  14.889
15836W        W77147  14.341   1.241   4.301
15837W        W77148  31.136  16.638  11.481
15838W        W77149  23.180  36.894  13.800
15839W        W77150  44.841  30.032  12.968
15840W        W77151  23.662  31.107  11.389
15841W        W77152  10.775  31.975   0.338
15842W        W77153  20.176  27.469  11.032
15843W        W77154  13.784   1.765  12.371
15844W        W77155   2.814  24.643   1.312
15845W        W77156  27.962  12.663  12.400
15846W        W77157  43.292  26.168  10.513
15847W        W77158   4.760  28.533   2.781
15848W        W77159  41.786   3.355  13.495
15849W        W77160  19.099  41.518   0.412
15850W        W77161  18.103  12.150   2.789
15851W        W77162  34.494  44.340   2.803
15852W        W77163  29.933   0.450   3.721
15853W        W77164  28.478  22.183   2.376
15854W        W77165   4.894  18.769  14.913
15855W        W77166  42.018   7.314  13.340
15856W        W77167  12.191   2.394  12.869
15857W        W77168  15.227  28.635   3.213
15858W        W77169  29.097  29.158  10.420
15859W        W77170   7.783  41.902   4.646
15860W        W77171  42.362  22.698  13.847
15861W        W77172  40.003  44.804  11.568
15862W        W77173  33.471   9.322   4.677
15863W        W77174  42.900  12.818  13.531
15864W        W77175  44.439  41.939  11.375
15865W        W77176  10.298   2.367   0.907
15866W        W77177  31.969  32.925   0.293
15867W        W77178  43.954  31.051  10.503
15868W        W77179  31.079   5.229  10.605
15869W        W77180  41.529  34.868  14.862
15870W        W77181  18.739  28.527  10.944
15871W        W77182  17.746  27.035  14.820
15872W        W77183   6.215  10.848   0.282
15873W        W77184  18.732  24.098  10.497
15874W        W77185  24.000  25.151   5.173
15875W        W77186  13.244   4.217   3.159
15876W        W77187  23.682  43.943  10.512
15877W        W77188  34.917  28.070   0.391
15878W        W77189  28.464  39.984   1.217
15879W        W77190  36.477  34.570  10.051
15880W        W77191   2.294  10.333   0.290
15881W        W77192  12.711  22.196  12.982
15882W        W77193  21.079  24.488   2.381
15883W        W77194  28.642   4.905   5.220
15884W        W77195  37.416   1.457   0.456
15885W        W77196  23.167  18.753   2.327
15886W        W77197  23.230  44.845   2.663
15887W        W77198   6.736   2.226   2.203
15888W        W77199  39.892  37.536   1.729
15889W        W77200   0.744  32.442   4.318
15890W        W77201  26.202  44.821   0.362
15891W        W77202  17.714  29.018   3.756
15892W        W77203  19.266  27.121   3.816
15893W        W77204  23.039   5.267  10.604
15894W        W77205   3.908   9.760   1.783
15895W        W77206   6.409  39.990   2.345
15896W        W77207   7.294  41.959  11.516
15897W        W77208  33.117  23.587   2.850
15898W        W77209  27.524  15.626   4.723
15899W        W77210  37.033  23.730  13.795
15900W        W77211  43.504  35.857  14.758
15901W        W77212  17.635  12.809   5.175
15902W        W77213  37.511  31.609  12.068
15903W        W77214   1.837  26.180  13.813
15904W        W77215  12.813  11.157  11.877
15905W        W77216  27.506  15.132   4.177
15906W        W77217  42.451  32.043   3.821
15907W        W77218  31.622   0.423  13.416
15908W        W77219  44.408  29.921  13.469
15909W        W77220  14.200  42.920  10.954
15910W        W77221  23.012  30.052  13.830
15911W        W77222  15.308  37.397   1.843
15912W        W77223   3.252   3.336  13.832
15913W        W77224  36.583   7.812   0.786
15914W        W77225  14.781  34.552  11.871
15915W        W77226  30.456  11.339  11.583
15916W        W77227  20.154  28.584  13.468
15917W        W77228  25.630  39.969   1.759
15918W        W77229   0.456   2.785  13.920
15919W        W77230   6.846  21.131   2.893
15920W        W77231   6.789  44.849  14.772
15921W        W77232  38.052   6.222   4.233
15922W        W77233  21.241  39.326   2.726
15923W        W77234   4.834  14.214   0.378
15924W        W77235  26.053  12.754  14.959
15925W        W77236  30.529   8.188  13.883
15926W        W77237  33.015   9.802  14.515
15927W        W77238  17.109  42.845  12.513
15928W        W77239  21.577   8.332  13.829
15929W        W77240  17.772   2.886  12.355
15930W        W77241   4.427  12.127   4.280
15931W        W77242  12.800  27.151   4.256
15932W        W77243   8.834  14.193  10.605
15933W        W77244   0.342   2.725   2.900
15934W        W77245  23.200  24.509  13.973
15935W        W77246   0.873  25.704   4.122
15936W        W77247   5.381  37.967  11.008
15937W        W77248   5.851  10.253   0.728
15938W        W77249  36.550  26.559  14.968
15939W        W77250  25.093  33.062  13.431
15940W        W77251  13.673  37.936   0.962
15941W        W77252  30.987  18.628   4.778
15942W        W77253   0.965  29.039  14.476
15943W        W77254  26.569   4.733   1.399
15944W        W77255  34.887  13.840   1.913
15945W        W77256  42.298   4.373  10.631
15946W        W77257  27.528  13.603   1.426
15947W        W77258  11.203  36.048  10.628
15948W        W77259   3.944  29.062  14.388
15949W        W77260   6.309  33.541  12.009
15950W        W77261  34.025  23.156   2.843
15951W        W77262   5.885   5.372  12.097
15952W        W77263  34.443   5.239  14.384
15953W        W77264  17.757   7.216   0.942
15954W        W77265   4.345   5.364   2.795
15955W        W77266  26.186  12.135   2.404
15956W        W77267   8.815   1.351  12.054
15957W        W77268   2.416  21.138  14.281
15958W        W77269  17.623  16.699   3.234
15959W        W77270  35.100   3.236  12.972
15960W        W77271  28.442  10.780   2.811
15961W        W77272  12.637   5.708  10.597
15962W        W77273   4.326  43.917  12.938
15963W        W77274  34.997  12.357   4.321
15964W        W77275  26.470   3.866  14.007
15965W        W77276  39.317   7.317   1.817
15966W        W77277  27.100   0.745  12.457
15967W        W77278   4.730  33.043   3.289
15968W        W77279   8.826   6.236  14.955
15969W        W77280  40.514   5.328  11.128
15970W        W77281  14.727  32.068  14.315
15971W        W77282  44.448   0.983   2.344
15972W        W77283  44.442   8.811  11.876
15973W        W77284   4.249   7.731   4.152
15974W        W77285  33.886  20.672  11.878
15975W        W77286  40.929  32.024  14.929
15976W        W77287  27.643  44.881  13.334
15977W        W77288   7.317  38.898   1.396
15978W        W77289  12.207  30.589   3.823
15979W        W77290  24.519  22.632  14.418
15980W        W77291  17.133   0.410   2.329
15981W        W77292  42.393   4.332  14.320
15982W        W77293   4.323  21.096   2.845
15983W        W77294  42.821  24.573   3.206
15984W        W77295  42.957  35.444  12.837
15985W        W77296  33.974   3.906  10.984
15986W        W77297   7.823  36.006  12.561
15987W        W77298  21.698  34.070  14.849
15988W        W77299  16.158   2.269   0.385
15989W        W77300  19.086  28.131  14.818
15990W        W77301  15.598  39.999   2.696
15991W        W77302   0.253  21.665   4.286
15992W        W77303  30.537  22.713  11.577
15993W        W77304  39.826  18.562  12.416
15994W        W77305  31.419   2.428  10.903
15995W        W77306  19.208  41.982  10.545
15996W        W77307  33.037   1.920  13.506
15997W        W77308  11.766   0.375  10.002
15998W        W77309  42.790  14.649   4.281
15999W        W77310   3.292  40.799  11.998
16000W        W77311  30.469  37.484   4.740
16001W        W77312  32.981   7.380   1.919
16002W        W77313  12.207  38.898   2.869
16003W        W77314   5.329  37.963  13.355
16004W        W77315   4.832  40.333   2.866
16005W        W77316  19.047  38.824   2.371
16006W        W77317   0.937  33.891   1.929
16007W        W77318   5.798  41.340  13.494
16008W        W77319  12.617  31.582  14.765
16009W        W77320  10.226  18.676   3.780
16010W        W77321  43.011   9.306  10.604
16011W        W77322   5.225   7.381  14.837
16012W        W77323  25.668   6.186  10.037
16013W        W77324  18.289   6.221   4.740
16014W        W77325  44.323   7.777  13.490
16015W        W77326  29.925  25.694  14.786
16016W        W77327   2.753  14.122   3.845
16017W        W77328  27.154  22.231  11.113
16018W        W77329  21.078  23.548   2.720
16019W        W77330  36.397   8.234  14.405
16020W        W77331  13.771  32.136   1.731
16021W        W77332  34.435  22.247   3.776
16022W        W77333  25.184  34.086   1.364
16023W        W77334  20.224  38.941   2.679
16024W        W77335  20.625   0.355  13.521
16025W        W77336  37.857   6.775  12.909
16026W        W77337  39.489  25.471  12.911
16027W        W77338  44.973   8.339   0.819
16028W        W77339  39.527  28.942  11.386
16029W        W77340   7.277  23.164  14.279
16030W        W77341  16.669  19.704   0.804
16031W        W77342   0.316  35.893  12.493
16032W        W77343  38.045  38.400   3.198
16033W        W77344  31.447  12.668   3.286
16034W        W77345  28.582   9.315   9.958
16035W        W77346  23.198  21.041  12.926
16036W        W77347  13.807   1.878   4.201
16037W        W77348  33.441  18.256   3.221
16038W        W77349  34.511  10.688  13.535
16039W        W77350  25.217  24.082  10.494
16040W        W77351   2.446  21.129   3.708
16041W        W77352  25.577  18.690   0.902
16042W        W77353   9.687  18.658   0.248
16043W        W77354   8.191   5.843  10.491
16044W        W77355  37.992  38.884  14.881
16045W        W77356  12.681  28.628   2.240
16046W        W77357  42.986  25.477   3.754
16047W        W77358  32.452  41.414  12.865
16048W        W77359  34.024  33.390  12.576
16049W        W77360  22.062   2.770   4.115
16050W        W77361   1.881  22.092   2.345
16051W        W77362  18.618  16.680  13.425
16052W        W77363  14.164  30.975  13.322
16053W        W77364  12.702   1.830   1.797
16054W        W77365   6.203  21.607   2.731
16055W        W77366  36.938  15.286   2.273
16056W        W77367  13.214  15.268   4.785
16057W        W77368  22.220  12.734  12.547
16058W        W77369  27.565  30.139   2.202
16059W        W77370  37.887  23.056  11.050
16060W        W77371   4.923  27.473   3.271
16061W        W77372  13.782  11.781   1.250
16062W        W77373  44.488  35.430  11.567
16063W        W77374  18.110   4.291   4.640
16064W        W77375   0.788  13.732   0.835
16065W        W77376   4.761   8.687   1.213
16066W        W77377  27.497  44.312   2.267
16067W        W77378  15.589  16.726  11.040
16068W        W77379  24.228  23.166  11.464
16069W        W77380  24.705  10.863  14.414
16070W        W77381  43.389  18.771  12.916
16071W        W77382   1.379  31.635   2.704
16072W        W77383  43.946  17.287  12.021
16073W        W77384  24.523  43.996  14.769
16074W        W77385  19.086   3.778   1.829
16075W        W77386  38.395  35.580   4.719
16076W        W77387   1.461  26.196  13.544
16077W        W77388  14.753  43.351  13.480
16078W        W77389  21.650   7.376   2.338
16079W        W77390   0.308  14.335   3.241
16080W        W77391  41.016  35.427  14.422
16081W        W77392  33.565  42.941  12.500
16082W        W77393   0.940  38.542  11.431
16083W        W77394  21.036   8.398   1.377
16084W        W77395  21.728  44.008  14.310
16085W        W77396   3.260  28.137   5.253
16086W        W77397  22.131  37.342  14.496
16087W        W77398  17.588  39.331   0.394
16088W        W77399  10.655   6.306   2.231
16089W        W77400  16.761  27.445   2.181
16090W        W77401  27.955  41.883  11.501
16091W        W77402  36.983  40.462  10.023
16092W        W77403  17.182   0.351   4.676
16093W        W77404  21.706  39.357   2.347
16094W        W77405  10.771   0.817   0.816
16095W        W77406  19.242  17.095   2.871
16096W        W77407  15.752  10.651   1.822
16097W        W77408  32.137  15.295  14.874
16098W        W77409  15.723  28.444  14.000
16099W        W77410  24.190   4.400  14.993
16100W        W77411  18.069   3.735   1.868
16101W        W77412   6.811  32.426   2.244
16102W        W77413  13.349  16.704   2.854
16103W        W77414  12.225  14.109  12.896
16104W        W77415  29.052  21.639   2.751
16105W        W77416  39.045  38.328   0.863
16106W        W77417  11.730   2.278   2.406
16107W        W77418   9.394   5.803   1.840
16108W        W77419  18.773  31.571  14.024
16109W        W77420  42.800  15.661  12.407
16110W        W77421  28.016  16.100   1.259
16111W        W77422  17.664  33.081   0.883
16112W        W77423  27.673  30.561   0.809
16113W        W77424  36.418   1.301   2.383
16114W        W77425  43.922  44.832  13.430
16115W        W77426  16.114  32.904  11.494
16116W        W77427   5.794  44.912  14.929
16117W        W77428  15.172  20.065   3.767
16118W        W77429  43.006   3.365  10.438
16119W        W77430  40.947   4.337   1.802
16120W        W77431  17.662  35.387   4.771
16121W        W77432  20.710   2.339  13.520
16122W        W77433  44.261   7.220  13.379
16123W        W77434  29.989  24.141   1.802
16124W        W77435  24.974  12.188   3.351
16125W        W77436  12.658  19.089  12.991
16126W        W77437  11.283  14.271   0.332
16127W        W77438  24.610  24.218   3.842
16128W        W77439  23.198   5.215  11.404
16129W        W77440  11.837   5.421  13.820
16130W        W77441  15.321  39.906  14.418
16131W        W77442  10.669  25.474  14.422
16132W        W77443  42.913  13.804   3.356
16133W        W77444  23.129  18.276  14.897
16134W        W77445  15.810  39.835   0.345
16135W        W77446  17.072   8.199   3.307
16136W        W77447  39.558  10.752  11.990
16137W        W77448   7.261  12.645  14.361
16138W        W77449  31.546  22.084  14.857
16139W        W77450   0.980  19.724  13.005
16140W        W77451  10.355  35.934  12.447
16141W        W77452  43.798   1.285  13.940
16142W        W77453  10.709  26.148  12.989
16143W        W77454  39.971  38.995   0.792
16144W        W77455  27.448  12.121   3.162
16145W        W77456  37.570  36.353  10.133
16146W        W77457   5.924   9.332   2.261
16147W        W77458  18.198  33.047  11.423
16148W        W77459  25.206  17.706  12.012
16149W        W77460  25.544   0.289   1.450
16150W        W77461  33.957  35.890  13.530
16151W        W77462  39.984  11.629   1.813
16152W        W77463  33.492  31.471  14.931
16153W        W77464  24.608  34.068   3.829
16154W        W77465  10.333  18.741  13.339
16155W        W77466  36.845  28.953  11.557
16156W        W77467   9.681  16.145  10.029
16157W        W77468  34.555   0.964  11.426
16158W        W77469  19.151  35.483  12.833
16159W        W77470  18.208  34.942  14.777
16160W        W77471  25.152  34.585   4.219
16161W        W77472  13.615  16.235  11.541
16162W        W77473  42.442  36.878   4.620
16163W        W77474   4.230  32.900   1.856
16164W        W77475  11.244  15.167  14.008
16165W        W77476  32.516  25.485  14.312
16166W        W77477  10.670  17.243   2.774
16167W        W77478  10.836  14.220   3.318
16168W        W77479   8.861  28.149  12.945
16169W        W77480  18.625   9.341   0.855
16170W        W77481  41.346   4.258  14.019
16171W        W77482  22.724   2.299   0.758
16172W        W77483  35.993   3.754   3.739
16173W        W77484   8.329   3.780  13.866
16174W        W77485  13.186  37.390  10.919
16175W        W77486  19.061  26.608  12.558
16176W        W77487  30.538  24.199   5.097
16177W        W77488  16.221  18.605  11.419
16178W        W77489  35.932   3.714   1.826
16179W        W77490  26.090   6.287  11.080
16180W        W77491  18.053  32.541  13.914
16181W        W77492   1.832  40.404   3.179
16182W        W77493  39.435   0.931   4.788
16183W        W77494   5.304  35.099   2.410
16184W        W77495  34.387  26.537  14.849
16185W        W77496  21.665   2.723   2.224
16186W        W77497   5.913  25.074  13.030
16187W        W77498  32.053   5.272   0.315
16188W        W77499  43.010   8.675   2.835
16189W        W77500  34.497  24.692  14.450
16190W        W77501  26.515  42.945   2.810
16191W        W77502  42.483  29.424  14.418
16192W        W77503  41.891  41.924  11.067
16193W        W77504  36.372  29.492   9.552
16194W        W77505  22.106   5.861   1.450
16195W        W77506  36.055  23.653  13.795
16196W        W77507   5.411  39.040   3.258
16197W        W77508  36.531  26.659  13.390
16198W        W77509  14.277  33.425   2.688
16199W        W77510  29.954  16.256  13.818
16200W        W77511   0.960   7.872  10.616
16201W        W77512  25.621  11.767   2.771
16202W        W77513  28.558  20.716  10.459
16203W        W77514  18.202  28.988  11.536
16204W        W77515  34.976  14.290   0.887
16205W        W77516  34.578  34.528  12.348
16206W        W77517  41.964   9.226   1.760
16207W        W77518  37.023  10.764   1.211
16208W        W77519  31.473  35.000  13.793
16209W        W77520  22.699  26.177  11.121
16210W        W77521  27.194  21.095  10.555
16211W        W77522  28.495  36.588   4.818
16212W        W77523   0.431  33.957  12.908
16213W        W77524  36.893  41.839  12.521
16214W        W77525  14.697  30.142  10.528
16215W        W77526  33.095  40.446   0.443
16216W        W77527  16.173  21.084   2.878
16217W        W77528  36.563  11.197   2.878
16218W        W77529  35.590   7.745   1.272
16219W        W77530  34.496   0.402  12.075
16220W        W77531  33.115   6.856   1.817
16221W        W77532  38.490   6.745  13.831
16222W        W77533  14.247  15.321   1.926
16223W        W77534  12.149  20.598  11.911
16224W        W77535  44.356  12.795  13.927
16225W        W77536  41.411  19.652  14.436
16226W        W77537   8.304  10.303   3.868
16227W        W77538   3.720   0.423  14.503
16228W        W77539  38.052  43.360  11.521
16229W        W77540   3.718  25.608   4.719
16230W        W77541  27.649  27.003   0.369
16231W        W77542  35.918   2.361   2.396
16232W        W77543   4.817  22.168   0.396
16233W        W77544  26.520  27.035   2.811
16234W        W77545  24.984  14.793   2.411
16235W        W77546  30.136  43.284   4.352
16236W        W77547  28.149  26.051   3.324
16237W        W77548  40.413  30.986   3.312
16238W        W77549  17.092  24.616   0.376
16239W        W77550  40.381  12.816  13.396
16240W        W77551  42.487   0.813  11.494
16241W        W77552   1.783  31.614  11.916
16242W        W77553  36.943   1.822   4.689
16243W        W77554  20.605   3.822   0.260
16244W        W77555  17.115  38.326   2.232
16245W        W77556  19.159  18.633  13.518
16246W        W77557  43.482  30.567  11.109
16247W        W77558  41.946  27.471   1.272
16248W        W77559   0.423  37.916  13.982
16249W        W77560  14.137  14.640   4.277
16250W        W77561  21.049  43.365  10.600
16251W        W77562   4.263  11.627  11.899
16252W        W77563   3.784  31.418   2.290
16253W        W77564  13.602  34.879   4.352
16254W        W77565  30.610  23.655   2.321
16255W        W77566  41.299  16.172   2.363
16256W        W77567  31.446  16.586  13.801
16257W        W77568  40.808  44.755  11.460
16258W        W77569  22.674  18.573   2.226
16259W        W77570  14.239   5.706  14.369
16260W        W77571   7.253   0.829   2.306
16261W        W77572   8.673  29.645  14.764
16262W        W77573   6.697   6.186  12.497
16263W        W77574  38.887  27.474   0.814
16264W        W77575  15.298   4.330   4.652
16265W        W77576  26.542  33.090   1.847
16266W        W77577   4.731  39.413  11.388
16267W        W77578  11.180   2.341   1.318
16268W        W77579  42.841  21.649   3.654
16269W        W77580  29.520   6.705   2.847
16270W        W77581  17.297  10.205   1.799
16271W        W77582  42.365  19.275   2.359
16272W        W77583  16.754  20.245   2.807
16273W        W77584  30.506  27.458   4.794
16274W        W77585   8.191   9.719  12.884
16275W        W77586  27.503  24.604  12.964
16276W        W77587   8.841  34.983   1.280
16277W        W77588   5.880  28.668  12.354
16278W        W77589  36.029   8.717  12.900
16279W        W77590   4.339  35.596  11.110
16280W        W77591  24.064  35.108   1.227
16281W        W77592  14.803  39.867   1.251
16282W        W77593  30.135  33.061  10.644
16283W        W77594   0.438  13.607   4.332
16284W        W77595  40.512  23.010   2.231
16285W        W77596  39.399  11.683  12.931
16286W        W77597  40.472   8.803  11.005
16287W        W77598  28.447  32.943   3.277
16288W        W77599  23.189  20.265  13.526
16289W        W77600  14.816  11.837  13.016
16290W        W77601   8.668  17.568  11.395
16291W        W77602  38.441   2.231   4.612
16292W        W77603  35.982  42.456  14.773
16293W        W77604   7.246  29.011  14.374
16294W        W77605  41.378  23.685   4.668
16295W        W77606  12.315  29.606   3.376
16296W        W77607   0.763  42.387   1.320
16297W        W77608   5.284  13.242  13.006
16298W        W77609  13.272  28.022   0.967
16299W        W77610   2.319   3.953   1.707
16300W        W77611  21.030  25.483  11.971
16301W        W77612  34.544  33.965   2.814
16302W        W77613   7.840  36.941   4.175
16303W        W77614  10.665  36.053  10.581
16304W        W77615   5.793  40.541   3.791
16305W        W77616  31.086  14.316  11.501
16306W        W77617   3.361   9.385  11.114
16307W        W77618  40.380  19.667  12.903
16308W        W77619  43.309  19.206  11.446
16309W        W77620  42.024  21.094   0.455
16310W        W77621  33.420  37.920   0.438
16311W        W77622  24.563   9.868  13.807
16312W        W77623  17.635  13.752   2.324
16313W        W77624  36.995  32.107   0.871
16314W        W77625  16.108  44.405   0.892
16315W        W77626  14.686   9.218   4.227
16316W        W77627  29.054  15.284   0.281
16317W        W77628  17.666  18.682  13.900
16318W        W77629  25.162   2.895  13.997
16319W        W77630  25.672  15.715  13.334
16320W        W77631  29.498  15.197  11.428
16321W        W77632  19.162  12.784   4.145
16322W        W77633  27.449  28.586  11.907
16323W        W77634  34.923  30.547   1.241
16324W        W77635  23.011  21.150  10.097
16325W        W77636  38.438  37.436   2.384
16326W        W77637  41.427  30.084   3.630
16327W        W77638   0.490   3.428  13.369
16328W        W77639  22.560  11.866   2.329
16329W        W77640  18.152  16.190   3.728
16330W        W77641  21.020   0.919   3.762
16331W        W77642  30.918  25.468   2.238
16332W        W77643  10.286  38.905   3.745
16333W        W77644  42.878  20.042  14.997
16334W        W77645  10.731  19.223   4.129
16335W        W77646  28.943  14.809  11.896
16336W        W77647  17.562  15.658   5.104
16337W        W77648   5.303  32.043  10.032
16338W        W77649  21.161  35.437  14.472
16339W        W77650  28.470  29.135  13.495
16340W        W77651  33.564  13.234   3.210
16341W        W77652  10.848  40.933   4.223
16342W        W77653  16.624  13.702  12.093
16343W        W77654  13.258   0.467   2.292
16344W        W77655  35.449  41.535   2.824
16345W        W77656  43.015  34.395  11.452
16346W        W77657  17.763  10.169  10.426
16347W        W77658  37.001  20.618  11.929
16348W        W77659   1.320  10.358  11.573
16349W        W77660  41.431  16.601  12.878
16350W        W77661  34.962  27.079   2.375
16351W        W77662  27.983  17.304  10.445
16352W        W77663  32.063  19.556   3.652
16353W        W77664  22.218   1.872   4.688
16354W        W77665  38.416  32.584  13.480
16355W        W77666  20.112  26.079  12.864
16356W        W77667  18.746   4.739   2.883
16357W        W77668  21.729  13.646   1.745
16358W        W77669  19.568  31.497  11.860
16359W        W77670  12.259  41.461  12.878
16360W        W77671  24.140   0.309  11.398
16361W        W77672  40.347  29.616   3.273
16362W        W77673   3.375  15.272   2.729
16363W        W77674  31.103  23.031   1.810
16364W        W77675  35.361   4.252   1.767
16365W        W77676  43.019  42.980   1.243
16366W        W77677  19.573  24.987  13.467
16367W        W77678  18.089  19.545  12.047
16368W        W77679  35.983  33.970  13.501
16369W        W77680  26.185  29.995  11.017
16370W        W77681  24.637  34.942   4.637
16371W        W77682  38.861  26.152  12.003
16372W        W77683  32.891  13.347  10.892
16373W        W77684   4.757  10.868  12.833
16374W        W77685  24.595  39.406   2.783
16375W        W77686   0.802  44.404  10.026
16376W        W77687  38.072  14.242   0.321
16377W        W77688  23.149   0.780  10.526
16378W        W77689  10.666  11.626   0.810
16379W        W77690   6.324   4.299  13.929
16380W        W77691  27.116  25.978  10.919
16381W        W77692  26.978  17.799  14.290
16382W        W77693  37.441  34.610  12.539
16383W        W77694   0.493  37.337   4.669
16384W        W77695  39.421  36.462   3.726
16385W        W77696  21.178  41.483  13.817
16386W        W77697  14.789  23.202   4.705
16387W        W77698  43.995   1.344  10.970
16388W        W77699  35.506  22.660  10.477
16389W        W77700  31.466  22.131   3.784
16390W        W77701   6.265  15.152   1.828
16391W        W77702  21.648   0.864  12.836
16392W        W77703  27.122  15.092  13.539
16393W        W77704  12.174  12.179   4.700
16394W        W77705  31.988  25.568   4.292
16395W        W77706  15.718  44.883   0.389
16396W        W77707  15.216  43.843   2.761
16397W        W77708  33.566  23.490   4.638
16398W        W77709  31.073  28.156  10.154
16399W        W77710  30.554   4.281   1.893
16400W        W77711  39.433  12.128   1.909
16401W        W77712  25.965  36.913   0.475
16402W        W77713  28.112  34.535   3.184
16403W        W77714  43.814  39.489  12.518
16404W        W77715   1.264  39.850  11.986
16405W        W77716  22.686  39.870   0.425
16406W        W77717  13.642  42.433   0.851
16407W        W77718  36.535   4.945   4.762
16408W        W77719  29.155  23.143  13.949
16409W        W77720  28.007  15.796   5.304
16410W        W77721  16.630   1.460   2.392
16411W        W77722  21.613  13.336  12.888
16412W        W77723  37.930  39.542  12.076
16413W        W77724  38.492  24.627   0.762
16414W        W77725  39.040  31.960   1.850
16415W        W77726  33.124  36.007   3.346
16416W        W77727  33.003   1.391  14.306
16417W        W77728  37.368   7.792   3.202
16418W        W77729   6.244  11.200  14.918
16419W        W77730   3.919  38.983   1.712
16420W        W77731   3.950  25.018   3.249
16421W        W77732  44.877  26.664  13.982
16422W        W77733  20.741   7.781   2.673
16423W        W77734  24.517  33.494  13.471
16424W        W77735  37.545   1.372   0.761
16425W        W77736  32.582   8.675   1.387
16426W        W77737   0.395  42.779   3.649
16427W        W77738  37.948   9.255  11.542
16428W        W77739  40.958  23.699  14.858
16429W        W77740  18.152   2.337   0.738
16430W        W77741  20.091  40.377   1.246
16431W        W77742   5.931  41.883  11.866
16432W        W77743   8.391   6.373   1.417
16433W        W77744  28.537  12.776   0.792
16434W        W77745  20.139   0.393  14.771
16435W        W77746   6.761   7.800   0.350
16436W        W77747  39.959  15.193  12.049
16437W        W77748  12.620  16.191   1.706
16438W        W77749  40.412  32.919   4.188
16439W        W77750   5.209   6.301  12.900
16440W        W77751  25.537  34.411   1.337
16441W        W77752  38.326   4.347   4.224
16442W        W77753  33.618  29.641   2.355
16443W        W77754  23.582  28.990   5.238
16444W        W77755  26.550  16.775   1.857
16445W        W77756  41.465  30.551   3.155
16446W        W77757   7.901  39.510   1.766
16447W        W77758   1.375  34.608   3.243
16448W        W77759  16.595   2.399  13.475
16449W        W77760  18.147   6.851   3.299
16450W        W77761  29.984  29.946  12.879
16451W        W77762  26.590  44.337   0.827
16452W        W77763   4.409  17.249  10.409
16453W        W77764  12.270   6.811   3.181
16454W        W77765  20.740  34.047   1.857
16455W        W77766  11.685  22.692   2.275
16456W        W77767  11.670  29.598   0.754
16457W        W77768  18.737  10.255  11.994
16458W        W77769  19.120  16.297  11.079
16459W        W77770  23.723   3.275  12.842
16460W        W77771  17.185   7.250   9.938
16461W        W77772  37.945  43.783   1.710
16462W        W77773  18.190   3.912  11.080
16463W        W77774   8.840  27.463  14.325
16464W        W77775  36.379   4.915  12.938
16465W        W77776  36.924  19.752   1.787
16466W        W77777  34.483  28.568   9.554
16467W        W77778   5.902  26.075   3.188
16468W        W77779  14.166   0.891  12.856
16469W        W77780  20.767  15.245   5.635
16470W        W77781  37.540   4.741   3.355
16471W        W77782  30.558  42.901  10.892
16472W        W77783   1.803  29.921  11.480
16473W        W77784  21.642   0.392   4.794
16474W        W77785  33.054   3.833  14.968
16475W        W77786  36.019  10.633   1.902
16476W        W77787  14.247  18.103  12.827
16477W        W77788  44.306  26.576   4.737
16478W        W77789  27.031  41.480  12.038
16479W        W77790  31.993  11.861  11.426
16480W        W77791  39.981  34.390  14.845
16481W        W77792  36.892   2.378   0.482
16482W        W77793  37.077   1.958   2.222
16483W        W77794  43.843  25.595  10.620
16484W        W77795  10.769  14.121  12.920
16485W        W77796   0.946  23.716   3.744
16486W        W77797  20.737  20.631   2.269
16487W        W77798   3.835  34.477   0.949
16488W        W77799   9.787  16.079   3.682
16489W        W77800  12.332   4.740   0.915
16490W        W77801  40.841  21.199   3.648
16491W        W77802  36.554  14.251   2.368
16492W        W77803  39.002  16.610  12.968
16493W        W77804  10.679  11.840   1.279
16494W        W77805  37.577  37.516   1.777
16495W        W77806  35.051  14.138   0.422
16496W        W77807  25.065  10.662   2.263
16497W        W77808  21.545  12.352   2.284
16498W        W77809  10.685  27.656  11.377
16499W        W77810   8.383  37.068   3.763
16500W        W77811  16.575  12.214   0.387
16501W        W77812  36.513  21.573  13.425
16502W        W77813  27.024   2.274   3.250
16503W        W77814  34.899  24.665   3.727
16504W        W77815  13.167  27.064   3.146
16505W        W77816  13.149  14.616   0.768
16506W        W77817  25.071   3.401  13.361
16507W        W77818  27.609  16.721  14.791
16508W        W77819  20.554   4.445  14.497
16509W        W77820  23.158  35.102   0.957
16510W        W77821   7.260  25.123   1.289
16511W        W77822  37.522   4.206  11.400
16512W        W77823   5.767  30.918   3.671
16513W        W77824  13.303  41.307  11.438
16514W        W77825  13.762  18.104   4.258
16515W        W77826  39.999  29.437  12.859
16516W        W77827   0.287  32.129   0.964
16517W        W77828  16.099   8.820   0.932
16518W        W77829  13.739  18.617   4.816
16519W        W77830  26.524  38.892   3.829
16520W        W77831  44.859  13.153   0.821
16521W        W77832  13.738   1.975   0.915
16522W        W77833  27.540   7.781  12.095
16523W        W77834  18.747  38.426  13.837
16524W        W77835  17.785  17.607  10.502
16525W        W77836  10.863  26.658  11.960
16526W        W77837  39.536  30.090   5.678
16527W        W77838  30.909  22.195  12.839
16528W        W77839  13.796  41.502   0.942
16529W        W77840  39.918  30.429  12.013
16530W        W77841  10.210  28.168   3.150
16531W        W77842  38.558  40.332  14.812
16532W        W77843  12.736  18.123  11.952
16533W        W77844  40.548  15.667   2.814
16534W        W77845   3.860  15.759   3.791
16535W        W77846  38.835  12.685   0.776
16536W        W77847  20.251   6.189   4.285
16537W        W77848  28.145  26.100   4.194
16538W        W77849   5.438  20.601  12.488
16539W        W77850  13.749  12.252  10.554
16540W        W77851  26.957  24.072  14.763
16541W        W77852  12.654  42.006   1.254
16542W        W77853  35.410  38.446   4.305
16543W        W77854  40.024  32.952   9.965
16544W        W77855   9.755   3.271  10.891
16545W        W77856  43.810  20.031   0.953
16546W        W77857  15.217  15.667   1.831
16547W        W77858  37.474   7.410   0.477
16548W        W77859  32.574  38.862   1.697
16549W        W77860  41.903  24.634  13.369
16550W        W77861  15.219  23.205  14.911
16551W        W77862  19.264  34.068  13.929
16552W        W77863  30.146   5.824   0.954
16553W        W77864   0.772  31.572   2.197
16554W        W77865  31.506  23.704   0.462
16555W        W77866  24.553  41.313   4.620
16556W        W77867   9.150   1.308  11.909
16557W        W77868  12.168  26.156   0.417
16558W        W77869  29.504   8.885  12.561
16559W        W77870  41.981  34.950   1.239
16560W        W77871  27.100   8.391   4.249
16561W        W77872   3.255  24.000   4.613
16562W        W77873  24.616  39.363   1.345
16563W        W77874  18.659  30.429  12.430
16564W        W77875  35.000  13.292   2.268
16565W        W77876  42.008  26.131   1.243
16566W        W77877  38.513  18.649   3.653
16567W        W77878  33.888  37.405   0.915
16568W        W77879  40.005  25.663  13.526
16569W        W77880   6.893  17.255   3.826
16570W        W77881  23.992  23.519  13.457
16571W        W77882  25.521  25.197  13.433
16572W        W77883  38.932  32.439  10.959
16573W        W77884  15.323   9.194  13.903
16574W        W77885  29.484  31.042  12.889
16575W        W77886  13.347  10.302  10.482
16576W        W77887  41.371  33.935  11.581
16577W        W77888  30.966   6.783  14.304
16578W        W77889   4.858  24.626   1.409
16579W        W77890  39.970  10.863  12.039
16580W        W77891  11.339  34.943   1.244
16581W        W77892  40.848   2.355   0.833
16582W        W77893   2.434  44.265   1.377
16583W        W77894  29.115   1.391   4.179
16584W        W77895   0.873  25.061   0.327
16585W        W77896  17.791  34.029  14.961
16586W        W77897  13.617  28.960   3.236
16587W        W77898  42.974  21.088  13.035
16588W        W77899  30.496  19.172   0.264
16589W        W77900  17.682   1.318   0.863
16590W        W77901   3.734  42.338   2.855
16591W        W77902  26.639   1.410  14.020
16592W        W77903  43.477  39.318   0.868
16593W        W77904  28.139  29.971  10.539
16594W        W77905  35.584   6.719  13.373
16595W        W77906  34.605  12.765  10.634
16596W        W77907  44.292  12.251   3.182
16597W        W77908  12.648  25.694  13.427
16598W        W77909  32.433  24.712   4.602
16599W        W77910   5.248  13.829  14.771
16600W        W77911   6.374  20.206   4.189
16601W        W77912   0.894  26.672  11.572
16602W        W77913   2.838   9.779   3.340
16603W        W77914  24.536  41.391   1.703
16604W        W77915   9.385  26.495  13.493
16605W        W77916   8.372  15.741   1.261
16606W        W77917   7.377   1.936   3.320
16607W        W77918  22.538  41.399  14.851
16608W        W77919  27.569   2.727   2.755
16609W        W77920   0.952  31.477  12.833
16610W        W77921  33.593  15.705   3.870
16611W        W77922  11.638  22.123  10.989
16612W        W77923  33.922  30.922   0.425
16613W        W77924  40.318  21.527   1.915
16614W        W77925  40.439  14.765  13.838
16615W        W77926  19.685  20.630  13.947
16616W        W77927  28.051  44.806   4.313
16617W        W77928  33.005  31.541   4.735
16618W        W77929  40.978  25.659  11.597
16619W        W77930   4.426  27.633   2.330
16620W        W77931  15.117  39.025   3.795
16621W        W77932  17.624  23.577  10.115
16622W        W77933  23.169  11.187  10.427
16623W        W77934  22.621  17.775  11.466
16624W        W77935   2.811   0.417  12.950
16625W        W77936  31.540  33.578  11.031
16626W        W77937  30.422  30.965  13.031
16627W        W77938  30.416  33.048  12.437
16628W        W77939  21.123  29.133  13.507
16629W        W77940   0.442  16.142  12.491
16630W        W77941  16.585  26.996  14.371
16631W        W77942  15.209  42.399   1.394
16632W        W77943  12.294  17.750   3.262
16633W        W77944  40.467  21.179   1.380
16634W        W77945  34.951  24.517   4.762
16635W        W77946   4.891   0.969   5.243
16636W        W77947   3.459  38.355  14.775
16637W        W77948  41.502  38.987  11.059
16638W        W77949  15.722   4.871  12.891
16639W        W77950  31.130  34.520   0.463
16640W        W77951  37.851  23.726  14.860
16641W        W77952  29.028  17.611  14.866
16642W        W77953  34.586  17.559   4.605
16643W        W77954  14.603   4.247   3.745
16644W        W77955  14.338   0.848  14.292
16645W        W77956   5.196  29.566   1.816
16646W        W77957  41.840   4.852   0.741
16647W        W77958  22.573   4.287   2.812
16648W        W77959  14.303  27.680   1.852
16649W        W77960  19.142  39.424   5.662
16650W        W77961   9.687   6.193  13.907
16651W        W77962  36.424  31.947  10.419
16652W        W77963  24.979   0.843  14.895
16653W        W77964   5.696  35.022   3.788
16654W        W77965  20.720  13.115   1.925
16655W        W77966  15.090   2.778   3.220
16656W        W77967  10.803   5.287   3.229
16657W        W77968  25.040  42.821   1.712
16658W        W77969  11.780   4.421   3.758
16659W        W77970  31.930  37.892  10.585
16660W        W77971  11.683  33.475   0.478
16661W        W77972  11.778  14.617   4.691
16662W        W77973  30.919  32.076  12.066
16663W        W77974   4.755  40.985  13.385
16664W        W77975  18.233  23.634  12.525
16665W        W77976  25.685   3.901  13.797
16666W        W77977  42.344   2.236  10.617
16667W        W77978  30.096  38.894   4.702
16668W        W77979  41.872  40.936  11.031
16669W        W77980  41.869  10.160   0.816
16670W        W77981  42.320  44.834  10.570
16671W        W77982  42.332  36.406  10.908
16672W        W77983  21.631  32.393   4.127
16673W        W77984  18.230  16.760   0.864
16674W        W77985  32.412  40.453  12.539
16675W        W77986   7.751  22.213   4.273
16676W        W77987  22.189  19.634   1.232
16677W        W77988  17.302  44.950  12.479
16678W        W77989  22.570  31.011  12.009
16679W        W77990  11.132  33.622   4.155
16680W        W77991  17.140  24.159   4.115
16681W        W77992  12.630  30.606   2.752
16682W        W77993  17.679  40.410  13.477
16683W        W77994  42.789   8.399   0.774
16684W        W77995  33.513  30.078  14.880
16685W        W77996  14.805  29.095   4.259
16686W        W77997  37.469  10.294  10.413
16687W        W77998  36.007  40.432   3.175
16688W        W77999  27.569  27.026  13.006
16689W        W78000  24.701  30.063  14.409
16690W        W78001  31.953  13.732   3.150
16691W        W78002  18.190  30.586  10.933
16692W        W78003  13.310   9.245  13.006
16693W        W78004  39.390  10.688  12.848
16694W        W78005  32.421  31.445   0.896
16695W        W78006  42.881  19.619   0.893
16696W        W78007   1.279  34.582  14.863
16697W        W78008  33.547  43.943   0.803
16698W        W78009  29.937  30.595   3.854
16699W        W78010  34.053  24.212   2.393
16700W        W78011   2.427  11.646  12.006
16701W        W78012  39.051  14.108   3.685
16702W        W78013  23.566   8.376   2.685
16703W        W78014  27.635  11.630   4.628
16704W        W78015   6.853  23.226   4.327
16705W        W78016  17.291  35.866   5.237
16706W        W78017   5.853  39.469   3.376
16707W        W78018  13.324  38.355  13.852
16708W        W78019  13.842  25.714  13.814
16709W        W78020  41.466  37.513  11.999
16710W        W78021  38.953  15.262  13.804
16711W        W78022  44.789  25.620   0.414
16712W        W78023  28.099   2.963   1.878
16713W        W78024  15.165  32.625   3.823
16714W        W78025  34.586  24.657  13.804
16715W        W78026  40.968  17.770   2.830
16716W        W78027  34.106  42.957  12.491
16717W        W78028   0.810  23.643  11.563
16718W        W78029  21.129  23.614   2.234
16719W        W78030   2.924  27.120  14.413
16720W        W78031  25.499  39.384   2.708
16721W        W78032  27.486  40.308   2.751
16722W        W78033  42.802  23.222  11.007
16723W        W78034   8.703  35.595   0.867
16724W        W78035   1.880  10.790   2.348
16725W        W78036  34.389  14.739  10.541
16726W        W78037  42.467  25.000  12.851
16727W        W78038  24.631  25.145  11.083
16728W        W78039  22.078   6.703  10.994
16729W        W78040  31.552  42.011   0.386
16730W        W78041  27.520  35.010   1.252
16731W        W78042  17.199  21.047  13.442
16732W        W78043  25.613   4.229   3.851
16733W        W78044   7.179   8.394  11.491
16734W        W78045  34.952  18.160   3.210
16735W        W78046  32.018  27.493   3.308
16736W        W78047   5.352  25.503   3.239
16737W        W78048  29.627  38.915  11.528
16738W        W78049  10.754  26.026  13.325
16739W        W78050  35.032  39.027   4.260
16740W        W78051  30.102  40.033  14.870
16741W        W78052  37.890   6.779   3.734
16742W        W78053  26.573  31.433   3.642
16743W        W78054  37.873  41.310   2.401
16744W        W78055  16.166   2.306  10.463
16745W        W78056   4.877   5.832  11.093
16746W        W78057  20.219  37.912  14.368
16747W        W78058  26.619  41.378  12.929
16748W        W78059  38.982  40.055  12.944
16749W        W78060  41.018  17.201  11.082
16750W        W78061  33.940  11.313  10.946
16751W        W78062   6.205  10.653   1.927
16752W        W78063   2.301  13.739  11.411
16753W        W78064  43.990  11.701  14.332
16754W        W78065  28.020   2.417  13.805
16755W        W78066  26.679  44.882  12.468
16756W        W78067  22.597  27.530  12.423
16757W        W78068  22.058  35.480  13.992
16758W        W78069  23.232  38.995   3.672
16759W        W78070  33.626  12.644   0.930
16760W        W78071  27.528  31.577   0.400
16761W        W78072  18.734  36.882   2.277
16762W        W78073  10.348  44.351  10.972
16763W        W78074  43.837  28.567   4.274
16764W        W78075  16.226   8.816  14.820
16765W        W78076   7.675   6.397  11.003
16766W        W78077  11.178  31.630   3.183
16767W        W78078  30.934  42.993  11.126
16768W        W78079  20.117   6.187   3.781
16769W        W78080  39.487  40.860   3.194
16770W        W78081  20.620  28.675   1.385
16771W        W78082  12.624  17.724   4.685
16772W        W78083  36.505  33.497  14.939
16773W        W78084  34.910  13.693  12.524
16774W        W78085  15.730   1.745   0.965
16775W        W78086  40.416  30.936   2.384
16776W        W78087   4.847   7.411   2.258
16777W        W78088  44.316  14.704  12.848
16778W        W78089  44.894  44.835   2.746
16779W        W78090  10.248  36.358  10.921
16780W        W78091  33.566   6.699  11.868
16781W        W78092  33.920   2.743  14.968
16782W        W78093   4.790  32.525  14.803
16783W        W78094   5.808  15.728   1.447
16784W        W78095  18.544  27.682   0.474
16785W        W78096  26.640   8.236  11.017
16786W        W78097  42.912  15.645   5.231
16787W        W78098  26.069  18.060  12.094
16788W        W78099  41.991  35.022   1.732
16789W        W78100  23.642  27.648   4.647
16790W        W78101   1.876  14.630  13.972
16791W        W78102   4.847  23.116   2.849
16792W        W78103  42.321   0.298   2.224
16793W        W78104  11.851  32.636   1.759
16794W        W78105  21.681   4.427  12.866
16795W        W78106  14.727  11.288   2.887
16796W        W78107  15.220  44.468  11.947
16797W        W78108  39.444  21.225   4.730
16798W        W78109  44.958  17.784  13.538
16799W        W78110  35.428   2.844   1.383
16800W        W78111  35.894  24.577  13.930
16801W        W78112  37.433  19.775   4.748
16802W        W78113   6.696   3.249  10.641
16803W        W78114  20.689  17.268  10.002
16804W        W78115  21.745   4.416   0.338
16805W        W78116   3.404  27.122   0.395
16806W        W78117  21.535   0.898   2.272
16807W        W78118   1.920  25.151  12.028
16808W        W78119  22.552   6.317   1.330
16809W        W78120  34.434  25.665   3.848
16810W        W78121  11.317   2.400   0.926
16811W        W78122   4.938  11.344  14.341
16812W        W78123  25.017  14.236  14.023
16813W        W78124  44.499  24.579   5.143
16814W        W78125  37.962  25.190   4.182
16815W        W78126   3.367  19.239   3.327
16816W        W78127  18.264  11.304   5.308
16817W        W78128  12.670  36.051  13.004
16818W        W78129  22.157  33.096  11.408
16819W        W78130  24.488   5.770   2.183
16820W        W78131  36.011  36.037  10.596
16821W        W78132  24.992  31.457   0.845
16822W        W78133  19.726  22.102  11.388
16823W        W78134  24.039  31.584   0.357
16824W        W78135  24.723  14.734   4.208
16825W        W78136  21.652  36.489  13.923
16826W        W78137  15.785  34.371   1.918
16827W        W78138  24.144  20.236  11.612
16828W        W78139  18.080   4.386  14.006
16829W        W78140  23.620  43.344  12.497
16830W        W78141   7.195  36.956  12.042
16831W        W78142   7.413  16.664  14.298
16832W        W78143   9.312  33.414   3.350
16833W        W78144   9.826  21.557  12.887
16834W        W78145  12.711   9.340   1.368
16835W        W78146  22.234  40.326   5.776
16836W        W78147  30.115  41.468   2.227
16837W        W78148  35.417   4.805  13.383
16838W        W78149  15.638  35.562   0.468
16839W        W78150  32.399  12.120  14.911
16840W        W78151  37.367  15.311  12.395
16841W        W78152  27.153  22.016   4.295
16842W        W78153   9.729   4.891   9.963
16843W        W78154   6.205  17.146   1.294
16844W        W78155   3.426  10.319   1.875
16845W        W78156  12.791  18.585  10.983
16846W        W78157  17.180  24.075  12.579
16847W        W78158  19.717  10.801  12.975
16848W        W78159  32.394  39.056   3.853
16849W        W78160  32.578   5.434  11.400
16850W        W78161  38.440   0.434   2.735
16851W        W78162  43.893  28.131   2.844
16852W        W78163  26.124  22.136  12.076
16853W        W78164  21.676  35.552   2.408
16854W        W78165  19.653  38.863  11.914
16855W        W78166  36.859   3.396  12.938
16856W        W78167  26.112  22.147  11.553
16857W        W78168  31.065  27.571   2.859
16858W        W78169  34.406   3.388  11.576
16859W        W78170  25.516  23.148   2.260
16860W        W78171  15.663  42.032   5.170
16861W        W78172  41.931   0.461  13.539
16862W        W78173  12.236  37.941  10.465
16863W        W78174   3.459   2.330  12.864
16864W        W78175  12.262  25.155  11.950
16865W        W78176  44.860  20.636  14.878
16866W        W78177  19.571   9.665  14.348
16867W        W78178   7.724  42.349   0.927
16868W        W78179  26.109   9.337  12.040
16869W        W78180   1.330  14.791  12.891
16870W        W78181   9.321  15.132  12.443
16871W        W78182   3.358  19.623  12.044
16872W        W78183  43.324  23.620  14.933
16873W        W78184   2.319  30.055  14.891
16874W        W78185  15.150  17.183   1.700
16875W        W78186   9.657  12.344   3.329
16876W        W78187  43.966  10.157  10.543
16877W        W78188   6.310   3.345   1.333
16878W        W78189  33.517  35.459  10.530
16879W        W78190  21.134  36.059  13.940
16880W        W78191  17.124  15.806   1.299
16881W        W78192  30.980  39.326  14.366
16882W        W78193  43.404  19.079  14.513
16883W        W78194  30.564  32.557   1.240
16884W        W78195  40.380  34.432  10.960
16885W        W78196  34.512  35.023   3.868
16886W        W78197  22.043  22.115  11.393
16887W        W78198   3.290  28.103   2.690
16888W        W78199  38.497   8.784  10.600
16889W        W78200   5.898   2.306   1.935
16890W        W78201  38.988  41.848  10.474
16891W        W78202  28.594  27.196   3.781
16892W        W78203  43.911  30.461   3.247
16893W        W78204   8.368  43.310  11.936
16894W        W78205  34.062  22.037   2.732
16895W        W78206  25.618   1.890  13.041
16896W        W78207  10.733  29.155   0.948
16897W        W78208  37.998   0.282  14.031
16898W        W78209  23.615  37.532  13.446
16899W        W78210  25.690  35.380   4.735
16900W        W78211  39.398  15.236  14.016
16901W        W78212  31.051  10.861  14.446
16902W        W78213  18.269   6.831  11.931
16903W        W78214  28.054  32.128  13.525
16904W        W78215  39.465  17.647   0.937
16905W        W78216  40.341   4.294  11.496
16906W        W78217  23.613  31.631  10.905
16907W        W78218  22.528  34.561   0.410
16908W        W78219  13.808  35.586  13.852
16909W        W78220  40.873   2.803   2.773
16910W        W78221  30.074  11.744  13.861
16911W        W78222  19.540   4.339   1.823
16912W        W78223  31.522   9.878   4.738
16913W        W78224  13.825  23.143   0.334
16914W        W78225  11.350   1.401  11.030
16915W        W78226  43.963   5.781   3.864
16916W        W78227  26.510  39.434   2.275
16917W        W78228  36.014  28.186  12.088
16918W        W78229  28.070   3.910  13.035
16919W        W78230  21.626  27.174   1.746
16920W        W78231   5.923  13.303   1.698
16921W        W78232  37.903  34.579   5.707
16922W        W78233   3.721  13.288   0.828
16923W        W78234  44.302   1.920  12.573
16924W        W78235  15.723   7.216  14.409
16925W        W78236   7.259  42.807   1.330
16926W        W78237  17.259  32.576   2.795
16927W        W78238   9.276  42.996  14.897
16928W        W78239  17.606   1.928   4.627
16929W        W78240  10.341  42.359   3.242
16930W        W78241  40.980  11.698   1.302
16931W        W78242  14.097  20.260  11.006
16932W        W78243  37.909  18.682   3.769
16933W        W78244   8.182  34.487   3.750
16934W        W78245  11.166  16.212  14.800
16935W        W78246  21.032   8.861  14.392
16936W        W78247  42.786   8.702   4.612
16937W        W78248  12.800  35.107   0.753
16938W        W78249   1.421  34.049   0.918
16939W        W78250  36.871  13.272   1.861
16940W        W78251   5.907  37.524   0.251
16941W        W78252  11.270   5.850  13.849
16942W        W78253   9.877  12.670  13.866
16943W        W78254   0.814  26.470   2.233
16944W        W78255  35.875  25.701  10.597
16945W        W78256  42.808  27.133   3.154
16946W        W78257  35.458  35.108   2.859
16947W        W78258  41.886   6.249  14.328
16948W        W78259   0.333  44.974  11.034
16949W        W78260   9.193  13.340  12.387
16950W        W78261  26.203  21.073  11.048
16951W        W78262  22.995  11.320   2.820
16952W        W78263  11.172  42.024   0.804
16953W        W78264  28.471   2.847   0.436
16954W        W78265   1.814  23.565   2.844
16955W        W78266  22.638  43.372   4.151
16956W        W78267  21.621  27.468   9.498
16957W        W78268  37.859  12.217  13.056
16958W        W78269   0.848  42.999   5.238
16959W        W78270  18.249  39.024   0.474
16960W        W78271   7.231   0.760   3.305
16961W        W78272  31.083  33.043   4.255
16962W        W78273   0.921   5.923  12.840
16963W        W78274   1.330  23.986  10.569
16964W        W78275  34.911  27.571  11.589
16965W        W78276   2.231   5.772   2.781
16966W        W78277  29.157  25.008   4.683
16967W        W78278  31.076   2.961   4.306
16968W        W78279  12.299  38.939   0.752
16969W        W78280  10.868  38.017   3.752
16970W        W78281  35.085   6.390  14.987
16971W        W78282   9.689  14.627  12.352
16972W        W78283   2.749   9.309  11.909
16973W        W78284  17.683  36.853   1.713
16974W        W78285   4.937   8.315   0.421
16975W        W78286  28.547   4.227   9.576
16976W        W78287  13.327   2.377  10.951
16977W        W78288  41.370  29.475   0.963
16978W        W78289  12.302   0.905  12.025
16979W        W78290  24.526  11.764  14.293
16980W        W78291  43.992  33.009  14.390
16981W        W78292  24.046  40.890   0.778
16982W        W78293  40.465   5.796  12.978
16983W        W78294  22.504  34.104  12.906
16984W        W78295  15.255   6.410  12.457
16985W        W78296  12.814  22.668  14.945
16986W        W78297   1.856  36.447  13.063
16987W        W78298  25.010  35.387  14.451
16988W        W78299   9.805  33.468   4.806
16989W        W78300  44.297  31.594   1.788
16990W        W78301  41.889  18.737   1.809
16991W        W78302  37.885  21.195  12.529
16992W        W78303  31.632  10.251   0.453
16993W        W78304   0.459  44.009   2.701
16994W        W78305   7.313  43.283  13.355
16995W        W78306  11.199  27.676   2.678
16996W        W78307  10.232  24.698   2.866
16997W        W78308  11.164  16.567   1.235
16998W        W78309  25.576  23.532  12.917
16999W        W78310   6.226   5.301  10.565
17000W        W78311  36.997  23.699  12.903
17001W        W78312  40.526   1.776   1.724
17002W        W78313   5.926  39.548   3.643
17003W        W78314   9.813  15.608   3.845
17004W        W78315  14.178  29.156  13.393
17005W        W78316  16.149  18.123   0.783
17006W        W78317  12.269  44.505  14.770
17007W        W78318  13.770  40.822   1.785
17008W        W78319   6.766  12.273  13.959
17009W        W78320  44.375  42.490  11.089
17010W        W78321  24.705  17.573   1.279
17011W        W78322  22.022  35.565   0.904
17012W        W78323  27.197  19.649   0.338
17013W        W78324  44.303  36.433   2.735
17014W        W78325  36.016  11.629  14.501
17015W        W78326  33.039  23.569  12.388
17016W        W78327  35.419  43.365  14.501
17017W        W78328  44.467  39.445  12.087
17018W        W78329   4.447   8.282   2.272
17019W        W78330   1.942  20.228   0.425
17020W        W78331  26.174  30.978   3.360
17021W        W78332  42.932  13.295   0.281
17022W        W78333   2.725  27.639   3.850
17023W        W78334  28.650  33.930   2.668
17024W        W78335  21.735  38.918   4.166
17025W        W78336  29.650  43.434  13.962
17026W        W78337   7.272  29.026   4.173
17027W        W78338   1.420  21.649  13.851
17028W        W78339  14.165  41.802  13.311
17029W        W78340   2.348   0.843   9.960
17030W        W78341  31.118   2.838   4.702
17031W        W78342  10.653  20.705   4.269
17032W        W78343   3.735  43.303  14.844
17033W        W78344  39.974  15.789  10.534
17034W        W78345   9.889  19.208  12.998
17035W        W78346  32.596   3.720  11.934
17036W        W78347  34.096  39.991   3.168
17037W        W78348  22.629  31.007  10.611
17038W        W78349  39.347  17.704   1.748
17039W        W78350   6.290   1.384  10.978
17040W        W78351  19.638  23.590   2.195
17041W        W78352  36.944  24.524  10.993
17042W        W78353  29.121  24.710   4.179
17043W        W78354  18.154  16.639   0.463
17044W        W78355  42.803  44.940  10.905
17045W        W78356  41.981  21.246   1.444
17046W        W78357  34.404   6.408   2.702
17047W        W78358  13.703  22.247   2.206
17048W        W78359  29.167  27.109   0.882
17049W        W78360  30.502  43.401   1.899
17050W        W78361  34.111   2.843   3.219
17051W        W78362  18.275   7.839  13.348
17052W        W78363  14.815  20.113  13.437
17053W        W78364  10.264  44.285  13.792
17054W        W78365  37.899  43.921   0.750
17055W        W78366  27.607   6.847  14.369
17056W        W78367   7.216  24.061   1.792
17057W        W78368  37.411  17.100   1.384
17058W        W78369  16.180  41.859   2.192
17059W        W78370  29.607   5.809  12.825
17060W        W78371  11.841  44.898  10.469
17061W        W78372  41.517  30.157  14.957
17062W        W78373  25.572  24.587   2.790
17063W        W78374   2.250  38.885   0.824
17064W        W78375  11.755  43.465  14.457
17065W        W78376  32.493  41.864   1.765
17066W        W78377  19.602  42.511  12.533
17067W        W78378  15.226  10.313   0.759
17068W        W78379   3.266  23.202  12.925
17069W        W78380  43.389  41.012  14.786
17070W        W78381  11.655  41.881   4.802
17071W        W78382  32.532  41.316  12.022
17072W        W78383  10.254   1.291  13.959
17073W        W78384  40.952   9.364   1.372
17074W        W78385  27.538  35.058  12.894
17075W        W78386  28.937  20.548  12.387
17076W        W78387  19.251  39.382   3.335
17077W        W78388   3.731  18.791  10.956
17078W        W78389  26.103  43.956   2.701
17079W        W78390  36.356  16.781  10.635
17080W        W78391  31.408  40.931   0.829
17081W        W78392  32.049  15.738  11.897
17082W        W78393  20.229  36.469   3.699
17083W        W78394   3.218  19.092  10.554
17084W        W78395  23.048  24.977   0.833
17085W        W78396  11.639  19.773  10.527
17086W        W78397  23.084   1.482   0.444
17087W        W78398  28.022  37.511   0.958
17088W        W78399  32.913  25.656  14.004
17089W        W78400  39.032  42.445  13.806
17090W        W78401  34.048  31.534   0.412
17091W        W78402  10.229  28.082  13.311
17092W        W78403  39.323  16.312   1.279
17093W        W78404  13.156  40.427   0.447
17094W        W78405  32.460  21.192   0.444
17095W        W78406  27.157  20.114  13.422
17096W        W78407  19.160  14.738   1.263
17097W        W78408  28.155  21.110  12.029
17098W        W78409   2.745  17.219  13.938
17099W        W78410  30.121   2.275  10.995
17100W        W78411  37.020  10.855   1.898
17101W        W78412  19.743   8.797   4.290
17102W        W78413  24.060  28.459   0.377
17103W        W78414  25.651  11.687  13.440
17104W        W78415  19.184  12.172  14.400
17105W        W78416  36.478  22.525  10.980
17106W        W78417  14.239  24.222   0.421
17107W        W78418   4.718  31.501   4.658
17108W        W78419  22.518  43.998  10.949
17109W        W78420   5.812  27.621   3.706
17110W        W78421  43.994   2.953   3.268
17111W        W78422  20.681   0.289   4.809
17112W        W78423   6.200  23.996  13.332
17113W        W78424  37.894  18.105   4.329
17114W        W78425  24.580  40.335   5.234
17115W        W78426   5.361  23.498   2.846
17116W        W78427   7.874   6.335  13.386
17117W        W78428   6.922  18.195   3.359
17118W        W78429  32.138   5.329   9.982
17119W        W78430  32.532   7.742   0.344
17120W        W78431  27.017   5.809  13.009
17121W        W78432  35.523  30.490  12.032
17122W        W78433  38.842   4.300  13.462
17123W        W78434   8.314   4.828  11.400
17124W        W78435   1.861  25.533   2.866
17125W        W78436  16.637   0.814   3.669
17126W        W78437  44.876   2.784  11.974
17127W        W78438  28.946  21.566   0.913
17128W        W78439  21.681  23.108   0.352
17129W        W78440  43.434  23.197  12.842
17130W        W78441  20.216  36.348   2.812
17131W        W78442  41.939  43.484  14.396
17132W        W78443  20.765  20.186  11.049
17133W        W78444   7.378   3.412   0.852
17134W        W78445  17.284  15.284   2.311
17135W        W78446  21.234  34.905  14.279
17136W        W78447  22.731  21.030   0.893
17137W        W78448  31.974   1.411  11.068
17138W        W78449  23.004  44.445   1.807
17139W        W78450  11.214  11.161   3.189
17140W        W78451  11.718  29.600   5.143
17141W        W78452  43.879  42.401  13.416
17142W        W78453  11.137  37.000  13.399
17143W        W78454  30.447  30.636   2.812
17144W        W78455  29.450  43.867  12.399
17145W        W78456   1.897  35.101  12.069
17146W        W78457  19.723  13.297  10.487
17147W        W78458  38.902   4.891   4.240
17148W        W78459  41.821  39.808   1.345
17149W        W78460  18.259   0.933   1.384
17150W        W78461  33.083  31.450   0.801
17151W        W78462  28.032  28.529  13.448
17152W        W78463  35.020  12.353  12.950
17153W        W78464  20.561  44.973   3.673
17154W        W78465  14.678   9.186  13.923
17155W        W78466   8.213   1.267   0.481
17156W        W78467  14.128   6.757  14.027
17157W        W78468  25.062  27.499   1.315
17158W        W78469   7.728  14.626  11.093
17159W        W78470  38.378   0.933   2.284
17160W        W78471  44.879  33.442  10.584
17161W        W78472  42.953   8.340   2.322
17162W        W78473  37.543  22.645  10.502
17163W        W78474  26.507  42.976  13.895
17164W        W78475  29.161  27.519   2.402
17165W        W78476  36.891  23.018  12.386
17166W        W78477  14.825  36.586  11.586
17167W        W78478  25.163  14.192  14.407
17168W        W78479  30.080  31.991  10.057
17169W        W78480  24.040  34.436  12.874
17170W        W78481  11.345  26.670   3.760
17171W        W78482  38.402  30.567  12.466
17172W        W78483  35.545  27.159  13.013
17173W        W78484  10.224  27.141   0.410
17174W        W78485  10.632  35.968  12.486
17175W        W78486  42.385  14.173  10.497
17176W        W78487  16.598  41.933  13.829
17177W        W78488  24.055  22.706  10.565
17178W        W78489   2.878  15.162  11.919
17179W        W78490  17.167  30.416   2.753
17180W        W78491  38.527   3.319   1.283
17181W        W78492  44.388  28.622  10.492
17182W        W78493   1.265  29.440   4.696
17183W        W78494   7.261  35.045   1.809
17184W        W78495  26.669  35.032   5.204
17185W        W78496  35.519  27.097   4.146
17186W        W78497  28.544  31.916   0.858
17187W        W78498  41.908  13.203  14.764
17188W        W78499  32.925  24.107   1.302
17189W        W78500  20.600   0.927  12.865
17190W        W78501  38.992  35.094  11.032
17191W        W78502  37.931   5.328  14.301
17192W        W78503  24.511  14.734   0.766
17193W        W78504  38.350  13.727   4.323
17194W        W78505  10.773   5.906   1.741
17195W        W78506  27.519  31.897  14.838
17196W        W78507  20.718  42.800   1.366
17197W        W78508  38.364  41.854  11.943
17198W        W78509  24.640  24.229   1.714
17199W        W78510  16.107  28.531  13.974
17200W        W78511   0.422   5.799   4.327
17201W        W78512  44.458  36.078   4.309
17202W        W78513  16.755  42.349   4.251
17203W        W78514  22.683   9.758   0.390
17204W        W78515  41.481  19.683   4.342
17205W        W78516  30.496   5.836   2.239
17206W        W78517   0.269   1.277  10.982
17207W        W78518  24.654  14.146  11.485
17208W        W78519  34.031  11.708   0.775
17209W        W78520   8.749  24.136   0.741
17210W        W78521  17.147  23.223   1.918
17211W        W78522  38.924  14.795  10.995
17212W        W78523   6.197  33.504   3.645
17213W        W78524  42.336  35.518  12.834
17214W        W78525  22.995   8.710   5.127
17215W        W78526  25.171  15.604   4.747
17216W        W78527  18.730  10.828  13.382
17217W        W78528  14.782  20.722   0.899
17218W        W78529   3.354  44.757   3.846
17219W        W78530   6.879  24.019  10.494
17220W        W78531  15.791  14.307  14.950
17221W        W78532   9.150  31.503   2.342
17222W        W78533  24.663  13.787  10.569
17223W        W78534  32.994  23.157   2.671
17224W        W78535  29.458  34.023   2.281
17225W        W78536  14.725   2.353  13.845
17226W        W78537  42.826  36.367  14.497
17227W        W78538  12.619   5.405  14.012
17228W        W78539  37.925  33.980   3.666
17229W        W78540  19.611  41.315   1.900
17230W        W78541  17.067   2.725  12.557
17231W        W78542  14.274  18.060   0.779
17232W        W78543  19.163  38.038   2.194
17233W        W78544  30.919  43.821  13.327
17234W        W78545  31.146   3.749   1.422
17235W        W78546  22.561  11.350   3.343
17236W        W78547   6.339   5.883  13.395
17237W        W78548  32.937  10.830   3.146
17238W        W78549   4.249  14.276  11.113
17239W        W78550  41.027   7.785   2.358
17240W        W78551   1.754  40.015   2.331
17241W        W78552  37.981   2.938  11.575
17242W        W78553  29.621  44.754   1.408
17243W        W78554   6.697   7.707   2.792
17244W        W78555   2.301   7.738   4.692
17245W        W78556  33.428  27.994  12.832
17246W        W78557  18.698  21.612  13.850
17247W        W78558  37.568  35.594   0.430
17248W        W78559  21.545  11.207  13.530
17249W        W78560  25.194   5.753   4.270
17250W        W78561  14.799   7.848   4.295
17251W        W78562   8.829  21.692  13.363
17252W        W78563  13.652  44.882  10.457
17253W        W78564  25.194  31.072   2.730
17254W        W78565   5.900  22.545  11.120
17255W        W78566  12.850  16.766   4.641
17256W        W78567  21.141  18.621   2.769
17257W        W78568  39.401   0.924   1.805
17258W        W78569  30.093   9.809   2.837
17259W        W78570   7.750  23.010   1.767
17260W        W78571  31.904  26.512   1.249
17261W        W78572  13.816  22.046  14.318
17262W        W78573   4.829  23.644   3.820
17263W        W78574  13.636   1.965  12.875
17264W        W78575   1.931  33.025  14.445
17265W        W78576  38.885   8.859   4.303
17266W        W78577  16.164  31.921  14.014
17267W        W78578  38.877   4.850   4.830
17268W        W78579   8.734  35.542  12.438
17269W        W78580   1.385  11.312  12.404
17270W        W78581  43.970  42.932   2.729
17271W        W78582  44.819   0.380   2.668
17272W        W78583  14.322  43.782   3.213
17273W        W78584  41.419  11.862   0.950
17274W        W78585  10.268  43.867   3.867
17275W        W78586  19.672  21.649  14.971
17276W        W78587   0.340  23.709   2.702
17277W        W78588  20.646   6.753  10.528
17278W        W78589   4.828  18.268  13.916
17279W        W78590  30.594  30.007   1.291
17280W        W78591  32.999  27.641  13.326
17281W        W78592  20.764  42.523  13.791
17282W        W78593  23.032  18.192   3.263
17283W        W78594  43.389   9.796   1.857
17284W        W78595  17.244  23.640   4.829
17285W        W78596  31.961  43.819   2.295
17286W        W78597   3.320  44.857   4.639
17287W        W78598   7.284   5.309   3.707
17288W        W78599  25.475  11.204  12.070
17289W        W78600  32.921   0.930  12.533
17290W        W78601  22.143  29.482  14.994
17291W        W78602  18.625   6.916   3.841
17292W        W78603  31.629  15.796  14.804
17293W        W78604  14.672  10.795   3.289
17294W        W78605   9.685  22.119   2.853
17295W        W78606  44.976   9.705   1.736
17296W        W78607   8.684  34.916  14.349
17297W        W78608   4.745  18.215   2.355
17298W        W78609  24.101  43.503   2.192
17299W        W78610   1.798  41.442   3.206
17300W        W78611   5.409  17.278   4.730
17301W        W78612   6.792   0.330   2.194
17302W        W78613  39.428  16.284   4.231
17303W        W78614  20.659   6.401  14.410
17304W        W78615  22.228  16.668   1.821
17305W        W78616  40.927  20.177  14.003
17306W        W78617  30.640  21.167  10.491
17307W        W78618  39.328   2.750   1.294
17308W        W78619  13.200  43.325   3.670
17309W        W78620  14.332  42.779  13.357
17310W        W78621  11.291   2.282   3.303
17311W        W78622  31.580  41.523   3.347
17312W        W78623   5.687  13.197  11.053
17313W        W78624   0.379  36.975   1.860
17314W        W78625  35.946  24.009  13.031
17315W        W78626  43.414   2.749   1.325
17316W        W78627  22.063  28.669   0.393
17317W        W78628  15.759  30.559   4.830
17318W        W78629  35.402  10.321   2.887
17319W        W78630  22.615  22.185   1.712
17320W        W78631  31.118   9.350   0.402
17321W        W78632  19.162  40.982  14.007
17322W        W78633  13.726  40.360  14.281
17323W        W78634  38.880  10.303  14.455
17324W        W78635  18.215   0.249  13.808
17325W        W78636  20.755  25.198   1.845
17326W        W78637  25.626  32.080  13.470
17327W        W78638  11.358   4.273  13.859
17328W        W78639  31.149  13.758  14.491
17329W        W78640  32.114  15.587   1.386
17330W        W78641  29.597  15.677  10.061
17331W        W78642  31.423  26.497   1.928
17332W        W78643  27.003  21.027   1.287
17333W        W78644   6.849   4.787  12.494
17334W        W78645  32.450  44.924  14.907
17335W        W78646  17.250   8.865   2.229
17336W        W78647   7.699  36.845  14.019
17337W        W78648   0.410  24.014  10.937
17338W        W78649  35.474  39.317  12.839
17339W        W78650  25.652  18.557  14.932
17340W        W78651  22.551  35.069  11.865
17341W        W78652  44.272  22.031  11.382
17342W        W78653   4.267  43.961  10.497
17343W        W78654  30.514  12.216   2.677
17344W        W78655  22.163  22.684   2.838
17345W        W78656  21.727  10.864   1.398
17346W        W78657   6.696  23.649   4.262
17347W        W78658  39.389  43.000  11.565
17348W        W78659  33.436  15.735  10.974
17349W        W78660  29.468  10.749   2.277
17350W        W78661  26.971  19.210   4.805
17351W        W78662  17.633  26.510  14.320
17352W        W78663  41.828  19.590  11.376
17353W        W78664  11.734  17.122  11.551
17354W        W78665  28.681  13.845  11.613
17355W        W78666  40.375  18.743   0.890
17356W        W78667  34.555   2.871  14.914
17357W        W78668  20.531  24.191  14.761
17358W        W78669  17.159  20.727   2.741
17359W        W78670  18.669  12.289  10.509
17360W        W78671   3.855   1.952  12.451
17361W        W78672  39.983  33.455   0.283
17362W        W78673   7.715  37.984  11.491
17363W        W78674  16.120  29.554   3.325
17364W        W78675   4.842  15.707  10.641
17365W        W78676  37.040  41.963   1.432
17366W        W78677  33.993  21.569  12.864
17367W        W78678  15.282  18.646   1.277
17368W        W78679  32.009  14.156  12.538
17369W        W78680   4.209  13.823   3.785
17370W        W78681  33.566  23.988   2.220
17371W        W78682  14.770   7.182  12.578
17372W        W78683  32.897   8.871   1.403
17373W        W78684  27.126  29.141   0.911
17374W        W78685  41.478  37.955   1.242
17375W        W78686   0.418  42.898   0.806
17376W        W78687   4.342   2.265   3.175
17377W        W78688   5.371  39.884   1.766
17378W        W78689  17.653  32.447  10.914
17379W        W78690  14.262  27.127   4.260
17380W        W78691  24.149  44.494  10.482
17381W        W78692  43.897  41.498  14.897
17382W        W78693   6.280  19.051   3.708
17383W        W78694  31.582  17.117   4.701
17384W        W78695  25.520  22.053   2.705
17385W        W78696  25.688  18.052  12.344
17386W        W78697  17.283  25.468   4.757
17387W        W78698  27.952   1.832  13.363
17388W        W78699  33.410  21.587   0.952
17389W        W78700   6.264  14.306   2.393
17390W        W78701  23.115  37.446  13.926
17391W        W78702   6.913  11.345   2.402
17392W        W78703  26.586   3.304  14.850
17393W        W78704  20.213  10.830  14.023
17394W        W78705  15.712  44.266   0.320
17395W        W78706   9.888   8.664   3.762
17396W        W78707   6.398  22.139   1.217
17397W        W78708  15.226  39.016  14.338
17398W        W78709  39.032  27.486  12.068
17399W        W78710  26.987   0.292   0.395
17400W        W78711  18.070  27.020  13.469
17401W        W78712   5.405   9.167   1.841
17402W        W78713  26.207  22.108  13.901
17403W        W78714   7.696  16.779  12.869
17404W        W78715  21.106  25.191   1.428
17405W        W78716  30.571  31.412   1.796
17406W        W78717  37.077   1.337   0.247
17407W        W78718   7.767  17.095  10.046
17408W        W78719  23.543   4.765   0.930
17409W        W78720   5.798  30.023   0.429
17410W        W78721  33.047  18.123  13.846
17411W        W78722  17.115  32.602  11.572
17412W        W78723  18.740  18.756   3.170
17413W        W78724  38.863  20.089   0.461
17414W        W78725  11.331  15.755  13.842
17415W        W78726  20.124  25.019   2.707
17416W        W78727  39.389   2.847  11.465
17417W        W78728   8.280  27.176  12.075
17418W        W78729  18.065  40.508   3.220
17419W        W78730  37.954  30.094  11.468
17420W        W78731  16.593  25.503  10.556
17421W        W78732  13.737   1.333  12.069
17422W        W78733  17.591  38.910   2.379
17423W        W78734  13.308  30.073  13.411
17424W        W78735  14.277  25.976  13.360
17425W        W78736  38.418  21.619  12.043
17426W        W78737  33.940  10.285  11.478
17427W        W78738  12.337  26.042   3.213
17428W        W78739  16.777  40.491   1.874
17429W        W78740  10.818  27.620  14.889
17430W        W78741  31.098  20.641  10.897
17431W        W78742  36.047  15.203   3.820
17432W        W78743  21.057  35.069  13.816
17433W        W78744  26.492  15.293  13.828
17434W        W78745  31.627  25.190   0.920
17435W        W78746  27.042  29.500   9.970
17436W        W78747  37.078  43.445   0.381
17437W        W78748   0.325  24.720  12.485
17438W        W78749  31.439  13.675   0.320
17439W        W78750  13.807  26.658  12.872
17440W        W78751  13.768  36.907  14.324
17441W        W78752  24.553  34.533  14.394
17442W        W78753  11.344  44.331  10.932
17443W        W78754  30.623  13.140   3.247
17444W        W78755   1.802  37.923  10.633
17445W        W78756  36.421  18.103  13.987
17446W        W78757  33.506  22.172  10.137
17447W        W78758  35.861   9.832  12.344
17448W        W78759  36.962   6.893   1.935
17449W        W78760  35.006  25.494   2.882
17450W        W78761  43.959   6.678  12.424
17451W        W78762  36.543  40.929  10.437
17452W        W78763  16.096  13.841   0.270
17453W        W78764  37.982  37.886   4.294
17454W        W78765  40.844   1.737   4.121
17455W        W78766  39.443   3.909  11.950
17456W        W78767   9.722  14.177  12.993
17457W        W78768  30.534   6.770  11.933
17458W        W78769  37.547  16.694  12.379
17459W        W78770   8.168   1.905   0.383
17460W        W78771  43.463   0.264  12.823
17461W        W78772   5.909  42.526  13.007
17462W        W78773  38.544  21.082   0.764
17463W        W78774   8.349  37.579   0.457
17464W        W78775  28.561  31.146   4.766
17465W        W78776  29.116  23.176  12.377
17466W        W78777  33.397   0.866   2.730
17467W        W78778   9.371   2.378   2.783
17468W        W78779  29.620  14.666   2.408
17469W        W78780   8.737  34.097   1.736
17470W        W78781  31.448   1.802   4.120
17471W        W78782   4.284  40.853   3.235
17472W        W78783  33.097  29.921   0.251
17473W        W78784  32.614  17.754   4.710
17474W        W78785  27.483  22.688  14.354
17475W        W78786  38.929   7.323   4.615
17476W        W78787  18.764   1.761   2.871
17477W        W78788  15.736  12.769   3.147
17478W        W78789  28.044  16.759   4.759
17479W        W78790   9.209  30.133  11.416
17480W        W78791  25.475  16.669   4.687
17481W        W78792  18.275   2.846  10.894
17482W        W78793  38.372  16.242   4.723
17483W        W78794  20.096  16.211  10.919
17484W        W78795  12.316   2.918  10.904
17485W        W78796  23.669  37.438   3.862
17486W        W78797  32.608  14.269   4.628
17487W        W78798  23.153  24.700   4.335
17488W        W78799  33.924  17.584  14.335
17489W        W78800  37.037  40.842   0.802
17490W        W78801  17.632  43.310   1.217
17491W        W78802  19.637  27.154  10.634
17492W        W78803  30.991   1.973   2.346
17493W        W78804  36.858  32.404   0.256
17494W        W78805  18.233  38.889  12.472
17495W        W78806  18.684  40.926  11.879
17496W        W78807  17.191   2.767   3.802
17497W        W78808  24.140   7.362   0.787
17498W        W78809  36.059  42.935   4.129
17499W        W78810  26.064  41.909  10.459
17500W        W78811  38.834   5.756  12.862
17501W        W78812  41.979  10.335  14.775
17502W        W78813  33.561  24.493   0.473
17503W        W78814   5.929   1.417  12.550
17504W        W78815  18.592  10.319  13.830
17505W        W78816  16.177  15.740  10.621
17506W        W78817  35.991  43.998   4.785
17507W        W78818  33.593  38.419   2.804
17508W        W78819  33.946  42.914  12.096
17509W        W78820  37.573  22.230   0.311
17510W        W78821  29.116  27.451   3.667
17511W        W78822   1.912  26.523   1.820
17512W        W78823  32.021  13.608   0.258
17513W        W78824  22.651  26.562  11.923
17514W        W78825  26.657  30.963  10.604
17515W        W78826  15.098  43.397  13.485
17516W        W78827  41.393  39.448   2.670
17517W        W78828   7.727  44.762   2.239
17518W        W78829  24.599  24.534  14.861
17519W        W78830  44.466  40.335   2.394
17520W        W78831  35.075  25.626  10.924
17521W        W78832   0.492  30.525  12.920
17522W        W78833   0.845  10.744  14.765
17523W        W78834  28.072  21.540   1.243
17524W        W78835  12.763   7.367   4.653
17525W        W78836  33.959  22.042   1.801
17526W        W78837  15.644  22.144  11.051
17527W        W78838  19.051  29.534   1.340
17528W        W78839   2.894  41.001   4.663
17529W        W78840  21.723  38.849   0.794
17530W        W78841  36.036   6.288  13.906
17531W        W78842  39.908  30.658   2.753
17532W        W78843   0.488  30.938  11.907
17533W        W78844  31.509  26.641   3.718
17534W        W78845  27.033   1.782   4.805
17535W        W78846  16.281  39.867   1.888
17536W        W78847  30.431  31.971  12.922
17537W        W78848   8.871  38.390  10.524
17538W        W78849  16.727  22.095   1.765
17539W        W78850  12.342  12.206   2.814
17540W        W78851  20.676  34.919   3.309
17541W        W78852  26.626  22.039   4.156
17542W        W78853  20.576  11.837   1.407
17543W        W78854  22.563  43.306   5.121
17544W        W78855  29.661  13.304  10.583
17545W        W78856  44.476  18.268   3.182
17546W        W78857   0.969  34.988   4.820
17547W        W78858   2.725  20.565  11.126
17548W        W78859  35.010  42.341  13.354
17549W        W78860  43.480   6.829   3.813
17550W        W78861  32.968  20.262  10.631
17551W        W78862  29.105  41.397   4.133
17552W        W78863   8.780  44.902  11.098
17553W        W78864   9.647  35.402   0.353
17554W        W78865  29.055  33.545  12.382
17555W        W78866  38.346  17.245   2.808
17556W        W78867  13.204  12.797  13.924
17557W        W78868   0.290  21.153   2.274
17558W        W78869   9.149  32.892   4.801
17559W        W78870  36.969  11.792   1.219
17560W        W78871  14.299  32.089   1.740
17561W        W78872  25.535   5.277   4.344
17562W        W78873  15.594  17.302  11.409
17563W        W78874  41.001  10.734  12.849
17564W        W78875  37.494  31.142  12.053
17565W        W78876  40.895  14.714  11.895
17566W        W78877  20.543   6.349  10.947
17567W        W78878   9.672  42.992  14.358
17568W        W78879   7.225  26.017  13.837
17569W        W78880  21.105  16.661   5.148
17570W        W78881  33.449  30.470  13.511
17571W        W78882  42.950  23.003  12.914
17572W        W78883   3.811   6.341  10.060
17573W        W78884  17.249   8.723  14.759
17574W        W78885  25.101  12.610  10.503
17575W        W78886  21.615  19.278   0.321
17576W        W78887   3.280  20.173  13.984
17577W        W78888  20.042   7.177  10.489
17578W        W78889   7.176  30.135   3.780
17579W        W78890  23.615  24.643   0.808
17580W        W78891  27.037  42.907   1.249
17581W        W78892  40.532  36.383   0.270
17582W        W78893  31.508  35.934  12.464
17583W        W78894  36.004   2.779   3.240
17584W        W78895  43.422  39.546  11.528
17585W        W78896  29.516  44.865   0.426
17586W        W78897  19.162  12.270  13.033
17587W        W78898  30.038   6.194   0.358
17588W        W78899  21.668  41.356   0.299
17589W        W78900  31.548   3.336   4.663
17590W        W78901  43.815  16.617   3.737
17591W        W78902  11.197  32.014   2.878
17592W        W78903  33.963  30.971  10.504
17593W        W78904  38.387  41.816  12.931
17594W        W78905  18.200  35.531  11.024
17595W        W78906  41.524   6.384   1.873
17596W        W78907   3.833  13.779   3.294
17597W        W78908  31.981  12.683  14.905
17598W        W78909   9.744  40.433  13.492
17599W        W78910  24.053  22.232  12.513
17600W        W78911  42.474   3.352  12.516
17601W        W78912  13.147  23.725   1.343
17602W        W78913  25.090  17.274   4.166
17603W        W78914  16.153  21.203  10.587
17604W        W78915  32.970  30.161  12.863
17605W        W78916  28.012  25.692   4.664
17606W        W78917  19.044  19.662   3.278
17607W        W78918   0.788  41.329  14.454
17608W        W78919  10.224  34.071   1.913
17609W        W78920  23.041   6.719   3.665
17610W        W78921  41.459  23.723  12.465
17611W        W78922  13.714  24.567   3.815
17612W        W78923  36.515  10.645   1.349
17613W        W78924  37.928  35.986  10.925
17614W        W78925   0.841  10.772  10.992
17615W        W78926  13.681  10.313   3.682
17616W        W78927  12.157  27.968   0.767
17617W        W78928  19.605  32.531   1.212
17618W        W78929  24.078   7.368  12.373
17619W        W78930  30.629  28.989  14.982
17620W        W78931  21.100  27.633  11.051
17621W        W78932  19.686  30.521  10.499
17622W        W78933  32.512  35.540  14.372
17623W        W78934  32.938  26.208   3.659
17624W        W78935  26.170  30.045   0.908
17625W        W78936  34.524   7.391  11.410
17626W        W78937   8.696  21.716   4.344
17627W        W78938  27.123  16.199  12.499
17628W        W78939  29.504  43.353  10.620
17629W        W78940  15.235   3.934   3.683
17630W        W78941  42.898  18.731   5.267
17631W        W78942  11.772   1.458  13.356
17632W        W78943   7.802  11.238  14.826
17633W        W78944   1.897  42.344  13.791
17634W        W78945  34.385  24.699  12.087
17635W        W78946   6.382  39.851   4.701
17636W        W78947  19.685  37.879  12.021
17637W        W78948  15.256  11.342   0.857
17638W        W78949  16.193  13.194  12.557
17639W        W78950   0.436   6.863  14.815
17640W        W78951   6.815  33.581  10.589
17641W        W78952  11.796  14.804   9.931
17642W        W78953  29.168  17.699   2.407
17643W        W78954   0.454  27.646   0.420
17644W        W78955  14.706   8.827  10.427
17645W        W78956   1.261  19.072  10.451
17646W        W78957   4.900  18.554   4.823
17647W        W78958  38.036  36.876   4.658
17648W        W78959  29.943  11.753  13.463
17649W        W78960  26.108  26.612   1.302
17650W        W78961   5.321  31.526   1.902
17651W        W78962  36.903  32.073  12.387
17652W        W78963  26.539  29.568  10.933
17653W        W78964  29.633  41.426   0.245
17654W        W78965   2.265  37.029   0.730
17655W        W78966  25.161  30.976   3.850
17656W        W78967  42.403  42.795   5.152
17657W        W78968  17.117  44.430   3.683
17658W        W78969   7.266  40.903  12.510
17659W        W78970   8.186  41.429   3.683
17660W        W78971  27.124   3.434   0.366
17661W        W78972  42.947  25.572   3.189
17662W        W78973  38.355  17.233  11.887
17663W        W78974  26.196  15.240  12.059
17664W        W78975  42.777  22.676   2.900
17665W        W78976  22.221  15.196   2.864
17666W        W78977  12.804  10.219  10.043
17667W        W78978  27.667  16.764   4.301
17668W        W78979  21.642  35.902   0.727
17669W        W78980  33.427  29.053  11.415
17670W        W78981  25.677  16.192  11.473
17671W        W78982   8.834  38.997   0.278
17672W        W78983  36.447  43.500  13.823
17673W        W78984  37.946  17.705   4.259
17674W        W78985   2.802  41.507   3.360
17675W        W78986  40.358  10.356   4.136
17676W        W78987  30.610  30.010   0.736
17677W        W78988  11.776  20.661   1.715
17678W        W78989  30.558  22.012  12.031
17679W        W78990   1.329  24.693  12.395
17680W        W78991  38.939  13.628   1.383
17681W        W78992   8.224   0.979  13.918
17682W        W78993   1.879  38.880  12.986
17683W        W78994   0.321  24.148  12.422
17684W        W78995  28.961  23.190   4.722
17685W        W78996  37.414  34.398   0.787
17686W        W78997   7.249  11.657   4.289
17687W        W78998  10.306  24.603   0.454
17688W        W78999  38.847  16.172  10.537
17689W        W79000  10.280   9.158  11.960
17690W        W79001  34.534  33.397   0.370
17691W        W79002  26.155  14.232   0.912
17692W        W79003   5.802  26.990  13.979
17693W        W79004  26.187  10.712   4.708
17694W        W79005   3.373  27.463  11.935
17695W        W79006   5.702   8.761   1.347
17696W        W79007  25.561   5.377  11.376
17697W        W79008  14.667  35.894   3.249
17698W        W79009   1.865  37.868  11.061
17699W        W79010   8.344  34.938   1.702
17700W        W79011  40.825  18.782  14.886
17701W        W79012  38.536   7.391   0.734
17702W        W79013   1.758  44.800   3.783
17703W        W79014  31.075  22.226  14.865
17704W        W79015  43.820  38.941  14.829
17705W        W79016   5.299   6.236   4.777
17706W        W79017   7.783  26.656   2.735
17707W        W79018  38.824  17.646  12.070
17708W        W79019  21.158  26.139  11.859
17709W        W79020   6.826  34.957   2.246
17710W        W79021   1.444  28.656  12.484
17711W        W79022  10.269   6.841  11.881
17712W        W79023   2.269   4.432   0.849
17713W        W79024   8.291   9.796  14.332
17714W        W79025  35.927  34.865  12.536
17715W        W79026   5.895  25.503  14.470
17716W        W79027   8.288   8.251   0.441
17717W        W79028  31.079  32.113  12.992
17718W        W79029  21.678  13.142  12.059
17719W        W79030  23.065  38.868  12.054
17720W        W79031  12.684  25.473  14.873
17721W        W79032  10.304  23.226   1.749
17722W        W79033  12.648   9.201  11.892
17723W        W79034  35.095  39.053   4.602
17724W        W79035   9.808  12.801  14.432
17725W        W79036  34.383  33.983  14.324
17726W        W79037   7.276  33.488   1.809
17727W        W79038  26.202  13.314  14.887
17728W        W79039  19.151  18.716  13.950
17729W        W79040  32.486  36.507  12.916
17730W        W79041   9.201  35.469  13.459
17731W        W79042  36.010  42.787   0.913
17732W        W79043  10.677   5.782   0.795
17733W        W79044  34.956   6.871  12.829
17734W        W79045   1.284  22.172   1.763
17735W        W79046  40.993  28.007  12.524
17736W        W79047  43.375  44.304   1.698
17737W        W79048   1.829  41.315  11.010
17738W        W79049  32.586  34.516  14.002
17739W        W79050  21.619  34.377   4.781
17740W        W79051  32.544  33.406  13.928
17741W        W79052  25.599  30.934  12.854
17742W        W79053  23.554  11.733  12.435
17743W        W79054  14.732   5.312   0.314
17744W        W79055  37.069  43.913   2.725
17745W        W79056  42.849  29.074   2.324
17746W        W79057  11.803  20.193  11.126
17747W        W79058  26.110  24.113  14.460
17748W        W79059  29.930  34.959   0.357
17749W        W79060  44.006   7.770  13.815
17750W        W79061  25.112  23.550  12.965
17751W        W79062  22.043   4.291   4.770
17752W        W79063  16.689  11.867   2.689
17753W        W79064   4.898  11.747  10.014
17754W        W79065   3.369  28.093  14.784
17755W        W79066  40.506  28.067  13.011
17756W        W79067  20.672  20.229  11.982
17757W        W79068  44.280  26.556   0.736
17758W        W79069  38.931  42.527   2.880
17759W        W79070  38.979  32.400   1.431
17760W        W79071  35.392  22.537  12.388
17761W        W79072  13.144  10.807  14.477
17762W        W79073  30.568  42.950   2.826
17763W        W79074  17.593  29.016  14.278
17764W        W79075  18.220  38.973  14.763
17765W        W79076   9.221  20.743  11.986
17766W        W79077  21.079  19.222   0.323
17767W        W79078  28.460  30.164   1.419
17768W        W79079  23.546  43.345   2.810
17769W        W79080  34.898  35.100   4.736
17770W        W79081   8.233   5.390  10.582
17771W        W79082  30.563   2.779   4.673
17772W        W79083  23.027  15.155  11.076
17773W        W79084   9.269  22.565  14.369
17774W        W79085   5.915  17.757   3.342
17775W        W79086  42.994  16.231   0.824
17776W        W79087  26.167  23.182   1.395
17777W        W79088  23.040   6.378   4.621
17778W        W79089  37.980   3.428   1.407
17779W        W79090  23.224  43.368  13.865
17780W        W79091   6.791  24.632   4.119
17781W        W79092  25.195  20.206   2.724
17782W        W79093   6.382  17.622  14.310
17783W        W79094  42.496  26.492  14.298
17784W        W79095  19.728  30.441  13.863
17785W        W79096  23.085  34.116  11.090
17786W        W79097   6.351  19.587   2.820
17787W        W79098  23.543  19.072   1.706
17788W        W79099   6.836   2.887   2.739
17789W        W79100  15.200  14.326   1.696
17790W        W79101  24.684  10.723   2.721
17791W        W79102   5.349  34.608  14.762
17792W        W79103   2.267   9.888   3.287
17793W        W79104  39.395  33.572  13.365
17794W        W79105   0.934  26.684   1.839
17795W        W79106  40.915  43.444  12.466
17796W        W79107  38.546  16.604   3.311
17797W        W79108  40.379  21.189  13.398
17798W        W79109  33.051  34.380  13.391
17799W        W79110  13.230   3.401  11.074
17800W        W79111   8.365  31.627  11.382
17801W        W79112  29.545   4.789   1.720
17802W        W79113   1.863  39.900  10.499
17803W        W79114  34.420   3.455   1.714
17804W        W79115  13.770  38.403   0.287
17805W        W79116  15.212  14.648  13.035
17806W        W79117  23.045  11.259  11.094
17807W        W79118  22.538  23.537  13.879
17808W        W79119  36.990  32.920   0.768
17809W        W79120  15.593  21.095   4.283
17810W        W79121  15.686  36.939  10.422
17811W        W79122  37.348  17.073  13.887
17812W        W79123  42.877  44.916   1.770
17813W        W79124  23.195   8.700   2.791
17814W        W79125  12.336  16.647   1.881
17815W        W79126  21.637   5.750   2.319
17816W        W79127   1.796  41.471  11.865
17817W        W79128   8.274   2.941  12.052
17818W        W79129  37.866  16.571   1.288
17819W        W79130   1.321  16.287  10.639
17820W        W79131  20.720  13.683   1.308
17821W        W79132  30.928  23.181   0.268
17822W        W79133  25.688  13.683  12.935
17823W        W79134  27.155  15.224  11.545
17824W        W79135  10.802   5.903   3.372
17825W        W79136  30.098  15.296  11.874
17826W        W79137  43.315  37.068  14.901
17827W        W79138  29.116   6.908  13.411
17828W        W79139  37.976  35.551  12.091
17829W        W79140  27.955  13.105   5.097
17830W        W79141  20.140  15.748  11.900
17831W        W79142  24.524  14.230   2.855
17832W        W79143  10.287  23.072  12.984
17833W        W79144  14.702  38.840  11.558
17834W        W79145  16.640  13.164  12.358
17835W        W79146  25.148  42.357  12.968
17836W        W79147  19.229   4.337   1.415
17837W        W79148  29.594  29.618  13.485
17838W        W79149  17.710  11.331   4.630
17839W        W79150  24.558  29.955   0.439
17840W        W79151  10.766  17.713  13.497
17841W        W79152  11.164  20.719  12.930
17842W        W79153   8.757  27.086  12.919
17843W        W79154  15.302  40.386  14.384
17844W        W79155  33.618  35.526  13.803
17845W        W79156  20.569  20.057   2.838
17846W        W79157  39.513   2.297  11.506
17847W        W79158   5.715  42.478   0.357
17848W        W79159  13.798  37.885  13.825
17849W        W79160  13.687   3.752  13.009
17850W        W79161  26.634  39.345  11.432
17851W        W79162  41.406  41.879   1.796
17852W        W79163  27.664   7.870   1.888
17853W        W79164  14.830  33.899   0.469
17854W        W79165  27.651   9.663  12.966
17855W        W79166  14.701  17.642  13.963
17856W        W79167  12.693  15.624  12.438
17857W        W79168  16.176  40.436  14.825
17858W        W79169  24.061   0.456  11.029
17859W        W79170   3.300  32.542   1.216
17860W        W79171  36.513   1.326   1.391
17861W        W79172  27.981  10.687  13.926
17862W        W79173  33.404  35.393   4.710
17863W        W79174  25.028   3.436   2.777
17864W        W79175   9.236   1.949  14.510
17865W        W79176  41.482   0.421  14.346
17866W        W79177   9.675  30.525   1.250
17867W        W79178  34.427  36.071  13.530
17868W        W79179  43.385  19.678   4.156
17869W        W79180  42.907  31.556   4.315
17870W        W79181  40.500  19.648   1.231
17871W        W79182  40.032  35.378  13.385
17872W        W79183  42.295  31.592  11.495
17873W        W79184  43.459   4.437   0.480
17874W        W79185   4.792  28.984  11.460
17875W        W79186  17.100   7.781  13.370
17876W        W79187  30.153  16.220  14.816
17877W        W79188  13.296  39.003   9.996
17878W        W79189  17.588   1.828  10.526
17879W        W79190  18.724  35.008   2.316
17880W        W79191  31.604  10.194   2.298
17881W        W79192  23.517  43.895  14.854
17882W        W79193  39.344  27.051   1.894
17883W        W79194  43.318   7.828  14.338
17884W        W79195  25.703  42.414  13.827
17885W        W79196  21.693  10.284  11.110
17886W        W79197  42.380  32.598  12.370
17887W        W79198  31.612  18.617   4.615
17888W        W79199   0.435  19.544  11.053
17889W        W79200  42.339   5.911   3.832
17890W        W79201  33.529  10.187  11.873
17891W        W79202   6.731  40.966  11.877
17892W        W79203  33.020  42.875  10.554
17893W        W79204   7.409  33.115  10.974
17894W        W79205  33.978  31.481  11.377
17895W        W79206  20.761   5.383   4.629
17896W        W79207  24.556  40.478   4.323
17897W        W79208   0.259   4.731  12.044
17898W        W79209  19.252  22.043   2.272
17899W        W79210   0.913  16.765  11.387
17900W        W79211  12.153  19.593  12.872
17901W        W79212   7.329  34.595  13.051
17902W        W79213  41.529  39.506   2.381
17903W        W79214  13.128  41.370   2.770
17904W        W79215  40.883  34.066   1.925
17905W        W79216  16.658  20.266   0.295
17906W        W79217  42.893   8.721  12.893
17907W        W79218  36.887  29.140   1.305
17908W        W79219   0.893  25.045  12.451
17909W        W79220   2.243  21.144   3.332
17910W        W79221   9.658   7.298   0.764
17911W        W79222  19.055  31.435  10.487
17912W        W79223  26.674  23.504   2.781
17913W        W79224  43.890  18.762   0.769
17914W        W79225   4.816  20.161  11.549
17915W        W79226  10.182  23.545  10.003
17916W        W79227  13.229  28.003  14.413
17917W        W79228  13.731  16.696  12.908
17918W        W79229   9.798  16.314   0.483
17919W        W79230  31.571  20.626   0.286
17920W        W79231  29.645  36.047   3.191
17921W        W79232  15.107   7.210   3.845
17922W        W79233  22.746  11.140   4.215
17923W        W79234   6.286  22.149   4.215
17924W        W79235  21.522  17.603  14.402
17925W        W79236  15.245  12.223  14.362
17926W        W79237  26.556  33.510   2.313
17927W        W79238  35.563  17.721   4.154
17928W        W79239   4.223  22.151  14.395
17929W        W79240  39.812  17.637   4.677
17930W        W79241  36.034  35.972  12.011
17931W        W79242  23.727  25.620   4.785
17932W        W79243  11.352  42.413  10.584
17933W        W79244   5.784   4.730   0.423
17934W        W79245  29.656  20.165   3.827
17935W        W79246  14.832  30.531   3.197
17936W        W79247  13.197  41.517  12.434
17937W        W79248  16.114  40.814   1.418
17938W        W79249  30.630   6.321  14.315
17939W        W79250   6.717  20.645  13.957
17940W        W79251   5.196  32.020   3.331
17941W        W79252   1.317  38.535   4.119
17942W        W79253  37.495  14.233  13.414
17943W        W79254  11.750  36.487  11.928
17944W        W79255  36.940  41.458  13.948
17945W        W79256  18.557  35.907  11.010
17946W        W79257  41.886  13.644   1.421
17947W        W79258   6.870   1.258  11.431
17948W        W79259  32.619  14.616   4.122
17949W        W79260   7.844  43.829   3.722
17950W        W79261  31.070  35.565   4.670
17951W        W79262  25.610  19.039  12.898
17952W        W79263   1.295  33.876  12.900
17953W        W79264  23.141   7.330  13.409
17954W        W79265   9.169  38.819  13.982
17955W        W79266   6.797   4.908  10.422
17956W        W79267  10.829  24.111   4.615
17957W        W79268   0.947  32.058   3.663
17958W        W79269  16.255  11.754  14.791
17959W        W79270  21.705  36.848   4.804
17960W        W79271   2.932  12.223   4.611
17961W        W79272   6.200  41.512   4.767
17962W        W79273  22.087  30.025   3.288
17963W        W79274  31.023   8.717  12.864
17964W        W79275  34.371  43.838  13.316
17965W        W79276   8.766  17.075  14.400
17966W        W79277  10.157  27.547  13.439
17967W        W79278  33.886  12.662  10.928
17968W        W79279  17.691  21.677   2.312
17969W        W79280   7.226  31.553  14.836
17970W        W79281  40.819  10.299   0.449
17971W        W79282   1.296   7.315  12.837
17972W        W79283  20.684  13.660   3.679
17973W        W79284   6.914  12.277  12.362
17974W        W79285  17.125  44.414   0.735
17975W        W79286  10.275  20.690   2.835
17976W        W79287  24.100  22.224  14.961
17977W        W79288  40.814   2.850   4.229
17978W        W79289   0.427   2.389  13.430
17979W        W79290   1.453  15.776  11.506
17980W        W79291  15.687  27.066   1.824
17981W        W79292  12.712  19.160  10.636
17982W        W79293   8.676  30.463   0.788
17983W        W79294  42.822  42.926   3.668
17984W        W79295   8.169  21.674   1.878
17985W        W79296   9.239   8.885   3.289
17986W        W79297  42.833  11.336   2.293
17987W        W79298  19.667  42.341   2.321
17988W        W79299  20.239  38.006   0.924
17989W        W79300  28.467  21.565  12.391
17990W        W79301  10.235   3.297  13.849
17991W        W79302   4.323  16.312   4.780
17992W        W79303  37.496  37.012  11.458
17993W        W79304  11.703  24.213   4.705
17994W        W79305  23.082  35.864   3.227
17995W        W79306   0.314  33.938  12.436
17996W        W79307  36.456  40.336   4.781
17997W        W79308  40.942   7.698  10.411
17998W        W79309  40.347  17.234   4.727
17999W        W79310  17.226  28.571  11.402
18000W        W79311  29.515  42.295  13.856
18001W        W79312  18.732  16.762  11.016
18002W        W79313  16.763  20.231  13.987
18003W        W79314  31.486  23.062  10.919
18004W        W79315  24.224  38.446   1.759
18005W        W79316  28.504  20.237  14.383
18006W        W79317   5.716  36.095  14.817
18007W        W79318  17.282  37.915  10.021
18008W        W79319  43.009  42.421  12.837
18009W        W79320  14.693   9.384  14.874
18010W        W79321  20.164  33.460  14.340
18011W        W79322   9.868  30.561  12.860
18012W        W79323  25.030  21.123   0.416
18013W        W79324  30.567  25.688   1.700
18014W        W79325  22.618  42.467   1.302
18015W        W79326  10.190  15.720   9.965
18016W        W79327  13.311   4.222   1.881
18017W        W79328   6.856  13.197   4.256
18018W        W79329   7.303   6.836   1.829
18019W        W79330   1.876  16.159  10.481
18020W        W79331   8.668  26.568  11.575
18021W        W79332  10.192  43.495  11.372
18022W        W79333   8.215  18.612  12.519
18023W        W79334  39.920  15.109  10.635
18024W        W79335  25.045  18.679   4.146
18025W        W79336  12.151  34.496   1.284
18026W        W79337  18.231  15.294   3.197
18027W        W79338  32.517  32.546   4.787
18028W        W79339  17.672   0.376  13.461
18029W        W79340   6.190  34.099   3.718
18030W        W79341   8.802   4.344   3.804
18031W        W79342  25.187   8.689  14.466
18032W        W79343  13.262  31.453   3.170
18033W        W79344  37.881  19.691  14.857
18034W        W79345  23.155  20.105   3.633
18035W        W79346   5.298  13.634   1.228
18036W        W79347   0.397  20.582   2.834
18037W        W79348  17.120  18.205  11.423
18038W        W79349  19.284  26.189   0.793
18039W        W79350  14.121   1.929   3.204
18040W        W79351   2.939  11.855  10.449
18041W        W79352  35.889  20.700   2.702
18042W        W79353  38.914   7.403  10.895
18043W        W79354  36.550  37.976  13.059
18044W        W79355   7.684  33.913   4.243
18045W        W79356  22.201  42.810   3.637
18046W        W79357   6.873  19.772   2.797
18047W        W79358  36.845   4.759  12.088
18048W        W79359   2.833  39.901   0.283
18049W        W79360  13.736  38.374  13.496
18050W        W79361  43.441  44.774  10.935
18051W        W79362  22.074  22.522   3.756
18052W        W79363  39.377   5.912  11.076
18053W        W79364  42.484  20.199   2.763
18054W        W79365  13.246  32.119   0.366
18055W        W79366  42.396  33.598  12.081
18056W        W79367  38.358  32.422  14.773
18057W        W79368  12.267  43.917   3.354
18058W        W79369  37.085  19.570   2.314
18059W        W79370  10.636   0.862  12.344
18060W        W79371  13.229  12.328   2.293
18061W        W79372   7.244   8.881   4.733
18062W        W79373   9.331  17.597   2.204
18063W        W79374  24.690  31.433  11.872
18064W        W79375   8.823   3.453   2.768
18065W        W79376  40.808  19.723  14.399
18066W        W79377  37.577  23.047  11.881
18067W        W79378  22.647  30.432  12.002
18068W        W79379  23.504  27.590   1.857
18069W        W79380   2.835   1.424  14.988
18070W        W79381   4.915  13.800   4.699
18071W        W79382   8.181  21.751  13.333
18072W        W79383  20.695  36.957   3.822
18073W        W79384  40.442  38.860  13.908
18074W        W79385  12.694   7.395   4.253
18075W        W79386  28.935  13.658   0.910
18076W        W79387  19.055   1.917  12.910
18077W        W79388  40.834   5.858  11.035
18078W        W79389  28.661  12.765   1.701
18079W        W79390   8.865  31.019  11.432
18080W        W79391  37.539  41.462  10.148
18081W        W79392  12.666  36.881   2.696
18082W        W79393  10.153  44.842  13.941
18083W        W79394  22.517  19.163  11.465
18084W        W79395  44.754  11.825   4.224
18085W        W79396  11.185  44.399  14.335
18086W        W79397  27.117   0.762  10.967
18087W        W79398  25.518  10.853   0.824
18088W        W79399  20.681  15.286  12.075
18089W        W79400  22.064  21.692  11.556
18090W        W79401  18.124   7.379   3.765
18091W        W79402  11.147   5.259   4.150
18092W        W79403  28.079   4.244  12.354
18093W        W79404   5.917   8.732   2.203
18094W        W79405  31.079  10.844  13.052
18095W        W79406  16.106  13.152  11.973
18096W        W79407  25.127   2.949  12.451
18097W        W79408  38.394  24.587   3.328
18098W        W79409  42.325  37.539  13.994
18099W        W79410  21.098   7.339   2.738
18100W        W79411  41.825   9.697  11.435
18101W        W79412  31.620  36.528   0.860
18102W        W79413  35.573  13.653   2.357
18103W        W79414  10.184   3.242  12.926
18104W        W79415  26.467   0.263  10.102
18105W        W79416  43.764  39.511  10.614
18106W        W79417  32.522  35.594  12.468
18107W        W79418  15.654   0.811  13.853
18108W        W79419   1.889  11.363   3.170
18109W        W79420  23.988  28.118  10.538
18110W        W79421  38.354  37.428  11.444
18111W        W79422  41.945  18.754  13.490
18112W        W79423  23.239   3.451  13.547
18113W        W79424  39.432  39.428   1.718
18114W        W79425  14.734   1.943   5.650
18115W        W79426  20.117  30.089   1.723
18116W        W79427  24.070  24.212  11.419
18117W        W79428  13.838  17.084  14.902
18118W        W79429   0.383  32.085  14.354
18119W        W79430  13.106  23.234  12.942
18120W        W79431   9.677  29.571  10.623
18121W        W79432  25.533  28.128  11.505
18122W        W79433  37.454  14.220  13.958
18123W        W79434  34.901  27.955   3.768
18124W        W79435  10.191  24.682  13.438
18125W        W79436  16.213   7.794  13.899
18126W        W79437   8.829   1.361  13.402
18127W        W79438   8.212  25.575  12.476
18128W        W79439  39.559  24.975   4.172
18129W        W79440  40.895  18.202  11.878
18130W        W79441  16.240  42.497   2.883
18131W        W79442  11.157  30.429  14.327
18132W        W79443   4.881  10.297  10.513
18133W        W79444  17.667  19.229  10.981
18134W        W79445  43.292  43.923  12.913
18135W        W79446  14.258  14.698  11.902
18136W        W79447  35.537   0.295  13.869
18137W        W79448  30.512  35.388  11.074
18138W        W79449  32.517  21.099   1.418
18139W        W79450   8.765   3.944  12.947
18140W        W79451  28.652  13.315   2.280
18141W        W79452  16.672   4.337   0.262
18142W        W79453  19.126   1.452  13.308
18143W        W79454  25.032  25.121  13.432
18144W        W79455  42.776   7.379  10.990
18145W        W79456  29.033  26.078  14.325
18146W        W79457   5.737  26.627   4.324
18147W        W79458  36.559  20.223  12.078
18148W        W79459  24.992  43.484   1.932
18149W        W79460  33.594  33.392   0.828
18150W        W79461  40.530  32.954  13.035
18151W        W79462  27.184  19.223  12.066
18152W        W79463  32.114  33.106   9.971
18153W        W79464  41.489  33.092   3.236
18154W        W79465  29.990  14.593  13.972
18155W        W79466  26.456  14.294   4.196
18156W        W79467   8.360  17.726   2.855
18157W        W79468   3.729  33.603   4.354
18158W        W79469  35.058  12.271   4.722
18159W        W79470  20.649  34.581   3.325
18160W        W79471  39.377  17.682  11.036
18161W        W79472   7.345  44.799  11.414
18162W        W79473  18.055  42.416   4.644
18163W        W79474  38.025  23.558  10.007
18164W        W79475  15.110  18.576   3.246
18165W        W79476  10.679  32.440  10.612
18166W        W79477   3.421  32.550  12.907
18167W        W79478  30.454  21.545  10.643
18168W        W79479  18.170   1.810   1.712
18169W        W79480  39.553  36.897  10.472
18170W        W79481   1.836   2.469  11.490
18171W        W79482   8.837  34.578   4.652
18172W        W79483  31.581  29.986  14.803
18173W        W79484  42.995  11.835  11.526
18174W        W79485  20.130   8.255   3.333
18175W        W79486  39.866  18.712   4.623
18176W        W79487  44.479   6.706  14.841
18177W        W79488  18.705  39.043  10.070
18178W        W79489  33.498  39.315  13.520
18179W        W79490   2.293  31.447   1.830
18180W        W79491  18.789   9.697   1.340
18181W        W79492  23.127  32.018   2.795
18182W        W79493   2.957  29.652   0.881
18183W        W79494  11.177  24.527  12.020
18184W        W79495  30.571  28.935   1.338
18185W        W79496   3.347  38.829  11.385
18186W        W79497  38.975  12.848  14.874
18187W        W79498  24.535   6.277  14.932
18188W        W79499  42.509   0.324  12.514
18189W        W79500   9.815   8.780   4.669
18190W        W79501  20.053  17.171   3.862
18191W        W79502  42.316  25.089  11.970
18192W        W79503  41.807  34.485   1.232
18193W        W79504   0.971  39.432   2.220
18194W        W79505   7.847  25.583  14.794
18195W        W79506  31.997   3.378   1.410
18196W        W79507   0.937   3.446   1.280
18197W        W79508   0.282  35.060   0.246
18198W        W79509   9.190  27.186   0.246
18199W        W79510   8.886  12.716  14.831
18200W        W79511   6.737  12.200  12.016
18201W        W79512  31.635  17.274  12.069
18202W        W79513  14.751  21.181   3.725
18203W        W79514   6.904  39.884   4.332
18204W        W79515  24.098  16.791  12.937
18205W        W79516  21.610   4.325   2.772
18206W        W79517  25.024  27.588   4.123
18207W        W79518  24.605   4.362   3.701
18208W        W79519  37.947  33.982   1.291
18209W        W79520  32.631  32.601  14.501
18210W        W79521   7.893  40.942   2.785
18211W        W79522  15.727  21.747   2.811
18212W        W79523  38.868  31.591   4.252
18213W        W79524  23.068   3.719  14.793
18214W        W79525  29.942   7.365   2.730
18215W        W79526  30.492  38.530   1.835
18216W        W79527   9.802  27.049  12.383
18217W        W79528   7.339  26.208  10.417
18218W        W79529  38.497   4.856   0.462
18219W        W79530  26.598  32.989  10.912
18220W        W79531  42.924  43.944  11.548
18221W        W79532  43.801  28.439  11.029
18222W        W79533   8.887  28.183   3.841
18223W        W79534  12.682   7.885  13.488
18224W        W79535  22.529  19.709  13.453
18225W        W79536  29.667  42.288  14.990
18226W        W79537  41.340  26.028  13.881
18227W        W79538  38.329  16.280  11.568
18228W        W79539  40.970  41.372  12.847
18229W        W79540  28.979  37.514  13.537
18230W        W79541  16.600  11.760   3.765
18231W        W79542   4.280  27.185   1.451
18232W        W79543  31.013  43.278  12.555
18233W        W79544  17.680   2.243  13.947
18234W        W79545   7.855  24.028  12.079
18235W        W79546  10.783  11.842  14.837
18236W        W79547  37.566  10.338   0.892
18237W        W79548  41.818  31.017   4.265
18238W        W79549   0.790  12.757   3.745
18239W        W79550  34.905  30.908  14.799
18240W        W79551  42.990  23.071   4.264
18241W        W79552  22.578   4.368   4.728
18242W        W79553  34.400  18.222  10.969
18243W        W79554  40.889  43.931   0.408
18244W        W79555   5.906  28.956   4.807
18245W        W79556   8.787   5.425   4.750
18246W        W79557  41.836  30.159   4.172
18247W        W79558  16.187  30.028  12.996
18248W        W79559  10.287  22.222  13.474
18249W        W79560  32.073  25.663  11.901
18250W        W79561  32.571  17.728  13.433
18251W        W79562  30.127  24.194  10.545
18252W        W79563  10.236  38.556  12.385
18253W        W79564   8.771   8.828  12.900
18254W        W79565  26.469  22.047   2.850
18255W        W79566  36.412  28.092   4.246
18256W        W79567   7.777   1.354  12.014
18257W        W79568  43.010  36.884   0.854
18258W        W79569   2.825  23.188  11.098
18259W        W79570  42.447   1.780  13.416
18260W        W79571  23.096  17.192   5.214
18261W        W79572  17.097   6.388   4.724
18262W        W79573   4.314  12.161  12.580
18263W        W79574   0.768  12.658   0.870
18264W        W79575  39.886  19.063  10.515
18265W        W79576  24.515  12.777   3.786
18266W        W79577  36.536   5.211   2.254
18267W        W79578  23.634  38.820  11.889
18268W        W79579  43.463  39.999  11.481
18269W        W79580  17.565   4.257  14.497
18270W        W79581  25.195  14.770   0.456
18271W        W79582  15.110  14.229  11.542
18272W        W79583  23.057  14.221  11.863
18273W        W79584   1.423  42.800   4.119
18274W        W79585  19.118  18.738  11.382
18275W        W79586  36.565  31.582  12.363
18276W        W79587   5.805   3.298   4.178
18277W        W79588  28.990  20.596  11.105
18278W        W79589  11.815  21.648   1.879
18279W        W79590  39.408  39.065   3.261
18280W        W79591   7.229  15.239  14.880
18281W        W79592  30.038  26.996   3.194
18282W        W79593   4.430  44.998  10.557
18283W        W79594  38.034   3.385  10.915
18284W        W79595  12.672  17.206   3.387
18285W        W79596   1.373  38.419   1.770
18286W        W79597  36.408  43.926   1.891
18287W        W79598  35.557  18.270  11.592
18288W        W79599  11.206  15.681   3.735
18289W        W79600   2.404  30.647  10.106
18290W        W79601  18.628  16.265  12.978
18291W        W79602  32.114   5.794   2.299
18292W        W79603  19.071  44.437   2.751
18293W        W79604  40.931  17.589   1.282
18294W        W79605  19.648  22.193  10.463
18295W        W79606  31.643   6.208  14.444
18296W        W79607  24.488   4.809   4.679
18297W        W79608  19.676  28.988  13.542
18298W        W79609  14.722  42.327   2.896
18299W        W79610  10.186   2.347   2.721
18300W        W79611  33.519  35.594  14.377
18301W        W79612  42.899  42.380   1.390
18302W        W79613  20.683   8.349  11.025
18303W        W79614  35.572  40.495   0.937
18304W        W79615  38.540  33.014  11.103
18305W        W79616  10.868  29.470  13.468
18306W        W79617  31.442  11.337   0.456
18307W        W79618  16.213  38.886  13.043
18308W        W79619  42.887  42.281   0.891
18309W        W79620   5.711   5.849  11.867
18310W        W79621  27.085  32.028  13.341
18311W        W79622  15.668  44.304  11.465
18312W        W79623  16.303  14.692  11.038
18313W        W79624  36.882  28.046   0.736
18314W        W79625  41.790   5.211   4.824
18315W        W79626  11.137  32.018  11.529
18316W        W79627  24.568  26.066  12.361
18317W        W79628   6.189  27.146  11.457
18318W        W79629   8.840  19.087  13.032
18319W        W79630  14.696   1.776   4.289
18320W        W79631  38.534   3.346  12.478
18321W        W79632  18.222   0.910  13.880
18322W        W79633  24.085  41.944   4.744
18323W        W79634  11.199  19.110   3.226
18324W        W79635  13.782  14.790   0.860
18325W        W79636  39.496  37.444   2.197
18326W        W79637  31.453   1.450   3.797
18327W        W79638  16.789  34.022  13.308
18328W        W79639  43.303  33.407   2.667
18329W        W79640  40.053  27.552  11.373
18330W        W79641  10.727  15.145   0.348
18331W        W79642  38.823  11.367   4.812
18332W        W79643  24.591  40.014   4.293
18333W        W79644  40.833  34.915  10.928
18334W        W79645  35.537  25.478   0.734
18335W        W79646   3.243  11.243  12.524
18336W        W79647  19.737  17.682   4.635
18337W        W79648  18.066   0.830  11.598
18338W        W79649  21.059  20.637  14.394
18339W        W79650  40.348  22.055   1.430
18340W        W79651  10.708  12.353  13.371
18341W        W79652   9.740  39.981   2.253
18342W        W79653  25.138  42.345   2.703
18343W        W79654  22.175  39.378   9.940
18344W        W79655  40.947  22.082   2.348
18345W        W79656  14.223   7.790   0.301
18346W        W79657  12.834  21.667   0.882
18347W        W79658  33.068  32.975   4.328
18348W        W79659  37.521  38.376  14.837
18349W        W79660  20.128  25.620  14.974
18350W        W79661   0.906  29.490   2.248
18351W        W79662  31.146   4.225  13.999
18352W        W79663  30.578  10.340  10.468
18353W        W79664   5.209   8.885   4.737
18354W        W79665  19.684  42.406  11.372
18355W        W79666  34.987  38.385  12.370
18356W        W79667  34.890  38.487  12.006
18357W        W79668  13.841  27.450  11.492
18358W        W79669   6.731  11.185  11.587
18359W        W79670  24.070  26.669   2.356
18360W        W79671  23.494   3.310   4.605
18361W        W79672  26.696  19.752   2.815
18362W        W79673   7.910  40.820  13.428
18363W        W79674  11.149  28.473  13.336
18364W        W79675  39.851  11.678   2.369
18365W        W79676   4.751  43.286   0.746
18366W        W79677  36.906  31.047  13.028
18367W        W79678  11.693  28.944   4.346
18368W        W79679  44.005  30.428   0.439
18369W        W79680  23.591   8.768  11.876
18370W        W79681   5.380  35.477   3.740
18371W        W79682  34.935   7.878  10.998
18372W        W79683  18.254  30.558  14.844
18373W        W79684  12.168  36.439   4.122
18374W        W79685  42.322  36.842   2.311
18375W        W79686  28.631  14.772  14.939
18376W        W79687   7.177  14.601   0.836
18377W        W79688  42.791  30.546  14.954
18378W        W79689  16.687  15.242  12.056
18379W        W79690   2.902  25.198  14.411
18380W        W79691   9.872   6.343   0.267
18381W        W79692  36.579   1.393   4.677
18382W        W79693  29.532  38.529  14.394
18383W        W79694  31.557   8.181  13.338
18384W        W79695  18.137  41.394   0.347
18385W        W79696  42.441  15.676   1.699
18386W        W79697  21.088  34.010   4.668
18387W        W79698   6.423   7.754  14.464
18388W        W79699  39.873  22.061   0.386
18389W        W79700  33.486  24.482   1.335
18390W        W79701  14.710   3.887   0.901
18391W        W79702  18.755  24.106   2.398
18392W        W79703   8.234  16.728  14.913
18393W        W79704  30.068  35.918   2.204
18394W        W79705  14.735   8.685  13.058
18395W        W79706  43.961   5.237  11.442
18396W        W79707  31.612  39.516   0.852
18397W        W79708  11.328  18.259   2.214
18398W        W79709  19.199  39.524  11.599
18399W        W79710  25.971   3.267   1.382
18400W        W79711  10.837  18.210  12.973
18401W        W79712  33.549   1.252   2.853
18402W        W79713  36.862  27.126   1.752
18403W        W79714  18.724   0.954  10.476
18404W        W79715  19.093   9.322  13.814
18405W        W79716   4.247  35.024  11.595
18406W        W79717  12.767  40.985  13.033
18407W        W79718  35.977   6.181   4.793
18408W        W79719   3.800   1.870  13.403
18409W        W79720  42.286  18.733   3.332
18410W        W79721   2.237   5.336  13.364
18411W        W79722  23.100   8.703  12.072
18412W        W79723  40.406  42.353  12.533
18413W        W79724   1.264  41.867   1.343
18414W        W79725  25.696   2.435   3.356
18415W        W79726   0.383  16.810   0.732
18416W        W79727  25.614  11.708  11.394
18417W        W79728  13.251  25.172  14.393
18418W        W79729  18.730  32.002  13.953
18419W        W79730  38.436  20.595  14.293
18420W        W79731  43.490   0.976   3.195
18421W        W79732   2.873  12.733   3.161
18422W        W79733  32.076   2.729  11.946
18423W        W79734  15.191  27.605   4.664
18424W        W79735  21.638  34.386   5.170
18425W        W79736  31.489  40.484  13.899
18426W        W79737  12.842  17.763  12.064
18427W        W79738  41.028   0.882   2.190
18428W        W79739  34.881  17.289  14.997
18429W        W79740  15.302  26.052   3.152
18430W        W79741  10.156  41.810   1.731
18431W        W79742  27.512  28.680   1.359
18432W        W79743   3.381  32.907  11.534
18433W        W79744   8.808  25.066   1.766
18434W        W79745   4.803  43.322  12.491
18435W        W79746   7.716   4.362  11.530
18436W        W79747  27.120  42.437   2.382
18437W        W79748  11.822   7.771   0.261
18438W        W79749  40.434  14.112  10.577
18439W        W79750  16.806  19.165   4.833
18440W        W79751  43.788  22.104   0.273
18441W        W79752  15.209  41.489   3.205
18442W        W79753  41.503  26.204   0.470
18443W        W79754  41.959  40.384   4.321
18444W        W79755  43.021  31.547  14.360
18445W        W79756  28.672  20.138  14.815
18446W        W79757  22.250  39.026   3.705
18447W        W79758  37.010  34.594   3.686
18448W        W79759  43.875  32.057   0.324
18449W        W79760  25.098  16.638   2.846
18450W        W79761  42.783  44.477   3.250
18451W        W79762  37.000  22.718   0.736
18452W        W79763  40.308   2.377   0.876
18453W        W79764  34.539   3.913   2.293
18454W        W79765  30.996  31.500  12.944
18455W        W79766  23.054  11.255   2.293
18456W        W79767  35.978  37.355   4.113
18457W        W79768   5.393   0.469  12.441
18458W        W79769  29.608  29.470   3.366
18459W        W79770   3.930  16.651  10.593
18460W        W79771  29.085  35.580  12.484
18461W        W79772  42.394  39.501  12.947
18462W        W79773  19.757  41.372   0.325
18463W        W79774  30.627   6.404  12.512
18464W        W79775  30.548  19.248  13.850
18465W        W79776  18.231   1.263  11.441
18466W        W79777  26.992  35.099   4.681
18467W        W79778  17.566  29.096   4.832
18468W        W79779  40.912  13.781   4.165
18469W        W79780  39.556  24.128  10.493
18470W        W79781  23.621  21.662   4.744
18471W        W79782   2.264   1.248   3.633
18472W        W79783  31.588   5.816  14.918
18473W        W79784  28.959   6.415   1.900
18474W        W79785  24.063   8.743  10.892
18475W        W79786  32.500  22.654  14.831
18476W        W79787  16.708  22.222  14.487
18477W        W79788  10.752  40.054   1.892
18478W        W79789  43.878  15.780   1.306
18479W        W79790  22.613  32.448  11.992
18480W        W79791  16.204  42.825  13.497
18481W        W79792  36.424  31.636   3.270
18482W        W79793  20.549  26.538  12.898
18483W        W79794  11.819  41.480   3.353
18484W        W79795  25.000  20.768  10.574
18485W        W79796  16.711  37.528   2.809
18486W        W79797  26.496   7.257   2.885
18487W        W79798  18.549  18.197   5.130
18488W        W79799  24.598   6.240   1.879
18489W        W79800  44.475  37.916  13.450
18490W        W79801  26.607  10.353  12.528
18491W        W79802  23.684  12.177  14.416
18492W        W79803  29.487   5.272   0.307
18493W        W79804  18.191  37.892   0.299
18494W        W79805  23.493  11.365   0.799
18495W        W79806   9.738  11.866  14.940
18496W        W79807   6.742  26.498  12.340
18497W        W79808  24.167  35.983  13.326
18498W        W79809  24.531  17.710   4.253
18499W        W79810  39.385  19.636   1.876
18500W        W79811   1.920   4.284   3.805
18501W        W79812  34.468   6.845   4.260
18502W        W79813  44.890  18.169  10.970
18503W        W79814  22.611   4.788   5.152
18504W        W79815  14.300   9.749   3.840
18505W        W79816  17.573  12.839   1.242
18506W        W79817  31.973  40.404  13.442
18507W        W79818  36.047  36.347   2.766
18508W        W79819  44.420  12.125  13.511
18509W        W79820   8.343  37.980  13.989
18510W        W79821  21.019  43.371   3.166
18511W        W79822  11.218  21.124  10.437
18512W        W79823  32.615  43.322   1.781
18513W        W79824  42.972  37.058  12.873
18514W        W79825  17.234  38.328  11.506
18515W        W79826  41.806  34.524   3.294
18516W        W79827  39.026  41.538   0.796
18517W        W79828  31.623  11.817   4.228
18518W        W79829  44.436   9.753   2.322
18519W        W79830   3.307  32.041   4.702
18520W        W79831   4.391  18.686   1.915
18521W        W79832   9.777   3.392  11.487
18522W        W79833   8.747  40.497   0.269
18523W        W79834  12.319  39.849   4.194
18524W        W79835  40.331  20.742   3.803
18525W        W79836  37.549   0.494   4.745
18526W        W79837  43.818  28.062  11.970
18527W        W79838  21.677   8.792  10.959
18528W        W79839  21.055   5.293  10.987
18529W        W79840  36.907  18.279   0.333
18530W        W79841   4.905   6.802  13.800
18531W        W79842   6.912  31.610   0.401
18532W        W79843  16.573  44.421   2.896
18533W        W79844   1.257   5.722   3.158
18534W        W79845  37.895  29.022  14.328
18535W        W79846  34.969  25.986   4.157
18536W        W79847  16.168   3.325   0.433
18537W        W79848  34.417  40.375   0.316
18538W        W79849  36.001   4.342   1.712
18539W        W79850  35.395  10.356  11.001
18540W        W79851  37.894   4.315   3.338
18541W        W79852  28.126  42.032  10.448
18542W        W79853  43.953  43.015  10.484
18543W        W79854  13.738  26.501   2.415
18544W        W79855  24.532   7.202  13.421
18545W        W79856  13.840   3.776  13.431
18546W        W79857  18.087  36.897   0.450
18547W        W79858  20.250  22.667   0.874
18548W        W79859  36.992  37.085  11.507
18549W        W79860  39.538   4.375  12.864
18550W        W79861   1.254   1.843   0.335
18551W        W79862  15.729  41.492   3.714
18552W        W79863   3.350   5.372  12.498
18553W        W79864  21.684  34.889   3.319
18554W        W79865  20.657  16.669  10.084
18555W        W79866  20.587  20.727  13.829
18556W        W79867  13.768   9.756  11.047
18557W        W79868  26.962   8.896   1.369
18558W        W79869  35.588  38.464   0.320
18559W        W79870   7.267  16.284  13.023
18560W        W79871  44.981   5.202  11.051
18561W        W79872  12.697  31.497   4.335
18562W        W79873  13.137   0.799   1.432
18563W        W79874   6.241  14.646   3.849
18564W        W79875   5.693   7.255  11.982
18565W        W79876  20.057  19.739  11.111
18566W        W79877  41.432  31.010  10.914
18567W        W79878  29.572  10.189   1.747
18568W        W79879  17.559   7.733   3.214
18569W        W79880  27.072   0.442   4.742
18570W        W79881  42.871  26.639   2.811
18571W        W79882   2.912  20.724   1.346
18572W        W79883   5.317  38.983  13.343
18573W        W79884  34.964   7.724   4.232
18574W        W79885  19.687   6.300   0.964
18575W        W79886  27.139  14.589   2.721
18576W        W79887  32.120  32.500  13.355
18577W        W79888   7.268  10.355   2.673
18578W        W79889  15.122  31.981  13.488
18579W        W79890   5.842  42.471   0.863
18580W        W79891  42.354  14.660   1.784
18581W        W79892   5.427  43.890   2.745
18582W        W79893  38.925  28.586   1.931
18583W        W79894  30.945  12.772   2.361
18584W        W79895  27.471  14.750   2.319
18585W        W79896   7.743  10.849  10.963
18586W        W79897  33.058  17.195   0.312
18587W        W79898   8.760  41.316  13.892
18588W        W79899   2.782  40.382  10.418
18589W        W79900   0.423  29.144   2.375
18590W        W79901  29.450  34.083   4.705
18591W        W79902  29.648  25.975  15.000
18592W        W79903  35.074  23.498   9.957
18593W        W79904  36.385  31.021   3.316
18594W        W79905  34.522   2.463  14.962
18595W        W79906  37.004   6.419   1.400
18596W        W79907  30.978   1.811  14.930
18597W        W79908  10.696   4.263  13.828
18598W        W79909  28.603  40.923  12.532
18599W        W79910  21.158  35.105  10.559
18600W        W79911  26.192  11.322   1.322
18601W        W79912  34.512  21.113   1.247
18602W        W79913   0.425   3.318   4.219
18603W        W79914   0.772  42.003   4.247
18604W        W79915  10.237  31.634  10.587
18605W        W79916   0.321  21.701  10.513
18606W        W79917   4.317  19.242  11.020
18607W        W79918   2.416  22.685  10.577
18608W        W79919  34.947  11.702   1.922
18609W        W79920  33.554  41.488  11.906
18610W        W79921  12.795   9.185   3.691
18611W        W79922  10.753  23.610   4.132
18612W        W79923  15.118   7.205  14.766
18613W        W79924  40.882  33.037  14.472
18614W        W79925  12.735  39.353   2.897
18615W        W79926   0.273   7.378   2.299
18616W        W79927  14.764  21.034  14.908
18617W        W79928  40.351  16.631   9.930
18618W        W79929  19.092  12.131   2.405
18619W        W79930  14.121   3.766   2.698
18620W        W79931   5.723  40.005  14.886
18621W        W79932   3.746   0.266   0.914
18622W        W79933  38.056  42.833  13.509
18623W        W79934   4.898  43.484  10.123
18624W        W79935  41.884  36.943   1.895
18625W        W79936  18.234  16.316   2.254
18626W        W79937  27.487  35.593  12.343
18627W        W79938  17.298  15.197  14.308
18628W        W79939   0.430   5.274   4.715
18629W        W79940  37.022  23.239  14.365
18630W        W79941  26.082  39.558   0.762
18631W        W79942  13.325  38.405  14.759
18632W        W79943  19.727  25.566   0.456
18633W        W79944  22.615  26.557  12.524
18634W        W79945   6.680  41.468   3.381
18635W        W79946  12.746  13.292   1.310
18636W        W79947  21.198  17.613  13.414
18637W        W79948  13.304  21.242  11.515
18638W        W79949  12.362  10.270  13.378
18639W        W79950  22.647  36.877  10.945
18640W        W79951  36.510  43.774  12.007
18641W        W79952   7.691  32.443   1.704
18642W        W79953  23.203  16.134  14.000
18643W        W79954  16.257  34.402  10.497
18644W        W79955  25.086  15.145   4.164
18645W        W79956   4.926   7.741  10.409
18646W        W79957  40.505  33.401   5.135
18647W        W79958  41.364  33.612  10.934
18648W        W79959   8.763   8.882  14.452
18649W        W79960   1.732  41.973  11.998
18650W        W79961  44.273   1.384  13.029
18651W        W79962   9.266  41.811  10.489
18652W        W79963  26.570   5.725   2.367
18653W        W79964  30.004   8.665   2.730
18654W        W79965  35.043   2.309  13.894
18655W        W79966  21.680  41.866  10.536
18656W        W79967  19.150   2.249  14.812
18657W        W79968  12.737  10.860   2.837
18658W        W79969   8.901   9.789   4.654
18659W        W79970  20.556  11.865  13.002
18660W        W79971  36.096  21.076   1.215
18661W        W79972   7.896  36.367  12.381
18662W        W79973  39.826  31.988   0.258
18663W        W79974  22.613  44.009  14.437
18664W        W79975  42.438  35.363  13.902
18665W        W79976   5.734  14.812   9.606
18666W        W79977  19.039  20.142  14.857
18667W        W79978   8.871   6.409  12.360
18668W        W79979  42.491  31.019  12.436
18669W        W79980  15.706   9.728   2.783
18670W        W79981   2.868  35.876   1.290
18671W        W79982  16.581   6.387   3.231
18672W        W79983  18.720  43.894  14.768
18673W        W79984  41.898  30.024  12.852
18674W        W79985   8.743  23.079   2.198
18675W        W79986   4.880  36.506  14.474
18676W        W79987  35.001  41.812   3.813
18677W        W79988   2.775  33.968   2.733
18678W        W79989  29.457   5.272  13.838
18679W        W79990  13.166   3.887   2.355
18680W        W79991  36.356  17.603  13.400
18681W        W79992   3.300  22.522  14.328
18682W        W79993   3.811  29.667   3.170
18683W        W79994   3.814  35.872   2.388
18684W        W79995  26.624  21.668  12.522
18685W        W79996  10.830  42.496   3.220
18686W        W79997  40.329  23.064  10.613
18687W        W79998  12.658  19.113  10.912
18688W        W79999  44.892   9.823   2.303
18689W        W80000  34.545   8.720  11.489
18690W        W80001  28.010  42.960  10.599
18691W        W80002  28.447  32.126   5.155
18692W        W80003  39.933  40.492   4.270
18693W        W80004  29.631  25.205  12.872
18694W        W80005  44.495  36.845   0.246
18695W        W80006  16.662  18.289  11.041
18696W        W80007  17.264  25.632  10.447
18697W        W80008  30.625  15.155  11.527
18698W        W80009  34.957  11.641   3.246
18699W        W80010  34.076  15.097  12.339
18700W        W80011  35.043  40.953  12.889
18701W        W80012  28.575  23.657  11.023
18702W        W80013  33.093  28.474   1.220
18703W        W80014  43.279  23.102  14.292
18704W        W80015  12.116  20.099  11.411
18705W        W80016   5.755   6.327   3.860
18706W        W80017  34.038  14.609  11.440
18707W        W80018  12.631  43.366  12.546
18708W        W80019  22.566  39.527  10.504
18709W        W80020  27.952   5.269  12.034
18710W        W80021  29.021   6.853   5.117
18711W        W80022  39.544  27.973  11.121
18712W        W80023  32.911  32.142   1.865
18713W        W80024  38.009   3.946  11.547
18714W        W80025  38.820  34.100  11.875
18715W        W80026  11.652  37.445   1.371
18716W        W80027  34.063  27.954  10.979
18717W        W80028  14.154   2.232   3.700
18718W        W80029  31.646   5.856  13.970
18719W        W80030  22.186  17.292   2.220
18720W        W80031  17.799  27.064  13.392
18721W        W80032  40.461   2.289  13.526
18722W        W80033   9.292  42.870   2.266
18723W        W80034   6.284  24.485   0.790
18724W        W80035   4.711  19.195  10.982
18725W        W80036  21.177  36.006   5.145
18726W        W80037  25.994  26.693  14.290
18727W        W80038  25.485  29.082  14.815
18728W        W80039  36.977  13.221   2.202
18729W        W80040  17.221  39.971   0.351
18730W        W80041   5.757  39.537   2.306
18731W        W80042  19.658  39.556  12.432
18732W        W80043   8.670  11.332  13.062
18733W        W80044  29.130  31.431   4.314
18734W        W80045  27.661  41.925   4.836
18735W        W80046  32.011  13.277  11.035
18736W        W80047   5.933  28.968  14.803
18737W        W80048  12.298  37.953  14.824
18738W        W80049  24.035  33.419  12.557
18739W        W80050   1.867   8.212  13.483
18740W        W80051  43.294  34.875   0.361
18741W        W80052  29.608   4.778   2.727
18742W        W80053   1.354  17.560   4.226
18743W        W80054   6.873  22.191  12.466
18744W        W80055  43.921   3.371   0.281
18745W        W80056   4.355   2.378   4.315
18746W        W80057  37.521  14.271   4.632
18747W        W80058  42.784  31.995   2.818
18748W        W80059   9.800   6.825  14.851
18749W        W80060  31.619  30.556  12.445
18750W        W80061  25.102  38.004   0.919
18751W        W80062  37.344  38.500  12.892
18752W        W80063   4.821  33.532   5.120
18753W        W80064   5.822  37.425  11.446
18754W        W80065  38.526  44.298   2.761
18755W        W80066   5.865  38.856   4.636
18756W        W80067   4.766   3.915   3.787
18757W        W80068  18.555   3.308  11.982
18758W        W80069   1.265   7.376  11.440
18759W        W80070  25.706  15.231  13.934
18760W        W80071  40.024  39.019   1.784
18761W        W80072  37.831  17.150   0.275
18762W        W80073  12.361  32.392  13.827
18763W        W80074  42.522  22.235   4.278
18764W        W80075  38.034  25.175  14.414
18765W        W80076  40.797   0.936   0.277
18766W        W80077  12.316  29.558   4.676
18767W        W80078   5.792  39.050  11.590
18768W        W80079  36.970  20.676   0.258
18769W        W80080  40.367  16.286  10.982
18770W        W80081   8.231   7.290  11.446
18771W        W80082  13.807  43.875   4.819
18772W        W80083  11.221  23.151   1.840
18773W        W80084  32.408  12.774   3.226
18774W        W80085  10.279   7.878   2.336
18775W        W80086  21.055  12.774   3.175
18776W        W80087  19.256  20.173  12.842
18777W        W80088  41.418  39.828   3.167
18778W        W80089  30.611  22.070   3.748
18779W        W80090   1.769  16.797  14.946
18780W        W80091   5.833  26.686  12.975
18781W        W80092   9.320  18.158   2.692
18782W        W80093  40.392  35.432   0.373
18783W        W80094  33.969  32.422  14.459
18784W        W80095  20.574  21.616  14.797
18785W        W80096  37.982  22.163   4.643
18786W        W80097  18.277  31.109   0.294
18787W        W80098  11.639   3.337   3.819
18788W        W80099  14.340  31.561  14.487
18789W        W80100  21.074  17.167  11.103
18790W        W80101  15.102  14.798  12.025
18791W        W80102  30.971   8.739   3.148
18792W        W80103  42.784  23.563   4.741
18793W        W80104  16.746  35.488   2.267
18794W        W80105  42.519   0.371  11.482
18795W        W80106  11.710   9.265   0.351
18796W        W80107  29.927  31.059  11.912
18797W        W80108   6.362   5.724   2.809
18798W        W80109   4.250  30.980   2.808
18799W        W80110  32.563   5.260  11.032
18800W        W80111  13.721  10.673   2.743
18801W        W80112  32.936  43.457   3.160
18802W        W80113   2.239  29.946  11.916
18803W        W80114  27.035  28.023  12.954
18804W        W80115  40.418  22.730  13.030
18805W        W80116  37.406  29.128  13.486
18806W        W80117  44.382  41.435   9.996
18807W        W80118  37.404   7.336  10.062
18808W        W80119  43.775  29.919   4.833
18809W        W80120   1.887  10.697   1.441
18810W        W80121  43.905  31.628   1.290
18811W        W80122  39.501  27.021   1.413
18812W        W80123  44.412   3.339  12.018
18813W        W80124  18.263  25.510   5.314
18814W        W80125  17.086   2.874  11.866
18815W        W80126  30.606  29.638   4.180
18816W        W80127  41.008  25.580  11.971
18817W        W80128  28.574  34.969  14.899
18818W        W80129  41.938  44.877   1.257
18819W        W80130   6.237  16.591  12.846
18820W        W80131   8.220  32.613   4.665
18821W        W80132  16.673   3.270   4.242
18822W        W80133  43.939  13.226   4.686
18823W        W80134  17.135  43.824  13.403
18824W        W80135  33.612  41.980   0.446
18825W        W80136  40.442  28.138   3.305
18826W        W80137  29.476  23.581  14.481
18827W        W80138  33.100  37.020   4.810
18828W        W80139  27.635   2.955   1.785
18829W        W80140  44.008  37.360  11.447
18830W        W80141   2.430  20.197  14.836
18831W        W80142  12.183  13.740  11.985
18832W        W80143   3.915  19.626  11.522
18833W        W80144  34.110  16.781  11.067
18834W        W80145  15.084  22.508   2.746
18835W        W80146  38.433  17.124   0.832
18836W        W80147  13.150  41.020   1.363
18837W        W80148  37.461  19.671   0.761
18838W        W80149  15.590  13.671  13.397
18839W        W80150  25.967  10.681  11.082
18840W        W80151   3.859   9.180   1.402
18841W        W80152   8.801  37.479  12.567
18842W        W80153  11.830  34.424   3.223
18843W        W80154  26.656  42.843  11.484
18844W        W80155  24.133  25.474   4.743
18845W        W80156   0.299  31.041   0.363
18846W        W80157  18.178  28.518   0.917
18847W        W80158  24.599  26.631   0.243
18848W        W80159  25.040  36.889   0.744
18849W        W80160  40.537  35.576   3.158
18850W        W80161   7.711  43.971   0.382
18851W        W80162  20.189   8.360  10.419
18852W        W80163  29.165  36.862  14.982
18853W        W80164   2.822  28.650  10.643
18854W        W80165  31.534   7.859   3.656
18855W        W80166   4.399  38.446  12.546
18856W        W80167  39.431  24.652   3.282
18857W        W80168  11.190  36.497  10.934
18858W        W80169  37.831  41.996  13.353
18859W        W80170   8.811  28.680   1.844
18860W        W80171  32.905  31.923   4.614
18861W        W80172   1.783  37.545   0.340
18862W        W80173  15.735  36.535   2.872
18863W        W80174  29.653   0.399   0.248
18864W        W80175  10.877   6.754   1.253
18865W        W80176  10.334  22.248   3.293
18866W        W80177  10.706  23.019  13.023
18867W        W80178  40.944  32.470   4.241
18868W        W80179   5.928  41.856   1.329
18869W        W80180  23.579  12.166   1.292
18870W        W80181   4.761  43.894   2.237
18871W        W80182   9.714  23.661   3.161
18872W        W80183  21.515  38.845  13.456
18873W        W80184  33.525   3.314   1.320
18874W        W80185  44.269  23.687   1.268
18875W        W80186  37.357   3.432   2.332
18876W        W80187  44.265  35.913   1.420
18877W        W80188  17.636  37.582   2.856
18878W        W80189   7.276  33.882  14.338
18879W        W80190  18.226  22.706  10.907
18880W        W80191   8.812  44.987   3.811
18881W        W80192  16.121  30.617  10.894
18882W        W80193  33.965  20.682  13.053
18883W        W80194  38.975   4.802  13.536
18884W        W80195   7.295  34.021   1.893
18885W        W80196   6.333  29.995   1.904
18886W        W80197  38.062   5.337  13.852
18887W        W80198  33.044  20.185   4.273
18888W        W80199   3.775   0.251  10.542
18889W        W80200  40.941  43.798  11.934
18890W        W80201  18.208   5.849   0.882
18891W        W80202  36.474  21.231  11.124
18892W        W80203  44.894  34.568   0.362
18893W        W80204  39.817  33.390  11.910
18894W        W80205  28.944  35.984  11.086
18895W        W80206  37.355  33.448   3.346
18896W        W80207   6.215   2.857   1.422
18897W        W80208  17.779  43.446   4.211
18898W        W80209  22.064  16.190   0.735
18899W        W80210  19.571  40.476   1.238
18900W        W80211  36.491  42.383  13.401
18901W        W80212   6.185  14.755   3.358
18902W        W80213   7.348   3.297   3.149
18903W        W80214  23.124  19.136  13.341
18904W        W80215  35.041  38.386   1.713
18905W        W80216  39.995  43.827   4.713
18906W        W80217   4.896   8.755  14.433
18907W        W80218  36.002  22.662   4.779
18908W        W80219  37.989  21.082   2.749
18909W        W80220   4.290  28.093   0.941
18910W        W80221  18.058  22.171   1.768
18911W        W80222  13.803  24.482   0.343
18912W        W80223  18.636  27.613   0.940
18913W        W80224  24.594   3.928   4.160
18914W        W80225   6.767  13.314  13.033
18915W        W80226   5.805  30.587   2.308
18916W        W80227  15.779  40.500  11.011
18917W        W80228  34.956  32.397   2.788
18918W        W80229  22.226  25.087   4.212
18919W        W80230  22.194   0.316  14.854
18920W        W80231  25.490   5.871  13.946
18921W        W80232   1.390  19.602  11.053
18922W        W80233  10.147  26.010  10.638
18923W        W80234   7.859  39.520   0.361
18924W        W80235  28.484   0.861  11.936
18925W        W80236  13.727  44.328   1.770
18926W        W80237  10.349  35.058  13.870
18927W        W80238   6.831  44.914   1.297
18928W        W80239   0.385  32.429  11.505
18929W        W80240  18.659  16.126   3.301
18930W        W80241  32.023  13.156  14.458
18931W        W80242   4.231   2.452  10.574
18932W        W80243   9.648   6.233   1.932
18933W        W80244  44.427  38.870  12.958
18934W        W80245  23.581  12.730   3.754
18935W        W80246  26.205   4.407   4.219
18936W        W80247  17.130   6.879   3.306
18937W        W80248  35.940   3.222  13.434
18938W        W80249  19.208  28.484   1.440
18939W        W80250  28.512  19.113  14.485
18940W        W80251  39.322  20.703   4.238
18941W        W80252   6.376   6.880  10.965
18942W        W80253   9.347   7.845  13.991
18943W        W80254   6.725   8.811   3.165
18944W        W80255   4.243  23.158   1.397
18945W        W80256  35.059  30.448   3.843
18946W        W80257  40.362  39.413   1.736
18947W        W80258  35.588  24.544   4.161
18948W        W80259  39.492  10.222   4.223
18949W        W80260  18.599  17.612   2.361
18950W        W80261  27.181  18.592   1.731
18951W        W80262  39.380  13.715  13.879
18952W        W80263  16.100  23.703  10.439
18953W        W80264  28.437  17.244   2.874
18954W        W80265  10.172  26.142  12.950
18955W        W80266  29.506  12.851   0.872
18956W        W80267  26.635   7.858  11.399
18957W        W80268  13.270   1.319  10.562
18958W        W80269  30.907   1.784  14.411
18959W        W80270   1.871  38.525  14.766
18960W        W80271   4.385  12.849  13.477
18961W        W80272  36.440  31.950   3.631
18962W        W80273   3.391  36.000   1.402
18963W        W80274  36.009  33.595   1.799
18964W        W80275  37.349  42.346  14.881
18965W        W80276  38.485  23.723   0.861
18966W        W80277  15.664  11.670  12.910
18967W        W80278  22.668  31.974  14.967
18968W        W80279  22.097  12.638  12.837
18969W        W80280  36.004  20.178   1.929
18970W        W80281   4.729  10.287  12.519
18971W        W80282  22.207  32.119   4.230
18972W        W80283  41.915  13.190  12.878
18973W        W80284  19.207  17.226   4.221
18974W        W80285   3.927   3.334  13.861
18975W        W80286   9.759   2.879   1.700
18976W        W80287  29.625  31.548   1.221
18977W        W80288  15.801  27.127   2.829
18978W        W80289   0.802  43.399   0.817
18979W        W80290  23.127  40.047  10.117
18980W        W80291  15.303  41.879  11.478
18981W        W80292   3.709  12.710  12.491
18982W        W80293  22.070  30.531   2.297
18983W        W80294  44.364  44.440   2.700
18984W        W80295  19.099  36.855   2.216
18985W        W80296  28.614  10.366   0.759
18986W        W80297  19.177  12.718   0.472
18987W        W80298  32.027  32.022  13.019
18988W        W80299   1.366  11.217  13.476
18989W        W80300   2.338  16.311   1.386
18990W        W80301  32.522  32.976  13.909
18991W        W80302  33.022  28.613  12.490
18992W        W80303  21.575  40.353   1.359
18993W        W80304  27.561   6.287   3.324
18994W        W80305  28.572  28.124   0.924
18995W        W80306   4.787  31.034   3.763
18996W        W80307  30.080  13.260  13.331
18997W        W80308   1.910  27.002  12.088
18998W        W80309  28.962  22.563  13.845
18999W        W80310  40.906  37.398  14.357
19000W        W80311   6.205  29.164   0.342
19001W        W80312  22.669   6.798   1.304
19002W        W80313  17.063  35.568   0.286
19003W        W80314  29.603  15.635   5.161
19004W        W80315  41.822   8.161   3.857
19005W        W80316  17.222  44.271  14.420
19006W        W80317  12.857   4.318   0.243
19007W        W80318  44.789  14.226   2.744
19008W        W80319  18.777  33.888   2.341
19009W        W80320  25.469   0.773   3.686
19010W        W80321   5.755  42.835   1.824
19011W        W80322  34.483  14.656   3.298
19012W        W80323  43.943   6.389   0.752
19013W        W80324  18.268  26.067   3.320
19014W        W80325  11.222  37.544   1.381
19015W        W80326  43.791  24.187   1.808
19016W        W80327  29.064  38.061  13.021
19017W        W80328  32.061  32.441  14.290
19018W        W80329  39.457   2.760   3.801
19019W        W80330  31.401  21.672   3.301
19020W        W80331  12.817   6.848  10.006
19021W        W80332  44.859  34.371   2.782
19022W        W80333  40.423  15.634  12.952
19023W        W80334  24.149  13.701   1.265
19024W        W80335  33.090  41.812   0.282
19025W        W80336  16.201  25.468  12.070
19026W        W80337   1.360  40.318  13.426
19027W        W80338  12.293   9.696   0.289
19028W        W80339  39.557  25.017   2.849
19029W        W80340  13.695  42.490  12.859
19030W        W80341  42.373   0.477  13.468
19031W        W80342  13.173  37.443  14.896
19032W        W80343  38.924  14.731  11.938
19033W        W80344  20.185  35.585  12.904
19034W        W80345  30.646  30.986   3.284
19035W        W80346  20.711  39.518   0.819
19036W        W80347  20.639  33.078  12.395
19037W        W80348  43.938  14.158  12.347
19038W        W80349  32.566   3.926  12.453
19039W        W80350  33.002  41.896   2.366
19040W        W80351  35.959  44.917   0.818
19041W        W80352  42.414   6.860  11.008
19042W        W80353  30.603  23.599  10.481
19043W        W80354  41.411  33.985  11.067
19044W        W80355  24.657  43.377  13.798
19045W        W80356   5.406  13.240  14.382
19046W        W80357   4.418  24.652  14.760
19047W        W80358  17.765  24.589   5.591
19048W        W80359  28.005  10.706   3.262
19049W        W80360  32.454   5.812  13.482
19050W        W80361  39.894  23.583   0.424
19051W        W80362  17.587  37.992  10.954
19052W        W80363  11.823  33.965  11.020
19053W        W80364  22.193  34.496   2.282
19054W        W80365  33.555   4.313  12.373
19055W        W80366  31.639  11.728   2.360
19056W        W80367  18.606  17.156  13.994
19057W        W80368  25.711   3.388   9.952
19058W        W80369   2.452  13.716  13.018
19059W        W80370  39.361  28.589  13.026
19060W        W80371  11.636  33.403   4.636
19061W        W80372   5.833   2.358  11.398
19062W        W80373  14.155   4.259   0.895
19063W        W80374   8.719  24.986   3.264
19064W        W80375  11.682  18.072   4.623
19065W        W80376  30.422   2.243  14.334
19066W        W80377  35.971  33.476  13.901
19067W        W80378  26.183  37.005  10.502
19068W        W80379  37.992   9.323  12.997
19069W        W80380   4.878   9.888   2.297
19070W        W80381  18.208   6.841   1.417
19071W        W80382  29.464   6.387   2.757
19072W        W80383  30.027  36.550  11.432
19073W        W80384  12.664   5.720   1.700
19074W        W80385  31.133  13.241   2.223
19075W        W80386  38.345  29.581  13.548
19076W        W80387  34.114  28.577  12.439
19077W        W80388  19.251  33.960   4.801
19078W        W80389  29.974  25.484  11.537
19079W        W80390  44.361  42.434   4.675
19080W        W80391  35.874  35.028   0.364
19081W        W80392  40.449  17.624  10.448
19082W        W80393  33.574  34.880  10.420
19083W        W80394  38.824  43.910   4.634
19084W        W80395  23.585  40.907  14.500
19085W        W80396  37.848  26.612  14.025
19086W        W80397  34.879  31.011  12.895
19087W        W80398   7.311  11.203  12.072
19088W        W80399  40.912  43.898   4.821
19089W        W80400  13.350  30.108   4.814
19090W        W80401  11.720   6.419  10.147
19091W        W80402  35.016  27.083   3.681
19092W        W80403  17.262  25.646   3.310
19093W        W80404   8.712  28.512  11.085
19094W        W80405  39.015  13.199   4.619
19095W        W80406  36.479  28.520   1.363
19096W        W80407  15.696   6.295   1.743
19097W        W80408   1.446  31.921   4.319
19098W        W80409  10.147   4.264  10.104
19099W        W80410   6.349  32.474  14.784
19100W        W80411  40.467  14.132  13.920
19101W        W80412  40.445  36.347   4.695
19102W        W80413  24.719  11.698   3.844
19103W        W80414  40.908  38.472  13.534
19104W        W80415  25.985  22.665  13.395
19105W        W80416  11.793  23.606   9.989
19106W        W80417  19.725  22.084   4.639
19107W        W80418  16.756  39.965  13.969
19108W        W80419  10.759  12.206   0.860
19109W        W80420  25.036  11.282  13.872
19110W        W80421  35.987  10.659  10.452
19111W        W80422  23.657  29.453   0.272
19112W        W80423  29.012  22.686   4.267
19113W        W80424  40.910  27.013  14.423
19114W        W80425  11.813   3.317  11.999
19115W        W80426  31.516  39.354  14.909
19116W        W80427  33.131  24.109  10.956
19117W        W80428  27.966   7.796  11.934
19118W        W80429  42.451  19.652  13.816
19119W        W80430   0.848  23.029   3.703
19120W        W80431   9.822  34.613   4.242
19121W        W80432  38.923   4.859   3.238
19122W        W80433  14.249   9.862  11.376
19123W        W80434  14.765  25.477  12.513
19124W        W80435  18.752  22.189  13.332
19125W        W80436  33.528  11.305   2.676
19126W        W80437  43.313   0.755   2.296
19127W        W80438  40.868  11.629  12.823
19128W        W80439  23.560   7.385   1.704
19129W        W80440  21.141  41.841  12.873
19130W        W80441  41.899   8.228   2.342
19131W        W80442  21.040   6.422  11.902
19132W        W80443  11.360  40.376  10.974
19133W        W80444  24.990  26.009  14.316
19134W        W80445  21.574  19.210   0.727
19135W        W80446  29.603  44.989   4.772
19136W        W80447  20.746   5.810  13.028
19137W        W80448  22.006   1.446   1.313
19138W        W80449  13.802   0.266   0.437
19139W        W80450  26.064  17.591  11.081
19140W        W80451  21.733  39.839  10.567
19141W        W80452   7.895  25.991  10.444
19142W        W80453  17.792   3.397   2.220
19143W        W80454   0.852  30.548   3.161
19144W        W80455  41.502   1.756  14.302
19145W        W80456  10.262  30.559  12.474
19146W        W80457  13.670  11.761  12.936
19147W        W80458  37.000   1.963  11.095
19148W        W80459   9.169  24.003  12.547
19149W        W80460   9.219  33.435  13.965
19150W        W80461  16.262  13.621  11.522
19151W        W80462  36.991   6.813  10.496
19152W        W80463  42.897  35.096  12.437
19153W        W80464  35.543  10.754   3.369
19154W        W80465  33.925  26.966   4.341
19155W        W80466  21.576  33.551   1.807
19156W        W80467  25.679  41.021   3.802
19157W        W80468  41.518  31.617  14.837
19158W        W80469  23.180  14.278  11.507
19159W        W80470  23.048  39.983   0.357
19160W        W80471  37.449   9.292  11.520
19161W        W80472  12.754   7.766   1.705
19162W        W80473  38.926   1.890  12.471
19163W        W80474  34.373  34.867   4.238
19164W        W80475  39.830  32.625   0.733
19165W        W80476   8.305   4.218   4.253
19166W        W80477  34.924  36.992  11.450
19167W        W80478  22.550   0.978   4.330
19168W        W80479  22.696   1.280  10.939
19169W        W80480  35.484  34.937   1.737
19170W        W80481  28.969  39.058  11.047
19171W        W80482  33.883  40.895  11.403
19172W        W80483   0.950  42.923  12.454
19173W        W80484   5.276  38.012   0.849
19174W        W80485  36.910   0.950   2.812
19175W        W80486   4.386  19.155   4.825
19176W        W80487  26.990  36.586  12.879
19177W        W80488  35.469  25.098   2.181
19178W        W80489  37.382  29.540   2.239
19179W        W80490  29.133  33.079  10.589
19180W        W80491  38.848  25.024  10.030
19181W        W80492  16.192  18.567  10.464
19182W        W80493  42.504  36.567  13.484
19183W        W80494  40.487   3.771   3.185
19184W        W80495   8.882  28.629  10.569
19185W        W80496   5.358  41.838  14.503
19186W        W80497   7.343   0.829  14.387
19187W        W80498  32.888  12.710  11.375
19188W        W80499  37.933  23.692  12.020
19189W        W80500   0.377   0.756  14.497
19190W        W80501  20.591  20.671   4.124
19191W        W80502  25.194  32.995   0.284
19192W        W80503  29.552  22.092  11.117
19193W        W80504  27.065  31.476  13.480
19194W        W80505  30.014  24.215  11.894
19195W        W80506   8.746  26.036  13.801
19196W        W80507   4.896  44.450   4.186
19197W        W80508  15.091  21.089  10.921
19198W        W80509  24.088  12.243   1.741
19199W        W80510  41.355  17.647  13.884
19200W        W80511   8.899  41.306   0.888
19201W        W80512  24.535   3.451  11.393
19202W        W80513  21.191  36.041   0.854
19203W        W80514  31.083  31.591  12.375
19204W        W80515  19.044   6.805   4.343
19205W        W80516   1.811   0.887   3.152
19206W        W80517  36.855  21.018  14.415
19207W        W80518  31.922  34.025   1.409
19208W        W80519  35.949  16.313  11.069
19209W        W80520  24.031  22.995  10.635
19210W        W80521   4.350   1.899   0.418
19211W        W80522   2.760  17.189  14.449
19212W        W80523  18.116  18.083  14.443
19213W        W80524  22.556  10.859  13.541
19214W        W80525   0.391  26.658  13.509
19215W        W80526  21.205  30.009   5.257
19216W        W80527  15.275  29.936  10.476
19217W        W80528  38.049  17.289  12.853
19218W        W80529  20.224  36.540   1.867
19219W        W80530  44.803   1.322  11.117
19220W        W80531   0.827  39.373   3.370
19221W        W80532  25.675  20.636  10.946
19222W        W80533  40.922   3.911   2.413
19223W        W80534   8.764   3.334  13.909
19224W        W80535  19.600  36.889  14.842
19225W        W80536  32.513  38.435   1.782
19226W        W80537  26.516   4.721   3.217
19227W        W80538   8.890  19.679   3.249
19228W        W80539  43.877   5.432  12.439
19229W        W80540   7.835  21.598   1.712
19230W        W80541  43.845  21.218   4.259
19231W        W80542  35.376  22.082  10.454
19232W        W80543  43.290   7.888  13.876
19233W        W80544  42.339  30.935   4.227
19234W        W80545  20.190  21.235  11.541
19235W        W80546   1.856  11.332   4.753
19236W        W80547  24.027   9.374   2.356
19237W        W80548   8.721  37.352   4.745
19238W        W80549  27.501  29.547  11.611
19239W        W80550  44.790  17.734   4.627
19240W        W80551  44.757   3.778  14.358
19241W        W80552  36.997  35.103   4.346
19242W        W80553  43.839  40.466   0.479
19243W        W80554  43.421  42.396  10.633
19244W        W80555  26.505  22.660  14.005
19245W        W80556  30.419  31.581  11.454
19246W        W80557  31.066  16.297  11.582
19247W        W80558  38.435  40.850  11.980
19248W        W80559  35.992  11.223  10.943
19249W        W80560  36.545  27.540   2.844
19250W        W80561  10.635  21.669   0.793
19251W        W80562  29.522  30.570   1.878
19252W        W80563  15.298  33.085  14.783
19253W        W80564  14.756  16.079   2.682
19254W        W80565  13.660  28.679  10.888
19255W        W80566  11.625  18.572  11.400
19256W        W80567  41.825  29.549   3.865
19257W        W80568  19.052  23.053  12.908
19258W        W80569  14.316  30.416  13.043
19259W        W80570   5.704  36.477   1.410
19260W        W80571  44.493  33.000   2.844
19261W        W80572   4.836  33.592  11.068
19262W        W80573  27.686  16.784   2.735
19263W        W80574  35.465   1.444   4.162
19264W        W80575  21.221  36.394  10.492
19265W        W80576  12.804   9.794  11.567
19266W        W80577  29.061  17.194  14.337
19267W        W80578  42.778   5.278   0.386
19268W        W80579  37.913  18.631   0.763
19269W        W80580  35.426  44.791   0.816
19270W        W80581  20.660  18.242  12.382
19271W        W80582  31.523   9.842   2.833
19272W        W80583   0.801  41.800   3.748
19273W        W80584  36.031  44.356  12.996
19274W        W80585   4.726  24.625  14.367
19275W        W80586  23.579  33.558   0.801
19276W        W80587  21.553  15.727  11.385
19277W        W80588  11.335  41.478  12.417
19278W        W80589  34.548  22.610  12.500
19279W        W80590  38.435  38.378  13.851
19280W        W80591  30.126  43.438  14.016
19281W        W80592  27.046   3.428   4.827
19282W        W80593   5.243  15.139  10.606
19283W        W80594  13.777  33.995   1.226
19284W        W80595  11.193  44.966   4.176
19285W        W80596  21.716  12.852  12.010
19286W        W80597  28.660   0.950   0.324
19287W        W80598  22.699  35.883   0.904
19288W        W80599  24.214  35.022   2.796
19289W        W80600   2.814  45.000  10.642
19290W        W80601   0.292  11.332   0.321
19291W        W80602  29.040  38.374  10.587
19292W        W80603   4.763  15.256   4.245
19293W        W80604  26.603  42.002   4.683
19294W        W80605  43.768  43.331  12.564
19295W        W80606  35.965   3.806  10.574
19296W        W80607  43.857  28.945   3.239
19297W        W80608  13.195  34.067   0.858
19298W        W80609  41.834   4.314  10.574
19299W        W80610   6.423  31.967  10.086
19300W        W80611  39.362  40.981   2.312
19301W        W80612  41.510  13.624   1.786
19302W        W80613  44.286  38.510   3.834
19303W        W80614  12.663  35.415   4.655
19304W        W80615  16.789  11.784   4.269
19305W        W80616  33.558   4.245   3.273
19306W        W80617  20.665  39.508   3.724
19307W        W80618  44.478  21.167  10.613
19308W        W80619  30.155  33.100   0.763
19309W        W80620   6.361  22.032  14.383
19310W        W80621   9.319  30.626  13.548
19311W        W80622  12.294  38.508   1.872
19312W        W80623   2.924  16.594   2.706
19313W        W80624  15.097  41.835   4.269
19314W        W80625  42.841  36.532  14.947
19315W        W80626  31.498  18.265  12.010
19316W        W80627  33.010  34.569   4.626
19317W        W80628   1.969  32.055   4.353
19318W        W80629  44.803  11.810  12.575
19319W        W80630  27.996   7.835   1.376
19320W        W80631  33.879  25.512   2.211
19321W        W80632  19.209  19.564  14.413
19322W        W80633  39.927  30.942  12.077
19323W        W80634  31.913  20.161  14.309
19324W        W80635  22.219   5.797  12.441
19325W        W80636   1.388   3.278   0.363
19326W        W80637  42.027   0.905  14.422
19327W        W80638   8.286  13.787   3.274
19328W        W80639  32.078   5.373  12.440
19329W        W80640  34.120   4.292  11.418
19330W        W80641  13.339   4.287  11.962
19331W        W80642  41.469  20.165   2.247
19332W        W80643  17.232  23.019   4.674
19333W        W80644   8.229   2.374   1.721
19334W        W80645  17.137  42.007   0.482
19335W        W80646  41.360  27.960  13.014
19336W        W80647  31.010  21.167  12.936
19337W        W80648  17.766  25.025  12.843
19338W        W80649   3.832  24.013  13.005
19339W        W80650  35.889  42.816  12.981
19340W        W80651  35.443  31.909   3.851
19341W        W80652  24.995  34.107  13.017
19342W        W80653  15.780  39.382  13.842
19343W        W80654  11.211  33.909  14.770
19344W        W80655  17.774   1.785   0.333
19345W        W80656  23.013   1.335   3.246
19346W        W80657  14.737  12.652  12.394
19347W        W80658  19.049  35.934  12.339
19348W        W80659   2.797  21.630  14.379
19349W        W80660  44.340  28.090  10.578
19350W        W80661  41.453  21.511  14.765
19351W        W80662   1.871  33.032  13.826
19352W        W80663  25.983  31.936  12.841
19353W        W80664   3.274  26.617  10.432
19354W        W80665   1.931   5.755  12.072
19355W        W80666  29.085  13.161   0.367
19356W        W80667   7.719  42.913   2.310
19357W        W80668  27.609  27.471  10.956
19358W        W80669  24.607  17.246   1.760
19359W        W80670  16.216  25.542  12.913
19360W        W80671   2.813   5.397  11.122
19361W        W80672  34.933   2.885  11.007
19362W        W80673  18.728   7.817   0.960
19363W        W80674  24.080  16.124  14.413
19364W        W80675  16.287   6.342   4.652
19365W        W80676  36.924  44.965  14.437
19366W        W80677  19.188  36.566   1.217
19367W        W80678  41.330   0.269  11.952
19368W        W80679  40.825   8.179   1.935
19369W        W80680  32.494  33.911   4.693
19370W        W80681  29.062  44.754  14.435
19371W        W80682  23.159  30.039  13.496
19372W        W80683  38.962  32.452   0.778
19373W        W80684  25.677   7.409  12.525
19374W        W80685  34.406  43.912  10.603
19375W        W80686   3.845  39.859  11.375
19376W        W80687  38.459   4.882  14.001
19377W        W80688  16.722  25.979   3.733
19378W        W80689  35.519  41.533  11.425
19379W        W80690  13.674  35.598  10.512
19380W        W80691   3.226  23.612   3.351
19381W        W80692  39.497  23.222  14.932
19382W        W80693  10.826  18.602  14.907
19383W        W80694  20.628   2.832  11.411
19384W        W80695  21.525  39.470  10.067
19385W        W80696   7.752  36.410   1.233
19386W        W80697   6.913  40.339  14.934
19387W        W80698  31.901  24.568   1.719
19388W        W80699   3.459  39.333  13.801
19389W        W80700   8.189  23.216   3.740
19390W        W80701  24.062  17.072   4.778
19391W        W80702  39.977  41.508  12.381
19392W        W80703  42.351   6.206   1.362
19393W        W80704  41.865  11.816   0.815
19394W        W80705  35.969  35.566   1.278
19395W        W80706  42.420   2.953  13.941
19396W        W80707  16.790  22.084   4.685
19397W        W80708  31.604  42.421  11.080
19398W        W80709   0.830  26.659  14.403
19399W        W80710   4.862  41.974  14.450
19400W        W80711  19.113   5.372   1.896
19401W        W80712  24.997  11.342   1.864
19402W        W80713  44.484  40.905   3.243
19403W        W80714   3.287  17.062   4.331
19404W        W80715  33.537  15.099  12.922
19405W        W80716  39.869   4.840  12.090
19406W        W80717   8.352  31.421  12.091
19407W        W80718  34.051  23.069   1.263
19408W        W80719  26.200  18.185  13.978
19409W        W80720  35.500  35.583  14.459
19410W        W80721  10.739  19.202  13.344
19411W        W80722  17.166   5.262  12.379
19412W        W80723  24.655  27.101  11.503
19413W        W80724  44.297   3.335  12.379
19414W        W80725  34.614  38.386   1.802
19415W        W80726  44.500  15.145  12.901
19416W        W80727   0.956  18.715   5.320
19417W        W80728  12.134  26.086  10.632
19418W        W80729  34.465  17.110  13.438
19419W        W80730  37.837  39.530   3.833
19420W        W80731  30.107  17.205   2.865
19421W        W80732  35.466  40.838   1.789
19422W        W80733   7.815  31.576   0.868
19423W        W80734   6.245  34.484   1.297
19424W        W80735  20.682  34.514   2.288
19425W        W80736  18.654  40.375  10.456
19426W        W80737  34.090  26.595  12.523
19427W        W80738  19.104  27.065  11.020
19428W        W80739  40.525  32.053   3.634
19429W        W80740  34.485   5.389   0.253
19430W        W80741  15.703  33.501   3.298
19431W        W80742  42.400   5.218   4.804
19432W        W80743  40.530  43.428   0.371
19433W        W80744  15.594  32.104   0.336
19434W        W80745  33.446  30.971   0.304
19435W        W80746  18.277  14.120  13.459
19436W        W80747  20.154  22.620   1.320
19437W        W80748  15.248  38.453  11.896
19438W        W80749  10.672   2.770  14.863
19439W        W80750  21.205  41.533  12.569
19440W        W80751   1.747  34.962   4.700
19441W        W80752  30.069  39.531   1.900
19442W        W80753   6.694  25.493   0.335
19443W        W80754   2.390  19.773   3.795
19444W        W80755  26.622  24.027   0.305
19445W        W80756  44.451  43.972  13.891
19446W        W80757  31.930   3.914   0.409
19447W        W80758  27.135  10.705   0.456
19448W        W80759  11.622  43.831  11.409
19449W        W80760  33.626   4.370  11.448
19450W        W80761  38.911  42.868   9.969
19451W        W80762  10.205   9.837   5.151
19452W        W80763  44.286  14.825  12.382
19453W        W80764   8.401  26.086   2.750
19454W        W80765  30.505  12.664  12.910
19455W        W80766  38.965  17.781   1.299
19456W        W80767  17.280  38.877  10.459
19457W        W80768   1.961  40.508   1.266
19458W        W80769  38.519  19.218   4.753
19459W        W80770  23.558   3.325   3.240
19460W        W80771  24.988  24.998   0.732
19461W        W80772  43.496   3.790   2.348
19462W        W80773  25.520   8.864  14.767
19463W        W80774   9.285  43.870  13.855
19464W        W80775   4.216  23.163   3.256
19465W        W80776   6.182  29.064  12.557
19466W        W80777   9.694  18.170   0.907
19467W        W80778  44.816  24.709   4.718
19468W        W80779  29.502  13.651   3.331
19469W        W80780  15.290  37.552  11.908
19470W        W80781  32.097  44.778   2.342
19471W        W80782  38.467  41.921   3.630
19472W        W80783  42.398   5.208   0.848
19473W        W80784  23.072  20.769   0.846
19474W        W80785  13.163  24.662  12.974
19475W        W80786   2.433  12.746   5.183
19476W        W80787   9.164   1.934  10.411
19477W        W80788  42.413  23.207   4.123
19478W        W80789  33.525  21.211   2.276
19479W        W80790   1.799   2.377   1.861
19480W        W80791  27.167  39.482   0.822
19481W        W80792  16.216  24.098   1.330
19482W        W80793  10.682   8.324   3.680
19483W        W80794  38.507  14.302  11.372
19484W        W80795  15.162  25.192   0.911
19485W        W80796  15.289   4.927  14.486
19486W        W80797  31.648  35.480  10.552
19487W        W80798   0.425  12.771   2.715
19488W        W80799  23.527  32.580  13.930
19489W        W80800  38.554  38.876  13.379
19490W        W80801  20.114  38.885  12.553
19491W        W80802  41.429  20.580  14.437
19492W        W80803  29.051  36.925   4.165
19493W        W80804  24.156  41.349   0.907
19494W        W80805   6.695  30.654  14.338
19495W        W80806  27.530   0.955  12.916
19496W        W80807  20.045  44.870   0.453
19497W        W80808  24.661  34.885  11.926
19498W        W80809  11.652  34.425   0.389
19499W        W80810  31.954  17.149   2.191
19500W        W80811  39.894  15.112  11.602
19501W        W80812  19.608  36.886   4.787
19502W        W80813   0.927  35.994   1.398
19503W        W80814  15.756  12.247   5.165
19504W        W80815   4.419  19.768  10.411
19505W        W80816  15.620  11.160  12.563
19506W        W80817  37.928  34.525   9.939
19507W        W80818  39.413   7.869   0.783
19508W        W80819  30.500  21.527   0.339
19509W        W80820  24.147   2.789   0.871
19510W        W80821  29.604   7.394   4.242
19511W        W80822  17.239   9.334  13.921
19512W        W80823  31.587  40.915   3.786
19513W        W80824   3.237  36.473   3.828
19514W        W80825  37.367  20.143   3.658
19515W        W80826  25.589  31.988   4.268
19516W        W80827   6.725  42.911  10.542
19517W        W80828  11.137  20.069   2.272
19518W        W80829   1.385   1.877  12.402
19519W        W80830   2.231  25.085   0.439
19520W        W80831   3.812  44.786  11.110
19521W        W80832   3.367  12.758   3.770
19522W        W80833  38.004  35.973  11.907
19523W        W80834  37.845   7.879   0.400
19524W        W80835  30.555  41.961  14.303
19525W        W80836  27.075  37.985  14.478
19526W        W80837  25.150  44.880  10.517
19527W        W80838  33.984  16.074  14.280
19528W        W80839  39.534  21.195   0.282
19529W        W80840   5.398   6.841  13.951
19530W        W80841   9.884  35.990  13.024
19531W        W80842  14.324  39.436  13.419
19532W        W80843  44.787  40.441   4.766
19533W        W80844  13.216  43.797   4.155
19534W        W80845  34.865  21.557   4.805
19535W        W80846  35.986  29.584  12.989
19536W        W80847  20.672  40.375   9.998
19537W        W80848  32.519  14.274   0.249
19538W        W80849  15.134   0.353   3.818
19539W        W80850  19.130  31.962   4.656
19540W        W80851  17.579   2.811   0.893
19541W        W80852  11.188  29.035   3.349
19542W        W80853  22.644  27.946  13.364
19543W        W80854   5.318  24.581   4.298
19544W        W80855  42.282  21.708   4.742
19545W        W80856  19.105   8.389  11.544
19546W        W80857  41.924  26.060  10.959
19547W        W80858  20.115  21.626  12.542
19548W        W80859  42.850   4.378  14.446
19549W        W80860  31.919  13.638  14.959
19550W        W80861  16.260  23.099   3.759
19551W        W80862   6.787   3.897   4.192
19552W        W80863  13.286   7.854   3.180
19553W        W80864   2.787  31.905  11.063
19554W        W80865  13.678  18.549   3.632
19555W        W80866  26.677  41.378   4.219
19556W        W80867   7.341  13.619   5.695
19557W        W80868  13.287  43.508  12.464
19558W        W80869  25.603  20.652  10.630
19559W        W80870  33.091  10.381   0.367
19560W        W80871  35.897  32.054   2.735
19561W        W80872  22.074  11.246   1.295
19562W        W80873  43.832   1.973  13.835
19563W        W80874  42.780  22.092  13.310
19564W        W80875   8.298   1.891   2.352
19565W        W80876  10.743  11.627  12.548
19566W        W80877  15.808   3.727  11.987
19567W        W80878  26.053  22.688  12.918
19568W        W80879  17.260  28.673  11.995
19569W        W80880  10.265  14.103   1.222
19570W        W80881  28.128   4.310   5.288
19571W        W80882  29.073   0.820  13.528
19572W        W80883  42.501  21.543  13.447
19573W        W80884  44.856  34.594  11.408
19574W        W80885   4.911  43.893  11.126
19575W        W80886  15.730   7.318  12.350
19576W        W80887  23.664   1.392  13.371
19577W        W80888  32.606  43.400  13.426
19578W        W80889  42.822   8.329  14.856
19579W        W80890  22.641   7.335  10.015
19580W        W80891  32.623  28.656  12.829
19581W        W80892   7.718  41.872  11.923
19582W        W80893  28.959  38.039   2.321
19583W        W80894  41.917  28.958   1.831
19584W        W80895  41.457   7.341   4.259
19585W        W80896   3.304  15.639  12.861
19586W        W80897  23.236  20.050  14.855
19587W        W80898   5.884  13.249  12.898
19588W        W80899  23.183  29.080   4.263
19589W        W80900  25.201   6.692   4.680
19590W        W80901  10.803  41.520  11.037
19591W        W80902   7.289  16.640  11.902
19592W        W80903  34.561  15.594  13.381
19593W        W80904  24.038  35.551  12.995
19594W        W80905   2.320  38.866  12.551
19595W        W80906  29.941   0.926  14.430
19596W        W80907   6.679  13.609   3.243
19597W        W80908   5.432  26.999  13.386
19598W        W80909  32.115  19.703  13.350
19599W        W80910   7.312  33.987   1.352
19600W        W80911   8.762  25.672   3.760
19601W        W80912  38.395  27.455  12.858
19602W        W80913  41.334  17.700  12.576
19603W        W80914   9.349  41.397  13.504
19604W        W80915  20.525  17.719  14.822
19605W        W80916  40.501   5.385  12.040
19606W        W80917  14.164   5.909  11.924
19607W        W80918  19.694  16.091   3.311
19608W        W80919   5.834   2.866   1.363
19609W        W80920  14.800  44.834   2.865
19610W        W80921  41.941  21.257   5.251
19611W        W80922  13.600  40.403  14.781
19612W        W80923   7.892  26.633  13.548
19613W        W80924  10.245  24.677   4.305
19614W        W80925  31.033  21.096   3.154
19615W        W80926   8.744  29.481  13.866
19616W        W80927  13.263  15.270  12.934
19617W        W80928  24.535  21.520   0.315
19618W        W80929  38.389  28.118  11.469
19619W        W80930  32.628   6.755   1.302
19620W        W80931  17.257   3.295  13.045
19621W        W80932  20.123  43.997   3.771
19622W        W80933  27.455  25.115  13.474
19623W        W80934  20.737  19.754  12.054
19624W        W80935  11.819  27.975   1.715
19625W        W80936  13.600  32.087   1.430
19626W        W80937  34.946  33.051   0.295
19627W        W80938   0.984  27.024   1.369
19628W        W80939   0.765  25.114   2.735
19629W        W80940  14.661  13.834   1.274
19630W        W80941  21.707  30.539  11.874
19631W        W80942  34.923  37.503   2.337
19632W        W80943  33.435  11.723  10.532
19633W        W80944  42.329   1.788   0.929
19634W        W80945  13.304   9.649   3.832
19635W        W80946  25.601  34.615   0.298
19636W        W80947  39.817   5.318   0.820
19637W        W80948   7.361  12.623   0.872
19638W        W80949  28.596  38.919   0.246
19639W        W80950  43.286  11.769  13.865
19640W        W80951  23.129  38.898  13.375
19641W        W80952   7.309   6.233   0.275
19642W        W80953  22.247   3.807  13.517
19643W        W80954  44.930  26.042   3.793
19644W        W80955  10.861  36.418  11.023
19645W        W80956   5.380  13.735  10.565
19646W        W80957  37.345  17.208  11.970
19647W        W80958  43.840   2.318   2.261
19648W        W80959  15.157  28.122  12.071
19649W        W80960  19.206   4.331   2.329
19650W        W80961  13.108  19.226  10.554
19651W        W80962  41.390   4.266   1.721
19652W        W80963  30.920  26.075  12.956
19653W        W80964  10.734  43.334   0.855
19654W        W80965  28.008  23.035   3.288
19655W        W80966  28.015  14.655   1.868
19656W        W80967   7.804  29.447  13.857
19657W        W80968   3.363  18.563  13.373
19658W        W80969  12.629  18.701  14.500
19659W        W80970  25.001   0.825  12.580
19660W        W80971  16.722  26.461  13.405
19661W        W80972   7.318  36.937  11.047
19662W        W80973  10.827   2.761   4.647
19663W        W80974  18.152  36.493  12.961
19664W        W80975  16.119   7.799  11.570
19665W        W80976  24.054  21.091  14.809
19666W        W80977  23.704  13.232  12.366
19667W        W80978  39.491  41.470  10.491
19668W        W80979  38.922  15.689  13.515
19669W        W80980  42.958   7.288   2.834
19670W        W80981   8.329  42.807   2.193
19671W        W80982  37.850   6.808  13.991
19672W        W80983  31.430  43.017   3.831
19673W        W80984  33.467  25.207  12.840
19674W        W80985  29.056  22.591  14.317
19675W        W80986  44.850   5.406   0.854
19676W        W80987  17.199  20.583  12.413
19677W        W80988  42.895  13.771  12.539
19678W        W80989  20.131   1.836  10.453
19679W        W80990  39.455  40.020  12.046
19680W        W80991  44.265   3.784  12.840
19681W        W80992  44.826  10.159   1.302
19682W        W80993  10.304  31.581  12.032
19683W        W80994   6.717  22.709   4.780
19684W        W80995   4.748  21.622   4.131
19685W        W80996  35.437  10.297   1.305
19686W        W80997  13.646  26.669   0.319
19687W        W80998   6.767   6.731  14.877
19688W        W80999  39.318  14.103  14.793
19689W        W81000  19.088  15.731  13.817
19690W        W81001  25.075  41.870   0.760
19691W        W81002   0.914  16.302  12.954
19692W        W81003  11.158  33.005  14.363
19693W        W81004  30.112  30.481  13.486
19694W        W81005  25.552  35.563  14.418
19695W        W81006  38.024  18.789  13.896
19696W        W81007   6.689  18.161   1.695
19697W        W81008  19.739  35.393  12.926
19698W        W81009  40.035  38.927  13.948
19699W        W81010  36.969  22.681   1.406
19700W        W81011   0.901  21.701   1.259
19701W        W81012   3.731  28.165  14.938
19702W        W81013   7.794   1.964   0.789
19703W        W81014  36.981  17.687  14.437
19704W        W81015  10.362  43.987   3.294
19705W        W81016  44.289  17.705   0.441
19706W        W81017   1.863  33.055  10.909
19707W        W81018   7.399  24.067  11.464
19708W        W81019  38.843  40.535   0.957
19709W        W81020   9.271  18.729   0.890
19710W        W81021  38.828  34.383  14.395
19711W        W81022  33.487  39.869  10.903
19712W        W81023  30.595  10.644   2.291
19713W        W81024  17.614  20.701   1.356
19714W        W81025   5.830  29.138   4.292
19715W        W81026  31.931  25.614  14.363
19716W        W81027   3.293  21.591   1.894
19717W        W81028  43.987  22.696  13.329
19718W        W81029  36.968  13.602  11.549
19719W        W81030  43.425  43.353   4.679
19720W        W81031  39.832  30.451  13.375
19721W        W81032  18.789  28.607  14.977
19722W        W81033  27.997  11.699  10.523
19723W        W81034  27.039   9.864  11.114
19724W        W81035   0.309   9.384   0.462
19725W        W81036  15.756   4.809  11.482
19726W        W81037  11.238  33.556   1.726
19727W        W81038  26.697   3.445  12.015
19728W        W81039   5.290   9.338   1.312
19729W        W81040  40.986   9.838  10.491
19730W        W81041  11.262  12.737   2.888
19731W        W81042   7.689  25.607   1.733
19732W        W81043  28.497  15.159   4.646
19733W        W81044  30.462  20.601   4.788
19734W        W81045   3.881   2.893   4.717
19735W        W81046  38.980  37.896  10.557
19736W        W81047  43.408   2.825  13.820
19737W        W81048   7.686  36.990   0.468
19738W        W81049  29.668  44.914  11.931
19739W        W81050  33.908  32.037   3.794
19740W        W81051  15.242   1.473   1.853
19741W        W81052  14.197  18.166   0.468
19742W        W81053   2.420  39.903   1.796
19743W        W81054   9.333  29.569  11.014
19744W        W81055  43.936  24.130   4.330
19745W        W81056  20.576  16.716  13.806
19746W        W81057  42.444  16.608  12.039
19747W        W81058  31.457  20.117   2.239
19748W        W81059  41.878  13.281   3.850
19749W        W81060   9.343  17.288  11.455
19750W        W81061  35.024   5.360  12.935
19751W        W81062  15.167   3.394   0.383
19752W        W81063   6.249  22.560  12.823
19753W        W81064  27.552   6.859  13.040
19754W        W81065  17.071  29.441  11.005
19755W        W81066  25.975   2.966  14.370
19756W        W81067  12.250  37.087  12.088
19757W        W81068  20.169  34.006  12.005
19758W        W81069   9.669  10.686   3.645
19759W        W81070  36.898  40.819   2.869
19760W        W81071  44.383  31.601   1.397
19761W        W81072  35.392  34.585  11.086
19762W        W81073   3.892  41.476   3.730
19763W        W81074  21.084  28.022  14.973
19764W        W81075  25.665  30.982  10.533
19765W        W81076   3.904  23.533   2.330
19766W        W81077  32.126   4.420  14.786
19767W        W81078  38.958  33.606  11.973
19768W        W81079  12.820  16.783   2.191
19769W        W81080  25.478  37.353  10.958
19770W        W81081   3.776  25.174  13.911
19771W        W81082  25.154  22.135   1.337
19772W        W81083  15.199  24.134  13.364
19773W        W81084  27.980  35.464   1.850
19774W        W81085  29.526   1.878  13.515
19775W        W81086  30.943  19.044  12.972
19776W        W81087  10.192  40.825  13.000
19777W        W81088  42.881  31.638   3.761
19778W        W81089  33.549  44.399  13.347
19779W        W81090  11.837   2.865   1.324
19780W        W81091  20.581  37.468   5.280
19781W        W81092  41.926  42.941   3.849
19782W        W81093  22.046  36.548  12.872
19783W        W81094  30.016   6.386  13.062
19784W        W81095  34.505  44.811   4.296
19785W        W81096  36.901  42.911  12.530
19786W        W81097   2.942  18.554  12.424
19787W        W81098   6.878  43.970  10.990
19788W        W81099   8.771  24.668  11.948
19789W        W81100   4.716  22.200  12.854
19790W        W81101   6.782   1.839   3.792
19791W        W81102  14.282   3.840   3.357
19792W        W81103  26.636  13.325   0.819
19793W        W81104  18.741  22.996  12.062
19794W        W81105   0.936  31.123   3.833
19795W        W81106  25.001  40.547  10.434
19796W        W81107  24.199   5.896  11.428
19797W        W81108  22.738   0.297   2.365
19798W        W81109  22.572  42.818   3.147
19799W        W81110  32.615  11.836  10.427
19800W        W81111  16.644   5.770   2.836
19801W        W81112   3.412   6.734   1.422
19802W        W81113  32.950  35.104   2.368
19803W        W81114   0.931   7.331  13.897
19804W        W81115   1.933  25.111   2.268
19805W        W81116  17.216   9.652   0.928
19806W        W81117  29.952  13.223   2.402
19807W        W81118   5.344  31.482   0.872
19808W        W81119   7.783  32.524   1.245
19809W        W81120  29.151   3.277  11.498
19810W        W81121  30.011  27.652   2.375
19811W        W81122  39.507  37.376   4.726
19812W        W81123  11.328  13.774  13.043
19813W        W81124   9.271  16.083   3.317
19814W        W81125   1.967   6.415  14.883
19815W        W81126  32.418  15.721   4.132
19816W        W81127  36.088  36.965  12.853
19817W        W81128  28.660   7.695   5.271
19818W        W81129  18.703  19.148  10.912
19819W        W81130   7.275  43.376   3.862
19820W        W81131  22.123   8.760   0.456
19821W        W81132  33.576  29.948   9.978
19822W        W81133  32.579   7.838   2.193
19823W        W81134   1.846  16.283   2.277
19824W        W81135  44.941  22.196   1.796
19825W        W81136  36.085   1.949   0.414
19826W        W81137  41.864   3.784  12.095
19827W        W81138  14.241  19.706   4.193
19828W        W81139  10.379   0.913  11.451
19829W        W81140  27.085   5.306  14.974
19830W        W81141  12.216  44.821   3.202
19831W        W81142   4.810   2.746  13.846
19832W        W81143  22.084  32.001  11.426
19833W        W81144  40.492  25.498   2.290
19834W        W81145  26.189  23.028   0.327
19835W        W81146  19.653   5.325   1.812
19836W        W81147  38.838  43.355  12.866
19837W        W81148  25.206   3.894   1.795
19838W        W81149   3.387  30.566   3.192
19839W        W81150   5.215  35.050  12.467
19840W        W81151  31.607  10.287  11.474
19841W        W81152  15.648  30.651  13.871
19842W        W81153   8.661  32.476   4.215
19843W        W81154  19.583  31.967  10.464
19844W        W81155  30.642   2.307  12.942
19845W        W81156   7.877  23.636   3.768
19846W        W81157  34.113  39.555  11.531
19847W        W81158  30.427  30.042  10.972
19848W        W81159   9.826   2.307   3.667
19849W        W81160   4.322  15.629  11.541
19850W        W81161  21.752  21.587   2.352
19851W        W81162  20.216  33.448   0.390
19852W        W81163  34.021  27.056  10.635
19853W        W81164  35.439  41.865  11.948
19854W        W81165  12.284   3.741  14.965
19855W        W81166  35.978  43.959   3.660
19856W        W81167  31.552   3.730  14.920
19857W        W81168  30.481  36.030   0.728
19858W        W81169  17.703  13.626  10.514
19859W        W81170  18.670  29.563   1.801
19860W        W81171  43.013  43.357  11.517
19861W        W81172  43.843  37.419  12.527
19862W        W81173  34.909  16.765   4.632
19863W        W81174  38.844   4.939   0.354
19864W        W81175   0.884   5.839   1.904
19865W        W81176  39.855  21.065   2.206
19866W        W81177  43.899   0.342  11.067
19867W        W81178  10.676  18.715   2.890
19868W        W81179  14.289  43.008   2.853
19869W        W81180  26.690   5.690  10.137
19870W        W81181  18.257  37.497  13.930
19871W        W81182  24.587  13.770   4.122
19872W        W81183  22.042   7.408  12.391
19873W        W81184  18.169   2.952   4.167
19874W        W81185  42.492   5.420  12.029
19875W        W81186  27.513  13.630  13.842
19876W        W81187  31.476  30.427   0.880
19877W        W81188  43.305  19.095   1.237
19878W        W81189  31.590   1.397  13.903
19879W        W81190   7.352  20.140  11.512
19880W        W81191  27.100  25.555   1.249
19881W        W81192  39.005   0.380  11.593
19882W        W81193   8.808  40.866  14.942
19883W        W81194  26.111   6.748   3.764
19884W        W81195  32.552  28.534   1.840
19885W        W81196  24.011  13.335   0.910
19886W        W81197  31.605   0.967   3.696
19887W        W81198  10.254  32.930   3.222
19888W        W81199  11.757  13.295   4.713
19889W        W81200  26.573  15.664  14.339
19890W        W81201  18.106  42.909   4.334
19891W        W81202   0.398  34.409   2.264
19892W        W81203  31.014  21.149   2.706
19893W        W81204  44.428  19.702  12.523
19894W        W81205  20.097  14.315  14.770
19895W        W81206  43.972  40.527  13.319
19896W        W81207  40.846  10.238  13.846
19897W        W81208   2.336   5.864   4.816
19898W        W81209  14.221   0.279  13.057
19899W        W81210  42.472  15.588   2.716
19900W        W81211  38.518  37.840  11.480
19901W        W81212   6.711  30.456   4.347
19902W        W81213   2.885  13.262  13.331
19903W        W81214  18.719  42.859   3.642
19904W        W81215   3.433  42.015   1.920
19905W        W81216  38.829  33.953  13.942
19906W        W81217  40.043   6.838   0.265
19907W        W81218  28.112  18.082   2.729
19908W        W81219  17.073  27.624  11.584
19909W        W81220  23.235  23.194  12.029
19910W        W81221  26.615   7.697   0.899
19911W        W81222  33.103  41.951  13.892
19912W        W81223  30.520  28.972  12.508
19913W        W81224  26.539  31.533  13.884
19914W        W81225  38.446  30.620  11.576
19915W        W81226  30.646  15.682  14.369
19916W        W81227   6.250  16.274   2.344
19917W        W81228   4.286  20.264   0.413
19918W        W81229  11.713  13.812   4.691
19919W        W81230  22.639   5.737  14.326
19920W        W81231  38.379  22.510  14.949
19921W        W81232  11.839  44.424   3.822
19922W        W81233   2.827   5.713   4.167
19923W        W81234  21.707   9.686   0.918
19924W        W81235  23.114  12.180  14.372
19925W        W81236  38.504  26.654  14.789
19926W        W81237  14.190   8.802   1.879
19927W        W81238  21.727  43.876   2.227
19928W        W81239   2.757  28.627   4.677
19929W        W81240  24.988  37.075   1.239
19930W        W81241  35.585  21.750   2.782
19931W        W81242  36.531  26.700   4.240
19932W        W81243  38.339  19.203   1.918
19933W        W81244   7.198  14.741   1.827
19934W        W81245  20.173  13.671  11.873
19935W        W81246  32.562  22.606   0.293
19936W        W81247   1.946  30.919   1.789
19937W        W81248  25.037  23.149  12.378
19938W        W81249   6.307  15.251  14.324
19939W        W81250  17.781  31.983  13.861
19940W        W81251  30.554  43.969  15.000
19941W        W81252  13.738  27.633  12.984
19942W        W81253  12.719   3.390   0.795
19943W        W81254  31.433  16.232   3.826
19944W        W81255  41.293   9.152  12.348
19945W        W81256  40.994  29.470  12.914
19946W        W81257  20.078  33.953   2.232
19947W        W81258  31.981  30.510  12.376
19948W        W81259  26.205  14.728   4.739
19949W        W81260  44.828  21.529  13.454
19950W        W81261  18.213  38.979   5.648
19951W        W81262  18.669  24.004   3.298
19952W        W81263  34.517  36.075  13.950
19953W        W81264   8.180   5.414   1.716
19954W        W81265  34.904  12.807   2.316
19955W        W81266   0.411  34.615  11.465
19956W        W81267  33.478  16.622  12.350
19957W        W81268  40.933  39.039   4.776
19958W        W81269  42.786  26.577   0.851
19959W        W81270   2.269  26.648  13.514
19960W        W81271  13.692  31.086  12.394
19961W        W81272   1.797   3.802   4.156
19962W        W81273   0.406  11.140   4.797
19963W        W81274   4.834   8.871  12.907
19964W        W81275  41.333  30.429  12.467
19965W        W81276   2.866  14.314   3.160
19966W        W81277  43.482   2.910  11.906
19967W        W81278  18.282  24.589   2.325
19968W        W81279  25.620  44.840   1.841
19969W        W81280  35.014  31.951   1.410
19970W        W81281  25.478   3.879   1.259
19971W        W81282  41.368  35.545  11.114
19972W        W81283  10.740  17.800   3.719
19973W        W81284  37.073  12.131  12.519
19974W        W81285  44.376  44.461   4.328
19975W        W81286  20.206  19.725  14.462
19976W        W81287   6.871  30.157   0.952
19977W        W81288  35.953  37.866  14.299
19978W        W81289  19.147   8.230   4.782
19979W        W81290  16.079   2.271   1.229
19980W        W81291   3.778  20.251   1.701
19981W        W81292  16.112  31.567   0.402
19982W        W81293  16.774  25.174  13.972
19983W        W81294   6.197  41.350  11.505
19984W        W81295  31.054   3.383  11.936
19985W        W81296  26.602  30.125   4.266
19986W        W81297  42.857  26.461  13.975
19987W        W81298  12.722  30.430  12.455
19988W        W81299  14.200  16.301  11.901
19989W        W81300  13.333   7.705   4.710
19990W        W81301   8.331  37.443  12.853
19991W        W81302   1.878  13.248   0.424
19992W        W81303  33.460  19.634  11.460
19993W        W81304  36.031   6.724  12.935
19994W        W81305  22.113  13.830  11.592
19995W        W81306  28.077   6.777  12.857
19996W        W81307   5.839  33.058   4.617
19997W        W81308   6.713  30.585  13.486
19998W        W81309  26.096  31.977   2.831
19999W        W81310   5.319   5.817   2.304
20000W        W81311  34.416  30.104   2.375
20001W        W81312   0.324  14.271  11.062
20002W        W81313  17.760  15.722   4.778
20003W        W81314  16.110  13.157  11.048
20004W        W81315  39.877  29.547   3.380
20005W        W81316  41.409  42.915  14.338
20006W        W81317  19.131   5.384  14.393
20007W        W81318   0.899   3.779   1.917
20008W        W81319  38.369   3.309  13.497
20009W        W81320  44.764  21.110  12.826
20010W        W81321   2.407  39.822   2.345
20011W        W81322  29.533  42.781  13.458
20012W        W81323  26.537   4.417   1.935
20013W        W81324   7.294  35.046  14.914
20014W        W81325  17.096   5.231  13.524
20015W        W81326  19.575  35.103  14.830
20016W        W81327   0.957   1.938  13.453
20017W        W81328  26.997  13.307  13.475
20018W        W81329  18.251  22.064   1.435
20019W        W81330   8.686  30.009  13.361
20020W        W81331  11.709  15.777  10.638
20021W        W81332  16.602  40.030  11.976
20022W        W81333  20.237  25.591  14.379
20023W        W81334   1.950  10.650   3.635
20024W        W81335   2.397  34.090  13.523
20025W        W81336  35.877  11.760   4.711
20026W        W81337  30.918   2.270  13.401
20027W        W81338  20.728  22.167  13.511
20028W        W81339  27.956  24.556   0.939
20029W        W81340  37.559  19.071   1.827
20030W        W81341  42.297  26.678  12.549
20031W        W81342  33.531  38.559   2.339
20032W        W81343  31.411  41.445   4.625
20033W        W81344  10.231  18.098  12.554
20034W        W81345  25.519  18.619   2.370
20035W        W81346   5.366   2.421  11.101
20036W        W81347  17.266  13.135  12.858
20037W        W81348  38.536  19.093  14.291
20038W        W81349  28.109   8.840   5.185
20039W        W81350  19.630  36.988   1.806
20040W        W81351  15.713  34.120   3.321
20041W        W81352   9.201  10.635  14.779
20042W        W81353  28.998  41.808   3.783
20043W        W81354  32.623  22.641  10.938
20044W        W81355  10.754   5.353  12.046
20045W        W81356  28.470  25.047   4.286
20046W        W81357  31.944  10.877  12.052
20047W        W81358  24.216   6.332   0.929
20048W        W81359  34.409  38.466   2.767
20049W        W81360  24.177  40.965  14.006
20050W        W81361  43.872  41.472  13.441
20051W        W81362  39.963  32.627  12.428
20052W        W81363  17.598  18.160   4.352
20053W        W81364   9.372  10.744  12.832
20054W        W81365  36.948  12.703   1.240
20055W        W81366  15.123  17.252  10.608
20056W        W81367  12.324   6.282  13.796
20057W        W81368  25.130   9.256   2.387
20058W        W81369  44.376   1.343  13.459
20059W        W81370  19.087  21.204   1.860
20060W        W81371   4.870  21.250   2.387
20061W        W81372  24.490   1.934  14.912
20062W        W81373  34.866   4.352   3.757
20063W        W81374  17.611  42.996   0.863
20064W        W81375   3.435  19.130   0.967
20065W        W81376  13.140  39.388  13.497
20066W        W81377  16.733   4.360   1.747
20067W        W81378   4.931  15.608  13.847
20068W        W81379  19.643  12.619  14.848
20069W        W81380  16.196  18.132  11.031
20070W        W81381  19.610  18.136   0.842
20071W        W81382  35.004  34.883   5.144
20072W        W81383   1.270  17.760  12.981
20073W        W81384  34.382  42.863  13.390
20074W        W81385  36.971  40.902  13.953
20075W        W81386  40.349  43.975  12.064
20076W        W81387  26.025  10.780  12.398
20077W        W81388   7.833   6.851  11.447
20078W        W81389   8.738   4.794   0.404
20079W        W81390  22.647  22.634   0.728
20080W        W81391  34.899  27.073   3.179
20081W        W81392  24.181  29.633  14.773
20082W        W81393  14.102  28.064  10.971
20083W        W81394   3.874  38.569   2.815
20084W        W81395  32.429  43.425  10.444
20085W        W81396  17.107   7.765   4.215
20086W        W81397  14.710  29.546   3.838
20087W        W81398  36.887   7.293  12.037
20088W        W81399   1.830  32.478  12.533
20089W        W81400   9.371  25.478  12.086
20090W        W81401  19.561  14.177  13.370
20091W        W81402  13.610  43.992   3.342
20092W        W81403   4.810  20.263   1.277
20093W        W81404  37.995  13.325   2.230
20094W        W81405  15.146  19.679   2.662
20095W        W81406   5.337  17.779   3.349
20096W        W81407  43.481  40.364  10.895
20097W        W81408  22.127  25.963  14.768
20098W        W81409  20.175  21.126  14.996
20099W        W81410   7.701   6.893  11.124
20100W        W81411  17.239  13.783  12.935
20101W        W81412  17.771   8.234  11.465
20102W        W81413  19.160  26.149   4.771
20103W        W81414  27.038  37.413   1.280
20104W        W81415  10.282   8.658   4.750
20105W        W81416  42.435  27.084  13.533
20106W        W81417  31.425   9.814  11.530
20107W        W81418   8.786   9.328   3.314
20108W        W81419  35.890  15.128  11.088
20109W        W81420  24.209  41.912  10.022
20110W        W81421  27.013   6.373  14.795
20111W        W81422  27.485   0.781  12.386
20112W        W81423  43.861  12.775   1.895
20113W        W81424  39.477  42.510   2.685
20114W        W81425  11.681   3.218  12.525
20115W        W81426   7.171   7.415   1.327
20116W        W81427  35.564  42.803   3.370
20117W        W81428   8.835  32.432  14.952
20118W        W81429  19.605  38.497  14.289
20119W        W81430  22.142  44.844   1.358
20120W        W81431   4.290  28.578  13.370
20121W        W81432  23.725  25.657   3.841
20122W        W81433  27.096  14.161  10.549
20123W        W81434  28.491  10.689  12.936
20124W        W81435   6.732  33.128  12.999
20125W        W81436  29.458  27.129   0.336
20126W        W81437  36.892   7.731  12.462
20127W        W81438  27.035  25.203  12.385
20128W        W81439   6.778   3.429  14.471
20129W        W81440  14.161  36.942   0.295
20130W        W81441  32.451  30.919   4.787
20131W        W81442  21.063  15.787  11.442
20132W        W81443  15.300  27.187   1.337
20133W        W81444  23.211  29.991   3.375
20134W        W81445  15.193  13.664  13.332
20135W        W81446  16.765  38.484  14.339
20136W        W81447   0.313  11.319  12.429
20137W        W81448  34.516  31.109  14.295
20138W        W81449   6.338  25.976  13.918
20139W        W81450   7.876  18.637   4.702
20140W        W81451   8.179  43.799  14.421
20141W        W81452   5.785  12.124  14.777
20142W        W81453  32.480   2.430  12.953
20143W        W81454  34.563   4.798   4.241
20144W        W81455  18.772  18.170   0.802
20145W        W81456   5.884  10.252  14.400
20146W        W81457  25.657  15.792  12.547
20147W        W81458  24.212  23.523   9.923
20148W        W81459  11.190  37.917  14.364
20149W        W81460  14.654   5.346   5.153
20150W        W81461  13.752  15.227   4.787
20151W        W81462  31.617  35.579   2.670
20152W        W81463  34.887  33.902  10.037
20153W        W81464  30.985   0.825  11.111
20154W        W81465  11.804   2.367  10.468
20155W        W81466  42.523  17.194   1.892
20156W        W81467  13.715   1.387  12.500
20157W        W81468   0.893  32.009   4.234
20158W        W81469  10.232  11.707   3.280
20159W        W81470   8.713   0.335  12.920
20160W        W81471  19.152   6.399  12.898
20161W        W81472  24.554   9.709   2.853
20162W        W81473  39.361   9.176  12.360
20163W        W81474   4.880  38.956  10.550
20164W        W81475   3.743  11.142   0.823
20165W        W81476  28.569  43.797   2.718
20166W        W81477  27.568  22.582  13.420
20167W        W81478   7.754  28.931   1.444
20168W        W81479  44.379   4.379  14.501
20169W        W81480  17.136  11.333  10.095
20170W        W81481  18.152   6.214   0.371
20171W        W81482  43.872   2.951  10.413
20172W        W81483  42.779   7.701  12.947
20173W        W81484  24.136  37.060  12.451
20174W        W81485   0.279  11.773  12.576
20175W        W81486  28.673   3.345   2.319
20176W        W81487  12.797  28.585   3.173
20177W        W81488  14.829   3.424  12.956
20178W        W81489   1.268  23.653   1.226
20179W        W81490  35.417  35.060   0.350
20180W        W81491  25.594  17.192  10.448
20181W        W81492  15.192   4.384  14.892
20182W        W81493  27.619  35.398   2.805
20183W        W81494  35.979  13.756   1.332
20184W        W81495  14.763   4.446   0.294
20185W        W81496  18.105   0.845  12.361
20186W        W81497  41.890  26.062   2.230
20187W        W81498  43.786  44.346  12.524
20188W        W81499  17.210  32.010  11.598
20189W        W81500  11.133  15.251   0.296
20190W        W81501  41.876  25.091  10.948
20191W        W81502  37.041  33.984   1.305
20192W        W81503  21.581  13.255  11.384
20193W        W81504  12.621  37.574   9.998
20194W        W81505  19.547  44.345   0.901
20195W        W81506   6.690  40.508  12.073
20196W        W81507   7.778   6.382  14.450
20197W        W81508  26.191  34.894  12.963
20198W        W81509   1.881  35.931   1.324
20199W        W81510   2.904  39.859  12.452
20200W        W81511  37.037  20.743   0.955
20201W        W81512  17.749   5.414   3.768
20202W        W81513  19.286   6.298   4.671
20203W        W81514   5.428  18.682   3.347
20204W        W81515  24.979   5.808  14.830
20205W        W81516   3.868   3.876  12.906
20206W        W81517  44.885  24.700  13.912
20207W        W81518  21.601  37.021   3.679
20208W        W81519  42.317   4.395  13.468
20209W        W81520   7.391  44.442  11.108
20210W        W81521  11.301   4.798  11.550
20211W        W81522  34.566   7.751  14.462
20212W        W81523   6.310  26.017   0.467
20213W        W81524  18.079   5.234   1.718
20214W        W81525  24.155   3.767   3.275
20215W        W81526  30.655  25.666  13.034
20216W        W81527  39.485  30.455  12.444
20217W        W81528  29.153   3.876   4.158
20218W        W81529  15.104  24.154   2.345
20219W        W81530   7.673  36.900  14.778
20220W        W81531  31.906   5.705   4.169
20221W        W81532  11.149  10.268   1.246
20222W        W81533  41.968  10.251   1.364
20223W        W81534   0.266   3.865   4.163
20224W        W81535  27.499  11.188   3.170
20225W        W81536  23.537   4.347  11.549
20226W        W81537  44.459   7.853   2.220
20227W        W81538  28.538  16.101  12.944
20228W        W81539  39.835  19.542  10.418
20229W        W81540  19.629  32.471  12.539
20230W        W81541  22.712   9.338   2.867
20231W        W81542   4.813  37.892   2.377
20232W        W81543  26.077   7.264  12.358
20233W        W81544  29.602   8.836  11.972
20234W        W81545  35.443  26.037  14.918
20235W        W81546  32.061   1.783   9.983
20236W        W81547  10.748  15.652  14.513
20237W        W81548   9.725   8.769  10.422
20238W        W81549  41.386  42.381   2.333
20239W        W81550   1.820  41.920   4.285
20240W        W81551   5.867  32.597   2.230
20241W        W81552  40.416  13.708  10.598
20242W        W81553  24.579  24.521  11.101
20243W        W81554   1.810  34.559   4.802
20244W        W81555  42.362   3.933   1.750
20245W        W81556   1.271  36.460   3.383
20246W        W81557   3.312  29.606   3.747
20247W        W81558  40.023   9.334   4.629
20248W        W81559   5.300  16.666  13.500
20249W        W81560  33.555  15.322   3.317
20250W        W81561   6.238   3.266   2.184
20251W        W81562  27.144   5.922   0.804
20252W        W81563  34.371   5.321  11.476
20253W        W81564  13.698  27.173  11.394
20254W        W81565  17.205  32.594   1.265
20255W        W81566   8.685  15.612   1.289
20256W        W81567  25.119  42.955   2.899
20257W        W81568  29.608  21.531  11.931
20258W        W81569  19.106  13.659  12.860
20259W        W81570   1.457  33.878   2.873
20260W        W81571  44.800  44.979  12.896
20261W        W81572  23.187  11.859   0.473
20262W        W81573  23.038  37.339  11.866
20263W        W81574  21.020  38.065  12.980
20264W        W81575  12.292  30.554   4.771
20265W        W81576  28.650  43.469  11.039
20266W        W81577  13.235  36.021  10.085
20267W        W81578  15.778   9.212  12.866
20268W        W81579  17.123  40.923   3.234
20269W        W81580  13.703   7.313  12.576
20270W        W81581  44.387  12.261   2.179
20271W        W81582  24.593  19.280   1.310
20272W        W81583   4.866  12.853  14.833
20273W        W81584  28.499   1.445   3.787
20274W        W81585  18.670  38.851  14.441
20275W        W81586  41.446  35.569   3.279
20276W        W81587  31.499  44.381  12.991
20277W        W81588  36.960  18.559  11.023
20278W        W81589  19.128  32.578  11.006
20279W        W81590  23.534  24.166   2.244
20280W        W81591  36.485  42.857  11.382
20281W        W81592   3.716  34.955  10.591
20282W        W81593  13.160  33.503  14.854
20283W        W81594  13.786   1.339  13.003
20284W        W81595  26.475   7.277   3.822
20285W        W81596  34.905  42.971   1.765
20286W        W81597  30.920  40.538   1.387
20287W        W81598  42.307  39.535  13.980
20288W        W81599  40.487  14.805  11.878
20289W        W81600  27.187  43.453  10.549
20290W        W81601  21.725  33.498  14.872
20291W        W81602  22.085  14.333   3.802
20292W        W81603  26.695   6.806  11.020
20293W        W81604  40.844  29.667  12.064
20294W        W81605  20.635  33.124  11.576
20295W        W81606  42.326  38.887   4.131
20296W        W81607   3.309   5.397  11.129
20297W        W81608  25.218  20.625  11.020
20298W        W81609   0.382  44.370  10.618
20299W        W81610  16.583  22.578  12.572
20300W        W81611   0.397  20.274  10.621
20301W        W81612  30.479  42.397  11.880
20302W        W81613   3.425  23.212   3.834
20303W        W81614  40.916  30.140  14.018
20304W        W81615   2.274  39.061   4.217
20305W        W81616  15.615  26.060  13.437
20306W        W81617   5.401  10.212  14.030
20307W        W81618  35.360  20.674   2.289
20308W        W81619  40.474  10.294  10.596
20309W        W81620  12.292   2.940  13.825
20310W        W81621   9.392  25.085   3.218
20311W        W81622   9.687   7.409  10.431
20312W        W81623  23.516  19.664   2.801
20313W        W81624  31.149  39.031   0.950
20314W        W81625  40.321  19.070   2.878
20315W        W81626   6.187  13.177  12.059
20316W        W81627  41.445   9.846  12.018
20317W        W81628   4.756  43.964   4.604
20318W        W81629  16.785  28.020   4.674
20319W        W81630  44.322  42.796  12.506
20320W        W81631   1.916  29.601  14.385
20321W        W81632   6.858  21.211  12.474
20322W        W81633   4.818  11.755  11.556
20323W        W81634  32.126  28.980   9.969
20324W        W81635  34.092  30.536   0.312
20325W        W81636   4.222   6.696   0.468
20326W        W81637  17.096  29.538  12.565
20327W        W81638  21.095  38.824   3.263
20328W        W81639  13.169  28.590  14.790
20329W        W81640  33.568   5.839   3.332
20330W        W81641  23.670  41.794   1.712
20331W        W81642  26.963  29.059   1.824
20332W        W81643  36.461  43.917  14.494
20333W        W81644  29.499  25.198  11.943
20334W        W81645  42.996  33.012   2.709
20335W        W81646  28.554   3.305   0.893
20336W        W81647  18.762  41.907   3.362
20337W        W81648  24.976  23.990  11.433
20338W        W81649  19.764  15.609  12.973
20339W        W81650  22.996  12.824  11.095
20340W        W81651  41.986  16.778   1.781
20341W        W81652  20.253   4.791   1.413
20342W        W81653  30.523  33.985  11.389
20343W        W81654  25.687  38.353  10.447
20344W        W81655  18.733  12.248   0.775
20345W        W81656  26.014   6.329   1.708
20346W        W81657   0.308   8.252  10.905
20347W        W81658  31.974  31.148   1.377
20348W        W81659  11.820  21.059  10.090
20349W        W81660  44.771  23.995   1.339
20350W        W81661  42.801  39.406  10.541
20351W        W81662  42.435  43.783  11.968
20352W        W81663  17.607   2.331   1.828
20353W        W81664  28.510  44.878   0.450
20354W        W81665  16.152  18.263  14.326
20355W        W81666  12.669  12.703   1.324
20356W        W81667   1.912  33.948   3.162
20357W        W81668  23.046  23.133   0.380
20358W        W81669   0.309   8.341   4.635
20359W        W81670   8.336  33.909  10.524
20360W        W81671  32.928  16.113  12.013
20361W        W81672  36.977  42.393  13.347
20362W        W81673  43.443  24.635  12.828
20363W        W81674   0.464  21.723  11.982
20364W        W81675  29.447  23.012  14.952
20365W        W81676  31.905  10.299  10.987
20366W        W81677  12.645  42.487   3.286
20367W        W81678  26.042  26.546   4.323
20368W        W81679  41.523  44.360  14.451
20369W        W81680  38.025  12.627  14.835
20370W        W81681  36.900   8.197   0.863
20371W        W81682  39.907   2.259   1.316
20372W        W81683  24.685   8.839   0.904
20373W        W81684  10.330  23.676   2.302
20374W        W81685  42.368  33.510  10.539
20375W        W81686  42.824  23.556  14.910
20376W        W81687  38.379   6.285   2.737
20377W        W81688  12.754  17.075  12.492
20378W        W81689  33.942   3.235   1.913
20379W        W81690  26.999   3.720  10.958
20380W        W81691  10.372  35.413   0.760
20381W        W81692   8.336  31.971  14.459
20382W        W81693  17.108   6.852   0.763
20383W        W81694  30.586  30.025  13.800
20384W        W81695  31.609  27.541  11.935
20385W        W81696  34.985  26.554  12.830
20386W        W81697   5.300   9.666   0.923
20387W        W81698  33.457   4.850   1.389
20388W        W81699   2.351  11.141   0.409
20389W        W81700  41.888  14.109   4.628
20390W        W81701  36.365  24.651  14.854
20391W        W81702  23.658   4.731  14.785
20392W        W81703  15.808  12.212   2.295
20393W        W81704  44.906  32.055  12.000
20394W        W81705  14.108   2.260  14.489
20395W        W81706  19.624   9.166  13.056
20396W        W81707   1.894  34.466  13.520
20397W        W81708   7.821  35.516  11.458
20398W        W81709  26.143  12.709  12.515
20399W        W81710   0.895   4.393  10.963
20400W        W81711  21.109  37.861  10.132
20401W        W81712  40.852  13.144   3.746
20402W        W81713  43.976   0.895   1.881
20403W        W81714   9.209  35.852  14.864
20404W        W81715  41.510   3.711  13.888
20405W        W81716  23.724  28.576   1.229
20406W        W81717  24.006  21.525  11.066
20407W        W81718   3.930   3.816  10.921
20408W        W81719  38.985  38.501   5.582
20409W        W81720  43.326  21.186  13.834
20410W        W81721  35.451   4.204   3.300
20411W        W81722  22.664  14.326   3.336
20412W        W81723   6.704  28.515   0.802
20413W        W81724  43.411  34.493  14.403
20414W        W81725  39.896  40.471  13.322
20415W        W81726  19.684  13.826   0.905
20416W        W81727  30.019   4.424   3.688
20417W        W81728  15.765   1.925  11.993
20418W        W81729  32.937  27.529  11.963
20419W        W81730  11.722  16.577   4.130
20420W        W81731  10.771   2.349  12.834
20421W        W81732  38.361   1.762   4.750
20422W        W81733   7.774  24.230   4.641
20423W        W81734  24.223  31.075   0.302
20424W        W81735  24.675  38.535   5.180
20425W        W81736  10.869  17.680  14.299
20426W        W81737  31.109  12.728  14.942
20427W        W81738  19.212   5.285   1.347
20428W        W81739  43.771  20.125  12.340
20429W        W81740  43.300   5.775  13.504
20430W        W81741  29.443  24.035   1.349
20431W        W81742  25.699   8.729   5.286
20432W        W81743  15.646   7.311  10.054
20433W        W81744  32.991  28.593  11.394
20434W        W81745   0.409  17.726  14.464
20435W        W81746  20.530  19.232   3.196
20436W        W81747  33.892  11.837  14.010
20437W        W81748  10.302  43.767   2.835
20438W        W81749  31.925  36.389   0.959
20439W        W81750  23.557  10.241  13.986
20440W        W81751   7.364  23.512  14.476
20441W        W81752  38.468   4.750   1.699
20442W        W81753   8.741  33.031  12.973
20443W        W81754   8.659  14.123   0.839
20444W        W81755  27.521  37.523  14.440
20445W        W81756   6.871   7.182   4.762
20446W        W81757  23.551  17.571  14.506
20447W        W81758  23.588  28.171   5.806
20448W        W81759  19.199  25.663   4.280
20449W        W81760  41.955  11.835   3.820
20450W        W81761  43.873  20.741   4.353
20451W        W81762  15.167  33.013   3.328
20452W        W81763  10.331  25.078   2.736
20453W        W81764  18.699  39.423   9.542
20454W        W81765  14.691  12.837  14.001
20455W        W81766  28.647  16.178  14.817
20456W        W81767  30.524  29.512  14.290
20457W        W81768  11.207   8.194   2.399
20458W        W81769  20.643   8.221  12.942
20459W        W81770  37.473  41.473  14.958
20460W        W81771  41.837  24.612   2.751
20461W        W81772  12.829  25.086   5.256
20462W        W81773  12.623   1.773   2.334
20463W        W81774   6.382  40.868   1.924
20464W        W81775  26.649   5.300  11.405
20465W        W81776  28.499  39.943  13.808
20466W        W81777  38.019  30.061   5.703
20467W        W81778  44.343  39.384  14.921
20468W        W81779   8.671   5.400  10.477
20469W        W81780  24.147  44.262  11.387
20470W        W81781   4.235  27.117  10.895
20471W        W81782  31.960   8.262   0.896
20472W        W81783   3.810  37.043  13.025
20473W        W81784  41.968  13.208  11.000
20474W        W81785  19.594  36.912  12.876
20475W        W81786   2.836  29.918  12.865
20476W        W81787  35.535  23.134  11.048
20477W        W81788  28.590  34.033  14.355
20478W        W81789  39.814   5.390   4.147
20479W        W81790  36.510  32.014   0.313
20480W        W81791  26.966  30.551  12.986
20481W        W81792  43.393  35.929  14.460
20482W        W81793  32.935  20.672   0.478
20483W        W81794  34.887  26.527   1.376
20484W        W81795  34.436  17.268  14.402
20485W        W81796   4.306  34.996   0.471
20486W        W81797  15.596  30.001  12.542
20487W        W81798  39.348  12.808   5.182
20488W        W81799  27.533   2.314   2.853
20489W        W81800  20.691  12.301   1.319
20490W        W81801  25.524  24.096   3.217
20491W        W81802  18.080  44.853  13.342
20492W        W81803  44.500  10.213   4.763
20493W        W81804   9.785  19.747   2.781
20494W        W81805   7.232  36.409  11.491
20495W        W81806  19.051  33.456  14.930
20496W        W81807  30.529  22.089   2.757
20497W        W81808   5.309  35.860  11.600
20498W        W81809  10.851  34.376  13.982
20499W        W81810  24.219  36.083   1.888
20500W        W81811  38.949  44.504  12.950
20501W        W81812  21.219  13.167   3.331
20502W        W81813  18.555  23.026  12.972
20503W        W81814  43.461  33.048   2.276
20504W        W81815   8.276  23.073  14.870
20505W        W81816   5.932  37.084   4.647
20506W        W81817  14.160  16.599  13.799
20507W        W81818  22.622   1.889   2.281
20508W        W81819  22.680  33.609  10.139
20509W        W81820   4.403  22.206  10.617
20510W        W81821  38.485  43.829  12.871
20511W        W81822  20.573   6.689  12.077
20512W        W81823  37.886  31.428   2.874
20513W        W81824  20.724  32.506  10.911
20514W        W81825   3.460  36.384  11.607
20515W        W81826   5.380  21.571   0.864
20516W        W81827  24.102  14.718  11.964
20517W        W81828  39.906  10.723  11.389
20518W        W81829  36.063  23.145  12.383
20519W        W81830  19.767   4.879  13.042
20520W        W81831  21.101  27.521   0.965
20521W        W81832  21.048  27.962  12.086
20522W        W81833  39.524  28.983  13.439
20523W        W81834  23.158  10.871  12.921
20524W        W81835  29.604  29.993  14.799
20525W        W81836   7.825   3.879   2.404
20526W        W81837  14.276  41.319  13.418
20527W        W81838   5.351  38.955  13.953
20528W        W81839  16.739  18.180  11.534
20529W        W81840  43.793  23.189  13.395
20530W        W81841   7.837  25.612  13.942
20531W        W81842  39.404  39.985  10.425
20532W        W81843  15.109  43.015  11.967
20533W        W81844  10.150   9.267   3.661
20534W        W81845   6.818  42.453  11.474
20535W        W81846  16.195  25.022  13.830
20536W        W81847  25.584   5.829   1.345
20537W        W81848   4.872  28.040  11.977
20538W        W81849  12.205   0.366   2.254
20539W        W81850  38.851  16.150   3.866
20540W        W81851  12.167  36.396  12.507
20541W        W81852   4.434  41.898   3.760
20542W        W81853  10.699  27.137   3.166
20543W        W81854   2.895  30.099   4.158
20544W        W81855  11.158  23.545  11.089
20545W        W81856  24.578  11.228  10.517
20546W        W81857  29.567  20.651  11.063
20547W        W81858   1.894   2.851  11.414
20548W        W81859  44.289  15.692  10.010
20549W        W81860  19.251   0.382   3.258
20550W        W81861  40.385  37.498   0.860
20551W        W81862  42.839  37.895  11.544
20552W        W81863  29.616  31.137   2.727
20553W        W81864   2.737   8.309  12.092
20554W        W81865   1.871   8.686   2.732
20555W        W81866  33.561  26.572  12.847
20556W        W81867  31.438  19.673  14.316
20557W        W81868  10.308  30.953  12.468
20558W        W81869  25.990  12.615   0.730
20559W        W81870  38.876  35.425   4.143
20560W        W81871  42.857  36.081   1.288
20561W        W81872  35.913  19.083   0.287
20562W        W81873  26.476  32.462   2.382
20563W        W81874   6.373   4.207  10.464
20564W        W81875  23.622  40.829  10.922
20565W        W81876  37.971  23.531   3.825
20566W        W81877   5.312  23.102   0.451
20567W        W81878  12.300  38.850   1.907
20568W        W81879  35.589  23.607  13.334
20569W        W81880   2.379  40.041  13.507
20570W        W81881  41.966  25.979  14.515
20571W        W81882  26.569  19.140  14.312
20572W        W81883  35.365  44.476  12.077
20573W        W81884  40.991  38.336   0.834
20574W        W81885  32.964  40.846  13.891
20575W        W81886  34.946  13.758   4.798
20576W        W81887  12.165  36.952   1.761
20577W        W81888  42.375  33.973   1.919
20578W        W81889  21.714  21.198  14.341
20579W        W81890  14.793   8.179   4.646
20580W        W81891   9.889   4.342   4.272
20581W        W81892  43.387   3.424  11.534
20582W        W81893  34.413   3.931   1.775
20583W        W81894  26.981  19.286   0.328
20584W        W81895  41.518  11.163  10.641
20585W        W81896  31.013  14.104  14.422
20586W        W81897  44.870  24.976  12.523
20587W        W81898  44.323  34.943   4.605
20588W        W81899   0.443  41.857   1.246
20589W        W81900   4.445  41.412  10.456
20590W        W81901   7.763   3.910   1.282
20591W        W81902  12.631  32.082   4.229
20592W        W81903  10.328   9.761   2.268
20593W        W81904  14.136  37.418  11.018
20594W        W81905  26.694   7.366   4.633
20595W        W81906   4.225   5.392  12.361
20596W        W81907  31.024  14.321   4.694
20597W        W81908  16.780  38.328   0.366
20598W        W81909  29.431   2.862   0.308
20599W        W81910  30.652  25.544   0.846
20600W        W81911  41.329   6.813   0.932
20601W        W81912  18.594  44.827   1.264
20602W        W81913  26.576   9.344  13.928
20603W        W81914  23.677  15.320   2.822
20604W        W81915  28.932  17.212  12.452
20605W        W81916  22.507   0.344   0.317
20606W        W81917  40.482  18.069  10.568
20607W        W81918  11.235  11.786   2.217
20608W        W81919   0.311  36.399  13.929
20609W        W81920   0.405  12.806  12.029
20610W        W81921  22.221  14.299   1.825
20611W        W81922   3.248  36.428   4.133
20612W        W81923   4.785   8.261  11.524
20613W        W81924  27.023  14.299  14.899
20614W        W81925  23.084  42.847   3.806
20615W        W81926  38.841  21.606  12.563
20616W        W81927  12.220  15.149   1.777
20617W        W81928  39.362  26.115   2.705
20618W        W81929  29.435   6.203  12.035
20619W        W81930  26.527  42.809   4.128
20620W        W81931  38.029  21.634   0.454
20621W        W81932   4.292  15.185   4.347
20622W        W81933  34.100  20.661   3.767
20623W        W81934   0.381  11.731  14.773
20624W        W81935  40.431  20.132  12.888
20625W        W81936   2.281  17.267  12.878
20626W        W81937   5.239  33.482  14.274
20627W        W81938  40.477  24.590   1.833
20628W        W81939  42.484  42.783   3.283
20629W        W81940  37.442  24.218  11.475
20630W        W81941  12.160  29.607  14.790
20631W        W81942  13.239  19.131   2.291
20632W        W81943  28.159   7.758  10.584
20633W        W81944   0.885  36.977  12.515
20634W        W81945   9.778  31.555   1.784
20635W        W81946  39.910  39.359   0.250
20636W        W81947   2.865  29.569   2.312
20637W        W81948  28.952  26.507  13.331
20638W        W81949  42.969  14.295   1.356
20639W        W81950  11.146  42.512   4.260
20640W        W81951  37.881  29.013   3.270
20641W        W81952   4.765   1.334  14.854
20642W        W81953  23.606  27.108  12.524
20643W        W81954  38.831  16.250  12.522
20644W        W81955   0.919   6.220  10.418
20645W        W81956   6.823  10.217  10.598
20646W        W81957   2.755  13.162   2.373
20647W        W81958  25.067  38.411  10.898
20648W        W81959   3.956  26.482   1.324
20649W        W81960  13.302  33.564   3.842
20650W        W81961   8.736   0.874   0.780
20651W        W81962  22.531  21.041   0.284
20652W        W81963  22.192   6.702  13.898
20653W        W81964  37.970   0.299   4.812
20654W        W81965  42.896   1.955  10.508
20655W        W81966   1.968  20.130  11.116
20656W        W81967  23.153   4.732   3.735
20657W        W81968  17.262  18.255  14.374
20658W        W81969  21.664   8.184  11.429
20659W        W81970   1.795  35.074   0.337
20660W        W81971  29.668   3.228   0.795
20661W        W81972  14.215   5.305   4.822
20662W        W81973  24.111   4.943  13.872
20663W        W81974  44.971  44.309   4.247
20664W        W81975   2.280  12.705  11.571
20665W        W81976  18.748  13.701  12.909
20666W        W81977  22.686  17.753  14.406
20667W        W81978   3.278  40.904   1.328
20668W        W81979  16.207  32.462   2.870
20669W        W81980  34.908  16.234  10.635
20670W        W81981  37.547   9.215  12.578
20671W        W81982  12.715  26.672   3.772
20672W        W81983  28.948  22.999  14.886
20673W        W81984  36.365  26.173  12.475
20674W        W81985  17.166  44.798  13.398
20675W        W81986  34.937  29.575  12.045
20676W        W81987  29.136  29.609  10.998
20677W        W81988  38.912  19.644  11.542
20678W        W81989   0.954   3.242  13.392
20679W        W81990  44.859  28.585   0.740
20680W        W81991  43.963  26.146  13.917
20681W        W81992  39.046   0.392  11.923
20682W        W81993  20.693  16.121  11.515
20683W        W81994  29.082   5.741  11.525
20684W        W81995   1.901  13.795   4.164
20685W        W81996  26.030  24.172  14.780
20686W        W81997  42.293  26.083   4.125
20687W        W81998  16.595  12.729  11.552
20688W        W81999  22.603   2.805   0.839
20689W        W82000   0.923   4.769   0.851
20690W        W82001  36.899  22.072   0.910
20691W        W82002   1.367  14.188   3.817
20692W        W82003  25.637   6.301   0.953
20693W        W82004  40.934  22.505   1.409
20694W        W82005  24.528   6.767  14.004
20695W        W82006  29.049  36.466  11.574
20696W        W82007  23.052   8.234   1.290
20697W        W82008  22.692  23.539  10.105
20698W        W82009  42.890  17.152   3.345
20699W        W82010   2.931   9.312  14.464
20700W        W82011  32.437  25.059   2.348
20701W        W82012  15.780  16.641  12.570
20702W        W82013   6.302   0.979  10.429
20703W        W82014  12.622  34.522  12.403
20704W        W82015  21.593  10.242  12.579
20705W        W82016  14.629  26.463   0.841
20706W        W82017  21.116   4.929   1.802
20707W        W82018  31.488   0.491  12.872
20708W        W82019  30.973   8.236  13.394
20709W        W82020   6.828   8.246   3.207
20710W        W82021  22.535   5.354  11.860
20711W        W82022  15.662  22.069   4.347
20712W        W82023   2.304   9.249  13.372
20713W        W82024  15.182  42.290  13.801
20714W        W82025  44.848  12.282   1.896
20715W        W82026   5.729  20.605  13.435
20716W        W82027  11.669  12.257   4.653
20717W        W82028  28.585  44.793   4.176
20718W        W82029   3.882  27.490  11.602
20719W        W82030  40.860  34.506  12.024
20720W        W82031  39.815   7.221   0.349
20721W        W82032  35.360  41.443  12.046
20722W        W82033  26.977   9.645   4.335
20723W        W82034  29.090  35.858   1.324
20724W        W82035  36.562   4.822  13.799
20725W        W82036  39.862  20.034   3.339
20726W        W82037  11.186   9.789   2.887
20727W        W82038  34.011  14.225  12.833
20728W        W82039   8.703  28.649   2.735
20729W        W82040  13.751  12.131  13.828
20730W        W82041  39.531  41.971  14.329
20731W        W82042  16.811  19.193  11.986
20732W        W82043  41.532  24.487   0.316
20733W        W82044   8.381  31.528   3.739
20734W        W82045  37.578  22.739  12.864
20735W        W82046  13.607  39.926   1.283
20736W        W82047  34.042  11.653   2.769
20737W        W82048  43.273  28.487  10.599
20738W        W82049   9.798  25.644   2.784
20739W        W82050  26.111  12.333  14.880
20740W        W82051   8.787  43.272   0.247
20741W        W82052  43.792   1.952   1.819
20742W        W82053  24.533  31.475  13.441
20743W        W82054  28.185  38.511  10.429
20744W        W82055  17.681   7.334   4.345
20745W        W82056  27.606  26.698   2.375
20746W        W82057  44.931  41.304   1.712
20747W        W82058  34.460  44.858  11.057
20748W        W82059  15.788  28.036  12.984
20749W        W82060   4.422   7.896  13.503
20750W        W82061  16.693   5.715   4.791
20751W        W82062  19.250  36.870   1.319
20752W        W82063   8.390  13.203   0.301
20753W        W82064   6.250  39.014   2.728
20754W        W82065  28.050  29.518   1.287
20755W        W82066  41.395   1.318   0.758
20756W        W82067  14.700  44.386   2.798
20757W        W82068   2.813  32.100   0.881
20758W        W82069  30.497  42.291   3.370
20759W        W82070  21.621  17.646   1.914
20760W        W82071  10.802  26.663   1.821
20761W        W82072  41.513  33.955   2.689
20762W        W82073  15.806  18.654  14.513
20763W        W82074  28.969  34.462  10.555
20764W        W82075  37.463  10.384  12.011
20765W        W82076  25.069  39.340  12.403
20766W        W82077  40.377   9.262   2.780
20767W        W82078  33.962  28.090  13.892
20768W        W82079  41.826  42.815  14.782
20769W        W82080  21.137   3.456  13.011
20770W        W82081  44.265  30.560   2.832
20771W        W82082  36.489   0.363   2.327
20772W        W82083  24.698  29.109   2.388
20773W        W82084  42.477  38.478   3.306
20774W        W82085  15.324  36.057  10.598
20775W        W82086  25.528  27.107   4.702
20776W        W82087  25.612  18.626   5.595
20777W        W82088  18.622  29.497   4.261
20778W        W82089   5.881  17.687  11.973
20779W        W82090   7.874  25.600   4.176
20780W        W82091  41.412  39.338  10.476
20781W        W82092  24.198  29.010   9.621
20782W        W82093  26.531  11.234  10.931
20783W        W82094  32.457  36.948  14.897
20784W        W82095  39.902  32.545   3.854
20785W        W82096  13.336  33.382  10.529
20786W        W82097   7.303  33.428  10.447
20787W        W82098  25.977  16.723  14.817
20788W        W82099   3.948  26.162  13.805
20789W        W82100  19.565  36.006  10.597
20790W        W82101  35.998   6.920  10.640
20791W        W82102  16.789  23.501  10.983
20792W        W82103  43.311  40.926   2.770
20793W        W82104  41.431   8.703   1.706
20794W        W82105  11.627  18.138  13.461
20795W        W82106  20.256  41.532  13.446
20796W        W82107  22.104  44.915   1.803
20797W        W82108  13.843  30.591   1.301
20798W        W82109  14.284  37.876   0.889
20799W        W82110  31.925   5.738   1.816
20800W        W82111  24.124  27.101   2.772
20801W        W82112  31.407  43.848  10.986
20802W        W82113  32.951   3.354  13.406
20803W        W82114   6.838  22.503  14.407
20804W        W82115  29.055   0.375  12.352
20805W        W82116  25.695  44.366  13.044
20806W        W82117  10.199  26.515  11.861
20807W        W82118  38.556  19.252  13.954
20808W        W82119  36.072  13.208  11.876
20809W        W82120   0.916  21.027  12.439
20810W        W82121  19.626  40.498   2.251
20811W        W82122   6.394   2.755   3.176
20812W        W82123  11.210  32.628   0.402
20813W        W82124   4.769   7.290  14.016
20814W        W82125   6.681  16.693   1.317
20815W        W82126   8.696  27.517   0.864
20816W        W82127   9.858  20.622   1.773
20817W        W82128  40.425  43.304   2.715
20818W        W82129  29.082  44.331  10.509
20819W        W82130  38.546  25.141   0.322
20820W        W82131  15.116  44.260   2.233
20821W        W82132  10.293  32.408   2.376
20822W        W82133  15.792  10.259   4.342
20823W        W82134  10.188  43.898  10.418
20824W        W82135  34.575  22.121  12.019
20825W        W82136  12.654   9.785  13.869
20826W        W82137  23.135  29.048  13.338
20827W        W82138  26.582   4.913  12.863
20828W        W82139   8.723  40.453  14.299
20829W        W82140  18.143   5.202   9.513
20830W        W82141  40.418  17.798   2.238
20831W        W82142  32.142  39.443   2.850
20832W        W82143   9.705  21.682   1.358
20833W        W82144  36.071  30.454   0.944
20834W        W82145  15.819  23.178   1.847
20835W        W82146  27.660  28.184   2.713
20836W        W82147  31.029   7.341  13.412
20837W        W82148   6.401  30.426   2.213
20838W        W82149  20.556  26.516   3.770
20839W        W82150   6.418   2.940   0.301
20840W        W82151  42.841  11.186  10.531
20841W        W82152  17.236  42.001  11.022
20842W        W82153  28.170  42.892   2.395
20843W        W82154  14.719  27.572  12.052
20844W        W82155  35.930  22.523   1.701
20845W        W82156  30.997  20.110   1.361
20846W        W82157   9.850  18.240   9.524
20847W        W82158  17.627   5.322   2.354
20848W        W82159   4.369  11.773   3.781
20849W        W82160  41.406   1.403   1.788
20850W        W82161  16.316  14.615  13.937
20851W        W82162  17.592  20.751   0.287
20852W        W82163   3.830   5.865  14.811
20853W        W82164   2.471  14.182   2.857
20854W        W82165   4.444  28.061   3.686
20855W        W82166  42.981   3.905  13.891
20856W        W82167  35.466  14.735  13.499
20857W        W82168  41.848   1.731  10.448
20858W        W82169  14.733  10.771  10.500
20859W        W82170  35.487   0.823   0.392
20860W        W82171  14.202  15.592  14.922
20861W        W82172  11.785   8.353   4.132
20862W        W82173  23.624   9.650  12.447
20863W        W82174  15.632  36.990   2.292
20864W        W82175  44.904   8.251  11.108
20865W        W82176  19.541  35.858   3.221
20866W        W82177  34.029  30.022   4.769
20867W        W82178   2.906  10.381  14.505
20868W        W82179  34.013  14.288   3.336
20869W        W82180  22.132   0.888  13.860
20870W        W82181  33.043   3.280   0.473
20871W        W82182  16.316   8.755  13.794
20872W        W82183  41.958  14.248  10.026
20873W        W82184  34.992   2.918   2.326
20874W        W82185  16.121  33.995   3.384
20875W        W82186  21.733  41.361  10.014
20876W        W82187  38.063  38.375  12.991
20877W        W82188  23.143   6.295  10.423
20878W        W82189  41.528  44.967   4.254
20879W        W82190   5.402  32.546   2.705
20880W        W82191  23.674  38.906   0.817
20881W        W82192  42.329  27.625  12.961
20882W        W82193   2.451  29.030  11.493
20883W        W82194  34.088  10.733   1.698
20884W        W82195  26.473   2.265   5.107
20885W        W82196  23.628  31.430  12.383
20886W        W82197  10.692  43.306   4.186
20887W        W82198  10.729  23.138   2.301
20888W        W82199  27.540  14.718   2.668
20889W        W82200  44.889  34.055   0.462
20890W        W82201  38.846   0.445  10.017
20891W        W82202   6.267  39.991  12.421
20892W        W82203  12.776   9.254  14.298
20893W        W82204  39.542  41.953   2.898
20894W        W82205  24.090  34.932   4.284
20895W        W82206  33.572   4.716  12.394
20896W        W82207  20.558  23.098  13.314
20897W        W82208   9.223  22.685  14.025
20898W        W82209  28.089  29.485  12.467
20899W        W82210   7.799  15.644  14.819
20900W        W82211  17.616  23.034  14.478
20901W        W82212  14.222  26.554  13.377
20902W        W82213  21.553   9.884   1.257
20903W        W82214  18.053  37.423  13.499
20904W        W82215  42.379  25.025   0.306
20905W        W82216  24.677  31.411  11.416
20906W        W82217  16.713  27.187  14.835
20907W        W82218  29.998  43.322  13.059
20908W        W82219  14.711  44.942   1.807
20909W        W82220   2.868   5.235  12.433
20910W        W82221  16.708  32.617   1.422
20911W        W82222  19.644   2.388   4.336
20912W        W82223  42.337  39.350   1.300
20913W        W82224  31.438  34.553   1.253
20914W        W82225  15.642  16.223  10.612
20915W        W82226  16.283  34.046   0.258
20916W        W82227   2.900  10.724   2.898
20917W        W82228   6.808  36.898   4.212
20918W        W82229  40.880  21.198   1.416
20919W        W82230  10.721  16.602   2.751
20920W        W82231  24.595  29.152   3.705
20921W        W82232   3.275  29.069  13.961
20922W        W82233  13.138  18.092  13.498
20923W        W82234  28.512  43.491  12.001
20924W        W82235  33.605   6.193  13.454
20925W        W82236  28.186   8.255   1.218
20926W        W82237  32.141   2.259  11.961
20927W        W82238   5.262  39.404  13.050
20928W        W82239  22.010  42.335  14.428
20929W        W82240  11.308   6.903   4.123
20930W        W82241  43.432  11.775   1.318
20931W        W82242   8.202   6.706  12.442
20932W        W82243  44.823   2.260   4.221
20933W        W82244  37.460  44.889  14.880
20934W        W82245  35.041  26.014   0.462
20935W        W82246  28.148  32.579   0.862
20936W        W82247  10.160  17.774   0.438
20937W        W82248  38.006  20.203  13.041
20938W        W82249  37.399   4.405  13.341
20939W        W82250  34.481   3.369   4.266
20940W        W82251  34.509   8.832  11.867
20941W        W82252  40.487  12.780   0.880
20942W        W82253  13.723   7.898   1.359
20943W        W82254  13.216   9.305   3.799
20944W        W82255   2.725  30.067   0.777
20945W        W82256   8.278   8.737  14.979
20946W        W82257  24.593  25.500   2.370
20947W        W82258  39.325  14.666   3.287
20948W        W82259  17.795  29.969  12.979
20949W        W82260  25.963   9.312  12.873
20950W        W82261  32.581  11.707   3.255
20951W        W82262   7.769   5.239   4.113
20952W        W82263  44.501  12.677  14.355
20953W        W82264  43.475  16.278   2.398
20954W        W82265   6.737  35.384   0.463
20955W        W82266  15.655  44.478  14.330
20956W        W82267   6.784  33.456  11.423
20957W        W82268  39.856  19.257  12.356
20958W        W82269  28.566   9.355   5.092
20959W        W82270  44.468  11.134   9.961
20960W        W82271  16.782  29.474  12.043
20961W        W82272  12.786   3.725   0.391
20962W        W82273  25.623  35.034  10.555
20963W        W82274  32.562  11.665   2.348
20964W        W82275  41.971  38.018  13.525
20965W        W82276   1.420  29.477  11.099
20966W        W82277   4.254   1.737  13.319
20967W        W82278  17.288  19.741   0.947
20968W        W82279   8.235  24.692  12.537
20969W        W82280  42.381  38.044  12.038
20970W        W82281  41.325  38.059  11.404
20971W        W82282  37.960  15.665  14.359
20972W        W82283  38.886  22.253  14.467
20973W        W82284  43.960   1.313  11.973
20974W        W82285  27.032  39.362  14.996
20975W        W82286   9.809   0.964   4.638
20976W        W82287   6.342  11.226   3.151
20977W        W82288  40.957  29.161   1.701
20978W        W82289  29.596   5.774  13.954
20979W        W82290  25.087   6.372  14.024
20980W        W82291  41.326  27.467  12.073
20981W        W82292   6.713  18.620   5.095
20982W        W82293  27.691  21.056  12.846
20983W        W82294  39.836   6.300   0.480
20984W        W82295   7.769  15.751   2.689
20985W        W82296   5.335  29.990  10.996
20986W        W82297  44.760  23.157   3.633
20987W        W82298  39.431   1.925  14.394
20988W        W82299  13.251   1.434  12.957
20989W        W82300  14.776  18.754  10.971
20990W        W82301  29.042  12.663  13.525
20991W        W82302  31.915  17.559  11.095
20992W        W82303  43.349  38.872  10.595
20993W        W82304   0.835  43.781   1.725
20994W        W82305   9.764  26.482   1.323
20995W        W82306  36.498   5.808  13.854
20996W        W82307  12.737  39.894   4.158
20997W        W82308  26.108  39.991   2.213
20998W        W82309   7.281  21.206  11.888
20999W        W82310  24.531   0.424   1.427
21000W        W82311  23.053  43.920   1.370
21001W        W82312   0.459  41.299   1.749
21002W        W82313  42.290  12.855  10.454
21003W        W82314   5.833  15.106   3.226
21004W        W82315  41.364  32.543   0.461
21005W        W82316  34.579  15.137   0.444
21006W        W82317  28.513  20.104  13.873
21007W        W82318  18.081  16.305   5.084
21008W        W82319  39.446  20.192   0.333
21009W        W82320  42.307  16.791  14.389
21010W        W82321  42.826   2.846   2.278
21011W        W82322  41.991  13.173   0.821
21012W        W82323  31.118   8.843  12.473
21013W        W82324   6.782  15.661   0.944
21014W        W82325  19.244  37.020   3.247
21015W        W82326  42.954   4.814  12.046
21016W        W82327  13.220  11.127  11.062
21017W        W82328  19.272  19.689   4.186
21018W        W82329  27.997  31.462   1.766
21019W        W82330  35.860  20.745  11.885
21020W        W82331  18.611   0.949  14.362
21021W        W82332  40.923  19.125   2.301
21022W        W82333  11.855  12.621  14.368
21023W        W82334  42.952  23.182   3.658
21024W        W82335  16.079  14.736   0.475
21025W        W82336  24.020  38.876   3.861
21026W        W82337  11.191  29.542  10.900
21027W        W82338  11.245   3.335   4.688
21028W        W82339  27.602  32.126   3.727
21029W        W82340  10.772  35.856  12.088
21030W        W82341  27.061  18.170   2.900
21031W        W82342  13.799   2.774  10.983
21032W        W82343  17.175  12.793   2.815
21033W        W82344  19.637  15.771  10.626
21034W        W82345  21.660  18.562   5.794
21035W        W82346  19.558  43.835   0.787
21036W        W82347  21.660  27.463   3.306
21037W        W82348   4.846   9.284  11.381
21038W        W82349   6.239   7.798  13.359
21039W        W82350   4.747  16.632  12.996
21040W        W82351  19.742  19.732   1.896
21041W        W82352   4.228   2.447   1.731
21042W        W82353  18.574  16.308   4.627
21043W        W82354   2.260  43.009  11.492
21044W        W82355  16.675  14.807   3.674
21045W        W82356  14.704  35.549   3.249
21046W        W82357  38.485   8.731   4.815
21047W        W82358  29.038  25.561  13.369
21048W        W82359  29.952  20.264  14.949
21049W        W82360  13.732  15.176   1.781
21050W        W82361   8.276   9.306   0.322
21051W        W82362   6.413  15.698   3.661
21052W        W82363  40.513  18.710   4.775
21053W        W82364  10.370  36.399   0.918
21054W        W82365  25.107  17.165  12.926
21055W        W82366  27.113  40.799   2.401
21056W        W82367  21.728  25.503   2.699
21057W        W82368  30.422  31.504   3.782
21058W        W82369  34.469  20.178   0.303
21059W        W82370  38.531  11.654   4.645
21060W        W82371   9.293   2.303  12.364
21061W        W82372  15.619  34.986  10.558
21062W        W82373  12.855  28.615   3.742
21063W        W82374  24.084  13.695   2.789
21064W        W82375   4.759  37.880  10.905
21065W        W82376  27.053  29.107  10.148
21066W        W82377  28.450   0.381  14.349
21067W        W82378   2.267   1.442  11.048
21068W        W82379  44.502  10.280   1.450
21069W        W82380  37.053  25.636   4.759
21070W        W82381   7.754  16.211  12.518
21071W        W82382  30.603  42.435  12.433
21072W        W82383   2.264  40.355  14.353
21073W        W82384  36.507  34.485   2.310
21074W        W82385   8.687  10.685  14.497
21075W        W82386  37.985  30.417  12.415
21076W        W82387   2.788  44.905   3.830
21077W        W82388   8.898  19.632  13.380
21078W        W82389  15.166  12.770   2.210
21079W        W82390   0.470  10.689   1.721
21080W        W82391  32.961  18.715   0.940
21081W        W82392   9.663  27.008   4.162
21082W        W82393  13.710  14.599  10.969
21083W        W82394  34.552   8.284  12.489
21084W        W82395  26.020   4.790   0.920
21085W        W82396  16.625  14.809  14.828
21086W        W82397   0.847  13.743   4.116
21087W        W82398  38.874   0.310   1.860
21088W        W82399  18.563   3.835   4.115
21089W        W82400   4.350  21.617  11.460
21090W        W82401   3.720  16.134  12.427
21091W        W82402  22.039   2.887   1.234
21092W        W82403  34.107  19.608   1.771
21093W        W82404   2.464   0.840  14.373
21094W        W82405  43.781  26.127   1.771
21095W        W82406  12.132   7.416  11.474
21096W        W82407  16.593  38.529   1.373
21097W        W82408  30.013  26.613   1.432
21098W        W82409   5.739  16.717   2.267
21099W        W82410  39.539  36.052   0.330
21100W        W82411  33.397  30.465  14.993
21101W        W82412  35.510  44.894   3.238
21102W        W82413  22.211   7.899   1.720
21103W        W82414  28.476  30.492   1.767
21104W        W82415  43.279  42.815   2.403
21105W        W82416  32.043  18.248  14.923
21106W        W82417  35.996  39.949   3.254
21107W        W82418  24.513  32.501   5.171
21108W        W82419  30.937  13.143  11.025
21109W        W82420  28.493   2.944   1.860
21110W        W82421   4.750  36.959  10.542
21111W        W82422  44.909  22.592   4.815
21112W        W82423   4.421  25.608  11.514
21113W        W82424  36.853  32.142  12.949
21114W        W82425  13.762  23.648   2.877
21115W        W82426  28.512  23.001  12.558
21116W        W82427  25.565  26.975  11.463
21117W        W82428  20.173  33.085   3.861
21118W        W82429  15.108  34.956  14.000
21119W        W82430  32.977  22.067  10.446
21120W        W82431  12.785   2.907   3.311
21121W        W82432  15.170  22.710   1.230
21122W        W82433  36.397  35.936  14.953
21123W        W82434  22.159  11.778  11.508
21124W        W82435   1.872  30.073   4.651
21125W        W82436   9.827   8.891  12.961
21126W        W82437  27.554   0.250   2.752
21127W        W82438  16.154  44.463  10.482
21128W        W82439  23.684   4.317   3.156
21129W        W82440  27.556  37.879  11.894
21130W        W82441  24.183   5.825   3.675
21131W        W82442  35.040  42.289  11.479
21132W        W82443  33.546  14.282   3.849
21133W        W82444  39.314  43.927  10.911
21134W        W82445  39.539  37.444  14.882
21135W        W82446  41.321  38.912  11.933
21136W        W82447  29.960  10.750  12.954
21137W        W82448   1.941  41.337  10.639
21138W        W82449  42.351   8.835   0.260
21139W        W82450  24.677  27.536   3.662
21140W        W82451   6.718  25.966   1.707
21141W        W82452  29.074  23.597   0.390
21142W        W82453  31.139  21.740   1.247
21143W        W82454  21.095  23.061  11.569
21144W        W82455  43.020  21.235   3.320
21145W        W82456  32.963   4.926  10.989
21146W        W82457  16.112  21.097  12.399
21147W        W82458   9.374  26.101   4.740
21148W        W82459  30.546  20.162  12.857
21149W        W82460   6.392   5.873   1.278
21150W        W82461  25.530  35.001  12.845
21151W        W82462  27.644   8.213  12.478
21152W        W82463  41.377  21.592   2.895
21153W        W82464   3.814  42.387  14.950
21154W        W82465   4.751  35.954  10.968
21155W        W82466  14.669  24.646  11.529
21156W        W82467   3.221   2.880  13.884
21157W        W82468  33.402  12.679   3.861
21158W        W82469  28.510  41.372   4.727
21159W        W82470  43.017   0.463   0.336
21160W        W82471   5.405  41.829   0.339
21161W        W82472  33.065   9.300  12.839
21162W        W82473  42.329  43.273   4.673
21163W        W82474  42.891  25.993   3.654
21164W        W82475  23.235  27.630   1.852
21165W        W82476  13.336  19.257   1.700
21166W        W82477  39.842  30.949   2.705
21167W        W82478  24.109  40.910   4.234
21168W        W82479  33.526  33.395  13.023
21169W        W82480  10.162  34.005   0.811
21170W        W82481  15.276  20.093  13.935
21171W        W82482   1.754  18.122   0.950
21172W        W82483  27.955  42.918   4.171
21173W        W82484  24.005  22.654  14.951
21174W        W82485  19.713  37.369  11.469
21175W        W82486  32.130   9.364   1.826
21176W        W82487  40.962  23.621   4.629
21177W        W82488  27.037  22.584   1.801
21178W        W82489  26.525   5.256  10.961
21179W        W82490  32.887  11.246   2.706
21180W        W82491   6.214   3.458   0.806
21181W        W82492  11.644  24.231   4.173
21182W        W82493  29.944  44.010  14.002
21183W        W82494   5.427  10.756  12.403
21184W        W82495  34.565  36.896  12.504
21185W        W82496  17.753  23.176   0.793
21186W        W82497  41.396   8.194  12.460
21187W        W82498  40.945  19.734  11.440
21188W        W82499  33.107   2.452  13.336
21189W        W82500  17.065   1.808   4.692
21190W        W82501   5.905  12.116   1.741
21191W        W82502   6.296  30.038  14.012
21192W        W82503   0.803  13.825  13.309
21193W        W82504  27.624  31.490   3.333
21194W        W82505  36.368  32.494   4.140
21195W        W82506  15.264  34.906   3.860
21196W        W82507  18.663  21.085  13.057
21197W        W82508  26.155  41.024   0.935
21198W        W82509   3.794  44.441   3.183
21199W        W82510  10.674  33.045   3.260
21200W        W82511  41.023   1.355   0.308
21201W        W82512  11.703  42.322  13.421
21202W        W82513  28.576  26.953   4.131
21203W        W82514  37.996  25.204   2.726
21204W        W82515  24.997  37.912   4.832
21205W        W82516  13.838  10.259  13.048
21206W        W82517  31.628   8.183   4.278
21207W        W82518  27.033  44.446  10.110
21208W        W82519  24.114  22.591   1.900
21209W        W82520   9.166  19.178  11.462
21210W        W82521  41.809  35.516  13.017
21211W        W82522   5.215  11.855   2.867
21212W        W82523   1.800  42.318  11.018
21213W        W82524   7.218  18.740  12.004
21214W        W82525  24.535   7.900   0.372
21215W        W82526  40.880  30.103   0.782
21216W        W82527  26.463  15.753   1.400
21217W        W82528  39.403  18.292   3.843
21218W        W82529  37.071  30.938   9.467
21219W        W82530   7.183  18.593   4.705
21220W        W82531  13.281  22.156  14.314
21221W        W82532   7.831  35.046   2.223
21222W        W82533  29.668  22.024  14.948
21223W        W82534   3.219  32.939  12.920
21224W        W82535  26.465  17.798  14.467
21225W        W82536  23.579  27.599   3.174
21226W        W82537  23.100  35.897   0.354
21227W        W82538  31.567  34.447  10.984
21228W        W82539  29.152  12.243  13.959
21229W        W82540  23.603  24.016   3.172
21230W        W82541  23.170  14.245   0.753
21231W        W82542  43.768  43.005   1.223
21232W        W82543   4.870  33.575  14.881
21233W        W82544   2.459   0.348   3.680
21234W        W82545  44.782  28.104  10.143
21235W        W82546  14.273   8.813   2.203
21236W        W82547  18.598  17.144  12.579
21237W        W82548   7.319  39.018  11.587
21238W        W82549  10.211   9.702   1.811
21239W        W82550  27.523  25.064   4.152
21240W        W82551  17.148  29.026   0.387
21241W        W82552  10.271   8.376   0.256
21242W        W82553  29.999  10.287   0.937
21243W        W82554  36.466  11.254  10.977
21244W        W82555  38.943  35.890   2.803
21245W        W82556  23.055  24.479  14.942
21246W        W82557  17.556  15.167   2.329
21247W        W82558  15.606   1.976   4.291
21248W        W82559  22.031  31.060   4.349
21249W        W82560  17.076  14.222   3.272
21250W        W82561  14.687  32.979   3.149
21251W        W82562  32.913  15.585   4.810
21252W        W82563  42.897  43.941   1.832
21253W        W82564  31.494  43.430  12.074
21254W        W82565  36.064  10.226  10.633
21255W        W82566   1.925  40.926  11.997
21256W        W82567  34.051  43.876  11.009
21257W        W82568  20.693  17.071   0.382
21258W        W82569  16.210  25.003  11.512
21259W        W82570  33.480  17.592  13.354
21260W        W82571   7.773   0.464   0.268
21261W        W82572  11.138  20.677   0.293
21262W        W82573  37.520  33.454  10.899
21263W        W82574  28.134  11.802   5.157
21264W        W82575   9.867  41.361   4.720
21265W        W82576   0.422   4.315   3.206
21266W        W82577  32.121   4.388  12.563
21267W        W82578  23.221   0.915  14.292
21268W        W82579   3.441  37.002   0.384
21269W        W82580  32.991  36.052  12.083
21270W        W82581  10.700  17.776   2.794
21271W        W82582  42.834  10.812   0.317
21272W        W82583  35.539  25.995  12.824
21273W        W82584  13.271   0.775   1.824
21274W        W82585  23.699  36.504  13.339
21275W        W82586   1.826  15.299  13.890
21276W        W82587  26.168  26.055   1.901
21277W        W82588  44.425  15.098  12.065
21278W        W82589  28.669  10.212  14.367
21279W        W82590   1.451  29.939  11.114
21280W        W82591  32.040   8.861   0.336
21281W        W82592  37.443  28.004   1.816
21282W        W82593  18.617  20.642  10.889
21283W        W82594  12.241  37.447  14.474
21284W        W82595  11.242  17.292  14.896
21285W        W82596   6.843  25.661  14.392
21286W        W82597  24.085  22.534   2.881
21287W        W82598  35.450  38.861   3.265
21288W        W82599  29.077   2.349  12.036
21289W        W82600  25.530  32.126   1.933
21290W        W82601  38.519  26.014   1.751
21291W        W82602  35.048  24.106  13.439
21292W        W82603  14.824  10.290  10.041
21293W        W82604  29.609  28.042   0.779
21294W        W82605  30.471  43.309  14.767
21295W        W82606  40.411  23.650   1.339
21296W        W82607  35.934  36.367   4.645
21297W        W82608  38.376  11.200   0.411
21298W        W82609  31.542  13.697   0.818
21299W        W82610  14.322  11.709   4.258
21300W        W82611  12.674  16.090  14.347
21301W        W82612   8.328  10.211  14.444
21302W        W82613  23.579   0.296  12.519
21303W        W82614  34.555  40.507   3.729
21304W        W82615  33.022  44.825  14.394
21305W        W82616  22.619  13.637  12.390
21306W        W82617  38.432   0.321   3.378
21307W        W82618   1.846  33.394   4.782
21308W        W82619  19.740   2.260   2.417
21309W        W82620  34.438  10.355  14.798
21310W        W82621   2.871  37.839   4.241
21311W        W82622  27.085  20.553  10.616
21312W        W82623   3.443  33.411   3.697
21313W        W82624   3.438   9.770  12.076
21314W        W82625  25.003   1.776  12.349
21315W        W82626  14.167   5.771   4.132
21316W        W82627  31.641  17.649  13.455
21317W        W82628   0.880   4.757   3.708
21318W        W82629   4.839  23.598   4.278
21319W        W82630   2.952  15.214   2.828
21320W        W82631  43.492  32.142  11.475
21321W        W82632  27.610  22.101  13.044
21322W        W82633  20.544  24.135   2.365
21323W        W82634  20.117   4.864  13.021
21324W        W82635  21.582   9.692   2.212
21325W        W82636  36.045  14.187   2.344
21326W        W82637   0.448  43.466  14.362
21327W        W82638  25.472  21.190  14.459
21328W        W82639  32.601  13.237  13.528
21329W        W82640   4.388   4.833   3.328
21330W        W82641  15.761  13.222   1.438
21331W        W82642  19.551  34.540   0.254
21332W        W82643  17.731  13.189   1.917
21333W        W82644  17.238  31.476  12.574
21334W        W82645   8.166  40.516   1.336
21335W        W82646  31.075  18.131   0.308
21336W        W82647   3.924  25.162  12.887
21337W        W82648  22.203   7.350   2.747
21338W        W82649  44.274  33.890   0.904
21339W        W82650  13.758  21.601   9.497
21340W        W82651  38.977   4.750  13.839
21341W        W82652   7.740  17.682  13.962
21342W        W82653  16.275  16.141  10.967
21343W        W82654  13.351   8.824   0.416
21344W        W82655   6.182   9.647  12.048
21345W        W82656  24.518  18.771   2.285
21346W        W82657  14.276  35.005   3.704
21347W        W82658  28.492  24.538  10.960
21348W        W82659  38.333  23.514  13.862
21349W        W82660  31.945  37.963   3.807
21350W        W82661  28.053  29.566  13.359
21351W        W82662  13.263  42.368   4.733
21352W        W82663  22.535  23.594   2.337
21353W        W82664  39.440  13.300  14.385
21354W        W82665   2.453  35.467  13.009
21355W        W82666  31.913  29.942  13.464
21356W        W82667  20.086  37.071  11.550
21357W        W82668  26.185  25.149  11.517
21358W        W82669  12.823  27.466  10.972
21359W        W82670  26.207  28.020  12.970
21360W        W82671  41.822  29.602   2.886
21361W        W82672  19.101  29.092  12.356
21362W        W82673  29.594   7.837   4.691
21363W        W82674  33.879  17.193   3.794
21364W        W82675  18.262  39.507   1.758
21365W        W82676   3.777  10.648   3.158
21366W        W82677  44.366  34.894  13.412
21367W        W82678  26.506   4.827  10.507
21368W        W82679  26.124  30.519   2.713
21369W        W82680  31.445  34.581   4.729
21370W        W82681   8.673  29.061  13.468
21371W        W82682  29.483  24.598   0.870
21372W        W82683  34.098  20.653  10.932
21373W        W82684   2.289  21.213  12.970
21374W        W82685  39.468   1.354  13.882
21375W        W82686  43.417  29.478  14.307
21376W        W82687  30.512   7.175  10.641
21377W        W82688   2.763   9.173   4.202
21378W        W82689  41.426  28.458   0.390
21379W        W82690  24.092  17.555   5.118
21380W        W82691  43.833  10.838   0.903
21381W        W82692  40.891  16.223  11.931
21382W        W82693  28.475  26.536  10.153
21383W        W82694   7.806   3.805   4.247
21384W        W82695  35.600  19.714   4.135
21385W        W82696  10.153  15.691  14.356
21386W        W82697   4.929  39.427   4.166
21387W        W82698  20.724  39.868   9.672
21388W        W82699  40.392  21.676  10.958
21389W        W82700  36.360   1.237  10.926
21390W        W82701  42.526   9.200  14.027
21391W        W82702  25.985   4.714   2.826
21392W        W82703  14.205  27.532   2.831
21393W        W82704  24.031  20.575   4.123
21394W        W82705  25.012  27.646  10.896
21395W        W82706  10.707  33.428   1.697
21396W        W82707  12.228   5.276  13.407
21397W        W82708  28.126   6.718  11.953
21398W        W82709  30.619  11.146   4.734
21399W        W82710  26.182  24.078   4.125
21400W        W82711   7.713  30.641   2.899
21401W        W82712  25.032  12.270   0.349
21402W        W82713  41.842  31.015  13.051
21403W        W82714   5.749  34.564   2.685
21404W        W82715  33.406   4.716   4.244
21405W        W82716  13.291  39.507   3.813
21406W        W82717  10.202  10.773  12.897
21407W        W82718  41.028  18.182  13.531
21408W        W82719  30.105  28.971   3.308
21409W        W82720  26.044   9.821   1.213
21410W        W82721  27.523  26.081  13.408
21411W        W82722  34.483  38.857   4.802
21412W        W82723   1.379  23.704   3.781
21413W        W82724  44.481  10.685  10.890
21414W        W82725   8.811  20.663  14.012
21415W        W82726   2.822  36.465  11.108
21416W        W82727  18.238  23.577   5.142
21417W        W82728  38.519  11.229   1.708
21418W        W82729  39.007  13.607  13.360
21419W        W82730  18.069  35.368  14.018
21420W        W82731  14.334  35.410  13.477
21421W        W82732  13.236  37.373   5.286
21422W        W82733   7.867   6.182  13.836
21423W        W82734  10.774  31.960   3.256
21424W        W82735  41.433  13.239   3.701
21425W        W82736  12.768  11.755   4.721
21426W        W82737  23.525   5.399   3.711
21427W        W82738  10.766  34.958   1.743
21428W        W82739  19.676  18.754  11.930
21429W        W82740  31.530   4.204   0.803
21430W        W82741  29.951  33.987   4.169
21431W        W82742  41.302  15.191  12.505
21432W        W82743   7.842  17.224  11.924
21433W        W82744   1.780  32.985   0.920
21434W        W82745  11.863   9.234  12.405
21435W        W82746  29.127  40.851   2.730
21436W        W82747   2.386  31.971   5.236
21437W        W82748   9.829   4.374  12.906
21438W        W82749  38.860  30.960  10.901
21439W        W82750   0.882   4.741  14.336
21440W        W82751   6.678   5.800   1.910
21441W        W82752   7.759  12.356   0.766
21442W        W82753  43.338  27.051   4.753
21443W        W82754  10.837  14.216  12.398
21444W        W82755  38.075  37.876   0.269
21445W        W82756  43.965  30.623   1.901
21446W        W82757   0.387  31.132   2.396
21447W        W82758  15.303  15.115   1.414
21448W        W82759  39.493   1.928   3.786
21449W        W82760   9.851  41.823  13.382
21450W        W82761  13.764  29.627   2.767
21451W        W82762   9.663   0.810  13.864
21452W        W82763  22.018   7.293   0.914
21453W        W82764  24.992  12.343   1.227
21454W        W82765  12.152   6.864   2.199
21455W        W82766  39.402   2.844  13.796
21456W        W82767  10.815  11.131   0.735
21457W        W82768  18.626   9.872  11.420
21458W        W82769  42.807   6.243   0.781
21459W        W82770  15.325  23.116   2.383
21460W        W82771  17.120  44.449  13.503
21461W        W82772  42.442  14.212  14.779
21462W        W82773  33.490  15.121   4.755
21463W        W82774   2.378   3.860  13.846
21464W        W82775  12.684  29.492  10.511
21465W        W82776   2.370  29.434  11.917
21466W        W82777  32.123  37.898  11.608
21467W        W82778  36.965  31.478   5.191
21468W        W82779  20.590  27.559   2.308
21469W        W82780  28.137  27.134  14.809
21470W        W82781  21.744  42.484  12.832
21471W        W82782  42.377  23.239  11.976
21472W        W82783  44.404  13.271   3.773
21473W        W82784   7.783  44.409  10.915
21474W        W82785  21.740   0.781  14.364
21475W        W82786  33.491  13.176  14.924
21476W        W82787   1.457  31.565   1.231
21477W        W82788  25.108  18.272  13.404
21478W        W82789  34.884  14.203  14.005
21479W        W82790   3.236  28.144  14.285
21480W        W82791  13.244   8.881  13.977
21481W        W82792  32.111  26.561   5.247
21482W        W82793   1.241   0.385  12.086
21483W        W82794  28.114  22.122   4.718
21484W        W82795   5.732  24.216  13.981
21485W        W82796  21.060   5.837  13.883
21486W        W82797  18.633  31.927  10.475
21487W        W82798  13.317  18.558   0.792
21488W        W82799  34.111   0.957  11.017
21489W        W82800   0.311   7.413   1.882
21490W        W82801  11.362  40.009  13.855
21491W        W82802   9.801  26.565  14.420
21492W        W82803  12.158  11.702  12.497
21493W        W82804  16.801  10.329  12.920
21494W        W82805  42.895  18.709   4.616
21495W        W82806  38.950  38.892   4.282
21496W        W82807  25.075  26.998   0.272
21497W        W82808  42.861   5.404   2.247
21498W        W82809  35.405   7.901   1.837
21499W        W82810  36.042   1.385  13.022
21500W        W82811  22.646  44.813   1.771
21501W        W82812  14.272  12.191  12.864
21502W        W82813   3.763  22.604   0.417
21503W        W82814  41.027   5.844   0.406
21504W        W82815  43.492  31.903   0.775
21505W        W82816  13.816   9.377   3.772
21506W        W82817   1.929  10.348  12.855
21507W        W82818  20.125  11.801   3.247
21508W        W82819  30.419   4.801   5.156
21509W        W82820  43.459  28.640  13.916
21510W        W82821  20.143  25.587  12.488
21511W        W82822   4.228  34.968   1.901
21512W        W82823  19.236  19.615   2.370
21513W        W82824  38.008  44.835   0.288
21514W        W82825  18.182   6.368   2.350
21515W        W82826  10.688  39.926  14.895
21516W        W82827   2.459  22.137  12.869
21517W        W82828  31.429  41.967  11.877
21518W        W82829   6.190  32.428  12.525
21519W        W82830  11.779  33.028  14.020
21520W        W82831   0.819  42.366   0.807
21521W        W82832   9.179  10.707   4.776
21522W        W82833  33.890   9.740   3.739
21523W        W82834   1.875  26.481  13.895
21524W        W82835  40.326  15.196  14.830
21525W        W82836  25.982  15.622   3.813
21526W        W82837   2.331  37.565  12.878
21527W        W82838  37.866  19.223  14.350
21528W        W82839  28.081  34.389   1.438
21529W        W82840  18.665  34.563  14.419
21530W        W82841   2.807  22.565  10.960
21531W        W82842  41.538   2.761   0.245
21532W        W82843  30.452  36.967   1.418
21533W        W82844  34.401  41.796  11.022
21534W        W82845   9.322  40.419  14.892
21535W        W82846  28.036  12.829  14.839
21536W        W82847  26.519  29.629   1.832
21537W        W82848   6.744  32.438  10.989
21538W        W82849  31.599  22.088  12.846
21539W        W82850  20.651  42.340   0.356
21540W        W82851  37.383  40.866   0.392
21541W        W82852  23.008  36.846  11.063
21542W        W82853   3.849  23.146   4.246
21543W        W82854  12.840   6.896  14.851
21544W        W82855  28.960   0.930   3.235
21545W        W82856  20.141   4.903  10.917
21546W        W82857  28.593  43.322   0.808
21547W        W82858   4.874  27.473   1.867
21548W        W82859   9.254   8.779   4.789
21549W        W82860   6.263  33.032   2.306
21550W        W82861   1.768  29.537  13.372
21551W        W82862   3.873  18.192   4.220
21552W        W82863  22.020  41.323   4.222
21553W        W82864  37.058  43.994  14.851
21554W        W82865  44.424  14.114  10.929
21555W        W82866  43.769  42.891   0.841
21556W        W82867  38.512   8.657   3.638
21557W        W82868  23.208  14.188   2.771
21558W        W82869   2.810   6.392   4.742
21559W        W82870  29.969  25.091  10.954
21560W        W82871  37.414  37.400   4.250
21561W        W82872  31.911  26.989   2.869
21562W        W82873  30.134  21.621   3.225
21563W        W82874  26.576  26.984  12.549
21564W        W82875   1.251   8.346   2.871
21565W        W82876  38.548  24.483   3.676
21566W        W82877  44.473  23.624   3.341
21567W        W82878  40.472  31.568   3.773
21568W        W82879  36.941  17.617  11.454
21569W        W82880  20.571  41.366  11.006
21570W        W82881   2.822  21.213  12.504
21571W        W82882  16.702  41.310   1.812
21572W        W82883  34.972  31.414  14.030
21573W        W82884  30.654  34.560   3.654
21574W        W82885  28.453  25.181   2.285
21575W        W82886  17.305  28.022  13.839
21576W        W82887  22.617  42.513  14.478
21577W        W82888  42.801  34.464   0.442
21578W        W82889  27.467  38.513   4.262
21579W        W82890  42.984  33.483   2.231
21580W        W82891  29.105  21.592  12.917
21581W        W82892  37.558  39.521   0.395
21582W        W82893  31.562  15.179   2.343
21583W        W82894  29.962  25.206  12.563
21584W        W82895  19.177   4.213  12.410
21585W        W82896  28.957  12.242   3.825
21586W        W82897  35.946  20.114  12.953
21587W        W82898  21.128   4.331  12.537
21588W        W82899  16.235  14.136   0.392
21589W        W82900  44.384  13.168  14.767
21590W        W82901  39.520  27.690  12.093
21591W        W82902  26.605   8.857  13.473
21592W        W82903  29.099  13.834  11.925
21593W        W82904  41.877  33.488   1.222
21594W        W82905  19.752  24.505   0.754
21595W        W82906   0.777   3.395  10.133
21596W        W82907  15.743  35.455   3.718
21597W        W82908   3.807  25.555   2.744
21598W        W82909  20.067  27.155   1.419
21599W        W82910  11.836  15.640   3.339
21600W        W82911  10.179  10.808  14.318
21601W        W82912  25.488   5.316  10.925
21602W        W82913   2.244  30.428  10.457
21603W        W82914  40.478   8.815   1.239
21604W        W82915  34.391   0.382  10.573
21605W        W82916  39.844  31.607   3.340
21606W        W82917  43.002  22.009  10.992
21607W        W82918  30.578  21.028   1.743
21608W        W82919   0.803  16.286   0.411
21609W        W82920   5.256  29.162   0.931
21610W        W82921  29.525  43.513   0.807
21611W        W82922  20.755  33.024  11.005
21612W        W82923  35.404  21.145   3.303
21613W        W82924  42.859   6.695  14.349
21614W        W82925  42.479  14.097   4.314
21615W        W82926  37.411   5.253  11.938
21616W        W82927   4.936   7.239  11.476
21617W        W82928  16.223  25.669   2.790
21618W        W82929  26.042  39.462   0.452
21619W        W82930   0.940  27.559  12.976
21620W        W82931   2.852   0.807   1.906
21621W        W82932   9.840  22.706   4.837
21622W        W82933  35.511   9.168   4.732
21623W        W82934  18.073  33.586  12.877
21624W        W82935  36.561   2.743  11.107
21625W        W82936  44.435  26.101  11.055
21626W        W82937  32.017  23.499  14.021
21627W        W82938  39.385  41.880   1.417
21628W        W82939  17.672  24.025   2.347
21629W        W82940   7.380  22.050  11.968
21630W        W82941  25.087   2.764  11.997
21631W        W82942  14.633  37.469  10.406
21632W        W82943  15.249  19.562   0.264
21633W        W82944   1.296  25.017  11.931
21634W        W82945  43.852   2.901   3.848
21635W        W82946   6.249   6.329   4.810
21636W        W82947  25.606  34.527   4.118
21637W        W82948  14.132  39.402  14.337
21638W        W82949  12.767  26.686  10.949
21639W        W82950  41.990  31.511   2.328
21640W        W82951   7.309   7.732   3.381
21641W        W82952   9.740  24.594   2.382
21642W        W82953  30.966  42.526  12.956
21643W        W82954  44.345  34.104  12.915
21644W        W82955  20.556  33.107  14.470
21645W        W82956  36.070  38.373   5.735
21646W        W82957  40.441  39.403   4.746
21647W        W82958  18.065   9.379   2.893
21648W        W82959   3.759   8.806  13.950
21649W        W82960   9.887  18.654   2.846
21650W        W82961   3.283  28.438  13.804
21651W        W82962   9.229   1.249   3.863
21652W        W82963  37.571  33.456  11.946
21653W        W82964   8.884  28.972   1.220
21654W        W82965   7.299  29.466  11.507
21655W        W82966  18.264  38.542  11.959
21656W        W82967  44.454   4.373   3.718
21657W        W82968  38.437  28.946   0.249
21658W        W82969  13.279  15.731   3.259
21659W        W82970  32.418   6.361   1.926
21660W        W82971  16.624  36.421   1.857
21661W        W82972  25.146  25.206  10.604
21662W        W82973   7.365   8.827  13.420
21663W        W82974  37.385  35.911   3.379
21664W        W82975  36.536  43.863  11.519
21665W        W82976  16.652   1.762  12.485
21666W        W82977  40.512  41.409  12.905
21667W        W82978  19.725  11.161   2.775
21668W        W82979  15.734  21.238   4.632
21669W        W82980   5.198  27.594   3.657
21670W        W82981  27.624  13.262  13.434
21671W        W82982  44.486  44.424  14.001
21672W        W82983  26.098  26.488  13.499
21673W        W82984  40.307   7.890  10.585
21674W        W82985   1.237  34.896  12.568
21675W        W82986  29.029   5.360   1.332
21676W        W82987  14.705   5.823   2.847
21677W        W82988  39.539  37.362   0.943
21678W        W82989   7.181  12.180  10.579
21679W        W82990  27.628   9.319   1.730
21680W        W82991  27.101  10.712  10.619
21681W        W82992   1.933  15.786  13.811
21682W        W82993  33.451  11.696  11.943
21683W        W82994  30.084  34.376   1.905
21684W        W82995   6.716  23.515  14.933
21685W        W82996  22.026  20.239  14.450
21686W        W82997  20.054  20.721  12.438
21687W        W82998  27.088  40.532   3.754
21688W        W82999   6.410  22.197  11.374
21689W        W83000  24.664  40.475   3.382
21690W        W83001  15.788  24.578  10.623
21691W        W83002  19.269  15.729   3.153
21692W        W83003  42.845  38.399  14.494
21693W        W83004  37.053  14.238  13.871
21694W        W83005   1.257  22.152  12.085
21695W        W83006  10.639  31.128  10.580
21696W        W83007  43.404   8.810  14.370
21697W        W83008  34.909   4.331  11.589
21698W        W83009  14.338   5.746   3.798
21699W        W83010  35.427  14.336  10.976
21700W        W83011   7.256  26.205   2.776
21701W        W83012  31.588   2.393   1.412
21702W        W83013  42.982   0.860  12.965
21703W        W83014   4.229  40.976   0.388
21704W        W83015  36.371  28.973   5.761
21705W        W83016  10.358  38.846  12.847
21706W        W83017   7.230  22.600   2.380
21707W        W83018  38.495   1.346   2.266
21708W        W83019   7.869  24.113  11.114
21709W        W83020  17.274  43.865  14.934
21710W        W83021  38.935  36.364  13.800
21711W        W83022  20.205   2.431  14.384
21712W        W83023   4.840  42.932   1.709
21713W        W83024  23.114  27.125   0.829
21714W        W83025   6.401   9.669   2.285
21715W        W83026   4.308  25.672  13.011
21716W        W83027   3.427  26.500  11.407
21717W        W83028  17.646   6.319  12.410
21718W        W83029   3.818  35.095  14.765
21719W        W83030   4.379  23.583  11.461
21720W        W83031  12.831  32.957   3.795
21721W        W83032   5.691   4.943   1.282
21722W        W83033   9.262  44.860   4.250
21723W        W83034  15.767  15.610   0.861
21724W        W83035   2.297   0.479  14.338
21725W        W83036  43.434  10.879   4.751
21726W        W83037  39.505   5.780   4.671
21727W        W83038  16.122   5.899  11.466
21728W        W83039   3.811   6.375   3.810
21729W        W83040  20.115  32.610   0.419
21730W        W83041  12.236  16.593   0.807
21731W        W83042   5.308  43.826  12.524
21732W        W83043  24.609  16.806   0.831
21733W        W83044  17.571  13.685  14.461
21734W        W83045  22.526  16.225   1.805
21735W        W83046  36.930  16.609   2.323
21736W        W83047  18.248  34.055   0.949
21737W        W83048  29.965  25.526   3.246
21738W        W83049  23.131  14.241  10.440
21739W        W83050  33.515   5.254   0.888
21740W        W83051  13.257  13.633  10.930
21741W        W83052  44.427  19.566  11.084
21742W        W83053   6.865  17.589   1.382
21743W        W83054   8.795   8.390   3.835
21744W        W83055   4.262  26.655   2.818
21745W        W83056  17.602  42.941  14.450
21746W        W83057  18.110  33.502   4.236
21747W        W83058  39.424  12.344  11.544
21748W        W83059  29.529  15.761   1.918
21749W        W83060  19.246   5.739   4.139
21750W        W83061  26.115  27.588   3.179
21751W        W83062  12.225   1.892  12.072
21752W        W83063  37.507  28.497   3.335
21753W        W83064  38.835   4.380  14.856
21754W        W83065   2.865  36.411   0.334
21755W        W83066  11.232  21.159   4.132
21756W        W83067  21.722  43.386   5.724
21757W        W83068  40.883  10.288  13.412
21758W        W83069  32.522  26.078   4.794
21759W        W83070   0.468   2.390  10.970
21760W        W83071   3.818  36.352   0.454
21761W        W83072  43.003  20.707  12.059
21762W        W83073  17.664  19.537   2.700
21763W        W83074  32.027  21.018  12.998
21764W        W83075  12.614  17.301  10.622
21765W        W83076  24.999  10.189   2.700
21766W        W83077  17.702  14.187  12.060
21767W        W83078  18.206  22.562  14.391
21768W        W83079  23.525  25.567   4.167
21769W        W83080  36.015   5.875   0.774
21770W        W83081  27.685  11.760  11.980
21771W        W83082  19.255  30.091   0.290
21772W        W83083  41.982  39.337   1.410
21773W        W83084   5.851  37.532  13.382
21774W        W83085  31.053   5.815   2.309
21775W        W83086   9.882  44.928  14.514
21776W        W83087  28.034  41.481  11.384
21777W        W83088   2.416  30.040  13.880
21778W        W83089  29.554  30.529  12.370
21779W        W83090  40.007  30.086  14.496
21780W        W83091  23.531  13.731  10.523
21781W        W83092   7.684  17.635  13.327
21782W        W83093   0.310  14.598   2.869
21783W        W83094  30.986  20.100   3.319
21784W        W83095  43.770  17.687   4.184
21785W        W83096  31.632   1.843   2.307
21786W        W83097  20.273  19.217   0.818
21787W        W83098  18.717   9.175   3.730
21788W        W83099  27.967  11.148   2.893
21789W        W83100   7.248  28.568   4.826
21790W        W83101  32.437  12.616  13.999
21791W        W83102  37.060   7.720   4.195
21792W        W83103  41.945  19.269   4.612
21793W        W83104  12.766  30.989   2.304
21794W        W83105  44.398   4.710   4.659
21795W        W83106  30.415   1.324   3.633
21796W        W83107   4.865  11.677   0.878
21797W        W83108   1.825   6.758   4.331
21798W        W83109   6.895   1.929  11.499
21799W        W83110   7.202  28.157  11.575
21800W        W83111  25.516  14.734  14.941
21801W        W83112  43.974  33.538  14.945
21802W        W83113  21.107   0.475  13.829
21803W        W83114  26.004  32.945  12.430
21804W        W83115  39.460  41.388   3.724
21805W        W83116  39.524  10.343   2.898
21806W        W83117  32.540  31.609  14.775
21807W        W83118  16.261   6.384  14.473
21808W        W83119  40.863  13.785  14.333
21809W        W83120  36.364   4.862  12.536
21810W        W83121  27.668  40.485   3.743
21811W        W83122  30.584   8.729   2.415
21812W        W83123  29.450   2.443   0.365
21813W        W83124  28.084  15.243  13.966
21814W        W83125  29.011  16.705   3.162
21815W        W83126  13.260  13.683   2.416
21816W        W83127  34.083  40.435  13.341
21817W        W83128  23.110  36.591   3.217
21818W        W83129  31.943   2.327  13.038
21819W        W83130  10.250  12.246   0.959
21820W        W83131  36.467  15.217  14.786
21821W        W83132   6.772  44.376  11.871
21822W        W83133  10.778  16.187  13.027
21823W        W83134  39.982   2.820   4.733
21824W        W83135  39.039  44.481   4.128
21825W        W83136  19.713   9.881  14.831
21826W        W83137   1.839  25.034   4.639
21827W        W83138  42.022  20.624  10.504
21828W        W83139  39.553   7.849   0.255
21829W        W83140  24.535  26.965   0.775
21830W        W83141   2.785   5.922  14.978
21831W        W83142   6.269  10.320  11.870
21832W        W83143  24.550  18.105   5.791
21833W        W83144  23.498  38.975   1.376
21834W        W83145   0.819  32.951   3.800
21835W        W83146  15.608  20.170  12.420
21836W        W83147  15.783  31.148  14.876
21837W        W83148  26.191  38.424   4.714
21838W        W83149   5.786  31.521  14.467
21839W        W83150  30.920  25.531  14.856
21840W        W83151  18.172  29.666   0.412
21841W        W83152  30.150  16.774  11.428
21842W        W83153   3.884  14.183   1.925
21843W        W83154  18.690   7.391   2.697
21844W        W83155  30.611  25.161   4.309
21845W        W83156   7.823  35.568  14.867
21846W        W83157   7.787  14.765   1.310
21847W        W83158   7.190  19.772   5.215
21848W        W83159   4.367  17.757  14.456
21849W        W83160  16.700   2.284  11.417
21850W        W83161  18.553   8.745   4.149
21851W        W83162  21.732  40.356   0.956
21852W        W83163  20.580   0.452   3.688
21853W        W83164  25.524  31.531  11.997
21854W        W83165  26.011  34.510   1.274
21855W        W83166  24.174  28.575   3.342
21856W        W83167   2.784  19.661  13.053
21857W        W83168  24.078  10.753  13.011
21858W        W83169  10.752  44.465   2.265
21859W        W83170  39.065  43.363   0.840
21860W        W83171  36.942   1.901   1.375
21861W        W83172   1.939  33.013   0.265
21862W        W83173  26.105  23.581   4.761
21863W        W83174   7.371  38.862   4.636
21864W        W83175   2.307  37.421   4.655
21865W        W83176  39.961  17.289   1.265
21866W        W83177  30.001  22.700   3.745
21867W        W83178   4.359  30.473   2.312
21868W        W83179  19.556  19.594  13.405
21869W        W83180  14.708   8.250   1.807
21870W        W83181  15.211  16.265   4.615
21871W        W83182   5.347  28.597   0.349
21872W        W83183   3.781  30.546  11.113
21873W        W83184   3.843  19.180  10.571
21874W        W83185  15.592  37.037  14.846
21875W        W83186  31.045  33.456   1.803
21876W        W83187  13.623   2.438   2.329
21877W        W83188  16.164  17.753   3.285
21878W        W83189  18.648  26.580   1.312
21879W        W83190   6.811  10.240   2.858
21880W        W83191  15.249  37.082   2.339
21881W        W83192  27.087  13.823  10.973
21882W        W83193  31.505  34.460   2.268
21883W        W83194   6.186  42.522  12.478
21884W        W83195  37.883  40.417   2.675
21885W        W83196  37.505   1.446  13.053
21886W        W83197  23.504   2.766   3.796
21887W        W83198  18.690  25.693  12.471
21888W        W83199  29.526  33.408   0.932
21889W        W83200  42.845  32.116   5.134
21890W        W83201  43.433  19.250  10.966
21891W        W83202  24.153   1.338   2.205
21892W        W83203  19.648  34.961  11.425
21893W        W83204   6.692  32.577  13.471
21894W        W83205   2.840  12.221   1.383
21895W        W83206  44.792  33.588   1.882
21896W        W83207  20.673   5.339   3.681
21897W        W83208   0.456  43.785  10.926
21898W        W83209  16.244   8.244   3.241
21899W        W83210  10.156   2.410  12.487
21900W        W83211  30.936  17.162  14.768
21901W        W83212  25.106  44.941   0.467
21902W        W83213  34.431  44.373  14.781
21903W        W83214  33.446   9.665   3.839
21904W        W83215  29.981  43.470   3.235
21905W        W83216  12.245  23.009   2.229
21906W        W83217  17.073  24.705   1.858
21907W        W83218  35.982  42.001  14.467
21908W        W83219  35.999   3.751  11.510
21909W        W83220  10.356  28.516   1.774
21910W        W83221  24.032  23.025   4.239
21911W        W83222  24.176  27.147  11.100
21912W        W83223  17.557   0.789   0.356
21913W        W83224  20.143  24.582  13.329
21914W        W83225   8.279  14.800   2.872
21915W        W83226  33.092  35.430  14.378
21916W        W83227  41.336  35.016   1.789
21917W        W83228  31.924  17.701   0.737
21918W        W83229   6.398  18.178   9.966
21919W        W83230  30.576  41.971  12.390
21920W        W83231  13.647   2.313   3.300
21921W        W83232   4.314  41.399   2.844
21922W        W83233  28.516  37.343  12.568
21923W        W83234  19.098  40.363  10.617
21924W        W83235  26.536   1.884  13.433
21925W        W83236  45.000  41.935   2.263
21926W        W83237  39.813  14.300  13.479
21927W        W83238  26.096  17.725   1.868
21928W        W83239  24.117  27.472  13.422
21929W        W83240  32.987  21.142   1.230
21930W        W83241   6.720  32.626   2.722
21931W        W83242  17.265   3.767   3.332
21932W        W83243  42.512  43.018  12.425
21933W        W83244  39.470  32.110   0.309
21934W        W83245  37.502   4.213  13.995
21935W        W83246   1.861  19.125  12.436
21936W        W83247  27.614  33.549  10.537
21937W        W83248  44.495   7.360   3.851
21938W        W83249   4.724  17.139   1.451
21939W        W83250  14.760  27.632  13.866
21940W        W83251  35.545  24.596   4.725
21941W        W83252  11.704  17.579   1.727
21942W        W83253   7.358  33.495   0.841
21943W        W83254   0.964  29.068  12.341
21944W        W83255  29.945  40.959   4.145
21945W        W83256  36.440   5.388  13.895
21946W        W83257  40.965   0.872   4.149
21947W        W83258  19.241   3.276   4.243
21948W        W83259  35.044  27.195   1.711
21949W        W83260   9.815  43.274  10.910
21950W        W83261  24.008  22.607   5.289
21951W        W83262  28.088   1.769   1.433
21952W        W83263  11.773  33.052  11.395
21953W        W83264  39.476  13.209  11.542
21954W        W83265  26.016  39.980   0.429
21955W        W83266  11.823  30.135   2.735
21956W        W83267  39.059  26.692  10.604
21957W        W83268  20.050  16.806   0.963
21958W        W83269  26.082  20.657   1.261
21959W        W83270  25.644  38.820   2.208
21960W        W83271  20.062  35.103  14.372
21961W        W83272   3.440  15.263  10.501
21962W        W83273  27.682  13.710  12.878
21963W        W83274  31.983  12.823   0.304
21964W        W83275   7.756  42.909  12.877
21965W        W83276  21.518  29.550  10.978
21966W        W83277  19.141   7.707   4.787
21967W        W83278  11.342   0.804   1.413
21968W        W83279  22.036  19.737   1.848
21969W        W83280  13.647  12.706   2.749
21970W        W83281  34.447   0.485  10.946
21971W        W83282  21.706  31.637  10.941
21972W        W83283  44.357  39.063   0.429
21973W        W83284  31.641  18.635  14.006
21974W        W83285  22.229  44.763  12.580
21975W        W83286  20.548  33.484   3.176
21976W        W83287   2.781  11.268  11.424
21977W        W83288   4.705  34.995   1.860
21978W        W83289  23.054   5.323  13.438
21979W        W83290  17.722  36.380  11.979
21980W        W83291   7.855  12.643   2.892
21981W        W83292   7.891   2.856  13.367
21982W        W83293   8.677   1.471  14.763
21983W        W83294  18.579   6.346  11.013
21984W        W83295  42.465  26.471  13.517
21985W        W83296  44.933  28.944  12.998
21986W        W83297  11.371  23.606   1.265
21987W        W83298  34.530  32.922  14.818
21988W        W83299  36.064   2.960   3.652
21989W        W83300  21.173  37.873   2.289
21990W        W83301  12.291  18.759   4.821
21991W        W83302   3.874  42.355   4.304
21992W        W83303  26.069  19.646  12.067
21993W        W83304  14.283  32.906  11.572
21994W        W83305  44.397  29.091  11.499
21995W        W83306  44.290  18.741   9.958
21996W        W83307  40.439  24.595  11.083
21997W        W83308   0.966  37.001   0.812
21998W        W83309   4.209  14.735  14.929
21999W        W83310  23.096  43.772  14.418
22000W        W83311  36.505  13.235  10.926
22001W        W83312  42.814  15.305   4.710
22002W        W83313  43.967   2.371   1.925
22003W        W83314  35.969  24.220   4.826
22004W        W83315  20.132  22.593  10.503
22005W        W83316   0.326  40.896   1.388
22006W        W83317  39.486   3.874  14.280
22007W        W83318  20.091  21.551   1.883
22008W        W83319   2.745  37.852  11.060
22009W        W83320   6.380  25.581  14.978
22010W        W83321  19.588  19.141  14.795
22011W        W83322  24.095  13.107  11.441
22012W        W83323  33.550   0.937  12.433
22013W        W83324   1.322  43.340   4.790
22014W        W83325  30.518   6.862   2.309
22015W        W83326   4.397  19.744  13.972
22016W        W83327  21.668  35.097  12.856
22017W        W83328  20.258  19.627  11.400
22018W        W83329  25.613   9.187  10.493
22019W        W83330  19.616  30.009   2.387
22020W        W83331  21.061  19.040   3.251
22021W        W83332   7.340  41.498   4.674
22022W        W83333   8.857  22.167   1.266
22023W        W83334   5.880  24.653   2.234
22024W        W83335  39.010  41.527  12.888
22025W        W83336  35.980   8.232  13.812
22026W        W83337   4.732  25.666   4.352
22027W        W83338  28.437  15.257   0.752
22028W        W83339  14.697  36.901  12.902
22029W        W83340   7.836  21.175   3.247
22030W        W83341   2.723  14.138  10.409
22031W        W83342  29.485  30.012   3.204
22032W        W83343  25.182  25.569   1.729
22033W        W83344  23.203  13.252   3.679
22034W        W83345  22.605   0.762   3.854
22035W        W83346  19.626  37.482  14.388
22036W        W83347  41.804  38.332   4.609
22037W        W83348  24.529  37.466  11.594
22038W        W83349  16.705   4.730  11.867
22039W        W83350  22.657  13.641  13.460
22040W        W83351  41.904  11.209   4.718
22041W        W83352  39.545  35.054  11.094
22042W        W83353   2.960   9.708   0.275
22043W        W83354  20.536  16.633   2.301
22044W        W83355  18.733  24.071   2.819
22045W        W83356  38.029  36.571   2.800
22046W        W83357  42.368  30.567   4.319
22047W        W83358  41.522  24.124   3.296
22048W        W83359  12.267  27.030   2.894
22049W        W83360  32.512   6.392  11.543
22050W        W83361  22.201   5.230  11.548
22051W        W83362   6.330   3.841  14.459
22052W        W83363  31.153  36.989  11.982
22053W        W83364  37.934  39.368  13.445
22054W        W83365  13.839  26.161   2.795
22055W        W83366  28.541  12.617   0.264
22056W        W83367  14.112   8.775  10.529
22057W        W83368  21.042   5.243  14.366
22058W        W83369  43.773   8.306  11.121
22059W        W83370  25.028  24.486   4.216
22060W        W83371  25.662   4.868   0.831
22061W        W83372  25.004  23.987  11.030
22062W        W83373  36.353   8.848   4.337
22063W        W83374  32.125  10.178   4.660
22064W        W83375  32.541  13.241   2.250
22065W        W83376  27.103   3.922  14.777
22066W        W83377  43.438   5.342   4.294
22067W        W83378  38.375  15.307   3.378
22068W        W83379  43.960   1.793   3.700
22069W        W83380  33.942  25.545  12.081
22070W        W83381   5.845  31.971   3.207
22071W        W83382  33.390  32.450  14.282
22072W        W83383  40.011  18.142  10.619
22073W        W83384  41.464  40.876  14.945
22074W        W83385  21.041  19.639  13.063
22075W        W83386  14.186   4.428  14.294
22076W        W83387  28.952  39.045   3.149
22077W        W83388  22.712  11.198   9.981
22078W        W83389  17.778  16.221   2.684
22079W        W83390  27.671  17.702   4.128
22080W        W83391  42.898  31.461   1.282
22081W        W83392  36.050  15.763   3.800
22082W        W83393  34.010  35.597   0.823
22083W        W83394  33.036   3.909  11.007
22084W        W83395   5.223   3.333   4.756
22085W        W83396   0.910   8.732  14.444
22086W        W83397   3.875  39.998   4.199
22087W        W83398  23.587  31.643   0.353
22088W        W83399  30.618  41.473   0.301
22089W        W83400  31.608  14.144   0.337
22090W        W83401  32.511  21.550   2.694
22091W        W83402  17.253  32.130   3.248
22092W        W83403  33.506  23.659   0.944
22093W        W83404  44.432  28.068  11.513
22094W        W83405  28.480  28.120   4.297
22095W        W83406  10.729  41.409   4.604
22096W        W83407   4.387  12.682   0.885
22097W        W83408  16.614   2.832  11.529
22098W        W83409  24.202  10.686   2.699
22099W        W83410   9.263  37.572   1.387
22100W        W83411   6.811  28.483  11.970
22101W        W83412   4.769  13.171   1.906
22102W        W83413  29.111  20.694   0.432
22103W        W83414  35.425   7.264  13.882
22104W        W83415   9.778  23.168   4.777
22105W        W83416  28.499  20.119   4.349
22106W        W83417   8.845   2.915   0.461
22107W        W83418  26.077   3.898   4.737
22108W        W83419   2.952   6.681  11.492
22109W        W83420  14.164  33.913  13.927
22110W        W83421  17.085   9.268   3.190
22111W        W83422  34.051  14.694  13.915
22112W        W83423  23.081  30.485  12.339
22113W        W83424   9.800  33.881  13.479
22114W        W83425  27.556  20.266  12.911
22115W        W83426   2.449   4.445   1.852
22116W        W83427  20.541   8.325   1.860
22117W        W83428  11.708   9.768   3.855
22118W        W83429  44.788  42.474   2.260
22119W        W83430  19.156  19.202   4.134
22120W        W83431   0.328  20.698  11.046
22121W        W83432  17.779  25.130  10.938
22122W        W83433  29.002   0.980  12.371
22123W        W83434  17.102  21.742   2.830
22124W        W83435  15.647  35.924  12.949
22125W        W83436  14.330  43.477   3.823
22126W        W83437  36.001  14.181   0.360
22127W        W83438  33.034   8.368   0.887
22128W        W83439  26.617  41.521  14.403
22129W        W83440   8.793  11.714   0.756
22130W        W83441   9.774  41.349  14.811
22131W        W83442  16.663  44.388  10.643
22132W        W83443  32.407  36.528   3.830
22133W        W83444  38.890   4.290  13.791
22134W        W83445  42.812  40.416  11.518
22135W        W83446   4.707  37.499   4.809
22136W        W83447  23.549  10.167  12.449
22137W        W83448  21.548  25.511   1.398
22138W        W83449  28.085   9.789  11.567
22139W        W83450  34.579   1.430  10.591
22140W        W83451  19.230  42.490  11.053
22141W        W83452  11.149  33.462   0.869
22142W        W83453  15.743   2.884   1.861
22143W        W83454  44.311   3.954   0.465
22144W        W83455  43.816   5.778   0.865
22145W        W83456  20.262  31.028   0.810
22146W        W83457   4.709  32.408   0.909
22147W        W83458   6.399  20.111   1.281
22148W        W83459  13.318  44.298   0.736
22149W        W83460   0.430  38.071   0.416
22150W        W83461  16.101   8.382  11.951
22151W        W83462  26.510   0.444   1.397
22152W        W83463   3.299   0.914   4.255
22153W        W83464   2.902  33.945   1.294
22154W        W83465   1.827  42.492   3.208
22155W        W83466  17.655  44.992   2.364
22156W        W83467  25.650  29.637   2.356
22157W        W83468  40.848  39.924  14.434
22158W        W83469   6.303   3.323  10.537
22159W        W83470  38.000  13.837  12.936
22160W        W83471  26.521  44.980   0.733
22161W        W83472  30.064  14.186  10.407
22162W        W83473   4.923  10.720   4.176
22163W        W83474  34.563  43.306   0.284
22164W        W83475  12.854   9.183  14.874
22165W        W83476  27.061  23.497   4.305
22166W        W83477  43.321  42.905  10.076
22167W        W83478  36.892   7.740   1.912
22168W        W83479  40.849  37.500  10.410
22169W        W83480  14.246  13.701  12.886
22170W        W83481   9.184  37.942   1.727
22171W        W83482  18.066  25.626  12.574
22172W        W83483   2.257  44.497   3.768
22173W        W83484   4.369  41.021   2.248
22174W        W83485  16.252  43.289  10.572
22175W        W83486   4.872  16.596  13.518
22176W        W83487  34.601   8.202   4.694
22177W        W83488  20.614  44.322  12.895
22178W        W83489   1.283  15.177  10.415
22179W        W83490  36.952  36.949   3.348
22180W        W83491  21.145  22.521   3.822
22181W        W83492  15.801  43.888  11.502
22182W        W83493  17.750  25.007   5.725
22183W        W83494  33.093  17.784  13.037
22184W        W83495  37.438  41.917   1.306
22185W        W83496  38.888  43.957  13.970
22186W        W83497   8.258  10.645   3.192
22187W        W83498  33.432  10.671  13.811
22188W        W83499  26.648  28.457  13.824
22189W        W83500  29.559  10.200  14.909
22190W        W83501  26.988  33.396   9.964
22191W        W83502  41.944  38.060  10.514
22192W        W83503  25.638  10.321  12.371
22193W        W83504  13.727   1.815   4.598
22194W        W83505  16.595  11.808  12.448
22195W        W83506  26.144  32.610  14.983
22196W        W83507  42.918  34.494   1.368
22197W        W83508  13.639  11.223   2.844
22198W        W83509  41.795  32.424  13.340
22199W        W83510  18.761  22.549   0.772
22200W        W83511  18.685  43.019   3.373
22201W        W83512  40.808  19.088  11.913
22202W        W83513  10.727  15.587  14.964
22203W        W83514  44.468   4.720  11.027
22204W        W83515  22.090  22.239  10.576
22205W        W83516  43.453  42.400   4.638
22206W        W83517  33.553  23.616   1.810
22207W        W83518  34.991  25.997  11.471
22208W        W83519  11.668  40.905   3.261
22209W        W83520  10.164  38.929   3.326
22210W        W83521   4.428  17.070   5.285
22211W        W83522  17.742  12.296   5.317
22212W        W83523   2.768   6.763   1.781
22213W        W83524  44.454  35.947   2.701
22214W        W83525  20.142   3.936  10.604
22215W        W83526  11.254  29.647   2.896
22216W        W83527  20.560  37.909   3.164
22217W        W83528   2.858  24.184  13.502
22218W        W83529   9.646  32.498  11.914
22219W        W83530   3.287  36.406   4.747
22220W        W83531  13.314  17.565  13.943
22221W        W83532   3.365   3.913  12.497
22222W        W83533  24.645  37.452  13.382
22223W        W83534  27.055  17.194  12.418
22224W        W83535  15.261  15.109   3.843
22225W        W83536   3.397  35.481  13.542
22226W        W83537   4.304  20.223  11.555
22227W        W83538  28.084   3.414   4.131
22228W        W83539   5.858   2.280   4.744
22229W        W83540  27.956   7.723  11.065
22230W        W83541   0.884  27.099   0.921
22231W        W83542  44.473  33.624  14.783
22232W        W83543  23.015  39.923   9.545
22233W        W83544   4.432  44.961   0.474
22234W        W83545  44.828   6.872   4.127
22235W        W83546  20.145   6.858   0.274
22236W        W83547  13.635  17.716   2.325
22237W        W83548   8.235   3.835   0.853
22238W        W83549   9.150   7.705  13.017
22239W        W83550  12.824   3.726   2.703
22240W        W83551   9.881  43.819   1.423
22241W        W83552  21.149   8.852   1.354
22242W        W83553   2.468   5.722   3.316
22243W        W83554   4.891   9.789   1.313
22244W        W83555   2.892  36.457  13.806
22245W        W83556   0.460  18.176   0.748
22246W        W83557   2.813  12.280  14.003
22247W        W83558  20.593  43.775   0.746
22248W        W83559  16.682  39.982  11.565
22249W        W83560  16.643  22.733  14.323
22250W        W83561  41.999  11.631  10.973
22251W        W83562  23.997  29.468   0.755
22252W        W83563  28.185   5.236  13.330
22253W        W83564  27.481  23.046   3.820
22254W        W83565  20.561  30.982  12.390
22255W        W83566  14.698  31.429   3.823
22256W        W83567  28.671   2.383   1.739
22257W        W83568  29.069   9.310   0.345
22258W        W83569   7.699   6.303  11.857
22259W        W83570   5.437  22.745  12.051
22260W        W83571  28.639  28.568  13.466
22261W        W83572  21.251  10.342  11.067
22262W        W83573  21.556   6.328   9.949
22263W        W83574  26.647  13.182   3.260
22264W        W83575   4.783   3.399  11.576
22265W        W83576  30.981  41.374  12.553
22266W        W83577  37.084  18.071   1.276
22267W        W83578  37.080  41.356   4.183
22268W        W83579   9.686  33.521   0.944
22269W        W83580  22.551  26.689   3.843
22270W        W83581  43.001  11.861   0.314
22271W        W83582  43.362  33.582  13.909
22272W        W83583  31.951  18.158  14.370
22273W        W83584  36.370  34.058  11.503
22274W        W83585  12.259  42.778   1.358
22275W        W83586  31.952  16.692  11.916
22276W        W83587  25.179  15.084  13.870
22277W        W83588  44.827  14.699   3.230
22278W        W83589   9.683   1.388   2.243
22279W        W83590   3.877  10.365   1.874
22280W        W83591  41.367  19.170   1.815
22281W        W83592  36.907  43.290   2.689
22282W        W83593  20.591  28.674  11.890
22283W        W83594   7.172  38.889   3.860
22284W        W83595  36.521  44.444  12.423
22285W        W83596  36.851  11.691   1.873
22286W        W83597  31.041  14.730   1.383
22287W        W83598  12.151  31.088   1.364
22288W        W83599  30.020  41.834   0.779
22289W        W83600  12.822   0.923   0.419
22290W        W83601  33.948  24.180   4.169
22291W        W83602  12.303   3.248   9.956
22292W        W83603  18.094   1.478   0.881
22293W        W83604  37.838  12.159   4.695
22294W        W83605   8.660  37.956  11.515
22295W        W83606  24.973   0.355   4.266
22296W        W83607   9.704  11.313   3.731
22297W        W83608  31.986   5.371  10.418
22298W        W83609  14.760  35.510   2.879
22299W        W83610  26.460  23.541   1.295
22300W        W83611  43.946  16.587   0.907
22301W        W83612   7.351   1.758  14.298
22302W        W83613  21.153  18.614   4.176
22303W        W83614  44.331  28.048  13.818
22304W        W83615   1.908   3.912   2.687
22305W        W83616  23.710   8.845   4.831
22306W        W83617   6.830   0.768  11.550
22307W        W83618  21.729  14.327  12.050
22308W        W83619  17.596  25.035  13.794
22309W        W83620   4.825  26.041  12.452
22310W        W83621   5.347  30.955   0.333
22311W        W83622  24.013   5.265   4.175
22312W        W83623  29.988  37.084   1.225
22313W        W83624   0.985  34.528   2.863
22314W        W83625   3.874  35.041   2.831
22315W        W83626  19.546  17.074  13.425
22316W        W83627  27.116   3.899  12.574
22317W        W83628   7.250  19.687  10.533
22318W        W83629   4.434   0.971   0.243
22319W        W83630  37.549  44.264  14.768
22320W        W83631  29.160  26.667  11.444
22321W        W83632  13.210  22.701  12.574
22322W        W83633  32.930  23.165  10.940
22323W        W83634   5.376  33.095   3.648
22324W        W83635  32.920  19.643  12.440
22325W        W83636  42.921  16.787  11.888
22326W        W83637  44.792  14.646  10.985
22327W        W83638   7.251  15.178   2.307
22328W        W83639  25.544  31.102   5.293
22329W        W83640  18.289  33.609  13.854
22330W        W83641  41.514   6.387   4.656
22331W        W83642  31.119  38.564   1.866
22332W        W83643   6.853   2.250  12.848
22333W        W83644  39.867  12.147  11.112
22334W        W83645  37.012  15.143  13.429
22335W        W83646   9.359  25.558  13.042
22336W        W83647  13.829   1.379  11.052
22337W        W83648  21.567  39.997  11.061
22338W        W83649   1.806  28.518  11.976
22339W        W83650   5.746   1.454  11.511
22340W        W83651   9.336  26.178  13.049
22341W        W83652  43.310  18.261   4.770
22342W        W83653   4.362  12.158  14.405
22343W        W83654  13.121  10.335  12.072
22344W        W83655  25.518   6.696  12.555
22345W        W83656  17.142  35.929   1.291
22346W        W83657   3.311  39.819   0.875
22347W        W83658  19.089   1.482  13.945
22348W        W83659  40.859  31.437  12.549
22349W        W83660  35.951  32.072  12.397
22350W        W83661  11.129  42.377   2.695
22351W        W83662   0.341   6.898  11.548
22352W        W83663  44.309  30.429  10.995
22353W        W83664  13.111  37.060   2.687
22354W        W83665  30.921  44.787  12.423
22355W        W83666  36.400   9.677  13.449
22356W        W83667  33.475  17.126   0.347
22357W        W83668  25.990  36.348  11.461
22358W        W83669  20.109  20.045   1.342
22359W        W83670  11.665  33.425   5.161
22360W        W83671  44.809  43.949   2.212
22361W        W83672  39.811  27.108   0.963
22362W        W83673  13.608  36.950   3.334
22363W        W83674  20.602  20.644   1.414
22364W        W83675  24.507  32.979   5.173
22365W        W83676  38.919  13.775  13.957
22366W        W83677   9.732  24.657  11.458
22367W        W83678  40.481  32.131  12.061
22368W        W83679   0.462  32.906  12.027
22369W        W83680  13.605  15.200  12.492
22370W        W83681   7.882  32.433  10.612
22371W        W83682  26.502  41.410   4.704
22372W        W83683   2.350  44.921   4.817
22373W        W83684  21.721  11.643  14.006
22374W        W83685   5.808  24.143  11.465
22375W        W83686   7.221  15.324  13.959
22376W        W83687  39.464  11.657  10.440
22377W        W83688  37.968  43.792   3.160
22378W        W83689   7.733  31.608  11.934
22379W        W83690  14.271  18.747   1.899
22380W        W83691  20.058  31.955   0.305
22381W        W83692  14.609   3.437   1.756
22382W        W83693   6.796   7.724  11.998
22383W        W83694  31.553  23.229   0.284
22384W        W83695  23.089  30.150  11.567
22385W        W83696  13.141  19.618   3.648
22386W        W83697  31.950   7.821   5.295
22387W        W83698  36.886  30.116  11.503
22388W        W83699  13.204   4.401   1.346
22389W        W83700  40.360  12.732  10.027
22390W        W83701  20.262  22.174  12.546
22391W        W83702  35.984  29.162   5.286
22392W        W83703  24.037  10.676  13.850
22393W        W83704  29.072  18.101  11.940
22394W        W83705  15.177  37.025  12.080
22395W        W83706  13.622  10.677  14.797
22396W        W83707  16.663   8.708  13.337
22397W        W83708  35.050  25.671  14.875
22398W        W83709  29.565  22.510  12.970
22399W        W83710  12.693   8.357   3.785
22400W        W83711  22.132  22.165  14.388
22401W        W83712  19.628  15.750   1.794
22402W        W83713  24.706  15.113  14.026
22403W        W83714  30.992   9.197   4.683
22404W        W83715  26.557  18.609   4.202
22405W        W83716  41.893  33.070  14.796
22406W        W83717  27.495  18.148  13.432
22407W        W83718   0.475  26.973   1.309
22408W        W83719  39.810   5.751   4.184
22409W        W83720  30.440   0.326  12.827
22410W        W83721  27.091  13.291   0.952
22411W        W83722  42.417  21.524  14.022
22412W        W83723  20.749  41.791   2.690
22413W        W83724  18.556   3.783   2.410
22414W        W83725  14.196   1.891  13.968
22415W        W83726  11.307  38.874  10.593
22416W        W83727   4.415  22.670   0.268
22417W        W83728  10.368  39.015  14.888
22418W        W83729  41.803  14.756   2.399
22419W        W83730  10.772   8.213  13.425
22420W        W83731  16.114  17.652   2.801
22421W        W83732  17.740   3.877   5.254
22422W        W83733   4.267   8.163  13.885
22423W        W83734  34.409  14.103  12.008
22424W        W83735   2.836  13.696  14.861
22425W        W83736  11.864  44.490   5.208
22426W        W83737  24.609  12.130  10.592
22427W        W83738   2.913  38.064   1.840
22428W        W83739  30.569  40.877   1.447
22429W        W83740  21.040  26.033   2.195
22430W        W83741  15.286  40.432   2.244
22431W        W83742  16.182   7.239   1.430
22432W        W83743   1.935   0.328   4.323
22433W        W83744  14.706  18.628   3.731
22434W        W83745  34.410  22.613  14.797
22435W        W83746   9.829   5.754   0.741
22436W        W83747  40.829  28.972  12.401
22437W        W83748  15.296  14.096   9.949
22438W        W83749  36.395   6.688  14.383
22439W        W83750  28.663  12.324   3.797
22440W        W83751  37.990  12.197   0.245
22441W        W83752  15.690  39.874  10.556
22442W        W83753  14.182  35.950   2.814
22443W        W83754  39.487  11.733   4.821
22444W        W83755   0.874  44.901   3.685
22445W        W83756  20.272  11.135  12.537
22446W        W83757  25.712   2.351  14.850
22447W        W83758  30.949   7.886   2.267
22448W        W83759  12.299   1.472   1.746
22449W        W83760  37.363   7.893   5.274
22450W        W83761  43.925  18.238  11.425
22451W        W83762  30.599  23.508   0.956
22452W        W83763  15.298  26.468  10.406
22453W        W83764   2.762  15.797  14.990
22454W        W83765  15.681   1.305   2.720
22455W        W83766  33.890   6.898   4.147
22456W        W83767  30.129  18.626  12.524
22457W        W83768   6.366  11.866   0.478
22458W        W83769  12.797  13.753   0.470
22459W        W83770  34.571  42.840   4.664
22460W        W83771  29.117  19.608  12.851
22461W        W83772  22.213  36.551  14.909
22462W        W83773  29.012  41.911   4.194
22463W        W83774  44.430  11.855  13.051
22464W        W83775  42.373  26.131   4.776
22465W        W83776  44.850   9.296  12.950
22466W        W83777   3.775   5.266   0.817
22467W        W83778  25.091  10.693  11.054
22468W        W83779  11.284  30.972   3.817
22469W        W83780  36.385  31.461   2.851
22470W        W83781  19.064  26.470  12.912
22471W        W83782  24.643  24.164  11.430
22472W        W83783  17.216   8.689  13.955
22473W        W83784   2.319  31.577  14.340
22474W        W83785   5.748   9.878  12.885
22475W        W83786   1.456  17.744   0.808
22476W        W83787   9.366  29.034   1.217
22477W        W83788  21.090   2.958  14.840
22478W        W83789  26.477  21.042   1.336
22479W        W83790  22.144  15.236   4.803
22480W        W83791  37.967  28.181   0.385
22481W        W83792  21.098   6.921   1.263
22482W        W83793  12.224  42.935  14.280
22483W        W83794  36.881  37.468   3.819
22484W        W83795  31.542  28.036  13.023
22485W        W83796  10.773   8.187  13.063
22486W        W83797   8.704  28.066   4.637
22487W        W83798  29.951   8.839  12.487
22488W        W83799  21.745  23.229  13.313
22489W        W83800  26.144  39.382  14.866
22490W        W83801  39.966   1.336   0.816
22491W        W83802  28.116  39.391  12.475
22492W        W83803   4.705  24.575   3.660
22493W        W83804  41.979  30.581   4.612
22494W        W83805  14.154   6.329  10.911
22495W        W83806   2.936  10.752   0.353
22496W        W83807  21.604  37.420   4.139
22497W        W83808  10.658   7.712  13.038
22498W        W83809   3.858   1.782   2.385
22499W        W83810  22.046  25.018  11.968
22500W        W83811  19.779   7.367   3.861
22501W        W83812  33.948  16.679   1.763
22502W        W83813  30.450   6.189   2.373
22503W        W83814  27.975  43.965  13.865
22504W        W83815   8.665  32.053  13.972
22505W        W83816   9.235  28.670   1.817
22506W        W83817  38.931  11.747  11.878
22507W        W83818  18.234  21.114   1.352
22508W        W83819  13.274   1.895  14.486
22509W        W83820  35.979  37.430   3.220
22510W        W83821   8.220  14.194  12.562
22511W        W83822  32.569  24.705   4.265
22512W        W83823   5.734  24.031  13.474
22513W        W83824  19.203   0.299  14.876
22514W        W83825  43.821   3.421  13.850
22515W        W83826  32.533  19.149  10.896
22516W        W83827  18.062  17.207   0.423
22517W        W83828  27.173  41.468  12.857
22518W        W83829  32.594  10.868  10.973
22519W        W83830  43.345   7.276   2.364
22520W        W83831  10.846  37.928   4.231
22521W        W83832  37.008  22.140  13.821
22522W        W83833   1.409  25.644   4.194
22523W        W83834  43.955  29.552   1.746
22524W        W83835   4.708   0.488   2.191
22525W        W83836  12.850  35.902  13.957
22526W        W83837   2.286   5.316   2.902
22527W        W83838  35.543  37.878   2.352
22528W        W83839  12.777  41.325  13.833
22529W        W83840  14.829  12.658  12.895
22530W        W83841  15.329  44.347   2.857
22531W        W83842  36.382  21.675   4.616
22532W        W83843  37.582  14.205  11.427
22533W        W83844  41.392  32.132   4.341
22534W        W83845  12.285   5.285  11.451
22535W        W83846  12.727  24.111   3.819
22536W        W83847  31.494  24.617   4.303
22537W        W83848  15.724   9.319   0.462
22538W        W83849  24.986  36.843   3.179
22539W        W83850  40.831  14.790   3.188
22540W        W83851  16.283  40.881   3.663
22541W        W83852  17.305  14.229  13.013
22542W        W83853   9.373  35.084  13.959
22543W        W83854   2.837   3.722  11.968
22544W        W83855  27.076  15.662  13.863
22545W        W83856  40.461  44.499   4.266
22546W        W83857  29.122  30.127   4.324
22547W        W83858  12.128  35.983  10.628
22548W        W83859  23.505   5.689  11.080
22549W        W83860   9.647  23.534   4.343
22550W        W83861  39.919   3.786  13.336
22551W        W83862  10.212  41.353   9.998
22552W        W83863   4.345  43.447   2.809
22553W        W83864   8.761  21.553   3.765
22554W        W83865  37.838  14.311   3.365
22555W        W83866  21.263  43.861   4.229
22556W        W83867  23.160  19.730  13.907
22557W        W83868  28.467   9.740  12.093
22558W        W83869   7.707  11.192   2.678
22559W        W83870  13.211  28.076  10.557
22560W        W83871  41.336  36.391  11.128
22561W        W83872  42.921  35.565   4.726
22562W        W83873  31.427   5.225   1.718
22563W        W83874   3.359  43.461  11.105
22564W        W83875  13.653  16.727  14.921
22565W        W83876  42.281  21.239   3.703
22566W        W83877  42.967  32.554  12.908
22567W        W83878  17.197   5.311   0.914
22568W        W83879  13.654  13.768   1.747
22569W        W83880  29.955  24.628  11.524
22570W        W83881  12.252  42.513  13.397
22571W        W83882  11.862   3.434  12.930
22572W        W83883  15.689   1.397  12.377
22573W        W83884  15.221  16.693   0.919
22574W        W83885  15.729  26.505   0.855
22575W        W83886  40.482   3.751   2.876
22576W        W83887  33.577  26.465  13.407
22577W        W83888  41.463   9.260   2.334
22578W        W83889   4.302  34.553  14.293
22579W        W83890   0.797  13.800  11.874
22580W        W83891  18.052  38.516  13.032
22581W        W83892  30.153  14.680  10.554
22582W        W83893   8.807  10.699  14.894
22583W        W83894   5.436   5.861  14.872
22584W        W83895  36.523   9.781  11.959
22585W        W83896  39.906  44.343   0.963
22586W        W83897  10.849  13.285   2.804
22587W        W83898  35.907  17.621   3.714
22588W        W83899  11.707  43.351   4.727
22589W        W83900  40.037   3.308   0.308
22590W        W83901  15.605  20.040   5.108
22591W        W83902  34.919  33.102   0.833
22592W        W83903  28.149  13.166   1.285
22593W        W83904  34.597  29.518  14.348
22594W        W83905  23.549   0.948   0.850
22595W        W83906  31.476  39.494   3.744
22596W        W83907  25.186  31.613  11.917
22597W        W83908  13.127  39.877   2.380
22598W        W83909  42.896  23.207   0.246
22599W        W83910  24.001  33.996  14.480
22600W        W83911  40.449  30.448  11.577
22601W        W83912  12.257  41.019  13.032
22602W        W83913  10.780   8.763  14.963
22603W        W83914  18.079  12.352   3.368
22604W        W83915  16.629  22.134  13.877
22605W        W83916  31.410   9.689   1.428
22606W        W83917  34.907  30.580   1.785
22607W        W83918  19.046  44.907   3.171
22608W        W83919   7.769  31.036  12.951
22609W        W83920  44.817  40.436   3.372
22610W        W83921  30.913  18.167  13.805
22611W        W83922   0.365   5.336  11.951
22612W        W83923  27.052  16.210  11.986
22613W        W83924   9.184  25.539   3.221
22614W        W83925  35.088  34.010   5.185
22615W        W83926  13.153  16.225  14.986
22616W        W83927  11.720   3.755   3.372
22617W        W83928  15.277   8.192   0.967
22618W        W83929  12.803  31.478  12.554
22619W        W83930   2.325  27.097  11.867
22620W        W83931  15.711  30.144   5.239
22621W        W83932  24.137  42.288  10.975
22622W        W83933   8.675  34.110  14.502
22623W        W83934  39.876  23.190   3.366
22624W        W83935  30.641  35.106  12.892
22625W        W83936  20.590  30.034  11.931
22626W        W83937  26.137  29.555   5.100
22627W        W83938  40.544   3.233   5.083
22628W        W83939  43.860  11.637   4.139
22629W        W83940   7.681   4.942   5.141
22630W        W83941  14.683  44.754  10.438
22631W        W83942  20.213  10.642  11.882
22632W        W83943  14.226  38.326   3.220
22633W        W83944  30.519  11.150  10.938
22634W        W83945  17.144   3.341  14.511
22635W        W83946  38.541  15.195   2.741
22636W        W83947  22.016  20.033  10.534
22637W        W83948  28.445   5.251   4.322
22638W        W83949  17.645  27.987   3.221
22639W        W83950  32.611  24.048   0.392
22640W        W83951  25.699  24.095   1.227
22641W        W83952  23.985  15.797  11.970
22642W        W83953  15.320  28.943  14.010
22643W        W83954  40.908  10.350  12.086
22644W        W83955  25.701   4.239   0.924
22645W        W83956  33.472  15.682   4.223
22646W        W83957  17.691  41.486   0.851
22647W        W83958   1.865  23.671   1.705
22648W        W83959  10.148  21.225  14.865
22649W        W83960  22.564  15.311  14.982
22650W        W83961  36.859  26.053   4.645
22651W        W83962  16.318  14.747   0.747
22652W        W83963  21.596  17.733  13.965
22653W        W83964  43.868  14.828   4.701
22654W        W83965   5.397  20.058   2.201
22655W        W83966  29.643   3.857  13.974
22656W        W83967  15.239  32.568   4.829
22657W        W83968  11.252  40.845  11.603
22658W        W83969  34.924  21.198  13.387
22659W        W83970  13.719  34.066  12.355
22660W        W83971  28.607  41.328   0.862
22661W        W83972  42.801  17.671   0.927
22662W        W83973  31.601  18.673  10.416
22663W        W83974  25.207  21.664  14.954
22664W        W83975  41.352   4.703  13.498
22665W        W83976   1.757  41.037   1.716
22666W        W83977  24.165  28.099  12.080
22667W        W83978  15.789  20.048  10.553
22668W        W83979  41.340  31.605  10.575
22669W        W83980  24.050   3.292   3.300
22670W        W83981  40.040  19.202  11.423
22671W        W83982   9.811  38.438  10.594
22672W        W83983  14.733  34.546  11.578
22673W        W83984  42.793  44.950  12.831
22674W        W83985   9.375   0.838   4.134
22675W        W83986  26.004  43.014   4.142
22676W        W83987  28.141   4.834   9.652
22677W        W83988  41.333  43.889  13.007
22678W        W83989   4.212  10.638   3.654
22679W        W83990  19.718  18.566   3.690
22680W        W83991  31.955   2.451  14.903
22681W        W83992  40.803  34.866  13.411
22682W        W83993   3.458   3.786   4.825
22683W        W83994  37.360  27.969  14.917
22684W        W83995   4.411  41.014  11.509
22685W        W83996   6.218  30.490   4.216
22686W        W83997   6.324  21.211  12.884
22687W        W83998  16.166  13.168   0.370
22688W        W83999  13.204  30.919   4.306
22689W        W84000  23.691  14.225  11.515
22690W        W84001  36.555  33.441   0.858
22691W        W84002   3.254   3.918   1.449
22692W        W84003  39.833  19.749   1.795
22693W        W84004  14.099   3.355  12.015
22694W        W84005  41.917  13.735   1.822
22695W        W84006  44.800  35.520   1.827
22696W        W84007  12.679  12.311  11.545
22697W        W84008  11.674  15.329   4.819
22698W        W84009  23.108  36.883   3.163
22699W        W84010  28.070  28.141   0.959
22700W        W84011  27.550   7.802  12.384
22701W        W84012   0.374  23.515   1.922
22702W        W84013   5.853  24.147   1.413
22703W        W84014  41.473  32.589  14.995
22704W        W84015   8.787   9.722   1.722
22705W        W84016  22.708  14.240  13.958
22706W        W84017  16.568  11.808  14.475
22707W        W84018  30.630  25.666   4.627
22708W        W84019   9.385  17.654   3.690
22709W        W84020  26.097  18.633   4.805
22710W        W84021  11.733   2.897  11.899
22711W        W84022   5.750   0.428  14.920
22712W        W84023   6.779  13.835   3.833
22713W        W84024   3.923  35.919   1.926
22714W        W84025   8.303  12.285  14.803
22715W        W84026  44.858  42.824  12.907
22716W        W84027  35.935  23.228   3.328
22717W        W84028  10.702  18.107   3.684
22718W        W84029  41.849  17.241  12.518
22719W        W84030  10.639  35.422   3.852
22720W        W84031  34.453  39.460  10.124
22721W        W84032  36.546   2.817   1.798
22722W        W84033  33.392  21.115   2.806
22723W        W84034   4.865  24.188  12.954
22724W        W84035  32.921   5.905   3.814
22725W        W84036   5.327  24.141  13.979
22726W        W84037  17.145  11.254   4.256
22727W        W84038   1.275  30.024   3.772
22728W        W84039  15.195  28.074   2.402
22729W        W84040   8.282  24.132  11.375
22730W        W84041   8.304   5.844   2.376
22731W        W84042  42.295  20.709   3.237
22732W        W84043  33.019  11.768   1.393
22733W        W84044   6.421   3.229   3.769
22734W        W84045  22.091   0.897  14.810
22735W        W84046   2.415   6.768  14.983
22736W        W84047  16.803  17.618  12.571
22737W        W84048  32.397  41.827   1.255
22738W        W84049   5.392  25.495   2.836
22739W        W84050   7.687  24.167  13.907
22740W        W84051   5.760  11.797   0.890
22741W        W84052  27.058  16.681   0.482
22742W        W84053  28.983  20.086  13.470
22743W        W84054  30.943  15.742   2.331
22744W        W84055  30.139   6.817  11.594
22745W        W84056  33.452  41.004   3.148
22746W        W84057   1.918  24.979  14.880
22747W        W84058   4.273  32.547   4.723
22748W        W84059  11.371  24.495   1.276
22749W        W84060  14.189  18.666  13.538
22750W        W84061  10.772  16.812  11.053
22751W        W84062  33.041   5.747  11.530
22752W        W84063   0.890  35.068  10.045
22753W        W84064  14.733  33.514  14.460
22754W        W84065  15.267  38.523  13.917
22755W        W84066  40.312   4.817  14.369
22756W        W84067  38.327  20.098  10.643
22757W        W84068  36.053  30.131  14.426
22758W        W84069   0.940  41.393  13.411
22759W        W84070  30.977  26.955   4.331
22760W        W84071  10.202  22.692   4.701
22761W        W84072  23.625   8.372   1.820
22762W        W84073   4.792  17.244  14.012
22763W        W84074   0.459   9.316   3.677
22764W        W84075  22.690   5.405  10.615
22765W        W84076  13.132   0.425   4.686
22766W        W84077   4.819  25.651   9.927
22767W        W84078  32.518  26.005  12.405
22768W        W84079   0.754  28.105   0.793
22769W        W84080  41.911  27.033  13.049
22770W        W84081  19.763  18.269  14.488
22771W        W84082  15.129  19.231   4.636
22772W        W84083  19.257   3.796  13.055
22773W        W84084  40.043   7.219  14.901
22774W        W84085  24.686   2.327   4.283
22775W        W84086  41.506  24.983   1.706
22776W        W84087   4.390  24.484   2.686
22777W        W84088  41.512   4.425  14.336
22778W        W84089   2.275  19.556  14.903
22779W        W84090  30.480  43.768  11.094
22780W        W84091  18.252  23.609   3.272
22781W        W84092  36.398  26.645  11.401
22782W        W84093  42.817  12.159  14.820
22783W        W84094  26.596   3.823  12.405
22784W        W84095  30.013  23.048  11.472
22785W        W84096  41.375  30.646  10.491
22786W        W84097  14.187   7.793   4.772
22787W        W84098  31.942  12.662   2.373
22788W        W84099   2.457  25.206  12.966
22789W        W84100  12.762  35.390   1.219
22790W        W84101   7.309   5.416  11.913
22791W        W84102  38.474   5.876   2.706
22792W        W84103   4.904  28.553   3.178
22793W        W84104  35.510   6.786   3.327
22794W        W84105  27.675  23.132   2.189
22795W        W84106  38.364  23.147   0.362
22796W        W84107  22.155   7.893  13.976
22797W        W84108  28.582  17.307   1.808
22798W        W84109  31.427   2.361  11.506
22799W        W84110  38.912  33.445   3.725
22800W        W84111   0.286  13.191  14.849
22801W        W84112  34.983  19.696  12.393
22802W        W84113  42.301  21.081   2.787
22803W        W84114   2.289   6.769  14.293
22804W        W84115  42.333  25.040   4.203
22805W        W84116  19.258  14.749   0.333
22806W        W84117   6.323  34.476  13.523
22807W        W84118  37.001  22.543   4.234
22808W        W84119   9.829  29.606   0.370
22809W        W84120   6.257  20.185  14.854
22810W        W84121  44.421  10.770  13.883
22811W        W84122  33.450  34.587  11.551
22812W        W84123  43.288  43.827  10.473
22813W        W84124  26.589  21.035  14.373
22814W        W84125  24.058  39.460  14.933
22815W        W84126  41.346  39.889   2.894
22816W        W84127   8.746   3.831   1.427
22817W        W84128   1.352  23.728   0.931
22818W        W84129  12.287   5.737  12.823
22819W        W84130  37.494  43.314  11.102
22820W        W84131   2.767  34.563  13.315
22821W        W84132  41.001  36.970   4.627
22822W        W84133   1.829  12.683  10.406
22823W        W84134   3.709   4.867  12.461
22824W        W84135  36.043  35.901   1.802
22825W        W84136  18.199  24.053   3.158
22826W        W84137  19.683  12.833  12.071
22827W        W84138  37.965   3.715   1.725
22828W        W84139  41.916  32.472   3.721
22829W        W84140  39.990  28.501  11.490
22830W        W84141  18.259  28.490   2.380
22831W        W84142  36.533  28.631   4.327
22832W        W84143  40.371  27.010   2.828
22833W        W84144   6.413  12.837  13.057
22834W        W84145  20.570  23.621   1.389
22835W        W84146  44.403  32.961  13.423
22836W        W84147  17.583  34.006   1.772
22837W        W84148  44.887  10.301  11.560
22838W        W84149  40.539  26.552   3.152
22839W        W84150   1.910   9.154  12.355
22840W        W84151  39.914   6.792  12.510
22841W        W84152  34.892   5.382  13.825
22842W        W84153  40.496  36.978   2.879
22843W        W84154  15.648   8.832  11.076
22844W        W84155   8.887  26.996   1.709
22845W        W84156  43.276   1.901  11.989
22846W        W84157  12.740  14.165  14.280
22847W        W84158  23.018  34.568  13.352
22848W        W84159  23.113   5.889   4.755
22849W        W84160   4.759  12.282   4.782
22850W        W84161  28.568   6.682   3.383
22851W        W84162  22.537   0.920   4.716
22852W        W84163   7.688   4.904  13.008
22853W        W84164  35.033  27.057   0.812
22854W        W84165   8.673  12.731   3.867
22855W        W84166   2.886   1.776   3.312
22856W        W84167  24.019  34.869  12.014
22857W        W84168   6.319  24.064  10.484
22858W        W84169  25.655   4.909   3.384
22859W        W84170  30.600  15.753  14.777
22860W        W84171  12.831  30.511   4.749
22861W        W84172  29.090  21.586  10.594
22862W        W84173  38.852  42.930   2.349
22863W        W84174  23.999   1.776  14.007
22864W        W84175  12.159  24.176   0.811
22865W        W84176   1.948  12.146  14.898
22866W        W84177  15.807  15.102   0.744
22867W        W84178  36.541   0.305   0.255
22868W        W84179   6.901   3.762   3.303
22869W        W84180  25.700  15.096   0.381
22870W        W84181  37.493  34.931  13.892
22871W        W84182  24.122  26.000  14.839
22872W        W84183  44.823  40.400  12.853
22873W        W84184   0.803  29.494  14.432
22874W        W84185  29.480  10.845   1.386
22875W        W84186   7.885  23.216  11.055
22876W        W84187  40.920  31.645  11.912
22877W        W84188  22.512  17.716   4.620
22878W        W84189  43.004  20.617  14.865
22879W        W84190  28.498  27.499   4.220
22880W        W84191   0.838  14.660  12.455
22881W        W84192  34.909  15.108  14.414
22882W        W84193  42.287   0.829   4.204
22883W        W84194  32.433  29.978   4.165
22884W        W84195  19.218  26.064   0.325
22885W        W84196  40.333   7.826  14.786
22886W        W84197  25.059   0.328   1.845
22887W        W84198  35.439  23.666  12.832
22888W        W84199  43.897   5.404  14.831
22889W        W84200  27.600  11.217   0.286
22890W        W84201  14.153  37.039  14.278
22891W        W84202  12.824  20.185  14.410
22892W        W84203  11.868  10.366  11.427
22893W        W84204  33.075  35.508  13.814
22894W        W84205  25.160   6.427  13.374
22895W        W84206  13.346   5.298  12.565
22896W        W84207  40.502  20.573   1.778
22897W        W84208  34.934  25.160   1.930
22898W        W84209  19.780  25.703  11.865
22899W        W84210  34.004   9.310  10.944
22900W        W84211  16.235  16.693  11.457
22901W        W84212  36.449  16.726  11.946
22902W        W84213   2.448  16.665  14.457
22903W        W84214  15.692  27.612   4.714
22904W        W84215   1.426  43.015   2.691
22905W        W84216   7.322  34.987  14.466
22906W        W84217  10.758  30.619   0.307
22907W        W84218  42.025  10.679   4.767
22908W        W84219  11.187  33.902  10.924
22909W        W84220   5.349  37.919   4.642
22910W        W84221   9.375  26.032  14.402
22911W        W84222  16.154  23.088  13.982
22912W        W84223  17.261  43.838  14.292
22913W        W84224   4.778  14.151  12.052
22914W        W84225  37.338   3.278  14.503
22915W        W84226   5.863  28.621  11.021
22916W        W84227  28.172   7.852  13.501
22917W        W84228   6.771  39.434  11.419
22918W        W84229  11.794  15.796   1.854
22919W        W84230  14.635  23.549  13.312
22920W        W84231  18.107  10.722   2.293
22921W        W84232  12.324   3.390  10.895
22922W        W84233  27.976  21.101   1.760
22923W        W84234  34.514  32.430   0.275
22924W        W84235  15.589  13.797  13.840
22925W        W84236  24.715  32.121   3.339
22926W        W84237  30.975  44.405   3.659
22927W        W84238  38.436  10.674  12.508
22928W        W84239   6.212   4.305  12.997
22929W        W84240  24.031  33.947  11.925
22930W        W84241   4.842  16.757   3.815
22931W        W84242  31.484  14.803   4.794
22932W        W84243  14.655  25.188   1.301
22933W        W84244  13.146  38.424  10.905
22934W        W84245   2.798  16.620   2.226
22935W        W84246  43.493   3.354   4.179
22936W        W84247   0.910  43.914  14.848
22937W        W84248  36.851  38.567  11.490
22938W        W84249  37.872  14.264   4.160
22939W        W84250  13.286  12.248   0.870
22940W        W84251   0.860  34.580  14.458
22941W        W84252  10.731  36.944  10.452
22942W        W84253  13.328  15.773   0.963
22943W        W84254  20.758  31.936  13.497
22944W        W84255  30.461  33.475  10.118
22945W        W84256  37.989  39.885   1.346
22946W        W84257  44.310  11.362   3.709
22947W        W84258  20.581  26.571   4.834
22948W        W84259  39.336  33.000   4.131
22949W        W84260  33.391   9.310   4.224
22950W        W84261   0.327  40.047   3.856
22951W        W84262  32.933  43.986  12.835
22952W        W84263  13.737  40.459   1.384
22953W        W84264  24.984  33.011  12.478
22954W        W84265   0.366  32.520   1.716
22955W        W84266  37.851   2.434   1.366
22956W        W84267  13.333  33.052  12.346
22957W        W84268  44.449  42.358  14.433
22958W        W84269  35.978  21.075   0.834
22959W        W84270  40.975  44.355   4.127
22960W        W84271  23.045  42.482   1.322
22961W        W84272   7.825   8.818  12.087
22962W        W84273   6.398  15.197   0.838
22963W        W84274  17.177  29.998  11.962
22964W        W84275  19.282   4.907   4.226
22965W        W84276  22.048  36.363   1.311
22966W        W84277  14.672  43.273  13.046
22967W        W84278  14.686   4.916  13.818
22968W        W84279  42.783  42.017  10.538
22969W        W84280  36.537  29.141   3.280
22970W        W84281  28.087  10.379  11.559
22971W        W84282  38.053  37.556  14.461
22972W        W84283  34.974   0.892   1.308
22973W        W84284   0.449  20.766   0.360
22974W        W84285   7.870   0.950  12.005
22975W        W84286   7.248  14.257  11.577
22976W        W84287  42.308  23.150   0.827
22977W        W84288  14.147  29.617   0.354
22978W        W84289   1.260   3.322  14.429
22979W        W84290  23.563  32.540   1.922
22980W        W84291  29.928  19.229   1.312
22981W        W84292   1.776  41.324  11.413
22982W        W84293   7.366  41.020  10.488
22983W        W84294   6.363   0.983  12.996
22984W        W84295   0.966  37.854   2.279
22985W        W84296  11.182  41.381   3.383
22986W        W84297  40.981  12.616  13.030
22987W        W84298  17.700   6.703  11.598
22988W        W84299  44.920  17.649  11.118
22989W        W84300  24.147  39.481  12.511
22990W        W84301   2.419  25.676   0.365
22991W        W84302  24.051  33.570  13.331
22992W        W84303   8.764  20.617   3.722
22993W        W84304  34.586  38.899  12.895
22994W        W84305  42.888  40.889   2.719
22995W        W84306  27.656   5.436  14.352
22996W        W84307  27.621  21.124  14.375
22997W        W84308  30.451  17.245   1.222
22998W        W84309  18.055  24.136  10.116
22999W        W84310  25.657   6.192  10.484
23000W        W84311  37.386   7.824  13.530
23001W        W84312  11.800  41.378   4.783
23002W        W84313   3.815  14.762  12.553
23003W        W84314  11.323   8.698  13.003
23004W        W84315   5.407  30.523  11.465
23005W        W84316  41.965  28.621  12.348
23006W        W84317  41.037  33.111   2.366
23007W        W84318  21.178  23.527   3.255
23008W        W84319  13.184  22.544  13.859
23009W        W84320  41.476  12.188   0.438
23010W        W84321  17.781  39.401   2.295
23011W        W84322  34.907  18.282  13.528
23012W        W84323  39.846  28.160  13.486
23013W        W84324  44.997  25.658  12.343
23014W        W84325  38.066  24.036  14.462
23015W        W84326  31.099  41.890   2.710
23016W        W84327  30.634   5.788  13.523
23017W        W84328   9.216   5.793  11.876
23018W        W84329  35.556  36.477   0.247
23019W        W84330   4.944  25.005  10.905
23020W        W84331  35.900  21.753  13.310
23021W        W84332  12.218  41.037  11.049
23022W        W84333  11.203   0.273   1.779
23023W        W84334  31.153  14.199   0.291
23024W        W84335  17.158   9.352  13.427
23025W        W84336   0.867  33.570   4.317
23026W        W84337   9.735  23.588  13.979
23027W        W84338  29.033  22.640  12.502
23028W        W84339  13.754  10.666  10.504
23029W        W84340  43.960   1.374  11.438
23030W        W84341  24.673  12.644   0.837
23031W        W84342  30.578  15.142  12.015
23032W        W84343  18.148   0.299  12.987
23033W        W84344  37.844  19.754  11.073
23034W        W84345   3.893  31.485  14.479
23035W        W84346   7.381  38.525   2.776
23036W        W84347  27.012  19.580  14.760
23037W        W84348  27.141  23.560  11.397
23038W        W84349  14.603  34.073  11.110
23039W        W84350  34.981  11.221  10.114
23040W        W84351  33.067  23.637  11.508
23041W        W84352  36.083   2.739  13.459
23042W        W84353  13.256  42.939  11.034
23043W        W84354  42.851  44.489   1.245
23044W        W84355  18.772   3.297   1.369
23045W        W84356   0.350   4.259  14.772
23046W        W84357  34.508   4.398  14.380
23047W        W84358  40.881   6.369   0.325
23048W        W84359  44.331  21.126   1.258
23049W        W84360  14.729  17.190   1.846
23050W        W84361  39.393   2.371   1.387
23051W        W84362  42.782  20.230   1.233
23052W        W84363  30.573  35.052   0.959
23053W        W84364  13.755  31.146  14.764
23054W        W84365  22.528   7.851   4.770
23055W        W84366   4.320  33.066  14.381
23056W        W84367  20.599  20.248  11.456
23057W        W84368  22.169  42.870  14.919
23058W        W84369  17.728  27.043   3.827
23059W        W84370   3.266  23.999   0.455
23060W        W84371  32.590   7.797   1.276
23061W        W84372  36.375  37.019  11.856
23062W        W84373  13.649  20.662   3.292
23063W        W84374   1.422  33.099  14.010
23064W        W84375  43.338   1.374   4.713
23065W        W84376   9.219  32.559   4.180
23066W        W84377  34.120   4.774  13.972
23067W        W84378  18.631  26.026   0.736
23068W        W84379  23.992  28.987  14.410
23069W        W84380  32.000   8.322  11.948
23070W        W84381   4.715  37.510   0.743
23071W        W84382   0.864  17.247   1.314
23072W        W84383  42.480   6.708  11.470
23073W        W84384   2.733  21.534   3.254
23074W        W84385  12.161  26.604   5.293
23075W        W84386  20.172   4.313  11.490
23076W        W84387  42.475  32.109  11.383
23077W        W84388   3.780  32.064  13.363
23078W        W84389  23.142  25.711   0.734
23079W        W84390  40.476   7.414   2.890
23080W        W84391  28.071  26.149  14.825
23081W        W84392  19.702  42.017   5.226
23082W        W84393  11.369   5.360   3.156
23083W        W84394  36.032  32.391   1.915
23084W        W84395  32.460   1.808  13.479
23085W        W84396  27.993  23.527  11.450
23086W        W84397  24.027  35.598   1.705
23087W        W84398  17.267  23.613  13.883
23088W        W84399   1.388  16.281  12.479
23089W        W84400   5.297   4.933   0.465
23090W        W84401   4.906  37.577   4.254
23091W        W84402  22.590  10.713   2.775
23092W        W84403  14.798  40.831  13.013
23093W        W84404  29.492  22.124   2.357
23094W        W84405  32.420  44.288  13.913
23095W        W84406  36.871  18.205  13.508
23096W        W84407  44.262  14.744  11.894
23097W        W84408  37.531  36.975   0.950
23098W        W84409   2.370  30.436   3.732
23099W        W84410  20.619  14.650   1.924
23100W        W84411  44.974  31.921  11.512
23101W        W84412   1.342  34.110  10.584
23102W        W84413   2.887  27.006  10.437
23103W        W84414   9.727   7.411   2.250
23104W        W84415  13.182  13.108  11.572
23105W        W84416  29.514  34.476  10.486
23106W        W84417  13.216   1.256  13.813
23107W        W84418  10.315  10.764   4.664
23108W        W84419  39.467  15.290  13.448
23109W        W84420  36.474   2.928  12.360
23110W        W84421  39.348  42.966  10.536
23111W        W84422   7.808  21.669  14.431
23112W        W84423  33.056  25.685   4.171
23113W        W84424  33.062  29.581  14.811
23114W        W84425  43.888  18.161  12.446
23115W        W84426  36.545  41.997   2.758
23116W        W84427  22.148  25.042  10.463
23117W        W84428   7.765  23.076  12.871
23118W        W84429  11.331  19.611  14.908
23119W        W84430  39.814  30.071  13.944
23120W        W84431   9.775  43.287   4.247
23121W        W84432  35.465  44.314   1.424
23122W        W84433   2.454  41.816   3.377
23123W        W84434  31.413  28.992   2.233
23124W        W84435  43.474  39.922   4.796
23125W        W84436  36.354   3.219  12.556
23126W        W84437  42.516   7.714   0.264
23127W        W84438  22.609   4.287   9.933
23128W        W84439  17.177   4.860  13.348
23129W        W84440  15.139  42.782   1.779
23130W        W84441  27.170  11.144   1.827
23131W        W84442   0.253  14.185  12.423
23132W        W84443  13.613  28.102   3.637
23133W        W84444  23.101  21.639  13.991
23134W        W84445  12.189   3.908  12.999
23135W        W84446   6.719  38.044   4.163
23136W        W84447  41.319  24.570  11.410
23137W        W84448  25.002   0.285  11.442
23138W        W84449   9.238  34.574   2.899
23139W        W84450  43.496  33.576  14.390
23140W        W84451  27.150  38.405  12.569
23141W        W84452  26.528  28.449  12.462
23142W        W84453  13.176  21.537   0.368
23143W        W84454   7.262   0.958  10.461
23144W        W84455  36.925  16.142  13.395
23145W        W84456  34.385   4.249   1.704
23146W        W84457  15.313   4.846   1.707
23147W        W84458   5.773  20.654   2.386
23148W        W84459  32.129   9.808  14.459
23149W        W84460  27.641  21.072   0.866
23150W        W84461   6.716  43.479  11.424
23151W        W84462  38.502   5.814   1.694
23152W        W84463  38.904  44.794   3.244
23153W        W84464  12.345  38.028   1.234
23154W        W84465   9.196  23.630   0.380
23155W        W84466   4.915   2.850  12.922
23156W        W84467  23.543   3.765  14.311
23157W        W84468  18.069  35.105  11.574
23158W        W84469  21.626  12.747  13.868
23159W        W84470  21.247  23.555   1.809
23160W        W84471  44.489  44.418   3.682
23161W        W84472  11.227   9.294  14.862
23162W        W84473  35.602  41.302   0.946
23163W        W84474  20.146  24.677  14.342
23164W        W84475  19.708   9.361   1.760
23165W        W84476  15.591  22.226   1.397
23166W        W84477  29.670   5.859  12.528
23167W        W84478   7.861  24.704  11.456
23168W        W84479  40.821  31.046  11.553
23169W        W84480  12.642   5.897  12.513
23170W        W84481  13.844  31.920  14.422
23171W        W84482  36.898  37.868   2.322
23172W        W84483  18.242  22.534   2.300
23173W        W84484  17.155  41.907  14.456
23174W        W84485  26.562  19.621   0.786
23175W        W84486  35.992  26.006   1.782
23176W        W84487   3.779   1.379   0.792
23177W        W84488  40.408  11.781   4.767
23178W        W84489  16.271  14.613  12.512
23179W        W84490  33.552  14.173  11.386
23180W        W84491  39.430  11.366   3.778
23181W        W84492  18.596   9.801   2.264
23182W        W84493  16.275  11.196   2.746
23183W        W84494   6.219  39.968  11.611
23184W        W84495   3.339  14.320   0.292
23185W        W84496  27.690  33.917   2.766
23186W        W84497  17.756  12.750   1.731
23187W        W84498  12.210  21.145  13.542
23188W        W84499  19.220  13.208   9.966
23189W        W84500  37.952  42.932  11.923
23190W        W84501  11.660   2.369   1.413
23191W        W84502  43.376  26.492   2.683
23192W        W84503  30.607  35.555   4.729
23193W        W84504  29.657  44.845   0.785
23194W        W84505  10.719   0.748  13.439
23195W        W84506  26.023  40.353  12.517
23196W        W84507  18.282  24.613  13.016
23197W        W84508   4.783  29.074  13.983
23198W        W84509  20.087  30.959  14.891
23199W        W84510  36.430   5.351   0.908
23200W        W84511  42.424   0.789   1.884
23201W        W84512   7.847   4.875  10.007
23202W        W84513  39.533   6.770   3.822
23203W        W84514   6.271   8.776   3.673
23204W        W84515   1.452  39.032   1.853
23205W        W84516  28.953  21.189  11.096
23206W        W84517   5.886  17.187   0.820
23207W        W84518  11.333   7.227  11.399
23208W        W84519  39.941   8.792   3.184
23209W        W84520  23.718  44.421   1.427
23210W        W84521  27.454  10.204   0.818
23211W        W84522  13.736  26.079   1.335
23212W        W84523   1.807   9.698  14.765
23213W        W84524  41.888  41.455   2.871
23214W        W84525  31.437  15.710   3.702
23215W        W84526  40.493  41.945   2.675
23216W        W84527  12.656  40.494   1.830
23217W        W84528  15.148  28.510   2.192
23218W        W84529  19.270  43.413   2.725
23219W        W84530   8.696   7.324  14.952
23220W        W84531   3.876  36.091  11.533
23221W        W84532  41.908   1.747  11.977
23222W        W84533  35.965  19.590  10.517
23223W        W84534  38.007  26.589   2.722
23224W        W84535  16.218  21.229   0.960
23225W        W84536   5.724   8.833  13.917
23226W        W84537  30.152  37.993   1.708
23227W        W84538  11.131  14.174  12.450
23228W        W84539  22.721   9.742  11.862
23229W        W84540   5.248  15.273   0.357
23230W        W84541   7.678  14.777   2.721
23231W        W84542   7.850   9.325  14.426
23232W        W84543   8.275  41.925   3.750
23233W        W84544  11.654  27.071   1.797
23234W        W84545  36.060  13.824   3.724
23235W        W84546  26.697  43.934  13.402
23236W        W84547  40.520  14.124  13.382
23237W        W84548  38.553  34.603   3.314
23238W        W84549  25.640   0.815  11.977
23239W        W84550  23.715  22.223  13.051
23240W        W84551  10.210  25.646   9.990
23241W        W84552   7.682   8.823   1.714
23242W        W84553  32.462  39.545  13.365
23243W        W84554   7.242  10.872   4.156
23244W        W84555  40.370  20.652  13.795
23245W        W84556  38.070   8.684   1.353
23246W        W84557   1.313  22.101   3.779
23247W        W84558  27.604  43.950  10.476
23248W        W84559  41.034  30.496   4.754
23249W        W84560  36.405   1.970  12.369
23250W        W84561   5.693   8.782   5.263
23251W        W84562  15.589   1.800  11.379
23252W        W84563  20.653   3.283   4.755
23253W        W84564  35.057  11.170  13.890
23254W        W84565  33.909  15.700  14.327
23255W        W84566   7.696   2.407  11.489
23256W        W84567  31.645  20.253   2.752
23257W        W84568   5.306  37.082   2.208
23258W        W84569  22.534   6.237  14.427
23259W        W84570   1.973  23.641   1.410
23260W        W84571  38.976  27.026  14.982
23261W        W84572  22.211  43.396   0.298
23262W        W84573  35.540  44.936  13.848
23263W        W84574  21.108  23.992   4.160
23264W        W84575  36.507  24.658  11.101
23265W        W84576  16.648  21.615   4.202
23266W        W84577  34.519  31.450   1.736
23267W        W84578  44.408   5.292  11.441
23268W        W84579   7.726   6.206   3.848
23269W        W84580   2.802  24.606  14.957
23270W        W84581  20.184  37.039   3.179
23271W        W84582  23.241  19.741  13.503
23272W        W84583  18.290  39.345  13.844
23273W        W84584  22.633   8.656  11.386
23274W        W84585  24.046  12.234   3.724
23275W        W84586  33.083  29.478   2.364
23276W        W84587  20.197   2.766   2.812
23277W        W84588  37.390   0.934  13.918
23278W        W84589  26.675   3.735   1.257
23279W        W84590  38.924  18.567  10.442
23280W        W84591  31.968  21.637   1.732
23281W        W84592  25.656  24.135   4.601
23282W        W84593  44.471  30.964   1.351
23283W        W84594   8.834  14.713  14.397
23284W        W84595  40.458  32.619  13.869
23285W        W84596  37.891   6.796   1.245
23286W        W84597   5.772  44.291   1.739
23287W        W84598  28.577  31.622  12.570
23288W        W84599  30.972  20.677   3.267
23289W        W84600  15.157  28.034   1.375
23290W        W84601  22.725  22.249   0.259
23291W        W84602  20.062  35.924   1.747
23292W        W84603  21.201  36.928  13.943
23293W        W84604   8.683  26.996   4.243
23294W        W84605  22.644   2.918   1.296
23295W        W84606  30.502  32.071   4.280
23296W        W84607  16.566  19.106  12.521
23297W        W84608  30.938  33.553  12.939
23298W        W84609   1.450  19.198  13.048
23299W        W84610  10.251  14.801   3.246
23300W        W84611  18.190   6.683  11.389
23301W        W84612  25.551  22.012  11.957
23302W        W84613  39.966  23.164  13.445
23303W        W84614   3.819  19.215   3.354
23304W        W84615  15.625  30.962  11.608
23305W        W84616  27.618  40.873   4.176
23306W        W84617   2.283  25.511   3.741
23307W        W84618  35.076  42.848  12.436
23308W        W84619  10.235  15.739   1.248
23309W        W84620  28.559  33.415   3.334
23310W        W84621  39.370  12.807  12.968
23311W        W84622  30.502  42.285   2.876
23312W        W84623  16.185   0.946  14.981
23313W        W84624  41.837   2.247   3.346
23314W        W84625   4.858   3.915  13.043
23315W        W84626  36.539  36.863  12.961
23316W        W84627  36.046   3.739   2.261
23317W        W84628  24.034  13.838  14.387
23318W        W84629   5.369  18.183  12.869
23319W        W84630  10.225   8.252   3.343
23320W        W84631  32.075  14.758   0.897
23321W        W84632   1.403  28.539  10.570
23322W        W84633  37.449  35.473   1.370
23323W        W84634  25.589  14.642  10.530
23324W        W84635  19.039  41.300   9.578
23325W        W84636   7.740   9.236   1.927
23326W        W84637   9.887  35.585  11.119
23327W        W84638  40.988  15.708   2.240
23328W        W84639  29.577  42.428   4.722
23329W        W84640  44.995  18.236  10.553
23330W        W84641  24.994  35.929   1.855
23331W        W84642  21.667  12.235  13.950
23332W        W84643   9.236  11.235   1.397
23333W        W84644  15.665  40.523  14.343
23334W        W84645  10.303  26.070   3.316
23335W        W84646  13.208   7.184  14.924
23336W        W84647  20.040  25.701   1.211
23337W        W84648  12.785  28.951   2.418
23338W        W84649  20.604   8.754  14.885
23339W        W84650  38.377  17.172  10.559
23340W        W84651  20.674   3.301  14.884
23341W        W84652   5.294  25.147   1.701
23342W        W84653  26.537  35.874  11.456
23343W        W84654   0.281  40.541  10.470
23344W        W84655  42.465  25.007   0.820
23345W        W84656  17.247  36.073  10.026
23346W        W84657   2.903  11.139  12.441
23347W        W84658  31.480   6.688  11.395
23348W        W84659  44.451   7.340  10.410
23349W        W84660   0.808   9.328   4.719
23350W        W84661  26.542  33.103  14.486
23351W        W84662  41.820  11.148  10.530
23352W        W84663  20.233   1.813  14.963
23353W        W84664  20.227  43.782   0.403
23354W        W84665  28.943  40.020   3.666
23355W        W84666  12.669   8.871   1.295
23356W        W84667  37.359  39.495   5.255
23357W        W84668   4.776  11.805   0.397
23358W        W84669   4.409  22.078  12.039
23359W        W84670  15.122  25.533   0.776
23360W        W84671  21.083  31.899   2.410
23361W        W84672  43.412  16.188   4.814
23362W        W84673  13.203  29.448  12.562
23363W        W84674  21.258  21.611  13.538
23364W        W84675  28.147  26.504   4.715
23365W        W84676  35.866   6.358  12.927
23366W        W84677  31.406  11.143  10.497
23367W        W84678  29.157  33.110   1.240
23368W        W84679  17.217  43.335   0.316
23369W        W84680  19.706  37.509   3.680
23370W        W84681  31.906   4.834   1.763
23371W        W84682  15.133   3.951  10.964
23372W        W84683  17.649  11.630  10.437
23373W        W84684  31.132  31.046   0.441
23374W        W84685  17.099   7.711  10.435
23375W        W84686  44.945  38.066   0.852
23376W        W84687  30.129  19.195  13.440
23377W        W84688  14.829   7.235  14.781
23378W        W84689  27.963   1.773   2.714
23379W        W84690  30.143  10.379   4.704
23380W        W84691  18.287  14.270   3.219
23381W        W84692  38.934  35.029  14.771
23382W        W84693  16.672  22.537   0.761
23383W        W84694   3.230  34.050  10.633
23384W        W84695  17.792  20.188  14.943
23385W        W84696  37.003  40.427   4.767
23386W        W84697  19.259  22.244   4.141
23387W        W84698   6.861  30.527   0.836
23388W        W84699  27.189  37.385   3.744
23389W        W84700  15.628   2.814   2.245
23390W        W84701  18.114  30.579   2.874
23391W        W84702  43.873  39.948   3.285
23392W        W84703  43.973  40.439  10.489
23393W        W84704  32.414   8.212  12.903
23394W        W84705  37.959  39.886  13.054
23395W        W84706  42.494  14.637   0.839
23396W        W84707  30.473   1.364  12.556
23397W        W84708   0.490  18.258  11.514
23398W        W84709   9.686  10.741  13.472
23399W        W84710  38.459  43.272   0.459
23400W        W84711  19.173   5.392   4.241
23401W        W84712   8.385  33.384   3.181
23402W        W84713  42.808  41.355  13.410
23403W        W84714   0.331  10.833  14.487
23404W        W84715  39.370  36.354  13.323
23405W        W84716  36.496  40.837   3.149
23406W        W84717   5.846  18.702  14.822
23407W        W84718  20.762  29.648  13.510
23408W        W84719  23.557   9.819  11.027
23409W        W84720  12.269   7.787   2.702
23410W        W84721  13.643  12.343  12.446
23411W        W84722  13.110   1.835   0.412
23412W        W84723  33.027  16.714   3.723
23413W        W84724  30.923   5.253   1.427
23414W        W84725  16.221   0.322   3.308
23415W        W84726  37.438  13.718   1.749
23416W        W84727   0.963   6.380   1.753
23417W        W84728  21.619  32.969  14.476
23418W        W84729   6.398  43.839   1.218
23419W        W84730  23.000   3.947   2.181
23420W        W84731  25.001  37.840   3.231
23421W        W84732  23.642  26.072  14.818
23422W        W84733  12.164  37.982  12.892
23423W        W84734  13.147  27.456  10.977
23424W        W84735   3.303  26.173  12.399
23425W        W84736   3.947  30.433  12.035
23426W        W84737   8.233  39.468  13.887
23427W        W84738  13.821  41.318  12.004
23428W        W84739  12.236  32.560   2.801
23429W        W84740  27.193   5.828  13.818
23430W        W84741   8.290  36.899  11.499
23431W        W84742  26.117  25.138   4.828
23432W        W84743  39.853   9.262  13.925
23433W        W84744  34.008  34.579  10.642
23434W        W84745   4.397   0.426  14.453
23435W        W84746  35.034  14.105  11.047
23436W        W84747   1.958  15.650   3.158
23437W        W84748  24.148  39.864  10.625
23438W        W84749  39.542  27.600  12.905
23439W        W84750  21.159  30.059   1.852
23440W        W84751  35.364   4.366   2.336
23441W        W84752  36.907  16.246  10.902
23442W        W84753  39.379   2.796  14.789
23443W        W84754  22.120  37.544   1.341
23444W        W84755  16.716   7.905   0.938
23445W        W84756  37.879  34.974   5.170
23446W        W84757   2.837  26.135  14.863
23447W        W84758  10.219  42.502  12.402
23448W        W84759  33.032   2.238   2.714
23449W        W84760  11.365  36.992   3.147
23450W        W84761   7.683   6.298   1.833
23451W        W84762  42.394   5.928  13.034
23452W        W84763  19.672  20.256   3.175
23453W        W84764  25.611  23.660  12.342
23454W        W84765  23.491   8.348   3.747
23455W        W84766   8.331  42.383   3.699
23456W        W84767  19.125  43.019   2.308
23457W        W84768   6.809  23.068  12.855
23458W        W84769   1.378  20.645  13.050
23459W        W84770   6.900  39.905   4.727
23460W        W84771   7.798  15.819   0.871
23461W        W84772  29.006  28.532   3.264
23462W        W84773  39.846  25.990  10.492
23463W        W84774  15.161  23.584  13.943
23464W        W84775  36.523  14.717  11.377
23465W        W84776  40.882  31.905   0.324
23466W        W84777   6.204  20.184  10.113
23467W        W84778   5.224   3.248   1.254
23468W        W84779  43.914  10.744   4.294
23469W        W84780  32.108   9.252   4.729
23470W        W84781   6.773  42.853  13.937
23471W        W84782  20.158  24.046   2.303
23472W        W84783  32.412  21.239   4.774
23473W        W84784   1.431  43.369  14.420
23474W        W84785  26.111   6.244   5.319
23475W        W84786  32.043  35.558   4.326
23476W        W84787  20.710  28.057   0.759
23477W        W84788  15.803  36.068   1.847
23478W        W84789  41.934   1.867  11.510
23479W        W84790  40.487  22.230  14.291
23480W        W84791   6.284   7.351   4.767
23481W        W84792  38.924  30.476  13.005
23482W        W84793  21.116  42.910  10.152
23483W        W84794  35.972  24.493  12.053
23484W        W84795  19.550  24.503  12.045
23485W        W84796  35.062  39.820   4.292
23486W        W84797  23.505  31.606  14.832
23487W        W84798  35.899  10.700   4.340
23488W        W84799  28.124   2.231   4.675
23489W        W84800  20.586  25.582   1.898
23490W        W84801   1.732  11.278   2.181
23491W        W84802  24.492  20.596   5.086
23492W        W84803   3.927  16.261   5.309
23493W        W84804  26.100   4.792  11.128
23494W        W84805  10.273  38.833   2.276
23495W        W84806  34.498  34.023   3.850
23496W        W84807  19.173  10.233  13.349
23497W        W84808  39.495  18.703   1.254
23498W        W84809  21.206  40.487   1.314
23499W        W84810   3.242   9.372   3.197
23500W        W84811  33.522  41.315  14.283
23501W        W84812  40.900   2.912   1.797
23502W        W84813  31.143  39.053  10.412
23503W        W84814  39.549   7.323  10.888
23504W        W84815  43.346  12.756  11.920
23505W        W84816  14.801  23.025   4.204
23506W        W84817  44.904  21.577  12.454
23507W        W84818  29.042  34.926  11.423
23508W        W84819  25.996  23.555  14.809
23509W        W84820  31.586  18.187  10.437
23510W        W84821  14.698  35.432   3.657
23511W        W84822   0.768  17.586   2.412
23512W        W84823  34.371  30.916   4.271
23513W        W84824  11.246  36.942  14.807
23514W        W84825  36.036   8.669  10.515
23515W        W84826  23.586  16.778  14.474
23516W        W84827  20.606  40.882   0.267
23517W        W84828   7.732  16.618  14.283
23518W        W84829  35.427  21.260  11.582
23519W        W84830  38.553  13.128   3.148
23520W        W84831   3.326  34.109   4.796
23521W        W84832  17.183  21.185   9.963
23522W        W84833   3.809  34.537   3.868
23523W        W84834   6.825  24.670  10.898
23524W        W84835  40.928   3.915   3.747
23525W        W84836  29.549  31.907  14.307
23526W        W84837   5.292   3.731   0.483
23527W        W84838  26.100  16.082   0.286
23528W        W84839  16.269   7.707  13.447
23529W        W84840   4.853  16.620  14.448
23530W        W84841  27.513  25.621  10.527
23531W        W84842  31.616  19.240   4.198
23532W        W84843  37.458  27.160   3.808
23533W        W84844  44.841  44.316  11.859
23534W        W84845  10.852   7.344  12.860
23535W        W84846  22.227  10.199  13.424
23536W        W84847  18.155  10.260   0.439
23537W        W84848  19.660  30.454   1.831
23538W        W84849  17.720  29.051   1.838
23539W        W84850  31.959  38.890  13.485
23540W        W84851  23.136  22.243   1.271
23541W        W84852  34.079  15.200   0.812
23542W        W84853   8.392   3.334   3.150
23543W        W84854  34.404  31.463  10.059
23544W        W84855  34.417  33.524  11.073
23545W        W84856   9.870  27.549   3.172
23546W        W84857  19.580   8.765  13.940
23547W        W84858  32.928  22.093   2.888
23548W        W84859  27.537  18.709   3.249
23549W        W84860  27.133  25.210   2.708
23550W        W84861  17.301  41.937   9.988
23551W        W84862   7.716  10.844   2.757
23552W        W84863   4.245  30.984   2.202
23553W        W84864  36.909  18.057  14.340
23554W        W84865  29.021  24.725   1.777
23555W        W84866  19.621   6.325  11.030
23556W        W84867  23.717  23.515  12.837
23557W        W84868  39.445  34.568   4.150
23558W        W84869  39.436  23.632   1.239
23559W        W84870  18.640   9.193   4.726
23560W        W84871  36.918  27.594  11.048
23561W        W84872  29.626  44.485   4.335
23562W        W84873  43.506  13.182   3.360
23563W        W84874   7.322  21.577   2.189
23564W        W84875  34.964  14.627   0.291
23565W        W84876  11.859   9.305  10.054
23566W        W84877  21.514  35.463  11.951
23567W        W84878  35.372  32.066   0.927
23568W        W84879  18.675  44.464   3.208
23569W        W84880   7.260  33.896   4.789
23570W        W84881  15.707  12.333   0.868
23571W        W84882  43.809  39.001   4.705
23572W        W84883   6.742  11.735  11.383
23573W        W84884  22.216   7.330   3.733
23574W        W84885  38.466  22.135  10.426
23575W        W84886  21.226   0.948  10.476
23576W        W84887   7.835  34.397   0.430
23577W        W84888  19.770  37.482   2.719
23578W        W84889  27.071  35.507   4.161
23579W        W84890  39.863  29.072   1.785
23580W        W84891  32.486  42.980   4.177
23581W        W84892   9.389  28.960   0.466
23582W        W84893  32.943   1.830   2.853
23583W        W84894  27.660  20.561   4.273
23584W        W84895  12.261   5.350  12.962
23585W        W84896  25.168  18.763   3.834
23586W        W84897  20.053  34.983  13.335
23587W        W84898   4.758  25.218   1.731
23588W        W84899   0.952  30.112  14.021
23589W        W84900  25.504   3.872  13.058
23590W        W84901  44.919   7.690   4.732
23591W        W84902   1.752  20.705  14.944
23592W        W84903  29.443  17.300  12.553
23593W        W84904  38.861  39.817   5.215
23594W        W84905  34.953   5.800   0.367
23595W        W84906  20.097  18.556  11.396
23596W        W84907  14.297  20.569   4.319
23597W        W84908  15.582  33.446  13.934
23598W        W84909  30.495  13.830  13.398
23599W        W84910   1.733  40.523  14.408
23600W        W84911   1.961  20.151   0.821
23601W        W84912  29.984  39.378  13.975
23602W        W84913   5.292  37.961  11.586
23603W        W84914  33.992  42.468   1.745
23604W        W84915  39.515  24.183   3.187
23605W        W84916  18.722  30.997  11.866
23606W        W84917  34.525  30.014  12.078
23607W        W84918  38.908  21.220  12.397
23608W        W84919  18.617  18.279  14.027
23609W        W84920  43.861  42.519  14.337
23610W        W84921  14.733  21.624   1.282
23611W        W84922  28.465  41.885   4.233
23612W        W84923  19.768  28.991   3.259
23613W        W84924  42.843   5.426  10.979
23614W        W84925  43.005  21.017   4.286
23615W        W84926   7.689  10.807   3.761
23616W        W84927  31.912  18.640  12.435
23617W        W84928  43.944  31.631  14.359
23618W        W84929  23.626  10.315   4.761
23619W        W84930  36.057  15.622  14.948
23620W        W84931  22.032  19.674   4.806
23621W        W84932  24.153  24.501  11.979
23622W        W84933  44.483  16.300   0.808
23623W        W84934  16.102  13.731   1.826
23624W        W84935  31.927  40.948  11.030
23625W        W84936  32.595  37.515   2.870
23626W        W84937   7.673  26.146   1.822
23627W        W84938  30.009  33.030  13.965
23628W        W84939  41.038   0.283   4.699
23629W        W84940  23.067  36.988   0.888
23630W        W84941  39.942   2.921   1.398
23631W        W84942  41.331  34.009   1.912
23632W        W84943  26.017  19.550   0.245
23633W        W84944  17.115  26.029  10.591
23634W        W84945  18.220  31.055  12.382
23635W        W84946  18.254  13.207  13.033
23636W        W84947  31.500  31.010   1.283
23637W        W84948   5.903  10.879   0.408
23638W        W84949  44.811  23.492  14.007
23639W        W84950   9.785  14.693   2.806
23640W        W84951   7.312  22.073  13.530
23641W        W84952  25.106  36.392  13.802
23642W        W84953  42.937  11.321  14.973
23643W        W84954  41.898  34.987   3.773
23644W        W84955  17.595  41.533  11.377
23645W        W84956  40.042  44.477  11.444
23646W        W84957  24.515  14.114  12.838
23647W        W84958   9.827  34.565   4.716
23648W        W84959  37.939  34.887  10.022
23649W        W84960  20.627  10.305   0.366
23650W        W84961  25.212   5.856   0.878
23651W        W84962  22.551  37.864  13.010
23652W        W84963  23.696   6.323   4.649
23653W        W84964  33.545  43.400  11.566
23654W        W84965  43.413  24.055  12.842
23655W        W84966  19.063  11.182   2.808
23656W        W84967  41.945  15.134  13.381
23657W        W84968  40.013  22.077   4.259
23658W        W84969   6.777   0.304   3.779
23659W        W84970  23.014  33.973   3.286
23660W        W84971  22.016   0.852  11.429
23661W        W84972  33.922  38.910   2.781
23662W        W84973   6.862  13.289   0.901
23663W        W84974  22.523   7.722  10.985
23664W        W84975  16.630  26.679   0.308
23665W        W84976  26.545  38.505  13.499
23666W        W84977  44.504  12.824  13.333
23667W        W84978  31.571  11.774   3.215
23668W        W84979  31.648  38.967  13.879
23669W        W84980  27.960  29.923   9.996
23670W        W84981  18.116  36.038   0.852
23671W        W84982  34.438  18.723   0.923
23672W        W84983   2.815  15.785  12.032
23673W        W84984   2.294  22.677   2.865
23674W        W84985  24.020  13.130  10.921
23675W        W84986  33.601  21.645  11.499
23676W        W84987  26.163  38.430   2.233
23677W        W84988   7.708   5.279   4.688
23678W        W84989  12.341   6.403  14.777
23679W        W84990  35.402  11.648   4.791
23680W        W84991  13.347  25.689   3.189
23681W        W84992  16.107  19.685   4.820
23682W        W84993  20.253  44.954  13.974
23683W        W84994   8.707  21.165  10.617
23684W        W84995  41.299  26.048  12.875
23685W        W84996  19.567   4.250   3.177
23686W        W84997  13.712  18.066  12.511
23687W        W84998  25.564  16.317   2.414
23688W        W84999  34.086  17.111   4.828
23689W        W85000   3.869  15.761  13.057
23690W        W85001  33.506  17.685   4.603
23691W        W85002  11.847   6.801   0.410
23692W        W85003  30.509  13.709  14.856
23693W        W85004  29.486  21.262  13.418
23694W        W85005  24.149  24.615   3.297
23695W        W85006  25.968   6.912  14.810
23696W        W85007   8.162   1.875  14.406
23697W        W85008  37.954  38.905   0.289
23698W        W85009  36.009  24.004  12.370
23699W        W85010  43.349  13.236   2.199
23700W        W85011  22.215  24.502   1.870
23701W        W85012  39.988  26.966   1.214
23702W        W85013  29.151   6.824   0.800
23703W        W85014  20.084  17.144  10.067
23704W        W85015  31.971   0.489   2.345
23705W        W85016  17.634  23.186   3.693
23706W        W85017  13.752  30.140   0.916
23707W        W85018  16.096  42.909   1.738
23708W        W85019   5.318  23.127  10.975
23709W        W85020   7.910  41.488   4.338
23710W        W85021  22.010  17.675  10.510
23711W        W85022  41.849  12.357   0.425
23712W        W85023  15.789  27.567   0.257
23713W        W85024  10.256   5.897   0.314
23714W        W85025  26.611  38.337  14.375
23715W        W85026  24.998  18.573  13.022
23716W        W85027  21.752  43.435  11.519
23717W        W85028  17.717  30.014   1.701
23718W        W85029  32.519   5.923   0.736
23719W        W85030  41.445  39.847  12.465
23720W        W85031  23.177   8.313  14.863
23721W        W85032  42.412   2.817   3.679
23722W        W85033  34.984  33.912   0.473
23723W        W85034  32.575   5.277   1.882
23724W        W85035  16.769  37.068  11.958
23725W        W85036  43.490  10.724   1.290
23726W        W85037  35.990  28.481  14.891
23727W        W85038  12.725  38.416  12.004
23728W        W85039  24.167  31.940  12.344
23729W        W85040   4.759  15.213  14.797
23730W        W85041  25.639  12.325   3.304
23731W        W85042   8.303  39.869  12.875
23732W        W85043  28.965  10.648  13.392
23733W        W85044  29.046  26.967  11.951
23734W        W85045  11.170   8.353  14.774
23735W        W85046   9.271  44.479  12.074
23736W        W85047  42.410  10.208  10.922
23737W        W85048  41.533  36.944   3.341
23738W        W85049  29.479  36.895   1.719
23739W        W85050  39.393  15.778   0.830
23740W        W85051   1.918  33.013  13.375
23741W        W85052  26.016  10.745  12.965
23742W        W85053   3.778  27.961   9.938
23743W        W85054  15.621  29.962  11.113
23744W        W85055  29.930   3.355  14.913
23745W        W85056  17.296  40.493   2.741
23746W        W85057  13.842   9.219  14.782
23747W        W85058  13.750   3.224  10.544
23748W        W85059  44.321  39.528   0.297
23749W        W85060   8.375  44.495  12.416
23750W        W85061  33.585   4.833  13.047
23751W        W85062  16.801  11.799   0.422
23752W        W85063  33.936   3.219   4.742
23753W        W85064  40.519  36.878   0.370
23754W        W85065  24.627  34.556   1.908
23755W        W85066   2.739  43.965   0.368
23756W        W85067  18.263  28.484  10.607
23757W        W85068   2.930  38.977  13.525
23758W        W85069  30.617  39.935  11.063
23759W        W85070  17.632  19.043   2.195
23760W        W85071  38.326  10.680  14.425
23761W        W85072  42.995   3.346   3.305
23762W        W85073   0.952   7.254  14.974
23763W        W85074  19.087   0.319  11.538
23764W        W85075  38.397  26.516  13.463
23765W        W85076  29.142  14.686   4.784
23766W        W85077  32.127  39.463   1.728
23767W        W85078  15.709  31.474   4.682
23768W        W85079   8.834  27.559   4.142
23769W        W85080  10.208   3.444  14.328
23770W        W85081  40.461  12.282  11.520
23771W        W85082   4.803  44.444  10.890
23772W        W85083  34.998  19.275  10.442
23773W        W85084  21.639  36.955  13.390
23774W        W85085   4.442   7.863   3.685
23775W        W85086  10.769  44.329   0.966
23776W        W85087   0.987  27.183   0.403
23777W        W85088  21.697   1.866  13.051
23778W        W85089   7.714  25.472   3.190
23779W        W85090   1.283   1.425   0.363
23780W        W85091  40.857   0.448  11.494
23781W        W85092  33.954   4.209  11.116
23782W        W85093  38.563   3.361   0.883
23783W        W85094  32.119  24.141   5.217
23784W        W85095  15.204   2.869   0.925
23785W        W85096  32.461   0.374  13.840
23786W        W85097  25.004  31.461   0.253
23787W        W85098  42.523  16.607  12.421
23788W        W85099  16.758  17.714  11.409
23789W        W85100  32.960  12.161  13.346
23790W        W85101  41.376  38.822  12.369
23791W        W85102  30.633  25.018   2.412
23792W        W85103  37.871  40.970   9.481
23793W        W85104  21.742   6.737  13.490
23794W        W85105   5.874  28.606   2.230
23795W        W85106  15.108  10.351  13.414
23796W        W85107   8.217  38.071   1.367
23797W        W85108   5.225  15.791  12.829
23798W        W85109   1.425  14.119   2.250
23799W        W85110  34.878   7.357  14.911
23800W        W85111  16.155  14.295   2.769
23801W        W85112  28.637   6.297  11.856
23802W        W85113  20.034  15.614   3.697
23803W        W85114  39.472  35.586   0.786
23804W        W85115  16.275  31.508  12.987
23805W        W85116  17.222  20.524  13.968
23806W        W85117   1.392  10.356   0.915
23807W        W85118   2.803  39.418   2.898
23808W        W85119  32.479  19.105   3.702
23809W        W85120  36.439  16.159  10.896
23810W        W85121  44.804  38.952   2.701
23811W        W85122  13.651  13.826  11.053
23812W        W85123  41.501   0.304   4.173
23813W        W85124  20.128  41.017   1.904
23814W        W85125  43.477  44.479  11.074
23815W        W85126  33.972   8.171  12.431
23816W        W85127  43.378  11.255  11.127
23817W        W85128   1.953   4.749  12.939
23818W        W85129  32.888  12.647   2.739
23819W        W85130  14.178  19.046   1.830
23820W        W85131  14.608  10.231   1.296
23821W        W85132  15.172  34.116   4.328
23822W        W85133  38.529  38.853   2.236
23823W        W85134   4.831   6.788  11.128
23824W        W85135  28.504  20.076  12.068
23825W        W85136  19.247  16.710   4.287
23826W        W85137  21.075  26.094  13.996
23827W        W85138  34.387  31.940  10.430
23828W        W85139   0.444   9.852  14.296
23829W        W85140  43.344  16.810  11.612
23830W        W85141  38.830   4.844   0.910
23831W        W85142  25.511  37.076  13.388
23832W        W85143  12.319  35.000  14.955
23833W        W85144   4.861   7.403  13.494
23834W        W85145  41.872  33.594   2.823
23835W        W85146  22.007  31.622   3.226
23836W        W85147  15.815  17.217   2.777
23837W        W85148   8.173  13.169  13.539
23838W        W85149  19.757  36.386  11.371
23839W        W85150  11.693  23.161  11.571
23840W        W85151  26.131  37.497   1.747
23841W        W85152   1.955  38.358   0.472
23842W        W85153  42.397   1.977   0.445
23843W        W85154  40.846  35.903  14.923
23844W        W85155  21.721  35.871  12.949
23845W        W85156   6.899  27.527  10.575
23846W        W85157   6.203  42.005  11.414
23847W        W85158  43.792  22.700   0.282
23848W        W85159   5.277  18.170   2.268
23849W        W85160  33.022  25.073  12.018
23850W        W85161  23.081  44.436   1.320
23851W        W85162   7.804  33.517  10.637
23852W        W85163  38.476  18.767  11.529
23853W        W85164   9.317  28.446  11.424
23854W        W85165   7.348  12.721   2.358
23855W        W85166  14.280  11.645  12.423
23856W        W85167   1.838   4.820  14.355
23857W        W85168  32.464  23.646   1.291
23858W        W85169  29.000  39.336   3.234
23859W        W85170   4.297  24.481  11.542
23860W        W85171  10.817  41.472   3.362
23861W        W85172   8.209  22.219  12.945
23862W        W85173   6.245  19.559  13.350
23863W        W85174  38.539  12.277   1.886
23864W        W85175   1.475  30.590  10.505
23865W        W85176  38.952  28.949   3.216
23866W        W85177  24.056  34.386   3.707
23867W        W85178  43.871  42.947   2.217
23868W        W85179  15.199  18.136   3.792
23869W        W85180  22.524  29.013   4.675
23870W        W85181  38.465   1.821  11.394
23871W        W85182  16.754  44.336  14.803
23872W        W85183  28.029  31.405   0.246
23873W        W85184  14.641  36.004  10.507
23874W        W85185  32.924   6.701  11.961
23875W        W85186  23.655  25.552  14.847
23876W        W85187  10.749  20.249   1.924
23877W        W85188  32.393  35.975   1.911
23878W        W85189  18.553  38.070  10.539
23879W        W85190  31.034  40.356  12.864
23880W        W85191  30.544  24.669  13.541
23881W        W85192  38.554  23.726   0.377
23882W        W85193  38.551  29.537   2.747
23883W        W85194  26.963  32.624   1.387
23884W        W85195  27.580  44.936   0.915
23885W        W85196  23.652  42.982   3.668
23886W        W85197  27.626   6.716  11.597
23887W        W85198  30.055  12.653   1.349
23888W        W85199   6.208  23.643   0.242
23889W        W85200  34.549   8.183   2.215
23890W        W85201  13.306   2.957  14.822
23891W        W85202  23.179  43.360   1.918
23892W        W85203   8.289  19.703  12.522
23893W        W85204   7.769  29.496   2.838
23894W        W85205  12.763  30.148   4.219
23895W        W85206   5.400  32.031   0.282
23896W        W85207  21.725  20.190   0.736
23897W        W85208  19.662  44.273  11.455
23898W        W85209   2.265  40.898   1.850
23899W        W85210   3.733   3.287  12.015
23900W        W85211  28.644  23.636   2.726
23901W        W85212  10.759  15.305  13.057
23902W        W85213  14.115  23.222  14.435
23903W        W85214   2.359  17.762   0.318
23904W        W85215   6.902  16.225   4.816
23905W        W85216  16.275  31.106   0.266
23906W        W85217  40.903  35.025  13.941
23907W        W85218  24.196  31.480   3.200
23908W        W85219  17.783  32.109  12.353
23909W        W85220  20.685  43.852   0.321
23910W        W85221   7.352  35.103   1.436
23911W        W85222  32.075  11.827  12.824
23912W        W85223  13.663  21.707  11.956
23913W        W85224  34.068  35.504  13.061
23914W        W85225  22.723  12.846   4.115
23915W        W85226  20.754  20.133   4.341
23916W        W85227  10.661  43.863   4.621
23917W        W85228  33.963  43.927  11.451
23918W        W85229  11.370  39.368  12.382
23919W        W85230   5.208  39.469   0.482
23920W        W85231   1.337  34.563  12.088
23921W        W85232  44.867   4.936  12.885
23922W        W85233  18.093  32.058   2.392
23923W        W85234  35.383   5.312  13.893
23924W        W85235  33.084  30.037  10.529
23925W        W85236   3.417  23.004  11.548
23926W        W85237  24.141  20.167   3.148
23927W        W85238  41.454  10.351   4.315
23928W        W85239  17.701   4.333  10.932
23929W        W85240  14.236  42.363  14.024
23930W        W85241  25.549  38.407   3.712
23931W        W85242  42.444  35.495  14.834
23932W        W85243  32.486  39.432   4.667
23933W        W85244  38.344  17.690   1.917
23934W        W85245  21.246   7.802   0.372
23935W        W85246  14.744  38.458  14.280
23936W        W85247  12.689  28.575  11.906
23937W        W85248  36.885   5.731   3.199
23938W        W85249  26.966  43.900   4.656
23939W        W85250  16.609  23.225   1.333
23940W        W85251  19.554  11.867   4.340
23941W        W85252   4.223  16.746  11.390
23942W        W85253  16.105  39.054   1.761
23943W        W85254  12.664   4.747   4.223
23944W        W85255  11.222  26.661   2.401
23945W        W85256  21.203  11.849   1.784
23946W        W85257  27.985  14.218   5.297
23947W        W85258  17.131  31.908  14.495
23948W        W85259  42.307  23.002   1.873
23949W        W85260  16.170  26.566   4.185
23950W        W85261  11.354  27.026   3.793
23951W        W85262   7.758  19.615   9.930
23952W        W85263   8.255  35.404   3.681
23953W        W85264  30.918  31.960   4.786
23954W        W85265  10.774   4.219  10.449
23955W        W85266  18.211  19.624   0.820
23956W        W85267  36.424  24.687   3.368
23957W        W85268  33.984  29.605   2.415
23958W        W85269  23.503  34.454   2.696
23959W        W85270  43.345  12.118  12.365
23960W        W85271  27.646  15.310  11.994
23961W        W85272  23.656   1.841   4.772
23962W        W85273   4.438   1.759   2.378
23963W        W85274  24.068   8.695  10.536
23964W        W85275  23.175  13.117   3.334
23965W        W85276  14.681  14.189   5.319
23966W        W85277   4.409  33.034   0.373
23967W        W85278  21.209  17.618   4.124
23968W        W85279  43.436  24.676   4.243
23969W        W85280   7.171  25.143  12.497
23970W        W85281   1.805  13.310  14.018
23971W        W85282   0.394  41.039   1.802
23972W        W85283   1.331  26.583   0.800
23973W        W85284  14.338  44.418   1.413
23974W        W85285   9.820  34.916   2.268
23975W        W85286  20.689  35.522  13.883
23976W        W85287   2.417  25.546  12.469
23977W        W85288  35.503  13.298  11.964
23978W        W85289  30.956   1.799   0.836
23979W        W85290  37.489   7.906  10.584
23980W        W85291  33.420  39.516  11.968
23981W        W85292  32.045  40.003  14.006
23982W        W85293  35.871  17.261  14.410
23983W        W85294   0.324  35.422  13.000
23984W        W85295  43.997  22.139  10.596
23985W        W85296   0.919  16.629  11.966
23986W        W85297   8.664  20.187  13.343
23987W        W85298  36.516  41.015  14.313
23988W        W85299   1.238  28.089   4.190
23989W        W85300   6.742   6.221   4.337
23990W        W85301  12.760   8.258   1.822
23991W        W85302  39.921  12.250   2.891
23992W        W85303   5.288  27.039  14.513
23993W        W85304  36.905   0.777   3.192
23994W        W85305  38.072  23.192   0.274
23995W        W85306  16.772  31.904  11.573
23996W        W85307   9.723  28.976   1.828
23997W        W85308  15.092  37.505  10.436
23998W        W85309  43.344   4.306   2.883
23999W        W85310  30.644   7.263  10.000
24000W        W85311  20.724  42.461   2.179
24001W        W85312  25.658  38.877  13.004
24002W        W85313  21.657  29.043  12.477
24003W        W85314   0.379  40.900  11.056
24004W        W85315  24.683  32.419  12.396
24005W        W85316  30.931  37.398  11.095
24006W        W85317   6.362   2.944   3.659
24007W        W85318  22.538  20.682  10.452
24008W        W85319   3.806  16.582   3.264
24009W        W85320  17.779  11.231  11.426
24010W        W85321   6.425  14.617  11.074
24011W        W85322  40.867   7.294   1.757
24012W        W85323  24.492  24.708   2.208
24013W        W85324  22.079  26.174   3.193
24014W        W85325  14.238  25.561  13.452
24015W        W85326  36.911  22.598  14.435
24016W        W85327  14.699  27.008  13.853
24017W        W85328  22.013  31.930   2.730
24018W        W85329  37.553   0.309  11.051
24019W        W85330  23.080  18.788  12.080
24020W        W85331  26.189  38.912  10.429
24021W        W85332  22.696  14.171  12.040
24022W        W85333  17.597  29.090   3.339
24023W        W85334   8.663  22.541  13.859
24024W        W85335  33.381  16.142  13.019
24025W        W85336   8.776   0.904   1.253
24026W        W85337  11.286   9.821   1.380
24027W        W85338  14.315   2.903  13.410
24028W        W85339  14.301  12.757   0.805
24029W        W85340  13.223  33.504  12.383
24030W        W85341   7.189  10.693  14.905
24031W        W85342   0.438   5.348   0.779
24032W        W85343  39.455   5.243   0.349
24033W        W85344  23.736   5.412   0.834
24034W        W85345  19.201  40.813   2.734
24035W        W85346  16.623   5.921   3.698
24036W        W85347  23.120  22.221   4.798
24037W        W85348  28.051  38.897   2.791
24038W        W85349  42.293  12.691  14.834
24039W        W85350  23.600   6.243   1.309
24040W        W85351  22.691  13.162   3.711
24041W        W85352  14.698  21.079  13.503
24042W        W85353  37.405  13.648   4.715
24043W        W85354   2.933  40.929  14.012
24044W        W85355  27.011   7.275   3.297
24045W        W85356   0.829   5.322  13.373
24046W        W85357  28.127  17.179   2.211
24047W        W85358  40.414  30.108  11.927
24048W        W85359   1.326  26.671  13.485
24049W        W85360  15.246  20.141  11.946
24050W        W85361   9.683   2.906  10.469
24051W        W85362  31.967   0.316   3.160
24052W        W85363  27.684   8.892  10.982
24053W        W85364   0.292  22.119  11.940
24054W        W85365  15.775  35.925  11.990
24055W        W85366  14.173   6.907   3.645
24056W        W85367   6.858  26.090  14.024
24057W        W85368  21.182  37.042   2.384
24058W        W85369  26.037   7.196   1.273
24059W        W85370   0.783  23.052  14.421
24060W        W85371  24.497  35.885   0.935
24061W        W85372  36.063  34.990  13.974
24062W        W85373  20.746  25.578  13.317
24063W        W85374  33.129  23.144  12.505
24064W        W85375  13.629   8.868   3.386
24065W        W85376  34.890   4.706   4.713
24066W        W85377   4.809   9.876   4.305
24067W        W85378  10.752  42.857   2.874
24068W        W85379  34.885  29.632   1.303
24069W        W85380  38.006  32.080  13.871
24070W        W85381  27.184   0.287  12.857
24071W        W85382  12.677   8.768  12.571
24072W        W85383  21.523  10.721   4.608
24073W        W85384  43.345  18.695   4.331
24074W        W85385  42.452  44.482  13.466
24075W        W85386  29.040  34.976   4.804
24076W        W85387  13.843  33.121   2.843
24077W        W85388  35.533  32.607  10.556
24078W        W85389   3.412  16.146  12.344
24079W        W85390  15.699  38.913   1.783
24080W        W85391  13.197  18.068  14.380
24081W        W85392  19.718  38.541   3.318
24082W        W85393  15.269   5.797   0.407
24083W        W85394  38.849  19.269  10.961
24084W        W85395   7.379  27.118  13.441
24085W        W85396  24.191   0.324   0.273
24086W        W85397  15.197  34.507   1.420
24087W        W85398  30.456   7.732   1.806
24088W        W85399  11.316  33.937  10.476
24089W        W85400  33.396  44.491   1.450
24090W        W85401   2.334  32.457   0.319
24091W        W85402   6.376   1.404  10.603
24092W        W85403  41.528  11.798  14.376
24093W        W85404  27.126   9.366   0.334
24094W        W85405   8.183   6.206  13.527
24095W        W85406  33.046   0.341   4.198
24096W        W85407  26.951  30.062  11.966
24097W        W85408   7.825  32.975   1.257
24098W        W85409  38.437  17.198  12.968
24099W        W85410  25.093  40.511  11.007
24100W        W85411  21.536  27.983  11.526
24101W        W85412   3.850  21.647   3.848
24102W        W85413  36.521  29.966  13.544
24103W        W85414   6.850  19.252  12.062
24104W        W85415  30.165   1.315   2.738
24105W        W85416  32.137  19.670   1.864
24106W        W85417  42.422  26.460  11.001
24107W        W85418  24.001   2.778   2.194
24108W        W85419  12.121  21.680   3.285
24109W        W85420   7.757   1.319   2.717
24110W        W85421  15.797   1.938   1.773
24111W        W85422   3.423  28.671   2.857
24112W        W85423  32.470   0.282   2.303
24113W        W85424   3.341   8.376   4.116
24114W        W85425  19.664  16.292   1.833
24115W        W85426   1.934  30.979  13.513
24116W        W85427  33.953  30.558  10.480
24117W        W85428  19.582  35.939  11.926
24118W        W85429  28.639   2.961   0.933
24119W        W85430   6.183   0.912   0.938
24120W        W85431   1.735  22.074   2.836
24121W        W85432   9.837  40.486   0.855
24122W        W85433  36.036  36.938   4.727
24123W        W85434  40.882  38.904  11.517
24124W        W85435  24.111  42.896   4.329
24125W        W85436  28.469  42.969  12.855
24126W        W85437  36.539   9.188   2.338
24127W        W85438  22.019  39.339  11.858
24128W        W85439  10.252  14.728   2.870
24129W        W85440  26.494  38.361  13.912
24130W        W85441  28.052  16.181   5.092
24131W        W85442  44.336  19.755  11.519
24132W        W85443  43.978   4.260   3.241
24133W        W85444  25.025  35.939  11.419
24134W        W85445  37.409  26.675   9.953
24135W        W85446   4.815  34.093   0.267
24136W        W85447   7.312  17.798  14.324
24137W        W85448  22.186  11.772   1.373
24138W        W85449   6.898  17.603   0.926
24139W        W85450  33.916  17.263   2.814
24140W        W85451  14.168  19.762   4.719
24141W        W85452  25.606  28.521   3.654
24142W        W85453  33.984  43.372   1.718
24143W        W85454  21.141   6.336   3.215
24144W        W85455  28.013  26.951   1.388
24145W        W85456  21.744  22.667  13.357
24146W        W85457  15.621   6.392  11.957
24147W        W85458  36.902  43.781  10.904
24148W        W85459  19.151  12.132  11.527
24149W        W85460   9.703  13.833   3.698
24150W        W85461  38.451  28.449   1.412
24151W        W85462   2.289  24.029  11.483
24152W        W85463  16.287  40.841   3.177
24153W        W85464   9.874   1.384  12.029
24154W        W85465   5.756  11.237  14.968
24155W        W85466  10.637   8.670   3.260
24156W        W85467  22.179  22.505  14.413
24157W        W85468  40.528  10.747  14.477
24158W        W85469  27.177   4.225   1.252
24159W        W85470  16.597  26.659  12.899
24160W        W85471  17.608   3.833   9.460
24161W        W85472  30.451  30.465   3.232
24162W        W85473  18.594   2.966   1.807
24163W        W85474  27.051  16.088   1.263
24164W        W85475   4.743  24.985   0.263
24165W        W85476  15.293  40.334  14.015
24166W        W85477   7.379   3.334   3.736
24167W        W85478  14.702  35.913  12.509
24168W        W85479  10.755  37.047   2.259
24169W        W85480  18.743  26.488  13.378
24170W        W85481  29.954   9.672  10.504
24171W        W85482  17.558  19.635  14.514
24172W        W85483  15.678   4.386  12.913
24173W        W85484  23.555  16.603  12.558
24174W        W85485  44.868  26.671   2.735
24175W        W85486  24.721  29.113  14.379
24176W        W85487  25.535  33.982   1.386
24177W        W85488  43.971  29.428  12.834
24178W        W85489  28.662  44.942  14.894
24179W        W85490  17.144  17.071  12.090
24180W        W85491  14.164  19.088  12.066
24181W        W85492   5.350  37.452   1.239
24182W        W85493  21.511  16.683   5.183
24183W        W85494  20.261  26.527   4.630
24184W        W85495  32.560  31.914  14.825
24185W        W85496  21.190  33.578   3.224
24186W        W85497   7.823  39.405   2.898
24187W        W85498   1.852  25.572   2.292
24188W        W85499  43.287   8.311  14.323
24189W        W85500  17.577  32.588  13.441
24190W        W85501  42.935  24.077   3.748
24191W        W85502   9.156  27.462   1.822
24192W        W85503   7.693  34.559   0.792
24193W        W85504  32.079  18.790  13.898
24194W        W85505  13.251  31.024  10.547
24195W        W85506  11.299  15.097   2.323
24196W        W85507   3.712  14.094   3.825
24197W        W85508   2.356   4.835   1.223
24198W        W85509   1.438  33.878  14.469
24199W        W85510   3.784  20.767  12.496
24200W        W85511  41.866  41.818  14.791
24201W        W85512  38.930  14.741  12.553
24202W        W85513  19.566   4.436   4.194
24203W        W85514  30.522  11.336  12.439
24204W        W85515  18.121  26.121  11.881
24205W        W85516  12.308  13.337   3.742
24206W        W85517  29.573  21.520   2.280
24207W        W85518   1.733   7.194   2.900
24208W        W85519  12.345  29.454   4.153
24209W        W85520   5.370  40.920   3.322
24210W        W85521  35.577  31.550  12.986
24211W        W85522  36.372  15.635   1.716
24212W        W85523  19.179  21.724  11.477
24213W        W85524  16.667  32.439  14.827
24214W        W85525  38.368   8.165  12.848
24215W        W85526  12.354  12.343  11.037
24216W        W85527   6.763  13.817  14.950
24217W        W85528  39.316  31.940   1.784
24218W        W85529  43.363   2.426   0.936
24219W        W85530  10.807  43.372  12.429
24220W        W85531  25.705  24.529   0.350
24221W        W85532  13.645  37.009  13.521
24222W        W85533  24.184  28.129   3.351
24223W        W85534  28.466   9.678   3.760
24224W        W85535  42.485  35.920  10.612
24225W        W85536  41.525  34.537  11.405
24226W        W85537  26.157  43.421  13.409
24227W        W85538   3.353  16.153  10.481
24228W        W85539  35.377   6.908  10.975
24229W        W85540   2.776  24.198   0.881
24230W        W85541  26.188   1.774  10.524
24231W        W85542  14.680  44.277  14.808
24232W        W85543  38.459   6.420  11.946
24233W        W85544  27.685  17.664  11.984
24234W        W85545  14.709  34.476  12.357
24235W        W85546  38.862  39.983  12.560
24236W        W85547  25.962  27.591  10.577
24237W        W85548  23.995  22.093  10.060
24238W        W85549  43.901  15.171   0.845
24239W        W85550  10.821  24.506   4.237
24240W        W85551  27.446  11.762  14.340
24241W        W85552  22.725  40.493  12.907
24242W        W85553  32.079  15.622   4.814
24243W        W85554  44.969  28.052  14.348
24244W        W85555  30.916   7.314  11.503
24245W        W85556  30.927  40.492   0.789
24246W        W85557  20.036   1.801   4.146
24247W        W85558  38.883   1.884  14.302
24248W        W85559  34.957  39.412   3.737
24249W        W85560  44.975  43.383  10.952
24250W        W85561  41.949  14.726   3.263
24251W        W85562  29.109  32.622   0.327
24252W        W85563  27.548  21.077   0.261
24253W        W85564  41.910   8.891  14.839
24254W        W85565  19.705  33.415  11.120
24255W        W85566   6.743   3.314   1.350
24256W        W85567  26.598  35.926  12.844
24257W        W85568   3.944  34.441   3.179
24258W        W85569  39.329  36.020  13.506
24259W        W85570   4.904  37.074  14.419
24260W        W85571   4.381  17.575   0.408
24261W        W85572  25.692  23.585   1.328
24262W        W85573   7.232  40.541   3.704
24263W        W85574  42.868  25.601  11.598
24264W        W85575  36.472  18.599  10.601
24265W        W85576  21.143   9.180  11.572
24266W        W85577  41.428  23.591   3.764
24267W        W85578  43.011   8.704  13.515
24268W        W85579   7.677  25.217  11.895
24269W        W85580  39.379  36.066  14.495
24270W        W85581  11.719  27.942  13.898
24271W        W85582  10.856  29.095   2.772
24272W        W85583  27.998  33.090   2.741
24273W        W85584  36.978  41.942   3.149
24274W        W85585  15.226   7.742  14.442
24275W        W85586  42.840  11.842  10.990
24276W        W85587  41.924  40.453  12.848
24277W        W85588  26.659   1.742  11.452
24278W        W85589   9.363   6.285  13.413
24279W        W85590  19.696  24.107   4.662
24280W        W85591  27.660   7.698   1.341
24281W        W85592  21.171  29.630   9.672
24282W        W85593  44.926  39.332  12.341
24283W        W85594  16.705  17.185  13.812
24284W        W85595  32.570  34.051  13.996
24285W        W85596  19.752  43.367   1.793
24286W        W85597   8.310  24.973  14.823
24287W        W85598   9.784  19.767   2.278
24288W        W85599  33.401  40.934   1.413
24289W        W85600   6.686  33.384   4.634
24290W        W85601  28.540  30.926   2.387
24291W        W85602  12.250  39.054   0.341
24292W        W85603  44.331   0.886   2.666
24293W        W85604  30.422  22.537   3.743
24294W        W85605  22.739  43.306   1.876
24295W        W85606  27.009  38.872  14.776
24296W        W85607   5.405  44.963   4.153
24297W        W85608  38.945  30.131  14.995
24298W        W85609   1.782  22.080  14.428
24299W        W85610  17.064  40.967   2.319
24300W        W85611  28.629  30.622   0.483
24301W        W85612  24.023  29.505   3.257
24302W        W85613  34.581  31.532  10.502
24303W        W85614   6.819  38.978   3.263
24304W        W85615  41.790  40.366   1.746
24305W        W85616  43.849  36.933   0.963
24306W        W85617  24.553  26.682  13.810
24307W        W85618  42.519  28.476  12.025
24308W        W85619   0.291   8.289  14.318
24309W        W85620  28.141  41.892   0.334
24310W        W85621  44.456  21.176  14.802
24311W        W85622  15.083  35.498  11.993
24312W        W85623  18.612  20.533  11.955
24313W        W85624  20.702  28.112  13.980
24314W        W85625  41.873  16.134  12.478
24315W        W85626  13.817  37.517   3.193
24316W        W85627  20.084  16.116  13.489
24317W        W85628  41.346  16.715  11.578
24318W        W85629  37.578   0.864   0.389
24319W        W85630  24.117  21.151  13.327
24320W        W85631   9.183  37.969   2.409
24321W        W85632  34.102  33.610  11.487
24322W        W85633  13.148  39.542   0.443
24323W        W85634  35.387  21.261   4.824
24324W        W85635  34.427  27.121   2.804
24325W        W85636  25.104  31.558   3.255
24326W        W85637   1.372  18.055   2.744
24327W        W85638  10.797  39.409   0.943
24328W        W85639  33.515  30.962  14.480
24329W        W85640  31.564   7.868   2.272
24330W        W85641  11.842   9.817   0.898
24331W        W85642   5.428  36.472  14.377
24332W        W85643  16.159  26.111   0.793
24333W        W85644  32.608  24.490  14.995
24334W        W85645   6.399  37.363  11.037
24335W        W85646  17.662   6.379  13.920
24336W        W85647  12.840  25.621   0.242
24337W        W85648  28.488  12.782  11.585
24338W        W85649  25.036  38.031  14.323
24339W        W85650  16.772  38.821  12.979
24340W        W85651  21.024  44.448   0.305
24341W        W85652  44.408   5.235   1.799
24342W        W85653  38.019   4.369  11.043
24343W        W85654  19.133   1.814   1.401
24344W        W85655  27.630  27.491  10.579
24345W        W85656  38.379  18.089   3.845
24346W        W85657  42.777  33.011   0.809
24347W        W85658  23.696  44.905   3.722
24348W        W85659  26.169  37.449   3.224
24349W        W85660  12.192  15.091  11.861
24350W        W85661  26.105   5.764   4.717
24351W        W85662  25.514  27.137   3.646
24352W        W85663  29.970  22.224   3.665
24353W        W85664  15.765  11.202   1.407
24354W        W85665   7.331  26.976  11.481
24355W        W85666  31.036   9.223   4.317
24356W        W85667   8.720   0.441  11.930
24357W        W85668   8.265   1.930   0.820
24358W        W85669  26.687  16.200   4.191
24359W        W85670  37.040  21.662   1.739
24360W        W85671   9.383  19.130   9.987
24361W        W85672   2.418  16.756  13.988
24362W        W85673  30.459  44.261   0.471
24363W        W85674  15.723  42.442   2.280
24364W        W85675  13.678   4.915  11.457
24365W        W85676  33.881  34.901   4.191
24366W        W85677  23.206  23.534  14.971
24367W        W85678  14.145  42.372   1.716
24368W        W85679  40.860  28.460   1.341
24369W        W85680   0.763  23.076   3.230
24370W        W85681   3.856  13.818  14.858
24371W        W85682  33.886  39.536   2.310
24372W        W85683  32.430  16.094  13.384
24373W        W85684  31.001   1.342  10.447
24374W        W85685  32.979  17.586   3.204
24375W        W85686   3.826  32.397  11.958
24376W        W85687  12.652  32.596  11.495
24377W        W85688  26.557  40.372   5.159
24378W        W85689  36.447  32.503   1.731
24379W        W85690  16.132  10.251   4.145
24380W        W85691  30.021  17.576   4.138
24381W        W85692  23.502  24.693   2.719
24382W        W85693  41.960  41.422   4.778
24383W        W85694  38.846  25.533   3.747
24384W        W85695  43.468  17.224   1.924
24385W        W85696  11.140  21.660  14.901
24386W        W85697   8.344  41.416  13.823
24387W        W85698  33.483  30.440   5.202
24388W        W85699  30.518  21.023  14.782
24389W        W85700  21.512   4.384  14.022
24390W        W85701  29.025  31.644   4.787
24391W        W85702  10.657  26.120   3.728
24392W        W85703   7.397  34.085   2.291
24393W        W85704  34.876   2.821   1.382
24394W        W85705  13.842  22.507   2.756
24395W        W85706  27.177  17.301   1.802
24396W        W85707  18.196   5.225  11.077
24397W        W85708  26.954  37.986   4.225
24398W        W85709  43.912   3.837  11.969
24399W        W85710  12.732  43.319   3.359
24400W        W85711   3.423   4.851   5.131
24401W        W85712   7.868   5.799  13.491
24402W        W85713  15.255  13.277   4.757
24403W        W85714  22.685  19.665  12.094
24404W        W85715  11.237  25.050  12.951
24405W        W85716  34.942  29.933   5.694
24406W        W85717  36.845  28.445   5.625
24407W        W85718   5.786  15.213   1.212
24408W        W85719  23.581  30.064   0.843
24409W        W85720  38.847  42.344   0.364
24410W        W85721  40.953   9.794  12.361
24411W        W85722  25.713  17.207   4.124
24412W        W85723  19.108  13.663  11.561
24413W        W85724  29.086   7.384   2.305
24414W        W85725  41.423  15.779   0.850
24415W        W85726  23.018  31.532  12.085
24416W        W85727  11.313  11.628  12.834
24417W        W85728  33.556  44.463  10.642
24418W        W85729  37.541  34.901  13.537
24419W        W85730  21.616  23.523  10.594
24420W        W85731  13.326  35.469   0.896
24421W        W85732  40.377  28.435   1.782
24422W        W85733  20.190  34.575   4.214
24423W        W85734  34.888  11.751   3.789
24424W        W85735  24.067  25.058   3.862
24425W        W85736  22.534  20.192  13.793
24426W        W85737  13.302   3.228   1.746
24427W        W85738  20.584   1.369   2.863
24428W        W85739  44.893  17.572   1.806
24429W        W85740  22.075  30.420  11.591
24430W        W85741  18.215  20.184   4.163
24431W        W85742  29.124  11.141  11.052
24432W        W85743  34.999   3.756   4.711
24433W        W85744   1.846  38.494  11.903
24434W        W85745   4.936  23.046  13.028
24435W        W85746  23.177  30.039   1.909
24436W        W85747  35.887  32.025   0.756
24437W        W85748  20.184   9.330   1.860
24438W        W85749  39.490  16.790   2.730
24439W        W85750  36.082  17.697   3.276
24440W        W85751  34.603  36.424  12.425
24441W        W85752  44.888  41.854   1.743
24442W        W85753  37.999  33.484  11.380
24443W        W85754  30.471  25.589  12.497
24444W        W85755  41.532  29.522  11.437
24445W        W85756  40.323  29.603  11.071
24446W        W85757   9.693  36.902  13.941
24447W        W85758  22.507  27.527   4.323
24448W        W85759  24.206  42.839   0.280
24449W        W85760   6.809  17.674   5.806
24450W        W85761  29.447  12.725  11.886
24451W        W85762  16.073  38.971   1.278
24452W        W85763  10.162  31.109   4.322
24453W        W85764  21.679  35.021   0.390
24454W        W85765  44.755   0.976  10.485
24455W        W85766  38.988   8.770  12.826
24456W        W85767  36.046  37.005   4.208
24457W        W85768  21.259  13.286  12.855
24458W        W85769   6.731  19.161  11.465
24459W        W85770  42.341  22.545   3.656
24460W        W85771  33.383  44.920   5.237
24461W        W85772  13.749  35.368   2.787
24462W        W85773  42.405  19.217  13.518
24463W        W85774   9.226   2.265   1.887
24464W        W85775  27.586  22.668   3.278
24465W        W85776  11.171  24.132   5.244
24466W        W85777   4.840  32.968  14.895
24467W        W85778  12.136  39.425   0.243
24468W        W85779  41.976  20.723  14.902
24469W        W85780  35.514   6.398   1.330
24470W        W85781  28.626  19.554  12.863
24471W        W85782  32.034  43.291   2.688
24472W        W85783  24.165   6.422   5.178
24473W        W85784  36.848  13.296  12.491
24474W        W85785  21.249   7.665   4.755
24475W        W85786  35.991  43.951  10.901
24476W        W85787  25.624  29.926  13.323
24477W        W85788   9.790  11.791  12.556
24478W        W85789  34.009  25.068   0.850
24479W        W85790  30.141  10.698  10.640
24480W        W85791   1.841  33.512  14.878
24481W        W85792  29.165  29.617   4.636
24482W        W85793  30.034   7.339   4.337
24483W        W85794   6.919  34.471   3.255
24484W        W85795  22.631  35.086  13.464
24485W        W85796   7.878  23.696  12.511
24486W        W85797  28.544   9.259  13.388
24487W        W85798   1.296  34.371   1.829
24488W        W85799  13.807  42.505   3.657
24489W        W85800  12.674  39.356   4.759
24490W        W85801  26.152  16.266   2.694
24491W        W85802  20.656  11.174   0.821
24492W        W85803   9.298   5.906  14.759
24493W        W85804  21.723  25.108   3.220
24494W        W85805  11.751  35.510   4.344
24495W        W85806   1.360   5.722  14.333
24496W        W85807  25.615  10.854  12.012
24497W        W85808  34.502  14.339   2.753
24498W        W85809  15.765   4.302  11.091
24499W        W85810  31.637  14.192  13.372
24500W        W85811  27.627  18.635   3.866
24501W        W85812  39.375  42.985   1.918
24502W        W85813   5.897  30.922  13.857
24503W        W85814  16.075   8.858   1.326
24504W        W85815  44.335   8.387   1.281
24505W        W85816  34.913   3.224   4.673
24506W        W85817  39.811   3.716   3.217
24507W        W85818   7.749   7.789  14.022
24508W        W85819  24.721  43.303   0.931
24509W        W85820   1.399  42.385  14.897
24510W        W85821  16.258  34.900  10.475
24511W        W85822  38.370  28.167   1.806
24512W        W85823   8.243  29.658   0.262
24513W        W85824  32.114   9.787   4.756
24514W        W85825  21.714  20.066  13.964
24515W        W85826  38.924  25.218   1.285
24516W        W85827  33.609  43.901  14.470
24517W        W85828   2.936  37.383  12.000
24518W        W85829  42.308   4.326   3.344
24519W        W85830   2.413  43.400   3.856
24520W        W85831  24.173  21.219   1.817
24521W        W85832   5.864   0.395   2.224
24522W        W85833  36.005  32.497  14.980
24523W        W85834   9.234  15.653   4.622
24524W        W85835   0.758  19.124  11.856
24525W        W85836  28.572  36.454  13.419
24526W        W85837  12.745  27.174   1.320
24527W        W85838  40.428   2.722   4.656
24528W        W85839   9.343  15.157   0.302
24529W        W85840  38.897  26.625   4.154
24530W        W85841  10.760  41.307  12.024
24531W        W85842  16.127  44.896   2.887
24532W        W85843  37.484  17.255   2.290
24533W        W85844  31.403  26.184   1.784
24534W        W85845  37.972  29.019   4.338
24535W        W85846  28.579   0.395  14.844
24536W        W85847   8.736  23.222   4.144
24537W        W85848  33.066   4.341  13.411
24538W        W85849  15.136  40.373  13.365
24539W        W85850  29.035   8.776   1.858
24540W        W85851  20.199  28.096   5.186
24541W        W85852  39.958  27.082  11.871
24542W        W85853  28.476  26.140  13.322
24543W        W85854  37.467  38.417   0.851
24544W        W85855   5.874  28.459  14.878
24545W        W85856  27.020  39.442  12.927
24546W        W85857  40.822  14.742   4.647
24547W        W85858  18.070  17.747  10.484
24548W        W85859   0.975   9.831   1.871
24549W        W85860  14.326  14.331   2.327
24550W        W85861  33.489   1.784   1.302
24551W        W85862   2.735   6.227  11.995
24552W        W85863  10.762  34.897   2.276
24553W        W85864  32.971  42.364   2.851
24554W        W85865   6.907  28.059   3.317
24555W        W85866  31.599   4.832   3.680
24556W        W85867   6.841  20.065  12.053
24557W        W85868   3.870  15.714   1.351
24558W        W85869  36.960  37.832  14.347
24559W        W85870  25.006   5.896   2.698
24560W        W85871  13.291  31.968  12.544
24561W        W85872  25.170   7.229   1.438
24562W        W85873  44.483   6.791   2.200
24563W        W85874  42.376  40.822  14.993
24564W        W85875  41.951  26.541  11.485
24565W        W85876  17.081  20.611  11.914
24566W        W85877  26.534  28.146   3.741
24567W        W85878   6.402   0.983   3.654
24568W        W85879   5.792  28.451   4.208
24569W        W85880  35.509   8.830   0.905
24570W        W85881   1.245   0.438  10.898
24571W        W85882  27.078   8.327   2.328
24572W        W85883  35.451  22.654   0.474
24573W        W85884  17.293  15.596   0.913
24574W        W85885  22.181  40.500  13.852
24575W        W85886  30.910  23.042  11.373
24576W        W85887  34.093  26.700   1.824
24577W        W85888  10.710  32.927  12.059
24578W        W85889  41.965  33.001  13.924
24579W        W85890  16.146   2.779   1.400
24580W        W85891  23.057   9.884  12.979
24581W        W85892   5.410  14.759  11.403
24582W        W85893  40.044   4.392   3.842
24583W        W85894  31.021  37.081  13.811
24584W        W85895   4.936  33.497  11.587
24585W        W85896   8.174  15.085  13.499
24586W        W85897  30.536  31.043  13.480
24587W        W85898   4.842  36.855   2.243
24588W        W85899  41.895  17.799  14.984
24589W        W85900  39.369  25.701  14.355
24590W        W85901   4.712  28.439   2.293
24591W        W85902  36.381  38.841  14.309
24592W        W85903  25.692  26.184  13.965
24593W        W85904  17.168  32.922   4.217
24594W        W85905   4.699   4.352  11.459
24595W        W85906  19.578  41.377  12.997
24596W        W85907  44.798  36.569  14.969
24597W        W85908  21.689  33.615   4.813
24598W        W85909  14.123  26.564  12.957
24599W        W85910  25.595  18.153   0.290
24600W        W85911  12.796  27.517   2.255
24601W        W85912  26.995  11.315  13.403
24602W        W85913  39.325  22.197  12.058
24603W        W85914  30.607  11.824  12.951
24604W        W85915  13.680  27.589   3.848
24605W        W85916   3.445  18.711   4.758
24606W        W85917  30.633  21.620   1.799
24607W        W85918  11.649   1.422  12.532
24608W        W85919  40.328  42.989  12.925
24609W        W85920  25.155  24.508   0.771
24610W        W85921  25.477  19.042   9.606
24611W        W85922  20.544  24.198  12.045
24612W        W85923  27.447  33.127  11.415
24613W        W85924  17.734  35.034   0.842
24614W        W85925  42.343  29.646   2.758
24615W        W85926  22.510  14.676  11.476
24616W        W85927  13.656  17.778   3.179
24617W        W85928   5.228  40.952   1.437
24618W        W85929  42.899  11.749   5.203
24619W        W85930  15.816  22.012  14.485
24620W        W85931  34.867  30.505   0.357
24621W        W85932  28.488   2.958   3.311
24622W        W85933  26.597  15.191   4.633
24623W        W85934  28.058  32.414  11.540
24624W        W85935   1.290  44.346  14.894
24625W        W85936   9.388  31.521   1.757
24626W        W85937  38.518   7.836   2.813
24627W        W85938  17.617  43.000   1.425
24628W        W85939  41.984  42.434  14.321
24629W        W85940  31.031  32.064  13.514
24630W        W85941   6.885  44.905  13.022
24631W        W85942  43.005  30.637   4.634
24632W        W85943  31.457   1.431  11.481
24633W        W85944  24.635   5.902   0.312
24634W        W85945  33.578  35.005   1.445
24635W        W85946  14.272  35.095   0.743
24636W        W85947  31.610  12.808   2.803
24637W        W85948  21.607  15.650   0.868
24638W        W85949  36.568  42.423  11.507
24639W        W85950  28.979  41.342   0.913
24640W        W85951  14.150   1.455   4.832
24641W        W85952  15.213  43.408   4.680
24642W        W85953  42.890   4.853  13.896
24643W        W85954  30.982   7.787  13.937
24644W        W85955  13.612  39.393  12.915
24645W        W85956  33.587  18.571  14.015
24646W        W85957  11.155  18.146  12.049
24647W        W85958  17.073   1.426  10.551
24648W        W85959  35.585  19.163   2.880
24649W        W85960   5.198  22.241  10.434
24650W        W85961  36.062  19.537  13.457
24651W        W85962  17.257  12.790   5.168
24652W        W85963  26.062  23.529   4.313
24653W        W85964  33.608  28.637   0.305
24654W        W85965   6.826  25.175   4.268
24655W        W85966  14.280  43.349  11.482
24656W        W85967  26.562  29.570   0.468
24657W        W85968  39.044  43.833   0.455
24658W        W85969  16.226  23.637  12.552
24659W        W85970  18.560  40.974  14.363
24660W        W85971   0.264   4.286   2.268
24661W        W85972   9.717  42.868   2.309
24662W        W85973  44.784  10.845   2.761
24663W        W85974  12.337   3.288  13.977
24664W        W85975   1.738  14.234  11.120
24665W        W85976  30.118  27.108   2.230
24666W        W85977  37.481  34.600   2.699
24667W        W85978  12.699  22.032  14.337
24668W        W85979  39.478  30.008  12.878
24669W        W85980  28.123  44.950  14.014
24670W        W85981  18.617   9.228  11.988
24671W        W85982   2.471  17.741  11.993
24672W        W85983  34.914  32.110  14.319
24673W        W85984  35.383  41.494   1.246
24674W        W85985  18.286  39.949  13.852
24675W        W85986   1.347  28.170  11.609
24676W        W85987  31.557  40.936  14.815
24677W        W85988  44.940  44.430  10.575
24678W        W85989  43.020  11.180   1.432
24679W        W85990  12.748  20.732   2.317
24680W        W85991   1.439  26.084   0.934
24681W        W85992  13.254  15.675  14.977
24682W        W85993   5.750  43.016   2.309
24683W        W85994  32.545  30.441   2.316
24684W        W85995   9.388  33.065  12.003
24685W        W85996  17.188   9.313   0.245
24686W        W85997  37.945  33.895  12.481
24687W        W85998  12.664   5.261   0.339
24688W        W85999   6.374  24.608  11.530
24689W        W86000  12.726  39.005   2.761
24690W        W86001   1.457  23.715   4.196
24691W        W86002  18.288  21.070  12.851
24692W        W86003  15.588  23.587   3.678
24693W        W86004  18.683   8.325  11.894
24694W        W86005   2.268   9.215   3.853
24695W        W86006   3.439  15.298  13.031
24696W        W86007  22.700  44.859  10.892
24697W        W86008  24.149  29.087   3.635
24698W        W86009  30.110  26.563  14.871
24699W        W86010  30.569  11.683   0.294
24700W        W86011  41.362  36.082  13.879
24701W        W86012  40.308  20.205  12.036
24702W        W86013  12.698   0.924  14.019
24703W        W86014  35.391  15.760  10.603
24704W        W86015  37.559   7.292   1.219
24705W        W86016  19.139  11.213   3.184
24706W        W86017  21.116  42.916   5.089
24707W        W86018  17.737  20.149   0.844
24708W        W86019  12.275  41.898  14.323
24709W        W86020  12.250   8.896   1.802
24710W        W86021   5.406  22.672   4.700
24711W        W86022   3.238   7.902  13.359
24712W        W86023  31.129  28.464   0.797
24713W        W86024  19.661  27.541   3.853
24714W        W86025  24.091  30.591  13.326
24715W        W86026  42.517  44.316   0.762
24716W        W86027  37.515  38.437   3.702
24717W        W86028  36.369  29.508  14.879
24718W        W86029  43.935  34.577   2.289
24719W        W86030  21.116  33.022   2.883
24720W        W86031  23.702  20.766  13.000
24721W        W86032  22.625   7.273  13.372
24722W        W86033  19.248  37.349   4.174
24723W        W86034   8.255  18.134   1.253
24724W        W86035   5.902  41.371   1.226
24725W        W86036  31.624  23.656   2.815
24726W        W86037  34.532  44.809   0.964
24727W        W86038  13.297  11.137   3.293
24728W        W86039  30.621  28.166  10.465
24729W        W86040  35.901  41.296   0.331
24730W        W86041  14.706  35.088  10.568
24731W        W86042  25.152   8.698   1.865
24732W        W86043  14.729  13.117  12.553
24733W        W86044  40.892  31.514   3.364
24734W        W86045  17.589   4.942   4.799
24735W        W86046  40.315   5.268   0.732
24736W        W86047  24.008   1.269   3.715
24737W        W86048  14.691  44.262  13.532
24738W        W86049  11.841   3.885  10.931
24739W        W86050  32.009  37.518   3.847
24740W        W86051  41.852  29.642  11.053
24741W        W86052  10.704   1.236  11.482
24742W        W86053  41.975  15.223   4.693
24743W        W86054  17.104  15.732  14.007
24744W        W86055  22.246  13.739   1.400
24745W        W86056  22.029  40.965   5.283
24746W        W86057  14.203  36.536   4.262
24747W        W86058  42.995  27.559  13.953
24748W        W86059  13.755  10.729  13.511
24749W        W86060   8.732  28.948   4.783
24750W        W86061  25.107  19.772   4.280
24751W        W86062  10.213   0.821   4.142
24752W        W86063  28.171   8.215   2.218
24753W        W86064  16.745  21.216  10.510
24754W        W86065  25.178  41.966   0.447
24755W        W86066  10.696  38.560  14.869
24756W        W86067  23.167  28.097   9.970
24757W        W86068  35.454  27.674  11.550
24758W        W86069  14.174  32.948  12.846
24759W        W86070  20.257   1.741   0.347
24760W        W86071  38.049  10.277  12.042
24761W        W86072  32.391  30.490   4.712
24762W        W86073  15.301   2.378   5.157
24763W        W86074  44.010  36.947  11.415
24764W        W86075   2.458  41.938  12.362
24765W        W86076  18.296  16.630   3.833
24766W        W86077  13.846  41.936   3.764
24767W        W86078  17.630  37.031   2.275
24768W        W86079  38.545  39.953   2.831
24769W        W86080  30.575  43.479  10.600
24770W        W86081  18.223  16.231   9.610
24771W        W86082   7.854  22.599  12.023
24772W        W86083  12.640  38.477  12.352
24773W        W86084  42.777  35.891  11.502
24774W        W86085   6.182   1.769  13.853
24775W        W86086  11.683  23.625   2.377
24776W        W86087  16.073   0.432  13.417
24777W        W86088   5.784   2.388   3.661
24778W        W86089   7.862  23.626   3.155
24779W        W86090  42.308  32.589   2.270
24780W        W86091   3.756  41.488  13.496
24781W        W86092   0.248   0.384   4.116
24782W        W86093  35.093  29.642   2.710
24783W        W86094   2.411  12.317   4.720
24784W        W86095  39.378  22.123   1.892
24785W        W86096   6.717  10.164   1.779
24786W        W86097  14.785  30.497  12.573
24787W        W86098  15.696  15.124   3.308
24788W        W86099  19.171   8.231   0.796
24789W        W86100  15.111  10.860  13.346
24790W        W86101   4.751  14.294   2.335
24791W        W86102  17.781  36.439   0.885
24792W        W86103   3.335  18.695  10.423
24793W        W86104  43.480   2.290  11.062
24794W        W86105  17.653  17.120   4.665
24795W        W86106  35.410  20.683  10.581
24796W        W86107   1.942  43.439  10.891
24797W        W86108  27.138  12.137   0.905
24798W        W86109   5.822  34.053  12.083
24799W        W86110  11.847  39.433   0.268
24800W        W86111  25.063   5.792  10.116
24801W        W86112  16.285   3.340  12.895
24802W        W86113  32.936  26.145  10.629
24803W        W86114  13.726  12.126  13.056
24804W        W86115  10.764  13.712  10.926
24805W        W86116  10.726   7.227   3.667
24806W        W86117   0.791   7.900  13.456
24807W        W86118  29.473  25.007   2.771
24808W        W86119  39.509  43.939  14.905
24809W        W86120  41.370  32.509   3.740
24810W        W86121  33.006  11.706   4.182
24811W        W86122  31.634  36.480   1.406
24812W        W86123  16.215  40.384  12.374
24813W        W86124  38.860  13.677  13.042
24814W        W86125  12.335  22.677   1.246
24815W        W86126  22.599   2.280  12.041
24816W        W86127  21.042  37.982  12.012
24817W        W86128  22.202   8.835  11.418
24818W        W86129  18.552  25.686  14.903
24819W        W86130  32.004   4.718  12.925
24820W        W86131  12.289   0.366  12.399
24821W        W86132   3.857   4.383  11.485
24822W        W86133  31.921  12.125   0.761
24823W        W86134  37.889  13.785  14.767
24824W        W86135   5.369  31.521  14.297
24825W        W86136  21.725  43.930  12.376
24826W        W86137  32.414  43.791   2.775
24827W        W86138  25.062  35.551  12.958
24828W        W86139  32.946  36.963  13.063
24829W        W86140   7.850  29.599  11.072
24830W        W86141  26.646   3.292   3.723
24831W        W86142  37.368  22.156   4.822
24832W        W86143  32.011  35.562  13.929
24833W        W86144  39.894  26.521  10.036
24834W        W86145  25.078   6.779  10.583
24835W        W86146  17.211  20.208  11.996
24836W        W86147   4.874   7.270   0.450
24837W        W86148  12.347  22.066   2.854
24838W        W86149   6.709   5.738  12.843
24839W        W86150  14.822   0.438   4.162
24840W        W86151  32.049  20.075  13.871
24841W        W86152  28.070  25.557   3.305
24842W        W86153  15.220  20.159  12.904
24843W        W86154  26.651  16.757  10.913
24844W        W86155  31.031  43.854  12.499
24845W        W86156   5.369   8.205  13.940
24846W        W86157  34.449  21.527   4.800
24847W        W86158  23.035  35.385   4.194
24848W        W86159  27.484  42.801  13.986
24849W        W86160  12.753  31.575   2.375
24850W        W86161  39.835  41.843  12.038
24851W        W86162  22.168   9.333  14.332
24852W        W86163  14.727   3.737  14.287
24853W        W86164  16.762  17.713   3.709
24854W        W86165  23.545  40.432  13.862
24855W        W86166   5.776  12.235   4.609
24856W        W86167  23.039  43.959  10.958
24857W        W86168   7.171   8.363  14.792
24858W        W86169  37.957   0.793  13.345
24859W        W86170  31.586   2.242   1.695
24860W        W86171  17.746  32.611  12.374
24861W        W86172  43.981   0.463   1.808
24862W        W86173  23.564  28.611  12.081
24863W        W86174  24.607   5.308   1.825
24864W        W86175  31.627  12.641  11.030
24865W        W86176  25.529  42.867  14.970
24866W        W86177  13.636  23.039   0.905
24867W        W86178   5.708  11.843   0.418
24868W        W86179  10.373  31.103  10.484
24869W        W86180  34.527  37.455   4.316
24870W        W86181   1.366  35.047   1.804
24871W        W86182  19.690  12.245  11.128
24872W        W86183   8.757  11.283  11.582
24873W        W86184  39.403  29.459  11.611
24874W        W86185   1.773  19.702  10.564
24875W        W86186  22.165  29.504  14.342
24876W        W86187  32.423   8.265   1.326
24877W        W86188  12.762  32.006  13.940
24878W        W86189   5.234  33.613  13.930
24879W        W86190  31.510  43.966  13.380
24880W        W86191  31.948  32.490  12.980
24881W        W86192  18.113   3.313  14.495
24882W        W86193   1.283  24.138   0.904
24883W        W86194  21.692  35.501  10.497
24884W        W86195  39.943  22.995   3.747
24885W        W86196   2.460  14.137  14.788
24886W        W86197  22.242  24.106  10.532
24887W        W86198  17.224  34.490  12.371
24888W        W86199  28.528   6.285  11.419
24889W        W86200  13.290  33.526  14.487
24890W        W86201  18.643   7.295   4.754
24891W        W86202  23.658  16.313  12.929
24892W        W86203  27.150  24.673  11.986
24893W        W86204  44.277  31.933   2.883
24894W        W86205  32.967  25.102  13.357
24895W        W86206  11.790   6.334  11.912
24896W        W86207  36.353   4.279  14.964
24897W        W86208  19.543  21.529  11.861
24898W        W86209  13.190  24.217  12.488
24899W        W86210  44.318  37.968   4.742
24900W        W86211  43.917  35.015   0.363
24901W        W86212  21.516   5.418   1.313
24902W        W86213  38.064  28.151  13.504
24903W        W86214   4.404   1.439   4.750
24904W        W86215   4.247   9.660  12.981
24905W        W86216  29.956  34.379  13.009
24906W        W86217  25.982   0.446   3.349
24907W        W86218   5.880   0.965  11.382
24908W        W86219  21.096  19.135  13.847
24909W        W86220  33.475  24.207  11.480
24910W        W86221   3.312  38.563   0.247
24911W        W86222  43.360  31.124  10.904
24912W        W86223   8.396   4.723   0.322
24913W        W86224  31.101  33.960  10.596
24914W        W86225  10.684  20.584  13.030
24915W        W86226  17.623  33.091  11.063
24916W        W86227  25.586  42.021  13.039
24917W        W86228   0.814  20.159   4.293
24918W        W86229  10.200  23.217  13.348
24919W        W86230  39.441  26.130  12.833
24920W        W86231   3.830  16.753  14.800
24921W        W86232   2.763  34.115   3.264
24922W        W86233  32.074  30.002   3.156
24923W        W86234  23.121  21.195  10.411
24924W        W86235  22.095  29.948  11.876
24925W        W86236  38.493  36.362   1.880
24926W        W86237  35.931  20.610   1.885
24927W        W86238  43.833   3.279   3.334
24928W        W86239  26.678  33.954  14.319
24929W        W86240   7.288  30.496   4.836
24930W        W86241  17.563  21.075  12.986
24931W        W86242  43.874  16.183   3.198
24932W        W86243  16.158  25.069  12.504
24933W        W86244   7.796  18.584  13.914
24934W        W86245  21.038  18.273  10.477
24935W        W86246  16.224  41.333  12.365
24936W        W86247   5.741  24.120   0.750
24937W        W86248   6.286  38.399  13.871
24938W        W86249  26.700   3.366  12.577
24939W        W86250  15.733   6.886   0.896
24940W        W86251  31.525  23.614   3.796
24941W        W86252  29.531  17.297   2.179
24942W        W86253  16.316  22.697  12.956
24943W        W86254  35.016  24.637   0.931
24944W        W86255  21.255  13.316  10.936
24945W        W86256  20.617  25.052  13.970
24946W        W86257  13.617  12.170   2.407
24947W        W86258  29.554  20.237   1.796
24948W        W86259  19.045  24.204  14.028
24949W        W86260   9.721   4.337   3.322
24950W        W86261  29.171  26.579  13.989
24951W        W86262  22.060  40.474  12.013
24952W        W86263   6.913  35.960  11.560
24953W        W86264   3.367   4.783  10.411
24954W        W86265  23.713  33.434  10.622
24955W        W86266   5.321  26.543   2.258
24956W        W86267  37.037  16.693   1.224
24957W        W86268  42.973   4.713   0.260
24958W        W86269  24.215  44.985   0.908
24959W        W86270  15.172  39.368  11.433
24960W        W86271  16.700  43.016   4.234
24961W        W86272  10.758  13.128  10.096
24962W        W86273   0.791  23.733  13.415
24963W        W86274  44.489  22.024  10.021
24964W        W86275   5.923  13.773   5.633
24965W        W86276  12.797  44.468  12.516
24966W        W86277   0.910   4.820   1.344
24967W        W86278  39.839  30.559  10.522
24968W        W86279  22.741  18.658   3.299
24969W        W86280  19.742  34.062   4.687
24970W        W86281  17.782  32.454   1.347
24971W        W86282   9.776   8.358   4.798
24972W        W86283  16.707   6.358  11.378
24973W        W86284   3.761  16.229   4.716
24974W        W86285  44.281  22.224  14.861
24975W        W86286  22.207  32.063  10.589
24976W        W86287  33.615   4.760  10.552
24977W        W86288   1.906   4.803  12.428
24978W        W86289  40.481  20.112  13.490
24979W        W86290  26.174  38.364  13.392
24980W        W86291  16.619  26.110  11.514
24981W        W86292  14.627  37.504   1.767
24982W        W86293  27.671  28.658  10.521
24983W        W86294  16.087   3.841   2.231
24984W        W86295  33.927  36.978  10.916
24985W        W86296  30.043  19.060  10.442
24986W        W86297  11.682  32.442   4.203
24987W        W86298  11.868  39.966  13.332
24988W        W86299  13.290   3.277   4.726
24989W        W86300   6.717  24.619   0.892
24990W        W86301   6.752  10.725  14.283
24991W        W86302  44.469  39.492  14.347
24992W        W86303  44.341  15.271   2.671
24993W        W86304   7.792  13.642   5.167
24994W        W86305   2.808  28.135   3.253
24995W        W86306  16.282  17.701  14.803
24996W        W86307   2.958  17.155  11.604
24997W        W86308  15.698   3.941  13.326
24998W        W86309  25.128  19.220   3.842
24999W        W86310   3.952  41.369  12.827
25000W        W86311   5.427  17.668  10.539
25001W        W86312  27.178  20.136  12.010
25002W        W86313   8.290  14.827   4.640
25003W        W86314   7.401   7.334   2.855
25004W        W86315  25.517  39.877   4.656
25005W        W86316   8.688   7.816  14.998
25006W        W86317  27.567  16.276  13.956
25007W        W86318  14.771  15.617  12.341
25008W        W86319   6.843   4.739   3.257
25009W        W86320  35.900  16.691   2.857
25010W        W86321   2.887  28.587   1.793
25011W        W86322  41.531  18.609  12.472
25012W        W86323  20.686   2.865   1.426
25013W        W86324  38.496  37.068   2.678
25014W        W86325   0.338  38.844   2.759
25015W        W86326  25.522  26.641  12.989
25016W        W86327  43.975  14.656  11.876
25017W        W86328  31.524  25.149  11.002
25018W        W86329  36.573  25.063  13.861
25019W        W86330   2.390  30.629   3.234
25020W        W86331   7.785  10.186  11.987
25021W        W86332  28.593  18.142  12.016
25022W        W86333  41.387  38.333  13.057
25023W        W86334  10.734  36.482   3.679
25024W        W86335  23.049  19.284   3.854
25025W        W86336  20.244   0.851  13.504
25026W        W86337  41.336  26.080   4.174
25027W        W86338  43.980  15.214   1.366
25028W        W86339  27.595  20.638   4.750
25029W        W86340   1.741   3.266  12.375
25030W        W86341  43.916  36.941   1.935
25031W        W86342  32.019  11.283   1.224
25032W        W86343  21.202  21.753   2.324
25033W        W86344  21.599  14.181  12.564
25034W        W86345  42.919  29.586   5.284
25035W        W86346  10.633   3.381   1.353
25036W        W86347  32.592  13.788   4.121
25037W        W86348  24.008   4.932  10.103
25038W        W86349  38.971  40.353   0.296
25039W        W86350  25.585  13.765   1.813
25040W        W86351  35.417  40.328  14.833
25041W        W86352   3.949  15.083  11.023
25042W        W86353  39.020  37.883  12.911
25043W        W86354  21.705   7.874  13.845
25044W        W86355  18.181  44.263   1.227
25045W        W86356  20.535  44.367   2.702
25046W        W86357  42.523  31.087   4.705
25047W        W86358  25.508  16.687  10.633
25048W        W86359  20.210   7.177   9.994
25049W        W86360  23.594   5.733   1.828
25050W        W86361  29.589   6.745  13.416
25051W        W86362  15.292  13.608   1.756
25052W        W86363  40.027  31.095   3.224
25053W        W86364  20.265  29.994  12.398
25054W        W86365   4.941  32.456  11.070
25055W        W86366  38.334  17.288   4.235
25056W        W86367   9.740  23.011   0.798
25057W        W86368  30.537  36.492  13.349
25058W        W86369  31.146  20.687   3.674
25059W        W86370  11.195   1.322  14.929
25060W        W86371   0.812  14.334   1.349
25061W        W86372  37.470  22.731  11.953
25062W        W86373  34.982   7.837  13.001
25063W        W86374  37.073   1.800   4.338
25064W        W86375   8.342  18.246  13.932
25065W        W86376  44.814  43.793  10.539
25066W        W86377   6.302  18.672  11.484
25067W        W86378  43.419  13.157   0.414
25068W        W86379  33.464  27.669   0.378
25069W        W86380  18.161  35.097   2.262
25070W        W86381  30.161  43.399   2.825
25071W        W86382  34.438  38.553   4.118
25072W        W86383  43.439  23.159   0.931
25073W        W86384  40.371   2.849   1.282
25074W        W86385  17.670  27.941   4.208
25075W        W86386  19.620   9.280   1.223
25076W        W86387  15.143   9.284  11.100
25077W        W86388  37.442  12.627  14.486
25078W        W86389  18.283   2.263   1.257
25079W        W86390  35.859  19.648   4.759
25080W        W86391  44.470  20.081   2.893
25081W        W86392  38.892  39.339   1.239
25082W        W86393  21.525  12.332  11.072
25083W        W86394  44.828  38.482  13.396
25084W        W86395  39.473  17.764   3.736
25085W        W86396  22.556  34.556  12.976
25086W        W86397  37.525   5.838  14.361
25087W        W86398   3.930  38.451  11.036
25088W        W86399  36.076  40.422   5.309
25089W        W86400  29.567  16.155   3.677
25090W        W86401  39.560  27.940  10.405
25091W        W86402  31.963  11.192  11.375
25092W        W86403  31.942  17.591  12.958
25093W        W86404  18.150   8.831   0.427
25094W        W86405  16.251  37.359   0.262
25095W        W86406  32.510   2.438  10.556
25096W        W86407   6.356  11.833  13.356
25097W        W86408  43.799  28.929   1.307
25098W        W86409  10.800  11.797   1.863
25099W        W86410  17.192  24.148   3.365
25100W        W86411   9.837  36.083   4.603
25101W        W86412   5.820   2.275   1.317
25102W        W86413   5.266  11.148  12.835
25103W        W86414  12.348  29.519   1.804
25104W        W86415  27.479  25.194  13.797
25105W        W86416  43.007  35.488   3.257
25106W        W86417  23.492  15.727  14.853
25107W        W86418   0.922  38.563  14.002
25108W        W86419  29.668   4.833  11.589
25109W        W86420  12.282  25.985  13.379
25110W        W86421  21.118  18.192  13.437
25111W        W86422  29.009  16.680   4.286
25112W        W86423  32.599   6.360  10.912
25113W        W86424  19.261  35.057   3.759
25114W        W86425   6.745  40.029  14.970
25115W        W86426  13.220  15.292   0.929
25116W        W86427  28.435  10.646  11.505
25117W        W86428  22.744   8.344  12.851
25118W        W86429  17.088  40.900   4.799
25119W        W86430  32.577  27.987   1.210
25120W        W86431  13.726   3.249  10.946
25121W        W86432  43.940  40.924  12.392
25122W        W86433  35.532  13.269   0.853
25123W        W86434  31.452  44.404  14.422
25124W        W86435  40.440  28.646   2.886
25125W        W86436   7.330  18.752  13.451
25126W        W86437  34.422  42.985  10.423
25127W        W86438  24.005  10.736   3.251
25128W        W86439  16.104   1.462  13.466
25129W        W86440  23.605  41.957  10.941
25130W        W86441   3.778  17.734  14.923
25131W        W86442   6.695  18.294  13.801
25132W        W86443   8.838  30.484  11.033
25133W        W86444  18.155   3.764  14.346
25134W        W86445  43.278  44.933   1.706
25135W        W86446  32.504  27.044   2.307
25136W        W86447  33.456  35.555  11.013
25137W        W86448  24.184  21.566   1.239
25138W        W86449  31.533  18.759   4.271
25139W        W86450  26.574  18.582  13.998
25140W        W86451  38.904   5.775  13.916
25141W        W86452  23.514  17.585  12.504
25142W        W86453  18.127  36.491   2.302
25143W        W86454  43.836  11.778  13.316
25144W        W86455  10.649  14.119   2.401
25145W        W86456   6.873   5.349   2.842
25146W        W86457  31.907  26.021  14.795
25147W        W86458  32.943   3.412  11.948
25148W        W86459  29.505  18.127   4.771
25149W        W86460  20.560   8.208   2.765
25150W        W86461  21.036  44.376   2.691
25151W        W86462  17.684   2.851  14.443
25152W        W86463  17.200  22.504   1.889
25153W        W86464   8.266  33.463  12.075
25154W        W86465  36.427  44.826   0.450
25155W        W86466  25.196  39.046   1.222
25156W        W86467  44.997  29.434  12.477
25157W        W86468   8.233  25.988  12.989
25158W        W86469  27.031   9.877  12.384
25159W        W86470  24.568  37.482  14.861
25160W        W86471   0.909  26.690   5.160
25161W        W86472  13.788  11.701   0.931
25162W        W86473  36.948  15.689  14.296
25163W        W86474  20.218  19.713  12.871
25164W        W86475   1.257   5.746  12.948
25165W        W86476  10.736   3.795   2.693
25166W        W86477  35.028  23.556  12.571
25167W        W86478   8.270  36.402   2.263
25168W        W86479  34.965  34.108  14.416
25169W        W86480  28.577  29.048  11.474
25170W        W86481  17.209  32.599  14.948
25171W        W86482  31.410   1.850   1.378
25172W        W86483  34.604   8.233  14.933
25173W        W86484  18.651  30.574  13.810
25174W        W86485  31.082  30.108  14.922
25175W        W86486  16.793  37.395  14.002
25176W        W86487  10.714  37.456  11.524
25177W        W86488  17.238  11.368  11.534
25178W        W86489  17.619   2.323   3.690
25179W        W86490  30.442  21.191   5.254
25180W        W86491  23.706  16.643   5.144
25181W        W86492  20.744   3.307  12.424
25182W        W86493  35.992   5.362  12.922
25183W        W86494  10.695  11.622   4.699
25184W        W86495   1.281  19.276  13.900
25185W        W86496  26.023   3.295  12.022
25186W        W86497   7.192  10.641  12.965
25187W        W86498  12.242  20.656   1.377
25188W        W86499   7.867  35.868  11.067
25189W        W86500   1.320  13.220  14.793
25190W        W86501  37.336  33.897  10.631
25191W        W86502  13.781  10.339  10.459
25192W        W86503  43.789  33.482  10.464
25193W        W86504  29.459  17.145  14.327
25194W        W86505  26.505  37.986  13.511
25195W        W86506  40.052  25.069  12.943
25196W        W86507   4.238  24.214  10.498
25197W        W86508  41.901   5.340  14.909
25198W        W86509  35.906   2.845  14.957
25199W        W86510  44.894  42.382  14.286
25200W        W86511  31.402  42.018   1.917
25201W        W86512  24.087   2.365  14.805
25202W        W86513  37.931  29.545  13.364
25203W        W86514   8.175   5.815   1.346
25204W        W86515   0.758  17.163  11.016
25205W        W86516  44.769   4.928  12.085
25206W        W86517  14.782   9.650  10.967
25207W        W86518  28.059  30.636   1.402
25208W        W86519   1.424  19.704  13.443
25209W        W86520  38.954  38.384   5.254
25210W        W86521  16.307  15.094  10.108
25211W        W86522  29.560  32.429  10.889
25212W        W86523  33.513  14.763   0.270
25213W        W86524  34.864  31.971   2.246
25214W        W86525  22.685  13.222   2.758
25215W        W86526  24.520  30.968   5.272
25216W        W86527  23.117  17.215   2.781
25217W        W86528  43.392  18.166   0.896
25218W        W86529  18.766   5.338   2.708
25219W        W86530  22.222  29.605  12.545
25220W        W86531  28.092  34.464  14.424
25221W        W86532  22.056  30.496  10.952
25222W        W86533  42.496  25.563   0.796
25223W        W86534  24.675  17.138   1.295
25224W        W86535  20.641  20.557  11.908
25225W        W86536   4.864  21.207   4.749
25226W        W86537  42.781  17.271   5.108
25227W        W86538  38.980  16.568  10.945
25228W        W86539   6.426  23.592  11.924
25229W        W86540   8.883  28.576   1.244
25230W        W86541  30.492  40.875  13.379
25231W        W86542  37.014  21.221   0.749
25232W        W86543  34.938  34.991  12.407
25233W        W86544  37.888  23.060   4.292
25234W        W86545  36.014  37.489  11.599
25235W        W86546  28.539  31.561   4.296
25236W        W86547   0.364  16.227  13.327
25237W        W86548  12.193  42.307  10.423
25238W        W86549  15.244   1.472   1.270
25239W        W86550  18.739  17.706   1.838
25240W        W86551  15.134  38.885   4.758
25241W        W86552  13.686  13.204  13.545
25242W        W86553  28.681  24.671   3.207
25243W        W86554  25.058  14.772  14.010
25244W        W86555   8.789   9.673  12.407
25245W        W86556  37.562  30.417  14.841
25246W        W86557  31.064  18.696   0.261
25247W        W86558  33.542  37.848   4.343
25248W        W86559   0.401   6.222  13.873
25249W        W86560  41.896   5.690   1.722
25250W        W86561   5.813   2.271  12.374
25251W        W86562  36.888  21.710  11.934
25252W        W86563  39.347  30.596  10.919
25253W        W86564   8.877  41.968  11.395
25254W        W86565  15.241   5.758   9.547
25255W        W86566  33.038  26.045  14.994
25256W        W86567   9.185  44.409  14.437
25257W        W86568  19.217  10.343  14.335
25258W        W86569  35.080   1.845   4.734
25259W        W86570   2.926  38.960   1.371
25260W        W86571  13.831  31.942  13.009
25261W        W86572  29.971  12.632  12.518
25262W        W86573  22.604   0.310   2.891
25263W        W86574   6.747  35.533   3.179
25264W        W86575  43.849  30.927  14.504
25265W        W86576  21.248  39.511  10.930
25266W        W86577  27.613  11.737   1.791
25267W        W86578  11.673  37.910   1.903
25268W        W86579  34.901  24.632  12.407
25269W        W86580  24.151  28.070  13.529
25270W        W86581   6.884  15.233  10.066
25271W        W86582   8.348  22.703   1.273
25272W        W86583  42.027  28.055  13.996
25273W        W86584  15.696  21.120  12.851
25274W        W86585  28.123  14.601   0.932
25275W        W86586  17.203  24.675   2.851
25276W        W86587  13.746  30.111   2.220
25277W        W86588   4.723   1.421   3.340
25278W        W86589   4.818  36.412   5.317
25279W        W86590  37.043  28.616  10.440
25280W        W86591  22.077  15.617  12.845
25281W        W86592  37.042  20.085  14.822
25282W        W86593  28.972  16.728   1.710
25283W        W86594   1.921   8.161  11.930
25284W        W86595  23.541  25.047   3.780
25285W        W86596   6.197  31.612  11.112
25286W        W86597  43.820   1.919   2.215
25287W        W86598  23.611   6.354  12.919
25288W        W86599  14.165   3.284  14.478
25289W        W86600  15.318  35.982  11.454
25290W        W86601  14.259  19.093   4.314
25291W        W86602  37.900   0.810  11.514
25292W        W86603   2.735   0.919   3.283
25293W        W86604  30.037  29.092   2.825
25294W        W86605  10.179  24.987   1.764
25295W        W86606  37.975   8.820   2.894
25296W        W86607  25.600  35.047   3.770
25297W        W86608  11.768  30.417   4.826
25298W        W86609  31.957   0.346  10.136
25299W        W86610  26.037  20.753  11.457
25300W        W86611   7.841  42.784  13.818
25301W        W86612   6.247  17.296  12.564
25302W        W86613  34.012  29.051   2.355
25303W        W86614  16.146  31.069   4.253
25304W        W86615   8.164   5.879   4.329
25305W        W86616  35.478  10.317  12.031
25306W        W86617   3.365  38.968  10.942
25307W        W86618  34.451  10.842  13.939
25308W        W86619  37.871   8.277  14.024
25309W        W86620  37.542  25.046  11.540
25310W        W86621   2.760  29.605   0.380
25311W        W86622   9.333  28.449   3.247
25312W        W86623  18.592  30.488  13.526
25313W        W86624  31.498  32.530   0.387
25314W        W86625  14.742  12.250   1.727
25315W        W86626  31.620  10.721  10.413
25316W        W86627  21.538  26.588  12.072
25317W        W86628  36.404  17.079  13.904
25318W        W86629  21.716  33.052   0.751
25319W        W86630  17.299  12.780   5.723
25320W        W86631  27.647   3.889   0.843
25321W        W86632  39.431  41.531   0.925
25322W        W86633   9.302  33.613  13.469
25323W        W86634  44.376  34.955   3.185
25324W        W86635  23.038  38.368  12.055
25325W        W86636  21.246  24.077  11.020
25326W        W86637  31.527  16.726  11.432
25327W        W86638  21.677  18.765  12.438
25328W        W86639  28.948   2.822  12.969
25329W        W86640  13.718  11.285   0.438
25330W        W86641  24.129   4.886   4.797
25331W        W86642  44.504  32.052  11.875
25332W        W86643  20.762  15.250   5.319
25333W        W86644  16.266   9.870   0.916
25334W        W86645  37.491   9.783   3.344
25335W        W86646  16.768  15.787  14.413
25336W        W86647  29.050  13.215  12.982
25337W        W86648  38.325  26.515  11.891
25338W        W86649   9.383  18.696  11.863
25339W        W86650   1.914  22.623  13.307
25340W        W86651  20.746  24.166  10.988
25341W        W86652  22.132  38.483   3.651
25342W        W86653  44.755   8.311  13.850
25343W        W86654  22.033  32.979   4.167
25344W        W86655   0.442  38.008   4.811
25345W        W86656  31.990  38.031  12.872
25346W        W86657  11.790  36.394   4.169
25347W        W86658  30.933  40.536   3.765
25348W        W86659  12.649  34.868  14.303
25349W        W86660  34.563  12.332  10.450
25350W        W86661   6.798  13.189  13.460
25351W        W86662  42.875  24.522   0.857
25352W        W86663  32.495  35.395   1.809
25353W        W86664   2.945  35.040  14.921
25354W        W86665   6.700   4.266  13.963
25355W        W86666  41.956  10.262  13.506
25356W        W86667   5.871  20.211  13.546
25357W        W86668  21.183  37.575  11.486
25358W        W86669   9.243  35.912   1.914
25359W        W86670  10.266   7.853  12.020
25360W        W86671  10.859  25.067  11.448
25361W        W86672   0.324  35.952   0.758
25362W        W86673   6.397  42.029   1.736
25363W        W86674   7.729  25.068  13.361
25364W        W86675   4.748   8.720   4.297
25365W        W86676  29.625  39.044   3.330
25366W        W86677  16.623  18.645   2.399
25367W        W86678  32.633  35.085  12.508
25368W        W86679  44.504   8.203   4.307
25369W        W86680   3.305  25.051   3.357
25370W        W86681  36.050  43.435   1.844
25371W        W86682  44.459   6.221  11.007
25372W        W86683  16.102  36.406   4.740
25373W        W86684  44.272  43.481  10.892
25374W        W86685   0.320  39.824  10.594
25375W        W86686  42.886   1.938  12.927
25376W        W86687  14.204   6.412  14.765
25377W        W86688  21.747  31.558   3.772
25378W        W86689   2.408   1.241  14.368
25379W        W86690  32.528  13.645   3.290
25380W        W86691  35.969  20.762  11.066
25381W        W86692  19.162  25.029  11.591
25382W        W86693  15.589  15.772  10.601
25383W        W86694   8.219  14.646  11.930
25384W        W86695  17.616  22.025  12.936
25385W        W86696   5.282  44.763  10.948
25386W        W86697  13.159  22.665   1.383
25387W        W86698   9.173   9.370  13.013
25388W        W86699   2.251  17.256   1.841
25389W        W86700  11.373  41.025  12.901
25390W        W86701  40.041  44.285  14.431
25391W        W86702  14.762  22.088   2.833
25392W        W86703   2.277   7.185  10.480
25393W        W86704  37.881  31.463   0.808
25394W        W86705  33.466   4.315   2.212
25395W        W86706  31.986  25.113   1.873
25396W        W86707  16.568  24.509  12.569
25397W        W86708  42.011  26.495   1.345
25398W        W86709   9.360  40.960   4.271
25399W        W86710  40.927  38.930  12.870
25400W        W86711  39.400  26.690   1.353
25401W        W86712   0.302  36.071   2.290
25402W        W86713  20.698  11.208  14.456
25403W        W86714  17.158   6.761  13.924
25404W        W86715  36.043   4.391   4.313
25405W        W86716  18.573  20.183  14.383
25406W        W86717  38.349  20.548  14.831
25407W        W86718   9.650  27.066   2.802
25408W        W86719  25.507   0.423   5.308
25409W        W86720   4.816   1.246  13.861
25410W        W86721  25.994   4.404   4.794
25411W        W86722  10.249  39.894   1.857
25412W        W86723  19.225  35.569   4.776
25413W        W86724  26.020  36.015  11.044
25414W        W86725  30.118  30.002   1.893
25415W        W86726  38.531  24.142   2.238
25416W        W86727  21.559  36.089  11.049
25417W        W86728  40.363  34.949   0.841
25418W        W86729  18.632   8.405  14.011
25419W        W86730  19.250  22.628   2.205
25420W        W86731  43.906  41.916   2.223
25421W        W86732  26.697  16.243   4.730
25422W        W86733  28.988  22.036  12.827
25423W        W86734  42.785  34.524   2.676
25424W        W86735  43.824   3.425  10.959
25425W        W86736  39.897  23.113  13.915
25426W        W86737   7.758  14.819   0.466
25427W        W86738   7.693  26.688  12.497
25428W        W86739   3.735  33.128   3.346
25429W        W86740  17.638   1.369   2.711
25430W        W86741  26.040  17.663  14.286
25431W        W86742  21.621  13.321   4.332
25432W        W86743   5.399   5.195   1.412
25433W        W86744  24.048  36.392  14.990
25434W        W86745  38.417  22.194  11.555
25435W        W86746  15.706  40.925   1.928
25436W        W86747   1.403  11.834   1.282
25437W        W86748  20.226  37.532   1.855
25438W        W86749  16.225  20.040  14.343
25439W        W86750  11.735   7.330  11.438
25440W        W86751  41.497  15.281  12.920
25441W        W86752   0.368  29.592  11.007
25442W        W86753  42.919  22.027  10.140
25443W        W86754  28.666  40.525  11.576
25444W        W86755  19.707  29.940   0.745
25445W        W86756  27.638  26.588  11.431
25446W        W86757   0.448  10.667   0.436
25447W        W86758  44.335  26.091  12.043
25448W        W86759  38.986  41.963  13.932
25449W        W86760  15.158  14.173   9.602
25450W        W86761   6.863   5.260   2.269
25451W        W86762  20.688  11.354  13.381
25452W        W86763  29.586  10.368  13.946
25453W        W86764   5.911  37.957  12.832
25454W        W86765  41.805  10.316  12.358
25455W        W86766  23.990  24.598   4.121
25456W        W86767   3.387  23.618   1.847
25457W        W86768  42.925   5.892  11.120
25458W        W86769   0.936  40.015   2.208
25459W        W86770   1.896  14.291  13.048
25460W        W86771   2.403  11.848  14.503
25461W        W86772  12.187  25.041   3.703
25462W        W86773  19.143  24.108   4.267
25463W        W86774  39.496  15.721   3.684
25464W        W86775  10.666   5.753  13.535
25465W        W86776  31.030  30.984   1.311
25466W        W86777  17.154   4.920  14.018
25467W        W86778  29.967  39.354  11.932
25468W        W86779  18.693   8.770  13.815
25469W        W86780   8.332  28.067   2.249
25470W        W86781  36.851  36.470  13.311
25471W        W86782  36.855  44.816   0.313
25472W        W86783  15.604  37.922  10.506
25473W        W86784  38.035   3.713  13.887
25474W        W86785  23.611  17.711  13.941
25475W        W86786   4.379   6.217  10.529
25476W        W86787  26.126  25.126  14.988
25477W        W86788  44.874  16.608  13.973
25478W        W86789  27.479   3.219   5.130
25479W        W86790  31.576  37.453  11.389
25480W        W86791  39.990  43.462   4.163
25481W        W86792  29.610  18.689   4.803
25482W        W86793  37.373  20.760  13.033
25483W        W86794   2.231   4.794   3.762
25484W        W86795  24.704  32.559  10.462
25485W        W86796  23.195  22.056  10.588
25486W        W86797  36.380  26.140   0.759
25487W        W86798  44.364  17.178   0.321
25488W        W86799  29.128   9.296  14.788
25489W        W86800   1.288  30.039  13.007
25490W        W86801   4.400   5.888  11.879
25491W        W86802  27.546  39.916   3.803
25492W        W86803  16.746  21.159  12.954
25493W        W86804  25.074   6.852  14.775
25494W        W86805  33.561  22.179  14.946
25495W        W86806  43.407  14.164  12.002
25496W        W86807  27.651  32.942  14.337
25497W        W86808  34.615  39.405   0.836
25498W        W86809  41.042  28.125   3.697
25499W        W86810  11.642  36.593  14.779
25500W        W86811   2.333  22.577   3.763
25501W        W86812  43.332  18.206  14.772
25502W        W86813  44.310   7.703   3.265
25503W        W86814  23.090  27.026   4.665
25504W        W86815  38.358  18.094  11.376
25505W        W86816  18.199  22.540   1.392
25506W        W86817  31.033  30.413  12.015
25507W        W86818  42.431  41.908  11.939
25508W        W86819  28.125   6.862  13.990
25509W        W86820  27.115  13.191   2.898
25510W        W86821   1.237  29.941   1.381
25511W        W86822  12.629  12.791   2.690
25512W        W86823  29.120  43.456  14.314
25513W        W86824  24.689  31.020  11.982
25514W        W86825  27.529  30.128   4.752
25515W        W86826  38.899  30.634   1.295
25516W        W86827  21.102  12.766  13.340
25517W        W86828  17.302  14.225  12.449
25518W        W86829   3.287  28.093  12.934
25519W        W86830   8.891  25.576  10.426
25520W        W86831   1.906  24.502  12.365
25521W        W86832  38.478  25.990   2.207
25522W        W86833  29.495  21.164   3.690
25523W        W86834  18.247  39.942   1.823
25524W        W86835  17.663  38.559   0.450
25525W        W86836  26.090   5.253  13.981
25526W        W86837  31.101  33.991   0.342
25527W        W86838   3.725  25.492   3.370
25528W        W86839  32.991  14.795  12.471
25529W        W86840  29.534   9.843  12.532
25530W        W86841  31.959  20.062  13.538
25531W        W86842   8.315  41.341  14.974
25532W        W86843  15.789  44.916  14.764
25533W        W86844  10.869  24.641   0.765
25534W        W86845   0.811  36.374   3.847
25535W        W86846  18.665  38.479   4.610
25536W        W86847  39.468  11.339  10.617
25537W        W86848  37.964   3.768  13.053
25538W        W86849  12.848   9.231   3.259
25539W        W86850  38.891  25.996  11.009
25540W        W86851  28.078  35.030  13.820
25541W        W86852  39.349  19.196  11.106
25542W        W86853  22.719  12.614  12.463
25543W        W86854  38.522  20.580   2.849
25544W        W86855  17.731  41.938  13.883
25545W        W86856   5.294  13.276  13.466
25546W        W86857  37.072  22.192  14.505
25547W        W86858  16.204   7.177  11.409
25548W        W86859  31.563  23.711  12.444
25549W        W86860   7.395  29.426   1.288
25550W        W86861  39.979  22.249  13.419
25551W        W86862  31.037  16.806   0.346
25552W        W86863   4.397  38.479   3.727
25553W        W86864  39.858  23.530   2.839
25554W        W86865   0.962  10.334  14.393
25555W        W86866  44.270  41.367  14.988
25556W        W86867  28.536  43.401  13.405
25557W        W86868  41.329  23.662  13.851
25558W        W86869  25.217  15.713   1.212
25559W        W86870  35.549  40.365  14.312
25560W        W86871   5.213  18.271  11.595
25561W        W86872  42.512  30.988   1.212
25562W        W86873  37.540  19.208  12.932
25563W        W86874  20.548  39.499  14.305
25564W        W86875  13.151   2.889   0.919
25565W        W86876   7.841  36.581   0.339
25566W        W86877  36.456  24.221  11.960
25567W        W86878  24.673  23.073   4.632
25568W        W86879   2.317   8.720  14.902
25569W        W86880  40.458  20.550  14.835
25570W        W86881  30.652  39.486   3.313
25571W        W86882  25.998  36.442   3.276
25572W        W86883   8.757  33.611  13.319
25573W        W86884  16.597  35.854  14.488
25574W        W86885  31.562  40.462   1.242
25575W        W86886  43.948  40.042  12.970
25576W        W86887  22.044  41.941  13.986
25577W        W86888  12.279  29.031   4.681
25578W        W86889  17.180  12.248   0.780
25579W        W86890  44.001  34.036  10.968
25580W        W86891  10.792   3.242   4.147
25581W        W86892  22.712  20.722  11.956
25582W        W86893  33.395  15.149   4.340
25583W        W86894  14.601  25.696   2.790
25584W        W86895  36.858  11.700  13.372
25585W        W86896  42.408  23.123  13.006
25586W        W86897   2.875   4.844  11.373
25587W        W86898  40.863  40.493  14.389
25588W        W86899  35.002  22.632  14.359
25589W        W86900  14.295  36.475  11.514
25590W        W86901   4.919  22.504   4.306
25591W        W86902  10.804  33.472  14.802
25592W        W86903  20.598  44.358   2.402
25593W        W86904   4.435  26.022   1.334
25594W        W86905  15.611   4.810  13.546
25595W        W86906  37.841   8.251  14.978
25596W        W86907  12.832  35.509   2.885
25597W        W86908  41.979  16.116  12.880
25598W        W86909  43.920  15.674  10.532
25599W        W86910  43.791  11.355   0.831
25600W        W86911  28.950  26.500   2.741
25601W        W86912  38.512   1.462  11.064
25602W        W86913  27.657  17.793   2.681
25603W        W86914   5.774   1.255  10.956
25604W        W86915   2.874  34.382   3.692
25605W        W86916  34.596  18.213  14.934
25606W        W86917  24.118  43.916   0.945
25607W        W86918  12.183   4.871  13.062
25608W        W86919  20.039  29.436  10.612
25609W        W86920  34.090  25.992   2.686
25610W        W86921   1.470  16.249  14.450
25611W        W86922   2.454  21.216  11.005
25612W        W86923  26.679  18.169  11.907
25613W        W86924  16.279  28.170   0.429
25614W        W86925  15.580   7.177  11.430
25615W        W86926  18.144   0.367  12.091
25616W        W86927  42.009  11.182  12.502
25617W        W86928  26.191  14.703  12.025
25618W        W86929   1.395  30.469  11.592
25619W        W86930  37.415  38.357  10.912
25620W        W86931  23.650  22.719   0.473
25621W        W86932  29.596  43.297   4.233
25622W        W86933  31.646  44.448   3.695
25623W        W86934   5.917  25.042   2.790
25624W        W86935  14.597  36.093   4.243
25625W        W86936  38.821  18.275  10.959
25626W        W86937  39.479   8.235   4.710
25627W        W86938  28.643  11.747  10.473
25628W        W86939  11.761  19.680   1.250
25629W        W86940   9.867  35.588  14.329
25630W        W86941  17.291  20.548   1.448
25631W        W86942  29.998   0.308   0.934
25632W        W86943  36.501  38.073   2.207
25633W        W86944  21.242  13.796  10.568
25634W        W86945  17.797  17.206   3.769
25635W        W86946   9.366  38.057  14.451
25636W        W86947  15.615   4.825  12.417
25637W        W86948  39.823  12.729  11.507
25638W        W86949  39.835  33.588   2.799
25639W        W86950  12.641   0.797  10.568
25640W        W86951   3.769  38.560   3.358
25641W        W86952  31.440  23.062   1.403
25642W        W86953  42.029  34.381  11.985
25643W        W86954  34.411  34.082   2.366
25644W        W86955  21.566   6.905  13.926
25645W        W86956  21.518   2.881   3.351
25646W        W86957  44.377   6.841  11.588
25647W        W86958  21.704  10.341  12.832
25648W        W86959   4.211   7.203   1.896
25649W        W86960  28.998  33.904  10.934
25650W        W86961  30.926  18.570   1.220
25651W        W86962   3.762  28.520  12.870
25652W        W86963  15.240  21.659  14.294
25653W        W86964  26.991  12.218   3.280
25654W        W86965  11.365  11.701  14.435
25655W        W86966  29.504  19.547  13.862
25656W        W86967  33.939  39.544   2.832
25657W        W86968   7.730  23.627  10.146
25658W        W86969   8.900  39.492  10.592
25659W        W86970   3.459   5.260   4.781
25660W        W86971  23.167  17.616   1.346
25661W        W86972  38.046  24.117  12.456
25662W        W86973  43.458  25.980   0.255
25663W        W86974  31.617  24.725  13.941
25664W        W86975  36.498  37.438  14.345
25665W        W86976  19.052  25.025  13.522
25666W        W86977  15.652  34.372  12.408
25667W        W86978  44.487  10.384  12.050
25668W        W86979   2.773   1.829  11.868
25669W        W86980  14.776   7.352   1.737
25670W        W86981  37.995  41.800  11.981
25671W        W86982  33.490   9.851   2.301
25672W        W86983   7.705  39.822   2.224
25673W        W86984   5.372   8.687  13.056
25674W        W86985  42.809  22.155   4.787
25675W        W86986  41.828  27.964  13.488
25676W        W86987  35.097  35.086  10.610
25677W        W86988  42.018   7.708   3.185
25678W        W86989  40.415  42.327   1.259
25679W        W86990  15.278  20.734  12.963
25680W        W86991   7.909  31.050  13.914
25681W        W86992  21.549   0.965   0.762
25682W        W86993   2.730  25.473  12.546
25683W        W86994  24.978  33.554   4.302
25684W        W86995  35.540  29.656  14.765
25685W        W86996  33.540   2.777  13.802
25686W        W86997  16.155  42.946  14.391
25687W        W86998   3.767  12.273   0.771
25688W        W86999  38.899   2.843   0.882
25689W        W87000  44.894  16.245   4.254
25690W        W87001   1.380   1.247   1.391
25691W        W87002  44.276  44.468   1.844
25692W        W87003   8.869  35.015   4.133
25693W        W87004   7.880  43.995   4.146
25694W        W87005   4.870  19.762  10.111
25695W        W87006   3.267  32.042  10.929
25696W        W87007  15.234   4.430  11.394
25697W        W87008  11.227  27.109  12.401
25698W        W87009  33.037   7.240   1.377
25699W        W87010  10.709  26.489   2.244
25700W        W87011  34.398  30.118   1.393
25701W        W87012  21.098   5.297  13.327
25702W        W87013  20.112  19.716   3.810
25703W        W87014   7.197   5.392   1.801
25704W        W87015  38.517  21.072  11.427
25705W        W87016   3.348   2.931   2.233
25706W        W87017   8.748  38.879  13.955
25707W        W87018  32.111  23.034   4.145
25708W        W87019  24.181  15.088  10.621
25709W        W87020   0.915  37.347  11.031
25710W        W87021  20.665  33.031  13.353
25711W        W87022  12.304  28.464   4.232
25712W        W87023  32.922   0.422  14.762
25713W        W87024  33.431  37.470  12.995
25714W        W87025   0.439  16.584   2.286
25715W        W87026  32.100  10.695  14.503
25716W        W87027  35.562  19.580   2.748
25717W        W87028  19.670   3.225  12.891
25718W        W87029  13.618  32.894   1.723
25719W        W87030   6.690   2.350   3.666
25720W        W87031  12.348  15.087  11.376
25721W        W87032  37.525  27.086   0.737
25722W        W87033  40.903  10.871  11.010
25723W        W87034   6.736  19.736   2.360
25724W        W87035  14.167  18.544   2.303
25725W        W87036   6.397   2.419   0.888
25726W        W87037  24.635  39.955  11.406
25727W        W87038   3.834  10.865   1.225
25728W        W87039   7.864  18.107   3.387
25729W        W87040  39.471  24.147  13.004
25730W        W87041  33.128  11.333  13.887
25731W        W87042  10.802   4.272   1.886
25732W        W87043  18.051   4.367  14.776
25733W        W87044  18.124  26.114  14.367
25734W        W87045   3.812   8.371   0.874
25735W        W87046  37.045  10.309  14.998
25736W        W87047  42.387  13.761   3.375
25737W        W87048  24.627  17.664  12.340
25738W        W87049  32.456  20.253  12.049
25739W        W87050  23.720   1.850  14.794
25740W        W87051  21.122  26.568   0.936
25741W        W87052  29.095  16.268   0.808
25742W        W87053  20.677   6.266   1.736
25743W        W87054  16.206  17.108  13.925
25744W        W87055  24.134   0.909  12.960
25745W        W87056   8.285   9.835   3.788
25746W        W87057   2.311  28.158   0.731
25747W        W87058  16.733  20.723   0.414
25748W        W87059  39.553  40.323   3.170
25749W        W87060  24.481  19.250  12.357
25750W        W87061  25.056  10.236  14.004
25751W        W87062  19.241  31.485  12.398
25752W        W87063  36.442   6.844  14.857
25753W        W87064  37.486   9.886  10.579
25754W        W87065  13.183  37.483   4.212
25755W        W87066  33.000  22.151   2.288
25756W        W87067  29.666  29.530  10.543
25757W        W87068  34.464  25.094  11.393
25758W        W87069   9.274   7.405   0.781
25759W        W87070  22.647  33.511  10.559
25760W        W87071  44.809  27.114  12.463
25761W        W87072  44.473  13.311   4.652
25762W        W87073  28.033  37.530   4.189
25763W        W87074  34.484  34.038   3.227
25764W        W87075  44.961  31.103  10.517
25765W        W87076   3.916  10.179   3.371
25766W        W87077   4.941  38.033  11.377
25767W        W87078  34.081  34.098  11.502
25768W        W87079   3.338  21.574   0.467
25769W        W87080  10.206  16.141  10.412
25770W        W87081  26.686  11.810  13.462
25771W        W87082  30.549  27.061   2.791
25772W        W87083  41.414   2.410  11.593
25773W        W87084  24.711  32.430   0.262
25774W        W87085  17.098  39.007  13.887
25775W        W87086  22.532   9.234   0.366
25776W        W87087  21.578  41.524  13.444
25777W        W87088  24.707  38.383  14.459
25778W        W87089  34.884   2.336   3.162
25779W        W87090  33.083   9.366   3.723
25780W        W87091   2.448   7.334  11.059
25781W        W87092  19.562  32.513   2.357
25782W        W87093  42.503  29.147   4.714
25783W        W87094   3.950  13.738   1.244
25784W        W87095  28.024  41.830  14.310
25785W        W87096  30.561   3.772  11.037
25786W        W87097  35.537  40.920   4.705
25787W        W87098  32.975  39.509  11.430
25788W        W87099  39.493  11.228  12.021
25789W        W87100  31.604  21.263  11.436
25790W        W87101  21.647   9.830  12.897
25791W        W87102  32.561  15.273  10.430
25792W        W87103  39.352   5.908  11.894
25793W        W87104  12.264  18.689  13.405
25794W        W87105   0.400  22.594   3.815
25795W        W87106  26.139   1.905  11.394
25796W        W87107  30.493   3.916  14.409
25797W        W87108  35.948  34.582   3.717
25798W        W87109  21.211  38.472  11.454
25799W        W87110  42.814  33.558   0.442
25800W        W87111  11.225  41.476  12.847
25801W        W87112   3.847  12.735   3.760
25802W        W87113   7.392   4.826  14.946
25803W        W87114  15.221  34.469   0.759
25804W        W87115  17.570  31.580   2.189
25805W        W87116  25.704  19.089  14.855
25806W        W87117  26.996  34.447  11.413
25807W        W87118  23.561  37.383   3.315
25808W        W87119  28.965   2.963   3.695
25809W        W87120  19.772  26.981  12.437
25810W        W87121  33.098  34.373   3.276
25811W        W87122  33.442  26.468   4.684
25812W        W87123  24.524  39.000   2.416
25813W        W87124  21.653  29.652   3.252
25814W        W87125   7.342  22.598   3.310
25815W        W87126  12.641  21.713  12.039
25816W        W87127  41.978  13.782   3.196
25817W        W87128  24.635  10.229  11.118
25818W        W87129  22.570   3.759   1.841
25819W        W87130  12.182  23.640   5.201
25820W        W87131   4.757  26.503   3.794
25821W        W87132  37.968   9.182   4.332
25822W        W87133  29.977  27.015  10.469
25823W        W87134   7.752  13.264   1.349
25824W        W87135  21.547  31.534  12.961
25825W        W87136   5.827   1.355   1.409
25826W        W87137  26.082  42.332   4.284
25827W        W87138  35.949  28.639   5.245
25828W        W87139  28.449  28.515  12.392
25829W        W87140   5.758  39.062  11.124
25830W        W87141  13.171  23.619  11.516
25831W        W87142  28.168  13.809  11.019
25832W        W87143  14.619  36.472   3.810
25833W        W87144  37.034  25.128  11.386
25834W        W87145   0.887  19.733   9.939
25835W        W87146  44.000  26.994  13.884
25836W        W87147  15.755  31.150   3.654
25837W        W87148  17.719  34.995   3.281
25838W        W87149  21.633  44.470   4.271
25839W        W87150   3.772   2.954   0.889
25840W        W87151  27.172  25.187  10.904
25841W        W87152  37.364  22.006  14.429
25842W        W87153  36.863   8.305   1.275
25843W        W87154  15.612  12.640   4.776
25844W        W87155   3.938  29.456   1.212
25845W        W87156   7.831  34.040   1.713
25846W        W87157  12.632   9.358   4.139
25847W        W87158  14.186  15.245  12.544
25848W        W87159  27.091  26.974   1.901
25849W        W87160   8.741  28.539   0.297
25850W        W87161  12.303   4.846  13.795
25851W        W87162  13.811  23.694   3.346
25852W        W87163   2.912  37.580   1.429
25853W        W87164  22.574  22.162  13.032
25854W        W87165  19.538  36.477  12.063
25855W        W87166  38.846  33.108  12.828
25856W        W87167  38.405  10.352  13.933
25857W        W87168  36.979   6.385   1.696
25858W        W87169   6.201  26.085  12.939
25859W        W87170  18.666  27.570   2.368
25860W        W87171  13.171  43.424   0.756
25861W        W87172   8.660  31.535  13.410
25862W        W87173  39.410  30.159  10.588
25863W        W87174  24.079  22.644   0.759
25864W        W87175  32.584  28.668   4.748
25865W        W87176   5.874  31.051   2.707
25866W        W87177  35.082   1.427   3.732
25867W        W87178  29.984  10.251   3.806
25868W        W87179  39.437  13.214   3.841
25869W        W87180  21.645  42.836   5.206
25870W        W87181  40.549   7.364   1.381
25871W        W87182  15.583   4.406  13.928
25872W        W87183   7.293  35.430  12.549
25873W        W87184  43.294  40.309   2.892
25874W        W87185  41.966  16.253   3.728
25875W        W87186   4.238  20.724  13.518
25876W        W87187  24.031  22.657   3.294
25877W        W87188  38.842  44.290   4.690
25878W        W87189  24.636  11.853  10.463
25879W        W87190  30.994  41.297   3.248
25880W        W87191  32.908  40.951  13.052
25881W        W87192  39.027  18.561   3.155
25882W        W87193  13.267  18.134  10.623
25883W        W87194  39.490  14.263   0.865
25884W        W87195  30.023  35.364  14.008
25885W        W87196  33.909   2.363   2.387
25886W        W87197  23.676  31.125   3.853
25887W        W87198  28.046  27.988  11.893
25888W        W87199  30.427  13.324  11.021
25889W        W87200  17.243  30.157   3.804
25890W        W87201  27.543  41.447   0.732
25891W        W87202  40.453  44.483  13.427
25892W        W87203  23.735  29.642   1.309
25893W        W87204   4.295   9.699   1.714
25894W        W87205  18.238  20.125  13.479
25895W        W87206   8.257  39.520  10.449
25896W        W87207  17.160  35.457   0.787
25897W        W87208   8.705   6.322   3.339
25898W        W87209  40.054  44.942  13.002
25899W        W87210  35.359  26.142  10.991
25900W        W87211  33.413  32.971  10.473
25901W        W87212  36.376  43.292  10.956
25902W        W87213  44.776  32.050  14.952
25903W        W87214  26.553  35.487   3.248
25904W        W87215  18.744  38.537   1.262
25905W        W87216  22.106  11.305  11.608
25906W        W87217   8.354  42.342   0.393
25907W        W87218  23.530  13.136   1.919
25908W        W87219   6.806  43.930   3.781
25909W        W87220  41.305  37.865   3.385
25910W        W87221   9.178  26.971   1.325
25911W        W87222  43.010  29.950   2.883
25912W        W87223  44.845   4.881  10.043
25913W        W87224  24.643  22.540  11.524
25914W        W87225  41.911  32.491  14.400
25915W        W87226  12.658   3.410   9.953
25916W        W87227  28.964  41.381  11.925
25917W        W87228  29.449  10.216  11.541
25918W        W87229  17.639   5.406   1.411
25919W        W87230  18.645   1.909  14.851
25920W        W87231  40.522  28.491   2.209
25921W        W87232   0.355  30.038  14.770
25922W        W87233  28.043  11.224  10.967
25923W        W87234  40.897  10.729   4.669
25924W        W87235   8.696   1.240  13.009
25925W        W87236   4.827   8.678   0.913
25926W        W87237  24.976  41.333   0.939
25927W        W87238  26.637  33.054  11.400
25928W        W87239   1.481   9.231  13.382
25929W        W87240  15.251  22.077  11.062
25930W        W87241  40.855  34.937   2.784
25931W        W87242  28.932  28.001  11.445
25932W        W87243  29.943   1.327  10.621
25933W        W87244  10.163  44.956  10.458
25934W        W87245  10.151   6.905  13.405
25935W        W87246  15.136  38.517   0.766
25936W        W87247  17.210   3.715   9.637
25937W        W87248  24.201  38.067  14.792
25938W        W87249  23.727   5.423   2.292
25939W        W87250  11.138  19.069  13.537
25940W        W87251  42.941  22.202   4.329
25941W        W87252   3.394  30.937   5.123
25942W        W87253  27.613  22.092   0.751
25943W        W87254  23.991  34.030  11.047
25944W        W87255  15.260  18.138  13.948
25945W        W87256  36.072  29.669   4.236
25946W        W87257  37.944  10.665  13.462
25947W        W87258  31.962   3.414  14.481
25948W        W87259   2.323  11.245   2.402
25949W        W87260   1.349   4.359  13.403
25950W        W87261  36.505  35.412  14.932
25951W        W87262   3.263   3.356  12.480
25952W        W87263  18.162  26.502  12.086
25953W        W87264  17.102  21.116   1.880
25954W        W87265  33.555   6.901  14.384
25955W        W87266  12.346  12.846   1.887
25956W        W87267  31.414  37.019   2.789
25957W        W87268  15.769   8.356   2.737
25958W        W87269  16.612  24.702   1.381
25959W        W87270  28.507  39.552   0.932
25960W        W87271  33.044  11.341  14.484
25961W        W87272   8.750  13.606   3.853
25962W        W87273   2.421  15.278  11.415
25963W        W87274  41.017  12.828  14.339
25964W        W87275  39.317  40.322   1.738
25965W        W87276  14.179  27.683   4.637
25966W        W87277   8.219   7.889  11.568
25967W        W87278  16.584  40.848  14.952
25968W        W87279  36.986   4.435   3.839
25969W        W87280  27.466  14.599   1.395
25970W        W87281  35.573   1.268   2.250
25971W        W87282  10.867  26.570  13.890
25972W        W87283   0.276  16.178  10.990
25973W        W87284  28.639   4.279   1.235
25974W        W87285  20.553   3.904   1.929
25975W        W87286   9.288   8.777  12.963
25976W        W87287  25.143   0.475  14.774
25977W        W87288  24.181   7.338   2.718
25978W        W87289  36.467   0.825  13.794
25979W        W87290  25.655  31.496   4.235
25980W        W87291  44.346  34.943  12.451
25981W        W87292  12.338  15.642  14.903
25982W        W87293  36.970  11.312   2.825
25983W        W87294  14.331  22.143   2.221
25984W        W87295  16.734   3.273   1.793
25985W        W87296  42.856   3.913   4.768
25986W        W87297  26.151  36.427   4.190
25987W        W87298  32.084  10.344   2.326
25988W        W87299  14.775  21.101   2.184
25989W        W87300  29.073   7.375   5.168
25990W        W87301  32.911  23.009   0.807
25991W        W87302  22.682  44.324  14.920
25992W        W87303  18.064  21.713  11.094
25993W        W87304  21.200  30.067  11.911
25994W        W87305  27.970  11.183  13.827
25995W        W87306  37.831  31.929   4.829
25996W        W87307   6.866   7.882   3.190
25997W        W87308  24.149  36.060  10.990
25998W        W87309  18.783  31.951   0.354
25999W        W87310  12.632  18.138  11.456
26000W        W87311  28.615  13.263   4.217
26001W        W87312  20.563  31.077  14.426
26002W        W87313  20.241  14.097  10.573
26003W        W87314   0.877  20.068  13.986
26004W        W87315  39.386  25.062   3.181
26005W        W87316   2.835  39.491  14.963
26006W        W87317  10.274  43.450   3.720
26007W        W87318  21.060  11.746  12.823
26008W        W87319  14.326   1.850   9.940
26009W        W87320   2.763   5.783   0.731
26010W        W87321  17.670  16.581  11.460
26011W        W87322  44.950  30.447   1.784
26012W        W87323  29.557  12.172  11.957
26013W        W87324  29.573  43.475  11.947
26014W        W87325  44.271  31.595  13.973
26015W        W87326  20.670   2.465  11.004
26016W        W87327  12.208  21.210  10.483
26017W        W87328   1.350  27.455  14.958
26018W        W87329  29.920  21.123   2.276
26019W        W87330  43.772  36.961   2.361
26020W        W87331  14.785  27.520   1.272
26021W        W87332  30.008  43.942   1.925
26022W        W87333  31.955  40.008   0.813
26023W        W87334  21.143  34.530   0.349
26024W        W87335  23.208  15.682   1.334
26025W        W87336  37.398  29.974  11.923
26026W        W87337  42.333  32.471  10.546
26027W        W87338  29.445  28.628   1.251
26028W        W87339  15.328  44.859  12.898
26029W        W87340  25.469   0.345   4.782
26030W        W87341   4.781  35.360   1.900
26031W        W87342  41.948  38.071   2.326
26032W        W87343   5.324  30.557  12.866
26033W        W87344  20.534  37.905  13.515
26034W        W87345   4.236  40.994   4.289
26035W        W87346  17.189  23.235  13.414
26036W        W87347  30.017  12.210  11.434
26037W        W87348  32.987  16.772   2.743
26038W        W87349  40.841  44.881   2.367
26039W        W87350  13.276   1.384   2.230
26040W        W87351   5.739  18.161  11.606
26041W        W87352   4.833  27.173   2.256
26042W        W87353  24.173  16.299   4.165
26043W        W87354  20.555  13.270  14.768
26044W        W87355  28.663   8.764  12.510
26045W        W87356   9.804  33.080  10.435
26046W        W87357  15.810  42.319  13.324
26047W        W87358  12.241  30.577  11.398
26048W        W87359  41.948  28.453  13.542
26049W        W87360  37.922  25.112  12.468
26050W        W87361  25.556  37.453  12.032
26051W        W87362  28.632   6.834  13.893
26052W        W87363  42.436  30.555  12.867
26053W        W87364  25.043  41.492  14.305
26054W        W87365  15.654  26.042  11.469
26055W        W87366  26.472  29.563  11.450
26056W        W87367  12.177  29.039  11.401
26057W        W87368  33.096  14.617   2.849
26058W        W87369   1.358   4.404  14.787
26059W        W87370  10.697   4.867   4.743
26060W        W87371  23.652  42.430   2.715
26061W        W87372  40.377  30.543  14.383
26062W        W87373  11.344  12.697   3.862
26063W        W87374  24.569  40.015   2.236
26064W        W87375  37.984  15.657  13.372
26065W        W87376   9.341  28.131  13.394
26066W        W87377   3.340  41.031   3.245
26067W        W87378   7.315  39.999  13.464
26068W        W87379  18.084  34.015   4.798
26069W        W87380   6.776  14.172  13.412
26070W        W87381  25.034   8.687  14.926
26071W        W87382  38.482  27.091   2.835
26072W        W87383  32.058  21.185  13.901
26073W        W87384  17.288  24.018  13.477
26074W        W87385  28.114   5.788   3.792
26075W        W87386  40.037  40.302  12.457
26076W        W87387  24.070  15.748   9.937
26077W        W87388  25.546   0.419   0.393
26078W        W87389  18.104  35.379  13.361
26079W        W87390  27.170   3.858  10.561
26080W        W87391  12.350   5.360   9.645
26081W        W87392  44.372  20.148  14.419
26082W        W87393  44.967  27.454  14.925
26083W        W87394  13.793  35.390   4.234
26084W        W87395  16.812  19.040   2.292
26085W        W87396  10.837  12.647   0.885
26086W        W87397  36.922   8.661   3.812
26087W        W87398  15.228   9.816   0.821
26088W        W87399  27.192  13.658   3.815
26089W        W87400  29.174   7.904  14.504
26090W        W87401   2.888  12.809  11.586
26091W        W87402  25.488  14.760   2.388
26092W        W87403  35.536  23.133  14.352
26093W        W87404   6.743  36.086  14.446
26094W        W87405   0.283  10.142   1.811
26095W        W87406  20.700   5.388  11.088
26096W        W87407  28.089  25.011  12.527
26097W        W87408  30.928   8.172   9.940
26098W        W87409  40.467  33.874   1.218
26099W        W87410  36.041   3.778   0.860
26100W        W87411  11.797  16.174  11.502
26101W        W87412   2.720   5.698  10.914
26102W        W87413  39.947  32.122   1.892
26103W        W87414  21.533  36.432   4.726
26104W        W87415  33.543  31.065  10.431
26105W        W87416   6.270  42.295  10.585
26106W        W87417  27.074  39.514   2.251
26107W        W87418  41.484  31.525   3.259
26108W        W87419  39.448   0.278   3.804
26109W        W87420  41.855  41.429   1.410
26110W        W87421  13.141   9.376   4.597
26111W        W87422  41.457  14.128   3.680
26112W        W87423  23.231  42.299  14.883
26113W        W87424  16.613   9.701   3.768
26114W        W87425  17.075  27.066  10.439
26115W        W87426  32.636   6.891   5.294
26116W        W87427  18.579  34.996  11.040
26117W        W87428   9.247  40.395   0.849
26118W        W87429  33.887  30.512   2.773
26119W        W87430  21.755   3.295  13.444
26120W        W87431  28.481  28.614   1.213
26121W        W87432   9.344   4.788  11.862
26122W        W87433  26.657  28.537   0.911
26123W        W87434  20.268   9.191   0.844
26124W        W87435   1.910  34.075  11.417
26125W        W87436  37.038   2.459   4.708
26126W        W87437  37.406  10.329   2.200
26127W        W87438  13.236  23.048  12.437
26128W        W87439  37.347   4.319  10.424
26129W        W87440  37.349   1.899  11.038
26130W        W87441   0.368  26.635  14.340
26131W        W87442   2.724   7.265   2.280
26132W        W87443  33.917  10.232   1.421
26133W        W87444   3.922  27.621   4.640
26134W        W87445   8.726  18.723  11.048
26135W        W87446  29.487  14.156   1.375
26136W        W87447  29.149  32.397   0.932
26137W        W87448  21.126  34.056   2.722
26138W        W87449  26.149  39.916   3.197
26139W        W87450  17.747  18.709   2.729
26140W        W87451  14.606  19.696  13.843
26141W        W87452  27.540   9.708   1.365
26142W        W87453   6.799  18.655   0.403
26143W        W87454  40.963   1.944   0.311
26144W        W87455  21.090   9.280  14.901
26145W        W87456  39.918  41.023  13.034
26146W        W87457  13.316  31.136   2.347
26147W        W87458  42.474   5.704   0.764
26148W        W87459   5.210   2.449  10.421
26149W        W87460  38.929  38.501   3.180
26150W        W87461  43.405  16.296  12.546
26151W        W87462  36.930  30.459  12.868
26152W        W87463   7.733   8.364   3.801
26153W        W87464  29.614  13.159   3.270
26154W        W87465   2.774   4.435  13.460
26155W        W87466   0.857  37.562  11.984
26156W        W87467  16.793  29.470   3.218
26157W        W87468  34.371  24.031  14.899
26158W        W87469   0.475  14.334  13.953
26159W        W87470  36.570  23.700  14.461
26160W        W87471  29.617  13.144   1.442
26161W        W87472  40.439  36.944  14.001
26162W        W87473  20.238  30.497  12.886
26163W        W87474  12.178  24.546  12.426
26164W        W87475   4.924  33.970  11.905
26165W        W87476  22.624   3.302   5.230
26166W        W87477  14.711  10.669  10.988
26167W        W87478  20.709  19.769  13.334
26168W        W87479  31.476   3.712   4.776
26169W        W87480  35.555  18.142  13.058
26170W        W87481   1.969  20.559  12.538
26171W        W87482  20.066   7.398  11.529
26172W        W87483   9.746   4.286  11.963
26173W        W87484   9.764  24.012   4.308
26174W        W87485   4.361   0.988   4.181
26175W        W87486  27.666  20.633  14.278
26176W        W87487  21.707  20.243  12.056
26177W        W87488  14.279  12.835  13.911
26178W        W87489  41.328  23.120  12.094
26179W        W87490   2.863  35.051  13.799
26180W        W87491  19.670  38.828  11.533
26181W        W87492   7.416  25.117  14.914
26182W        W87493  18.098  28.077   3.850
26183W        W87494  29.091   8.163   1.786
26184W        W87495   9.858  39.425  14.026
26185W        W87496  32.408   6.698   0.251
26186W        W87497  41.836  22.620  11.504
26187W        W87498  20.151  25.637   2.408
26188W        W87499  28.048  14.280  14.291
26189W        W87500  15.325   2.456   5.737
26190W        W87501  43.928  23.681   1.300
26191W        W87502  38.447   1.264   3.358
26192W        W87503  43.009   4.302  11.438
26193W        W87504  42.861   7.332   0.267
26194W        W87505  32.534  27.005  13.532
26195W        W87506   9.254   2.398   5.083
26196W        W87507  38.555  22.552  13.840
26197W        W87508  41.376   6.273  12.454
26198W        W87509  37.575  24.134   1.424
26199W        W87510  43.336  34.460  14.013
26200W        W87511   9.686  34.915   1.931
26201W        W87512   0.438  38.425  12.380
26202W        W87513  30.977  26.600   4.675
26203W        W87514  22.730  33.584  10.906
26204W        W87515   1.872  35.965  13.477
26205W        W87516  44.284  10.248  10.544
26206W        W87517  30.614  21.546   4.327
26207W        W87518  15.702  37.393   3.322
26208W        W87519  14.708  16.203   0.385
26209W        W87520  38.019  40.501   1.748
26210W        W87521   1.281  13.691   3.692
26211W        W87522  37.536   1.743   1.695
26212W        W87523  19.185   0.267  11.921
26213W        W87524  43.875   6.891  11.592
26214W        W87525  11.673  19.602   9.923
26215W        W87526  22.220  36.502   5.159
26216W        W87527  32.014   0.876   3.756
26217W        W87528  20.175  24.627  12.524
26218W        W87529   5.893  23.561  12.575
26219W        W87530  31.433  18.128   0.930
26220W        W87531  25.173  24.068  14.886
26221W        W87532  17.103   8.701  11.520
26222W        W87533  44.778  30.580  10.631
26223W        W87534  13.211  39.837  13.900
26224W        W87535   2.462   7.674  12.450
26225W        W87536  21.250  33.561   3.840
26226W        W87537  28.008  25.705   0.746
26227W        W87538  33.387  31.498  13.872
26228W        W87539   3.751  21.184   2.304
26229W        W87540  44.334  22.554  10.991
26230W        W87541  33.460  43.272   2.797
26231W        W87542   4.770  43.415   1.346
26232W        W87543  28.061  33.560  10.097
26233W        W87544  20.553   0.253  13.969
26234W        W87545   6.257  39.550  11.409
26235W        W87546  37.919  34.485  11.576
26236W        W87547  21.705  19.186   1.419
26237W        W87548   6.271   2.467  11.069
26238W        W87549   9.716  17.213  12.483
26239W        W87550  24.720  19.175  10.605
26240W        W87551  23.088  42.942  12.001
26241W        W87552   9.249   2.434  14.493
26242W        W87553  42.388  33.059  14.962
26243W        W87554  23.597   3.351   1.308
26244W        W87555  23.213   2.273   1.875
26245W        W87556  42.347  18.749  11.520
26246W        W87557  18.647  13.190  14.971
26247W        W87558  16.266  34.998  13.977
26248W        W87559  23.524  15.273   3.703
26249W        W87560  34.498   0.894  11.913
26250W        W87561  20.049   2.792   1.218
26251W        W87562  14.258   6.363   1.382
26252W        W87563   8.834  20.205   4.608
26253W        W87564  35.009  14.723  10.898
26254W        W87565   8.367  42.505   0.958
26255W        W87566  32.962  28.654   0.284
26256W        W87567  12.340  19.216  11.998
26257W        W87568  14.643  42.986   3.347
26258W        W87569  42.872   2.888  13.965
26259W        W87570  16.728   8.701   4.258
26260W        W87571  41.308  42.423  13.799
26261W        W87572  31.957  21.570  14.024
26262W        W87573  16.317  43.313   0.427
26263W        W87574  35.021  24.671   0.313
26264W        W87575  16.175  19.241  11.937
26265W        W87576  40.452  32.070   5.168
26266W        W87577  17.112  16.651  11.383
26267W        W87578  16.315  17.701  11.064
26268W        W87579  39.913  10.849  13.034
26269W        W87580  14.787  20.162  11.504
26270W        W87581  15.654  21.668   3.640
26271W        W87582   7.382   1.923   2.223
26272W        W87583  29.174   3.241   1.310
26273W        W87584  44.365  10.682   2.799
26274W        W87585  33.083  42.032   1.902
26275W        W87586  17.621  44.340  10.437
26276W        W87587  26.185  32.009  11.001
26277W        W87588  35.463  22.607   3.690
26278W        W87589  24.027   7.855  10.634
26279W        W87590   0.774  32.635  11.503
26280W        W87591  10.755  29.646  10.410
26281W        W87592  23.013   2.963  10.937
26282W        W87593   0.771  42.325   3.740
26283W        W87594   6.906  27.107   4.200
26284W        W87595  40.443  20.582  14.373
26285W        W87596  26.649  29.661   2.724
26286W        W87597   8.261  40.373  10.903
26287W        W87598   3.887  20.266  10.575
26288W        W87599  43.474  29.919  11.471
26289W        W87600  29.089   9.719   4.743
26290W        W87601   8.243  14.122   2.725
26291W        W87602  42.776  35.933   2.697
26292W        W87603  36.497  35.502   1.403
26293W        W87604  17.619  22.648   4.784
26294W        W87605  43.299  41.504   0.457
26295W        W87606  40.356  29.085   3.255
26296W        W87607  24.644   1.793   0.922
26297W        W87608  27.080   8.262   2.742
26298W        W87609  16.645   0.475  10.409
26299W        W87610  12.621  42.488   4.270
26300W        W87611  42.315  44.345   9.974
26301W        W87612  38.892   7.875  11.992
26302W        W87613   2.838   0.397  10.927
26303W        W87614  33.556  10.741   0.785
26304W        W87615  14.784  39.976   4.326
26305W        W87616  11.790   5.333  13.406
26306W        W87617   6.325   1.330   4.793
26307W        W87618  43.419  22.574  13.488
26308W        W87619  23.199  28.569   0.945
26309W        W87620  15.286  12.747   0.754
26310W        W87621  30.993  12.182  14.305
26311W        W87622   9.689  13.618   3.152
26312W        W87623  42.016  15.633  11.421
26313W        W87624  24.486  21.146  12.568
26314W        W87625  14.752  34.413  14.303
26315W        W87626  34.530  37.340   2.394
26316W        W87627  14.233  17.559  11.547
26317W        W87628  15.099  39.835  10.434
26318W        W87629  29.614  26.530  11.965
26319W        W87630  10.651  22.622   0.819
26320W        W87631  22.644   0.349  11.538
26321W        W87632  37.539  37.915  13.911
26322W        W87633   6.275  38.869  14.925
26323W        W87634   6.724   7.789  11.584
26324W        W87635  26.981   2.368  13.967
26325W        W87636  32.519  32.474   1.776
26326W        W87637  36.087  29.537   5.619
26327W        W87638  20.066  37.385  11.450
26328W        W87639  28.625  20.684   1.931
26329W        W87640  36.848  28.049   3.633
26330W        W87641  29.559  38.014  12.947
26331W        W87642  31.113  32.004  12.515
26332W        W87643  23.654  32.579   2.741
26333W        W87644  17.063  12.188   0.304
26334W        W87645  23.614  18.698   3.869
26335W        W87646  13.264  16.793   4.308
26336W        W87647   7.872  33.440   3.710
26337W        W87648  11.365  28.977   1.859
26338W        W87649  23.079   2.749   1.296
26339W        W87650   0.748  24.622   4.684
26340W        W87651  21.562  40.869  14.451
26341W        W87652  38.874  10.372  10.591
26342W        W87653  33.585  39.519  13.057
26343W        W87654  37.377  12.292   2.284
26344W        W87655   6.894  41.317   2.890
26345W        W87656  39.403  28.008   1.225
26346W        W87657  39.460  26.558  11.421
26347W        W87658  20.257  12.815   2.219
26348W        W87659  28.978  35.423   2.254
26349W        W87660   8.688   3.404  10.904
26350W        W87661   5.307  30.593   2.265
26351W        W87662  36.070   0.269   3.228
26352W        W87663   8.299  26.154  12.061
26353W        W87664  10.795   3.765   4.119
26354W        W87665  33.530  24.079  10.144
26355W        W87666  30.602   7.382   3.356
26356W        W87667  32.472   4.814   4.114
26357W        W87668  10.265  36.960  11.983
26358W        W87669   4.326  32.395   4.281
26359W        W87670  21.714  16.285  12.869
26360W        W87671  30.494  27.666  10.894
26361W        W87672  36.002  11.695   5.090
26362W        W87673  25.108  24.210   0.275
26363W        W87674   5.284  37.014  13.805
26364W        W87675  40.360  21.198   5.297
26365W        W87676  32.970  40.798  10.890
26366W        W87677  31.408  30.144   0.308
26367W        W87678  21.197  11.760  11.914
26368W        W87679  44.335   1.388  14.458
26369W        W87680  44.304   8.849  10.089
26370W        W87681  14.153   1.308   2.736
26371W        W87682   5.200  13.291   1.820
26372W        W87683  38.829  27.656  12.345
26373W        W87684   4.733  34.047  11.128
26374W        W87685  20.686  20.104  12.860
26375W        W87686  14.810   1.470  14.461
26376W        W87687  26.173   6.201  11.485
26377W        W87688   0.945  33.974  14.759
26378W        W87689   3.400  17.249  10.903
26379W        W87690  20.216  25.071   0.481
26380W        W87691  19.062  42.913   1.389
26381W        W87692  19.281  42.452  11.570
26382W        W87693  27.648  21.683   1.856
26383W        W87694  24.154   8.395   2.271
26384W        W87695  14.725   1.431  11.534
26385W        W87696  42.459   5.914  13.353
26386W        W87697   1.455  31.483  10.970
26387W        W87698  10.639  18.685  10.643
26388W        W87699  21.600  13.643   0.253
26389W        W87700   7.221  19.600   1.934
26390W        W87701   7.747  19.572  11.093
26391W        W87702  16.302  29.431  11.458
26392W        W87703  10.753  30.499   4.275
26393W        W87704  32.024  33.092   4.758
26394W        W87705  18.684  41.300  13.027
26395W        W87706  21.055  36.858   2.863
26396W        W87707  17.263  31.953   0.796
26397W        W87708  34.950  41.474   3.301
26398W        W87709   0.956   2.343   4.119
26399W        W87710  13.264  42.810   5.178
26400W        W87711   9.823  28.127   4.197
26401W        W87712  30.030  41.527   4.602
26402W        W87713  25.040   0.411  13.433
26403W        W87714  31.532  33.571  14.987
26404W        W87715  37.488  43.490   3.707
26405W        W87716  10.148  27.997  14.385
26406W        W87717   5.295  32.127   3.755
26407W        W87718  31.933  39.039  14.979
26408W        W87719  27.564  37.428  12.524
26409W        W87720   3.264  36.921  14.295
26410W        W87721  20.080  18.770  10.425
26411W        W87722  33.380  16.736  13.909
26412W        W87723  22.695  28.130   0.441
26413W        W87724  13.761  13.682  13.489
26414W        W87725  30.960   1.780  13.480
26415W        W87726  31.102  15.323  14.984
26416W        W87727  28.669  14.305   3.683
26417W        W87728  43.403  12.629  14.329
26418W        W87729  37.421  36.003   0.445
26419W        W87730   5.718  32.445  13.330
26420W        W87731  31.147  19.666   4.145
26421W        W87732  34.867  15.198   2.354
26422W        W87733  26.528  23.071  13.489
26423W        W87734  38.516   5.914   3.696
26424W        W87735  32.985   6.839   2.830
26425W        W87736  37.507  33.906  14.884
26426W        W87737   9.662  25.579  14.024
26427W        W87738  42.366  30.013  12.827
26428W        W87739   3.260  28.446   1.806
26429W        W87740  38.378   0.472   0.922
26430W        W87741   4.423  27.181   4.215
26431W        W87742   5.366  13.667   0.829
26432W        W87743  39.401  39.992   0.841
26433W        W87744  37.900  21.210   1.756
26434W        W87745  23.641  26.057   4.136
26435W        W87746  21.093  41.847   0.727
26436W        W87747  22.098  30.557  13.540
26437W        W87748  30.090  33.081   3.756
26438W        W87749  34.028  43.397   0.327
26439W        W87750  27.968   2.727  12.541
26440W        W87751  37.495  29.167   4.234
26441W        W87752  14.774  29.658   0.449
26442W        W87753  31.559  22.013   4.663
26443W        W87754  38.889  39.325   2.398
26444W        W87755  12.679  10.249  11.564
26445W        W87756   1.783   7.810  10.637
26446W        W87757   0.772  30.423  12.012
26447W        W87758  11.831  44.856   1.716
26448W        W87759  39.035  42.965  14.952
26449W        W87760  11.287  18.733  14.873
26450W        W87761  18.192  26.595   0.361
26451W        W87762  39.398  13.706   2.364
26452W        W87763   3.756   7.881  12.941
26453W        W87764  25.066   0.915   3.709
26454W        W87765  39.483  21.726  11.461
26455W        W87766  16.299  40.321   4.689
26456W        W87767   3.866  29.440   4.211
26457W        W87768  26.184  30.659   4.122
26458W        W87769   0.786  31.516  11.884
26459W        W87770  30.652  31.049   2.722
26460W        W87771  20.058  40.854   0.477
26461W        W87772  22.628  23.687   1.895
26462W        W87773  44.860  18.225  12.964
26463W        W87774  28.606   7.367   9.973
26464W        W87775   7.179  12.164  12.856
26465W        W87776   5.289  25.493  14.023
26466W        W87777   9.289   4.232  11.897
26467W        W87778  15.099  36.428  11.442
26468W        W87779  30.457  33.062  13.365
26469W        W87780  22.095   8.776  14.465
26470W        W87781  10.709   5.204   0.775
26471W        W87782  33.468  12.728   4.670
26472W        W87783  11.186  20.058  13.372
26473W        W87784   2.886  17.293  12.482
26474W        W87785  25.215  13.138  14.322
26475W        W87786  43.802  44.838  11.969
26476W        W87787  36.067  38.900  13.960
26477W        W87788  10.272  16.748   0.349
26478W        W87789  18.649  13.236   3.768
26479W        W87790  21.732  18.262   3.160
26480W        W87791  24.076  27.670  11.013
26481W        W87792  21.626  21.255   1.871
26482W        W87793  14.315  37.390   4.740
26483W        W87794  26.494  39.555   0.453
26484W        W87795  22.587  37.540  12.340
26485W        W87796  27.057  17.751   4.799
26486W        W87797  25.630  17.129  14.834
26487W        W87798  23.152  11.739  14.491
26488W        W87799  39.064  12.802  11.946
26489W        W87800  43.804   1.940   2.850
26490W        W87801  21.758  11.319   1.301
26491W        W87802   9.865   8.285   3.774
26492W        W87803  11.254  39.516   3.313
26493W        W87804  15.157  39.390  13.054
26494W        W87805  10.702   0.848  14.814
26495W        W87806   4.778   7.746  14.830
26496W        W87807   2.300  33.913   0.734
26497W        W87808  33.513  33.461  12.082
26498W        W87809  15.777  35.007   5.099
26499W        W87810  19.717  26.583   1.241
26500W        W87811  19.672  26.051  12.854
26501W        W87812  23.717  34.483  14.928
26502W        W87813  15.700  19.279  10.933
26503W        W87814   0.373  36.348   0.309
26504W        W87815  35.911  29.624  12.561
26505W        W87816   6.821   7.272  11.373
26506W        W87817  27.111  23.638  12.087
26507W        W87818  40.995  37.383  13.812
26508W        W87819  37.935  22.046   4.300
26509W        W87820  21.117  20.212   2.407
26510W        W87821  13.775   3.408  13.817
26511W        W87822   6.700  35.989   2.271
26512W        W87823  31.123   6.804  13.059
26513W        W87824  26.957   2.319  11.536
26514W        W87825  26.162  14.674   2.795
26515W        W87826  19.173  19.273  13.538
26516W        W87827   1.932  33.073   4.177
26517W        W87828  17.711  10.284   1.427
26518W        W87829  18.597  34.064  12.348
26519W        W87830   9.361  21.105  13.954
26520W        W87831  36.524  25.025   4.663
26521W        W87832  25.144  38.904   3.338
26522W        W87833  20.194  11.781  11.006
26523W        W87834  13.226  38.545   2.677
26524W        W87835  18.266  28.589   4.317
26525W        W87836   1.892   4.759   3.353
26526W        W87837  37.424  23.717   4.602
26527W        W87838   9.334   8.328   4.142
26528W        W87839  10.223  10.364  10.618
26529W        W87840  16.144  16.577  11.952
26530W        W87841   6.279   5.261   1.273
26531W        W87842  24.078  15.685   0.376
26532W        W87843  32.401  19.128  11.606
26533W        W87844  36.889  40.944   4.838
26534W        W87845   8.161  10.383  12.962
26535W        W87846  40.962  27.000  13.479
26536W        W87847  31.493  16.604   1.812
26537W        W87848  17.259  44.401  10.068
26538W        W87849  34.459  15.660   0.812
26539W        W87850  41.329   8.356   3.648
26540W        W87851  32.061   3.277  13.422
26541W        W87852  13.783  15.257  14.790
26542W        W87853  42.956   1.978  12.378
26543W        W87854  27.145  14.682   4.794
26544W        W87855  17.193  13.245  13.350
26545W        W87856  39.403  41.436  10.972
26546W        W87857  32.488  44.315  12.386
26547W        W87858  35.500  39.412   3.727
26548W        W87859  31.963  20.606  14.813
26549W        W87860  44.397  28.181   4.142
26550W        W87861   4.235  28.993   1.382
26551W        W87862  36.521  19.072   2.702
26552W        W87863  16.710  41.005   0.943
26553W        W87864   1.858  32.411   4.155
26554W        W87865  38.865   9.319   2.883
26555W        W87866   0.933  27.126   4.643
26556W        W87867  26.497  28.104   1.256
26557W        W87868  11.763  31.059  12.072
26558W        W87869  19.254  11.250   1.338
26559W        W87870  27.003   1.954   3.193
26560W        W87871   2.792  32.890   2.255
26561W        W87872  37.465   6.746   4.159
26562W        W87873  24.063  33.035   1.882
26563W        W87874  26.694   6.242   2.280
26564W        W87875  34.476  13.117  10.501
26565W        W87876  29.665  32.957  13.421
26566W        W87877  24.014  30.592  11.953
26567W        W87878  40.470  19.079   3.761
26568W        W87879  10.840  32.577   3.343
26569W        W87880  44.770  39.487   3.705
26570W        W87881  43.496   8.298  13.995
26571W        W87882  39.061  20.139   2.855
26572W        W87883  21.238  13.126  14.408
26573W        W87884  28.050   4.833   5.622
26574W        W87885  16.207  21.146   4.717
26575W        W87886   4.441  27.474  11.859
26576W        W87887   9.688  30.092   1.861
26577W        W87888  32.396   8.359   4.709
26578W        W87889  18.095  38.930   0.773
26579W        W87890  15.110  17.694   3.208
26580W        W87891  28.002  29.660   0.477
26581W        W87892   7.720  37.949  12.417
26582W        W87893  39.035  24.525  14.327
26583W        W87894  20.524  42.916  14.514
26584W        W87895  35.377  39.546   2.188
26585W        W87896   0.779   6.374   1.432
26586W        W87897  24.609   2.439   0.340
26587W        W87898  27.172  28.681   0.847
26588W        W87899   7.694   7.291   1.375
26589W        W87900  39.065  23.607   0.763
26590W        W87901  21.700   0.484   0.428
26591W        W87902   6.811  40.486  12.574
26592W        W87903  33.444  25.563  12.476
26593W        W87904   3.366  16.730   1.402
26594W        W87905  32.912  18.720   4.670
26595W        W87906  10.775  28.091  10.532
26596W        W87907  17.774  33.593  12.920
26597W        W87908  43.999  19.261   0.243
26598W        W87909  33.510  19.552   3.823
26599W        W87910  21.192  43.853  14.763
26600W        W87911  19.205   9.787   3.187
26601W        W87912   6.680  38.527   1.357
26602W        W87913  23.524   9.267  14.516
26603W        W87914  19.165   4.298   4.818
26604W        W87915  15.270  33.120   0.464
26605W        W87916  23.217   2.770  10.564
26606W        W87917  10.142  41.834   1.446
26607W        W87918   4.324  20.545   2.696
26608W        W87919  29.670  14.681  14.866
26609W        W87920  16.187  16.735   3.177
26610W        W87921  41.366  35.020  10.453
26611W        W87922  44.805  35.538  12.344
26612W        W87923  13.196  14.261  10.951
26613W        W87924  26.547  29.489   3.816
26614W        W87925   4.714   8.691  10.114
26615W        W87926  37.404  33.005  11.872
26616W        W87927  33.467  11.628   2.260
26617W        W87928  43.848  14.829  11.443
26618W        W87929  15.667  38.898  11.089
26619W        W87930  32.056  38.901  14.485
26620W        W87931  29.507   4.911  12.552
26621W        W87932  18.094  31.534   3.696
26622W        W87933  17.234  44.873  11.963
26623W        W87934   2.303  31.004   2.383
26624W        W87935  19.717  27.099   1.858
26625W        W87936  20.039  44.331   3.376
26626W        W87937  15.795  38.408  13.358
26627W        W87938   2.459   7.375  11.430
26628W        W87939  17.228  11.773   1.878
26629W        W87940  22.579  15.096   1.330
26630W        W87941  15.323  43.425  11.100
26631W        W87942   0.938  44.271  11.934
26632W        W87943   5.277  40.511   0.426
26633W        W87944  16.779  21.140   4.821
26634W        W87945  42.509  23.049   3.767
26635W        W87946  20.264  28.133  13.862
26636W        W87947  31.401  31.608  10.508
26637W        W87948  11.252  15.181  10.469
26638W        W87949   2.819  23.736  11.998
26639W        W87950  41.855  22.564   3.660
26640W        W87951  13.310   6.356   1.853
26641W        W87952   6.284  40.988  14.352
26642W        W87953   1.430  33.510   4.180
26643W        W87954  12.167  34.402   3.697
26644W        W87955  11.653  21.262   2.718
26645W        W87956  44.784   9.324   4.219
26646W        W87957   8.667  28.060  10.428
26647W        W87958   7.352  31.468  11.543
26648W        W87959  25.609  43.506   3.848
26649W        W87960  28.981   8.711  14.514
26650W        W87961   8.720  21.634   2.246
26651W        W87962  31.070   9.726   3.164
26652W        W87963  25.111  37.479   4.220
26653W        W87964  30.107  34.542   4.774
26654W        W87965  35.401  25.149  11.121
26655W        W87966   6.422  41.920  12.888
26656W        W87967  15.319  42.900  13.023
26657W        W87968   0.881  37.974  11.420
26658W        W87969  33.453  35.441   3.815
26659W        W87970   7.726  18.714   0.733
26660W        W87971  35.906  19.279  14.356
26661W        W87972  31.930  27.462  11.491
26662W        W87973  32.429  41.875  11.989
26663W        W87974  18.674  27.643  14.976
26664W        W87975  39.517  11.664   0.476
26665W        W87976  11.629  19.065  14.306
26666W        W87977  41.840  21.562   4.161
26667W        W87978   9.776   5.390   3.178
26668W        W87979   9.285  27.058  13.454
26669W        W87980   8.167  15.175  12.466
26670W        W87981  37.853  17.621   3.291
26671W        W87982  39.440   0.801  10.433
26672W        W87983  12.690  29.643   2.215
26673W        W87984   4.277  35.049   4.130
26674W        W87985  28.515  11.341   4.730
26675W        W87986  36.514  21.158  11.987
26676W        W87987  31.624  29.972   3.697
26677W        W87988  19.721   4.245  13.360
26678W        W87989   2.805  44.368   3.347
26679W        W87990  33.575   3.880  14.919
26680W        W87991  25.010   2.313   5.286
26681W        W87992  16.273   8.727  12.978
26682W        W87993  41.796   9.226   2.363
26683W        W87994  38.336  35.062   1.420
26684W        W87995  23.038  20.750   3.678
26685W        W87996  10.337   4.832  14.966
26686W        W87997   3.440   9.802   4.822
26687W        W87998   0.384  14.680   1.825
26688W        W87999  33.909  29.622  10.536
26689W        W88000  25.687  26.616  14.944
26690W        W88001  34.980   3.876  14.001
26691W        W88002   8.764  20.262   2.667
26692W        W88003  27.615  26.643   0.850
26693W        W88004  22.075  37.501   3.650
26694W        W88005   5.714  33.456   3.160
26695W        W88006  22.247  23.643  14.868
26696W        W88007  13.633  14.126   4.143
26697W        W88008  33.120   0.764  13.508
26698W        W88009  13.172  41.538  14.457
26699W        W88010  33.411   9.311   1.235
26700W        W88011  10.783  34.964   3.654
26701W        W88012  24.058  29.034   3.362
26702W        W88013  24.717   4.921  12.529
26703W        W88014  31.967   4.330  12.066
26704W        W88015  23.116  23.617   4.140
26705W        W88016  24.658  12.155   1.869
26706W        W88017  29.522  28.485  14.378
26707W        W88018  27.570  43.302  11.984
26708W        W88019   2.788   6.305  12.480
26709W        W88020   0.869  24.702  13.459
26710W        W88021   0.286   9.671  14.876
26711W        W88022  32.459  43.907   1.368
26712W        W88023  31.080   1.354   1.418
26713W        W88024   9.807  23.528  11.008
26714W        W88025  44.819  25.637   1.742
26715W        W88026  44.798  13.196  12.899
26716W        W88027  33.890   5.374   0.898
26717W        W88028  18.230  16.768  11.512
26718W        W88029  36.436  29.656  13.443
26719W        W88030   1.475  37.927  14.804
26720W        W88031  37.539  37.067  14.421
26721W        W88032  17.749  29.603  13.880
26722W        W88033  44.973  31.979  12.550
26723W        W88034   4.256  41.408   1.788
26724W        W88035  30.611  31.593   2.222
26725W        W88036  24.025   1.464  14.321
26726W        W88037  41.502  17.130  10.484
26727W        W88038  15.108  11.161   4.607
26728W        W88039  13.134  30.547   9.959
26729W        W88040   4.708  12.182   0.319
26730W        W88041  12.845  13.709  12.981
26731W        W88042  23.615  24.504   4.281
26732W        W88043  40.027  30.640   4.623
26733W        W88044   5.402  15.209  14.788
26734W        W88045  27.963  18.715  12.004
26735W        W88046  15.719  34.430   3.703
26736W        W88047  16.627  34.606   1.871
26737W        W88048  23.988   9.645   2.742
26738W        W88049  34.494  42.476  12.492
26739W        W88050   3.806   2.876  13.993
26740W        W88051  11.235   5.878   2.221
26741W        W88052  41.382  28.008  14.391
26742W        W88053  44.319  29.595   1.790
26743W        W88054  23.503  40.493   0.476
26744W        W88055  27.183  40.522   4.761
26745W        W88056  22.634   8.322  14.431
26746W        W88057  44.880  43.352  10.615
26747W        W88058  25.560  16.621   3.667
26748W        W88059  35.527  11.755   0.870
26749W        W88060  17.146  42.481  14.397
26750W        W88061  17.202  31.105  10.466
26751W        W88062   1.942  18.644   2.277
26752W        W88063   5.401  15.753   2.213
26753W        W88064   8.777   0.380   0.852
26754W        W88065   9.837  17.283   1.826
26755W        W88066  40.310  43.487   2.378
26756W        W88067  10.659  22.651   2.880
26757W        W88068   1.886  42.465  14.399
26758W        W88069   1.308  40.029   0.456
26759W        W88070  24.577   7.299  11.591
26760W        W88071   8.820  35.987   0.363
26761W        W88072  37.050  19.710   4.148
26762W        W88073  18.151   6.370   3.286
26763W        W88074  23.032  25.605  11.113
26764W        W88075   6.913  15.252   5.690
26765W        W88076  24.168  15.654  10.426
26766W        W88077  29.473   6.838  14.334
26767W        W88078   2.327  32.049  10.140
26768W        W88079  11.842  37.841  11.964
26769W        W88080  36.882  24.066   2.270
26770W        W88081  36.586  35.495   3.216
26771W        W88082  44.906   7.705   2.811
26772W        W88083  14.122  37.032  12.080
26773W        W88084  41.884  39.491   0.320
26774W        W88085  26.590  20.132  14.278
26775W        W88086   9.288  44.760   2.211
26776W        W88087  28.040  23.233   1.770
26777W        W88088  20.158  23.052   3.817
26778W        W88089  28.110   4.806  11.527
26779W        W88090  23.598  10.370   1.416
26780W        W88091  11.281  39.809   1.378
26781W        W88092   8.656   6.766   4.175
26782W        W88093  42.291  44.958   3.355
26783W        W88094   0.940  19.603  10.597
26784W        W88095  24.131  14.313  12.956
26785W        W88096   1.958   2.857   2.409
26786W        W88097  13.708  42.009  12.956
26787W        W88098   1.443  23.993   4.208
26788W        W88099   2.878  29.939  13.545
26789W        W88100  21.262   9.886  10.972
26790W        W88101  10.352  38.351   4.142
26791W        W88102  20.055  11.243   4.731
26792W        W88103  35.576   9.815   3.630
26793W        W88104  25.630  36.876   1.875
26794W        W88105  16.140   6.206   0.400
26795W        W88106  36.861   2.944   4.289
26796W        W88107  32.478   3.289  14.904
26797W        W88108   9.849  18.132   1.734
26798W        W88109  22.508  26.141  10.462
26799W        W88110  23.196   3.324   3.223
26800W        W88111  18.683   7.759   2.850
26801W        W88112   8.167   8.270   1.808
26802W        W88113  14.292  33.563  13.309
26803W        W88114   0.362  33.999  13.961
26804W        W88115  14.677  30.092  12.995
26805W        W88116   2.437  10.783   1.759
26806W        W88117   2.880  43.425  12.854
26807W        W88118  12.703  42.504  10.641
26808W        W88119   2.241  15.655   1.438
26809W        W88120  15.289  22.510   2.391
26810W        W88121  12.844  17.115   4.614
26811W        W88122  21.153  18.743  12.893
26812W        W88123   7.288  17.208  14.905
26813W        W88124  30.154  27.649  13.838
26814W        W88125   1.969  32.065   2.337
26815W        W88126   3.823  23.059   1.704
26816W        W88127   7.714  13.693   1.425
26817W        W88128  31.623  10.850   0.752
26818W        W88129  13.225  12.772   3.278
26819W        W88130  29.437  10.153   4.768
26820W        W88131  31.614  11.242  12.497
26821W        W88132  40.338  40.333   5.104
26822W        W88133  23.519   3.825   3.699
26823W        W88134  17.224  19.125  13.010
26824W        W88135  38.499  21.081  10.934
26825W        W88136  41.977  11.651  14.004
26826W        W88137  16.621   4.716   0.895
26827W        W88138  40.806  26.632   1.781
26828W        W88139  34.974  34.495   0.394
26829W        W88140  15.781  16.157  14.927
26830W        W88141  32.915  40.366  13.001
26831W        W88142  23.052   4.898   2.679
26832W        W88143  40.839   0.889   3.686
26833W        W88144  16.283  41.833  10.599
26834W        W88145  17.147  42.364   1.889
26835W        W88146  25.527   9.149  11.128
26836W        W88147  22.099  34.432   0.738
26837W        W88148  39.868  18.685   2.902
26838W        W88149  43.933  36.058  13.393
26839W        W88150  36.015   0.954  12.844
26840W        W88151  16.756   0.759  10.622
26841W        W88152  14.121  36.086   4.131
26842W        W88153  34.584  37.536   3.683
26843W        W88154   1.799  21.091   3.240
26844W        W88155   6.239  26.082  11.084
26845W        W88156  14.759  12.692  11.944
26846W        W88157  22.583  22.566  14.877
26847W        W88158   8.760  16.096  11.950
26848W        W88159  13.203  34.986   2.893
26849W        W88160   1.819   4.771   2.281
26850W        W88161   9.670   3.397  12.453
26851W        W88162  15.578  43.497  10.066
26852W        W88163   2.747  19.106   1.311
26853W        W88164  27.075   7.907  10.039
26854W        W88165   8.283   9.645  12.521
26855W        W88166  18.119  38.955   2.289
26856W        W88167  36.015  12.354   3.739
26857W        W88168  29.119  35.431  13.546
26858W        W88169   4.868  29.949   0.300
26859W        W88170  23.660   5.285  12.885
26860W        W88171   3.350  39.403  12.513
26861W        W88172  10.352  16.105   1.762
26862W        W88173   2.351  37.534   4.136
26863W        W88174  17.207   9.169  14.989
26864W        W88175  44.907   7.792  13.482
26865W        W88176  18.655  26.046   4.143
26866W        W88177  13.725  28.516  13.903
26867W        W88178   0.925  43.433  11.582
26868W        W88179  19.273  39.935  11.910
26869W        W88180  25.165  11.327   2.296
26870W        W88181  24.978  41.301   4.814
26871W        W88182  18.064  10.285  13.467
26872W        W88183  12.854   6.244  13.000
26873W        W88184   1.925  12.228   0.802
26874W        W88185   4.779  25.103   3.793
26875W        W88186  19.109  21.107  13.894
26876W        W88187   0.372  22.654  10.578
26877W        W88188   5.344  38.860  10.086
26878W        W88189  21.587  11.688  11.079
26879W        W88190  22.590  22.228  13.810
26880W        W88191  12.194  10.369   4.199
26881W        W88192  24.630  15.630   4.747
26882W        W88193  28.047  23.208  14.833
26883W        W88194  21.094  38.495  12.877
26884W        W88195  14.831   2.388   1.395
26885W        W88196  41.461  21.254  13.046
26886W        W88197  20.137  11.689   4.291
26887W        W88198   5.742  40.950  12.912
26888W        W88199  20.720  31.520   5.659
26889W        W88200  13.287  34.423   4.156
26890W        W88201  38.036  22.596   4.708
26891W        W88202  38.845  36.501   4.696
26892W        W88203  17.117  12.652  13.472
26893W        W88204  27.969  16.180   1.836
26894W        W88205  39.946  27.017  13.045
26895W        W88206   4.445  27.524  11.420
26896W        W88207   9.289  19.181  13.404
26897W        W88208  27.615  17.268  11.876
26898W        W88209  20.174   8.383  13.471
26899W        W88210  26.671  31.114  13.321
26900W        W88211  37.860  18.116  10.601
26901W        W88212   3.227  23.138  11.957
26902W        W88213  43.349  34.454   4.310
26903W        W88214  30.109  11.694  12.957
26904W        W88215  44.304   8.376  14.951
26905W        W88216  16.611   8.219  13.855
26906W        W88217  42.801  20.080   5.216
26907W        W88218  24.131  19.633  12.917
26908W        W88219  33.587  25.214   0.273
26909W        W88220  12.642  23.148  10.435
26910W        W88221  15.778   9.798   1.918
26911W        W88222  15.680  32.526  12.541
26912W        W88223  12.324   5.751  13.530
26913W        W88224  42.887   7.714  13.509
26914W        W88225  38.462  20.628   3.772
26915W        W88226  18.737  34.999   4.788
26916W        W88227   8.372  12.663  11.930
26917W        W88228  32.416   4.735   0.325
26918W        W88229  36.445  41.874   4.134
26919W        W88230   2.338  37.381   2.862
26920W        W88231  29.441  24.496   0.395
26921W        W88232  23.096  31.486   4.314
26922W        W88233   4.827  44.870  11.420
26923W        W88234  40.432  19.279  14.850
26924W        W88235  25.693  35.032  11.579
26925W        W88236  32.583  39.813   3.659
26926W        W88237  30.015  14.271  10.927
26927W        W88238  43.912  40.958  14.459
26928W        W88239   8.866  24.637  10.595
26929W        W88240  37.421  21.206  10.511
26930W        W88241  31.020  29.950   4.308
26931W        W88242  38.465  40.862   3.660
26932W        W88243  12.780  21.578   3.656
26933W        W88244  25.653  32.934  10.422
26934W        W88245  10.772  23.616   4.629
26935W        W88246  43.338  30.044  10.920
26936W        W88247  34.983  29.520   5.101
26937W        W88248  34.978  37.873  11.911
26938W        W88249  23.184  15.157   0.813
26939W        W88250   2.731  29.470   1.410
26940W        W88251  16.698  25.522   5.109
26941W        W88252  31.963  20.070  11.048
26942W        W88253  27.158  29.033  13.996
26943W        W88254   6.213  11.369   0.897
26944W        W88255  17.072  15.720   2.239
26945W        W88256   9.320  11.224   1.712
26946W        W88257   5.356   2.781  12.388
26947W        W88258  37.397  29.509   1.249
26948W        W88259  34.895  23.533  10.506
26949W        W88260  20.622  25.705  12.875
26950W        W88261   1.911  40.031  11.544
26951W        W88262  38.517  32.401   1.363
26952W        W88263   2.318  11.201   3.190
26953W        W88264  20.744  40.006   3.215
26954W        W88265   7.298  26.658  12.409
26955W        W88266  32.436   4.920   0.910
26956W        W88267  29.081  26.006  13.960
26957W        W88268   2.290  11.860   3.865
26958W        W88269  42.936   3.779  11.533
26959W        W88270  14.771  27.553  14.854
26960W        W88271  33.606  32.103  11.935
26961W        W88272   2.418   4.871   0.437
26962W        W88273  19.755  32.413  14.448
26963W        W88274  32.912  15.189   1.376
26964W        W88275  29.164  35.589   4.609
26965W        W88276  21.621  11.185  12.943
26966W        W88277  25.037  22.100  13.512
26967W        W88278   9.225  14.638   1.296
26968W        W88279  14.753  22.230   1.767
26969W        W88280  43.835  24.676   4.195
26970W        W88281  22.628  17.604  10.615
26971W        W88282  41.297  29.920   1.283
26972W        W88283  27.548  39.915   2.719
26973W        W88284  28.624  32.440  10.554
26974W        W88285  22.072  34.110   0.880
26975W        W88286  20.679   2.403  10.470
26976W        W88287  22.050  20.114   2.774
26977W        W88288  13.696  33.091   1.362
26978W        W88289  27.992  37.394  10.524
26979W        W88290   8.285  25.123   1.337
26980W        W88291  22.558  40.492  12.076
26981W        W88292   4.738  19.212  12.058
26982W        W88293  32.618  15.249   0.461
26983W        W88294  24.070  41.484  11.548
26984W        W88295  44.958   7.835  11.560
26985W        W88296  32.969   5.297  12.862
26986W        W88297  30.153   5.427  11.523
26987W        W88298  38.829  41.827   2.851
26988W        W88299  26.701  12.813   0.953
26989W        W88300   3.905  27.605   2.362
26990W        W88301  28.572  29.037  14.827
26991W        W88302   5.913  30.550   4.627
26992W        W88303  43.508  13.730   4.157
26993W        W88304  22.536  18.182   9.497
26994W        W88305   8.864  40.870   0.331
26995W        W88306  24.212  38.417  10.894
26996W        W88307   0.270  14.317   0.448
26997W        W88308  42.799  37.845   4.148
26998W        W88309   7.259   9.747   2.732
26999W        W88310  22.210  31.579   4.277
27000W        W88311   8.171  15.097   3.865
27001W        W88312  39.505   7.233  12.907
27002W        W88313   0.436  32.078   1.430
27003W        W88314  17.641  26.463  12.980
27004W        W88315  15.693   0.264   4.677
27005W        W88316  17.762  20.193  12.567
27006W        W88317  18.071  13.644  12.534
27007W        W88318   8.668  22.203  12.424
27008W        W88319  36.055  28.104   4.748
27009W        W88320   8.223  30.507  11.444
27010W        W88321  40.315  12.612  11.444
27011W        W88322  38.024  37.037   2.373
27012W        W88323  23.513  13.601   1.763
27013W        W88324  16.165  34.402  12.084
27014W        W88325  11.270  28.467  12.873
27015W        W88326  20.220  23.116  11.975
27016W        W88327  29.978  18.199   1.308
27017W        W88328  43.913  17.193  10.957
27018W        W88329  20.755  27.119  12.877
27019W        W88330  29.999  17.171   3.284
27020W        W88331  20.183  18.656  12.473
27021W        W88332  42.901  27.010   2.394
27022W        W88333  38.478   9.351  13.012
27023W        W88334  33.439  17.307   1.410
27024W        W88335   2.853  14.223  14.448
27025W        W88336   4.274  40.526   2.211
27026W        W88337  32.947  38.026   4.260
27027W        W88338  21.540  40.343  11.451
27028W        W88339  15.284  41.438   4.630
27029W        W88340  16.599  26.962  12.431
27030W        W88341  16.289  15.283   3.639
27031W        W88342   8.832  42.476  13.796
27032W        W88343  13.279   3.810  13.951
27033W        W88344  30.959  42.987   2.744
27034W        W88345  29.013   9.250   3.687
27035W        W88346  42.027  29.018  14.964
27036W        W88347  29.645  42.997  14.425
27037W        W88348  27.167  42.876  11.867
27038W        W88349  40.515   7.172  13.916
27039W        W88350  24.005  38.821   0.858
27040W        W88351  29.970   9.386   4.197
27041W        W88352  36.896   5.861  12.424
27042W        W88353  17.199  38.855   0.760
27043W        W88354  41.993  28.675   1.350
27044W        W88355  11.147  14.215   3.761
27045W        W88356  39.470  40.858   0.385
27046W        W88357  39.866  41.360  10.896
27047W        W88358  41.500   4.287  10.965
27048W        W88359  17.169   5.347   1.377
27049W        W88360  33.938   2.948  11.462
27050W        W88361  39.840   8.853   2.392
27051W        W88362   5.424  38.392   4.151
27052W        W88363   6.794  43.383   1.755
27053W        W88364  37.521  21.750  14.397
27054W        W88365  27.675  40.844  14.511
27055W        W88366   4.292  36.874   0.738
27056W        W88367   5.808  22.518   3.331
27057W        W88368  25.093  24.569   1.760
27058W        W88369  15.636  34.515  10.612
27059W        W88370  34.438   1.428   0.828
27060W        W88371  40.022  25.169   3.221
27061W        W88372  22.999  41.835   0.268
27062W        W88373   4.705  34.592  11.883
27063W        W88374   4.781  20.152  14.797
27064W        W88375  16.163  43.981   2.868
27065W        W88376  26.091   7.400  10.525
27066W        W88377  10.852  13.173  13.034
27067W        W88378  20.243  17.568   4.600
27068W        W88379   2.309  31.994  13.476
27069W        W88380  35.375  16.626  10.428
27070W        W88381  38.837  17.587   5.247
27071W        W88382  31.033  40.976  14.353
27072W        W88383  36.349  39.446   1.874
27073W        W88384  33.511  30.142   2.242
27074W        W88385  37.360  15.242   2.362
27075W        W88386  36.001   9.312  13.806
27076W        W88387  42.030  10.659   1.437
27077W        W88388   1.347  29.045  12.907
27078W        W88389  14.831  11.629   1.759
27079W        W88390  32.016   7.871   2.258
27080W        W88391  33.016   5.211  12.013
27081W        W88392  28.608  12.795   2.305
27082W        W88393  29.498  33.447   4.614
27083W        W88394   4.375  28.171  11.920
27084W        W88395  34.985   8.219   3.664
27085W        W88396  29.562  41.405  10.945
27086W        W88397  16.771  25.151  11.059
27087W        W88398   6.367  36.362  12.915
27088W        W88399  37.061  28.675   3.697
27089W        W88400  43.507  11.192  12.867
27090W        W88401  30.029  37.836   2.291
27091W        W88402   9.668  16.795  10.630
27092W        W88403  13.730  37.918   3.278
27093W        W88404  26.461  30.930   4.176
27094W        W88405  31.560  20.161  13.844
27095W        W88406  31.005  26.458  13.869
27096W        W88407  33.101  14.274  12.075
27097W        W88408  36.061  29.140   1.397
27098W        W88409  39.508   6.341   1.824
27099W        W88410  28.971  38.980   0.430
27100W        W88411   1.875  16.175   0.923
27101W        W88412   1.292  17.672   0.330
27102W        W88413  33.421  32.482  10.046
27103W        W88414  37.922  16.780  13.901
27104W        W88415  25.706  35.983  12.021
27105W        W88416   9.281  43.421   1.214
27106W        W88417  19.211  21.129   1.213
27107W        W88418   2.849  40.911  14.974
27108W        W88419  37.078  44.905  11.460
27109W        W88420  23.520   0.771  12.346
27110W        W88421  39.492  42.451  13.930
27111W        W88422  44.922  41.844   1.324
27112W        W88423  10.231   8.387   4.658
27113W        W88424  43.004  18.172   1.293
27114W        W88425  19.123  15.650   1.289
27115W        W88426   3.241  24.996   1.287
27116W        W88427  13.727  33.445  13.444
27117W        W88428  23.721   0.841  13.513
27118W        W88429  26.631  15.275  12.027
27119W        W88430  28.518  14.297   0.961
27120W        W88431  30.040  33.926  11.559
27121W        W88432  44.872  39.353  12.961
27122W        W88433  12.853  10.246   2.801
27123W        W88434   9.233  39.411   4.697
27124W        W88435   0.290  42.448  13.489
27125W        W88436  16.762  43.769   1.719
27126W        W88437   5.896  19.206   0.864
27127W        W88438  25.093  30.910  12.919
27128W        W88439   4.411  16.154  11.438
27129W        W88440  14.298  25.023   3.308
27130W        W88441  19.731  16.597  13.413
27131W        W88442   3.338   1.952   4.323
27132W        W88443  13.153  36.858   0.317
27133W        W88444   6.359   6.817   4.799
27134W        W88445  34.948  26.695  11.981
27135W        W88446   7.396  32.633   4.685
27136W        W88447  44.827  43.395  13.506
27137W        W88448  20.038  29.121   0.321
27138W        W88449  42.928   9.750  10.611
27139W        W88450  43.791  19.762  11.453
27140W        W88451  22.567   8.858   1.841
27141W        W88452  27.446  27.966  12.898
27142W        W88453  15.146  22.222   0.479
27143W        W88454  35.886  32.998   0.431
27144W        W88455  10.172   3.897   4.206
27145W        W88456  21.641  23.593   4.651
27146W        W88457  37.053  25.487   4.346
27147W        W88458  14.754  12.292   0.857
27148W        W88459  10.296   9.793  10.446
27149W        W88460  28.445  23.136   2.324
27150W        W88461  31.961  24.507   3.340
27151W        W88462  24.549  29.083  11.431
27152W        W88463  33.006   5.877  12.360
27153W        W88464  38.468   5.747  11.482
27154W        W88465   8.322  34.560   2.857
27155W        W88466  18.705  34.500  10.130
27156W        W88467  24.000  20.124   2.349
27157W        W88468  21.189  14.278   0.791
27158W        W88469   2.858   1.370  11.378
27159W        W88470  22.057  43.880  14.420
27160W        W88471  26.101  11.767   3.823
27161W        W88472  13.312  33.917  11.525
27162W        W88473   2.274  10.757   2.275
27163W        W88474   3.289  39.343  14.967
27164W        W88475  39.507  27.174  14.475
27165W        W88476  37.365   6.831   1.787
27166W        W88477  35.575   0.901   2.806
27167W        W88478  19.535  13.302   4.253
27168W        W88479  14.800  30.976  10.908
27169W        W88480   4.249  23.166  11.456
27170W        W88481  44.838  40.524   1.834
27171W        W88482  33.383   2.930   2.673
27172W        W88483  26.107  24.611   0.422
27173W        W88484  15.142  14.773   4.318
27174W        W88485  36.842  38.456  10.481
27175W        W88486  19.279  36.560  10.981
27176W        W88487  27.038  23.076   3.194
27177W        W88488   7.780  40.391  10.922
27178W        W88489  38.948  37.545  11.922
27179W        W88490  38.889  38.410  11.083
27180W        W88491  38.825   4.765   9.988
27181W        W88492  22.143  30.586   3.350
27182W        W88493  44.875  20.729   2.777
27183W        W88494   1.274  26.523   4.251
27184W        W88495  29.141  26.466   2.282
27185W        W88496  40.386  14.647   3.146
27186W        W88497  30.537   8.900  13.891
27187W        W88498  37.393   3.283   4.283
27188W        W88499  34.470  18.728   1.442
27189W        W88500  10.675  29.955  14.853
27190W        W88501   0.766   1.338  11.511
27191W        W88502   4.935  34.440  13.920
27192W        W88503  36.067  23.585  10.495
27193W        W88504  36.349  19.115  12.384
27194W        W88505  28.174  33.435  10.948
27195W        W88506  13.722  18.692   0.938
27196W        W88507   8.379  10.301  11.441
27197W        W88508  13.288  14.300   0.289
27198W        W88509  39.343  36.535   2.671
27199W        W88510  11.159   7.823  14.373
27200W        W88511  38.486  23.517  13.325
27201W        W88512  20.139   6.271  10.127
27202W        W88513  42.896  34.604  14.940
27203W        W88514   3.854  26.150  11.518
27204W        W88515   1.840   7.281  12.557
27205W        W88516  40.970  30.556   0.376
27206W        W88517  11.657  42.395   2.865
27207W        W88518   2.376  19.624   0.301
27208W        W88519  29.046   8.657   0.422
27209W        W88520  34.493  19.617   2.366
27210W        W88521  37.862   2.883   0.870
27211W        W88522  31.523  33.938  11.412
27212W        W88523  14.319   7.797   5.289
27213W        W88524  14.706  18.098   0.456
27214W        W88525   2.428  40.486   2.214
27215W        W88526  23.508  30.463  13.998
27216W        W88527   1.368   5.293  12.383
27217W        W88528  28.958  32.429   3.303
27218W        W88529   5.915  21.061  12.930
27219W        W88530   4.827  35.100   3.236
27220W        W88531  10.281  14.205   2.226
27221W        W88532  22.710   8.709  12.036
27222W        W88533   0.925  18.631  11.918
27223W        W88534  39.993  30.480   3.781
27224W        W88535  41.846  33.122   0.341
27225W        W88536  40.440  17.278   0.941
27226W        W88537  36.395  30.920   0.777
27227W        W88538   1.327  18.101  11.462
27228W        W88539  14.324  32.995  11.110
27229W        W88540  44.972  41.922   4.667
27230W        W88541  33.560  39.494   3.844
27231W        W88542  26.556   3.292  12.966
27232W        W88543  20.251  16.237  14.968
27233W        W88544  29.462  28.015   5.256
27234W        W88545  21.242  31.524  13.452
27235W        W88546  16.625  23.124   1.707
27236W        W88547   1.291  39.486   2.736
27237W        W88548  12.773  39.353   2.201
27238W        W88549  21.757  36.056  10.495
27239W        W88550  34.066  28.129   2.713
27240W        W88551   2.803  28.962  14.464
27241W        W88552   8.899  12.725  14.384
27242W        W88553  19.638  38.909   1.261
27243W        W88554   2.751  18.170  10.619
27244W        W88555   4.384  29.458   4.350
27245W        W88556  34.504  20.615   1.890
27246W        W88557  30.447  35.604  11.444
27247W        W88558  19.197   4.935  11.384
27248W        W88559  36.945  23.232  12.990
27249W        W88560  29.118  41.985  10.904
27250W        W88561  26.544  36.003  10.520
27251W        W88562  41.938  42.492   1.901
27252W        W88563  36.370   8.171  13.836
27253W        W88564  44.766   6.238  12.950
27254W        W88565  17.079   2.226  11.859
27255W        W88566   9.790  41.938  14.972
27256W        W88567  10.328  25.090   4.671
27257W        W88568  25.992  19.678   3.349
27258W        W88569  30.419  23.685   1.310
27259W        W88570  27.523  14.142   0.822
27260W        W88571   3.248  19.044  11.090
27261W        W88572  19.270  37.887  11.487
27262W        W88573  10.802  19.594   1.351
27263W        W88574  17.769   7.681  14.761
27264W        W88575  22.726  31.524  14.468
27265W        W88576  29.074  14.103  11.415
27266W        W88577  16.171  24.082   1.897
27267W        W88578   5.840  40.938  11.881
27268W        W88579  42.961   0.400  11.897
27269W        W88580  22.047  33.938   1.933
27270W        W88581   0.873  32.891   2.377
27271W        W88582  38.893  13.190  13.388
27272W        W88583   1.347  14.816   2.315
27273W        W88584  14.283  16.675  12.466
27274W        W88585  27.956  16.138   2.865
27275W        W88586   9.310   8.784   0.300
27276W        W88587  15.132  28.607  13.839
27277W        W88588  37.025  13.670  11.874
27278W        W88589  22.086  43.365  12.498
27279W        W88590  26.466  32.078   4.812
27280W        W88591  42.503  40.959  10.629
27281W        W88592   7.705  41.786  12.976
27282W        W88593  25.469   1.913   3.236
27283W        W88594  37.957  34.429   2.862
27284W        W88595  31.090   5.766   1.694
27285W        W88596  20.228  18.613   4.671
27286W        W88597   5.303  20.054   2.700
27287W        W88598  39.500  38.440   4.313
27288W        W88599  13.194  17.576  14.391
27289W        W88600  27.989  11.185  10.596
27290W        W88601  17.209  21.723   3.848
27291W        W88602  16.113   7.884  10.890
27292W        W88603  13.257  11.627   1.928
27293W        W88604  38.367   2.847   4.116
27294W        W88605  33.879  25.210  12.369
27295W        W88606   4.742  27.465  10.480
27296W        W88607  19.152  26.552   3.269
27297W        W88608   2.409  12.117   4.295
27298W        W88609  33.908  32.579  11.433
27299W        W88610  21.724  15.094   0.758
27300W        W88611   3.370  22.504   3.687
27301W        W88612  31.555   9.708  12.465
27302W        W88613  27.591  27.020  13.998
27303W        W88614  30.475  43.452   2.718
27304W        W88615  11.256  31.552  13.500
27305W        W88616  12.714   3.288   3.288
27306W        W88617  11.362  15.678   4.727
27307W        W88618  32.554  29.130  10.638
27308W        W88619  34.996  32.580  13.518
27309W        W88620  25.181  27.071  12.008
27310W        W88621  43.293  34.605   0.374
27311W        W88622  22.202  38.069  13.870
27312W        W88623  29.139  24.635   3.187
27313W        W88624  28.938  18.235   0.867
27314W        W88625  43.962  10.727   2.739
27315W        W88626  17.106  26.572   3.854
27316W        W88627  38.041  43.417  10.634
27317W        W88628  11.654  24.527   4.679
27318W        W88629   1.739   6.195  11.094
27319W        W88630  16.790  29.061   2.823
27320W        W88631  29.617  17.760   2.249
27321W        W88632   9.852  41.306  14.328
27322W        W88633  27.059   8.679   2.897
27323W        W88634  23.651  34.416  13.830
27324W        W88635  30.621   3.281  12.840
27325W        W88636   9.204  41.014  10.587
27326W        W88637  18.582  39.931  12.057
27327W        W88638  44.462   3.910   3.774
27328W        W88639  12.791  29.471  13.501
27329W        W88640  41.883  33.434  12.515
27330W        W88641  24.559  20.767  12.372
27331W        W88642   4.916  19.713   0.398
27332W        W88643  35.943  28.113  11.382
27333W        W88644  34.409  36.074   3.847
27334W        W88645   4.750  19.224   3.290
27335W        W88646   1.835  42.520  13.397
27336W        W88647  37.352  40.858  14.835
27337W        W88648  26.699   9.885   1.360
27338W        W88649  17.170  36.431  13.933
27339W        W88650  42.515  13.652   2.319
27340W        W88651   5.408  41.917   1.360
27341W        W88652  14.242  34.926  11.587
27342W        W88653  36.428  39.373   0.263
27343W        W88654  23.057  12.157  14.864
27344W        W88655   0.319   8.197   0.863
27345W        W88656  21.198   1.427  10.579
27346W        W88657  25.063  31.932  11.372
27347W        W88658  37.064  43.275  14.444
27348W        W88659   3.754  22.155   1.801
27349W        W88660  16.241  43.289   4.721
27350W        W88661  41.035  30.158   4.749
27351W        W88662  30.970  39.526  12.052
27352W        W88663  15.118  15.189   0.432
27353W        W88664  29.601  23.629  13.061
27354W        W88665  10.161   6.860  14.796
27355W        W88666   8.669  43.365  12.066
27356W        W88667  24.643  44.943   3.243
27357W        W88668   7.722  31.457   3.331
27358W        W88669  36.409  24.616   3.745
27359W        W88670   7.669  30.601  12.022
27360W        W88671  44.757  13.824  14.905
27361W        W88672  40.835  12.314  11.409
27362W        W88673   8.274  11.854   4.135
27363W        W88674  37.909   7.284  12.068
27364W        W88675  29.145  14.154  14.839
27365W        W88676  37.579  10.278   1.795
27366W        W88677  28.966   4.208   0.406
27367W        W88678   1.943  18.617   4.774
27368W        W88679  35.045  30.141   3.785
27369W        W88680  36.945  13.347  12.851
27370W        W88681  43.992  26.158   0.886
27371W        W88682  41.426   5.400   2.722
27372W        W88683  14.225   8.861  13.994
27373W        W88684  39.914   0.818  10.603
27374W        W88685  41.464  22.161   3.378
27375W        W88686  39.050   3.822   1.233
27376W        W88687   3.786  10.138  11.558
27377W        W88688   7.786  38.507  12.536
27378W        W88689  38.424  44.436  12.933
27379W        W88690  19.739   2.890  13.323
27380W        W88691   5.869  17.632  12.392
27381W        W88692   3.786  31.476   0.831
27382W        W88693  20.142   1.808   9.920
27383W        W88694  37.994  28.555   3.675
27384W        W88695   8.285  12.197  10.588
27385W        W88696  44.295  29.639  10.575
27386W        W88697  33.429  23.039  14.901
27387W        W88698  29.617  29.104  14.868
27388W        W88699  19.063  23.050   3.798
27389W        W88700  17.680  11.661  11.025
27390W        W88701  36.000  19.136  11.068
27391W        W88702  13.275   1.871  10.572
27392W        W88703  38.427  36.097   0.480
27393W        W88704  28.436  25.582   3.676
27394W        W88705  42.808  40.932  11.448
27395W        W88706  10.328   4.859   0.295
27396W        W88707  34.574   8.393  14.391
27397W        W88708   5.434   3.853   3.815
27398W        W88709  44.975  32.002  14.501
27399W        W88710   7.330  35.402  11.980
27400W        W88711  39.981  21.187  11.053
27401W        W88712   1.317  32.507  10.935
27402W        W88713  33.013  24.699   0.432
27403W        W88714   7.732  20.051   5.283
27404W        W88715  15.657  10.302  12.957
27405W        W88716  31.030   8.751   0.451
27406W        W88717  10.231  33.104   4.282
27407W        W88718   8.718  30.094  11.857
27408W        W88719  22.213  16.719   1.317
27409W        W88720  27.548  32.623  13.002
27410W        W88721  11.210  44.500  13.906
27411W        W88722  18.563  10.675   2.419
27412W        W88723  24.167  21.162   5.290
27413W        W88724  10.827   6.824  13.390
27414W        W88725  14.754  10.152  14.348
27415W        W88726  40.951  29.456   0.901
27416W        W88727  14.822  34.046   1.403
27417W        W88728  38.946  34.112  11.446
27418W        W88729  24.600  33.394   5.634
27419W        W88730   9.362  43.960  12.928
27420W        W88731  39.947   8.758   0.732
27421W        W88732  40.533  21.118  12.051
27422W        W88733   9.221  37.907  13.372
27423W        W88734  29.665  44.403   3.680
27424W        W88735   4.770  35.005  13.918
27425W        W88736   8.876  18.087  13.971
27426W        W88737  11.671  33.074   3.181
27427W        W88738  16.761  12.261  11.472
27428W        W88739  19.060  30.930   0.831
27429W        W88740  27.969   8.244   3.753
27430W        W88741   6.784  27.458   1.749
27431W        W88742  14.141  16.265   2.220
27432W        W88743   0.953  18.267   1.719
27433W        W88744  35.369  19.693  10.964
27434W        W88745  42.504  10.234  12.358
27435W        W88746  38.015  37.926   3.208
27436W        W88747  25.698  23.736  13.875
27437W        W88748   2.900  40.523  14.924
27438W        W88749  26.504  11.280   1.715
27439W        W88750  43.502  26.001  12.372
27440W        W88751   6.391  35.891   2.688
27441W        W88752  42.410  14.691   4.692
27442W        W88753   1.423   6.214   1.867
27443W        W88754  18.743  11.145   5.294
27444W        W88755  38.851  30.952  12.071
27445W        W88756   5.855  26.547   0.415
27446W        W88757   1.466  34.951   4.253
27447W        W88758  20.570  34.385  11.444
27448W        W88759  37.888  17.215   2.833
27449W        W88760   7.772  31.623  14.830
27450W        W88761  23.650  36.063  11.966
27451W        W88762  34.973  19.186   2.802
27452W        W88763  40.524  12.321   3.840
27453W        W88764  11.364   5.229  12.463
27454W        W88765   7.262   2.239   3.157
27455W        W88766  34.588  33.942  12.510
27456W        W88767  11.834  36.950   2.900
27457W        W88768  12.767   9.873  14.513
27458W        W88769   3.803  17.698   5.257
27459W        W88770  20.215  18.050  14.475
27460W        W88771  35.000  24.153  12.456
27461W        W88772  34.556   0.421  13.402
27462W        W88773  14.324  25.684  10.484
27463W        W88774   2.409  27.483   4.168
27464W        W88775  34.043  18.548   0.903
27465W        W88776  36.440   0.484   1.788
27466W        W88777  21.178   4.916  12.493
27467W        W88778  11.665  31.430   0.852
27468W        W88779  29.109  13.783  11.043
27469W        W88780  18.689  44.902   2.744
27470W        W88781  25.499   8.335  12.420
27471W        W88782   4.754  30.023   1.399
27472W        W88783  26.570  22.670   3.296
27473W        W88784  28.072  32.414   1.252
27474W        W88785  11.142  38.506  11.066
27475W        W88786  28.592  30.140   1.700
27476W        W88787   8.863  19.606   1.428
27477W        W88788  19.230   2.279  11.991
27478W        W88789   6.370  43.904   0.251
27479W        W88790  18.557  22.528   9.941
27480W        W88791  40.449  40.476  12.564
27481W        W88792  40.936  44.387  10.038
27482W        W88793  13.258  15.319  10.497
27483W        W88794  19.216  13.637  14.779
27484W        W88795  12.256  25.161   5.604
27485W        W88796  16.757  38.518   0.743
27486W        W88797   1.425  42.998   2.359
27487W        W88798   6.838  14.820   4.269
27488W        W88799   9.774  31.999   4.303
27489W        W88800  19.192  35.429   2.848
27490W        W88801  23.216  12.216  11.953
27491W        W88802  16.104  30.045   4.172
27492W        W88803  23.648  26.643  13.807
27493W        W88804   2.830  18.625   3.843
27494W        W88805  24.658  30.951   1.823
27495W        W88806  24.500  32.494  14.859
27496W        W88807   6.383  33.128  14.480
27497W        W88808   5.392   1.455   2.893
27498W        W88809  41.990   8.313  11.467
27499W        W88810   4.818  36.064   4.260
27500W        W88811   7.697   4.847  11.437
27501W        W88812  44.902  28.501  10.455
27502W        W88813   2.860  21.719  12.000
27503W        W88814  13.271  23.107   2.191
27504W        W88815  31.924  23.720   4.197
27505W        W88816  36.430   7.248   3.850
27506W        W88817  39.833  29.461   0.390
27507W        W88818  21.546  38.501   9.576
27508W        W88819  44.458  18.551  13.401
27509W        W88820  32.493  26.011  12.920
27510W        W88821  24.648  12.228   0.286
27511W        W88822  10.791  44.993  14.279
27512W        W88823  38.859   5.783  12.497
27513W        W88824   6.255  10.699  11.120
27514W        W88825  11.699   6.297   3.373
27515W        W88826   7.798  39.467  10.423
27516W        W88827   3.422  43.437  12.402
27517W        W88828   1.837  30.590   4.682
27518W        W88829   0.932   5.270  12.039
27519W        W88830  30.056  16.793  10.536
27520W        W88831  28.163   3.759  10.490
27521W        W88832   3.952  22.216   3.658
27522W        W88833   8.162   6.249  14.495
27523W        W88834  34.385  42.898  11.483
27524W        W88835   1.743  37.996   0.353
27525W        W88836  32.108  36.418   4.239
27526W        W88837  16.570   3.749  13.982
27527W        W88838   7.237  35.024  11.420
27528W        W88839  15.198  19.241   3.666
27529W        W88840  35.929   9.748   3.759
27530W        W88841  43.962  26.533  10.976
27531W        W88842  34.479  28.669   5.169
27532W        W88843  41.807  32.444  14.884
27533W        W88844  14.781  11.185  11.973
27534W        W88845   6.341  44.446   5.271
27535W        W88846   4.256   7.374   2.394
27536W        W88847  30.601  14.199   1.741
27537W        W88848   6.305  42.794  14.401
27538W        W88849   1.349  28.665  13.053
27539W        W88850  11.160  18.683   2.375
27540W        W88851  37.382   5.206  13.447
27541W        W88852  28.154  23.174   1.325
27542W        W88853  40.820  28.645   3.279
27543W        W88854  40.525  11.828  14.474
27544W        W88855  17.648  39.335  13.832
27545W        W88856  25.518  22.205  13.890
27546W        W88857  39.044  15.253  10.057
27547W        W88858  14.134   6.801  13.386
27548W        W88859  42.799  43.770   0.792
27549W        W88860  14.152  35.582   1.831
27550W        W88861  23.070  10.172  11.462
27551W        W88862   0.796  31.490  14.864
27552W        W88863  14.635  10.741   4.171
27553W        W88864  23.069  37.353  10.988
27554W        W88865  15.614  38.827   2.395
27555W        W88866  20.073  27.044   2.674
27556W        W88867  18.731  19.726   0.961
27557W        W88868  31.977   4.436  11.067
27558W        W88869  31.636  29.473  13.365
27559W        W88870   9.716  42.984  12.085
27560W        W88871  24.160  26.501  10.031
27561W        W88872  26.206  44.437   4.644
27562W        W88873  27.145  40.385   0.319
27563W        W88874  38.886  24.115   0.760
27564W        W88875  10.318   3.810  11.867
27565W        W88876  23.598  30.509  13.356
27566W        W88877  33.564  22.530  14.488
27567W        W88878  27.185  35.949  13.442
27568W        W88879   5.373  15.150   4.145
27569W        W88880  43.409  34.950   0.761
27570W        W88881  19.138  23.112  10.892
27571W        W88882  12.148  39.880   3.278
27572W        W88883  17.694   6.888   1.299
27573W        W88884  13.226  31.610  14.304
27574W        W88885  36.046  13.204  14.977
27575W        W88886   6.335   6.347  10.156
27576W        W88887  23.707  32.461  13.530
27577W        W88888  10.142   5.892  11.001
27578W        W88889  20.695  42.916  12.907
27579W        W88890  41.434  22.734   1.408
27580W        W88891  35.521  38.385  11.425
27581W        W88892  26.154  12.329   0.871
27582W        W88893  42.896  17.221   4.148
27583W        W88894   0.796  13.616   2.327
27584W        W88895  30.142  28.611   0.260
27585W        W88896   0.897  11.210  12.511
27586W        W88897  19.215   5.292   0.774
27587W        W88898  30.932   7.768   4.169
27588W        W88899   3.289  38.890  12.044
27589W        W88900  12.655   2.825   3.721
27590W        W88901  17.302  24.999  11.059
27591W        W88902  24.616  38.995   1.380
27592W        W88903  38.972  33.024   2.380
27593W        W88904  12.145  18.627  11.068
27594W        W88905  42.480  22.613   2.740
27595W        W88906  22.615  22.522  14.299
27596W        W88907  16.611  31.090  13.922
27597W        W88908  28.481  15.649   4.749
27598W        W88909  39.040   1.767   9.964
27599W        W88910   7.315  26.464   2.336
27600W        W88911  25.654  17.185  11.922
27601W        W88912  26.022   6.722  10.626
27602W        W88913   8.857  19.284  12.376
27603W        W88914  44.460  22.514   3.633
27604W        W88915  16.707  31.622  10.440
27605W        W88916   9.689  28.617   1.366
27606W        W88917  19.118  25.668  12.833
27607W        W88918  38.346  38.824  13.958
27608W        W88919  22.108  14.261  13.059
27609W        W88920   6.377   8.325  12.871
27610W        W88921  42.826  42.891  10.892
27611W        W88922  39.993  12.671   3.185
27612W        W88923  16.583  43.326  12.004
27613W        W88924  10.728  24.074  11.910
27614W        W88925   4.751   1.270   1.314
27615W        W88926   5.913  11.682   1.281
27616W        W88927  32.938  39.400   3.757
27617W        W88928  41.471   8.284   1.916
27618W        W88929  43.362  35.575   4.291
27619W        W88930  26.466  34.967   2.381
27620W        W88931  37.573  33.928   0.407
27621W        W88932   2.787  13.261  10.558
27622W        W88933  19.737  27.135   4.751
27623W        W88934  23.600  35.020   1.817
27624W        W88935  15.685  35.006   2.843
27625W        W88936  23.140  12.637  13.431
27626W        W88937   2.747  21.515   1.235
27627W        W88938   0.796  39.450   3.678
27628W        W88939  40.944  10.811   3.703
27629W        W88940  38.463  35.060   3.773
27630W        W88941  15.301   5.817   5.160
27631W        W88942   9.851   4.874  11.900
27632W        W88943   4.888  27.021  11.417
27633W        W88944  27.447  32.960  14.818
27634W        W88945  14.202  38.426   1.847
27635W        W88946  27.952  11.678   0.310
27636W        W88947  43.852   9.669  13.033
27637W        W88948  32.409   9.220  10.445
27638W        W88949  20.246   7.207  13.401
27639W        W88950  28.579  24.134   0.768
27640W        W88951  44.335   9.858   3.215
27641W        W88952  22.099   2.283   2.838
27642W        W88953  37.972  21.628  10.486
27643W        W88954  18.725   5.745   2.266
27644W        W88955  20.099  30.980   1.288
27645W        W88956   3.748   9.790  14.900
27646W        W88957  14.224   3.715  12.506
27647W        W88958  30.596  28.050  12.435
27648W        W88959  43.975  25.694   4.623
27649W        W88960  12.684  12.694  11.104
27650W        W88961   2.830  16.636   1.388
27651W        W88962  32.471  10.666   2.708
27652W        W88963  23.070  32.934  10.998
27653W        W88964   0.296  37.367   2.312
27654W        W88965  44.988   6.203  13.430
27655W        W88966  23.579  44.915  11.995
27656W        W88967   7.907  19.562   9.600
27657W        W88968  17.731  24.574   3.276
27658W        W88969   9.733  36.003  12.439
27659W        W88970   5.209  14.607   0.419
27660W        W88971  41.362  41.973  13.396
27661W        W88972  34.026  11.334  13.906
27662W        W88973   1.465   7.765  11.978
27663W        W88974  44.859  32.629   4.674
27664W        W88975  41.026  25.203   4.621
27665W        W88976  43.369  11.730  13.394
27666W        W88977   8.236   1.831   1.275
27667W        W88978  26.608  27.539   2.397
27668W        W88979  42.474  23.988   2.259
27669W        W88980  20.585   7.674   0.836
27670W        W88981  37.401  11.739   4.805
27671W        W88982  22.998  18.629   3.307
27672W        W88983  31.479  26.579   2.663
27673W        W88984  33.589  36.046  14.370
27674W        W88985  19.687  32.099   4.768
27675W        W88986  20.054  41.791   3.242
27676W        W88987   0.792  35.959   0.940
27677W        W88988  32.500   2.869  11.965
27678W        W88989  17.636   1.343   1.344
27679W        W88990  25.015  38.922   2.268
27680W        W88991   5.765  40.869   4.621
27681W        W88992  39.332  25.993  10.589
27682W        W88993  30.019  35.918  13.367
27683W        W88994   3.300  31.568  12.892
27684W        W88995  43.996  18.671  11.925
27685W        W88996  27.959  16.707   3.173
27686W        W88997  33.994  28.163  12.858
27687W        W88998  43.411  12.271  12.912
27688W        W88999  37.009   3.912  13.326
27689W        W89000  37.008  27.969  12.072
27690W        W89001  34.552  42.331   4.288
27691W        W89002  26.648  35.472  14.492
27692W        W89003  17.088  16.244   4.298
27693W        W89004   8.217  32.606  13.955
27694W        W89005  17.089  31.922   4.769
27695W        W89006  17.237  33.951  10.426
27696W        W89007  32.984  29.497  10.572
27697W        W89008  43.350   4.357   4.785
27698W        W89009  29.652  34.445   0.782
27699W        W89010  31.634   1.953  10.448
27700W        W89011  39.347  44.809  10.631
27701W        W89012  34.443   6.774   4.691
27702W        W89013   7.788  20.135  10.413
27703W        W89014  40.455  27.660  13.437
27704W        W89015   5.210  42.345   1.328
27705W        W89016  13.661  32.058   4.202
27706W        W89017   7.181  26.161   0.275
27707W        W89018   3.866  10.358   2.179
27708W        W89019  38.836  44.933  11.446
27709W        W89020   8.296  32.405  11.908
27710W        W89021  22.580  42.446  11.043
27711W        W89022  30.415  32.503   4.231
27712W        W89023  12.796   5.886   2.818
27713W        W89024  29.980   7.834  13.519
27714W        W89025  42.028   1.915   1.282
27715W        W89026  34.515  34.473  12.886
27716W        W89027  12.724  32.637   2.276
27717W        W89028  39.548  26.679   3.321
27718W        W89029  11.704  42.452   1.789
27719W        W89030  31.573  43.884  11.874
27720W        W89031  31.545  12.154   3.255
27721W        W89032   4.406  12.274   0.302
27722W        W89033  34.386   8.665  12.366
27723W        W89034  10.349  30.507  10.553
27724W        W89035  14.305   4.413   1.244
27725W        W89036  31.552  38.836  14.919
27726W        W89037  44.000  41.323  14.459
27727W        W89038   7.899  26.126   0.318
27728W        W89039  36.032  26.673   0.314
27729W        W89040   4.279   6.187  14.295
27730W        W89041  42.976  17.159   0.420
27731W        W89042  12.726  20.651   1.224
27732W        W89043  26.497   6.313   0.351
27733W        W89044  33.413  25.587   9.999
27734W        W89045   4.741   3.361  10.404
27735W        W89046   6.285  39.899   1.761
27736W        W89047  17.213  21.239   4.741
27737W        W89048  10.837  32.519  13.937
27738W        W89049  33.568  37.420  12.477
27739W        W89050  28.098  38.869  14.321
27740W        W89051   4.410   1.291  14.866
27741W        W89052  43.425  32.406  11.100
27742W        W89053  20.172  30.470  11.947
27743W        W89054  32.955  23.602   3.287
27744W        W89055   7.746  25.586  10.607
27745W        W89056   2.726  30.597   0.789
27746W        W89057  21.070  34.028  14.335
27747W        W89058   2.775  20.629   1.697
27748W        W89059  37.348  21.162   1.377
27749W        W89060   6.358  25.196   0.383
27750W        W89061  41.952  22.210  13.791
27751W        W89062  20.174  27.672   0.468
27752W        W89063  40.529   3.419  14.822
27753W        W89064  18.783  34.403  12.511
27754W        W89065   4.724  20.633   3.738
27755W        W89066  17.696  29.526  13.019
27756W        W89067  28.625  17.242  14.992
27757W        W89068   5.793  34.435   1.303
27758W        W89069  42.502  38.867  11.440
27759W        W89070  27.679  32.510  13.476
27760W        W89071  39.817  36.519   2.249
27761W        W89072  16.283   7.248   9.476
27762W        W89073  23.166  40.850   1.399
27763W        W89074  21.124  17.704  14.448
27764W        W89075  44.350  31.951   1.236
27765W        W89076  28.054  24.090   4.829
27766W        W89077  40.433  38.411   0.755
27767W        W89078  35.029  21.235   1.284
27768W        W89079  20.148   6.688  10.954
27769W        W89080  34.548   9.256   2.706
27770W        W89081  14.171  21.135  13.483
27771W        W89082  43.802  15.196   1.725
27772W        W89083  14.634  25.697   3.840
27773W        W89084  14.183  11.210  12.535
27774W        W89085  17.732  16.649  13.395
27775W        W89086  14.619  34.432  13.846
27776W        W89087  23.548   3.251  11.119
27777W        W89088  11.702   5.862  11.389
27778W        W89089  19.215  36.897  13.966
27779W        W89090  19.271   6.338   2.793
27780W        W89091  23.062  34.455  12.396
27781W        W89092  15.624  44.272   1.408
27782W        W89093  24.224   0.334  10.554
27783W        W89094  15.291  37.339  13.508
27784W        W89095  43.342  37.071  12.943
27785W        W89096   5.332  20.686   4.258
27786W        W89097  27.477  38.071   4.288
27787W        W89098  27.567  33.556   0.844
27788W        W89099   6.907  19.112  14.905
27789W        W89100   6.880  25.112   2.340
27790W        W89101  40.354  39.437  14.800
27791W        W89102  13.268  28.993   0.248
27792W        W89103  43.487  33.518  11.596
27793W        W89104  29.584  23.573   0.919
27794W        W89105  23.681  26.583  10.988
27795W        W89106  10.278  10.734   0.964
27796W        W89107  29.088  12.792   1.447
27797W        W89108   4.263  17.164   2.715
27798W        W89109  32.391  23.668   0.426
27799W        W89110  19.675  14.784   1.355
27800W        W89111  15.665  23.656   3.233
27801W        W89112  28.663   7.207  13.476
27802W        W89113  41.020  20.565  12.576
27803W        W89114  12.276  39.019   3.758
27804W        W89115  29.025  36.886  10.563
27805W        W89116  33.087  15.607  10.457
27806W        W89117  38.980  20.052  13.510
27807W        W89118   8.748  17.573   5.109
27808W        W89119  30.613  18.137   0.386
27809W        W89120  39.927  10.653   0.333
27810W        W89121  39.441  21.091  11.955
27811W        W89122  16.155  16.183  13.496
27812W        W89123   0.859  41.495  12.346
27813W        W89124  20.729  41.861   0.750
27814W        W89125  29.000   5.921   1.802
27815W        W89126  31.561   2.440   2.397
27816W        W89127  11.813  33.419  11.892
27817W        W89128  32.582  12.740  12.058
27818W        W89129  17.744  39.906   2.897
27819W        W89130  43.770  23.148   4.750
27820W        W89131   9.150  18.561  14.888
27821W        W89132  11.671  42.914   4.660
27822W        W89133  28.671  20.078   3.205
27823W        W89134  41.509  31.455   0.943
27824W        W89135  38.943  33.434  10.145
27825W        W89136  12.725  34.909  12.095
27826W        W89137  15.662   2.956   2.680
27827W        W89138  38.454  35.874   0.734
27828W        W89139  40.509  40.804  11.872
27829W        W89140   1.938  15.766   4.825
27830W        W89141  10.752  31.917  13.833
27831W        W89142  23.178   8.718  12.511
27832W        W89143  28.635  24.592  11.975
27833W        W89144  33.895  12.830   3.843
27834W        W89145  14.136  43.813  11.112
27835W        W89146  35.971   3.382   3.238
27836W        W89147  27.010  27.942  12.005
27837W        W89148  23.175  23.233   2.219
27838W        W89149  32.054  32.932   3.660
27839W        W89150  17.755  36.909  13.889
27840W        W89151  25.218  33.011  14.306
27841W        W89152   6.910  34.370  14.439
27842W        W89153  23.226   9.681  11.389
27843W        W89154  28.939   6.845  11.855
27844W        W89155  32.021  25.033  14.799
27845W        W89156  44.783  43.476  11.581
27846W        W89157  17.664  26.505   3.284
27847W        W89158  35.969  39.017   0.306
27848W        W89159  33.092  13.133  12.347
27849W        W89160  37.890  21.709  12.823
27850W        W89161  24.644   4.280   1.910
27851W        W89162   3.385   5.928  13.407
27852W        W89163   5.362  14.626  14.972
27853W        W89164   4.271  18.554   1.213
27854W        W89165  16.769  31.148   2.892
27855W        W89166  11.645  40.539   4.169
27856W        W89167  21.106   5.888   3.631
27857W        W89168  32.449  33.960  11.456
27858W        W89169  29.591  29.118  14.405
27859W        W89170  12.117  10.351   1.745
27860W        W89171  35.556  17.737  11.519
27861W        W89172   9.261  11.281  14.912
27862W        W89173  42.946  22.073  14.427
27863W        W89174  34.483  43.511  11.979
27864W        W89175  41.385  15.166  11.895
27865W        W89176  23.620  41.871   4.118
27866W        W89177  32.091  34.009   0.800
27867W        W89178  39.912   0.398   1.298
27868W        W89179  13.700  14.774  11.920
27869W        W89180  20.666  34.120  11.965
27870W        W89181  41.478  25.685   0.309
27871W        W89182  30.921  18.166  11.537
27872W        W89183  25.631  39.849   0.952
27873W        W89184  34.878   6.326  11.528
27874W        W89185  39.451   5.206   3.267
27875W        W89186  38.910  37.497   2.814
27876W        W89187  42.451  17.068  11.873
27877W        W89188  12.737  32.105   5.104
27878W        W89189  11.711  24.524  11.874
27879W        W89190  30.057  20.741   2.385
27880W        W89191   5.292  26.047  13.811
27881W        W89192  18.733  10.696   0.739
27882W        W89193   6.272  13.236  11.476
27883W        W89194  35.382  23.616   3.770
27884W        W89195   1.909  10.723   4.780
27885W        W89196  16.086  28.930   3.841
27886W        W89197   6.877  26.975   3.717
27887W        W89198  29.157  36.960   3.759
27888W        W89199  32.541  11.631  12.423
27889W        W89200  37.051  16.210   0.926
27890W        W89201   8.699  33.072  14.983
27891W        W89202  30.943   5.727   0.938
27892W        W89203   3.832  15.740  10.030
27893W        W89204  37.452  39.990  13.496
27894W        W89205  19.606   1.905   4.159
27895W        W89206  42.512   7.284   1.214
27896W        W89207  15.329  16.240  12.034
27897W        W89208  25.491  11.867   3.197
27898W        W89209  42.280  17.116   3.205
27899W        W89210  38.534  20.531   0.242
27900W        W89211  32.445  12.197   4.739
27901W        W89212  28.491  28.132   2.385
27902W        W89213  16.615  41.516  11.978
27903W        W89214   9.194  32.581  12.850
27904W        W89215   2.886  34.614   1.363
27905W        W89216  24.050  43.351  14.903
27906W        W89217  29.454  31.512  14.407
27907W        W89218   7.823  18.108   2.396
27908W        W89219  41.455  27.057   3.685
27909W        W89220  23.626  28.047   5.158
27910W        W89221  40.404  44.489   2.805
27911W        W89222  22.582  12.665  12.845
27912W        W89223  41.344   8.740  10.984
27913W        W89224  29.666  14.759  10.632
27914W        W89225  37.336  10.713  12.514
27915W        W89226   0.934  15.819  10.928
27916W        W89227  35.853   7.814  13.494
27917W        W89228  15.170  10.368  12.985
27918W        W89229  21.650  16.754   0.804
27919W        W89230   6.370  19.681   1.812
27920W        W89231  19.543  23.036  13.799
27921W        W89232  37.984   1.380   1.436
27922W        W89233  25.703  11.782  10.604
27923W        W89234  23.609  10.741   0.905
27924W        W89235  30.078   7.321  11.420
27925W        W89236  26.124  11.711   0.912
27926W        W89237  36.992  42.777   5.788
27927W        W89238  17.574  10.666  12.927
27928W        W89239  14.630   8.867  14.326
27929W        W89240  19.587  42.903   0.932
27930W        W89241  30.653  23.064  11.604
27931W        W89242   9.377  17.148  11.006
27932W        W89243  41.461  43.438   0.276
27933W        W89244  26.504  13.756  12.965
27934W        W89245  21.723  27.970  14.774
27935W        W89246  36.862  37.023  12.397
27936W        W89247  23.160   7.400  13.930
27937W        W89248  25.096  25.164   2.257
27938W        W89249  27.464  14.652   0.748
27939W        W89250  10.650   6.236  10.618
27940W        W89251  39.976  29.427  10.965
27941W        W89252  35.427  43.796   1.735
27942W        W89253   8.322  27.674   4.796
27943W        W89254  26.670   4.846   0.733
27944W        W89255  28.162  42.330   2.258
27945W        W89256  32.396  35.894  10.570
27946W        W89257   3.858  40.927   4.318
27947W        W89258  17.231  15.635  12.567
27948W        W89259  40.305  28.137  10.973
27949W        W89260  22.029  17.305  10.542
27950W        W89261   3.947  18.056   3.727
27951W        W89262  43.882   0.378   3.830
27952W        W89263  15.594   3.260  14.317
27953W        W89264  29.438  21.258   4.312
27954W        W89265  23.989  17.558  14.516
27955W        W89266  19.637   0.348   4.720
27956W        W89267   3.768  23.224  13.360
27957W        W89268  32.923   2.959  13.445
27958W        W89269   0.771  35.853  10.433
27959W        W89270   0.276  17.152   0.447
27960W        W89271  22.091  38.865   2.667
27961W        W89272  34.950  41.874   1.441
27962W        W89273  21.753   5.271   0.462
27963W        W89274  19.232   0.953  10.474
27964W        W89275  25.601   5.307   4.721
27965W        W89276  10.143  25.170   4.263
27966W        W89277  25.530  33.129  12.451
27967W        W89278  23.735  29.016   3.162
27968W        W89279  16.667  29.992   1.920
27969W        W89280  29.570   1.833  12.086
27970W        W89281  24.524  33.512   4.183
27971W        W89282  12.233  30.479  10.984
27972W        W89283  24.063  40.799   4.643
27973W        W89284  36.374   5.735   3.693
27974W        W89285   0.428  44.330   3.366
27975W        W89286   6.679  31.089   0.872
27976W        W89287  22.104   7.818  11.858
27977W        W89288   3.817  29.949   4.724
27978W        W89289  41.001   6.803  13.854
27979W        W89290  14.306   0.871   4.622
27980W        W89291  13.734  24.049  14.943
27981W        W89292  25.033  20.237   3.646
27982W        W89293  14.789  27.082  11.879
27983W        W89294  33.964  35.449   1.890
27984W        W89295  13.305  37.858  13.393
27985W        W89296  37.087  37.533  13.022
27986W        W89297  22.693  17.775   3.849
27987W        W89298  30.545   0.768  10.893
27988W        W89299   7.912  12.659  14.294
27989W        W89300  15.086  11.217   1.279
27990W        W89301  43.772   5.232   1.931
27991W        W89302  30.597   5.264   2.365
27992W        W89303   1.889  34.034  12.448
27993W        W89304  12.350   5.712   1.778
27994W        W89305  14.334  41.492  12.899
27995W        W89306  21.256   6.726   3.668
27996W        W89307  18.756  40.541   0.335
27997W        W89308  25.647  30.496  13.025
27998W        W89309  18.778   2.956   3.741
27999W        W89310  20.536  29.946  14.979
28000W        W89311  11.766  37.013   1.421
28001W        W89312  14.674   8.377   4.350
28002W        W89313   6.388   3.803   1.238
28003W        W89314  37.453  29.169   0.759
28004W        W89315  17.681  28.997  12.530
28005W        W89316  14.227  23.075   5.769
28006W        W89317  15.651  19.634   1.855
28007W        W89318  16.785  11.789   2.387
28008W        W89319   7.176  35.563   1.439
28009W        W89320  41.980   0.974   1.210
28010W        W89321  30.088  23.081   1.742
28011W        W89322  30.112  19.715   4.748
28012W        W89323  36.468   2.462  14.970
28013W        W89324   9.236  14.198   1.214
28014W        W89325   3.894   0.883  13.438
28015W        W89326   5.869   2.760  14.384
28016W        W89327  34.427  43.799   4.323
28017W        W89328  39.840  17.715   1.736
28018W        W89329  27.579  42.500  13.956
28019W        W89330  25.014  13.181   4.157
28020W        W89331  25.122   0.902  11.545
28021W        W89332  20.722   2.334  12.089
28022W        W89333  33.904  41.409  13.497
28023W        W89334  32.933  20.690  10.924
28024W        W89335  33.043  26.202  11.107
28025W        W89336   4.719  44.837   1.702
28026W        W89337  36.446  19.653   1.711
28027W        W89338  25.562  20.225   2.405
28028W        W89339  17.085   1.785  14.350
28029W        W89340  17.227  39.530  12.065
28030W        W89341  42.463   0.984   2.716
28031W        W89342   4.926   9.311   2.782
28032W        W89343   8.245  16.700   2.195
28033W        W89344  24.142  11.318  14.878
28034W        W89345  29.608   0.386   2.752
28035W        W89346  15.645  26.516  11.583
28036W        W89347   2.868  24.673  13.837
28037W        W89348   5.832  17.166  12.902
28038W        W89349   7.764  17.795   2.690
28039W        W89350  36.489  15.271  13.437
28040W        W89351   9.713  11.732   1.402
28041W        W89352  43.321   7.716   3.708
28042W        W89353   9.648  34.995   4.161
28043W        W89354   5.429  40.413   2.850
28044W        W89355  44.755  43.453   0.768
28045W        W89356  20.126   6.198  10.610
28046W        W89357  13.308   5.211  14.321
28047W        W89358  33.581   8.667  12.916
28048W        W89359  19.231  23.096  12.573
28049W        W89360  38.473  33.552   1.728
28050W        W89361  40.371  23.723  10.925
28051W        W89362  37.942  13.188   2.667
28052W        W89363  10.834  19.279   2.662
28053W        W89364  23.012  40.545  10.995
28054W        W89365  41.315  22.714   1.896
28055W        W89366  38.549  20.210   0.883
28056W        W89367  22.016  36.991  11.080
28057W        W89368   0.263  32.995  10.450
28058W        W89369  40.924   5.787   2.336
28059W        W89370  24.191  21.142  10.080
28060W        W89371  34.510  16.082  10.458
28061W        W89372  15.327  14.637  13.825
28062W        W89373  27.190  17.238  10.611
28063W        W89374  30.469  14.718   2.186
28064W        W89375  13.626  36.043  13.918
28065W        W89376   1.277  25.617  14.486
28066W        W89377  30.138   0.430  13.371
28067W        W89378  25.090  10.639   0.448
28068W        W89379   8.353  21.139   1.391
28069W        W89380   0.872   9.168   2.297
28070W        W89381  29.550   4.272  11.596
28071W        W89382   2.246  11.725   3.263
28072W        W89383  32.001  42.948  11.532
28073W        W89384  41.806   3.268   4.627
28074W        W89385  42.840  38.857   3.759
28075W        W89386   8.845  37.488  10.425
28076W        W89387  37.403   9.354  13.983
28077W        W89388  10.676  10.171  10.987
28078W        W89389  36.991  43.011   3.202
28079W        W89390   3.802  12.613  11.937
28080W        W89391  44.470   2.861  10.471
28081W        W89392  31.912  28.507  14.462
28082W        W89393  35.092  35.038   0.250
28083W        W89394  18.160  27.967   2.841
28084W        W89395  10.266  12.667  12.346
28085W        W89396   1.783  37.050  14.908
28086W        W89397   3.330  32.971  10.471
28087W        W89398   6.685  11.783   0.793
28088W        W89399  19.651  13.783   1.900
28089W        W89400   1.743  40.454   3.742
28090W        W89401  11.741  32.122   2.696
28091W        W89402  43.471  25.095  12.910
28092W        W89403  44.283  16.237  13.920
28093W        W89404  36.059  41.985  11.012
28094W        W89405  14.288  36.868   3.704
28095W        W89406  32.534  14.170   0.925
28096W        W89407  38.004  41.317   5.180
28097W        W89408  19.253  36.553  12.394
28098W        W89409  28.649  11.182  11.070
28099W        W89410  19.249  24.564   3.145
28100W        W89411  35.484  34.528  12.393
28101W        W89412  43.465  14.612  13.452
28102W        W89413  11.261  11.679  13.857
28103W        W89414  12.311  13.270  10.440
28104W        W89415  15.218  12.779  12.476
28105W        W89416  37.882  37.458   1.922
28106W        W89417  41.452  11.204   4.282
28107W        W89418   5.307  44.284   0.774
28108W        W89419   8.784  18.131  12.828
28109W        W89420   6.314   0.248  14.508
28110W        W89421  43.464  35.384  11.454
28111W        W89422  15.623  43.899   1.299
28112W        W89423  33.094  38.545   4.343
28113W        W89424  28.662  17.625  10.985
28114W        W89425  17.234  14.821  12.456
28115W        W89426  38.478  29.139  11.990
28116W        W89427  43.886  10.183   3.693
28117W        W89428   8.401  32.068   0.483
28118W        W89429   7.216  28.178   0.846
28119W        W89430  25.520   1.269  14.337
28120W        W89431  40.327  27.192  13.424
28121W        W89432  23.230  29.144   0.809
28122W        W89433  36.514   8.860   2.782
28123W        W89434  38.882  37.894  14.964
28124W        W89435  11.682  11.280   1.882
28125W        W89436  13.302   0.904   4.744
28126W        W89437   0.250  36.098  13.917
28127W        W89438  36.984  41.532  11.916
28128W        W89439  18.166  20.720  10.509
28129W        W89440  20.613  28.931   0.897
28130W        W89441  36.048  18.789   0.809
28131W        W89442  14.683  18.082   5.319
28132W        W89443  26.652  26.497  12.914
28133W        W89444  22.247  10.850   4.782
28134W        W89445  10.824  29.610   4.129
28135W        W89446   8.173  32.609  11.487
28136W        W89447  44.283   9.362  12.882
28137W        W89448   2.463  37.002   1.744
28138W        W89449  14.721  29.034  11.387
28139W        W89450  15.798  37.504   9.934
28140W        W89451  38.916  30.479   3.812
28141W        W89452  24.577  34.388   1.284
28142W        W89453   9.797  37.402  13.946
28143W        W89454  30.599   4.769  11.043
28144W        W89455   5.220  43.908   0.476
28145W        W89456   2.226   9.686   0.752
28146W        W89457  44.261  37.937   1.866
28147W        W89458  27.097   9.300   0.951
28148W        W89459  26.503   0.919  12.415
28149W        W89460  42.474  11.867   4.327
28150W        W89461  24.222  44.371  10.901
28151W        W89462  36.556  19.737   3.309
28152W        W89463   0.751   1.937  12.577
28153W        W89464  16.234  23.183  14.513
28154W        W89465  23.556  21.698  11.570
28155W        W89466  34.111  30.947  10.060
28156W        W89467  44.933  22.064  13.533
28157W        W89468   8.165   1.316   2.375
28158W        W89469  23.031   6.793  13.042
28159W        W89470   4.281  18.240   4.599
28160W        W89471   0.964  22.561  13.322
28161W        W89472  19.075  28.034  12.911
28162W        W89473  10.173  17.571   1.401
28163W        W89474  29.918  24.591  12.569
28164W        W89475  40.859   3.951  10.426
28165W        W89476  39.928  26.124   1.901
28166W        W89477  22.684   7.744  11.532
28167W        W89478  16.717  26.583   1.279
28168W        W89479   7.247  13.125  11.522
28169W        W89480  34.389  38.037   1.415
28170W        W89481  11.267   8.393  13.414
28171W        W89482   9.677  29.482  12.489
28172W        W89483  43.342  44.459   2.887
28173W        W89484  43.811  31.415   3.848
28174W        W89485  17.779  15.132   5.284
28175W        W89486   8.369  24.614   0.847
28176W        W89487   7.748  12.128  11.604
28177W        W89488  17.686   5.379   3.266
28178W        W89489   9.759  21.242  12.070
28179W        W89490  20.663  19.617  14.515
28180W        W89491   8.783  43.319   4.719
28181W        W89492   3.906  10.697  12.015
28182W        W89493  10.864  29.566  13.957
28183W        W89494   8.249  31.577   4.351
28184W        W89495  25.117  20.619  12.424
28185W        W89496  13.630  15.667  11.471
28186W        W89497  44.889  16.118   3.770
28187W        W89498  24.512   7.716  13.054
28188W        W89499  27.616  38.991   0.332
28189W        W89500  35.854  37.525  10.513
28190W        W89501  37.544  24.175  11.035
28191W        W89502  20.709  37.857   1.348
28192W        W89503  41.987  34.933  12.526
28193W        W89504   9.250  42.458  12.912
28194W        W89505  41.459  23.108   3.756
28195W        W89506   9.744  24.202  12.028
28196W        W89507   7.368  34.522   3.263
28197W        W89508  24.607   8.369   2.413
28198W        W89509  25.548  27.960   3.299
28199W        W89510   1.344  39.808  12.850
28200W        W89511  35.451  37.420   4.698
28201W        W89512  30.136  41.957  13.326
28202W        W89513   2.344  22.035   3.356
28203W        W89514  23.202  16.632   1.239
28204W        W89515   6.371  17.247   2.299
28205W        W89516   6.757  41.293  13.955
28206W        W89517  20.663  26.134  12.980
28207W        W89518   4.425  20.598   4.660
28208W        W89519  21.555  43.819  14.985
28209W        W89520  13.795   8.203   1.911
28210W        W89521  41.924  21.125   2.312
28211W        W89522  23.099  16.588  11.085
28212W        W89523   4.293  40.438   1.900
28213W        W89524   3.447  39.320   0.915
28214W        W89525  14.691   2.281   0.300
28215W        W89526   9.734  38.910   4.156
28216W        W89527  41.433  11.818  11.467
28217W        W89528  25.640  29.012  13.828
28218W        W89529  44.822  34.479  10.545
28219W        W89530   3.356   9.387  14.438
28220W        W89531   8.376  26.679  11.128
28221W        W89532  38.519  13.211   0.838
28222W        W89533  17.582  40.011   4.708
28223W        W89534  36.891   8.807  14.981
28224W        W89535  25.075  23.626  10.418
28225W        W89536  39.411  18.220  11.602
28226W        W89537  11.197  36.448   3.339
28227W        W89538  36.892   0.793   0.834
28228W        W89539   7.350   1.762  13.442
28229W        W89540   6.328  25.646   0.287
28230W        W89541   8.867  39.424  14.982
28231W        W89542  40.874  34.549  13.368
28232W        W89543  32.575  12.840  13.341
28233W        W89544  36.501  24.574  14.508
28234W        W89545   4.212   2.376  13.827
28235W        W89546   8.794  32.449  11.387
28236W        W89547  31.418   2.405   4.692
28237W        W89548  31.899  37.868   4.279
28238W        W89549  35.065  27.145  12.404
28239W        W89550  13.231   1.845  12.354
28240W        W89551   2.780   0.251   0.915
28241W        W89552  36.893  36.541  14.009
28242W        W89553  17.152   7.906  12.368
28243W        W89554  16.614  27.113   0.334
28244W        W89555  35.407  23.180   2.837
28245W        W89556  40.493  44.391  11.961
28246W        W89557  10.343  30.066   2.856
28247W        W89558  22.160  40.957   0.254
28248W        W89559  36.583  13.740  10.591
28249W        W89560  38.950   1.396  11.966
28250W        W89561  34.577  15.816  14.313
28251W        W89562   6.360  17.725   5.265
28252W        W89563  28.103  16.753  12.076
28253W        W89564   6.734  30.131   3.208
28254W        W89565  36.001   3.391   0.762
28255W        W89566  44.435   9.729   1.311
28256W        W89567  35.045  19.683  11.572
28257W        W89568  11.210  26.979   2.820
28258W        W89569  23.572   3.270   2.701
28259W        W89570   5.267  41.915   0.868
28260W        W89571  21.567  32.941  14.912
28261W        W89572  40.963  40.311  13.998
28262W        W89573  25.051  37.071  12.426
28263W        W89574  29.055  20.046  10.421
28264W        W89575  35.582   4.239  14.440
28265W        W89576  22.659  22.026  12.514
28266W        W89577   1.934  18.241  12.956
28267W        W89578  29.994   3.217  12.088
28268W        W89579   7.735  29.925  11.459
28269W        W89580  25.672  22.647   2.809
28270W        W89581   3.934   1.731  10.007
28271W        W89582  20.555  26.663   1.810
28272W        W89583   4.287  26.548  13.340
28273W        W89584  42.433  36.980  12.926
28274W        W89585  33.103  43.272   0.777
28275W        W89586   3.817  16.771  13.858
28276W        W89587  18.724  11.624   0.354
28277W        W89588   3.369   2.906  13.534
28278W        W89589  17.157  15.108  11.973
28279W        W89590  23.620  24.186  13.379
28280W        W89591  32.107  15.677   5.276
28281W        W89592   4.795  31.016   0.460
28282W        W89593   4.348  16.664  14.879
28283W        W89594  26.023  30.142   3.225
28284W        W89595  11.725  40.830  14.842
28285W        W89596  22.053  29.015  10.087
28286W        W89597  39.431  13.267   1.744
28287W        W89598  41.868   7.276   3.664
28288W        W89599   4.421  13.724  14.396
28289W        W89600  24.576   3.407  12.408
28290W        W89601  31.446  23.141   2.895
28291W        W89602  14.300   4.727   0.907
28292W        W89603   6.909  44.345   4.822
28293W        W89604  31.554  37.345  10.946
28294W        W89605  23.559  15.267   2.205
28295W        W89606  37.457  37.562  14.970
28296W        W89607  33.473  36.573  12.007
28297W        W89608   9.295   9.653  10.485
28298W        W89609  23.592  43.440  14.450
28299W        W89610  15.729  18.212  13.841
28300W        W89611  16.302   3.815  13.460
28301W        W89612  13.654   0.757  11.859
28302W        W89613   7.910  31.459   4.802
28303W        W89614  14.665  26.520   2.664
28304W        W89615  37.517   9.741  14.923
28305W        W89616  44.795  13.826   3.154
28306W        W89617  39.552   2.790   0.806
28307W        W89618  34.599  24.007   1.865
28308W        W89619  22.145  40.343  14.361
28309W        W89620  11.328   2.945   0.253
28310W        W89621  32.950  21.553  12.033
28311W        W89622  21.091   8.848  10.006
28312W        W89623  30.064  14.253  12.823
28313W        W89624  12.649   5.294  12.908
28314W        W89625   9.349  13.180  14.793
28315W        W89626  40.800  27.531   4.300
28316W        W89627  19.656  13.135  12.435
28317W        W89628  43.424  29.033   5.137
28318W        W89629  32.505  30.653   4.318
28319W        W89630  23.195  37.898  11.973
28320W        W89631   7.706   9.694  12.076
28321W        W89632  10.300  28.956   4.776
28322W        W89633  20.748   9.189  13.912
28323W        W89634   1.461   1.815  13.924
28324W        W89635  43.359  15.722  11.045
28325W        W89636  16.175   4.242   0.931
28326W        W89637  28.576  23.679   0.439
28327W        W89638  35.525  10.150   0.946
28328W        W89639  35.045  18.095   4.146
28329W        W89640  20.148  44.490   3.824
28330W        W89641  23.005  35.364   1.891
28331W        W89642  26.175   5.765  13.988
28332W        W89643  25.154   1.937  11.457
28333W        W89644  36.953  32.465   4.352
28334W        W89645   4.725  25.119  12.962
28335W        W89646  10.317  11.837   0.249
28336W        W89647  18.150  15.822   2.376
28337W        W89648  41.866  21.261   0.828
28338W        W89649  29.939   2.427   2.735
28339W        W89650  24.105   6.352  13.968
28340W        W89651  38.071  44.273  10.099
28341W        W89652  19.159  17.222  11.569
28342W        W89653  41.374  35.511  13.495
28343W        W89654   5.931  19.644   4.599
28344W        W89655  37.579  21.157   4.307
28345W        W89656  21.550  29.174   4.806
28346W        W89657   6.767  23.077   0.745
28347W        W89658  28.948  25.206   1.721
28348W        W89659  44.460  32.140  12.923
28349W        W89660  10.691  19.637   2.392
28350W        W89661  37.834  41.914   5.123
28351W        W89662  44.800  28.581  10.937
28352W        W89663  33.525  36.914   3.315
28353W        W89664  44.909  17.264  11.374
28354W        W89665  37.966  19.057  14.951
28355W        W89666  37.889  27.586   2.202
28356W        W89667  22.595  27.031   4.632
28357W        W89668  25.048   7.674   0.446
28358W        W89669   1.956  12.814  12.892
28359W        W89670  25.628  13.719  13.540
28360W        W89671  34.908  21.543  13.805
28361W        W89672  25.639  23.539  13.476
28362W        W89673  19.737  19.706  11.584
28363W        W89674  31.994  15.633  12.379
28364W        W89675  11.717  23.024  12.354
28365W        W89676   0.922  39.486   1.802
28366W        W89677  40.991  32.132  12.490
28367W        W89678  38.456  18.257   0.885
28368W        W89679   0.291  18.605  10.503
28369W        W89680  33.016   0.276  11.920
28370W        W89681  37.437  36.378   2.732
28371W        W89682   2.892  35.382   1.893
28372W        W89683  18.556  17.163   1.307
28373W        W89684  35.919  39.827   2.367
28374W        W89685  26.617  18.275  13.925
28375W        W89686   8.231  37.832   4.279
28376W        W89687  42.977  16.099   3.301
28377W        W89688  35.020  23.502   5.109
28378W        W89689  23.522   2.866   4.292
28379W        W89690   1.280  33.438   1.822
28380W        W89691  40.828  39.409  13.792
28381W        W89692  29.527  38.835   0.337
28382W        W89693   0.480  43.503  12.938
28383W        W89694   6.703  15.782   2.407
28384W        W89695  35.983  18.773   2.308
28385W        W89696  28.615  28.512   1.739
28386W        W89697   3.297  27.560  13.817
28387W        W89698  25.006  13.291   2.783
28388W        W89699  14.321  40.999  13.380
28389W        W89700   9.331  23.659  12.481
28390W        W89701  21.723  23.699   2.678
28391W        W89702  10.695  37.016  13.829
28392W        W89703  35.575  39.377   1.360
28393W        W89704   5.249  20.203  14.883
28394W        W89705   6.361  28.006   5.185
28395W        W89706  34.502  42.484   2.878
28396W        W89707   5.799  14.737  11.961
28397W        W89708  33.926  14.109   3.864
28398W        W89709  20.086  41.786  14.815
28399W        W89710  32.552  42.330   2.857
28400W        W89711  29.465  18.203  12.897
28401W        W89712  16.124   9.654  14.373
28402W        W89713  40.014   5.776   1.882
28403W        W89714  29.489  17.613  14.985
28404W        W89715  26.666  19.672  11.467
28405W        W89716  34.441  27.126  10.414
28406W        W89717   7.177  14.133  11.937
28407W        W89718  32.003  43.796   1.437
28408W        W89719  36.514  41.823  10.028
28409W        W89720  23.084  38.389  10.925
28410W        W89721  40.960  38.480  13.047
28411W        W89722  33.980   5.868  14.833
28412W        W89723   8.186  28.583  12.009
28413W        W89724  25.489  35.507   2.900
28414W        W89725  12.228   3.742   0.297
28415W        W89726   1.871  27.513   2.863
28416W        W89727  29.625  38.905   1.722
28417W        W89728  13.142   0.305  11.529
28418W        W89729   4.784  42.525  14.359
28419W        W89730  16.645  37.850   0.462
28420W        W89731  42.408   8.717   1.812
28421W        W89732  31.447  36.551  11.531
28422W        W89733  14.711   2.826   4.718
28423W        W89734  16.264  11.740  10.616
28424W        W89735   7.211  13.697  13.828
28425W        W89736  27.945  32.128  14.824
28426W        W89737  20.656  32.139   2.825
28427W        W89738   4.841  19.079  12.577
28428W        W89739  17.697   9.783  14.783
28429W        W89740  19.110  23.573  14.322
28430W        W89741  30.117   2.819   2.355
28431W        W89742  25.024  36.927  10.554
28432W        W89743  28.187  23.138   4.735
28433W        W89744  39.409  14.238   1.715
28434W        W89745  40.510  21.261   0.827
28435W        W89746  15.214  18.233   0.301
28436W        W89747  32.535  19.105   3.336
28437W        W89748  41.041  14.618  13.534
28438W        W89749  14.334  22.019   0.440
28439W        W89750  43.295  19.050   2.819
28440W        W89751  39.516  29.940   0.277
28441W        W89752  16.768  25.656  12.942
28442W        W89753  27.177  18.754   4.326
28443W        W89754  18.274  14.665   2.302
28444W        W89755  11.348  26.072   2.341
28445W        W89756  14.331  31.639  10.627
28446W        W89757  41.816  27.501  12.020
28447W        W89758  34.092  27.044  14.919
28448W        W89759  33.548  42.829   3.649
28449W        W89760  17.766  39.013  11.032
28450W        W89761  43.384  19.598   2.328
28451W        W89762  27.566  37.976   4.691
28452W        W89763  23.070  11.822  10.566
28453W        W89764  25.579   1.765  14.963
28454W        W89765  19.769  10.726  12.050
28455W        W89766  26.125  25.059  11.945
28456W        W89767  34.485   5.272   1.883
28457W        W89768   0.480  18.205  12.351
28458W        W89769  14.193  28.030   1.259
28459W        W89770  32.525  30.604   1.916
28460W        W89771  39.424   4.835  14.454
28461W        W89772   0.926  34.974   1.776
28462W        W89773  34.863  25.650  12.043
28463W        W89774  11.240  26.177  13.477
28464W        W89775   4.927   4.922  13.828
28465W        W89776  19.207  10.323   1.888
28466W        W89777   6.308   0.328  13.963
28467W        W89778  22.592  22.173   3.211
28468W        W89779  32.497  21.143  10.435
28469W        W89780  24.011  15.228  12.984
28470W        W89781  44.858   5.881  13.435
28471W        W89782   6.347  17.599   2.406
28472W        W89783  29.523   0.449   2.184
28473W        W89784  13.156  21.063  13.410
28474W        W89785  42.856  43.310   2.712
28475W        W89786  14.649  31.117   4.313
28476W        W89787  39.379  34.950  11.376
28477W        W89788  20.745  15.208  11.128
28478W        W89789  26.533  19.605   0.382
28479W        W89790  27.162  42.458  10.944
28480W        W89791  25.543  29.076  12.574
28481W        W89792  21.119  34.570   3.194
28482W        W89793  17.199  39.521  13.890
28483W        W89794  41.491  30.917  13.865
28484W        W89795  22.076  28.052  12.559
28485W        W89796  10.232  29.012  11.037
28486W        W89797  13.651  30.572   0.333
28487W        W89798  15.794  18.220   2.392
28488W        W89799   3.426  21.214  14.014
28489W        W89800   4.861  15.717   3.194
28490W        W89801  31.920  33.085   1.349
28491W        W89802  16.774  24.692  11.389
28492W        W89803  39.921  37.486   4.735
28493W        W89804   6.723  32.480   3.755
28494W        W89805  16.082  14.790   1.899
28495W        W89806  14.156  16.762   1.812
28496W        W89807   0.775  37.339  10.547
28497W        W89808  27.034  18.561  11.890
28498W        W89809  20.539  43.302  13.906
28499W        W89810  10.678  21.580   4.799
28500W        W89811  42.456  25.070  14.842
28501W        W89812  34.869  44.972  14.814
28502W        W89813  22.520   1.804  13.870
28503W        W89814  22.210  36.875   3.742
28504W        W89815  40.800  41.394  11.032
28505W        W89816  36.945  22.203  12.550
28506W        W89817  35.559   5.710   0.360
28507W        W89818  37.483  25.708   4.244
28508W        W89819  22.541  41.292   2.694
28509W        W89820  19.708  23.984  10.455
28510W        W89821   5.692  43.401   0.732
28511W        W89822  35.431  39.354   2.821
28512W        W89823  24.616  44.754   2.179
28513W        W89824  16.802  44.297   2.214
28514W        W89825  19.084  31.593   4.833
28515W        W89826  14.333  22.606   1.249
28516W        W89827  15.685  25.546  14.471
28517W        W89828  26.203  13.233  13.407
28518W        W89829  18.264   3.864   4.147
28519W        W89830  42.023  33.471  13.538
28520W        W89831  34.106  15.624   1.911
28521W        W89832  21.226  11.355   3.301
28522W        W89833  13.237  43.912   0.839
28523W        W89834  32.981   1.393   4.605
28524W        W89835   1.382  15.303   1.340
28525W        W89836  13.324  31.053  13.053
28526W        W89837  25.539  29.129  12.870
28527W        W89838  26.494  25.562  11.982
28528W        W89839  29.659   1.275  14.021
28529W        W89840  36.441   4.409   2.317
28530W        W89841  39.349   8.748  12.360
28531W        W89842   0.296  21.673   1.391
28532W        W89843  37.338  10.814   0.348
28533W        W89844  41.409  21.576  10.441
28534W        W89845  12.684  37.581  12.967
28535W        W89846  23.701  30.022  14.318
28536W        W89847  36.421  35.044  11.532
28537W        W89848  14.623  27.649   4.789
28538W        W89849  11.768   4.772   3.242
28539W        W89850  40.885  39.943  13.939
28540W        W89851   6.298  44.975   1.267
28541W        W89852  40.371  32.115  14.452
28542W        W89853  26.159  29.638  10.964
28543W        W89854  19.650  38.984  14.490
28544W        W89855  14.130   4.385  13.472
28545W        W89856  29.650   3.823   5.178
28546W        W89857   5.432   8.273  14.899
28547W        W89858  34.105  39.464   1.245
28548W        W89859  25.110  42.984  12.061
28549W        W89860   9.355   3.432  11.456
28550W        W89861  15.680  41.801  14.804
28551W        W89862  33.881  29.986  14.390
28552W        W89863  43.290  14.659  10.456
28553W        W89864   1.852  37.379   4.132
28554W        W89865  36.970  42.933   2.786
28555W        W89866  42.402   0.274  14.765
28556W        W89867   4.813  28.180  12.443
28557W        W89868  27.603   0.954   3.651
28558W        W89869  43.447  24.655   2.200
28559W        W89870   9.727  15.668  11.047
28560W        W89871  22.687  11.129   1.442
28561W        W89872   3.753  36.590   3.822
28562W        W89873   2.258  13.723  13.828
28563W        W89874  44.492  32.482   1.450
28564W        W89875   1.874  12.675  12.467
28565W        W89876  31.609   3.253   0.933
28566W        W89877  31.405   0.879  14.833
28567W        W89878  37.376  43.439  12.061
28568W        W89879  31.004  10.265   4.131
28569W        W89880  15.109  19.733   2.360
28570W        W89881  23.585  36.562   1.346
28571W        W89882  36.863  41.407  10.908
28572W        W89883  26.131  34.030  12.973
28573W        W89884  39.968  36.357  14.836
28574W        W89885  43.015  36.370   2.900
28575W        W89886  13.658  16.771   2.271
28576W        W89887  30.646   9.314   2.819
28577W        W89888  18.561  32.461  12.959
28578W        W89889  21.744  42.500  11.029
28579W        W89890   3.813   8.866   3.708
28580W        W89891  11.194  22.239   2.817
28581W        W89892  29.587  40.017  14.332
28582W        W89893  31.592  40.491  11.431
28583W        W89894  38.033  42.312  12.363
28584W        W89895  27.565  17.651  12.919
28585W        W89896  13.607  34.087  11.973
28586W        W89897  31.448  41.309  11.964
28587W        W89898   1.935  12.319   4.234
28588W        W89899   8.166  43.938  11.930
28589W        W89900  21.594  43.788   4.831
28590W        W89901  11.243  22.166   3.814
28591W        W89902  15.185  41.506   1.352
28592W        W89903  39.033   9.178   3.303
28593W        W89904  16.623  33.502  12.013
28594W        W89905   3.789  29.050   3.201
28595W        W89906   0.360  18.241   2.378
28596W        W89907   7.703   1.973   2.663
28597W        W89908  34.066  31.576  10.472
28598W        W89909  40.920   6.288  12.416
28599W        W89910   0.430  43.388  13.416
28600W        W89911  35.934  34.905   3.801
28601W        W89912  17.245  40.545  12.845
28602W        W89913  22.009  20.592   1.302
28603W        W89914   8.273  26.463  11.902
28604W        W89915  42.381   9.290   2.697
28605W        W89916  37.539  17.283   3.742
28606W        W89917   9.230  36.853  12.990
28607W        W89918  38.445  40.858  11.476
28608W        W89919   1.846  33.470  10.893
28609W        W89920  27.154  17.627   3.225
28610W        W89921  16.166   1.754  14.275
28611W        W89922  34.882   1.470   4.232
28612W        W89923   4.283  12.711  14.983
28613W        W89924  34.088   6.834  13.514
28614W        W89925  11.308  39.462   1.912
28615W        W89926  41.996  25.538  10.955
28616W        W89927   4.890  22.013  11.582
28617W        W89928   4.905  36.849   2.726
28618W        W89929  18.076  41.936  14.973
28619W        W89930   1.299  16.718   2.418
28620W        W89931   8.680  26.964  11.889
28621W        W89932   9.796   2.953  11.392
28622W        W89933   1.365   1.861  14.894
28623W        W89934  34.386  14.159   1.825
28624W        W89935  39.045  24.198   3.768
28625W        W89936   8.765  41.385   4.724
28626W        W89937   0.956  39.398  10.548
28627W        W89938  33.071  41.497  12.381
28628W        W89939  10.854  38.356  13.833
28629W        W89940  39.422  38.526  14.336
28630W        W89941   2.456  39.986  11.513
28631W        W89942  32.600  23.158   4.634
28632W        W89943  39.874  31.442   0.252
28633W        W89944  14.589  40.921  11.935
28634W        W89945  36.917  19.104  14.997
28635W        W89946   9.717   9.836  12.430
28636W        W89947  15.669   5.377   4.726
28637W        W89948  18.079  22.516  13.982
28638W        W89949  27.096  32.600   2.897
28639W        W89950  22.025  13.288  13.862
28640W        W89951   2.736  40.513  12.398
28641W        W89952  16.179   9.878  13.812
28642W        W89953  19.562  30.992   0.825
28643W        W89954  19.048   3.265  11.937
28644W        W89955  15.276  15.184   2.298
28645W        W89956   1.357  23.240  14.780
28646W        W89957  26.961  14.712  11.474
28647W        W89958  26.105  38.505   4.269
28648W        W89959  18.069   5.416   2.182
28649W        W89960  15.128  21.042  11.942
28650W        W89961  43.856   2.344  10.981
28651W        W89962   6.735  42.003  12.567
28652W        W89963  39.450  17.259   0.308
28653W        W89964   8.762  28.175   3.368
28654W        W89965  20.533  21.718  10.898
28655W        W89966  30.462  34.489   2.273
28656W        W89967  15.660  27.942  12.015
28657W        W89968  34.545  37.435  10.105
28658W        W89969  43.492  33.990  10.639
28659W        W89970   1.865  26.680  12.833
28660W        W89971   1.767   4.285  12.542
28661W        W89972  35.060  40.820   0.427
28662W        W89973  29.120  36.533   4.760
28663W        W89974  33.555  20.053   0.379
28664W        W89975  14.132  24.095   1.216
28665W        W89976  24.983  40.486  14.301
28666W        W89977  32.046  15.711  14.874
28667W        W89978  25.700  28.075   4.210
28668W        W89979   7.323  28.628  11.893
28669W        W89980   3.845  12.679  13.321
28670W        W89981  36.897  18.726  11.445
28671W        W89982  17.284  27.650  10.026
28672W        W89983   9.267  36.074   3.167
28673W        W89984  14.316   2.895   5.244
28674W        W89985   4.372  17.293  10.914
28675W        W89986  16.295  44.339  10.896
28676W        W89987   1.870  43.319   0.838
28677W        W89988  19.200  21.141  14.997
28678W        W89989  35.036  40.387  13.383
28679W        W89990  20.260  28.949  10.073
28680W        W89991  26.021  24.025   0.382
28681W        W89992  34.409  42.491  13.347
28682W        W89993  18.100  36.088  10.444
28683W        W89994   2.776  32.030   1.894
28684W        W89995  30.971  34.925  13.462
28685W        W89996  12.236  13.838  14.310
28686W        W89997   4.343  43.905  13.387
28687W        W89998  10.298  13.272   0.455
28688W        W89999  26.145   0.946  10.576
28689W        W90000  17.591  36.957   3.204
28690W        W90001  10.232  44.835  14.434
28691W        W90002  30.046  33.985  12.455
28692W        W90003  30.964  11.640  14.872
28693W        W90004  40.370  43.021  11.988
28694W        W90005   3.278   6.418   3.146
28695W        W90006  10.783  15.229  13.866
28696W        W90007  21.247  37.444   3.680
28697W        W90008   8.758  19.208   4.161
28698W        W90009  31.549  44.909  14.418
28699W        W90010  18.568   7.272   2.255
28700W        W90011  36.396  14.245  11.557
28701W        W90012  24.633  21.750  10.588
28702W        W90013  15.127  35.873   3.648
28703W        W90014  19.659  26.617   4.256
28704W        W90015  27.522   1.252  13.872
28705W        W90016   6.760  32.526   1.771
28706W        W90017  44.489   2.872   5.085
28707W        W90018  35.020   0.930   1.733
28708W        W90019   3.936  21.227   0.726
28709W        W90020   2.871   0.365   2.683
28710W        W90021  33.073  21.072  11.412
28711W        W90022   1.858  16.232   0.480
28712W        W90023   9.343  41.386   2.272
28713W        W90024  30.141  23.596   0.824
28714W        W90025   2.792  12.643  11.024
28715W        W90026  33.906  42.878   5.157
28716W        W90027  36.397  10.809   0.843
28717W        W90028   9.167  33.947   1.394
28718W        W90029  38.046   0.392  10.918
28719W        W90030  29.082   2.799  11.535
28720W        W90031  21.263  12.745  11.951
28721W        W90032  33.456   6.921   3.819
28722W        W90033  34.039   1.375  14.494
28723W        W90034  24.066  41.003  14.511
28724W        W90035   8.168  42.416  11.480
28725W        W90036  33.033  25.528  14.380
28726W        W90037  23.723   8.785  10.446
28727W        W90038  29.621  30.581   2.766
28728W        W90039   1.754   0.922  12.475
28729W        W90040  40.546  43.974  13.390
28730W        W90041  25.972  20.162  12.421
28731W        W90042  43.939  17.700   0.933
28732W        W90043  13.705  21.667  11.596
28733W        W90044  40.912  34.108   0.785
28734W        W90045   0.935  21.187   2.271
28735W        W90046  27.128  23.722   1.842
28736W        W90047  38.954  32.001  11.970
28737W        W90048  20.535  39.387  14.947
28738W        W90049  11.149  37.562  13.802
28739W        W90050  27.065  18.770   3.818
28740W        W90051  35.019  29.472  10.933
28741W        W90052  39.434  14.751   0.935
28742W        W90053  10.692  27.612  10.912
28743W        W90054  18.699   7.379   9.934
28744W        W90055  27.019  10.791  11.016
28745W        W90056  41.807   5.816  13.054
28746W        W90057  25.694  34.096  14.012
28747W        W90058  21.130  30.046   0.919
28748W        W90059  43.436  32.067   2.861
28749W        W90060  44.877  42.431  13.801
28750W        W90061  12.640   9.841  12.852
28751W        W90062  18.741  23.068   1.346
28752W        W90063  31.574  26.489  12.991
28753W        W90064   8.707  21.258   4.224
28754W        W90065  37.556  29.512  12.402
28755W        W90066  41.845   8.664   0.736
28756W        W90067  23.634   4.367  10.975
28757W        W90068  23.209  24.006   2.322
28758W        W90069  13.652  39.484  13.903
28759W        W90070  36.387  14.168   4.667
28760W        W90071   4.897  36.389   0.839
28761W        W90072  35.930   3.849  12.014
28762W        W90073  42.399  15.736  13.024
28763W        W90074   2.948  21.628  13.801
28764W        W90075  19.565   5.833  10.603
28765W        W90076  40.307  39.385  11.957
28766W        W90077  44.345  23.654  10.442
28767W        W90078   6.838  40.435  13.803
28768W        W90079  42.014   6.763   2.715
28769W        W90080  22.206  24.115   3.744
28770W        W90081  26.157  12.256  12.877
28771W        W90082  22.710  27.070   1.388
28772W        W90083   6.371  28.490  11.037
28773W        W90084  15.184   2.898  10.551
28774W        W90085   4.816  32.538   0.309
28775W        W90086  24.508  10.306   4.782
28776W        W90087  22.235   2.369  14.983
28777W        W90088  35.100  37.471  11.097
28778W        W90089  21.259  26.601   2.306
28779W        W90090  43.953  41.001  13.836
28780W        W90091  39.390   8.289   2.737
28781W        W90092  29.543   8.239   1.427
28782W        W90093  27.626  12.120  14.295
28783W        W90094   8.750   7.411  11.857
28784W        W90095   7.379   5.196  14.856
28785W        W90096  10.268   3.849  11.483
28786W        W90097  33.979  19.243  13.857
28787W        W90098  26.149  20.038   5.178
28788W        W90099  11.165  17.695   1.747
28789W        W90100  39.978   5.742  11.605
28790W        W90101  40.810  35.585  13.453
28791W        W90102  32.624  10.680   3.856
28792W        W90103  36.943  26.513   0.951
28793W        W90104  40.924  20.089   3.866
28794W        W90105  27.032  43.500  12.874
28795W        W90106   2.258  17.203   5.141
28796W        W90107  29.072  43.804  13.508
28797W        W90108  32.584  33.888  14.379
28798W        W90109  21.569  19.659   5.108
28799W        W90110   8.661  22.051   0.271
28800W        W90111  12.295   0.310  11.993
28801W        W90112   3.889  41.421   4.348
28802W        W90113  13.686  19.095   0.875
28803W        W90114  34.473  31.010   5.783
28804W        W90115  20.623  40.930   1.400
28805W        W90116  10.256  28.673   0.419
28806W        W90117   3.748  26.982  14.313
28807W        W90118  32.636  36.018  13.803
28808W        W90119  12.708   6.770   4.688
28809W        W90120  16.683  26.038   0.843
28810W        W90121  28.991   4.390   2.379
28811W        W90122  12.332  42.863   4.680
28812W        W90123   0.947  20.542   3.188
28813W        W90124  33.560  39.522  10.064
28814W        W90125  26.140   0.941   0.371
28815W        W90126  29.503  24.607   4.274
28816W        W90127  12.332  37.385  11.963
28817W        W90128  17.751  30.948  14.951
28818W        W90129   5.424   3.739   4.673
28819W        W90130   7.265  20.136  13.355
28820W        W90131  35.923  36.420   2.263
28821W        W90132   7.809   4.268  14.296
28822W        W90133  31.001   0.967  14.936
28823W        W90134  21.751  16.657  10.946
28824W        W90135  29.586  36.396   4.730
28825W        W90136  34.997  33.603  12.383
28826W        W90137  29.082  16.618   0.379
28827W        W90138  12.357  38.898  14.448
28828W        W90139  28.095  33.080   1.326
28829W        W90140  17.590  27.024  11.548
28830W        W90141  41.830  24.164  14.456
28831W        W90142   5.271  44.801   0.322
28832W        W90143   6.304  26.503   0.908
28833W        W90144  41.036  33.443   2.790
28834W        W90145  21.750  18.154   1.744
28835W        W90146   5.302  14.201   2.823
28836W        W90147   9.317  11.187  13.841
28837W        W90148  13.722  20.612   1.789
28838W        W90149   3.740   4.802  12.893
28839W        W90150  19.243  21.633   1.877
28840W        W90151   3.272   2.849  14.304
28841W        W90152  23.039  36.000  10.942
28842W        W90153   0.862  28.654   0.759
28843W        W90154  43.968   7.322   1.821
28844W        W90155  43.780  11.363   3.818
28845W        W90156  33.007  43.366  11.445
28846W        W90157  21.586  38.404   9.951
28847W        W90158  33.419  16.141   4.796
28848W        W90159  27.082  39.456  11.585
28849W        W90160  12.840  16.774  11.471
28850W        W90161  26.065   6.737  13.311
28851W        W90162   2.246  42.493  13.033
28852W        W90163  36.592  14.246   0.329
28853W        W90164  36.395  23.716  11.385
28854W        W90165   5.278  14.813  10.582
28855W        W90166  29.943  33.621   3.169
28856W        W90167  34.000  10.165   4.125
28857W        W90168  11.271  39.998   3.336
28858W        W90169   0.386   2.759  14.293
28859W        W90170  12.853  31.622  12.027
28860W        W90171  19.165   0.881   1.379
28861W        W90172  34.888  42.446   1.281
28862W        W90173   6.263  38.032  10.966
28863W        W90174  25.116   2.933  14.376
28864W        W90175  15.087  28.055  14.876
28865W        W90176  16.172  27.057   1.792
28866W        W90177  34.477  36.442  10.894
28867W        W90178  26.515  20.160   2.177
28868W        W90179  43.290   0.438  12.429
28869W        W90180  20.218  22.147   4.230
28870W        W90181  25.497  22.591  12.348
28871W        W90182  33.385  40.864  10.984
28872W        W90183  37.925  19.578  11.462
28873W        W90184  39.501  29.556  14.304
28874W        W90185  35.421  21.168  14.811
28875W        W90186  14.111  28.490  10.498
28876W        W90187  29.017  28.602  14.909
28877W        W90188  41.406  36.410  12.481
28878W        W90189  16.117  25.566   4.257
28879W        W90190  25.976  25.618  12.441
28880W        W90191  25.975  14.299  14.414
28881W        W90192  23.143  41.819  13.018
28882W        W90193  42.398  16.632   2.846
28883W        W90194   8.804  32.584  13.936
28884W        W90195  34.029  38.447  11.483
28885W        W90196  34.907  17.706   1.349
28886W        W90197  23.991   6.386  12.412
28887W        W90198  28.977  31.050  11.580
28888W        W90199  35.576  35.885  13.848
28889W        W90200   1.260  42.524  12.536
28890W        W90201  35.880  14.602   0.771
28891W        W90202  24.033   2.401  11.581
28892W        W90203  15.819  24.507  13.983
28893W        W90204  39.062  21.627   0.477
28894W        W90205  44.802  40.914  10.524
28895W        W90206  39.812  27.653  13.405
28896W        W90207  43.907  12.255  14.487
28897W        W90208  32.413   3.296  13.029
28898W        W90209  13.762  11.658  11.961
28899W        W90210  25.674  29.599   1.884
28900W        W90211   3.308   4.886  11.924
28901W        W90212  27.509   4.398  10.492
28902W        W90213  35.005   3.452  14.308
28903W        W90214  28.507  29.087  14.473
28904W        W90215  37.997  27.189   2.329
28905W        W90216  42.345   8.864  14.469
28906W        W90217   4.325  41.335  10.999
28907W        W90218  11.748   6.723   1.794
28908W        W90219  25.120  15.197  10.937
28909W        W90220  34.864  37.361   1.217
28910W        W90221  43.905  21.029  13.442
28911W        W90222  20.130  38.535  11.478
28912W        W90223  19.685  36.498   2.686
28913W        W90224  14.200  16.259  12.477
28914W        W90225  14.715  28.543  12.479
28915W        W90226  17.774   7.894  10.464
28916W        W90227  38.384   4.305   4.822
28917W        W90228   5.210   9.823  13.500
28918W        W90229  43.828  36.000   1.880
28919W        W90230  43.421  11.825   4.336
28920W        W90231  33.573  18.110   1.418
28921W        W90232  14.709   2.842   2.333
28922W        W90233   8.761   4.748  13.935
28923W        W90234  17.166  35.421  11.486
28924W        W90235  41.925  12.225   0.956
28925W        W90236  20.722   4.785   2.392
28926W        W90237   4.281  18.207  13.505
28927W        W90238  32.139  22.091   1.407
28928W        W90239  18.215  26.593   4.770
28929W        W90240  40.840  31.964  11.473
28930W        W90241  15.096  25.216   3.715
28931W        W90242  21.044  35.418  12.868
28932W        W90243  16.654  33.917   0.939
28933W        W90244  26.052  43.768  11.396
28934W        W90245  29.122  43.948   2.797
28935W        W90246  41.368  34.421  14.296
28936W        W90247  35.977  43.920   1.921
28937W        W90248   9.251  14.589  13.968
28938W        W90249   3.781  21.519  13.889
28939W        W90250  36.983  25.052  12.854
28940W        W90251   1.364  17.617   4.754
28941W        W90252  12.640  32.422  14.840
28942W        W90253  23.527   9.339   4.224
28943W        W90254  26.153   5.201  13.484
28944W        W90255  42.391  10.256   4.237
28945W        W90256  26.457  37.964   1.933
28946W        W90257  22.596   2.727   0.259
28947W        W90258  33.950  12.654  13.963
28948W        W90259   9.389  20.124   4.348
28949W        W90260   4.393  14.669   0.790
28950W        W90261  23.517  22.576  11.426
28951W        W90262  11.624  39.475  11.882
28952W        W90263  34.576   4.857   2.881
28953W        W90264  31.431  19.606   1.789
28954W        W90265  43.790  38.068  11.054
28955W        W90266   7.222  36.355  14.363
28956W        W90267   3.953   4.815   1.768
28957W        W90268  36.389  40.965  14.986
28958W        W90269  30.988   0.957   2.846
28959W        W90270   7.257  28.946   2.673
28960W        W90271  33.114  44.388  14.001
28961W        W90272   9.336  13.197   0.930
28962W        W90273  10.853   3.861  10.490
28963W        W90274  10.654  26.520  10.055
28964W        W90275  42.943  38.501  11.027
28965W        W90276  43.917  34.949   2.256
28966W        W90277  14.781  37.368  11.104
28967W        W90278   1.889   8.746  12.009
28968W        W90279   0.315  39.901  11.915
28969W        W90280  15.585  10.201   3.292
28970W        W90281   6.338   1.892   2.702
28971W        W90282   1.405  42.935  12.998
28972W        W90283   0.401  33.064   1.730
28973W        W90284   1.243   9.251  14.770
28974W        W90285  14.176  38.962  14.379
28975W        W90286  29.471  23.693   0.380
28976W        W90287   5.215  36.478   0.800
28977W        W90288  39.491  19.266  14.870
28978W        W90289   6.679   3.811  13.337
28979W        W90290  36.495  14.218  14.285
28980W        W90291  31.450  40.413  13.488
28981W        W90292  14.791  30.449   2.900
28982W        W90293  21.077   7.378  13.819
28983W        W90294  26.012  13.289   4.820
28984W        W90295  31.017  16.772  10.617
28985W        W90296  37.421   3.799   2.404
28986W        W90297  20.610  11.850   0.750
28987W        W90298  41.341  21.058  13.982
28988W        W90299  44.786  32.966  13.039
28989W        W90300  41.869  12.637  13.851
28990W        W90301   5.437  19.283  11.406
28991W        W90302  32.493  29.039   2.879
28992W        W90303   3.876  13.696  14.398
28993W        W90304  20.630  26.698   1.352
28994W        W90305   8.819  25.068  10.487
28995W        W90306  31.572   1.281   4.182
28996W        W90307  20.711   9.352  11.525
28997W        W90308   2.289   2.274  14.819
28998W        W90309  12.155  32.444   1.821
28999W        W90310  27.494  18.760  11.553
29000W        W90311  13.694  16.251   4.215
29001W        W90312  10.149  44.430  14.915
29002W        W90313  38.906  32.452   4.618
29003W        W90314  37.522  25.062  10.516
29004W        W90315  21.550  29.486   3.791
29005W        W90316  30.420  39.348   0.820
29006W        W90317  33.915  25.615  13.894
29007W        W90318   1.927  18.070   1.223
29008W        W90319  24.989  34.063  11.970
29009W        W90320  44.411  13.147   2.880
29010W        W90321  16.113   0.963  10.016
29011W        W90322  16.663   9.733   4.607
29012W        W90323  26.621   8.700  14.985
29013W        W90324  31.525  41.968  14.958
29014W        W90325  13.186  12.839   1.353
29015W        W90326   8.753  19.554  11.052
29016W        W90327   0.387  39.375   3.339
29017W        W90328  32.431  35.914  14.977
29018W        W90329   2.891  18.735   2.185
29019W        W90330  38.971  24.021  14.289
29020W        W90331  39.373  23.087  12.884
29021W        W90332   4.383  16.277  14.806
29022W        W90333  42.877  31.122   0.873
29023W        W90334  33.453   9.268  10.479
29024W        W90335   5.910  16.597   2.687
29025W        W90336  35.911  26.504   3.178
29026W        W90337  32.491   5.739   2.277
29027W        W90338  19.047  19.198  14.416
29028W        W90339  22.695   9.248  11.066
29029W        W90340   0.859  15.742  12.974
29030W        W90341   9.338  41.471   1.294
29031W        W90342  43.940  15.099   3.667
29032W        W90343  26.073  28.668  11.069
29033W        W90344   6.768  42.783   1.739
29034W        W90345   1.443  30.495   2.902
29035W        W90346  30.509  19.553   1.399
29036W        W90347  37.456  23.163   0.962
29037W        W90348   6.682  23.144   2.798
29038W        W90349   6.406  11.163  10.948
29039W        W90350  39.010  37.861   2.707
29040W        W90351   0.861  32.394   0.818
29041W        W90352  36.347  22.071   1.800
29042W        W90353  13.767   6.752  10.913
29043W        W90354   7.901  29.077  12.873
29044W        W90355   9.166  28.541   4.309
29045W        W90356  42.471  22.599   2.306
29046W        W90357  18.103   4.766  13.398
29047W        W90358  36.019  20.074   1.352
29048W        W90359  43.914  28.562   1.730
29049W        W90360  32.900   8.791   4.809
29050W        W90361  28.470  28.676  11.446
29051W        W90362  36.042   9.887   0.395
29052W        W90363  20.028  23.114  13.007
29053W        W90364  30.934  37.391  10.462
29054W        W90365  44.836  30.430  14.994
29055W        W90366  25.206  34.007   0.768
29056W        W90367  35.459  36.951  14.933
29057W        W90368  42.982  43.861   4.328
29058W        W90369  25.694  14.145  14.810
29059W        W90370   5.393   7.682   0.449
29060W        W90371   5.888  17.643  13.851
29061W        W90372  11.195  35.481  11.432
29062W        W90373  40.380  26.527   9.949
29063W        W90374  38.957   5.337   1.241
29064W        W90375  23.716  37.850   4.838
29065W        W90376  43.785   3.809   0.762
29066W        W90377  21.206   6.740  12.057
29067W        W90378  11.794  29.542  11.915
29068W        W90379   9.363  12.243  11.536
29069W        W90380  37.941  11.725  12.837
29070W        W90381   4.922  21.642  14.785
29071W        W90382  12.822  22.215  10.438
29072W        W90383  33.534  39.938  14.444
29073W        W90384  30.009   8.769  13.483
29074W        W90385  24.160  42.936   0.906
29075W        W90386   2.919  19.770   2.366
29076W        W90387   1.404  33.565  13.346
29077W        W90388   8.750   9.286  12.866
29078W        W90389   7.730  29.068   0.810
29079W        W90390  38.384  12.300  10.997
29080W        W90391   2.785  20.526  13.317
29081W        W90392  37.536   5.846  11.447
29082W        W90393  20.040  37.045  10.572
29083W        W90394  41.877  26.040   2.767
29084W        W90395  29.958  24.567  14.003
29085W        W90396  12.652  40.370  11.543
29086W        W90397   6.901  28.538   4.827
29087W        W90398  31.410  26.618  11.879
29088W        W90399  42.952  43.372  14.394
29089W        W90400   9.325   9.775   4.185
29090W        W90401  23.703  10.340   2.186
29091W        W90402  43.318   7.830  12.914
29092W        W90403   5.786  35.871   3.350
29093W        W90404  24.978   3.268   4.757
29094W        W90405   6.855   0.950   2.669
29095W        W90406  36.424  28.102   0.797
29096W        W90407  19.603  28.177  11.392
29097W        W90408  11.652  13.209   4.129
29098W        W90409  12.255  20.080   0.788
29099W        W90410  36.368  42.858  11.889
29100W        W90411   1.764  37.950  14.277
29101W        W90412   8.358  21.250   0.788
29102W        W90413   8.811   7.335  14.435
29103W        W90414  10.823  25.608   4.754
29104W        W90415  11.160  42.860  12.827
29105W        W90416  26.065  12.661   3.768
29106W        W90417  25.686  21.596   3.367
29107W        W90418  39.393  44.388  12.457
29108W        W90419  24.609   6.744   2.349
29109W        W90420  34.428  31.455  11.922
29110W        W90421  19.718   4.894   4.132
29111W        W90422  19.251  17.129  14.761
29112W        W90423  25.021   3.319  11.440
29113W        W90424   3.388   9.252  14.840
29114W        W90425  23.498  33.991   9.465
29115W        W90426  36.528  16.790   4.179
29116W        W90427   5.841  35.439   4.767
29117W        W90428  42.863   1.427   1.377
29118W        W90429   6.889  40.377   3.363
29119W        W90430   5.193  15.122  11.878
29120W        W90431  30.115   3.411  14.427
29121W        W90432  36.078  13.266  10.475
29122W        W90433  29.093   8.695   4.746
29123W        W90434   1.412  18.119   4.642
29124W        W90435  10.366  22.013  11.097
29125W        W90436   5.788  43.873  10.589
29126W        W90437  13.214  28.637   0.779
29127W        W90438  40.927  27.977   2.708
29128W        W90439  10.821  42.384  11.944
29129W        W90440   4.382  43.484  13.866
29130W        W90441  18.773  29.501  11.097
29131W        W90442  19.717  21.672   0.875
29132W        W90443   2.754  41.418   2.813
29133W        W90444   3.926  42.921   2.684
29134W        W90445  13.839  43.372   3.667
29135W        W90446  16.620  11.635   5.693
29136W        W90447   2.269  43.010  14.859
29137W        W90448  29.515  43.366  11.600
29138W        W90449   0.839  18.218   4.621
29139W        W90450   6.193  38.489  12.963
29140W        W90451   3.442   4.895   3.870
29141W        W90452  36.896  38.022   1.334
29142W        W90453  19.053  30.998  12.454
29143W        W90454  37.473   7.685  10.952
29144W        W90455  42.945  37.942  14.344
29145W        W90456   9.695  42.969  12.472
29146W        W90457  23.114  29.433   1.372
29147W        W90458  43.827  10.305   1.931
29148W        W90459   8.229  25.999  13.940
29149W        W90460  12.340  11.629  13.389
29150W        W90461  16.582  31.005  13.042
29151W        W90462  27.558   4.447  12.886
29152W        W90463  29.613  39.495   0.964
29153W        W90464  19.616  21.596  10.590
29154W        W90465  12.233  13.818  10.421
29155W        W90466  25.657  43.490  11.998
29156W        W90467  38.049  37.906   1.801
29157W        W90468  32.524   9.859   3.729
29158W        W90469  19.102   7.316  11.380
29159W        W90470  16.783  36.997   2.852
29160W        W90471   0.864  24.601   0.282
29161W        W90472  12.166  19.746   1.429
29162W        W90473  10.303  24.013  13.902
29163W        W90474  39.983  44.770   3.329
29164W        W90475   2.258  12.780   2.702
29165W        W90476   8.160   1.322  14.809
29166W        W90477  39.054  33.050   0.731
29167W        W90478  23.654  28.958  14.813
29168W        W90479  13.258  10.691  12.403
29169W        W90480   2.862  15.604  14.415
29170W        W90481  33.454  34.493  10.960
29171W        W90482  20.086  31.905  13.478
29172W        W90483  10.671   5.419   0.322
29173W        W90484  23.614  15.637   3.632
29174W        W90485  39.557  40.029   3.745
29175W        W90486  16.218  30.582   0.867
29176W        W90487   9.696  26.023   2.726
29177W        W90488  34.909  11.347  12.835
29178W        W90489  32.992  16.135  13.916
29179W        W90490  37.965  25.994  11.031
29180W        W90491  16.670  44.836  12.569
29181W        W90492  15.180  13.231   3.833
29182W        W90493   0.490   6.387  14.761
29183W        W90494  22.700   7.829   3.290
29184W        W90495  16.278  35.577  12.065
29185W        W90496   0.775  22.247  11.885
29186W        W90497  28.608  23.590  11.457
29187W        W90498  37.041  26.128  13.390
29188W        W90499  37.884   8.662   4.275
29189W        W90500   0.860  41.845  11.869
29190W        W90501   4.350  32.442  13.809
29191W        W90502  32.026  19.123   0.848
29192W        W90503  27.003  40.031   2.304
29193W        W90504  41.412  44.878  12.952
29194W        W90505   9.185   6.313  13.904
29195W        W90506  41.932  43.823   0.942
29196W        W90507  22.601  37.442   0.752
29197W        W90508   7.911  15.786   0.445
29198W        W90509  26.695   2.439   3.343
29199W        W90510  11.230   0.919  13.882
29200W        W90511  15.265  17.696   5.679
29201W        W90512  15.297   4.852   2.710
29202W        W90513  29.143  31.505  14.285
29203W        W90514  18.627   8.885   2.218
29204W        W90515  27.546  28.648   0.765
29205W        W90516  23.175   8.351   2.252
29206W        W90517  38.985  24.199   5.208
29207W        W90518   3.353  13.704  14.759
29208W        W90519  20.148  32.981   0.320
29209W        W90520  17.678  10.247  13.984
29210W        W90521   1.789  23.642   4.183
29211W        W90522  26.057  13.240  10.627
29212W        W90523  19.614   6.804  13.353
29213W        W90524  21.640  25.683   2.307
29214W        W90525  16.625   2.783  14.986
29215W        W90526  18.567   9.866  13.880
29216W        W90527  43.420  36.417   4.777
29217W        W90528  17.586  15.623   5.647
29218W        W90529  44.476  40.543   0.328
29219W        W90530  41.970  15.625   4.838
29220W        W90531  16.769  41.425   3.353
29221W        W90532   5.822  17.307  14.365
29222W        W90533  42.780  13.775   3.797
29223W        W90534   2.332  37.870  12.016
29224W        W90535   1.476  20.257  10.971
29225W        W90536  34.997   6.197   5.103
29226W        W90537  21.606   7.208  10.629
29227W        W90538  16.616  42.991  11.898
29228W        W90539  38.425  29.035   2.391
29229W        W90540  15.127  14.597   1.881
29230W        W90541   8.676   2.314   3.765
29231W        W90542  24.136  27.601  14.373
29232W        W90543  15.639  15.591  14.424
29233W        W90544  35.400  14.248   2.268
29234W        W90545  30.598  16.575   4.295
29235W        W90546  42.869  18.628  13.799
29236W        W90547  20.572  23.571   2.262
29237W        W90548  34.913   4.440   4.613
29238W        W90549  26.699  18.563  11.532
29239W        W90550   4.791   6.361  14.903
29240W        W90551  18.704   4.301  14.946
29241W        W90552  22.542  23.725   2.671
29242W        W90553  28.983   0.947   3.799
29243W        W90554  43.018   7.830   3.181
29244W        W90555  31.985  36.354  14.919
29245W        W90556  18.652  37.465   0.780
29246W        W90557   6.365  24.982  10.614
29247W        W90558   9.214  17.622   0.338
29248W        W90559  29.569   8.196   2.317
29249W        W90560  35.545  12.773   2.810
29250W        W90561  30.605  19.646   1.779
29251W        W90562  18.619  20.259   4.622
29252W        W90563  10.711  17.259   4.762
29253W        W90564  38.557  40.319  12.993
29254W        W90565  43.804   6.338   4.705
29255W        W90566  13.639  25.704   2.710
29256W        W90567  14.157  43.998  11.414
29257W        W90568  10.673  43.434  13.866
29258W        W90569  29.647  13.336  12.052
29259W        W90570  28.973  33.595   1.865
29260W        W90571   7.897  40.864   3.273
29261W        W90572  21.208   8.884  12.939
29262W        W90573  39.011  39.927   4.117
29263W        W90574  41.997  41.408   2.284
29264W        W90575  17.237  18.739  14.383
29265W        W90576  40.944   8.673  14.432
29266W        W90577  37.849   8.353  12.859
29267W        W90578  38.446  39.551  13.843
29268W        W90579  20.677  38.337   3.234
29269W        W90580  17.568  24.724   4.828
29270W        W90581  27.118  30.010   4.785
29271W        W90582  43.909  24.561  14.947
29272W        W90583   9.705  26.527  11.523
29273W        W90584  27.153   1.287  13.366
29274W        W90585  25.145  39.980   9.990
29275W        W90586   9.383   4.328  11.049
29276W        W90587  34.093  10.239   1.884
29277W        W90588   6.899  32.422  13.808
29278W        W90589  21.665  36.891   0.437
29279W        W90590  29.569  26.484  13.803
29280W        W90591   7.235   1.959  14.889
29281W        W90592  13.137   9.697   0.360
29282W        W90593  43.483  31.072  13.947
29283W        W90594  20.716  31.004  13.984
29284W        W90595  15.095  14.817  14.761
29285W        W90596  10.226   5.898   1.790
29286W        W90597  37.541  30.115   3.184
29287W        W90598  18.576  27.197   0.922
29288W        W90599  40.333  13.109  14.971
29289W        W90600   4.383   3.891  14.876
29290W        W90601   1.770  32.419  14.878
29291W        W90602  35.095  13.243  10.937
29292W        W90603   7.822   1.936   0.319
29293W        W90604  17.794  25.644  12.013
29294W        W90605  24.178  29.595  14.346
29295W        W90606   8.730  42.011   5.105
29296W        W90607  28.967   0.791  13.887
29297W        W90608  44.893  22.241  13.846
29298W        W90609  15.631   4.361  14.953
29299W        W90610   8.741   7.390   2.875
29300W        W90611   8.331  41.840   2.743
29301W        W90612   9.788  34.025  10.432
29302W        W90613  25.215  38.480   3.188
29303W        W90614  25.562  27.566   1.419
29304W        W90615  36.474   3.387   4.701
29305W        W90616  30.510  12.764   4.808
29306W        W90617  42.501  10.804   3.201
29307W        W90618  42.284  26.147   0.816
29308W        W90619   0.864  41.976  14.375
29309W        W90620  38.060  42.999   0.309
29310W        W90621   6.238  13.628  12.047
29311W        W90622  33.384  34.590   3.739
29312W        W90623  37.080  10.181  10.466
29313W        W90624  20.146  18.192  12.966
29314W        W90625  42.855   8.284  13.397
29315W        W90626   8.801   4.437  12.851
29316W        W90627  21.746  28.478  10.625
29317W        W90628  39.907  32.622  14.990
29318W        W90629  32.053  15.157   1.898
29319W        W90630  43.375  19.244  12.987
29320W        W90631   5.804  36.493   0.903
29321W        W90632  42.918  38.463   4.604
29322W        W90633  31.524   5.808  12.900
29323W        W90634  31.565  15.321  13.890
29324W        W90635  40.033  30.421  13.887
29325W        W90636  35.474  44.478  10.506
29326W        W90637  27.943  24.066  11.105
29327W        W90638  42.872   1.944  13.885
29328W        W90639  10.661  11.297   2.331
29329W        W90640   1.253  16.661  11.082
29330W        W90641  20.650   9.836   2.282
29331W        W90642   9.362  19.190   5.144
29332W        W90643  16.780  22.046   2.665
29333W        W90644  25.093  28.526   3.213
29334W        W90645   0.386  33.974  11.072
29335W        W90646  18.573   6.889  10.474
29336W        W90647  27.519  34.521   2.861
29337W        W90648  17.237  35.452  14.954
29338W        W90649  44.377  19.182  11.908
29339W        W90650  34.069   9.260  12.969
29340W        W90651  26.574  16.605  11.857
29341W        W90652  18.097  35.416  14.326
29342W        W90653   1.356  29.990   2.247
29343W        W90654  14.128  20.748  14.424
29344W        W90655  21.226  34.501   1.284
29345W        W90656   7.689  28.584  13.952
29346W        W90657  28.017  14.190   3.742
29347W        W90658   3.871   5.876   2.315
29348W        W90659  24.137  26.091  13.014
29349W        W90660  29.098  12.284   2.864
29350W        W90661  34.896  33.996   2.212
29351W        W90662   7.755  31.897  12.415
29352W        W90663  38.887   3.837  12.540
29353W        W90664  34.050  29.464   4.141
29354W        W90665  43.348  36.028   4.140
29355W        W90666  37.381  11.639  12.410
29356W        W90667  43.277  43.320  12.468
29357W        W90668   9.272  22.187   0.332
29358W        W90669  30.120  13.606   0.846
29359W        W90670  22.053  21.726  11.899
29360W        W90671  39.051  28.569  10.461
29361W        W90672  18.075   1.743  10.130
29362W        W90673   4.407  44.849  13.046
29363W        W90674  38.934  24.068  11.562
29364W        W90675  38.074  22.197  11.425
29365W        W90676  35.396  16.073  14.021
29366W        W90677  11.638  20.590  13.808
29367W        W90678  21.569  38.931  10.134
29368W        W90679  19.214  29.075   0.427
29369W        W90680  15.820  43.493   1.798
29370W        W90681  38.989  34.438  10.106
29371W        W90682  18.222   7.307  10.561
29372W        W90683   4.414  40.348  12.578
29373W        W90684  30.413  22.566   3.243
29374W        W90685  43.365  15.230   3.349
29375W        W90686  10.833   2.461  10.994
29376W        W90687   8.884  12.738   2.395
29377W        W90688   4.870  39.828   0.449
29378W        W90689   6.868  13.625   0.317
29379W        W90690   4.436  42.353   2.395
29380W        W90691  41.506  35.407  12.824
29381W        W90692   7.172  14.101  10.569
29382W        W90693   3.435  38.546  12.530
29383W        W90694  10.877  20.722   1.349
29384W        W90695  22.191   7.302  11.895
29385W        W90696   0.306   2.349   1.764
29386W        W90697  34.087  37.013  10.445
29387W        W90698  38.409   8.336  14.415
29388W        W90699   3.274   4.709  11.386
29389W        W90700  15.769  12.705  11.417
29390W        W90701  22.128  39.358   3.660
29391W        W90702  31.430  24.041   1.411
29392W        W90703  43.902  17.294   1.806
29393W        W90704  27.584  42.429  12.396
29394W        W90705   7.839  39.481   3.698
29395W        W90706  27.675   6.816  14.009
29396W        W90707   7.388  34.086   3.707
29397W        W90708  13.223  20.726   1.849
29398W        W90709   0.384  27.030   2.297
29399W        W90710  29.530  40.370  14.421
29400W        W90711  21.750   1.339   4.135
29401W        W90712  13.288   5.829  11.533
29402W        W90713  16.651  32.110  10.977
29403W        W90714   9.190  37.472  13.928
29404W        W90715  37.079   4.811  14.857
29405W        W90716  33.942  31.096   2.725
29406W        W90717   5.853  43.871   1.798
29407W        W90718  35.482  13.689  14.793
29408W        W90719  37.994   4.937  11.391
29409W        W90720  41.800  43.286  12.572
29410W        W90721  16.794  27.605  12.089
29411W        W90722  38.432  41.406  12.452
29412W        W90723  19.653   9.790   0.768
29413W        W90724   0.459  22.564   0.848
29414W        W90725  42.503  21.668  12.446
29415W        W90726  23.096  31.407   0.465
29416W        W90727   2.384  34.963   2.787
29417W        W90728  15.210  24.998  13.867
29418W        W90729  27.645  11.189  13.426
29419W        W90730  35.026  32.459   1.451
29420W        W90731  32.485  16.172  11.599
29421W        W90732  36.849  34.464   0.957
29422W        W90733  10.212  29.584  13.325
29423W        W90734   4.432  21.699   0.305
29424W        W90735  44.407  28.064  11.880
29425W        W90736  16.640  31.569   1.709
29426W        W90737   2.228  20.637  12.038
29427W        W90738   9.886   3.712   2.184
29428W        W90739  27.657  32.408   2.367
29429W        W90740  33.623  26.151  14.942
29430W        W90741  28.037  38.482  11.884
29431W        W90742   8.202  29.595   3.758
29432W        W90743  17.645  30.480  13.021
29433W        W90744  37.574  31.998  14.022
29434W        W90745   5.382   3.424  13.538
29435W        W90746  39.516  42.335  12.449
29436W        W90747  15.274   9.648   3.798
29437W        W90748  39.049   9.241   3.631
29438W        W90749  32.592  18.558  13.465
29439W        W90750  25.038  34.933   3.371
29440W        W90751   3.913   7.314  11.407
29441W        W90752  33.091  28.032  10.620
29442W        W90753  19.284  26.015   1.289
29443W        W90754  25.687  26.104   2.801
29444W        W90755  24.560  18.666  12.947
29445W        W90756   2.341  24.493   0.265
29446W        W90757   3.265  13.298   2.390
29447W        W90758   3.364  28.186  13.543
29448W        W90759  32.113   3.351  14.806
29449W        W90760   4.322  16.210  14.290
29450W        W90761   2.456  36.049   4.709
29451W        W90762  33.046  23.121   3.719
29452W        W90763  19.075   8.807   1.704
29453W        W90764  20.186  30.483  14.948
29454W        W90765   1.837  24.166  12.389
29455W        W90766  11.621   1.374   0.895
29456W        W90767  28.175  15.132  13.038
29457W        W90768  19.652  14.284  11.386
29458W        W90769  40.962  23.113  12.905
29459W        W90770  25.662  21.238   0.420
29460W        W90771  11.230  34.003   0.926
29461W        W90772  34.096   4.408   1.815
29462W        W90773   9.714  21.717  11.987
29463W        W90774  26.629   3.246   3.284
29464W        W90775  36.556   9.243  13.883
29465W        W90776  12.665  25.544  11.933
29466W        W90777   7.284  18.101  13.791
29467W        W90778  19.207  44.841   0.736
29468W        W90779  28.109   2.858   4.182
29469W        W90780   3.773  12.782   1.380
29470W        W90781  38.450  39.488   3.233
29471W        W90782  33.887  21.046   2.377
29472W        W90783  33.422  28.656   4.274
29473W        W90784   3.775  11.245  13.915
29474W        W90785  11.774  24.724  12.397
29475W        W90786  38.908  22.551   2.191
29476W        W90787  28.164   1.911   1.755
29477W        W90788  37.401  13.246   0.438
29478W        W90789   3.305  14.635  13.389
29479W        W90790   6.327  32.460  11.450
29480W        W90791  29.486  33.548  13.316
29481W        W90792   4.838   2.464   3.342
29482W        W90793   2.366  22.532   0.354
29483W        W90794  18.749  40.911  10.901
29484W        W90795  11.174  30.943  10.577
29485W        W90796  36.419  29.578  11.113
29486W        W90797  42.848  38.053  10.578
29487W        W90798   3.295   4.942  13.039
29488W        W90799   9.274  32.503   0.462
29489W        W90800  10.744  31.614  12.843
29490W        W90801  35.404  23.035   4.306
29491W        W90802  29.516   4.716   3.194
29492W        W90803   7.286   4.384   4.767
29493W        W90804  34.120   9.176  11.425
29494W        W90805  25.530  19.541  10.890
29495W        W90806   3.436  43.807   4.620
29496W        W90807  17.622  38.571   3.758
29497W        W90808   9.360   4.850   2.272
29498W        W90809  41.854  36.435   0.944
29499W        W90810  38.918  21.108   2.277
29500W        W90811   3.711  36.920   1.794
29501W        W90812  20.108  26.527   3.220
29502W        W90813  31.132  30.022  11.496
29503W        W90814  44.989  11.176   0.422
29504W        W90815  31.546  37.070   2.270
29505W        W90816   2.466  43.289   0.422
29506W        W90817  40.504  10.845   3.759
29507W        W90818  11.627  41.011   4.173
29508W        W90819   6.384   1.814   4.728
29509W        W90820  12.359  33.987   4.163
29510W        W90821  10.838  16.266  11.976
29511W        W90822  28.959  25.555  11.090
29512W        W90823  34.963   9.177   4.734
29513W        W90824  24.162  44.454  10.001
29514W        W90825  12.690  12.157  14.887
29515W        W90826  12.331  43.278   2.382
29516W        W90827   6.208  15.311  10.157
29517W        W90828  23.516  12.818   2.254
29518W        W90829  20.590  38.068  12.851
29519W        W90830   2.967   6.845   2.206
29520W        W90831  35.002  26.676  11.389
29521W        W90832  42.518   8.739   3.839
29522W        W90833   2.787  26.647  13.343
29523W        W90834  35.580  24.102  10.919
29524W        W90835  17.293  15.203  11.497
29525W        W90836  31.074   0.357   3.350
29526W        W90837  33.531   9.274   3.152
29527W        W90838   8.173  15.717   2.359
29528W        W90839  39.946  19.740   1.331
29529W        W90840  41.365  18.215   1.753
29530W        W90841   5.713   0.257  11.477
29531W        W90842  10.243  17.097  14.997
29532W        W90843  28.553  11.788   1.450
29533W        W90844  12.857   6.898  11.555
29534W        W90845  18.279  27.004   1.390
29535W        W90846  28.635  24.126  12.026
29536W        W90847  44.296  26.158   5.093
29537W        W90848  26.507   4.233  11.999
29538W        W90849  10.174   5.928  11.529
29539W        W90850  12.856  41.951  12.969
29540W        W90851  11.329  17.585  14.914
29541W        W90852  36.372   7.214  10.568
29542W        W90853  15.675  16.674  14.009
29543W        W90854  20.558  35.361  10.571
29544W        W90855  10.673  43.787   3.213
29545W        W90856  27.645   0.338  10.517
29546W        W90857  33.608  26.014   1.783
29547W        W90858   5.277   2.890   3.725
29548W        W90859  34.114  11.302   0.458
29549W        W90860   9.702  17.179  10.932
29550W        W90861   0.406  40.406   0.767
29551W        W90862  24.503  37.833   3.750
29552W        W90863  26.118  40.030  12.446
29553W        W90864  33.957  17.238  13.330
29554W        W90865   0.830  17.104  12.917
29555W        W90866   1.449   0.312   3.718
29556W        W90867  38.519  43.902  13.980
29557W        W90868   8.688  21.547   0.374
29558W        W90869  18.085  11.661  12.449
29559W        W90870   2.456  29.162   0.820
29560W        W90871  23.064   4.853  12.471
29561W        W90872  26.464  15.266  10.127
29562W        W90873  19.654  26.014   2.754
29563W        W90874  39.452  29.513   4.726
29564W        W90875  14.821  32.061  11.506
29565W        W90876  43.504  44.409  12.888
29566W        W90877  29.661  26.984  14.786
29567W        W90878  12.209  38.414  13.824
29568W        W90879   9.311  17.242   4.824
29569W        W90880  33.385   7.862   3.789
29570W        W90881  21.567  20.250   3.739
29571W        W90882  41.801  43.909  14.337
29572W        W90883  26.192  28.588   3.197
29573W        W90884  29.481  22.681   3.720
29574W        W90885   8.168  32.521   4.271
29575W        W90886   5.702  40.539  11.019
29576W        W90887  18.750  26.166  12.006
29577W        W90888   3.351   1.465  13.979
29578W        W90889  15.304  10.699   2.826
29579W        W90890  10.212   0.747   3.203
29580W        W90891  33.384  28.016   0.744
29581W        W90892  18.264  13.342   1.273
29582W        W90893   7.726   7.405  11.857
29583W        W90894  10.339  21.131  13.058
29584W        W90895   8.306  22.631  14.280
29585W        W90896   0.370   3.313   3.258
29586W        W90897   9.260  30.087   2.737
29587W        W90898   1.431  10.645   2.853
29588W        W90899  32.902  22.117  13.952
29589W        W90900  31.103  12.237  11.101
29590W        W90901   4.376  29.637   3.820
29591W        W90902  14.133  13.117  12.457
29592W        W90903   4.321   0.834  13.479
29593W        W90904   8.203  40.400  14.416
29594W        W90905   7.270  38.392   3.232
29595W        W90906  24.544  43.943   4.669
29596W        W90907  13.222  12.660  13.450
29597W        W90908   9.381  15.625   4.149
29598W        W90909  28.116  34.007  13.822
29599W        W90910  38.834  11.228   3.808
29600W        W90911  10.155   2.275   2.325
29601W        W90912  40.037   6.182   3.823
29602W        W90913  12.642  17.733   0.329
29603W        W90914  17.123  38.864  12.958
29604W        W90915  15.113   8.285  14.822
29605W        W90916  42.796  33.449   4.751
29606W        W90917  24.196  24.208   2.754
29607W        W90918  28.630   5.802  13.468
29608W        W90919  14.613  29.008  14.433
29609W        W90920  13.680  33.528  12.944
29610W        W90921   7.366  26.072  14.956
29611W        W90922  21.710  39.555  10.499
29612W        W90923  24.666  17.258  12.531
29613W        W90924   7.220  26.509  14.463
29614W        W90925   9.782  19.196  14.847
29615W        W90926  27.028  34.863  10.066
29616W        W90927  17.230  32.005   1.711
29617W        W90928   7.728  32.980   0.918
29618W        W90929   1.435   5.209  12.999
29619W        W90930  36.085  31.516   0.447
29620W        W90931   8.657  31.072  12.946
29621W        W90932  30.437  11.341   0.950
29622W        W90933   6.729  41.042  14.444
29623W        W90934  21.018  28.992   4.826
29624W        W90935   7.733  35.413  14.367
29625W        W90936  27.579  21.671  10.968
29626W        W90937  15.647  38.509  13.012
29627W        W90938  27.552  41.913  14.333
29628W        W90939  32.991  31.459  13.379
29629W        W90940  21.583  20.713   1.782
29630W        W90941   5.314  23.162  10.434
29631W        W90942  16.709  22.021   3.221
29632W        W90943  37.508  38.383   1.243
29633W        W90944  32.072  11.712  12.394
29634W        W90945  30.586  10.740   1.756
29635W        W90946   5.349  19.220  13.795
29636W        W90947  30.544  32.628  13.401
29637W        W90948  12.721  10.788  11.519
29638W        W90949  16.808  22.579  13.399
29639W        W90950  36.979  35.002  11.470
29640W        W90951  26.493  18.562   5.138
29641W        W90952   6.856  19.140   3.632
29642W        W90953   1.242  30.500  14.824
29643W        W90954  19.581  26.645  11.117
29644W        W90955  13.189  36.574   1.214
29645W        W90956  24.215  23.036  10.993
29646W        W90957  37.079  44.768  13.934
29647W        W90958  27.080  40.513  13.885
29648W        W90959  12.840  24.496   5.088
29649W        W90960  37.842  12.259   1.717
29650W        W90961  40.504  26.065   3.304
29651W        W90962  38.070  15.206  10.529
29652W        W90963   7.343   1.962  11.052
29653W        W90964  11.243  30.649  13.850
29654W        W90965  16.081  28.610  14.451
29655W        W90966  23.214   2.471   2.358
29656W        W90967  22.073  31.051  13.507
29657W        W90968  11.294  39.385  14.804
29658W        W90969  40.927  30.467   2.355
29659W        W90970  33.500  30.914  12.458
29660W        W90971  23.675  31.553   2.812
29661W        W90972  44.347  31.503  14.419
29662W        W90973  28.129   7.246  12.408
29663W        W90974   0.452  33.512   3.372
29664W        W90975  44.389  19.740   3.245
29665W        W90976  39.516  13.223  13.367
29666W        W90977  13.616  40.811   4.615
29667W        W90978  14.682   1.779   4.660
29668W        W90979  37.533  28.483   1.396
29669W        W90980  20.113  22.539  12.344
29670W        W90981   2.915  40.033  12.824
29671W        W90982  40.419   4.277  11.990
29672W        W90983  14.272   3.320   1.367
29673W        W90984  24.990  10.313  13.480
29674W        W90985   8.770  40.546   2.818
29675W        W90986   8.745   7.388  13.036
29676W        W90987  17.200  21.648   2.364
29677W        W90988  17.722   5.323  11.069
29678W        W90989  39.951   7.779   3.707
29679W        W90990  30.433  18.087  13.348
29680W        W90991  37.038  16.733  14.887
29681W        W90992  24.987  31.528   4.608
29682W        W90993  15.768  17.216  10.039
29683W        W90994  17.726  19.137  12.443
29684W        W90995  16.767  28.596  14.004
29685W        W90996  29.633  31.971  11.561
29686W        W90997  10.143  39.378   2.795
29687W        W90998  20.200  20.136   2.301
29688W        W90999  36.523   3.827   0.736
29689W        W91000  12.814  32.133   1.345
29690W        W91001  35.948  33.464  11.063
29691W        W91002  28.999   2.926  14.978
29692W        W91003  24.076  32.583   3.715
29693W        W91004  16.667  12.823   1.905
29694W        W91005  29.051  15.613  10.514
29695W        W91006  14.252  42.786   3.323
29696W        W91007  15.211  35.062   4.212
29697W        W91008  30.100  16.244  12.475
29698W        W91009  11.769   6.331   4.759
29699W        W91010  33.493  27.081  10.911
29700W        W91011   3.297  36.899  13.024
29701W        W91012  40.806  38.934   5.246
29702W        W91013   6.727  28.508   3.707
29703W        W91014  38.534  42.337  12.512
29704W        W91015   4.366   1.419   0.399
29705W        W91016  23.169  32.091  12.035
29706W        W91017  18.553  33.960   4.293
29707W        W91018  11.662  30.484  13.938
29708W        W91019  24.103   8.273   0.908
29709W        W91020  20.635   7.329  10.893
29710W        W91021  21.602  10.355  13.998
29711W        W91022  39.392  40.349   5.275
29712W        W91023  13.728  35.067  11.550
29713W        W91024  37.996   8.656   4.827
29714W        W91025  32.449  17.597  14.988
29715W        W91026   2.330  42.388  12.042
29716W        W91027  37.852  31.585   1.873
29717W        W91028   6.702  29.004   4.654
29718W        W91029  17.108   7.300  14.890
29719W        W91030  39.861  39.878  11.470
29720W        W91031  22.561  38.940   0.876
29721W        W91032  16.078  30.956  14.322
29722W        W91033  16.599  44.262   1.385
29723W        W91034  29.169  44.323   3.328
29724W        W91035  35.403  31.127  14.881
29725W        W91036  29.549   6.688  13.958
29726W        W91037  10.239   9.870  14.810
29727W        W91038   0.900   3.377   2.221
29728W        W91039  26.110  30.087   2.718
29729W        W91040  17.208  17.106   0.800
29730W        W91041  17.640   9.349   2.795
29731W        W91042  35.866   7.358  10.442
29732W        W91043   4.868  36.861  13.448
29733W        W91044   8.695  13.630   3.279
29734W        W91045   3.834  20.109   1.361
29735W        W91046  30.950  31.065  11.890
29736W        W91047  30.069  39.907   0.343
29737W        W91048   5.740  14.605   1.922
29738W        W91049  17.632   8.343   4.750
29739W        W91050  10.777  38.999  13.479
29740W        W91051  14.261  20.610   0.900
29741W        W91052  15.248  29.932  12.360
29742W        W91053  10.712  14.207   4.713
29743W        W91054  21.259  14.120  13.800
29744W        W91055  30.581  13.131   4.610
29745W        W91056  37.488  31.426   2.744
29746W        W91057  12.747  39.557  14.414
29747W        W91058  32.133  22.664  13.501
29748W        W91059  12.672   1.942   3.224
29749W        W91060  42.476   2.721  13.368
29750W        W91061  38.047  15.672  11.465
29751W        W91062  29.577  23.127   3.796
29752W        W91063  16.175  23.023   0.288
29753W        W91064  14.203  40.851   0.398
29754W        W91065  35.579  14.251  10.626
29755W        W91066   0.316  28.066   4.655
29756W        W91067  25.081  38.525   0.773
29757W        W91068  18.227  34.934   4.279
29758W        W91069  13.165  14.670   2.285
29759W        W91070  36.386  41.510   2.872
29760W        W91071  28.933   2.943   4.341
29761W        W91072  34.113  43.788  14.845
29762W        W91073  40.835  33.500  11.567
29763W        W91074  25.551   3.448   5.311
29764W        W91075  42.884  39.528  14.289
29765W        W91076  41.445  11.750  12.494
29766W        W91077  39.554   0.801   3.243
29767W        W91078   7.261   3.327   1.771
29768W        W91079   0.454  37.026  11.579
29769W        W91080  32.438   9.861   2.708
29770W        W91081  27.447  21.632   4.292
29771W        W91082   3.859  43.998  13.892
29772W        W91083  44.306  16.585  10.095
29773W        W91084  13.303  35.982   2.310
29774W        W91085  37.491  13.116   1.779
29775W        W91086  30.433  27.007  14.412
29776W        W91087  39.413   5.204   4.314
29777W        W91088  24.088  36.960  11.441
29778W        W91089  15.270  22.018  14.996
29779W        W91090   0.263  13.280  11.514
29780W        W91091   8.234  26.123   3.759
29781W        W91092  26.555  19.048   1.392
29782W        W91093   3.814  10.322  14.487
29783W        W91094   9.369  35.973  10.498
29784W        W91095  36.399  41.940   3.204
29785W        W91096  25.578  14.725  11.863
29786W        W91097   8.790   0.401   4.775
29787W        W91098  34.464  19.177   3.221
29788W        W91099  27.524  40.995   3.701
29789W        W91100  11.367  37.998   1.294
29790W        W91101  31.081  21.643   3.300
29791W        W91102  27.137  17.080   3.730
29792W        W91103   9.889  38.560   3.159
29793W        W91104  40.419  34.588  11.454
29794W        W91105  16.794  10.751  11.981
29795W        W91106  18.295  44.845  14.031
29796W        W91107  30.932  41.398   2.373
29797W        W91108   5.327  32.448  10.490
29798W        W91109  42.490  26.564   1.883
29799W        W91110  31.644  11.783   1.752
29800W        W91111  16.209  41.918  11.381
29801W        W91112  20.735  38.928  14.364
29802W        W91113  29.428   3.751  12.454
29803W        W91114  37.460  16.147  14.379
29804W        W91115  15.104  35.954  14.774
29805W        W91116  20.091  43.961   4.229
29806W        W91117  14.660  10.753  12.008
29807W        W91118   1.406  44.897   2.234
29808W        W91119  30.942  37.964  13.379
29809W        W91120  26.159   5.431  12.456
29810W        W91121   5.747  33.889   3.635
29811W        W91122   8.309  34.985  13.405
29812W        W91123   0.839  21.109  10.071
29813W        W91124  12.291  33.081   4.727
29814W        W91125  18.735  23.007  10.984
29815W        W91126  40.831  21.171   4.747
29816W        W91127  19.696  32.982   4.629
29817W        W91128  24.540  39.995  12.022
29818W        W91129  30.018  34.048   3.157
29819W        W91130  16.296   0.350  11.108
29820W        W91131   8.773   9.311   0.400
29821W        W91132  19.230   9.889  14.858
29822W        W91133  21.084  10.664   3.210
29823W        W91134  39.338  34.064  14.761
29824W        W91135  31.603   7.240   0.309
29825W        W91136   5.865  44.380  10.630
29826W        W91137  36.946  15.748   3.780
29827W        W91138   2.320  23.164  10.624
29828W        W91139  35.013   3.367   2.767
29829W        W91140  34.499  25.219   1.264
29830W        W91141  14.312  22.659   0.807
29831W        W91142  30.071  39.860  11.106
29832W        W91143  11.180  27.092   2.343
29833W        W91144   6.740  37.448  12.342
29834W        W91145  13.835   9.216   4.169
29835W        W91146   4.735  18.684   3.767
29836W        W91147  19.707   7.405  11.428
29837W        W91148   2.381  44.331   4.771
29838W        W91149  41.957  28.007  14.435
29839W        W91150  19.704  42.836  10.000
29840W        W91151  40.462  37.839  12.426
29841W        W91152  35.971   1.479   2.747
29842W        W91153   9.799   6.388  11.118
29843W        W91154  26.703  23.551   4.604
29844W        W91155  14.648  24.184   1.887
29845W        W91156  26.603  31.907  10.999
29846W        W91157  25.052  27.143  13.523
29847W        W91158  15.178  20.668   2.293
29848W        W91159  17.237  24.560  11.521
29849W        W91160  10.863   1.297   1.826
29850W        W91161  32.627  27.460  13.343
29851W        W91162  23.519  21.063  13.372
29852W        W91163  32.951  25.142   3.172
29853W        W91164   8.800  38.554  13.312
29854W        W91165  31.922  16.569  13.003
29855W        W91166  44.269  18.106  13.377
29856W        W91167  24.000  27.115   0.914
29857W        W91168  16.760  39.485  13.030
29858W        W91169  27.152  18.649  13.834
29859W        W91170   8.697  40.961   0.780
29860W        W91171   6.856  15.589   9.536
29861W        W91172  26.039  13.744  13.969
29862W        W91173  26.661  22.019  11.937
29863W        W91174  17.705  16.226  13.468
29864W        W91175  43.895   9.178   2.246
29865W        W91176  25.607  34.513   4.738
29866W        W91177  38.023  39.854   1.733
29867W        W91178  22.213  10.169  13.034
29868W        W91179   0.329  29.013  11.891
29869W        W91180  11.355  15.292  11.464
29870W        W91181   3.859  43.287   4.838
29871W        W91182   5.331  18.185  11.109
29872W        W91183  15.309   0.837   1.311
29873W        W91184   5.781   5.849   2.865
29874W        W91185  20.765  43.809   2.888
29875W        W91186  26.554  39.489   3.277
29876W        W91187   2.455  10.671   4.285
29877W        W91188  11.304  42.830   3.802
29878W        W91189  28.017  32.494  13.826
29879W        W91190  36.951  11.736  12.531
29880W        W91191  10.180  21.603  14.971
29881W        W91192  19.116   4.364  14.422
29882W        W91193  26.999  40.025  13.842
29883W        W91194  22.165  28.110  14.794
29884W        W91195  18.101   4.387  12.867
29885W        W91196  32.108  27.588   4.827
29886W        W91197   6.788  13.718  12.480
29887W        W91198   3.383  17.696  12.076
29888W        W91199   2.398  15.783   0.315
29889W        W91200  21.062  28.677   2.763
29890W        W91201  32.077  10.268  14.964
29891W        W91202  43.006  33.919   4.811
29892W        W91203  13.843  25.986  11.855
29893W        W91204  10.182  17.706  12.918
29894W        W91205  30.417  15.705   3.657
29895W        W91206   8.686   3.899  14.022
29896W        W91207  40.507  26.033  13.442
29897W        W91208  20.645  44.851  12.457
29898W        W91209  32.565  31.600   4.152
29899W        W91210  42.374  37.572  14.868
29900W        W91211  39.828  10.206  14.955
29901W        W91212  22.079  19.193   3.308
29902W        W91213  24.591  27.514  13.495
29903W        W91214  41.965  29.487  11.910
29904W        W91215  19.170  33.010  12.007
29905W        W91216  11.172  37.891  12.435
29906W        W91217   5.251  32.541  11.916
29907W        W91218  26.608  42.887  14.352
29908W        W91219  17.557  24.034  12.459
29909W        W91220  30.603  18.067   1.850
29910W        W91221  14.179  32.600   2.304
29911W        W91222  42.290  37.901   2.194
29912W        W91223  27.125  24.510   0.911
29913W        W91224   6.184  22.524   2.804
29914W        W91225  39.913  26.656  11.461
29915W        W91226  18.620  14.590   1.437
29916W        W91227  25.596  37.543   4.832
29917W        W91228  41.378  40.020  10.506
29918W        W91229  41.849  30.087  14.901
29919W        W91230  22.720  32.604  12.406
29920W        W91231  22.536  24.064  14.023
29921W        W91232  39.031   7.729   3.650
29922W        W91233  40.819  40.874  14.461
29923W        W91234   6.741  40.922   3.730
29924W        W91235  19.187  15.736  12.036
29925W        W91236  35.035   4.334   2.288
29926W        W91237  16.297   3.260   2.234
29927W        W91238  32.477  11.639  13.430
29928W        W91239   5.821  26.569  13.317
29929W        W91240  16.676  29.983  11.533
29930W        W91241  36.382   1.876   5.178
29931W        W91242  10.761  38.462   1.786
29932W        W91243  41.868  35.365   2.694
29933W        W91244  21.552   3.396   2.682
29934W        W91245  25.188  40.046   4.691
29935W        W91246  42.948  14.270  11.389
29936W        W91247  41.992  42.820  11.074
29937W        W91248  27.042  17.203  11.553
29938W        W91249  16.166  17.745   1.865
29939W        W91250   5.283  29.025   2.805
29940W        W91251  17.586  24.074  14.444
29941W        W91252  15.319  38.852   0.343
29942W        W91253  31.126  43.470   0.880
29943W        W91254   5.705  37.021  13.424
29944W        W91255  20.252   5.830   2.900
29945W        W91256  27.576  38.943  10.941
29946W        W91257   9.386  15.271  13.859
29947W        W91258   5.697  15.783  14.777
29948W        W91259   8.855  21.681  10.528
29949W        W91260  36.449  35.882  10.115
29950W        W91261   2.432  10.373  12.485
29951W        W91262  40.362  17.200   0.433
29952W        W91263  38.571  36.962   2.256
29953W        W91264   6.416   5.722  13.832
29954W        W91265  20.581  31.529   4.318
29955W        W91266  17.070  32.116  13.320
29956W        W91267   7.286  31.068  13.410
29957W        W91268   0.981  10.700  12.871
29958W        W91269  32.941   3.411   2.676
29959W        W91270  26.090  12.635  12.081
29960W        W91271  28.932   0.361  14.985
29961W        W91272  15.698  40.497   0.479
29962W        W91273  26.633  30.556  11.602
29963W        W91274  36.354   1.740   0.408
29964W        W91275  30.631  28.076  10.950
29965W        W91276   7.740   3.428  10.148
29966W        W91277  23.192  41.015   0.409
29967W        W91278  44.321  42.854   2.384
29968W        W91279  44.284  19.693   4.710
29969W        W91280  20.549   2.262  11.461
29970W        W91281   6.898  29.611   0.928
29971W        W91282  35.467  17.208   2.350
29972W        W91283  42.029  42.819   2.276
29973W        W91284  35.095  24.537  13.058
29974W        W91285  34.506  34.508  14.338
29975W        W91286  25.194  38.043   2.769
29976W        W91287  40.438  40.304   3.632
29977W        W91288  39.431  39.813  12.509
29978W        W91289  15.757   5.345   5.230
29979W        W91290  24.994  39.006  10.892
29980W        W91291  21.195  25.049  12.389
29981W        W91292  42.471  22.736  12.570
29982W        W91293  21.249   7.852  11.474
29983W        W91294  38.064  21.742  11.961
29984W        W91295   0.317  27.520   3.265
29985W        W91296  31.946  44.821  11.927
29986W        W91297  23.674  40.802   0.778
29987W        W91298  18.219  17.570   4.797
29988W        W91299  14.269  24.631  13.449
29989W        W91300   5.918  21.045  14.408
29990W        W91301  11.646  13.676  10.524
29991W        W91302  22.573  19.554  12.857
29992W        W91303  29.628  44.859   2.729
29993W        W91304  19.556  27.133  10.983
29994W        W91305  42.018   5.771  10.101
29995W        W91306  13.737  37.496   3.727
29996W        W91307   5.347  32.067  11.448
29997W        W91308  13.650  10.783   0.424
29998W        W91309  26.971  33.463   1.256
29999W        W91310  23.589   7.234  11.057
30000W        W91311  36.560  33.058  12.489
30001W        W91312   8.756   3.859  12.442
30002W        W91313   0.970  13.208  12.861
30003W        W91314  16.619   9.675   0.309
30004W        W91315  22.594  26.512   3.252
30005W        W91316  28.959  16.211   1.322
30006W        W91317  26.556   0.888   2.213
30007W        W91318  32.544  35.912  12.076
30008W        W91319  35.951  14.197  12.879
30009W        W91320   9.220  25.155   2.702
30010W        W91321  10.299  43.953   4.227
30011W        W91322   2.316   3.314  13.990
30012W        W91323   7.211  12.361   4.230
30013W        W91324  38.366  44.501  14.491
30014W        W91325   6.856   0.788   1.308
30015W        W91326   1.802  31.050  13.822
30016W        W91327  42.952  25.065  12.012
30017W        W91328  28.171  17.122  13.061
30018W        W91329  44.869  21.626  12.883
30019W        W91330  20.695   7.247  11.566
30020W        W91331  38.876   7.894  11.385
30021W        W91332  24.049  38.561   5.136
30022W        W91333   8.829   0.401  11.567
30023W        W91334  30.964  44.335  11.586
30024W        W91335   6.897  17.300   1.870
30025W        W91336  31.964  26.545  10.450
30026W        W91337   3.429   1.252   3.271
30027W        W91338  44.001  34.571   0.747
30028W        W91339  27.460  36.512  12.876
30029W        W91340  11.801  40.974   2.842
30030W        W91341   1.873  30.156  13.998
30031W        W91342  13.816  17.146   4.249
30032W        W91343   6.282  19.065   0.300
30033W        W91344  11.201  13.739  11.007
30034W        W91345  30.562  16.602   1.738
30035W        W91346  12.701  26.982  11.890
30036W        W91347  44.994   5.885   2.253
30037W        W91348  44.350  26.955   4.209
30038W        W91349  21.026   4.769   0.403
30039W        W91350  23.590  27.034  13.989
30040W        W91351  20.107  33.610   4.743
30041W        W91352   7.332  34.532  12.483
30042W        W91353  19.094  37.542  14.930
30043W        W91354  23.632  40.452   3.268
30044W        W91355   2.335  25.478   0.779
30045W        W91356  24.644  24.035   0.766
30046W        W91357  11.641   6.837   4.273
30047W        W91358  44.389  41.427   1.867
30048W        W91359  37.564   1.377  13.949
30049W        W91360  34.960  38.007   2.826
30050W        W91361  30.503   1.846  10.896
30051W        W91362  38.332  42.340   3.696
30052W        W91363  44.895  28.994  14.916
30053W        W91364  14.694   1.333  12.986
30054W        W91365  26.490  34.872  12.557
30055W        W91366   2.463  42.474  10.471
30056W        W91367  40.502   7.378  10.618
30057W        W91368  28.941   4.415  10.611
30058W        W91369  25.486  27.558   2.676
30059W        W91370  25.513  15.122   1.816
30060W        W91371  38.512  31.071   3.867
30061W        W91372  14.248  23.037  13.792
30062W        W91373  15.181  31.545   4.606
30063W        W91374  13.144   1.321   4.605
30064W        W91375  13.838   7.363   1.406
30065W        W91376  23.540   2.417   4.277
30066W        W91377  28.467  19.096   2.813
30067W        W91378  42.500  43.874   4.744
30068W        W91379  15.704  30.644  10.050
30069W        W91380  12.233  19.668   4.145
30070W        W91381  20.744   2.366   0.921
30071W        W91382  14.277  22.102   2.822
30072W        W91383  29.506  27.976  13.046
30073W        W91384  28.586  32.434   2.284
30074W        W91385  36.064  39.514   0.291
30075W        W91386  13.200   9.753   0.870
30076W        W91387  33.606   2.774   1.441
30077W        W91388   7.710  33.435  12.936
30078W        W91389  36.925  33.022   1.273
30079W        W91390  44.316  14.221   3.155
30080W        W91391   5.773  23.507   1.889
30081W        W91392  35.094  44.261   3.715
30082W        W91393  27.481   7.673  13.860
30083W        W91394  26.016  34.001   3.185
30084W        W91395  41.804  24.978   1.360
30085W        W91396   6.423  18.216   4.604
30086W        W91397   1.962  36.366   2.218
30087W        W91398  38.946  34.002   3.763
30088W        W91399  15.320   8.784  12.840
30089W        W91400   3.792  28.162  12.548
30090W        W91401  33.986  19.140   0.353
30091W        W91402   0.770  37.380   0.908
30092W        W91403  23.538  14.184   4.163
30093W        W91404  33.384  43.313  10.902
30094W        W91405  14.692  41.400   3.211
30095W        W91406  37.070   2.228   1.896
30096W        W91407  11.717  44.372   4.839
30097W        W91408  12.624  18.707  12.513
30098W        W91409  30.528   7.897   1.384
30099W        W91410  33.451  13.262   1.859
30100W        W91411  29.453  11.229  12.544
30101W        W91412   4.309   9.672   1.213
30102W        W91413  24.213  31.054   4.648
30103W        W91414  19.268   1.844   2.203
30104W        W91415   2.305  32.402  14.421
30105W        W91416  28.529  43.442  12.865
30106W        W91417  28.588   6.891   4.270
30107W        W91418   1.823  14.308   0.772
30108W        W91419  20.038  14.185  11.452
30109W        W91420  25.676   6.717   0.912
30110W        W91421  33.601  34.074   1.788
30111W        W91422  28.180   3.844  13.437
30112W        W91423  44.011  39.360  12.998
30113W        W91424   9.369  11.339  14.444
30114W        W91425   5.365  15.254   0.816
30115W        W91426  11.156   8.218  10.520
30116W        W91427   6.897  44.344   1.782
30117W        W91428   7.872  25.036  10.405
30118W        W91429  15.811  38.566   3.223
30119W        W91430   0.461   6.253   0.855
30120W        W91431   5.797  37.483  14.339
30121W        W91432  11.165  17.063   3.765
30122W        W91433  44.848  40.443  14.456
30123W        W91434   8.894  14.656   0.474
30124W        W91435  19.606  30.955   5.097
30125W        W91436   8.832   7.857  12.038
30126W        W91437  23.105  28.046  12.419
30127W        W91438  10.799  18.213  13.312
30128W        W91439  24.697  36.956   1.779
30129W        W91440   0.427  18.682  13.861
30130W        W91441  43.285  32.605   4.260
30131W        W91442  12.821  24.126   9.444
30132W        W91443   5.326  41.332  14.504
30133W        W91444  43.930  44.853  12.373
30134W        W91445  14.654  43.277   1.706
30135W        W91446  18.202  17.122  10.425
30136W        W91447   6.835  28.448  14.769
30137W        W91448  32.545  14.334   5.177
30138W        W91449  17.798   3.793   0.880
30139W        W91450  27.947  38.570  12.410
30140W        W91451  28.010  11.309   3.801
30141W        W91452   6.237  23.716   1.442
30142W        W91453  24.216  38.352   0.462
30143W        W91454   5.226   9.756  12.395
30144W        W91455  21.061  28.002  14.289
30145W        W91456   7.256  43.930   0.864
30146W        W91457   2.302  30.610  10.926
30147W        W91458   6.319  11.865   4.700
30148W        W91459  32.551  23.170   1.364
30149W        W91460  16.251   7.205   0.784
30150W        W91461  38.822  41.397  13.488
30151W        W91462  42.395  10.223  14.020
30152W        W91463   6.422  40.021  13.324
30153W        W91464  42.833  25.163   3.698
30154W        W91465  23.090  10.776  12.422
30155W        W91466  22.506  38.332   1.744
30156W        W91467  10.743  20.175   3.218
30157W        W91468  11.665   9.327   3.639
30158W        W91469  13.832  31.925  11.551
30159W        W91470  16.700  41.007   1.364
30160W        W91471   4.893  24.714   4.347
30161W        W91472  10.802  33.912   2.299
30162W        W91473   6.885  24.146  14.317
30163W        W91474   0.884  35.068   4.240
30164W        W91475   2.292  10.375   3.746
30165W        W91476   3.402  44.284   4.790
30166W        W91477  13.111  14.315  12.083
30167W        W91478   6.871  40.034  12.512
30168W        W91479   7.667  44.369   2.357
30169W        W91480  34.118   8.388   0.353
30170W        W91481  38.479  25.639  12.339
30171W        W91482  13.717  32.616  14.771
30172W        W91483   4.212  27.956   4.736
30173W        W91484  27.692  35.872  11.971
30174W        W91485   2.334  36.914  12.046
30175W        W91486  32.637   8.831   5.145
30176W        W91487   7.328  35.501   0.907
30177W        W91488  24.151  21.612   3.805
30178W        W91489  21.567  19.276  13.054
30179W        W91490  38.345   5.411  12.003
30180W        W91491  23.175   4.863  10.470
30181W        W91492   7.275   8.385  14.481
30182W        W91493  10.265   9.264  11.413
30183W        W91494  11.222  11.334   4.153
30184W        W91495  25.047   2.860   1.217
30185W        W91496  15.243  16.308   1.406
30186W        W91497  27.069  27.092  11.943
30187W        W91498  31.025  16.608   1.411
30188W        W91499   5.432   4.224  12.914
30189W        W91500   9.213  18.594   1.803
30190W        W91501  36.845   1.459  14.418
30191W        W91502  42.347  35.020   1.789
30192W        W91503  30.449  38.372   4.727
30193W        W91504  26.134  31.119  12.956
30194W        W91505   3.412   8.329   2.216
30195W        W91506   3.459  22.111  13.457
30196W        W91507  20.621  23.084   4.691
30197W        W91508   8.206  40.466   4.628
30198W        W91509  42.909   5.782   1.826
30199W        W91510  36.884  37.042   2.376
30200W        W91511  37.451  17.620  12.375
30201W        W91512  24.092  41.871  12.398
30202W        W91513  12.119   1.759   2.742
30203W        W91514  27.640  19.699  13.335
30204W        W91515  14.102  42.808  12.876
30205W        W91516  16.725  29.938   3.322
30206W        W91517  29.042  10.233  11.594
30207W        W91518   3.768  14.805   1.327
30208W        W91519  38.025  34.015   3.306
30209W        W91520  42.906  10.295  13.441
30210W        W91521  16.178   2.867   5.261
30211W        W91522   5.406  34.572  11.932
30212W        W91523   7.382  10.278  12.475
30213W        W91524  35.078  22.661   2.357
30214W        W91525  24.667  33.034  11.564
30215W        W91526   0.955   0.983   2.877
30216W        W91527   7.804   5.198  11.041
30217W        W91528  43.809  33.094   4.168
30218W        W91529  44.872  20.603   2.338
30219W        W91530  18.700  10.697  12.434
30220W        W91531   3.270  10.231  13.022
30221W        W91532  15.322  32.997  11.882
30222W        W91533  24.676  24.087  12.984
30223W        W91534  24.677  42.456   0.863
30224W        W91535  43.280  26.499  12.400
30225W        W91536  43.823  33.429  13.323
30226W        W91537  29.455  14.123  14.352
30227W        W91538  35.962  42.448   2.685
30228W        W91539  39.003   3.870  11.472
30229W        W91540  16.242   2.370   1.810
30230W        W91541  15.604  38.074  13.054
30231W        W91542   7.806   6.899   3.825
30232W        W91543  38.933  29.498  13.865
30233W        W91544  42.998  20.189   4.689
30234W        W91545  18.738  43.826  12.554
30235W        W91546   9.215  44.329  14.840
30236W        W91547  28.651   6.804  14.807
30237W        W91548  36.947  44.402  14.868
30238W        W91549  43.983  34.921   4.346
30239W        W91550   4.368  15.728   2.351
30240W        W91551  35.046  42.297   3.379
30241W        W91552  41.978  19.159  13.349
30242W        W91553  12.235  20.681  10.944
30243W        W91554  21.628  34.493   2.190
30244W        W91555   3.214   9.643   2.777
30245W        W91556  15.799  14.334   2.203
30246W        W91557  12.737   5.724   0.790
30247W        W91558  39.029  30.599  13.413
30248W        W91559  35.525  29.117  14.276
30249W        W91560  10.197  39.808  10.132
30250W        W91561  22.009  13.821   1.905
30251W        W91562   2.360  22.650   2.208
30252W        W91563  38.410  31.948  12.022
30253W        W91564  44.275  37.083   2.197
30254W        W91565  12.802  43.967  14.323
30255W        W91566  35.501  24.147   1.702
30256W        W91567   2.753  29.519   2.684
30257W        W91568  30.967  19.636   2.851
30258W        W91569  32.958  11.347   0.917
30259W        W91570  23.492  29.494   3.248
30260W        W91571  22.580  20.036  12.061
30261W        W91572  28.445  33.594   0.950
30262W        W91573   1.865  32.018  11.989
30263W        W91574  39.474   5.336   1.884
30264W        W91575   9.332  41.303   5.130
30265W        W91576  34.975   6.808   4.672
30266W        W91577  22.189   8.779  12.946
30267W        W91578  12.167  15.760  11.887
30268W        W91579  16.803  19.732  10.585
30269W        W91580  29.071  36.407  12.060
30270W        W91581  43.770   0.865  10.472
30271W        W91582  14.672  19.754  10.129
30272W        W91583  39.389   1.448  10.987
30273W        W91584  31.451   3.883   4.168
30274W        W91585  21.042   3.311   3.245
30275W        W91586   6.248  44.313  14.967
30276W        W91587  20.254  13.733  14.959
30277W        W91588  41.913  26.524   3.307
30278W        W91589  44.966  29.627  13.859
30279W        W91590  30.991  33.594   2.805
30280W        W91591  31.065  27.528   2.185
30281W        W91592  18.294  42.846   3.265
30282W        W91593  16.730   3.407  11.467
30283W        W91594  42.873  20.035  11.037
30284W        W91595  40.363  33.936  12.423
30285W        W91596  12.261  44.772   2.734
30286W        W91597  14.265  11.716  14.305
30287W        W91598  22.662  37.490   4.713
30288W        W91599   7.714  17.725   4.743
30289W        W91600  18.595  37.520   3.303
30290W        W91601   8.768  21.073  14.877
30291W        W91602   9.853  20.067   4.647
30292W        W91603   2.377  37.840   0.931
30293W        W91604  38.442  15.764  13.963
30294W        W91605   9.212  29.513  12.991
30295W        W91606  10.351   0.458   2.838
30296W        W91607  33.931  23.079  14.449
30297W        W91608  31.547  24.170   0.754
30298W        W91609  12.229  27.647  14.438
30299W        W91610   2.289  37.871   1.366
30300W        W91611  20.690  17.167  11.498
30301W        W91612  16.758  24.703  13.889
30302W        W91613  32.940   0.307  12.537
30303W        W91614  12.318   6.291  10.005
30304W        W91615  13.338  17.697   3.191
30305W        W91616  40.996   2.399   4.149
30306W        W91617  24.032   7.886  14.843
30307W        W91618  35.004  26.674   1.751
30308W        W91619  13.767  37.929   2.780
30309W        W91620   3.784  30.077   0.242
30310W        W91621  25.689  38.362   4.813
30311W        W91622  25.214  43.949  13.426
30312W        W91623  11.365  35.993  11.973
30313W        W91624  40.847  11.714   0.467
30314W        W91625  23.171   2.470  12.991
30315W        W91626   7.355  14.307   3.173
30316W        W91627  33.116  13.641   4.767
30317W        W91628   7.828  30.137  10.567
30318W        W91629  29.968  34.432   2.205
30319W        W91630  32.465  33.073   3.660
30320W        W91631  15.792  16.091   1.903
30321W        W91632  38.070  43.292  14.901
30322W        W91633   8.264   5.850   0.880
30323W        W91634  36.841  44.886   4.625
30324W        W91635  37.394  19.589  12.578
30325W        W91636  34.064  30.562   4.608
30326W        W91637   1.259  35.008   0.786
30327W        W91638  37.356   5.771   0.802
30328W        W91639   6.696   1.775  12.917
30329W        W91640  26.466  33.885  13.030
30330W        W91641   6.224  31.048   2.372
30331W        W91642  28.158   6.854   1.720
30332W        W91643  15.772  37.912   0.366
30333W        W91644  38.340  14.784  10.596
30334W        W91645  13.267  39.422   4.700
30335W        W91646   1.326   8.309   3.751
30336W        W91647  30.952  29.089  14.957
30337W        W91648  20.115  17.300  11.902
30338W        W91649  14.235  43.898   0.429
30339W        W91650   9.723  18.217   2.668
30340W        W91651  28.037   3.230  14.826
30341W        W91652  29.156  44.370   1.812
30342W        W91653   7.287   7.684  12.901
30343W        W91654  15.098  23.054  14.349
30344W        W91655   3.223   6.841  11.918
30345W        W91656  36.048   2.853   4.173
30346W        W91657   8.867  38.495   3.256
30347W        W91658  23.026   8.268   0.848
30348W        W91659  26.110  42.892   3.646
30349W        W91660  39.002   1.767  12.828
30350W        W91661  20.030  25.214   4.837
30351W        W91662  22.083  43.935  11.048
30352W        W91663   7.845  20.037  12.991
30353W        W91664  35.095  23.706  14.472
30354W        W91665  26.526  41.864  10.597
30355W        W91666   0.765  35.997   5.299
30356W        W91667  22.124  40.906   4.675
30357W        W91668  36.494  28.474   4.833
30358W        W91669   2.280  12.684   2.407
30359W        W91670   2.226  10.302  13.926
30360W        W91671  26.464  20.059  12.455
30361W        W91672  26.050  29.559  13.855
30362W        W91673  28.137  44.286   3.790
30363W        W91674  22.637  32.456   2.860
30364W        W91675  41.387   1.366   1.391
30365W        W91676  22.210  28.465   1.224
30366W        W91677  12.679  31.564  13.312
30367W        W91678  15.213  11.621  12.510
30368W        W91679  23.200   2.330   2.676
30369W        W91680   5.814  25.520  11.008
30370W        W91681   1.313  38.350   0.393
30371W        W91682  12.135   4.231   0.471
30372W        W91683   3.840  24.710   3.330
30373W        W91684  19.108  12.338  12.446
30374W        W91685   9.235  16.092  13.018
30375W        W91686  32.584  40.873   0.366
30376W        W91687  18.584   5.741   2.740
30377W        W91688  36.411  27.636  13.869
30378W        W91689   5.857   6.296  14.348
30379W        W91690  22.120  28.098  13.318
30380W        W91691  30.656   2.807  14.797
30381W        W91692  25.481   3.902   2.718
30382W        W91693  23.522  41.394   0.292
30383W        W91694  18.292  34.106  12.903
30384W        W91695  16.674   8.722  13.979
30385W        W91696  33.432  24.034  12.075
30386W        W91697  28.664  15.121  14.278
30387W        W91698  20.698  19.254  11.882
30388W        W91699  28.104  31.046  14.353
30389W        W91700  44.399  39.488   4.280
30390W        W91701  30.564  44.849  14.973
30391W        W91702  38.988   5.766   0.888
30392W        W91703  18.283  43.305   1.336
30393W        W91704   1.280  44.484  12.081
30394W        W91705  24.136  43.483   1.277
30395W        W91706  34.031  43.344   3.155
30396W        W91707   0.984   0.249   0.376
30397W        W91708   0.881  21.623   3.697
30398W        W91709  15.296   1.898  12.373
30399W        W91710   2.343   2.952  10.976
30400W        W91711   6.707  37.358  14.479
30401W        W91712  44.863  16.576  14.454
30402W        W91713  21.150  20.186  12.364
30403W        W91714  43.833  15.230   2.182
30404W        W91715  21.633  24.611   0.931
30405W        W91716  12.621  11.755   2.397
30406W        W91717  29.455  36.878   4.227
30407W        W91718  10.667   3.367  14.970
30408W        W91719   1.280  20.683   0.966
30409W        W91720  37.994  14.681  13.896
30410W        W91721   6.922  19.183  13.812
30411W        W91722  34.041  34.997  14.768
30412W        W91723  35.888   5.318   4.762
30413W        W91724  38.434  33.018   3.153
30414W        W91725   6.815  17.128   4.660
30415W        W91726  27.120  41.477  14.298
30416W        W91727  16.747   3.928   4.203
30417W        W91728  28.937  36.936  14.387
30418W        W91729   6.368  35.408  13.871
30419W        W91730  16.254  26.529  14.371
30420W        W91731  10.259  13.844   0.306
30421W        W91732  33.046  33.992   3.804
30422W        W91733   9.200   0.817   1.377
30423W        W91734  38.831   9.161  10.103
30424W        W91735   2.330   2.447   1.819
30425W        W91736   1.294  15.644  11.913
30426W        W91737  33.920  37.926   0.461
30427W        W91738  39.444  32.100  13.492
30428W        W91739   1.806  13.222   2.751
30429W        W91740   7.670  10.774  13.466
30430W        W91741  29.138  38.529   2.383
30431W        W91742  44.310  43.781   2.716
30432W        W91743  39.972  16.746   2.669
30433W        W91744  16.163  29.529  11.855
30434W        W91745   6.834  24.987  11.984
30435W        W91746  44.840  15.237   3.690
30436W        W91747  35.963  42.419  12.943
30437W        W91748  11.322  17.738   0.382
30438W        W91749  37.986   6.396  13.040
30439W        W91750  43.765  14.118   0.401
30440W        W91751  21.512  12.316   2.691
30441W        W91752  37.983  43.020   9.445
30442W        W91753  11.796  36.069  12.469
30443W        W91754   4.225  23.497   2.366
30444W        W91755   6.330  41.297  14.960
30445W        W91756  16.649  43.507   3.671
30446W        W91757  34.443  24.716  11.082
30447W        W91758  39.490  16.617  13.817
30448W        W91759  22.088  41.882   3.836
30449W        W91760  33.919  43.338   4.808
30450W        W91761   3.240  37.917  11.092
30451W        W91762  10.209   9.229   3.280
30452W        W91763   6.236   9.213  10.503
30453W        W91764  24.118  18.563  12.856
30454W        W91765  21.222  19.603   1.804
30455W        W91766   8.278  38.544  11.524
30456W        W91767   1.277  10.868  11.901
30457W        W91768   1.381  36.877  14.974
30458W        W91769   4.273  28.607  13.032
30459W        W91770  23.093  11.802   3.377
30460W        W91771  33.119   7.882  11.954
30461W        W91772   1.433  26.591  11.967
30462W        W91773  32.479  38.014  12.929
30463W        W91774  30.544   9.156   3.289
30464W        W91775  20.755  23.547   3.314
30465W        W91776   6.916  25.649  14.858
30466W        W91777  15.325  17.262  11.097
30467W        W91778  22.515  41.537  10.597
30468W        W91779  34.545  15.581   2.678
30469W        W91780  44.756  40.038   0.890
30470W        W91781  22.736  36.953  11.457
30471W        W91782   9.280  37.066   3.868
30472W        W91783  17.788  35.888   2.288
30473W        W91784  31.508  42.401  13.809
30474W        W91785  27.565  17.226   3.680
30475W        W91786  30.982   8.327   4.828
30476W        W91787   4.441   3.764   1.817
30477W        W91788   1.413  10.252   4.283
30478W        W91789  27.133  32.983   3.788
30479W        W91790  41.802  21.088   2.812
30480W        W91791  26.694  15.754   4.204
30481W        W91792  19.558  29.144   4.310
30482W        W91793  27.487  40.045   1.295
30483W        W91794  24.661  29.970  14.020
30484W        W91795  42.023   9.679   0.469
30485W        W91796  38.864   9.816   3.328
30486W        W91797  41.812  17.097   1.724
30487W        W91798   9.313  13.242   3.174
30488W        W91799  21.537  23.995  12.887
30489W        W91800  43.471  37.884  14.920
30490W        W91801  18.547  34.450   2.224
30491W        W91802  29.919  19.046   0.821
30492W        W91803  41.880  31.619   0.417
30493W        W91804  31.022   0.803   1.392
30494W        W91805  30.508   7.257   0.736
30495W        W91806  12.723   3.796  12.575
30496W        W91807   7.319  22.545  13.862
30497W        W91808   9.818  42.822   5.138
30498W        W91809  15.301  24.610  13.843
30499W        W91810   6.758  16.596   4.712
30500W        W91811  39.909   0.838   2.261
30501W        W91812  17.160  19.112  11.952
30502W        W91813  25.995  21.587  12.480
30503W        W91814  18.697  36.523   1.230
30504W        W91815  18.728  23.115   1.880
30505W        W91816   6.428   4.429   2.771
30506W        W91817   4.759   2.728  12.050
30507W        W91818  37.903  14.689  12.984
30508W        W91819  23.080  43.477  10.643
30509W        W91820  30.558  42.454   1.861
30510W        W91821   0.336   7.684  10.579
30511W        W91822  42.977   5.231   4.166
30512W        W91823  21.530  25.012   0.806
30513W        W91824  20.577  38.501   1.865
30514W        W91825  24.708   0.900  11.919
30515W        W91826  21.618  14.291   4.235
30516W        W91827   3.353   4.430   0.938
30517W        W91828   0.248   7.413   0.430
30518W        W91829  25.031  12.306  14.376
30519W        W91830  24.083  34.440  10.892
30520W        W91831  31.413   6.687   2.271
30521W        W91832  38.969  10.859   4.651
30522W        W91833  32.043  43.876  11.470
30523W        W91834  27.972   1.263   4.157
30524W        W91835  34.063  37.429   4.223
30525W        W91836  22.646   3.323  11.531
30526W        W91837  44.503  36.397  11.878
30527W        W91838  14.096   0.313   4.184
30528W        W91839  18.105  19.552  13.034
30529W        W91840  31.439   1.807  14.829
30530W        W91841  36.053   6.813   0.942
30531W        W91842  24.670  33.617   3.342
30532W        W91843  24.583  14.131   3.704
30533W        W91844  16.228  25.189   0.816
30534W        W91845   2.419  33.437   2.683
30535W        W91846   7.254  44.445  13.437
30536W        W91847  39.466  35.567   4.744
30537W        W91848  27.520  27.574   4.276
30538W        W91849  16.790  31.603   4.317
30539W        W91850  28.015   9.657  14.429
30540W        W91851  22.009   2.946   2.832
30541W        W91852  16.644  18.597  13.415
30542W        W91853   7.876   2.954   3.176
30543W        W91854  21.242  26.623   4.161
30544W        W91855  19.257   6.236  13.502
30545W        W91856  42.417  27.120   0.424
30546W        W91857   0.845   3.772  12.977
30547W        W91858   0.416  33.619  13.920
30548W        W91859  16.626  20.645  10.449
30549W        W91860  43.901  36.097  13.049
30550W        W91861  42.403  25.503  13.032
30551W        W91862  41.947  32.039   2.696
30552W        W91863  30.494   5.233   3.792
30553W        W91864   9.753  36.851   1.889
30554W        W91865  19.613  24.597   0.353
30555W        W91866  39.882  29.164   2.383
30556W        W91867  31.454  31.980  12.356
30557W        W91868  33.517  23.521  12.388
30558W        W91869   6.914   2.926  12.049
30559W        W91870   0.457  19.282   3.710
30560W        W91871   3.320  15.755   0.248
30561W        W91872  44.778  20.259   0.952
30562W        W91873   3.383   5.230  14.966
30563W        W91874  19.189  21.605  11.113
30564W        W91875  20.752  30.022  13.472
30565W        W91876   6.359  28.457  13.318
30566W        W91877  31.152  27.657   3.154
30567W        W91878  17.245  42.915   3.657
30568W        W91879   2.459   9.697   1.447
30569W        W91880   9.370  33.535  11.552
30570W        W91881  27.121  39.542  14.473
30571W        W91882  11.248  13.347   1.905
30572W        W91883  41.975  40.950  14.877
30573W        W91884  20.252  36.376   3.271
30574W        W91885  15.324  31.639  10.905
30575W        W91886  23.688   2.420  12.905
30576W        W91887  10.308  26.956  13.490
30577W        W91888  13.327  22.609   2.848
30578W        W91889   9.289  11.136   0.399
30579W        W91890  13.312  40.367   1.380
30580W        W91891  11.328   5.348  12.844
30581W        W91892  15.819  14.629   1.309
30582W        W91893  26.481   5.259   0.734
30583W        W91894  27.683  29.973  13.021
30584W        W91895  12.130  20.524  13.346
30585W        W91896  34.374  32.989  12.086
30586W        W91897  26.127  14.709  10.988
30587W        W91898  30.062  19.271   2.731
30588W        W91899  17.650  11.134   1.772
30589W        W91900   6.344  18.752   3.699
30590W        W91901  20.613  30.150   4.303
30591W        W91902  33.579   8.353   4.171
30592W        W91903   4.327  16.734   3.226
30593W        W91904  32.917   8.730  14.795
30594W        W91905  33.969  28.170  13.482
30595W        W91906  41.318   4.354  10.530
30596W        W91907  41.518  20.177   1.891
30597W        W91908  20.110  15.641   0.814
30598W        W91909  26.200  43.952  11.973
30599W        W91910  23.991  37.516  11.107
30600W        W91911  27.111  37.881   0.251
30601W        W91912  17.304   2.372   0.422
30602W        W91913  36.411  21.653   2.293
30603W        W91914  33.583  43.778  10.084
30604W        W91915  34.594  44.337  11.500
30605W        W91916  16.629  32.946   1.860
30606W        W91917  34.508   9.691  13.920
30607W        W91918  27.571  44.358  11.402
30608W        W91919  43.777  44.417  10.939
30609W        W91920   0.941  17.687  11.998
30610W        W91921   9.255  25.473  11.085
30611W        W91922  39.031  17.224  13.405
30612W        W91923  27.692  40.883   1.934
30613W        W91924  43.979  34.428  11.040
30614W        W91925  37.373  20.225  10.419
30615W        W91926   5.876   9.245   0.826
30616W        W91927  36.522  36.852   2.722
30617W        W91928  27.987  42.871   1.839
30618W        W91929  10.324  12.141   1.711
30619W        W91930  36.542   8.668   2.199
30620W        W91931  12.831  12.667   1.706
30621W        W91932  23.539  41.969   3.220
30622W        W91933  39.908  33.107   0.773
30623W        W91934   9.169  23.197   0.339
30624W        W91935  44.885  24.230  11.923
30625W        W91936  21.224  38.543   4.171
30626W        W91937  20.733  17.278  12.498
30627W        W91938   9.764  30.436  13.381
30628W        W91939  40.524  26.531   4.300
30629W        W91940  11.330  33.407  12.361
30630W        W91941  35.404  35.865  10.892
30631W        W91942   3.394   7.717   3.380
30632W        W91943  17.789  37.476  13.482
30633W        W91944   7.709  35.984   2.314
30634W        W91945  28.465  19.059  14.820
30635W        W91946  31.579   9.393   0.367
30636W        W91947  15.712  30.085  13.345
30637W        W91948   6.698  18.718  10.476
30638W        W91949  14.132  23.573  14.865
30639W        W91950  43.967   6.893  12.924
30640W        W91951  11.805   1.456   3.163
30641W        W91952  32.017  14.788   0.414
30642W        W91953   1.935  29.079   1.852
30643W        W91954  26.468  24.049   3.201
30644W        W91955  40.912  41.469   0.923
30645W        W91956  33.612  24.698  12.947
30646W        W91957  16.754  34.094  14.825
30647W        W91958   9.351  31.008   3.170
30648W        W91959  42.474  34.389  11.909
30649W        W91960  36.398  27.607   1.906
30650W        W91961  13.227  21.602  13.406
30651W        W91962  20.056  36.550  14.945
30652W        W91963  24.622  17.175   0.412
30653W        W91964  20.606  21.161  13.035
30654W        W91965  43.290  24.602   1.721
30655W        W91966  43.511  42.030   1.213
30656W        W91967  11.678  10.819  12.380
30657W        W91968  14.195  23.230   3.675
30658W        W91969  31.122   1.420   0.925
30659W        W91970  42.375  13.131  12.533
30660W        W91971  12.188  20.659  12.571
30661W        W91972  36.570   1.775   3.851
30662W        W91973  11.169  10.808  12.953
30663W        W91974   5.214   6.885   3.809
30664W        W91975   9.272  36.376  12.961
30665W        W91976  36.028  13.823  12.045
30666W        W91977  19.183  16.778   2.252
30667W        W91978   0.397  27.482   2.743
30668W        W91979  31.077  14.727   2.902
30669W        W91980   2.463  38.907   3.761
30670W        W91981  34.904  43.771  11.959
30671W        W91982  28.615  24.158   3.745
30672W        W91983  42.399  29.585   1.918
30673W        W91984  29.003  20.263   2.355
30674W        W91985  29.656  37.994   1.253
30675W        W91986  22.105   8.870  14.027
30676W        W91987  21.228  15.677  12.006
30677W        W91988  44.933  33.502  14.310
30678W        W91989   2.915  42.371  13.880
30679W        W91990   9.375  20.529   3.160
30680W        W91991  19.175  18.632   2.213
30681W        W91992  13.715  36.906  11.519
30682W        W91993  22.222  36.581   3.164
30683W        W91994   5.899  29.962   1.844
30684W        W91995  37.405  30.029   2.402
30685W        W91996   4.267   5.241   3.248
30686W        W91997  40.010  32.050   0.949
30687W        W91998  42.986  12.701  10.413
30688W        W91999  10.267  34.557  13.883
30689W        W92000  44.983  16.121   0.318
30690W        W92001  39.390   8.170  11.100
30691W        W92002   1.745  23.529  13.843
30692W        W92003  28.477   3.257   4.120
30693W        W92004  11.711  14.794  12.407
30694W        W92005  14.331   3.941   0.303
30695W        W92006  29.057   8.856   1.271
30696W        W92007  32.474  37.022   3.685
30697W        W92008  35.002   5.887  14.377
30698W        W92009  24.556  41.433  14.430
30699W        W92010  29.991  16.588  11.046
30700W        W92011  35.554  26.586  10.411
30701W        W92012  11.711  23.007   0.339
30702W        W92013   1.305  10.675   3.741
30703W        W92014  40.882  10.633   0.932
30704W        W92015  10.341  16.751  13.361
30705W        W92016  34.558  15.213   1.869
30706W        W92017  31.433  36.901  12.083
30707W        W92018  20.041  38.459   2.391
30708W        W92019  41.861   3.798  14.401
30709W        W92020   7.866   4.789  10.547
30710W        W92021   9.745  20.203  13.935
30711W        W92022  44.880  41.881  13.902
30712W        W92023  25.132  11.821  13.499
30713W        W92024  28.975  16.185  10.471
30714W        W92025  28.185  22.739  14.471
30715W        W92026   0.391   0.865   3.788
30716W        W92027  23.113  13.727  11.928
30717W        W92028  19.198  12.851   3.195
30718W        W92029  37.480  36.981  14.965
30719W        W92030  34.455   4.434   0.268
30720W        W92031  10.269  41.407   0.312
30721W        W92032   8.850  40.872  10.580
30722W        W92033  41.452  36.526   1.237
30723W        W92034  18.275  20.697   4.148
30724W        W92035  27.449  35.596  13.469
30725W        W92036  35.962  20.261   4.627
30726W        W92037   9.271  26.549   2.206
30727W        W92038  36.017  23.091   1.725
30728W        W92039  24.222  20.594   2.676
30729W        W92040  26.111  27.139  11.468
30730W        W92041   5.805  12.695  11.124
30731W        W92042  38.354  11.262  14.811
30732W        W92043  32.095  13.342   0.751
30733W        W92044  34.567  39.917  10.506
30734W        W92045  20.685  19.082  14.967
30735W        W92046  32.092  11.678  13.837
30736W        W92047  43.322  34.887   1.921
30737W        W92048  16.689  12.323   1.288
30738W        W92049  35.518  30.576   2.236
30739W        W92050  39.410  29.636  12.929
30740W        W92051  20.185  11.662   1.870
30741W        W92052  12.248  37.964   0.879
30742W        W92053  18.564  33.435   3.644
30743W        W92054  39.834  32.441  13.940
30744W        W92055  12.182  40.903  14.989
30745W        W92056  39.874  16.696  10.985
30746W        W92057  40.397  24.979   3.636
30747W        W92058  32.401   5.804  12.076
30748W        W92059  15.322  22.541   0.336
30749W        W92060  19.770  37.880   1.894
30750W        W92061  33.114   0.830  14.886
30751W        W92062  42.848  23.171   1.339
30752W        W92063  21.124  23.589   0.374
30753W        W92064   2.270   8.656   4.687
30754W        W92065  11.800  32.555  13.009
30755W        W92066   8.223   7.341   1.910
30756W        W92067  22.079  29.114  12.916
30757W        W92068  41.518  28.078   3.722
30758W        W92069   0.980  24.062  12.359
30759W        W92070  25.023  35.426  12.396
30760W        W92071  42.853   4.337   4.127
30761W        W92072   6.412   8.309   1.733
30762W        W92073   7.728  43.454   0.451
30763W        W92074  38.338  30.507   3.204
30764W        W92075   3.407   5.921   1.444
30765W        W92076  35.528  10.371  14.278
30766W        W92077   6.343  40.917   0.928
30767W        W92078   0.318  15.819   2.399
30768W        W92079   4.387  26.541   2.366
30769W        W92080  38.527  13.793   2.272
30770W        W92081  35.569  17.076  11.892
30771W        W92082  28.084  34.991  11.557
30772W        W92083  29.453  39.018  12.906
30773W        W92084  21.720  24.140  12.476
30774W        W92085  29.146   5.321   2.742
30775W        W92086  12.197  23.512   1.758
30776W        W92087  26.685  32.554  10.080
30777W        W92088  38.971  10.225   4.812
30778W        W92089  31.585  20.751   2.739
30779W        W92090  42.964   7.289   1.403
30780W        W92091  38.837  15.275  12.052
30781W        W92092  20.226  35.033  13.899
30782W        W92093  41.843   8.364   3.302
30783W        W92094   3.892   2.721   3.303
30784W        W92095   6.913  25.582   2.395
30785W        W92096  20.715  13.105   4.197
30786W        W92097  40.302  40.928  13.852
30787W        W92098   7.342   6.706  14.438
30788W        W92099  32.092   2.371  10.449
30789W        W92100   0.949  33.426  14.324
30790W        W92101  19.268  15.145   1.777
30791W        W92102   2.745  23.208  10.632
30792W        W92103  28.180   0.979   3.858
30793W        W92104   5.909  41.394   0.372
30794W        W92105  22.033  41.006  12.418
30795W        W92106  38.492  26.960  12.375
30796W        W92107  12.325  24.555   0.921
30797W        W92108  40.436  20.043   3.675
30798W        W92109   7.366  20.064   4.211
30799W        W92110  18.555  15.631  14.971
30800W        W92111  43.275  16.766   0.429
30801W        W92112  17.726  35.022  13.998
30802W        W92113  43.990  13.160  14.858
30803W        W92114  27.567  24.059  13.444
30804W        W92115   9.239  30.032  11.868
30805W        W92116  10.171   3.816   4.604
30806W        W92117  29.965  29.423   0.744
30807W        W92118  13.710  38.560   2.672
30808W        W92119   3.381  39.922  12.989
30809W        W92120  39.031  20.644  14.337
30810W        W92121  28.545  20.612   4.219
30811W        W92122   4.411  36.087  13.376
30812W        W92123  11.675  27.639   3.821
30813W        W92124  27.470  40.309  13.026
30814W        W92125  44.794   2.404   1.876
30815W        W92126  40.940  28.550  11.401
30816W        W92127  38.947  10.278   2.405
30817W        W92128  34.469  35.021  13.493
30818W        W92129   4.308  16.176  13.839
30819W        W92130  21.049  33.489   4.837
30820W        W92131  16.728  10.229   3.776
30821W        W92132  18.239  38.026   2.882
30822W        W92133  36.525  12.697   4.207
30823W        W92134  16.183  25.180   2.362
30824W        W92135  16.274  43.951   3.720
30825W        W92136  43.004  25.211  13.436
30826W        W92137  17.625  40.504  11.424
30827W        W92138  35.482  17.759  14.440
30828W        W92139  24.665  42.408  13.462
30829W        W92140  10.695  40.031   1.281
30830W        W92141  44.916   5.741   2.705
30831W        W92142  40.802  38.958  12.346
30832W        W92143  10.741  21.515   2.838
30833W        W92144  27.121   0.332  10.979
30834W        W92145  32.582  35.896   1.252
30835W        W92146  31.972  11.155   4.138
30836W        W92147  42.009  24.100  10.951
30837W        W92148  34.418  43.949  11.596
30838W        W92149  38.945   7.887   5.123
30839W        W92150  35.057  25.507   0.250
30840W        W92151  43.853  21.259  10.530
30841W        W92152  41.849   3.740   4.777
30842W        W92153  38.500  10.668  14.906
30843W        W92154  21.607  38.348   0.776
30844W        W92155  17.217  36.485  13.386
30845W        W92156   9.716  30.136  13.376
30846W        W92157  22.230  24.613  13.341
30847W        W92158  15.713  15.783  13.959
30848W        W92159  25.654  32.076  14.922
30849W        W92160  20.697   5.851  10.899
30850W        W92161  36.509   7.195  11.441
30851W        W92162   5.438  15.768   5.715
30852W        W92163  34.611   7.730   0.290
30853W        W92164  41.888   3.419   2.189
30854W        W92165  40.479  37.345  13.994
30855W        W92166  12.778  37.461   4.178
30856W        W92167  18.715  17.143   2.752
30857W        W92168   6.240  42.007  12.578
30858W        W92169  22.151  23.989   4.828
30859W        W92170  35.059  23.065  14.764
30860W        W92171   5.294  11.774  13.792
30861W        W92172  36.590  25.541   4.720
30862W        W92173  13.295   3.403  14.912
30863W        W92174  17.093  32.901   0.899
30864W        W92175  25.217  19.749  11.583
30865W        W92176  44.460  11.804   0.919
30866W        W92177  22.112  33.536   3.270
30867W        W92178   0.985  38.947  10.508
30868W        W92179   2.296  39.878   3.263
30869W        W92180  15.123  28.961  14.827
30870W        W92181  25.507  41.497   0.270
30871W        W92182   2.782  20.229  12.367
30872W        W92183  24.571  32.454   3.659
30873W        W92184  29.498   8.846  10.592
30874W        W92185   9.713   8.280  11.590
30875W        W92186  21.675  27.143  13.486
30876W        W92187  13.651  20.041  12.070
30877W        W92188   8.680  39.903   3.866
30878W        W92189   3.255  10.791  13.361
30879W        W92190  22.007   1.286   0.820
30880W        W92191   7.243   9.294   1.394
30881W        W92192  24.675  37.043   3.811
30882W        W92193   2.824   6.394   1.425
30883W        W92194  22.719  28.037   4.693
30884W        W92195  17.119  13.608   2.662
30885W        W92196  30.920   5.877   1.338
30886W        W92197   5.713   7.860  11.510
30887W        W92198  35.540  34.410   2.758
30888W        W92199  21.697  12.731   3.359
30889W        W92200  41.043  15.215   2.731
30890W        W92201  42.510  15.795   3.200
30891W        W92202  36.929   9.663   4.214
30892W        W92203  28.949   6.188   4.281
30893W        W92204  39.820  23.115   1.790
30894W        W92205  17.162  37.886   3.328
30895W        W92206  34.121  39.044   3.245
30896W        W92207  24.533  14.300   0.407
30897W        W92208  15.679  13.672   9.493
30898W        W92209  39.011  42.324  11.944
30899W        W92210  18.613  23.621  10.582
30900W        W92211  16.213  24.006   3.726
30901W        W92212  28.663  35.601   0.890
30902W        W92213   1.856  11.858  11.566
30903W        W92214  30.531  16.129   4.834
30904W        W92215  16.282  24.595  12.963
30905W        W92216  13.241  17.611   2.383
30906W        W92217  21.194  36.547   3.158
30907W        W92218  23.531  30.952  14.820
30908W        W92219  39.004  31.424   2.354
30909W        W92220  37.532   4.903  13.384
30910W        W92221  14.293  34.552  10.643
30911W        W92222  10.225  27.627  14.332
30912W        W92223  44.986   8.741  11.119
30913W        W92224  16.245  17.618   4.235
30914W        W92225  33.442  20.185  14.304
30915W        W92226  12.255  25.566   0.354
30916W        W92227  14.309  31.419   4.649
30917W        W92228   2.839  10.707  13.946
30918W        W92229  33.932   5.248   4.349
30919W        W92230  19.131   5.337   3.846
30920W        W92231   3.430  42.999   2.676
30921W        W92232  20.761  35.862   1.872
30922W        W92233  27.665  35.924   3.274
30923W        W92234  24.653  36.095  13.912
30924W        W92235  10.721  18.153   3.232
30925W        W92236  15.784  30.618   1.423
30926W        W92237  14.118   3.714   1.862
30927W        W92238  12.262  34.567   0.933
30928W        W92239  36.038  37.465  12.391
30929W        W92240  42.972  22.118  10.481
30930W        W92241  29.044  28.052   2.264
30931W        W92242  15.231  30.538   3.746
30932W        W92243  15.283  35.494   3.635
30933W        W92244  41.861  33.003   4.277
30934W        W92245   5.921  18.120   2.707
30935W        W92246  44.347  14.591   4.192
30936W        W92247  19.257  27.543   4.659
30937W        W92248  31.049  33.553  10.635
30938W        W92249   1.311  37.438  10.609
30939W        W92250  44.995  35.883  13.374
30940W        W92251  12.285  29.988   4.831
30941W        W92252  38.972  40.043   3.805
30942W        W92253  37.058  29.513  14.852
30943W        W92254  16.594  32.589   1.848
30944W        W92255  30.102   5.330   1.424
30945W        W92256   2.454  43.942  13.897
30946W        W92257  14.286  34.056   4.139
30947W        W92258  25.692  33.885  11.938
30948W        W92259   0.389  21.075   1.889
30949W        W92260  11.772  37.550   2.689
30950W        W92261  39.017  32.001  12.872
30951W        W92262  30.016   8.781   5.257
30952W        W92263  18.558  28.493   0.756
30953W        W92264  27.540  21.241   4.288
30954W        W92265   4.357  43.872  11.926
30955W        W92266  37.370  21.260   4.604
30956W        W92267   0.372  43.902  13.864
30957W        W92268   0.957  19.087   1.381
30958W        W92269  28.631  20.213   2.670
30959W        W92270  15.704  29.448   4.796
30960W        W92271  39.939  23.584  13.993
30961W        W92272  21.555  12.234   0.860
30962W        W92273  29.103  43.355  12.549
30963W        W92274   9.319  38.487   1.307
30964W        W92275   4.883  31.961   4.194
30965W        W92276  26.477   5.792  11.879
30966W        W92277   5.839  14.145  13.953
30967W        W92278  39.929  14.705   2.753
30968W        W92279  44.405  27.996   1.308
30969W        W92280  17.764   6.288  12.084
30970W        W92281   2.386  13.150  14.477
30971W        W92282  27.526  34.465   0.391
30972W        W92283  19.103  27.638  11.522
30973W        W92284  12.355  27.505   1.916
30974W        W92285   2.755   9.737  13.368
30975W        W92286  34.031  41.350   2.745
30976W        W92287  14.819  16.242  10.967
30977W        W92288   4.703  18.092  14.350
30978W        W92289  44.891   8.312   4.336
30979W        W92290  24.694   9.361   4.780
30980W        W92291   6.752  39.926   0.331
30981W        W92292  38.918  35.101  12.915
30982W        W92293  28.635  34.966  10.571
30983W        W92294  36.850  10.361   2.312
30984W        W92295  10.369  37.482  11.865
30985W        W92296  11.628  37.408   0.399
30986W        W92297  25.689  32.580  11.545
30987W        W92298   9.711  21.710   3.364
30988W        W92299   9.648  30.027   1.275
30989W        W92300  31.473   1.407   3.307
30990W        W92301  28.455  14.303   4.351
30991W        W92302  28.593  42.015   0.440
30992W        W92303  41.493  43.965  12.415
30993W        W92304  31.601   6.213   4.148
30994W        W92305  34.470  23.511   4.707
30995W        W92306  28.970  40.506   4.673
30996W        W92307  15.238  33.512  14.394
30997W        W92308  38.495   5.411  10.541
30998W        W92309  34.438  19.108   3.840
30999W        W92310   8.745  15.221   1.854
31000W        W92311  35.880  28.137  14.516
31001W        W92312   3.326  44.900   1.328
31002W        W92313  20.131  35.578   4.706
31003W        W92314  29.065   7.403   0.906
31004W        W92315   7.328  20.149   1.380
31005W        W92316  31.981  25.560  14.032
31006W        W92317  19.058  40.484  14.965
31007W        W92318  37.449  32.927   5.733
31008W        W92319  33.936  36.568  10.414
31009W        W92320  21.526  34.038  11.535
31010W        W92321   3.378  39.967  12.362
31011W        W92322  37.936  38.432   3.843
31012W        W92323  30.426   2.737   3.800
31013W        W92324  44.363   8.749  14.790
31014W        W92325   8.360   0.277  14.794
31015W        W92326  11.672  28.505   4.818
31016W        W92327  35.508  36.851  10.404
31017W        W92328  28.615  12.362  10.518
31018W        W92329   0.797  44.336   3.207
31019W        W92330  21.718   3.385   5.151
31020W        W92331   2.453  41.494  12.979
31021W        W92332  22.678  15.281   1.872
31022W        W92333  16.670  24.594   9.594
31023W        W92334   7.726  26.530   4.337
31024W        W92335  43.460  22.185   2.755
31025W        W92336  10.687  11.133  13.461
31026W        W92337  31.497  31.639   4.215
31027W        W92338   6.713  29.429  13.407
31028W        W92339  38.540   1.337  10.571
31029W        W92340  33.058  34.594   0.409
31030W        W92341   4.719  23.555  10.092
31031W        W92342  33.026  18.638   1.744
31032W        W92343  29.497  31.909   1.733
31033W        W92344  11.636  39.560  14.373
31034W        W92345  44.988   4.876   1.292
31035W        W92346  15.279  13.184   0.816
31036W        W92347  42.286  15.107   4.126
31037W        W92348  10.252  24.655  13.913
31038W        W92349  10.874  32.001  11.122
31039W        W92350   8.344  42.778   3.303
31040W        W92351   2.366  34.987   3.279
31041W        W92352  27.467  36.996   1.388
31042W        W92353  33.501  34.070   1.392
31043W        W92354  13.203  43.822  14.992
31044W        W92355   2.899  27.508   0.727
31045W        W92356  13.111  35.103   0.966
31046W        W92357  14.742  43.870   1.702
31047W        W92358  44.818   9.785  14.782
31048W        W92359  28.664   9.168   1.819
31049W        W92360  21.680  44.816  13.466
31050W        W92361  34.460  13.737   1.867
31051W        W92362  12.200  31.510   4.171
31052W        W92363  43.775   2.352   1.322
31053W        W92364   8.164   3.390   2.824
31054W        W92365  17.570   5.809   3.259
31055W        W92366  24.118  45.000  10.405
31056W        W92367  44.262  32.473   4.654
31057W        W92368  24.696  40.338  14.920
31058W        W92369  33.000  33.556   3.793
31059W        W92370  26.539  22.154  14.919
31060W        W92371  28.541  13.790   4.696
31061W        W92372  39.387  35.371  14.363
31062W        W92373  37.369  18.581   2.685
31063W        W92374  38.933  37.996  12.016
31064W        W92375  38.008  14.814  10.604
31065W        W92376  32.097  11.369   3.760
31066W        W92377  31.981   3.429   0.243
31067W        W92378  15.820   3.231  11.887
31068W        W92379  34.078  23.076  14.889
31069W        W92380  34.433  35.886   1.774
31070W        W92381  11.155  23.091   1.342
31071W        W92382  33.049   6.849  13.061
31072W        W92383  14.746  23.024   2.769
31073W        W92384  40.046   9.784   2.689
31074W        W92385  33.449   7.298   3.265
31075W        W92386  43.387  43.395  14.408
31076W        W92387  18.705  15.132   1.385
31077W        W92388   1.313  27.606   2.700
31078W        W92389  27.953  30.483  10.083
31079W        W92390  35.449  37.503   0.777
31080W        W92391  14.606  15.742   3.817
31081W        W92392  10.377   1.274  12.382
31082W        W92393  13.121  36.558   4.746
31083W        W92394  43.489  22.658  10.451
31084W        W92395   9.159  32.589   3.852
31085W        W92396   4.909  12.238  12.940
31086W        W92397  22.160  42.497   1.933
31087W        W92398  10.258  17.199   2.364
31088W        W92399  33.102   9.758   4.648
31089W        W92400  12.141   6.790   4.198
31090W        W92401   5.790  27.960  14.285
31091W        W92402  22.614   9.805   1.828
31092W        W92403  24.231   0.397  13.875
31093W        W92404  21.069  11.748   4.605
31094W        W92405  36.567  15.320   3.151
31095W        W92406  26.503  13.251  13.380
31096W        W92407  10.254   5.276  13.457
31097W        W92408  30.107  21.535  12.572
31098W        W92409  32.546  29.647  10.943
31099W        W92410   6.743  28.143  12.446
31100W        W92411  38.933  21.757  14.003
31101W        W92412   1.406  36.906  12.968
31102W        W92413  37.838  25.611   1.436
31103W        W92414  25.479   5.739   1.764
31104W        W92415   5.746  42.930  13.493
31105W        W92416  10.821  18.750   3.754
31106W        W92417  31.124  13.203   4.228
31107W        W92418  23.149  16.600   2.250
31108W        W92419  11.825  12.805  12.428
31109W        W92420   6.910  23.569   0.372
31110W        W92421  16.239  38.468   2.189
31111W        W92422  41.367  17.113  12.917
31112W        W92423  10.252  32.602   0.730
31113W        W92424  23.101  17.168  11.092
31114W        W92425  26.032  33.551   3.737
31115W        W92426  20.764  10.734  10.536
31116W        W92427  17.793  33.885   1.238
31117W        W92428  22.621  42.915   2.415
31118W        W92429  32.502  37.977   1.257
31119W        W92430  20.167  32.423  14.478
31120W        W92431   2.248  15.303   1.429
31121W        W92432   6.324  15.636   9.616
31122W        W92433  38.985  33.434   0.944
31123W        W92434   5.229   3.375  11.917
31124W        W92435   2.727   2.286   2.815
31125W        W92436  22.059   1.849   0.778
31126W        W92437  32.044  42.383   2.349
31127W        W92438   2.821  21.053   3.658
31128W        W92439  19.544  39.935   0.796
31129W        W92440   7.381  19.202   0.276
31130W        W92441  28.074  31.436  11.974
31131W        W92442  14.633  11.127   3.198
31132W        W92443  36.091  31.595  13.033
31133W        W92444  14.259  20.599   3.169
31134W        W92445  26.647  42.347  12.428
31135W        W92446  14.263  23.241   2.785
31136W        W92447  12.807  27.446   3.272
31137W        W92448   8.359  30.997   2.249
31138W        W92449   4.772  22.678   2.387
31139W        W92450  27.121  38.054  12.956
31140W        W92451  33.588  12.756  14.338
31141W        W92452  14.202  28.094  13.547
31142W        W92453  14.757  31.952   0.255
31143W        W92454  41.387   8.240  13.939
31144W        W92455  22.031  33.597  12.430
31145W        W92456  23.534  16.658   2.783
31146W        W92457  34.084  12.852   2.389
31147W        W92458  27.072   7.787   1.291
31148W        W92459  12.219  26.541   9.451
31149W        W92460  37.953   5.918   1.364
31150W        W92461  39.559   6.823  12.904
31151W        W92462  42.974  42.815   0.959
31152W        W92463  14.807   8.203  11.119
31153W        W92464   9.675  27.972  14.909
31154W        W92465  24.148  39.376  12.871
31155W        W92466  32.927   2.306   3.661
31156W        W92467  35.860  11.302  13.541
31157W        W92468   4.720  38.062   0.415
31158W        W92469  39.526  18.202   4.155
31159W        W92470   6.198   3.363   3.210
31160W        W92471  41.447   4.737  11.497
31161W        W92472  20.195  21.198  14.287
31162W        W92473  18.711  27.592  12.461
31163W        W92474  10.641   9.729  13.925
31164W        W92475  20.087  20.647   1.809
31165W        W92476   3.955  40.045  10.605
31166W        W92477  41.823  24.489   1.712
31167W        W92478  40.524  22.136   0.474
31168W        W92479  14.691  39.035   3.161
31169W        W92480   3.335  33.469   0.268
31170W        W92481  42.971   5.313  13.418
31171W        W92482   9.357   1.237  11.039
31172W        W92483  38.005  26.158   4.350
31173W        W92484  17.248  16.087  13.939
31174W        W92485   7.797  43.368  12.074
31175W        W92486   7.787  11.339   4.752
31176W        W92487  35.379  25.090   0.475
31177W        W92488   1.923  28.159   3.177
31178W        W92489  10.189  22.251   2.206
31179W        W92490  44.855  31.909   4.825
31180W        W92491  24.999  19.713  13.847
31181W        W92492  33.461  32.405  11.529
31182W        W92493  21.079  30.524  13.331
31183W        W92494  27.965  29.524  14.455
31184W        W92495  12.760   8.805   2.265
31185W        W92496  27.036   4.768  11.497
31186W        W92497  21.110  43.425   4.795
31187W        W92498  31.145  28.516  12.396
31188W        W92499  11.867  20.662  11.440
31189W        W92500  15.593  41.526  10.448
31190W        W92501  37.430   2.359   0.795
31191W        W92502  28.985  11.627  13.016
31192W        W92503  18.208  20.166  11.953
31193W        W92504  42.331  29.165   3.781
31194W        W92505  37.477   3.425  11.561
31195W        W92506   5.196  44.488   2.852
31196W        W92507   7.237  43.373   1.248
31197W        W92508  32.450   7.758   3.179
31198W        W92509  34.948   6.788   0.738
31199W        W92510  44.964  10.710   4.619
31200W        W92511  15.216  36.860  13.917
31201W        W92512  13.318  34.999  11.028
31202W        W92513  17.574  33.126   3.150
31203W        W92514  44.268  15.216  11.502
31204W        W92515  28.595   7.217   1.269
31205W        W92516   7.353   1.371  13.938
31206W        W92517  41.886  42.344  11.060
31207W        W92518   9.703  40.814   0.337
31208W        W92519  33.957  19.138  11.045
31209W        W92520  33.459  30.567  10.633
31210W        W92521  44.936  33.927   0.766
31211W        W92522  32.138   9.737  10.944
31212W        W92523   4.445  16.682   0.905
31213W        W92524  40.458  31.931  13.053
31214W        W92525  40.903  20.551  14.771
31215W        W92526  40.009  19.173   4.669
31216W        W92527  31.147  30.105   1.279
31217W        W92528  13.319  42.387   3.754
31218W        W92529  23.685  33.389   0.435
31219W        W92530   9.159  18.579   1.391
31220W        W92531  42.999   0.972   2.332
31221W        W92532  23.651  41.812   2.301
31222W        W92533  40.015  39.330  12.412
31223W        W92534  40.816  27.614  12.498
31224W        W92535  33.108  38.904   2.803
31225W        W92536  18.171  19.573   3.794
31226W        W92537  29.157   0.900  14.833
31227W        W92538  40.982  36.872   1.268
31228W        W92539  39.475   2.752   4.270
31229W        W92540  40.879   6.314   0.942
31230W        W92541  22.162   3.329   3.268
31231W        W92542  29.495  15.166   2.358
31232W        W92543  43.921  41.353   1.756
31233W        W92544  19.729  11.643  11.407
31234W        W92545  25.541  16.621   2.312
31235W        W92546  37.963  21.254  11.495
31236W        W92547  42.945  44.417  12.861
31237W        W92548   9.698  11.153   0.907
31238W        W92549  16.809  12.236   4.129
31239W        W92550  38.017  36.433   4.272
31240W        W92551  31.556  30.624  14.860
31241W        W92552  31.005   8.806   3.790
31242W        W92553  45.000  24.996   4.798
31243W        W92554  43.421  10.261   2.186
31244W        W92555   9.866  11.139   3.215
31245W        W92556  35.374  37.990  11.872
31246W        W92557  44.379   3.380   3.692
31247W        W92558  31.939  42.030  14.916
31248W        W92559  10.314   8.821  14.388
31249W        W92560  24.114  22.019   3.229
31250W        W92561  14.786   7.781  14.010
31251W        W92562  20.198  27.591   4.273
31252W        W92563  36.038   4.759   5.247
31253W        W92564  38.919  25.549   1.434
31254W        W92565  35.008   0.892  11.565
31255W        W92566  14.715  43.837   2.317
31256W        W92567  17.253  33.906  14.024
31257W        W92568  10.715  20.227   0.954
31258W        W92569  16.732  12.269   9.629
31259W        W92570  31.146  15.167   3.175
31260W        W92571  23.559   0.438   1.731
31261W        W92572  29.453   2.414   3.203
31262W        W92573  21.626  39.914  13.966
31263W        W92574  36.003  21.698   0.478
31264W        W92575  40.330  36.564  11.866
31265W        W92576   7.702   0.865  14.005
31266W        W92577   3.724  44.383  14.288
31267W        W92578  37.575  12.645   4.300
31268W        W92579  10.794  34.525   3.223
31269W        W92580  40.366  41.811  11.036
31270W        W92581  43.928  18.782   4.758
31271W        W92582  31.969   5.365  11.918
31272W        W92583  30.914  44.956  10.453
31273W        W92584  27.121  16.307   1.813
31274W        W92585  42.893  15.776  12.965
31275W        W92586  22.112   2.872   0.884
31276W        W92587  38.045  22.603  12.347
31277W        W92588  39.328  20.569  11.124
31278W        W92589   3.863   1.933   1.236
31279W        W92590   9.359  22.218  13.830
31280W        W92591  19.719  43.816   4.692
31281W        W92592  27.133  40.851  13.467
31282W        W92593  37.478  27.035   1.882
31283W        W92594  42.444  10.308  12.902
31284W        W92595  30.991  35.437  10.548
31285W        W92596  12.362  32.574  12.972
31286W        W92597   2.316  36.975   3.314
31287W        W92598   1.402  12.755   3.169
31288W        W92599  33.385   3.248  11.453
31289W        W92600  20.049  44.923  12.574
31290W        W92601  36.923  18.139   1.749
31291W        W92602  43.940  20.567  13.850
31292W        W92603  16.260  25.616  10.131
31293W        W92604  43.938  22.151  14.383
31294W        W92605  22.712  44.393  11.945
31295W        W92606  29.443  40.506   5.276
31296W        W92607  42.367  17.644  14.863
31297W        W92608   7.704  22.009   1.406
31298W        W92609   7.292   6.209  10.906
31299W        W92610  15.253  25.480   3.681
31300W        W92611  17.658   8.708  12.002
31301W        W92612  31.407  34.592  14.893
31302W        W92613  40.953  25.050   3.723
31303W        W92614  35.411   3.850   0.442
31304W        W92615  35.509  13.156  11.035
31305W        W92616  24.562   0.845   1.434
31306W        W92617  42.494  11.160  11.859
31307W        W92618  16.741  42.450  13.895
31308W        W92619  17.559  38.433  13.856
31309W        W92620   2.918  20.740   4.301
31310W        W92621  35.081   8.752   4.600
31311W        W92622  44.903  41.358  14.971
31312W        W92623   1.286  28.059   3.324
31313W        W92624   0.848  41.838  13.451
31314W        W92625   6.781  14.718   0.384
31315W        W92626  22.521  43.482   0.859
31316W        W92627  10.219  17.606  13.950
31317W        W92628  35.551  14.600  10.921
31318W        W92629   9.651  41.000  12.447
31319W        W92630  10.365   7.399  13.838
31320W        W92631  29.550  16.267  12.922
31321W        W92632   1.384   0.342   1.757
31322W        W92633  36.492  42.865  14.506
31323W        W92634   7.295  29.649   4.759
31324W        W92635   3.901  17.759  11.430
31325W        W92636  19.665  34.046  13.022
31326W        W92637   0.798  16.255   2.237
31327W        W92638  23.015  24.562   4.780
31328W        W92639  43.950   0.289  13.510
31329W        W92640  36.054   9.762   1.344
31330W        W92641  40.864  14.707  12.389
31331W        W92642  43.807   7.279  11.949
31332W        W92643  40.878  20.079  12.877
31333W        W92644  27.959  27.197  14.376
31334W        W92645   4.750   9.695   1.708
31335W        W92646  21.632  25.607   3.347
31336W        W92647  42.521  17.590   1.232
31337W        W92648   5.773  40.842  11.548
31338W        W92649  18.223  42.929  14.336
31339W        W92650  36.529  20.267   4.617
31340W        W92651  16.273   4.363   1.444
31341W        W92652   1.902  22.681  10.930
31342W        W92653  42.854   3.896  12.095
31343W        W92654  42.855  26.486   5.113
31344W        W92655  11.217  31.067   2.214
31345W        W92656  14.198  27.063  12.977
31346W        W92657  15.682  11.243  10.024
31347W        W92658  16.100  27.687   4.713
31348W        W92659   3.778  27.472  11.112
31349W        W92660  22.239  26.105  12.052
31350W        W92661  38.847   8.193  11.376
31351W        W92662  29.479   8.674   1.896
31352W        W92663   0.927  21.135  13.025
31353W        W92664  30.939  33.541  10.008
31354W        W92665   4.246   6.811   3.856
31355W        W92666   9.660  27.105  10.976
31356W        W92667  27.465   0.923   4.299
31357W        W92668  31.438  16.252  12.566
31358W        W92669   1.294  38.401  13.932
31359W        W92670  16.083   6.827  13.877
31360W        W92671   3.263  20.747  14.820
31361W        W92672  14.308  43.773   3.783
31362W        W92673  31.553   8.201   9.541
31363W        W92674  44.965  36.407   1.383
31364W        W92675  40.037   0.850  13.926
31365W        W92676  10.846  44.878  12.002
31366W        W92677  19.535  18.781   5.292
31367W        W92678  11.656   2.414   1.752
31368W        W92679  34.056  32.493   1.852
31369W        W92680  35.429  35.574   0.814
31370W        W92681  11.193  10.803   0.344
31371W        W92682  31.037  35.558  12.504
31372W        W92683  36.534   0.264   2.780
31373W        W92684   2.744   3.399   2.809
31374W        W92685  18.243  33.611  11.048
31375W        W92686   0.820  28.025   3.870
31376W        W92687  18.121  11.202  10.484
31377W        W92688  30.555  18.219  14.305
31378W        W92689  15.658  24.512  12.543
31379W        W92690  17.641  27.491  12.498
31380W        W92691  11.366  13.637  11.887
31381W        W92692  25.612  10.818   0.314
31382W        W92693  43.948  14.669   0.764
31383W        W92694  44.992  29.003   0.732
31384W        W92695  22.178  20.042  14.002
31385W        W92696  38.498  29.529   4.737
31386W        W92697  14.230   4.793   2.223
31387W        W92698  30.027  42.473   0.740
31388W        W92699  44.991   4.441  14.498
31389W        W92700   2.752  30.006  11.590
31390W        W92701  19.059  31.466   1.771
31391W        W92702  44.276   4.900   2.375
31392W        W92703  21.156   8.228   3.807
31393W        W92704  36.911  28.052   2.771
31394W        W92705  26.702  44.909  12.985
31395W        W92706  22.646  11.146   0.466
31396W        W92707  21.112  40.816   1.366
31397W        W92708  32.943  25.496  14.893
31398W        W92709   1.833  26.570  14.994
31399W        W92710  33.565  28.448   3.216
31400W        W92711  11.191  44.394   3.299
31401W        W92712   1.300  30.041   1.927
31402W        W92713   9.804  41.836  10.919
31403W        W92714  26.593  24.611  12.350
31404W        W92715  27.985  19.199  13.951
31405W        W92716   1.874  28.149  11.413
31406W        W92717  32.576  39.369  12.031
31407W        W92718  42.968  20.241  14.418
31408W        W92719  43.942   8.780   3.672
31409W        W92720  19.106   4.914   2.776
31410W        W92721  18.256  15.766  12.446
31411W        W92722  31.019  43.890   3.358
31412W        W92723  32.989  28.608  14.480
31413W        W92724  33.528   4.912  13.801
31414W        W92725   2.884  39.386   2.302
31415W        W92726  12.174  35.428  13.984
31416W        W92727  16.314   2.376   0.837
31417W        W92728   1.864  31.087  12.925
31418W        W92729  25.218  44.983  12.083
31419W        W92730  13.209  13.633  12.479
31420W        W92731  32.536   1.842   3.362
31421W        W92732  15.588  42.912   4.832
31422W        W92733  31.081  16.232   3.233
31423W        W92734  11.741  28.022  10.906
31424W        W92735  40.476   3.223  10.500
31425W        W92736   0.317  35.424  12.036
31426W        W92737  19.149  17.292  13.988
31427W        W92738  32.959  35.459   1.924
31428W        W92739   3.444   9.697   3.727
31429W        W92740  37.536  25.622   1.356
31430W        W92741   4.398  12.293  12.900
31431W        W92742  12.827  22.113   0.737
31432W        W92743   7.303  39.500  12.932
31433W        W92744  43.829  30.449   4.140
31434W        W92745   5.791  43.493  14.481
31435W        W92746  26.657  43.474  13.373
31436W        W92747  27.590  28.655  10.896
31437W        W92748  31.497  11.345   2.876
31438W        W92749  26.970  32.608   3.825
31439W        W92750  24.224  43.962   4.176
31440W        W92751   3.387   4.760  13.831
31441W        W92752   8.305   3.266   2.353
31442W        W92753  15.722   8.729  10.561
31443W        W92754  41.930  40.353  14.281
31444W        W92755   5.235  33.545   0.919
31445W        W92756  18.083  29.139   3.678
31446W        W92757   5.342  19.047  14.764
31447W        W92758   9.668  10.791   2.310
31448W        W92759  10.345  23.090   2.244
31449W        W92760   8.193  44.962  12.547
31450W        W92761  26.646  40.804   2.362
31451W        W92762  33.449  12.845  11.031
31452W        W92763   2.353  11.724   2.228
31453W        W92764  44.359  38.398   4.792
31454W        W92765   8.857  13.195  10.513
31455W        W92766   6.378  12.664   0.766
31456W        W92767  41.804  36.483   4.347
31457W        W92768  17.762  38.856   4.801
31458W        W92769  21.048   6.270  13.029
31459W        W92770  40.360  38.342   2.700
31460W        W92771   6.215  11.765   2.229
31461W        W92772  38.394  22.598   3.285
31462W        W92773  44.863  17.663  14.796
31463W        W92774  37.359  39.457  14.370
31464W        W92775   6.719  21.745  14.505
31465W        W92776  22.180  15.329  12.432
31466W        W92777  27.098  28.465  10.466
31467W        W92778  37.878  34.530  10.488
31468W        W92779  14.682   7.911   1.765
31469W        W92780  14.761  11.866   2.722
31470W        W92781   9.388  12.246   2.731
31471W        W92782  31.592   4.317  10.406
31472W        W92783  16.695  15.685  10.529
31473W        W92784  28.610  27.529  10.632
31474W        W92785  29.152  13.803  13.524
31475W        W92786  11.706   8.176  12.571
31476W        W92787  32.536  37.435  10.889
31477W        W92788  33.917  34.565  14.289
31478W        W92789  44.344  25.565  12.985
31479W        W92790  20.208   0.392   4.689
31480W        W92791  23.050  12.645   2.324
31481W        W92792  26.519  12.314  11.459
31482W        W92793   4.331  40.513  12.079
31483W        W92794   3.356  21.639  10.569
31484W        W92795  34.380  44.379  13.944
31485W        W92796  29.025  34.118  12.357
31486W        W92797  30.491  14.695  12.370
31487W        W92798  11.653  42.339  12.917
31488W        W92799   4.755  33.530  12.072
31489W        W92800  38.348  37.925   1.846
31490W        W92801  42.514  27.981   1.920
31491W        W92802  44.872  12.253  12.417
31492W        W92803   4.280  43.426  11.972
31493W        W92804  21.177  27.547   1.748
31494W        W92805  34.508  15.205   2.283
31495W        W92806  12.703  12.724   4.162
31496W        W92807  22.626  41.306  13.321
31497W        W92808  16.268  22.072  12.080
31498W        W92809  22.142  23.150   3.643
31499W        W92810   9.330   8.877  14.895
31500W        W92811  24.065  22.042   1.878
31501W        W92812  21.593  15.317  12.017
31502W        W92813  44.862  39.942   2.177
31503W        W92814  10.240  32.894  10.944
31504W        W92815  10.316  37.436  11.398
31505W        W92816  39.388  18.056   0.813
31506W        W92817  36.845   7.261  11.405
31507W        W92818   4.908  12.749   3.724
31508W        W92819  41.816  35.454   3.774
31509W        W92820  38.490  41.465  11.038
31510W        W92821  13.641  29.995  12.065
31511W        W92822  36.352  23.552   3.701
31512W        W92823  24.601  20.234  13.826
31513W        W92824  39.523   9.809   3.288
31514W        W92825  33.034  26.470   4.346
31515W        W92826  11.701  14.177   0.446
31516W        W92827  15.212   1.362   3.782
31517W        W92828  17.159  39.008   2.376
31518W        W92829  18.566   9.328  11.040
31519W        W92830   2.885   0.253  11.922
31520W        W92831  36.095  17.710  14.508
31521W        W92832   1.975  10.857   0.426
31522W        W92833  17.724  22.577  14.769
31523W        W92834   1.430   0.863   2.742
31524W        W92835  29.585  36.556  14.286
31525W        W92836  18.614  44.882  13.327
31526W        W92837  30.509  15.307  13.515
31527W        W92838   1.895  39.845   4.335
31528W        W92839  26.671   0.919   5.118
31529W        W92840  10.343  42.820   1.762
31530W        W92841  43.463  29.076  14.865
31531W        W92842  39.344  36.040  11.457
31532W        W92843   2.470   6.691  12.549
31533W        W92844  42.964   1.295  11.937
31534W        W92845  39.023  18.619   2.832
31535W        W92846  44.760  21.555   0.384
31536W        W92847  26.144  34.119   2.871
31537W        W92848  27.489  34.591  14.370
31538W        W92849  44.413  30.527  14.348
31539W        W92850  38.845  11.275  10.463
31540W        W92851  26.195  43.954   1.313
31541W        W92852  14.749  36.854   0.254
31542W        W92853  22.995  13.704  14.348
31543W        W92854  38.965  11.198   1.919
31544W        W92855   4.288  30.422   3.213
31545W        W92856   2.735  28.569   2.666
31546W        W92857  13.154   2.835   1.787
31547W        W92858   0.924  10.792  11.932
31548W        W92859  34.394  21.074  10.008
31549W        W92860  15.093   1.904   4.742
31550W        W92861   2.767   0.272   4.209
31551W        W92862  25.609  31.032   2.327
31552W        W92863  35.398  28.500  14.818
31553W        W92864  17.584  35.530   1.289
31554W        W92865  30.039  19.237   1.781
31555W        W92866  22.615  11.231   1.778
31556W        W92867   8.200   6.774  14.931
31557W        W92868  29.014  19.238  12.013
31558W        W92869  20.149  22.110  11.406
31559W        W92870  12.263  29.015  12.882
31560W        W92871  41.848  28.548   2.800
31561W        W92872  42.473  13.133   0.344
31562W        W92873   8.697   0.812  12.365
31563W        W92874  32.591  21.531   3.238
31564W        W92875  35.013  11.690  14.018
31565W        W92876  15.668  11.373  14.327
31566W        W92877  35.379  25.670   1.251
31567W        W92878  37.447   3.313  13.443
31568W        W92879  15.603   9.739  12.993
31569W        W92880  16.723   9.869   3.169
31570W        W92881  43.348   1.448  12.447
31571W        W92882  10.864  36.952  12.061
31572W        W92883   3.447   6.378   1.704
31573W        W92884  12.319  36.089  13.924
31574W        W92885   3.317   5.931  11.503
31575W        W92886  36.424  40.329   5.175
31576W        W92887  32.133   0.827   0.793
31577W        W92888  12.211  37.938  12.025
31578W        W92889  30.143  15.804   9.956
31579W        W92890   1.243  30.484   0.795
31580W        W92891  21.703  40.038   0.352
31581W        W92892   8.318  24.483  13.354
31582W        W92893  36.858  44.263   1.409
31583W        W92894  42.869   4.792  14.935
31584W        W92895  29.484  41.896   4.230
31585W        W92896  10.725  30.109  10.440
31586W        W92897  22.097  16.593   4.335
31587W        W92898   2.869  23.646  13.480
31588W        W92899   6.791  21.091   3.339
31589W        W92900  10.368  11.207  14.917
31590W        W92901  27.483  37.879   3.745
31591W        W92902  17.276   6.810   2.844
31592W        W92903  16.580  26.657  12.441
31593W        W92904  34.585  28.457  14.407
31594W        W92905  19.749  27.446   0.279
31595W        W92906   4.402  15.317   4.730
31596W        W92907  29.534   0.886  12.880
31597W        W92908  19.722  37.917  13.047
31598W        W92909   6.724  10.799  11.016
31599W        W92910  37.537   1.822   2.234
31600W        W92911  19.219  39.402  11.036
31601W        W92912   4.287   7.285   2.864
31602W        W92913  40.839  19.166  12.990
31603W        W92914  21.043  41.006   4.150
31604W        W92915  43.446  12.815  12.986
31605W        W92916   9.843  11.202   1.801
31606W        W92917  17.139   1.454  13.366
31607W        W92918  15.121   0.871   0.872
31608W        W92919  38.419  24.639   1.356
31609W        W92920  28.084  22.172  13.540
31610W        W92921  24.193  38.960   5.086
31611W        W92922   3.946  20.599   2.223
31612W        W92923  11.631  28.533  13.307
31613W        W92924   7.305  34.981   4.170
31614W        W92925  11.793  30.444   9.961
31615W        W92926  36.377  15.083  13.889
31616W        W92927  42.978  20.150  11.589
31617W        W92928  18.169  14.121   1.224
31618W        W92929  16.667   3.929  12.971
31619W        W92930  23.097  28.448   1.359
31620W        W92931  16.758  36.463  10.998
31621W        W92932  38.484  12.729  11.594
31622W        W92933  37.530  11.646   2.797
31623W        W92934   1.266  33.494  10.585
31624W        W92935  21.638  30.563   1.772
31625W        W92936  21.069  16.166   2.285
31626W        W92937   9.370  14.273  13.505
31627W        W92938  23.070  15.580   4.284
31628W        W92939   8.160  17.653   3.700
31629W        W92940   6.901  12.736  13.445
31630W        W92941   8.828   9.732   4.129
31631W        W92942  43.455  19.601   2.804
31632W        W92943  15.122  44.770  11.442
31633W        W92944  13.188  18.786  11.880
31634W        W92945  18.708   2.441   0.289
31635W        W92946   0.260   5.833   1.853
31636W        W92947  34.471   1.437   0.357
31637W        W92948  29.053  25.059   3.835
31638W        W92949  44.395  15.673  10.927
31639W        W92950  22.013   7.220   3.160
31640W        W92951  34.020   6.727   1.712
31641W        W92952   3.883  34.935  14.436
31642W        W92953  34.465  17.199   4.203
31643W        W92954  11.635  24.632  14.836
31644W        W92955  10.330   4.859  13.971
31645W        W92956  20.546  11.127   3.871
31646W        W92957  26.511  26.611  10.094
31647W        W92958   9.300  12.634  11.461
31648W        W92959   7.865  30.568  13.433
31649W        W92960   2.335  22.146  13.306
31650W        W92961  42.504   8.665  10.458
31651W        W92962  26.009  39.422  10.535
31652W        W92963  30.926  33.519   3.188
31653W        W92964   7.778  11.332   4.161
31654W        W92965  16.316  30.485   1.240
31655W        W92966  10.706  12.321   1.763
31656W        W92967   7.835  32.634  13.349
31657W        W92968   6.886   9.391   3.693
31658W        W92969   3.325   0.911  12.378
31659W        W92970  31.545  33.530   4.289
31660W        W92971   3.304   0.348  12.954
31661W        W92972  21.534  39.476  13.404
31662W        W92973  31.957  21.258  11.095
31663W        W92974   1.259  22.099  10.500
31664W        W92975   1.963  27.069  12.398
31665W        W92976  44.897  38.359  11.382
31666W        W92977  37.032  33.448  13.942
31667W        W92978   4.374  25.614  10.634
31668W        W92979   8.803  26.509  10.406
31669W        W92980   7.902  36.417  13.424
31670W        W92981  36.929  24.615   1.814
31671W        W92982  16.669   0.763   1.256
31672W        W92983  27.965   0.403  13.464
31673W        W92984  34.550  15.123   3.237
31674W        W92985   2.326  44.830  11.524
31675W        W92986  29.993  34.890  11.551
31676W        W92987   5.886  39.402  13.351
31677W        W92988  31.622  10.740  12.377
31678W        W92989   6.852  30.984  11.035
31679W        W92990  19.570  42.373  11.066
31680W        W92991  15.197   4.246  10.462
31681W        W92992   2.292  18.564  14.339
31682W        W92993  21.742  38.531  10.971
31683W        W92994  11.744   8.297  11.037
31684W        W92995  18.643  10.695  14.486
31685W        W92996  38.966  25.684  12.926
31686W        W92997  35.066  25.097   0.450
31687W        W92998  27.190  25.140  13.027
31688W        W92999  18.686  18.632   2.368
31689W        W93000   1.773  24.131   0.857
31690W        W93001  41.478  11.759  13.996
31691W        W93002  24.500   0.342   4.179
31692W        W93003  34.612  32.573   2.274
31693W        W93004  14.246  10.353   4.225
31694W        W93005  11.182  22.013   3.331
31695W        W93006  15.769  12.352   1.893
31696W        W93007   4.363   1.424  11.041
31697W        W93008  21.721   9.172   2.748
31698W        W93009   7.240  15.707  11.468
31699W        W93010  39.498  28.554   3.181
31700W        W93011  15.175  14.164  14.020
31701W        W93012   5.229  21.022   0.447
31702W        W93013  39.964  30.934   4.218
31703W        W93014  25.104  18.108  13.823
31704W        W93015  42.867   9.308   5.215
31705W        W93016   5.215  13.217  14.016
31706W        W93017   2.728  30.488  11.480
31707W        W93018   3.354  12.852   0.913
31708W        W93019   3.755   0.492   2.255
31709W        W93020  41.355  43.002   2.726
31710W        W93021  18.670   4.870   5.109
31711W        W93022  25.127  29.038   4.723
31712W        W93023  44.479  30.549  12.871
31713W        W93024  42.775  36.423  11.122
31714W        W93025   7.199   6.282   1.714
31715W        W93026   7.263  33.124   2.733
31716W        W93027  33.424   0.791  13.957
31717W        W93028  22.006  36.910   0.791
31718W        W93029  36.988   1.820  12.907
31719W        W93030  11.126  29.920  14.805
31720W        W93031   1.733  39.414   2.338
31721W        W93032  34.995  22.503  11.000
31722W        W93033  44.458  36.546   0.869
31723W        W93034  13.609  43.924  12.070
31724W        W93035   5.746   3.403  14.775
31725W        W93036  31.427  17.292   3.365
31726W        W93037  17.111   5.917   2.219
31727W        W93038  23.235  28.156  13.837
31728W        W93039  22.066   1.792   3.692
31729W        W93040  28.464  17.719  11.875
31730W        W93041  16.283  43.835   1.302
31731W        W93042  13.748  26.470  13.458
31732W        W93043   7.173  28.044   2.827
31733W        W93044  12.618   4.216  12.963
31734W        W93045  24.525   5.362   4.737
31735W        W93046  17.307  30.977   1.271
31736W        W93047   3.832   3.301   1.872
31737W        W93048  14.227  38.376  14.928
31738W        W93049  26.979  11.289  12.496
31739W        W93050  42.881  44.886   0.733
31740W        W93051  35.558  38.935  13.312
31741W        W93052  36.980  31.113   2.736
31742W        W93053  20.171  15.321   4.673
31743W        W93054  12.316  13.349  14.497
31744W        W93055  14.329  28.457  12.992
31745W        W93056  39.035  15.743   0.418
31746W        W93057  33.552  20.102   4.832
31747W        W93058   7.357  35.377   3.211
31748W        W93059  30.953  33.008  14.026
31749W        W93060  39.499   8.840  13.443
31750W        W93061  31.021  16.783   3.849
31751W        W93062  19.101  12.343  11.070
31752W        W93063   7.289  27.040  11.065
31753W        W93064  38.015  22.060   0.942
31754W        W93065  33.443  25.057  13.345
31755W        W93066  29.050   6.294  10.008
31756W        W93067  16.122  36.085   3.827
31757W        W93068  11.686  25.990  13.002
31758W        W93069   5.215  29.101   3.764
31759W        W93070  43.285  26.509  14.484
31760W        W93071  29.979  44.807   1.306
31761W        W93072  31.572  16.588   0.767
31762W        W93073   8.795  43.925  14.413
31763W        W93074  12.772  43.989  12.497
31764W        W93075   3.833   8.330   1.831
31765W        W93076   7.764  19.069   2.773
31766W        W93077   0.767   5.293  10.536
31767W        W93078   5.230  11.275   2.773
31768W        W93079  39.331  28.081  14.438
31769W        W93080  14.282  15.582  10.466
31770W        W93081   1.824  18.173  14.811
31771W        W93082   4.757  16.609   2.272
31772W        W93083  10.766  41.958  10.916
31773W        W93084  10.761  30.085   2.335
31774W        W93085  44.318  34.119  11.570
31775W        W93086  11.276  36.848  14.407
31776W        W93087  40.471   3.827   0.466
31777W        W93088  12.792  21.051   2.315
31778W        W93089  36.425  28.442   1.891
31779W        W93090  25.586  15.218  12.538
31780W        W93091  16.310   0.416   0.316
31781W        W93092  38.011  44.950  10.506
31782W        W93093  11.365  33.607  10.043
31783W        W93094  12.741  32.985  11.887
31784W        W93095   2.460  18.685  12.491
31785W        W93096  29.455  18.157   1.901
31786W        W93097  13.148  40.314  11.957
31787W        W93098  29.019  23.684  11.087
31788W        W93099  14.786  20.526  11.996
31789W        W93100  22.564  13.289   3.198
31790W        W93101   8.787  30.524  14.499
31791W        W93102  41.292   8.313  13.388
31792W        W93103   4.785   2.734  14.968
31793W        W93104  36.982  27.978  10.934
31794W        W93105  13.830  32.481   1.763
31795W        W93106  11.356  28.170  14.935
31796W        W93107  38.991   2.332  14.383
31797W        W93108  10.703  44.831  14.776
31798W        W93109   3.878  28.435  14.762
31799W        W93110  38.338  28.479   0.757
31800W        W93111  29.590   6.428  13.403
31801W        W93112  18.172  19.769  10.574
31802W        W93113  30.142  36.407   1.712
31803W        W93114   3.332  20.076   0.477
31804W        W93115  23.060   9.191   3.700
31805W        W93116  36.400  30.030   0.885
31806W        W93117   6.202  41.294   1.901
31807W        W93118  15.589  20.129  11.570
31808W        W93119   5.837  27.447   2.359
31809W        W93120   8.302   3.745   1.410
31810W        W93121  38.965   8.778  10.983
31811W        W93122  32.069   1.350  13.361
31812W        W93123  28.649  20.203  13.495
31813W        W93124  14.785  27.125   4.254
31814W        W93125   9.247   3.242   2.364
31815W        W93126  27.627   8.285   1.406
31816W        W93127  15.592  24.633   0.848
31817W        W93128   8.403   7.372   3.756
31818W        W93129  33.521   6.404   0.913
31819W        W93130  41.355  27.001   1.395
31820W        W93131  30.102  42.398  12.979
31821W        W93132  36.362  26.509  12.963
31822W        W93133  38.999  44.987  14.777
31823W        W93134  31.944  36.920   3.723
31824W        W93135   4.423  39.038   0.943
31825W        W93136  17.150  40.418   1.919
31826W        W93137   3.398  35.000  12.089
31827W        W93138  22.589   9.705  11.126
31828W        W93139  14.331   0.327  10.426
31829W        W93140  22.175   5.321   4.140
31830W        W93141  16.310  22.995   3.335
31831W        W93142   1.392  28.628   1.781
31832W        W93143  33.519  31.439   2.863
31833W        W93144  34.018  34.545   1.313
31834W        W93145  40.841  12.156   4.235
31835W        W93146   6.269  32.536  10.980
31836W        W93147  17.227  13.241  10.124
31837W        W93148  34.077   1.271   1.881
31838W        W93149  38.986  22.069  11.459
31839W        W93150  41.972  40.909  13.419
31840W        W93151  21.081  16.589   1.798
31841W        W93152   5.411  23.650  13.489
31842W        W93153   7.325  13.271  10.418
31843W        W93154  26.981  34.415   1.799
31844W        W93155  38.877  38.055   2.273
31845W        W93156  29.139  29.079   2.666
31846W        W93157  41.836   6.189  14.965
31847W        W93158  18.651   4.879  10.971
31848W        W93159  15.127  25.547  11.508
31849W        W93160   1.374  10.679   1.259
31850W        W93161  16.783  36.005   2.231
31851W        W93162  36.550  41.445   4.124
31852W        W93163  33.604   6.805   1.300
31853W        W93164  17.121   8.171   1.857
31854W        W93165   9.747  39.892   1.289
31855W        W93166  28.544  30.035  14.411
31856W        W93167  35.514  13.627  14.292
31857W        W93168  11.794  40.958  13.323
31858W        W93169   3.939  37.073   4.710
31859W        W93170  26.571   1.808   0.755
31860W        W93171  27.947  11.665  14.500
31861W        W93172  29.115  15.224  13.367
31862W        W93173  25.498  30.577   2.885
31863W        W93174  13.753  43.284   3.385
31864W        W93175  42.899  13.261   4.295
31865W        W93176  25.480  30.991   2.781
31866W        W93177  41.865  29.666   2.216
31867W        W93178  17.637   9.710   2.227
31868W        W93179  26.976  10.212  12.093
31869W        W93180  28.064  19.577  10.518
31870W        W93181  19.248  44.965   0.365
31871W        W93182   2.936  41.955   2.819
31872W        W93183  43.504  39.047  13.890
31873W        W93184   5.437   9.301   4.611
31874W        W93185   1.337  43.270  14.866
31875W        W93186  14.698   7.223   1.284
31876W        W93187  21.683  18.757  11.453
31877W        W93188   6.873  14.323   1.283
31878W        W93189   5.801  27.053  14.300
31879W        W93190  34.591  27.067  11.987
31880W        W93191  21.553  38.477   0.340
31881W        W93192  37.012  37.496   5.189
31882W        W93193  28.964  13.172   1.781
31883W        W93194  14.173   1.238   3.303
31884W        W93195  10.716  42.403  12.839
31885W        W93196   1.392  30.913  10.916
31886W        W93197  26.517  33.011   2.218
31887W        W93198   2.935   3.327  14.322
31888W        W93199  25.512  11.229   4.700
31889W        W93200  35.485  27.960   3.846
31890W        W93201  29.975  35.496  11.586
31891W        W93202  22.646   5.727  12.834
31892W        W93203   1.239  37.934   4.271
31893W        W93204  25.710   5.366   1.768
31894W        W93205  40.946  27.618  10.490
31895W        W93206  22.028  10.654  13.460
31896W        W93207   1.970   7.711  12.961
31897W        W93208  37.895  26.583   2.282
31898W        W93209   4.276  13.254  10.454
31899W        W93210  18.158  40.895  14.012
31900W        W93211  29.122  26.965  14.456
31901W        W93212   5.202  21.250   2.861
31902W        W93213  15.119   5.331   4.695
31903W        W93214  10.643  25.596  12.845
31904W        W93215  25.503  40.870   1.736
31905W        W93216   7.714  43.904   4.808
31906W        W93217   5.790  10.754  10.914
31907W        W93218   2.866  28.121  11.897
31908W        W93219  10.797   3.299  12.384
31909W        W93220  36.497  12.800  14.353
31910W        W93221  12.649  39.972  10.889
31911W        W93222  34.881  25.517   2.373
31912W        W93223  11.140  34.614   1.819
31913W        W93224  42.496  10.366   1.823
31914W        W93225   0.877  17.664  14.764
31915W        W93226  15.141  44.481  11.072
31916W        W93227  35.914  38.385   4.801
31917W        W93228  40.523  32.987   1.447
31918W        W93229   9.867  11.353  10.991
31919W        W93230  26.006  43.513  14.857
31920W        W93231  31.434  19.596  14.895
31921W        W93232  43.333  37.555  11.401
31922W        W93233  36.932  22.596  11.393
31923W        W93234  13.183  28.574  12.482
31924W        W93235  19.178  30.658   0.784
31925W        W93236   5.895  15.208  12.508
31926W        W93237  37.830  23.705  10.895
31927W        W93238  12.160  12.703  13.047
31928W        W93239  25.127  16.318  11.023
31929W        W93240  43.360  21.625   1.870
31930W        W93241   0.431  20.178  12.866
31931W        W93242  36.067   9.856  11.604
31932W        W93243  30.556  36.505   1.915
31933W        W93244  34.501  23.125   3.145
31934W        W93245  43.351   8.348   4.300
31935W        W93246  22.582  13.609   4.256
31936W        W93247  19.583  33.016   2.268
31937W        W93248  20.565  43.810   3.680
31938W        W93249  40.814   9.205  11.089
31939W        W93250  23.598  33.509   9.937
31940W        W93251   0.950  38.841   0.760
31941W        W93252   7.220  40.023  10.912
31942W        W93253  22.589  26.488  10.106
31943W        W93254  25.205  32.598  11.537
31944W        W93255  10.777  39.850  10.449
31945W        W93256  14.177   6.734  14.788
31946W        W93257  35.866  21.694  13.805
31947W        W93258  44.929   2.258  13.973
31948W        W93259   8.357  44.502   2.386
31949W        W93260  36.062  29.548   1.335
31950W        W93261   6.732   8.734   4.608
31951W        W93262  43.820  40.547   3.763
31952W        W93263  20.629  37.552   3.156
31953W        W93264  25.606   4.274  13.358
31954W        W93265  19.104  42.852   1.774
31955W        W93266  25.482  38.052  14.772
31956W        W93267  15.733  40.812   4.706
31957W        W93268  39.976  43.451  14.347
31958W        W93269  39.845  22.691  12.880
31959W        W93270  29.530  38.970   0.900
31960W        W93271  33.553  14.746   0.862
31961W        W93272  14.721   5.243   3.631
31962W        W93273  41.983  36.019  12.496
31963W        W93274  17.577  15.191  13.006
31964W        W93275  44.380  12.674  11.930
31965W        W93276  41.811  23.111   3.764
31966W        W93277  19.582  15.234   1.300
31967W        W93278   3.880  11.354   4.733
31968W        W93279  18.624  36.429  12.424
31969W        W93280  23.730   0.392  14.007
31970W        W93281  23.134  38.427  12.412
31971W        W93282  23.574  21.624  13.833
31972W        W93283  19.064   6.849   3.726
31973W        W93284   3.449  43.923  11.058
31974W        W93285  41.935  25.601  11.444
31975W        W93286  44.290  18.185  14.869
31976W        W93287  32.897  22.690   1.913
31977W        W93288  17.114  17.231  13.826
31978W        W93289   3.387   9.227   0.784
31979W        W93290  42.828  42.829  11.535
31980W        W93291  44.468  43.384   1.317
31981W        W93292  41.020  37.904  12.059
31982W        W93293  18.578  32.084  12.945
31983W        W93294  44.848  11.813  10.983
31984W        W93295  42.496   4.859  11.051
31985W        W93296  13.666   3.443   3.349
31986W        W93297  20.232  26.585   3.696
31987W        W93298  12.843   5.353   4.752
31988W        W93299  24.600  14.795   0.366
31989W        W93300  13.121   5.310   3.190
31990W        W93301  12.622  24.516  11.570
31991W        W93302  32.076  43.295  14.807
31992W        W93303  30.507  34.438  10.918
31993W        W93304  34.075  23.081  11.952
31994W        W93305   2.927   6.750  12.880
31995W        W93306  18.116   3.780   9.476
31996W        W93307   8.383  30.443  14.365
31997W        W93308  27.585  42.982   2.260
31998W        W93309   5.869  14.685  14.504
31999W        W93310  39.321  24.572  13.398
32000W        W93311  16.215   5.326  11.998
32001W        W93312  24.565  11.270  11.578
32002W        W93313  37.475  24.004   1.709
32003W        W93314   9.294  41.407   4.182
32004W        W93315  21.157  26.634  12.948
32005W        W93316  28.084   5.792  13.980
32006W        W93317  18.599  13.644  13.928
32007W        W93318  36.006  13.674   4.621
32008W        W93319  17.142   5.904   2.713
32009W        W93320  36.488  15.174   2.306
32010W        W93321  13.191   5.918  12.899
32011W        W93322  13.660  10.703   4.120
32012W        W93323  40.489  42.467   2.822
32013W        W93324  12.295  21.229  14.801
32014W        W93325  16.619  30.614   1.414
32015W        W93326  25.037  23.658  14.989
32016W        W93327  39.896  39.410   2.687
32017W        W93328   6.838   9.752   3.772
32018W        W93329  35.016   8.727  10.039
32019W        W93330  24.589  23.075  11.059
32020W        W93331  29.154  39.320   0.421
32021W        W93332  10.651  12.811   2.293
32022W        W93333  38.041  23.160  13.470
32023W        W93334   8.728  43.395  10.414
32024W        W93335  32.410  12.620   1.404
32025W        W93336  23.536  23.096  12.534
32026W        W93337  42.366  37.443   1.825
32027W        W93338  10.162  36.365  12.481
32028W        W93339  14.125  33.039   1.874
32029W        W93340  35.377  42.367   2.750
32030W        W93341  17.684  35.923  11.416
32031W        W93342   7.318   4.388  14.893
32032W        W93343  31.153   9.372   1.889
32033W        W93344   3.426   8.319   1.259
32034W        W93345  37.558   5.241   2.794
32035W        W93346  25.674  17.704   2.184
32036W        W93347  21.067  24.091   5.087
32037W        W93348  17.776  25.078  14.392
32038W        W93349   8.744  10.866  11.460
32039W        W93350  40.798   0.360  10.591
32040W        W93351  36.525   5.798   2.196
32041W        W93352   0.927   6.229  14.512
32042W        W93353   2.775  15.283   3.368
32043W        W93354  32.619   9.280  14.287
32044W        W93355   8.328  41.852  11.888
32045W        W93356  28.065  10.174   0.803
32046W        W93357  22.536  37.580   2.345
32047W        W93358  21.626  11.267   0.805
32048W        W93359  26.506  19.544  14.989
32049W        W93360  22.539  32.896   1.773
32050W        W93361  39.391  42.869  14.495
32051W        W93362  16.099  29.973  13.320
32052W        W93363  36.860  24.516   4.208
32053W        W93364  11.280   0.973   2.838
32054W        W93365  15.321  24.487   4.288
32055W        W93366   5.311  36.071   3.658
32056W        W93367  16.080  14.338  13.909
32057W        W93368   4.898  24.036  11.856
32058W        W93369  44.765  39.503   1.723
32059W        W93370  37.951   4.890   4.149
32060W        W93371  32.505  42.993   2.316
32061W        W93372   6.389   0.781  11.376
32062W        W93373  18.263   7.237  14.444
32063W        W93374  36.963  31.615  14.307
32064W        W93375  23.723  16.716   0.344
32065W        W93376   3.756  34.954   1.248
32066W        W93377  12.311  15.669   1.390
32067W        W93378  11.296  18.195  11.401
32068W        W93379  22.139  12.690  11.484
32069W        W93380   6.696  41.522  10.443
32070W        W93381  34.370  13.756   3.850
32071W        W93382  44.964  38.055  10.523
32072W        W93383   9.344   9.278  13.365
32073W        W93384   2.235   9.669  12.446
32074W        W93385   9.157   1.470   0.256
32075W        W93386  20.743  34.899  13.516
32076W        W93387  41.331  30.056  12.445
32077W        W93388  24.172  37.940   1.390
32078W        W93389  31.904  11.747   3.378
32079W        W93390  10.212  36.427   1.869
32080W        W93391  41.005   5.365  13.854
32081W        W93392  31.915  18.243   0.956
32082W        W93393  15.319  31.135   3.344
32083W        W93394  11.626  13.234  12.070
32084W        W93395   0.442   9.194   2.321
32085W        W93396   8.376  10.777   2.191
32086W        W93397  24.545  26.519  10.094
32087W        W93398  16.792   1.357  11.025
32088W        W93399  20.144   1.926  13.926
32089W        W93400   1.308  43.329  13.369
32090W        W93401  17.721  25.026   9.981
32091W        W93402  28.439  40.044  12.423
32092W        W93403  38.965  18.237   1.429
32093W        W93404  28.938  16.120  11.085
32094W        W93405  18.595  41.326   5.149
32095W        W93406  18.583  37.538  14.482
32096W        W93407  14.170  33.927   1.902
32097W        W93408  22.651  25.163   2.224
32098W        W93409   8.879  38.909  14.308
32099W        W93410   0.262  11.824   3.796
32100W        W93411  10.310  27.558  10.579
32101W        W93412  15.799  37.540   0.736
32102W        W93413  40.959   0.938  13.857
32103W        W93414  43.475  16.272  13.333
32104W        W93415  11.729  22.676   3.813
32105W        W93416  44.438  34.932  14.894
32106W        W93417  20.147   5.788   4.119
32107W        W93418  38.995  12.299   3.302
32108W        W93419  27.583  42.521   0.257
32109W        W93420  10.766   7.332  14.879
32110W        W93421  22.106  33.552   4.269
32111W        W93422   5.281  39.857  13.502
32112W        W93423  41.499  38.880  14.338
32113W        W93424  38.345  44.899   1.274
32114W        W93425  13.839  43.486  11.457
32115W        W93426  34.882  26.520   4.270
32116W        W93427   5.298  14.820  13.977
32117W        W93428  30.517  19.762   5.216
32118W        W93429  31.906  23.115  13.328
32119W        W93430  34.431   9.324  13.825
32120W        W93431  41.373  17.156   4.275
32121W        W93432  25.545  36.918   2.738
32122W        W93433  37.537  27.131  10.637
32123W        W93434  23.627  11.740   4.811
32124W        W93435  43.445  34.926   2.704
32125W        W93436  38.507  16.158   0.422
32126W        W93437   0.485  17.153   3.314
32127W        W93438  37.969  10.234   2.767
32128W        W93439   0.974  38.328  12.547
32129W        W93440  25.214  19.667  13.327
32130W        W93441  18.547  19.774  12.447
32131W        W93442  29.647  18.761   0.873
32132W        W93443   8.792  24.721  11.054
32133W        W93444  10.825  27.022  14.014
32134W        W93445  36.050   5.431  13.972
32135W        W93446   9.250   4.714   3.865
32136W        W93447  10.166  36.551  11.872
32137W        W93448  19.626  25.583  10.961
32138W        W93449  26.578  34.924   4.774
32139W        W93450  28.677  35.580  11.099
32140W        W93451  26.568  44.823   1.397
32141W        W93452  14.157  44.789   3.822
32142W        W93453  16.271  31.608  10.485
32143W        W93454  19.766  33.491  12.456
32144W        W93455  24.178  39.469   1.784
32145W        W93456  37.507   6.704  10.512
32146W        W93457  33.416  40.440   5.113
32147W        W93458   4.222   4.823   4.779
32148W        W93459  35.590  35.048  12.917
32149W        W93460  30.413   5.840   3.680
32150W        W93461   4.838  16.087  12.990
32151W        W93462   6.289  24.184   1.337
32152W        W93463  11.784   8.230  12.829
32153W        W93464  26.137   9.849   4.243
32154W        W93465  20.104  31.067  12.400
32155W        W93466  19.271  41.351  10.948
32156W        W93467  44.969  15.682  13.957
32157W        W93468  22.731  15.219  11.990
32158W        W93469   5.784  25.543   4.635
32159W        W93470   0.852  40.360  11.866
32160W        W93471   6.843   5.904   0.346
32161W        W93472  11.821  29.033   9.940
32162W        W93473  11.314  34.480   3.639
32163W        W93474   1.882  36.865   3.839
32164W        W93475  27.059  40.051   4.727
32165W        W93476  42.328  44.866  12.855
32166W        W93477  36.551  21.515   0.372
32167W        W93478   4.915   4.764   3.189
32168W        W93479  28.658  40.878  12.877
32169W        W93480   8.851  17.107   3.756
32170W        W93481   1.402   9.861   4.273
32171W        W93482   6.810  41.787   3.709
32172W        W93483  14.671  42.295  13.502
32173W        W93484  12.743  42.032   4.709
32174W        W93485  37.465   0.859   3.781
32175W        W93486   5.763  35.431  10.550
32176W        W93487   6.836   5.704   4.765
32177W        W93488  14.321  26.156   3.759
32178W        W93489   5.401   7.880  12.559
32179W        W93490  12.295   1.417   4.293
32180W        W93491  36.355   9.764  12.826
32181W        W93492  23.069  36.434  11.538
32182W        W93493  41.893   4.364   2.839
32183W        W93494  42.920  23.568   0.920
32184W        W93495  15.604  30.510   1.865
32185W        W93496  17.589  44.838  12.968
32186W        W93497  27.086  35.449   1.290
32187W        W93498   3.778   8.729  11.053
32188W        W93499  16.764  23.039  11.111
32189W        W93500  22.075  41.483   0.398
32190W        W93501  22.565  24.527   3.209
32191W        W93502   7.345  22.220   1.283
32192W        W93503  28.049  24.500  11.029
32193W        W93504  22.153  32.054   4.627
32194W        W93505  16.703   5.741  13.471
32195W        W93506  14.700  18.752   3.185
32196W        W93507   7.213  18.179   5.567
32197W        W93508  12.354   4.888   4.746
32198W        W93509  22.080  10.349   1.365
32199W        W93510  29.567   1.874   2.677
32200W        W93511  17.778  30.562   3.227
32201W        W93512  19.608  31.436  14.969
32202W        W93513  13.778  44.403   0.836
32203W        W93514  13.821   2.794  10.110
32204W        W93515  30.054  39.403   0.800
32205W        W93516  33.441   2.818   1.898
32206W        W93517  32.966  10.638  13.459
32207W        W93518  37.945  37.579   5.290
32208W        W93519  32.118   2.332   3.686
32209W        W93520   7.205  28.023   1.447
32210W        W93521  33.014  13.181   2.257
32211W        W93522  29.044  27.455   0.944
32212W        W93523  23.714   8.177   4.622
32213W        W93524  33.553  31.418   4.175
32214W        W93525   2.472   4.365  11.585
32215W        W93526  18.629  32.014   2.684
32216W        W93527  18.242  31.052  11.422
32217W        W93528  34.105  17.726   1.915
32218W        W93529  26.180  18.787  11.407
32219W        W93530   4.874   6.208   1.269
32220W        W93531  41.840  42.289   2.200
32221W        W93532  22.063   3.300   0.445
32222W        W93533  23.144  39.025   0.797
32223W        W93534  14.735  38.946   4.262
32224W        W93535   9.375   0.371   0.420
32225W        W93536  12.714  16.117   0.287
32226W        W93537  18.134   5.865  12.862
32227W        W93538  40.845  31.979  10.523
32228W        W93539  36.433  23.040   1.437
32229W        W93540  11.291   9.169  12.390
32230W        W93541  21.170  28.627  12.855
32231W        W93542  11.630  12.683   1.400
32232W        W93543  29.529   8.365   5.085
32233W        W93544  31.136  36.003  10.116
32234W        W93545  29.078  40.947  13.515
32235W        W93546  33.975  34.526   4.325
32236W        W93547  19.082  18.544  12.871
32237W        W93548  19.117  24.162  11.967
32238W        W93549  19.771  17.286   1.313
32239W        W93550  30.656  28.167   3.183
32240W        W93551  43.886   1.825  14.807
32241W        W93552  16.270  33.434   2.872
32242W        W93553  23.714   6.716  12.036
32243W        W93554  10.340   1.825   2.797
32244W        W93555  12.268  21.749   1.714
32245W        W93556   1.948  28.097  13.975
32246W        W93557  10.204  32.019   1.343
32247W        W93558  17.190  34.972   4.175
32248W        W93559  31.921   3.874   2.771
32249W        W93560  16.581  37.550   4.142
32250W        W93561  25.594   3.299   3.780
32251W        W93562  28.523  32.505  11.604
32252W        W93563  10.814   0.473  12.904
32253W        W93564  11.726   1.787  11.975
32254W        W93565  33.971  44.945  11.875
32255W        W93566  19.612  33.082   0.274
32256W        W93567   7.911  35.445   3.374
32257W        W93568  17.788  16.575   2.691
32258W        W93569  26.588   7.269  14.508
32259W        W93570  27.676  38.934   2.188
32260W        W93571  21.626  23.088  10.980
32261W        W93572   5.880   2.867  13.057
32262W        W93573   2.407   9.685  10.445
32263W        W93574  26.162  35.935  12.096
32264W        W93575  20.595   4.815  11.073
32265W        W93576  12.363  20.615   3.284
32266W        W93577  39.347  44.337  11.497
32267W        W93578   1.971  36.580   3.705
32268W        W93579  37.488  31.968   2.830
32269W        W93580  39.039  12.329  11.548
32270W        W93581  17.616  36.539   2.767
32271W        W93582   5.386  39.955   3.293
32272W        W93583   8.722  38.349   1.329
32273W        W93584  12.181  42.391   1.371
32274W        W93585   6.749  15.256  11.987
32275W        W93586  39.514  42.966   2.859
32276W        W93587  29.046   5.771   2.359
32277W        W93588  18.198  42.777  11.861
32278W        W93589  23.541  29.436  14.000
32279W        W93590  37.415   0.924  13.045
32280W        W93591  43.286  29.474  13.442
32281W        W93592   6.777   8.238  13.505
32282W        W93593   4.779   2.465  11.959
32283W        W93594  16.286  19.751  11.036
32284W        W93595  25.655  37.907   0.939
32285W        W93596  24.660  32.505  14.313
32286W        W93597  43.430   5.421   3.250
32287W        W93598  23.232  35.909  12.346
32288W        W93599  17.239   8.727  11.106
32289W        W93600  29.133  37.465  12.096
32290W        W93601  30.933  25.505  12.522
32291W        W93602  10.755  13.744   2.403
32292W        W93603   0.467   4.738   1.883
32293W        W93604  41.841  24.091  11.913
32294W        W93605   4.822   1.477  14.338
32295W        W93606  16.252  21.262  10.979
32296W        W93607  35.860  34.899  10.508
32297W        W93608  12.790  10.676  13.886
32298W        W93609  26.458  18.225   1.735
32299W        W93610   8.305  25.196   4.825
32300W        W93611  16.761  27.194  11.920
32301W        W93612  16.750   6.689   3.857
32302W        W93613  13.840  13.828  11.986
32303W        W93614  23.551   1.477   0.929
32304W        W93615   4.396   9.759  11.870
32305W        W93616  29.100  30.649  11.052
32306W        W93617  31.040  40.981   4.167
32307W        W93618  44.420  10.730   3.169
32308W        W93619  21.054  17.650   1.796
32309W        W93620   9.303  13.795  13.356
32310W        W93621   8.240  26.113  13.397
32311W        W93622  32.886  26.625   4.832
32312W        W93623  11.292  21.017   1.274
32313W        W93624  14.765  24.073   4.235
32314W        W93625  41.452  41.363  11.063
32315W        W93626  35.554  41.475  14.488
32316W        W93627   3.888  36.891  11.547
32317W        W93628  38.865  26.535  12.373
32318W        W93629  32.140  22.202  13.990
32319W        W93630  36.504  43.322   1.357
32320W        W93631  37.464   1.244  12.056
32321W        W93632  26.959  29.152  13.006
32322W        W93633  27.673   9.812  11.966
32323W        W93634   7.841  15.655   1.246
32324W        W93635  21.757  21.160   9.490
32325W        W93636  37.424  40.382   3.190
32326W        W93637  28.633  15.640   4.118
32327W        W93638  34.504  17.225  12.913
32328W        W93639  38.397   5.840  10.950
32329W        W93640  43.914  23.576  12.367
32330W        W93641   0.393  38.982  12.063
32331W        W93642  17.643   4.864  10.626
32332W        W93643  32.931  37.512  12.031
32333W        W93644   3.956  35.860  13.882
32334W        W93645  32.005  19.594   2.303
32335W        W93646   3.909  30.145  10.968
32336W        W93647  26.681   5.849  14.798
32337W        W93648  27.077  10.799  11.856
32338W        W93649  28.066   3.837   2.404
32339W        W93650  12.343  27.067  14.404
32340W        W93651   1.821  34.053   4.620
32341W        W93652   4.859  14.168  12.451
32342W        W93653  17.683  42.333   2.257
32343W        W93654  29.652   6.182   0.754
32344W        W93655  42.844  24.637   1.860
32345W        W93656  24.528   9.705  13.453
32346W        W93657  31.573  36.582   4.687
32347W        W93658  41.034  16.636  14.884
32348W        W93659  26.626  38.549   4.690
32349W        W93660  10.765  20.076   0.343
32350W        W93661  21.594  11.795  14.823
32351W        W93662  13.311  40.537  14.770
32352W        W93663  10.712   3.337  10.058
32353W        W93664  14.781  35.004  12.980
32354W        W93665  13.176  43.939   2.275
32355W        W93666  40.464  37.932   4.597
32356W        W93667  44.460  43.335  12.027
32357W        W93668  31.588  19.206   2.774
32358W        W93669  38.453   7.686  14.020
32359W        W93670  34.412  37.500  11.526
32360W        W93671  10.143   1.923   4.201
32361W        W93672   0.913  14.685  13.845
32362W        W93673  43.982  40.342   1.421
32363W        W93674   3.413  14.171  12.942
32364W        W93675  35.075  19.069  12.434
32365W        W93676  29.175   8.323   0.437
32366W        W93677  30.057  28.024   4.325
32367W        W93678   4.705   0.372  13.815
32368W        W93679  41.483  17.773   0.917
32369W        W93680   3.300   6.852  12.473
32370W        W93681  32.908  10.154  14.465
32371W        W93682  15.642   9.334   0.763
32372W        W93683   0.396  34.058  11.473
32373W        W93684  16.774  19.243  11.415
32374W        W93685  28.508  26.058   3.312
32375W        W93686  25.638   8.897  12.466
32376W        W93687  44.810  42.493  13.473
32377W        W93688  20.741  19.128  10.584
32378W        W93689  30.475  39.868  12.436
32379W        W93690  36.409  23.159   2.188
32380W        W93691  43.282  35.959  11.521
32381W        W93692  32.019  38.906   3.321
32382W        W93693  35.996   0.354  12.022
32383W        W93694  35.576  22.220   1.917
32384W        W93695   4.895   8.858   2.787
32385W        W93696   7.712   6.691  13.373
32386W        W93697  28.627  35.499   4.347
32387W        W93698  29.107  19.124   1.706
32388W        W93699   7.196   7.754   0.923
32389W        W93700   0.893  37.935  12.933
32390W        W93701   6.391   0.856  12.003
32391W        W93702  36.379  38.015  12.356
32392W        W93703  10.353   0.310  14.902
32393W        W93704  23.565  22.659  14.960
32394W        W93705  35.867  33.122  11.858
32395W        W93706  16.661  42.962  13.945
32396W        W93707  26.660  10.229  11.883
32397W        W93708  39.321  25.489   2.723
32398W        W93709  35.032  23.166   2.671
32399W        W93710   1.240  43.992  13.463
32400W        W93711   0.356  35.380   0.731
32401W        W93712  22.070  27.570  12.354
32402W        W93713  40.512  32.059   2.325
32403W        W93714  42.794  19.776  14.844
32404W        W93715  10.712  42.471   3.661
32405W        W93716  21.079   3.370  14.894
32406W        W93717  36.475  12.799   3.210
32407W        W93718  20.117  10.318   0.385
32408W        W93719  11.238  33.485   4.703
32409W        W93720  22.231  24.224   4.150
32410W        W93721  15.684  30.656  13.496
32411W        W93722   6.334  37.516   3.858
32412W        W93723  23.707  26.498   1.425
32413W        W93724  36.434  27.463  13.028
32414W        W93725  24.023  19.104  12.507
32415W        W93726  23.695  17.220  11.414
32416W        W93727  13.234  23.510   4.316
32417W        W93728   7.393  20.169   0.942
32418W        W93729  22.585   3.236   3.165
32419W        W93730  44.790   4.345  11.955
32420W        W93731  25.644  33.929   0.269
32421W        W93732  32.593  26.030  11.444
32422W        W93733   7.781  22.582  14.465
32423W        W93734  25.580  25.002   1.406
32424W        W93735  40.511  24.033   3.803
32425W        W93736  42.343  24.521  11.098
32426W        W93737  26.169  17.229  11.610
32427W        W93738  42.297  18.232   1.762
32428W        W93739  44.866  26.978   0.812
32429W        W93740   0.800  18.610   4.336
32430W        W93741  25.069   2.313  14.399
32431W        W93742   3.348  15.278   3.169
32432W        W93743  18.193  20.143   3.660
32433W        W93744  41.942   5.905  12.496
32434W        W93745  13.192  26.057   4.163
32435W        W93746   9.683  44.967  12.428
32436W        W93747  21.257   0.423  10.559
32437W        W93748   2.447  11.193  14.834
32438W        W93749  15.638  17.104  11.059
32439W        W93750  25.477  15.586   1.918
32440W        W93751   2.885   9.702  14.410
32441W        W93752  17.699  22.115   2.418
32442W        W93753  35.984   3.300  11.095
32443W        W93754   3.340  26.549   3.708
32444W        W93755  32.008  20.757   3.822
32445W        W93756  34.540  25.153   2.731
32446W        W93757  28.133  39.950  14.945
32447W        W93758   5.356  22.707   1.325
32448W        W93759  37.978  22.666  10.949
32449W        W93760  21.670   9.149  12.837
32450W        W93761  16.134  14.604   3.662
32451W        W93762   7.387  11.697  13.036
32452W        W93763  14.195  14.292  13.410
32453W        W93764   0.386  41.365  12.953
32454W        W93765  42.871  28.478  13.872
32455W        W93766  20.184  13.753   3.314
32456W        W93767  10.632  44.412   4.173
32457W        W93768  24.184  42.287   1.222
32458W        W93769  38.846  16.625  14.489
32459W        W93770  20.526  10.374  14.335
32460W        W93771  28.440  11.285   1.854
32461W        W93772   7.310  16.744   1.423
32462W        W93773  23.213  24.997  14.950
32463W        W93774  10.743  23.634  11.537
32464W        W93775  13.121  36.025   4.709
32465W        W93776  21.516  28.605  12.882
32466W        W93777  28.094  36.022  13.935
32467W        W93778  37.376  23.134   2.266
32468W        W93779  20.065   6.339  14.882
32469W        W93780  37.923   8.818  12.398
32470W        W93781  14.612  13.739  14.796
32471W        W93782  32.407  18.608   2.663
32472W        W93783   0.977  30.431   1.309
32473W        W93784  36.552   4.829   0.853
32474W        W93785  15.800  13.695  10.051
32475W        W93786  30.160   4.733  10.042
32476W        W93787  39.505  14.116   4.272
32477W        W93788  19.633  10.837  14.004
32478W        W93789  44.275   0.809  14.378
32479W        W93790  23.054  21.588  11.128
32480W        W93791  21.058   5.322   2.189
32481W        W93792  25.028  24.689  14.015
32482W        W93793  39.845  38.823  11.495
32483W        W93794  25.631  21.245  14.980
32484W        W93795  35.406  22.101  13.536
32485W        W93796   3.798  34.485  10.440
32486W        W93797  43.865  20.724   3.271
32487W        W93798  17.303   6.771   0.445
32488W        W93799  10.202  30.569   0.961
32489W        W93800   6.349  13.708   9.989
32490W        W93801   7.222  36.028   2.778
32491W        W93802  41.498  24.148   2.715
32492W        W93803  15.218  39.951   3.239
32493W        W93804   0.274  30.093   2.850
32494W        W93805  17.266  20.181   0.476
32495W        W93806  39.463  34.529   0.393
32496W        W93807  32.094  19.193   2.702
32497W        W93808  42.402  44.400   4.184
32498W        W93809  13.835  35.476  14.436
32499W        W93810  12.313  44.776  14.338
32500W        W93811  17.712  42.355  13.793
32501W        W93812  41.425  37.528  11.411
32502W        W93813  23.097  33.964   2.888
32503W        W93814  43.835  39.868  13.416
32504W        W93815  19.593  24.008   0.356
32505W        W93816  18.201  14.226  14.827
32506W        W93817  28.454  16.696   0.295
32507W        W93818  20.555  27.562  12.851
32508W        W93819  14.600   5.755   0.876
32509W        W93820  13.645  11.126   1.841
32510W        W93821  10.245  37.900  10.627
32511W        W93822   5.212   2.279   0.388
32512W        W93823  29.468  24.200   2.735
32513W        W93824  33.054  26.524   2.200
32514W        W93825  10.720  20.584   2.368
32515W        W93826  21.241   8.331   4.718
32516W        W93827  27.522  41.439   1.446
32517W        W93828  22.135  20.673  14.383
32518W        W93829  15.662   2.362   5.189
32519W        W93830   7.207   6.824  13.329
32520W        W93831   2.940   8.719   3.308
32521W        W93832  29.523   4.882  14.401
32522W        W93833  16.609   7.309   3.217
32523W        W93834   2.311  26.955   0.747
32524W        W93835  27.129  34.469   2.380
32525W        W93836  12.120  15.176  12.377
32526W        W93837   1.816  30.612  10.461
32527W        W93838  25.062  30.602   2.861
32528W        W93839  38.011   3.366   4.331
32529W        W93840   9.390  39.979   4.828
32530W        W93841  26.972  17.227   0.920
32531W        W93842  12.820   5.258   1.414
32532W        W93843  18.267  28.999  13.056
32533W        W93844  44.936  23.199   0.301
32534W        W93845   6.705  17.731  11.527
32535W        W93846  28.141   9.795  12.368
32536W        W93847  32.604  37.433   0.434
32537W        W93848  22.632  37.362   3.360
32538W        W93849  40.017  29.989  12.365
32539W        W93850  21.085  31.057  11.372
32540W        W93851  15.169  12.711  12.080
32541W        W93852  41.345  33.572   3.332
32542W        W93853  34.011  10.232  13.799
32543W        W93854  14.593  35.371  10.600
32544W        W93855  24.110  29.455   4.334
32545W        W93856  40.984  24.017   3.204
32546W        W93857  24.055  12.725  10.527
32547W        W93858  14.781   2.281  12.978
32548W        W93859  37.368  44.963   3.730
32549W        W93860  20.689  37.969   9.936
32550W        W93861  39.861  41.983   3.723
32551W        W93862  17.141  16.697   1.329
32552W        W93863  29.026  26.017   1.780
32553W        W93864  24.607  41.886  10.474
32554W        W93865  30.426  32.531  14.975
32555W        W93866   6.868   7.746  13.014
32556W        W93867  43.297  38.039  10.975
32557W        W93868  38.533  22.106   4.257
32558W        W93869  13.244   7.198   4.167
32559W        W93870  28.071  36.902  12.054
32560W        W93871  43.820  22.670  12.921
32561W        W93872   4.257  16.759  12.508
32562W        W93873   6.874  27.594  12.948
32563W        W93874  23.594  40.444   1.869
32564W        W93875  33.917  14.664   4.154
32565W        W93876   7.797  24.021   3.372
32566W        W93877  10.167  20.177  11.445
32567W        W93878  17.643  36.403   3.746
32568W        W93879  21.740   4.248   3.743
32569W        W93880  24.675  25.151   3.680
32570W        W93881   4.735  37.035   9.998
32571W        W93882   3.806  20.203  14.845
32572W        W93883  39.850   5.396   1.389
32573W        W93884  35.504  14.252   1.740
32574W        W93885   5.838  12.759  13.514
32575W        W93886   5.351  31.538  11.991
32576W        W93887  23.010  30.580   1.705
32577W        W93888   5.794  32.899   3.211
32578W        W93889  42.925   9.794  11.605
32579W        W93890   0.819  42.872  10.440
32580W        W93891   3.344  44.474   1.820
32581W        W93892  34.904   3.424   3.703
32582W        W93893  27.644  22.045  10.475
32583W        W93894  38.830  14.714  11.416
32584W        W93895  20.263   4.759   3.814
32585W        W93896  20.127  35.392  13.458
32586W        W93897  28.641  31.943   0.247
32587W        W93898   0.379   8.393   2.243
32588W        W93899  18.197   4.883  11.507
32589W        W93900  21.026  27.673   3.777
32590W        W93901  41.005  16.686   2.184
32591W        W93902  34.602  27.057  13.433
32592W        W93903  13.618  38.486  14.467
32593W        W93904  23.032  39.043  12.856
32594W        W93905  35.942  10.833   0.319
32595W        W93906  38.835  29.138  10.615
32596W        W93907   3.789  24.675   4.822
32597W        W93908  36.365   4.321  13.468
32598W        W93909  42.505  33.990   1.285
32599W        W93910   7.891  13.186  11.582
32600W        W93911   6.746  37.924   1.697
32601W        W93912  22.583  15.693  12.835
32602W        W93913  18.238  13.347   2.186
32603W        W93914  15.811  32.942  11.905
32604W        W93915  10.875   8.254  10.414
32605W        W93916  33.534   6.794  10.500
32606W        W93917  34.589  25.486  14.480
32607W        W93918  32.090  16.566   2.297
32608W        W93919   1.770  11.361  14.899
32609W        W93920  43.310  20.081  13.051
32610W        W93921  17.745  31.080   1.320
32611W        W93922  30.939  21.515   2.799
32612W        W93923  18.588  11.691  14.380
32613W        W93924   3.927   6.303  13.818
32614W        W93925  40.369  40.503   1.335
32615W        W93926  27.077  39.880   1.776
32616W        W93927  44.002  37.419  13.415
32617W        W93928  10.818  13.653  11.911
32618W        W93929  42.365  10.800  10.937
32619W        W93930   3.444  22.076   4.207
32620W        W93931   2.455  34.951  12.017
32621W        W93932   9.354   8.332  12.062
32622W        W93933  41.397  20.601   1.322
32623W        W93934   4.713  10.278  11.076
32624W        W93935  18.288   8.870   3.324
32625W        W93936  34.415  34.963   1.219
32626W        W93937  29.014   8.291   0.801
32627W        W93938   0.821  43.510   3.726
32628W        W93939  22.155   0.821  13.332
32629W        W93940  10.157  13.108  13.447
32630W        W93941  28.142  39.530  11.907
32631W        W93942   2.912   4.728   2.840
32632W        W93943  28.962  32.548  13.358
32633W        W93944  16.121  35.566  13.830
32634W        W93945  21.680  16.226   0.735
32635W        W93946  19.654   7.238  10.476
32636W        W93947  36.558  10.727  13.888
32637W        W93948  21.182  28.954  14.303
32638W        W93949  11.826  17.645   4.305
32639W        W93950  30.636  24.146  13.025
32640W        W93951  38.959  15.227  10.981
32641W        W93952  30.126  40.865   3.674
32642W        W93953  23.088  33.934   1.276
32643W        W93954  12.737   5.395   1.932
32644W        W93955  27.466   0.354  10.988
32645W        W93956   1.475  42.800   3.846
32646W        W93957  12.712  15.084   1.811
32647W        W93958  17.253  18.776  13.316
32648W        W93959  43.299  36.993   4.680
32649W        W93960  35.423   3.251  12.380
32650W        W93961  20.188  12.173   1.701
32651W        W93962   4.776  19.742   2.418
32652W        W93963  40.889  35.536   3.212
32653W        W93964   3.316  40.829   3.677
32654W        W93965  24.524  37.392   2.694
32655W        W93966  27.525  37.503   4.246
32656W        W93967  25.208  14.782   4.194
32657W        W93968   3.330  24.080   4.272
32658W        W93969  13.844  16.618   3.851
32659W        W93970  10.296   1.748  10.023
32660W        W93971  41.476  16.772   0.388
32661W        W93972  10.840   8.347   2.345
32662W        W93973   0.423  17.103  13.806
32663W        W93974  25.099  18.221   1.283
32664W        W93975  23.027  14.743   3.235
32665W        W93976  40.830   6.801   1.880
32666W        W93977   5.226   4.374  11.453
32667W        W93978  11.744   7.346   0.418
32668W        W93979  38.870  20.663   3.639
32669W        W93980   9.876  13.136  13.849
32670W        W93981  18.639  25.013  12.004
32671W        W93982  23.073   9.886   4.643
32672W        W93983  17.248  30.996  14.990
32673W        W93984  16.663  25.079  14.892
32674W        W93985  11.637  24.144   2.755
32675W        W93986  42.995  14.715  14.787
32676W        W93987   0.281  34.462  12.445
32677W        W93988  10.315  15.665  14.980
32678W        W93989  43.951  23.581   4.143
32679W        W93990   0.378   7.911   4.134
32680W        W93991  18.229   3.393   1.740
32681W        W93992  13.204  39.015   4.339
32682W        W93993  10.172  10.309   4.156
32683W        W93994  40.359  27.028   4.634
32684W        W93995  39.401   4.212  14.489
32685W        W93996  32.936  34.593   3.749
32686W        W93997  22.041  21.564  12.899
32687W        W93998  34.508  17.292  13.890
32688W        W93999  28.932  17.757   3.730
32689W        W94000  24.544  14.777  11.086
32690W        W94001  20.583  28.069   3.370
32691W        W94002  13.669  40.336  11.379
32692W        W94003  34.610   5.751  14.968
32693W        W94004  26.104  17.749   0.797
32694W        W94005  42.359  32.942   1.320
32695W        W94006  42.866   4.208   0.418
32696W        W94007  14.694  42.959   0.365
32697W        W94008  18.565  12.699   4.185
32698W        W94009  20.148  28.933   0.753
32699W        W94010  32.931  28.090  13.317
32700W        W94011  29.443  31.929  13.030
32701W        W94012  12.706  21.199   2.785
32702W        W94013  14.731  39.845  10.488
32703W        W94014  37.081  40.998   2.349
32704W        W94015   7.765   4.239  13.435
32705W        W94016  24.134  15.313  12.562
32706W        W94017  25.153   2.397  13.859
32707W        W94018  31.640   5.817   0.743
32708W        W94019   2.756  15.244  13.993
32709W        W94020  37.442  16.715  10.442
32710W        W94021  35.887  21.695  12.410
32711W        W94022   5.313  15.271   3.286
32712W        W94023  27.551   9.350   2.812
32713W        W94024  43.959  11.696  12.578
32714W        W94025  21.648  29.594   2.247
32715W        W94026  16.181  34.610  14.325
32716W        W94027   0.772  29.920  13.546
32717W        W94028  34.454  32.928  13.979
32718W        W94029  12.330  38.550  13.005
32719W        W94030  32.033   0.874   5.110
32720W        W94031  10.174  27.458   0.914
32721W        W94032  31.973  38.896   2.755
32722W        W94033  17.264  21.101   0.300
32723W        W94034  22.536  26.953   2.367
32724W        W94035  36.891  14.658   1.241
32725W        W94036   6.853  22.248   3.221
32726W        W94037  12.254  21.530  12.347
32727W        W94038   8.659  15.670   3.379
32728W        W94039  13.150  22.505   0.433
32729W        W94040  29.659  25.671  13.520
32730W        W94041  43.785  27.988   4.741
32731W        W94042  39.419  12.244   2.298
32732W        W94043  39.445  32.406   3.867
32733W        W94044   3.831  26.121   0.862
32734W        W94045  15.817  15.642   0.387
32735W        W94046  11.306  27.036  11.128
32736W        W94047  41.464  16.178  11.571
32737W        W94048  37.468  42.929   2.733
32738W        W94049   2.730   1.734   4.661
32739W        W94050  39.376  29.045   3.703
32740W        W94051  18.129  36.455  11.408
32741W        W94052  11.254  38.399  13.043
32742W        W94053  35.413  21.202   1.770
32743W        W94054  28.159  18.554   5.299
32744W        W94055  28.159  20.262  11.940
32745W        W94056  43.481  30.564  12.984
32746W        W94057  12.116  25.568   2.238
32747W        W94058   3.730  32.580  10.553
32748W        W94059   9.833   6.234   0.956
32749W        W94060   5.784   8.660   3.728
32750W        W94061   6.230  38.480   2.226
32751W        W94062   0.489  43.777   4.313
32752W        W94063  28.175  28.608  14.435
32753W        W94064   2.413  16.163   3.276
32754W        W94065  41.354  39.508   4.270
32755W        W94066  27.480   4.213  13.470
32756W        W94067  13.207  17.573   2.697
32757W        W94068  14.169  35.471   3.153
32758W        W94069  40.375  14.823  11.389
32759W        W94070   8.710  20.069   1.332
32760W        W94071   7.366   6.764   1.358
32761W        W94072   8.841  24.495   1.831
32762W        W94073  11.850  21.684   2.766
32763W        W94074  24.481  19.558   5.763
32764W        W94075  34.469  15.824  11.976
32765W        W94076  17.704  39.390  10.574
32766W        W94077  12.762  26.615   0.432
32767W        W94078  27.942  20.622   4.298
32768W        W94079  35.478  30.046   3.688
32769W        W94080  32.953  17.155   4.165
32770W        W94081   8.341  16.235  11.026
32771W        W94082  42.988  29.508  14.947
32772W        W94083  26.969  42.506   0.783
32773W        W94084  15.818  44.279  12.489
32774W        W94085  15.658  37.892   1.388
32775W        W94086  27.061  42.876   2.380
32776W        W94087  11.816  22.719  12.375
32777W        W94088  20.085  44.419   4.197
32778W        W94089   9.661  16.122   5.195
32779W        W94090  32.449   6.412   2.770
32780W        W94091  12.190   1.793  13.004
32781W        W94092  14.246   9.672  14.345
32782W        W94093  15.610  37.474   3.820
32783W        W94094   3.405  24.049   5.294
32784W        W94095  35.065  28.082   5.094
32785W        W94096  11.271   5.269   2.888
32786W        W94097  42.937   0.385  10.980
32787W        W94098   0.950   1.908   1.266
32788W        W94099  31.965  15.159   1.399
32789W        W94100  36.392  37.464  13.871
32790W        W94101   3.331   7.403   3.149
32791W        W94102   9.797  17.584   5.225
32792W        W94103  22.128  24.691   3.292
32793W        W94104  34.414  29.092   5.311
32794W        W94105  23.227  39.552   1.362
32795W        W94106  18.104  38.863   5.143
32796W        W94107  37.883  40.382  12.443
32797W        W94108  12.857  39.931   4.816
32798W        W94109   5.708  35.514  10.897
32799W        W94110  38.885   0.354  10.521
32800W        W94111  30.924  24.070  10.639
32801W        W94112   2.851   2.826   4.227
32802W        W94113  11.626  15.301  11.860
32803W        W94114  16.604  44.005   4.122
32804W        W94115  37.057  16.159  13.853
32805W        W94116  34.473  30.494  10.615
32806W        W94117   7.909  27.005   4.293
32807W        W94118  24.575  17.295  12.882
32808W        W94119   4.354  26.012   0.334
32809W        W94120  41.823  28.124   1.695
32810W        W94121  26.663  27.181   0.268
32811W        W94122  19.621  36.479  14.481
32812W        W94123  12.647  18.160   3.266
32813W        W94124   9.272  40.839  11.507
32814W        W94125  18.731   6.772   4.278
32815W        W94126  10.707  14.145  11.934
32816W        W94127  20.603  21.693  12.984
32817W        W94128   2.767  28.438  14.321
32818W        W94129   9.255   4.890  10.141
32819W        W94130  30.974   5.257   4.737
32820W        W94131  31.567  23.988  11.990
32821W        W94132  42.982  31.060  11.526
32822W        W94133  28.145   1.289   0.444
32823W        W94134   4.829  29.463   2.784
32824W        W94135  39.496  42.946   0.258
32825W        W94136  32.456  19.128  14.800
32826W        W94137  19.276  18.143  14.864
32827W        W94138  19.255  33.061   1.856
32828W        W94139  34.884  31.931  12.384
32829W        W94140  39.978  28.666  11.029
32830W        W94141   3.450  35.584   1.734
32831W        W94142  18.155  11.659   0.764
32832W        W94143  18.722  38.047  14.993
32833W        W94144  36.977   0.475   4.601
32834W        W94145   0.485  40.505  11.014
32835W        W94146  38.559  32.412  12.440
32836W        W94147  27.457  33.499  14.898
32837W        W94148  22.505  16.275   2.856
32838W        W94149  21.608  33.475  10.407
32839W        W94150  28.163  19.616  14.313
32840W        W94151  23.576  16.253   2.663
32841W        W94152  29.089  11.344  13.944
32842W        W94153  18.273  20.047  11.442
32843W        W94154  20.614  22.021   1.929
32844W        W94155  29.597  25.172  11.430
32845W        W94156  17.087  25.700   4.125
32846W        W94157  12.343  14.728  11.983
32847W        W94158  43.302  22.739   2.703
32848W        W94159  18.586  34.055  14.945
32849W        W94160  18.114  20.186   2.756
32850W        W94161  20.172  40.864  14.480
32851W        W94162  40.503  25.088   0.782
32852W        W94163  42.381  36.453   4.264
32853W        W94164  31.483  24.192  11.592
32854W        W94165   9.322  17.171  11.934
32855W        W94166  19.658  44.465   1.895
32856W        W94167  35.060  34.405   1.317
32857W        W94168  25.651  34.440  12.992
32858W        W94169   8.807   1.859   0.836
32859W        W94170  14.726  39.971  11.598
32860W        W94171  19.157   9.749   4.747
32861W        W94172  23.092  30.566   0.940
32862W        W94173  10.813  26.580   3.173
32863W        W94174  26.204  32.974  13.431
32864W        W94175  31.645  43.314  14.502
32865W        W94176  38.479  41.900  14.499
32866W        W94177  29.545  18.771   3.653
32867W        W94178  19.187  20.533   4.634
32868W        W94179   3.785  20.699  14.391
32869W        W94180  32.895  27.653   4.803
32870W        W94181  15.604   8.798  11.466
32871W        W94182   7.912   4.251  12.461
32872W        W94183  39.324  39.936  13.022
32873W        W94184  43.285   8.799   2.320
32874W        W94185  40.450   1.808  12.925
32875W        W94186  32.501  31.064  11.515
32876W        W94187  15.585   0.379  13.055
32877W        W94188  12.795  18.293   1.308
32878W        W94189   5.854  43.834   0.480
32879W        W94190  36.568  43.948   3.327
32880W        W94191  35.502  22.125  13.958
32881W        W94192  25.509  41.883   2.378
32882W        W94193  27.467  16.290   3.727
32883W        W94194  38.891  17.770  14.842
32884W        W94195  43.403  29.053  13.020
32885W        W94196  38.550  27.650   1.883
32886W        W94197  29.075  23.990   3.191
32887W        W94198  25.068  23.568   3.678
32888W        W94199  12.120  23.603  12.513
32889W        W94200  23.040  42.492   2.865
32890W        W94201  14.147  37.011   2.399
32891W        W94202  24.517  21.599  13.329
32892W        W94203  40.003  13.303  13.838
32893W        W94204   5.405   2.252  13.058
32894W        W94205  12.834  26.966  13.450
32895W        W94206  34.097   8.174   2.666
32896W        W94207  25.141  21.118   1.291
32897W        W94208  21.564  28.986  11.502
32898W        W94209  38.860  21.223   1.356
32899W        W94210  23.205  38.051  14.934
32900W        W94211  40.377  11.287  13.853
32901W        W94212  40.887  43.439   2.867
32902W        W94213   5.834  29.148  14.288
32903W        W94214  20.590  28.662   4.178
32904W        W94215  41.438   8.189  14.464
32905W        W94216   8.319  21.646  14.491
32906W        W94217  38.877  16.308   0.732
32907W        W94218  34.413  24.518  12.906
32908W        W94219   0.808   8.205  12.893
32909W        W94220   1.876   9.654   3.692
32910W        W94221  42.896   4.412   3.314
32911W        W94222   4.399  14.652   4.255
32912W        W94223  26.656   6.766   0.847
32913W        W94224  39.937  25.013   2.774
32914W        W94225   9.833  26.488   2.782
32915W        W94226  26.462  17.568  13.538
32916W        W94227  38.909   3.863   3.224
32917W        W94228  31.513   8.267   2.363
32918W        W94229  22.626  44.321   1.211
32919W        W94230   8.657  34.102   1.218
32920W        W94231  10.775  40.985  10.910
32921W        W94232  28.072   1.748  13.799
32922W        W94233  29.067  38.854  12.343
32923W        W94234  23.095   4.877  13.465
32924W        W94235   2.268  30.544   2.196
32925W        W94236  43.864   2.229   3.827
32926W        W94237  43.490  37.833  14.489
32927W        W94238  17.190  14.316   2.296
32928W        W94239  23.588  26.126  11.073
32929W        W94240   3.777  11.335  14.514
32930W        W94241  29.637  26.124   3.747
32931W        W94242  25.019  44.259  10.634
32932W        W94243   8.882  37.884  13.422
32933W        W94244  10.172  37.891   2.258
32934W        W94245  33.947  31.630   4.152
32935W        W94246  28.062  10.638   0.463
32936W        W94247  14.126   7.305  14.860
32937W        W94248  27.660  31.119  11.536
32938W        W94249  40.002  32.628  11.598
32939W        W94250  40.029  39.888   9.573
32940W        W94251  30.653  44.415  14.797
32941W        W94252  31.936  18.633  14.354
32942W        W94253  17.186  41.390  11.861
32943W        W94254  38.068  20.165  10.925
32944W        W94255  39.039  23.094  13.448
32945W        W94256   0.452   8.890   4.607
32946W        W94257  15.695  31.148  11.971
32947W        W94258   5.704  25.169  14.008
32948W        W94259  15.812  37.367  13.496
32949W        W94260  17.773  10.259  12.397
32950W        W94261  21.025  35.938  14.775
32951W        W94262  25.212   2.933   0.267
32952W        W94263   5.284  18.107   2.711
32953W        W94264  34.880  21.610  11.606
32954W        W94265  41.813   8.335   1.319
32955W        W94266  28.959   2.824   4.725
32956W        W94267  11.705  36.002   0.437
32957W        W94268  38.868  28.550   0.322
32958W        W94269  17.660  30.446   4.791
32959W        W94270  38.357   9.732  12.941
32960W        W94271  33.050  15.088  11.944
32961W        W94272   7.851  10.241  14.328
32962W        W94273   5.404   0.258  10.634
32963W        W94274  16.744  17.220  12.034
32964W        W94275  25.107  32.428   4.130
32965W        W94276  35.990  40.446  10.521
32966W        W94277  32.972  40.450   3.315
32967W        W94278   3.441  25.553  10.522
32968W        W94279   5.728   7.745  10.423
32969W        W94280  29.429  37.474  12.933
32970W        W94281  36.032  17.727  13.045
32971W        W94282   9.214   1.429   4.129
32972W        W94283  35.987  17.065   4.132
32973W        W94284  31.063  33.538   4.187
32974W        W94285  40.347  10.341   0.797
32975W        W94286  25.132  33.910  11.488
32976W        W94287   3.864  13.145  10.968
32977W        W94288  38.935   2.287   0.800
32978W        W94289  16.633  24.642  11.866
32979W        W94290  36.440  23.694  14.998
32980W        W94291   7.222  17.070  13.942
32981W        W94292   4.278  34.403  13.058
32982W        W94293   4.801  16.213  13.389
32983W        W94294   4.393  39.945  14.798
32984W        W94295   2.277   8.677   3.301
32985W        W94296  19.765  38.912  10.964
32986W        W94297  19.123   9.236   2.786
32987W        W94298   2.431  19.645   3.362
32988W        W94299  44.371  44.760   2.192
32989W        W94300   0.881   3.394   4.158
32990W        W94301   9.178  37.435   0.321
32991W        W94302  14.120  41.449  10.430
32992W        W94303  21.173  42.858   3.658
32993W        W94304  23.201  13.147   0.840
32994W        W94305  35.873  38.532  14.923
32995W        W94306  26.513  30.951  11.121
32996W        W94307  34.402  39.838   4.736
32997W        W94308  38.846  43.312   3.709
32998W        W94309   8.839   5.786  13.791
32999W        W94310  39.535  36.885   0.268
33000W        W94311  28.059  41.381   0.471
33001W        W94312  11.703   9.683  11.021
33002W        W94313  15.184  17.125   0.965
33003W        W94314  37.455  35.378   0.963
33004W        W94315  43.956  38.527   2.740
33005W        W94316  43.990  34.937   2.728
33006W        W94317  18.590  31.645   2.260
33007W        W94318  21.747  35.426   4.660
33008W        W94319  40.844  36.095  10.521
33009W        W94320  36.096   3.848  11.033
33010W        W94321  21.213  10.748  10.575
33011W        W94322  32.469   4.217   2.758
33012W        W94323  19.066  20.092  14.393
33013W        W94324  33.487  30.569  11.898
33014W        W94325  44.935  34.410  12.486
33015W        W94326   2.957  22.229   3.154
33016W        W94327  40.526   8.212  11.014
33017W        W94328  12.127  12.171   0.894
33018W        W94329   3.941   9.247  12.430
33019W        W94330  20.623  12.711  10.083
33020W        W94331  17.584  24.121   5.188
33021W        W94332  18.695  16.703  11.585
33022W        W94333  11.332   7.731  12.035
33023W        W94334   1.441  23.071   3.155
33024W        W94335  15.674  15.736   3.242
33025W        W94336  21.086  11.280   0.727
33026W        W94337  42.448   3.774  14.819
33027W        W94338  14.273  27.632  11.457
33028W        W94339  37.905  41.339  10.520
33029W        W94340  18.564  44.365  12.949
33030W        W94341  18.762  27.505  10.483
33031W        W94342   6.918  25.035  14.291
33032W        W94343  16.669  14.628   1.846
33033W        W94344  24.526   7.821   4.227
33034W        W94345  13.131   4.444   2.346
33035W        W94346  26.134  30.611  12.051
33036W        W94347  42.320  29.121  11.409
33037W        W94348  31.035   2.915  12.385
33038W        W94349   8.767  36.086  10.607
33039W        W94350  25.085   1.936  13.368
33040W        W94351  28.619   9.853   2.240
33041W        W94352  29.435  12.188   0.305
33042W        W94353  15.624  16.787  10.607
33043W        W94354  35.932  22.546   0.391
33044W        W94355  28.641  18.729  11.881
33045W        W94356   0.331  23.664   3.330
33046W        W94357  39.408  26.203   3.759
33047W        W94358  26.092  30.908  12.398
33048W        W94359   6.805  33.397   0.962
33049W        W94360  28.075  18.072  14.952
33050W        W94361  26.189  22.165   4.660
33051W        W94362  27.639  30.076  10.422
33052W        W94363  28.006  27.469   3.274
33053W        W94364   0.449  15.291   4.673
33054W        W94365  28.944  29.631  11.403
33055W        W94366  28.152  17.722  12.917
33056W        W94367  41.483   6.735   2.860
33057W        W94368  39.445  40.835  13.872
33058W        W94369  26.168   8.731  11.925
33059W        W94370  19.573  29.056   2.215
33060W        W94371  38.368  35.588  10.580
33061W        W94372  10.260   0.482   3.770
33062W        W94373  23.201  24.643  12.006
33063W        W94374   8.799  17.576  14.915
33064W        W94375  10.222   0.310  10.605
33065W        W94376  22.211  34.921   0.803
33066W        W94377  18.201  10.824  14.978
33067W        W94378   6.794  22.013   4.293
33068W        W94379   1.410  13.752  14.907
33069W        W94380  19.216  18.717  11.061
33070W        W94381  28.092  12.742  11.888
33071W        W94382   5.711   5.215  11.067
33072W        W94383  39.333  19.535  13.014
33073W        W94384  29.614  43.341   4.684
33074W        W94385   2.345  39.353  14.382
33075W        W94386   9.723  42.945   0.328
33076W        W94387  35.417   0.783  14.445
33077W        W94388  11.691  42.352   2.353
33078W        W94389   7.868  42.823  10.596
33079W        W94390  18.712   6.802  13.857
33080W        W94391  23.203  12.318  12.366
33081W        W94392  20.579   4.410  14.841
33082W        W94393  34.486  36.511  14.492
33083W        W94394  12.830  26.187  10.571
33084W        W94395  24.488   6.286  11.986
33085W        W94396  35.475  39.875   5.727
33086W        W94397  33.085  29.942   4.827
33087W        W94398  32.961   8.385  13.507
33088W        W94399  36.443  33.983  13.930
33089W        W94400  15.662  40.001   4.269
33090W        W94401  36.926  41.875   5.793
33091W        W94402  42.336  28.650  10.588
33092W        W94403  13.162  38.996   3.323
33093W        W94404  28.982   3.377   2.762
33094W        W94405  23.580  42.293   2.369
33095W        W94406  36.861  39.358   3.692
33096W        W94407  15.652  16.179   1.437
33097W        W94408  17.789  38.340  12.010
33098W        W94409  43.382   0.439   0.366
33099W        W94410  43.351  19.252   4.297
33100W        W94411  17.111   6.346  10.545
33101W        W94412  41.000  13.682  14.826
33102W        W94413  17.651  43.342  12.936
33103W        W94414   5.759   8.237   3.643
33104W        W94415  36.377  30.494  11.055
33105W        W94416  16.239  35.456   4.700
33106W        W94417   0.298  35.386   3.839
33107W        W94418   6.287   6.258   0.800
33108W        W94419  18.700  37.571   9.945
33109W        W94420  28.039  36.397   2.415
33110W        W94421  12.676  10.275  11.950
33111W        W94422  23.234  17.558   1.788
33112W        W94423  38.965  40.965   3.161
33113W        W94424  33.068  18.280   0.407
33114W        W94425  19.703  29.558   4.183
33115W        W94426  12.629  25.181  13.934
33116W        W94427  37.461   7.254  13.971
33117W        W94428  17.734   6.702   3.842
33118W        W94429   7.838  41.952   3.218
33119W        W94430  19.061  35.898  12.828
33120W        W94431  13.795  28.025   1.879
33121W        W94432  12.120  11.300  12.035
33122W        W94433  19.046  23.178  11.505
33123W        W94434  42.300  26.108  10.478
33124W        W94435  15.105   4.896   0.948
33125W        W94436  36.399   6.892   4.765
33126W        W94437  18.102  23.521  14.291
33127W        W94438  44.808  34.933   3.189
33128W        W94439  11.677   4.319   1.810
33129W        W94440  22.520  10.704  12.072
33130W        W94441  43.396  16.650  14.824
33131W        W94442  13.267   1.820  12.071
33132W        W94443  39.499  22.093  12.340
33133W        W94444  24.538  35.866  11.938
33134W        W94445  36.578  11.177   3.782
33135W        W94446  43.815  22.607   3.275
33136W        W94447  26.605  36.379   0.752
33137W        W94448   2.888  40.818  10.606
33138W        W94449  16.252  10.140  14.025
33139W        W94450  18.683  21.188   4.833
33140W        W94451   3.953  12.646  13.868
33141W        W94452  34.405   2.769   3.842
33142W        W94453   4.287  40.529  10.525
33143W        W94454   7.341   6.857   4.222
33144W        W94455  30.576   1.329   4.249
33145W        W94456  32.094  43.784   2.745
33146W        W94457  40.987  27.055  12.388
33147W        W94458   2.838  31.936   4.825
33148W        W94459  23.622  15.284   4.764
33149W        W94460  24.704  26.469  14.277
33150W        W94461  30.509  27.662   3.767
33151W        W94462   1.804  43.333  12.455
33152W        W94463  39.906  18.749  11.059
33153W        W94464  21.119   8.662  13.515
33154W        W94465  26.966  27.039   4.722
33155W        W94466  35.553  44.360  13.943
33156W        W94467  22.635  28.590   0.352
33157W        W94468   4.312  44.304   0.741
33158W        W94469   6.374  12.843  10.057
33159W        W94470  26.645  19.234  13.475
33160W        W94471  39.850  40.984  11.093
33161W        W94472  27.012  24.026   4.136
33162W        W94473  27.998  27.139   0.924
33163W        W94474  27.481  20.597   0.935
33164W        W94475  28.440   2.871   4.747
33165W        W94476   0.457  42.942  14.340
33166W        W94477  41.521  12.836   4.232
33167W        W94478  12.756  23.559  12.018
33168W        W94479  31.121  30.565   4.621
33169W        W94480  27.489  24.192   3.278
33170W        W94481  30.476  33.105   1.221
33171W        W94482  12.202   1.311   2.361
33172W        W94483   1.816  31.534  12.362
33173W        W94484  41.880  40.858   4.304
33174W        W94485  41.438  22.629  13.330
33175W        W94486   9.882  28.448  12.377
33176W        W94487  33.953   6.315  11.008
33177W        W94488  39.341  44.308  11.056
33178W        W94489  41.383  18.248  14.888
33179W        W94490  14.708  24.987  13.412
33180W        W94491  39.317  17.725  11.517
33181W        W94492  35.427  21.238  14.468
33182W        W94493   4.774  17.083   5.093
33183W        W94494  36.479  26.659  14.310
33184W        W94495  16.232  19.225  13.440
33185W        W94496  10.207   4.323   2.707
33186W        W94497  24.069  42.018   0.824
33187W        W94498  11.310   0.462   4.288
33188W        W94499  39.061  44.425   2.414
33189W        W94500   6.917  37.575  12.827
33190W        W94501   0.777  17.193   1.874
33191W        W94502  19.058  17.714   3.702
33192W        W94503  38.036  25.641  13.308
33193W        W94504  21.555  42.969   3.210
33194W        W94505  33.111  25.711   2.818
33195W        W94506  33.465  20.028  13.853
33196W        W94507   5.261  39.010  10.532
33197W        W94508  14.790  33.561   4.139
33198W        W94509   0.290  14.210  13.529
33199W        W94510   0.774   6.922   2.403
33200W        W94511  36.937  14.807   1.714
33201W        W94512  43.920  42.869  11.424
33202W        W94513  36.568  16.646  13.540
33203W        W94514  36.511  29.513   5.620
33204W        W94515  38.065  20.681  14.880
33205W        W94516  39.063  13.641   2.299
33206W        W94517  39.997  43.824  12.014
33207W        W94518   4.299  33.543  13.933
33208W        W94519  18.732   7.269   0.902
33209W        W94520   0.376  14.722   1.326
33210W        W94521  39.896  28.135   0.380
33211W        W94522  24.548  11.155  12.388
33212W        W94523   9.343  14.120   0.952
33213W        W94524   5.875   3.754  12.464
33214W        W94525  24.013  35.498  12.575
33215W        W94526   5.358  17.204   1.309
33216W        W94527  19.537  21.037   2.368
33217W        W94528   6.416  30.030  11.010
33218W        W94529  19.537  23.218  12.994
33219W        W94530  18.554  31.125   1.857
33220W        W94531  20.652  32.927   1.763
33221W        W94532  36.927  11.621   4.631
33222W        W94533  10.776  33.410  10.601
33223W        W94534  26.590  24.034  13.935
33224W        W94535  27.073  34.950   0.892
33225W        W94536  13.698  30.114  14.841
33226W        W94537   1.378  15.768  10.571
33227W        W94538   1.972  25.112  13.063
33228W        W94539   3.844  30.123  12.017
33229W        W94540  35.603  25.700   4.746
33230W        W94541  20.272   1.320  14.285
33231W        W94542   3.750  16.670   0.268
33232W        W94543  28.562  23.572   2.265
33233W        W94544  18.214  23.995  13.928
33234W        W94545  32.063  42.971   5.214
33235W        W94546  22.134  23.037   3.315
33236W        W94547  22.739  23.175   0.387
33237W        W94548  39.984  31.456   3.759
33238W        W94549   0.860  33.912  12.887
33239W        W94550  14.660  22.600   9.646
33240W        W94551  21.756  39.452   4.320
33241W        W94552  10.285  19.189   3.271
33242W        W94553  37.911  30.563  14.365
33243W        W94554  32.015  14.223   2.750
33244W        W94555   3.255   8.685   0.304
33245W        W94556  18.230  15.171  11.942
33246W        W94557  21.123  21.188  13.415
33247W        W94558  27.991  24.096  10.555
33248W        W94559  21.259   0.802  12.881
33249W        W94560  20.602  23.206  14.448
33250W        W94561   3.784  33.465  12.568
33251W        W94562  26.482   7.353  11.080
33252W        W94563  15.111   8.241   1.450
33253W        W94564  13.290   7.350   1.251
33254W        W94565  30.087  32.506  13.433
33255W        W94566  13.754  18.148   2.692
33256W        W94567  35.534   8.371   0.886
33257W        W94568  19.653  27.681  13.369
33258W        W94569   1.337  29.011   0.922
33259W        W94570  29.957  35.386   1.770
33260W        W94571  30.528  37.347   1.783
33261W        W94572   7.361  24.542   1.879
33262W        W94573  29.078  37.071  11.501
33263W        W94574  42.366   5.245   0.442
33264W        W94575  23.620  28.604  12.342
33265W        W94576  16.608  10.673   0.409
33266W        W94577  17.198  26.649  14.481
33267W        W94578   2.935  42.498   4.689
33268W        W94579   2.852  13.192   0.461
33269W        W94580  23.087  21.193   5.277
33270W        W94581  41.858   7.313  11.402
33271W        W94582  10.246  26.622   5.298
33272W        W94583  41.351  41.982   0.964
33273W        W94584  26.182  44.931   1.437
33274W        W94585   6.342   7.873  11.582
33275W        W94586  32.433  33.385   4.289
33276W        W94587  42.295  23.994  12.037
33277W        W94588  10.250  23.178  10.620
33278W        W94589  30.979  13.180  11.410
33279W        W94590  20.748  23.532   4.221
33280W        W94591  12.828   9.319  10.461
33281W        W94592   1.456  35.003   3.172
33282W        W94593   7.726   8.794   4.672
33283W        W94594  26.513  35.568  13.972
33284W        W94595  44.431  34.568  10.144
33285W        W94596   8.811   9.819   2.774
33286W        W94597  32.508  31.126   0.942
33287W        W94598  40.995  21.548  11.473
33288W        W94599  10.665  33.476  11.872
33289W        W94600   5.259  42.948  13.892
33290W        W94601  17.170   7.332   2.699
33291W        W94602  16.794  29.519  11.431
33292W        W94603   0.283  33.561   2.327
33293W        W94604  38.403  21.645   3.274
33294W        W94605  19.176  29.144  11.523
33295W        W94606  29.636  23.024   1.823
33296W        W94607  25.008  24.615   3.807
33297W        W94608  31.900  13.657  13.442
33298W        W94609  31.403   7.202  11.906
33299W        W94610  29.005  37.523   0.289
33300W        W94611  34.052  16.312  11.505
33301W        W94612   6.807   3.246  12.443
33302W        W94613  13.276  31.638   4.137
33303W        W94614  31.531  18.281  13.498
33304W        W94615   3.827  24.007   2.756
33305W        W94616  13.774  17.667  12.466
33306W        W94617  37.474   0.865  11.459
33307W        W94618  36.567   2.443  12.467
33308W        W94619  30.461   9.350  13.980
33309W        W94620  31.507  12.262  11.524
33310W        W94621  40.341   1.930   3.865
33311W        W94622  24.227  32.445  10.159
33312W        W94623   6.787  25.697  10.632
33313W        W94624   6.733  31.040  13.440
33314W        W94625  41.873   7.770  14.511
33315W        W94626   3.931  33.529   2.903
33316W        W94627  40.029  37.013  11.915
33317W        W94628  36.363  19.071   1.878
33318W        W94629  32.062  36.425   1.796
33319W        W94630  33.973   8.308  13.801
33320W        W94631  34.613  37.377  14.994
33321W        W94632  27.688  10.841   0.952
33322W        W94633  30.050  14.832   4.113
33323W        W94634  32.465   0.842   0.842
33324W        W94635   0.819   0.804   1.246
33325W        W94636  32.894   1.312  12.965
33326W        W94637  44.845   6.891  13.844
33327W        W94638  21.599   6.198  13.547
33328W        W94639  33.047  32.498  14.481
33329W        W94640  22.163  16.577  12.545
33330W        W94641  30.465  43.366  12.385
33331W        W94642  26.100  36.543   0.956
33332W        W94643  25.498  12.346   4.811
33333W        W94644  19.618  38.567  14.967
33334W        W94645  26.963  37.425  10.625
33335W        W94646  26.700  33.588  11.485
33336W        W94647  31.434  36.588  14.831
33337W        W94648  12.690  36.933  13.516
33338W        W94649  43.442  31.518  11.041
33339W        W94650  21.687  32.973   2.892
33340W        W94651  15.730   2.943  12.927
33341W        W94652  10.642  39.471  12.509
33342W        W94653  14.334  21.167   2.826
33343W        W94654  30.998  30.089   3.161
33344W        W94655   3.221  19.125   4.761
33345W        W94656  19.581  39.314  12.887
33346W        W94657  19.609   2.839  11.023
33347W        W94658  19.640  20.625  10.893
33348W        W94659  44.417  38.331  11.898
33349W        W94660  44.972  29.499  11.050
33350W        W94661  26.185  16.635   4.150
33351W        W94662  14.686  35.082  14.289
33352W        W94663  13.651  31.969   4.740
33353W        W94664  16.752  20.573  12.981
33354W        W94665  13.651  41.851  10.481
33355W        W94666  24.184   4.701  14.818
33356W        W94667  25.105  29.549  12.076
33357W        W94668   5.836  30.089   4.635
33358W        W94669  14.214  34.036   2.187
33359W        W94670  33.058  44.755   1.308
33360W        W94671  39.814  24.713   2.872
33361W        W94672  38.380  17.577  14.933
33362W        W94673   8.311  15.291  11.488
33363W        W94674   6.808  16.263  13.964
33364W        W94675  39.849   8.360  13.420
33365W        W94676  23.657  27.025   1.809
33366W        W94677  45.000  13.120   1.404
33367W        W94678  44.925   0.372  12.572
33368W        W94679  19.626  38.403   3.659
33369W        W94680  13.803  24.195  13.036
33370W        W94681   0.454  20.122   1.906
33371W        W94682  38.444  14.775  14.442
33372W        W94683   4.724   4.307  14.338
33373W        W94684  26.485  19.618  12.870
33374W        W94685  33.972  13.208   0.332
33375W        W94686  15.147  19.661   4.604
33376W        W94687   9.237  37.837   0.844
33377W        W94688  15.115  35.053   1.437
33378W        W94689  23.984  19.617  11.438
33379W        W94690  42.306   0.770   3.168
33380W        W94691   7.832  31.000  14.306
33381W        W94692  18.074   9.792  13.050
33382W        W94693  37.028  10.868   3.788
33383W        W94694  15.810  30.991  10.946
33384W        W94695   4.268  19.621  14.498
33385W        W94696  42.928   0.437   3.793
33386W        W94697  39.900  27.468  10.976
33387W        W94698   1.400   0.895  13.039
33388W        W94699  44.426  38.448   3.256
33389W        W94700  23.222  19.065  12.428
33390W        W94701  38.548  28.944  12.530
33391W        W94702  24.717   0.769  13.488
33392W        W94703   7.777  28.608  11.941
33393W        W94704   2.812  27.186  11.062
33394W        W94705  42.405   4.756  12.927
33395W        W94706  10.726  33.583  12.486
33396W        W94707  11.810  12.799   0.342
33397W        W94708  41.803   6.729   1.302
33398W        W94709   4.853  36.380  13.976
33399W        W94710   2.834  15.228  13.341
33400W        W94711  44.322  19.548  10.519
33401W        W94712  27.113  31.042   5.711
33402W        W94713  41.493  36.510   2.244
33403W        W94714   3.380  27.067   4.280
33404W        W94715  42.521  12.630  12.421
33405W        W94716  12.324  31.115  12.838
33406W        W94717  30.962  19.594   1.878
33407W        W94718  35.012  26.510  13.346
33408W        W94719  17.764  21.534  14.514
33409W        W94720  34.453  13.718   2.758
33410W        W94721   7.822  36.872  11.383
33411W        W94722  44.390  22.232   2.321
33412W        W94723  14.664  21.749  12.448
33413W        W94724  17.562  25.525   4.747
33414W        W94725  31.469   1.829   3.861
33415W        W94726  29.085   0.433  13.467
33416W        W94727  35.474   7.892   2.855
33417W        W94728  26.139   0.276   4.688
33418W        W94729  12.780   1.308  10.413
33419W        W94730   7.319  35.902  13.383
33420W        W94731  34.552  43.917   1.234
33421W        W94732  33.943  10.167   3.329
33422W        W94733  37.428  34.408  11.045
33423W        W94734  44.390  22.252   0.447
33424W        W94735  19.693  16.773  10.893
33425W        W94736  19.260   3.934   0.440
33426W        W94737  19.243  35.371  12.466
33427W        W94738  11.199   6.895   0.813
33428W        W94739  16.720  28.648  11.430
33429W        W94740  41.448  11.309  12.933
33430W        W94741  19.578  12.177   2.202
33431W        W94742  36.860  38.985   3.703
33432W        W94743  27.658   4.217  14.886
33433W        W94744  35.943  24.229  14.853
33434W        W94745  30.437  42.817   3.260
33435W        W94746  35.952  16.749   2.415
33436W        W94747  32.408  35.469  15.000
33437W        W94748   2.773  30.460   2.306
33438W        W94749  38.388  40.929   0.315
33439W        W94750  38.559   0.252  14.007
33440W        W94751  43.271  37.516  11.905
33441W        W94752  41.985  18.166   0.798
33442W        W94753   3.924  44.310  10.613
33443W        W94754   4.762  18.669   5.670
33444W        W94755   1.850  28.943   2.694
33445W        W94756  19.667  20.274   0.748
33446W        W94757   7.382  31.635  10.920
33447W        W94758  35.568  15.193   0.334
33448W        W94759  38.369   3.855   1.716
33449W        W94760  23.080  11.778  11.878
33450W        W94761  20.224  17.216  12.364
33451W        W94762  41.405  12.359   0.748
33452W        W94763  22.059  17.179   3.810
33453W        W94764  18.786  42.346  14.892
33454W        W94765  19.727  43.791   3.816
33455W        W94766  42.785  39.812  13.063
33456W        W94767  37.454   0.281  14.997
33457W        W94768  18.078   4.784  14.948
33458W        W94769  30.637  35.506  12.370
33459W        W94770   0.472   3.314  14.445
33460W        W94771  32.587   9.311   3.355
33461W        W94772  44.009  30.098   2.264
33462W        W94773  16.576  11.313  14.394
33463W        W94774  16.223   6.833   5.756
33464W        W94775  37.962   5.283  10.640
33465W        W94776  16.189   0.795   4.224
33466W        W94777   5.410  17.270   0.885
33467W        W94778  42.998  44.416   2.896
33468W        W94779  19.738  32.506   0.745
33469W        W94780  37.007  18.185  10.433
33470W        W94781  29.159  23.074  10.933
33471W        W94782   3.402  23.637  12.576
33472W        W94783  15.270  38.055  11.501
33473W        W94784  22.515   2.234   0.391
33474W        W94785  25.628  31.574  13.963
33475W        W94786  25.190  16.215  11.962
33476W        W94787   9.313  17.751   1.369
33477W        W94788  44.414  37.550   3.153
33478W        W94789  21.076  28.521   0.398
33479W        W94790   6.794  37.494  11.567
33480W        W94791   1.811   7.685   0.331
33481W        W94792  10.764   0.948   1.845
33482W        W94793   6.891  14.653  14.960
33483W        W94794  32.523  33.970  12.090
33484W        W94795  28.175  28.665   2.186
33485W        W94796  21.145  11.773   2.762
33486W        W94797  25.572   8.329   0.335
33487W        W94798  44.890   9.790  14.447
33488W        W94799  26.471   9.830   2.838
33489W        W94800  27.692  20.192   3.322
33490W        W94801  25.013   5.310  11.511
33491W        W94802  32.956   8.384  11.016
33492W        W94803  37.418  15.102  13.845
33493W        W94804   6.361  43.891  11.104
33494W        W94805  25.600   5.381   1.356
33495W        W94806  28.565  11.737  13.808
33496W        W94807  23.042   0.902   1.352
33497W        W94808   5.770  15.295   0.869
33498W        W94809  11.838  14.138  11.910
33499W        W94810  30.148  25.977  13.421
33500W        W94811  36.404  13.196  14.449
33501W        W94812  38.827  24.013   1.213
33502W        W94813  16.573  21.633  10.533
33503W        W94814   2.790  11.160   1.222
33504W        W94815   1.275  31.084   2.213
33505W        W94816  26.529  35.476  12.553
33506W        W94817   6.360   8.223   2.746
33507W        W94818  28.543  43.494  13.815
33508W        W94819   8.206  26.622   0.477
33509W        W94820   6.374  23.132   1.856
33510W        W94821  24.038  37.885   4.309
33511W        W94822  17.726  16.592   4.822
33512W        W94823  20.766  14.309   4.287
33513W        W94824  31.465  41.817  10.498
33514W        W94825  24.717  33.506   1.892
33515W        W94826  32.440  12.772  12.914
33516W        W94827  33.432  17.259  11.915
33517W        W94828  42.841   2.896  10.433
33518W        W94829  24.165  35.359  14.495
33519W        W94830   8.878  17.210  12.015
33520W        W94831   2.227   3.719  10.584
33521W        W94832  42.941  41.440  10.946
33522W        W94833   8.840  32.416  12.560
33523W        W94834   6.891   0.424  12.575
33524W        W94835  17.086  24.225   1.752
33525W        W94836  21.161  21.536  11.076
33526W        W94837  30.932   1.467  14.347
33527W        W94838  30.605   1.870  11.897
33528W        W94839   4.275  23.137   3.803
33529W        W94840  24.021  41.044  13.537
33530W        W94841  23.660  22.514   1.838
33531W        W94842  28.675  42.925   3.312
33532W        W94843   9.883   3.954  12.073
33533W        W94844  23.562  38.423  13.543
33534W        W94845  39.501  22.025  14.434
33535W        W94846   1.383  44.439   1.809
33536W        W94847  29.026  36.355   2.712
33537W        W94848  20.059  36.414   4.779
33538W        W94849  37.392  16.252   2.259
33539W        W94850  27.070  16.220  11.561
33540W        W94851  23.107  38.364   4.791
33541W        W94852  12.762  40.409   3.681
33542W        W94853   1.400  23.493  13.375
33543W        W94854  34.897  21.572   1.859
33544W        W94855  13.289  16.733   1.273
33545W        W94856  11.327   9.674   3.202
33546W        W94857  26.551  37.955   3.766
33547W        W94858  35.938  32.521  10.429
33548W        W94859  12.361  20.711   0.936
33549W        W94860  24.066  36.861   0.915
33550W        W94861  36.361  14.330  11.042
33551W        W94862  13.765  27.184   3.812
33552W        W94863  31.920  23.713   0.957
33553W        W94864  44.977  13.755   1.822
33554W        W94865  40.373  33.055  12.053
33555W        W94866   3.357  14.193  13.413
33556W        W94867  22.679  38.409   1.350
33557W        W94868  44.323  11.256  14.960
33558W        W94869  34.886  40.976   2.295
33559W        W94870  41.861   1.307   4.270
33560W        W94871  27.976  34.939  14.379
33561W        W94872  42.927  23.663  13.313
33562W        W94873  29.486  21.170   4.716
33563W        W94874  20.030   7.355  14.877
33564W        W94875   4.862  42.952  10.458
33565W        W94876   8.721  34.610  13.453
33566W        W94877  10.380  29.115   0.787
33567W        W94878  13.107  25.550  12.465
33568W        W94879  11.669  27.560   2.832
33569W        W94880  39.056  36.941   4.694
33570W        W94881  22.091   7.760  14.439
33571W        W94882   2.918  42.337  13.462
33572W        W94883   7.355  26.663   4.605
33573W        W94884  24.633   2.262   1.843
33574W        W94885  28.633  25.028  12.447
33575W        W94886  39.381  30.143   3.682
33576W        W94887  21.594  43.341   0.442
33577W        W94888  39.532  35.925   3.752
33578W        W94889  30.080  38.073  14.997
33579W        W94890  33.574  17.568   0.832
33580W        W94891  17.695  36.469   2.280
33581W        W94892  17.183  36.934  14.803
33582W        W94893  21.217   6.206   2.326
33583W        W94894  13.185   9.358   0.297
33584W        W94895  33.875  28.624  11.487
33585W        W94896  15.700  23.204  14.867
33586W        W94897  19.557  38.400  10.409
33587W        W94898  36.026   2.350   4.729
33588W        W94899   3.916  24.027   0.754
33589W        W94900  41.872   6.314   0.250
33590W        W94901  13.117  11.805  11.566
33591W        W94902   3.388  40.516   3.754
33592W        W94903  18.779   4.766   4.770
33593W        W94904  42.463  22.077   1.863
33594W        W94905  31.925  37.483  10.049
33595W        W94906   8.855  34.051  11.512
33596W        W94907   1.325  24.974   0.923
33597W        W94908  34.483  37.842   2.739
33598W        W94909  42.883  28.933   4.815
33599W        W94910  17.190  23.090   2.275
33600W        W94911  40.936  39.429   2.675
33601W        W94912  42.889  23.149  14.862
33602W        W94913   7.680  26.693  14.345
33603W        W94914  28.044   1.396   0.836
33604W        W94915  44.319  21.516  10.572
33605W        W94916  31.963   7.364  14.912
33606W        W94917  22.026  13.773  12.936
33607W        W94918  14.655  30.985   0.738
33608W        W94919   3.452  14.740   2.307
33609W        W94920  20.104  34.057   1.911
33610W        W94921  16.229  30.438   5.159
33611W        W94922  36.440  33.396   4.165
33612W        W94923   8.376  24.693  14.465
33613W        W94924  19.180   2.242   0.824
33614W        W94925  31.566  39.332  12.357
33615W        W94926   9.228  39.956   2.254
33616W        W94927  25.649   3.825  14.875
33617W        W94928  20.724   6.372  11.943
33618W        W94929  15.796  30.131   0.832
33619W        W94930   3.937  44.933   4.687
33620W        W94931   5.362  25.174   0.965
33621W        W94932  39.998  39.361  10.973
33622W        W94933  22.552  26.653   2.333
33623W        W94934  26.967   9.346   1.706
33624W        W94935  30.069  16.807   1.810
33625W        W94936  18.757  36.071   3.335
33626W        W94937  15.609  12.766   2.264
33627W        W94938  31.492  42.522   4.793
33628W        W94939  39.811  37.408   4.236
33629W        W94940  31.521  44.315   1.243
33630W        W94941  16.144  35.479  10.603
33631W        W94942  32.082  38.534   4.658
33632W        W94943  16.319  16.626   2.375
33633W        W94944  10.149   9.739  12.339
33634W        W94945  17.074  32.030   2.238
33635W        W94946   7.883  17.563  12.526
33636W        W94947  34.005  22.573   1.749
33637W        W94948  14.732  41.914  12.825
33638W        W94949  37.360  38.476   4.764
33639W        W94950  11.821  44.776   2.791
33640W        W94951  29.509  36.010  13.931
33641W        W94952  12.657  27.456  14.357
33642W        W94953  20.142   4.880   0.317
33643W        W94954  21.148  30.484   4.224
33644W        W94955   7.745  18.751  11.601
33645W        W94956  16.763   8.159  12.973
33646W        W94957  19.760  36.567  14.828
33647W        W94958  22.717   8.374   3.744
33648W        W94959   1.765  21.600   4.270
33649W        W94960   8.179  25.687  13.874
33650W        W94961  25.597  20.205  14.340
33651W        W94962  34.998  23.026   0.754
33652W        W94963   1.322  43.015  11.943
33653W        W94964  33.889  26.098  12.984
33654W        W94965   2.437  40.359   1.413
33655W        W94966   3.867  43.984   4.637
33656W        W94967  18.191  31.130   1.714
33657W        W94968  28.096  29.107   4.203
33658W        W94969  37.840  28.956   4.835
33659W        W94970  20.143  32.937   1.434
33660W        W94971  11.714  11.332   3.195
33661W        W94972  19.557  18.066   4.832
33662W        W94973   7.382  24.086   2.807
33663W        W94974  16.180  23.239  14.855
33664W        W94975  36.496  15.162   2.731
33665W        W94976  23.182  26.566   2.321
33666W        W94977   0.426  23.073  13.034
33667W        W94978   7.843  30.982  11.522
33668W        W94979   4.390  35.092  10.555
33669W        W94980  26.975  43.919  13.802
33670W        W94981  44.343  33.907  13.865
33671W        W94982   4.233  27.678   2.888
33672W        W94983  20.598  29.980   9.583
33673W        W94984   1.963  20.641   1.436
33674W        W94985   0.310  11.750   2.183
33675W        W94986  10.671  18.205  14.015
33676W        W94987  36.563  28.673   3.818
33677W        W94988  17.272   1.874  14.014
33678W        W94989  12.260   2.884   2.674
33679W        W94990   2.241  34.914  14.767
33680W        W94991  36.896  13.761  10.966
33681W        W94992  10.749  43.859   2.397
33682W        W94993  11.741  40.973  12.510
33683W        W94994  41.931  10.142  10.619
33684W        W94995  11.283  24.105  12.037
33685W        W94996  31.588  19.728   4.226
33686W        W94997  29.969  16.756   1.327
33687W        W94998  37.377  38.517   1.925
33688W        W94999  27.135  32.412   0.328
33689W        W95000  33.112   8.809   2.343
33690W        W95001  44.758   5.804  11.911
33691W        W95002  28.184  16.672  13.802
33692W        W95003  38.512  13.274   1.914
33693W        W95004  35.517  41.911  11.582
33694W        W95005   8.816  22.692  12.024
33695W        W95006  23.041   5.766   1.816
33696W        W95007  33.125  29.633   0.903
33697W        W95008  12.669  28.554   0.437
33698W        W95009  32.070  41.504   3.203
33699W        W95010   1.740  26.136  12.014
33700W        W95011   9.206  14.227  11.918
33701W        W95012  22.228  29.506   0.340
33702W        W95013  40.870   4.405   1.260
33703W        W95014  30.101  36.407  10.998
33704W        W95015  32.581   4.742   4.621
33705W        W95016  15.734  37.548   4.728
33706W        W95017   3.836  21.731   4.333
33707W        W95018  27.034  38.051  13.835
33708W        W95019   9.390   8.361  12.945
33709W        W95020  23.993  28.532  14.813
33710W        W95021   3.830  12.209  13.931
33711W        W95022   5.704  29.625   3.385
33712W        W95023  44.953  11.855   3.665
33713W        W95024  18.212  29.514   3.867
33714W        W95025   9.799  12.219   2.770
33715W        W95026   0.415  33.537  14.769
33716W        W95027  29.149   7.831   1.881
33717W        W95028  26.549  35.490  13.037
33718W        W95029  40.429  42.522  13.835
33719W        W95030   1.774  15.603  12.954
33720W        W95031   9.194  10.646   2.202
33721W        W95032   6.384  36.565  11.118
33722W        W95033  40.841  39.356  12.844
33723W        W95034  12.181   0.809   0.922
33724W        W95035  14.795  32.493  12.083
33725W        W95036  34.476  20.591  11.085
33726W        W95037  17.767  19.777   3.780
33727W        W95038  26.967  32.121  12.079
33728W        W95039   6.895  10.300  12.018
33729W        W95040   3.452  38.006   2.300
33730W        W95041  23.129  13.296  13.413
33731W        W95042  44.790   0.416   0.949
33732W        W95043  14.810  33.543  12.487
33733W        W95044  24.589  11.255   2.735
33734W        W95045  22.523  40.918  10.929
33735W        W95046  25.554  13.751   1.409
33736W        W95047  38.364  14.132  14.027
33737W        W95048   4.794   0.812  10.609
33738W        W95049   7.266  42.287  14.447
33739W        W95050  35.449  39.395  11.434
33740W        W95051   2.286  26.168   4.834
33741W        W95052  42.305  38.876   2.204
33742W        W95053  42.830   7.895   1.898
33743W        W95054  36.466  41.921  11.864
33744W        W95055  17.728   0.447  11.440
33745W        W95056  18.121  33.979  13.523
33746W        W95057  39.484  27.673   3.259
33747W        W95058   6.701   3.819   3.650
33748W        W95059  29.139  43.993   2.373
33749W        W95060  36.997  27.163  13.901
33750W        W95061  17.259  18.058   4.202
33751W        W95062  40.801   8.895   0.407
33752W        W95063  18.748  14.738   3.365
33753W        W95064   1.294  14.272  10.645
33754W        W95065  33.057  37.335  13.872
33755W        W95066  16.312   7.856  12.537
33756W        W95067   0.361  42.417   1.362
33757W        W95068  36.062  35.868  14.425
33758W        W95069  39.392   0.436   4.239
33759W        W95070  34.967  29.173   3.790
33760W        W95071   5.747  41.792  10.893
33761W        W95072  22.105  13.797  10.593
33762W        W95073   1.853  43.302   2.335
33763W        W95074  31.439  32.941   4.647
33764W        W95075   7.705  11.642   1.891
33765W        W95076   7.889  27.492  12.037
33766W        W95077  20.048  22.510  11.526
33767W        W95078  35.422  11.183   0.455
33768W        W95079   0.930  10.711   4.329
33769W        W95080   6.761  34.888  11.439
33770W        W95081  44.262  39.546   0.904
33771W        W95082   0.803  14.185   4.343
33772W        W95083  11.331  44.301  12.504
33773W        W95084  10.353  13.680  12.401
33774W        W95085  44.756  18.724   2.366
33775W        W95086  32.460  11.668  11.524
33776W        W95087  15.584  36.537  10.469
33777W        W95088  24.672   6.310   3.174
33778W        W95089  20.076  37.916   4.186
33779W        W95090  35.536   4.866  14.480
33780W        W95091  43.922  21.622  13.929
33781W        W95092  34.924  23.167  13.529
33782W        W95093  18.574  39.399   4.164
33783W        W95094  33.522  42.521  13.500
33784W        W95095  24.023  11.815  13.988
33785W        W95096  37.987   9.197  10.951
33786W        W95097  21.653  37.556   5.166
33787W        W95098  34.423  16.253  13.412
33788W        W95099  27.093  42.024   2.697
33789W        W95100  42.900  37.005  14.431
33790W        W95101  28.972  17.710   3.385
33791W        W95102  19.597  21.241   4.331
33792W        W95103  41.042  36.947  12.857
33793W        W95104  24.190   3.863  10.578
33794W        W95105  25.672  43.804  11.563
33795W        W95106   5.300  12.260  12.906
33796W        W95107  43.312  27.501   0.480
33797W        W95108  32.950  24.604  12.011
33798W        W95109  41.902  21.096  12.563
33799W        W95110   1.334  42.289   4.798
33800W        W95111  35.472  42.832  12.340
33801W        W95112  26.006  40.809  10.472
33802W        W95113  12.243  27.063  12.453
33803W        W95114  34.105  43.959   3.369
33804W        W95115   5.755  43.904   3.249
33805W        W95116  42.872  21.700  14.404
33806W        W95117  29.139  41.895  11.985
33807W        W95118  28.141  42.983   3.271
33808W        W95119  18.588  40.386   1.289
33809W        W95120   7.403   6.827  11.476
33810W        W95121  25.168  36.545  14.396
33811W        W95122  18.641  11.137   1.302
33812W        W95123  19.582  41.298  13.440
33813W        W95124   4.223   1.906  13.962
33814W        W95125  16.636  27.655  11.584
33815W        W95126  17.581  26.491   5.232
33816W        W95127  24.718  41.529  10.030
33817W        W95128  40.432  29.573  13.965
33818W        W95129  31.431  17.794   0.939
33819W        W95130   4.864  19.653   2.825
33820W        W95131  40.331  30.560   5.290
33821W        W95132  27.611  41.492  13.838
33822W        W95133  29.044  37.411   4.718
33823W        W95134  24.024   0.449   4.214
33824W        W95135  23.102  41.002  10.481
33825W        W95136  13.608  32.029   2.274
33826W        W95137   4.247  25.107  12.458
33827W        W95138  32.416  15.607   3.743
33828W        W95139  29.482  23.665  12.093
33829W        W95140  43.270  35.988   2.396
33830W        W95141  27.042  19.055  13.530
33831W        W95142  35.576  17.649   3.704
33832W        W95143  38.935  17.159  12.513
33833W        W95144  36.989  13.632  13.530
33834W        W95145  32.016   1.254  14.415
33835W        W95146   7.831  20.757  12.448
33836W        W95147  11.138  42.995  12.399
33837W        W95148  32.569  24.044   4.259
33838W        W95149  20.038  44.486  14.995
33839W        W95150  14.224  24.609  12.427
33840W        W95151   7.333  21.583  13.533
33841W        W95152  34.512  18.649  14.833
33842W        W95153  36.429  36.980   0.361
33843W        W95154  30.444  44.288  13.905
33844W        W95155  43.838   6.917  14.275
33845W        W95156  12.656   5.405  11.859
33846W        W95157   7.807  21.701  12.533
33847W        W95158  33.083  18.746   3.313
33848W        W95159  20.627   5.305  11.982
33849W        W95160   8.295  14.184   2.356
33850W        W95161  18.122   3.849  14.008
33851W        W95162  23.648   7.403   0.811
33852W        W95163  10.379   6.812  10.453
33853W        W95164  40.483  11.266   4.732
33854W        W95165   9.277  18.293  11.109
33855W        W95166  39.459  40.843   4.759
33856W        W95167   1.820   4.442   4.631
33857W        W95168  34.554  14.315   3.769
33858W        W95169   1.849  32.063  11.564
33859W        W95170  40.985   4.259  13.414
33860W        W95171   7.724  14.769   2.261
33861W        W95172  43.272  38.990   0.903
33862W        W95173   2.745  12.264   0.759
33863W        W95174  18.686  12.197   0.452
33864W        W95175   8.386  39.952   2.258
33865W        W95176  22.691  32.935   4.129
33866W        W95177  18.605  31.488   4.653
33867W        W95178   4.821  20.127  10.591
33868W        W95179  26.590  14.626  12.566
33869W        W95180   8.369  42.290   4.201
33870W        W95181   0.400  29.043  13.991
33871W        W95182   8.189  43.333  14.321
33872W        W95183  10.666  19.644  14.867
33873W        W95184  35.477  21.205  10.580
33874W        W95185   7.856   9.266   3.378
33875W        W95186  27.148  29.638   1.909
33876W        W95187  37.867  22.622   1.416
33877W        W95188  26.581  26.955  13.459
33878W        W95189  35.108  22.507  14.868
33879W        W95190  33.508  11.243  12.565
33880W        W95191  15.193   1.964   1.338
33881W        W95192  16.594   4.762  13.795
33882W        W95193  14.726  25.038   4.601
33883W        W95194  22.019   9.307   0.418
33884W        W95195  43.865   9.728   1.917
33885W        W95196  13.800  10.836  11.859
33886W        W95197  23.728  11.839   4.195
33887W        W95198  20.069  29.447  11.084
33888W        W95199  13.228  19.653  14.028
33889W        W95200  13.704  33.949  10.415
33890W        W95201  22.539   3.844  12.430
33891W        W95202  40.926  41.432  12.421
33892W        W95203  41.995  20.216  14.928
33893W        W95204  36.446   5.356  13.062
33894W        W95205  21.561  23.061   0.877
33895W        W95206  44.337  19.151  13.019
33896W        W95207  43.323   5.920  10.982
33897W        W95208  31.914  37.559   2.396
33898W        W95209  12.275  19.115   4.732
33899W        W95210   6.207  34.605   4.302
33900W        W95211  12.804  27.127   4.703
33901W        W95212   1.468  39.377  12.020
33902W        W95213  39.016  12.150  11.012
33903W        W95214  35.962   6.313  14.978
33904W        W95215  20.648   3.369  13.345
33905W        W95216  44.873  11.322   4.717
33906W        W95217  33.496  32.064   2.291
33907W        W95218  18.058   2.894  13.014
33908W        W95219   5.890  20.674  12.538
33909W        W95220  16.781  18.061  13.372
33910W        W95221  14.775  23.590  11.029
33911W        W95222  21.601  43.956   0.932
33912W        W95223  40.971  38.472   1.219
33913W        W95224  24.019  27.950   2.415
33914W        W95225  41.787  32.099  10.063
33915W        W95226  12.855   7.284   2.381
33916W        W95227   6.407  23.518   0.893
33917W        W95228  35.604  18.284  11.105
33918W        W95229  31.917  32.601   4.659
33919W        W95230  10.379  19.648  12.923
33920W        W95231   2.821   9.856   3.840
33921W        W95232  44.332  22.564  11.962
33922W        W95233  14.330  16.239  12.892
33923W        W95234  37.386  28.014  12.480
33924W        W95235  12.252  12.642  11.100
33925W        W95236   5.905  24.639   3.346
33926W        W95237  36.536  22.053  10.474
33927W        W95238  16.745   6.396  12.966
33928W        W95239  28.623  16.782   4.670
33929W        W95240  12.800  41.420   1.434
33930W        W95241  12.331   7.322   4.122
33931W        W95242  43.403   5.887   3.674
33932W        W95243  28.446  26.537  11.448
33933W        W95244   6.736  42.313   1.921
33934W        W95245  40.989  37.546   0.787
33935W        W95246  43.429   2.359  14.388
33936W        W95247   2.800  35.884  11.928
33937W        W95248  30.482   1.967   0.890
33938W        W95249  41.876  16.231   2.872
33939W        W95250  27.186  29.546   1.381
33940W        W95251  22.107  44.891   4.249
33941W        W95252  26.009  16.159   0.783
33942W        W95253  31.067  33.993  14.808
33943W        W95254  23.039   0.898  11.962
33944W        W95255  38.922   1.337   4.225
33945W        W95256  22.504  10.344  12.487
33946W        W95257  36.979  37.514  13.482
33947W        W95258  16.166  25.595   0.302
33948W        W95259   3.849  15.756   1.695
33949W        W95260  27.050  13.841   2.406
33950W        W95261  40.378  32.521  12.535
33951W        W95262   1.394   0.291   3.375
33952W        W95263  12.238  32.504   2.373
33953W        W95264  33.066  30.922   0.915
33954W        W95265  44.498  27.619   1.724
33955W        W95266   7.896  28.538   0.784
33956W        W95267  14.187  17.680   4.315
33957W        W95268  12.235   3.328  13.344
33958W        W95269  19.686  28.130  12.542
33959W        W95270  35.363  31.584   1.416
33960W        W95271   0.281   2.939   4.350
33961W        W95272  15.650   7.363  14.002
33962W        W95273  24.997  18.720  14.430
33963W        W95274  12.234  19.139   3.771
33964W        W95275   2.916  11.170  11.856
33965W        W95276   0.962  43.835   2.691
33966W        W95277   0.761  11.843  12.365
33967W        W95278  28.515  22.199  12.851
33968W        W95279  16.206   4.826   2.195
33969W        W95280  15.329  12.190   3.742
33970W        W95281  40.337  43.806   2.345
33971W        W95282  43.479  23.500   3.243
33972W        W95283   7.749  25.697   3.794
33973W        W95284   4.209  30.985  11.602
33974W        W95285  18.291  20.238  14.282
33975W        W95286   6.862  17.572  12.492
33976W        W95287   4.287   6.748   4.269
33977W        W95288   8.216  22.585   2.185
33978W        W95289  34.591  28.941   2.371
33979W        W95290  17.084  23.024   0.423
33980W        W95291  22.743  10.262  14.316
33981W        W95292  14.109   4.804  14.503
33982W        W95293  41.398  26.652   3.714
33983W        W95294   2.850  23.572   4.638
33984W        W95295  10.188  34.069  11.549
33985W        W95296   1.309   9.814  13.812
33986W        W95297  40.402  30.599  14.007
33987W        W95298  41.306  35.876   1.723
33988W        W95299  39.854  21.547  12.396
33989W        W95300  39.831  23.592  11.099
33990W        W95301  37.520  20.537  14.904
33991W        W95302   0.847  42.466   2.839
33992W        W95303  25.197  23.154  14.806
33993W        W95304  17.772  42.919  11.054
33994W        W95305  11.730  21.189  11.023
33995W        W95306  28.097   8.221  10.591
33996W        W95307   0.772   4.920  10.021
33997W        W95308  12.718  30.076   0.268
33998W        W95309  27.105  25.189   4.332
33999W        W95310  16.609   9.690  14.030
34000W        W95311  39.842   8.750  11.600
34001W        W95312   4.904  25.660  14.501
34002W        W95313  29.106   9.228   2.691
34003W        W95314  11.699   6.813   2.732
34004W        W95315  37.457   5.266  10.489
34005W        W95316  21.179   1.319   1.899
34006W        W95317  13.629  33.494  12.061
34007W        W95318  30.610  41.483  12.497
34008W        W95319  39.875  36.354   2.685
34009W        W95320  17.235  39.484   0.737
34010W        W95321  33.099   0.764   4.693
34011W        W95322   3.228  44.766  11.387
34012W        W95323  10.848   0.961   2.749
34013W        W95324  30.995  44.489  12.356
34014W        W95325  13.326   5.752   1.900
34015W        W95326  14.276  13.813   4.816
34016W        W95327  20.575  24.571   3.215
34017W        W95328  20.186  43.830  12.362
34018W        W95329  26.162  37.841  11.603
34019W        W95330  35.103  32.467   3.654
34020W        W95331  40.875  39.989   0.454
34021W        W95332   3.754   1.354  11.566
34022W        W95333   7.401  14.703  14.979
34023W        W95334  17.801  26.017  13.477
34024W        W95335  12.279  29.552  12.527
34025W        W95336  24.974  41.018   2.295
34026W        W95337  17.068   0.399  11.597
34027W        W95338   7.325  28.052   3.792
34028W        W95339  17.680  35.456  13.837
34029W        W95340  36.513  41.805  13.325
34030W        W95341   7.728  19.623   0.340
34031W        W95342  13.200  34.939   2.339
34032W        W95343  20.529  42.281   1.727
34033W        W95344  31.404   6.693  12.017
34034W        W95345  17.724   4.929  11.384
34035W        W95346  40.854  29.459  14.812
34036W        W95347  25.713  30.487   9.474
34037W        W95348  41.423   5.329  14.956
34038W        W95349   2.461  40.858  12.848
34039W        W95350   4.942  26.471   2.748
34040W        W95351  37.361   0.964  12.097
34041W        W95352  23.080  28.944   9.467
34042W        W95353  39.957   6.301  11.864
34043W        W95354  18.258  32.107   4.294
34044W        W95355   5.773  41.919  14.853
34045W        W95356  16.120  39.336  13.491
34046W        W95357   2.766   0.858  10.961
34047W        W95358   1.387  18.640   0.271
34048W        W95359   7.330   4.271   1.822
34049W        W95360  33.483   8.180   3.200
34050W        W95361  43.831   4.855   1.284
34051W        W95362  23.651  44.766   4.206
34052W        W95363   4.251  12.807  14.456
34053W        W95364  11.341  40.456  12.876
34054W        W95365  17.687   6.244  11.124
34055W        W95366  20.208   0.857  12.888
34056W        W95367   1.760  23.231  11.930
34057W        W95368  14.239  35.975   1.285
34058W        W95369  19.095  21.604   3.800
34059W        W95370  13.719  26.492  11.005
34060W        W95371   1.353  21.718   2.667
34061W        W95372  41.420   1.295  11.051
34062W        W95373  10.860  12.152  11.434
34063W        W95374   5.226  32.451   4.607
34064W        W95375  34.075  38.944  13.491
34065W        W95376  30.937  31.644  11.894
34066W        W95377  43.884  34.397   3.841
34067W        W95378  21.701  35.867  12.397
34068W        W95379  37.544  27.150   1.404
34069W        W95380  29.605  21.753   0.787
34070W        W95381  38.334  27.687   3.718
34071W        W95382  43.274  22.532  11.918
34072W        W95383  32.493   0.272  12.000
34073W        W95384  22.515   2.416  14.882
34074W        W95385  28.947   9.849   5.123
34075W        W95386  16.614  14.337   0.406
34076W        W95387  38.948  44.354  13.418
34077W        W95388  39.025  36.995  14.419
34078W        W95389  18.630  38.483  14.994
34079W        W95390  36.909   8.307  14.404
34080W        W95391  14.097  24.181  11.892
34081W        W95392  31.112   3.266   5.223
34082W        W95393   1.465  42.899   0.947
34083W        W95394   1.324  29.495   1.709
34084W        W95395   7.334   5.867  13.973
34085W        W95396  21.630   8.176   4.231
34086W        W95397  15.173  13.122  14.002
34087W        W95398   8.848  36.561   4.704
34088W        W95399  29.972  37.528  11.031
34089W        W95400   2.414  32.905  14.925
34090W        W95401  23.218  13.760   0.372
34091W        W95402  21.076  23.165  12.536
34092W        W95403  10.159  11.673   2.345
34093W        W95404  44.824  37.914   0.359
34094W        W95405  30.421  16.804  10.521
34095W        W95406  31.922  39.455  13.308
34096W        W95407  37.066  37.522  13.791
34097W        W95408  21.716   5.823   1.225
34098W        W95409  28.471  10.384   3.768
34099W        W95410   2.368  21.551  12.581
34100W        W95411  36.005  42.444  11.546
34101W        W95412  34.420  21.022   4.797
34102W        W95413  16.650   3.818   3.696
34103W        W95414   9.354  13.244   2.689
34104W        W95415  36.431   6.783   3.247
34105W        W95416  21.149  16.580   4.222
34106W        W95417  35.371   7.325   2.306
34107W        W95418  44.877  39.953   3.846
34108W        W95419   9.686   0.425  14.335
34109W        W95420  39.050  28.096  12.340
34110W        W95421  36.910  27.946   3.287
34111W        W95422  40.991  15.256  11.904
34112W        W95423   3.804  37.581   3.824
34113W        W95424  38.365   9.853  11.558
34114W        W95425  34.372   5.896   1.265
34115W        W95426  34.008  30.526  14.286
34116W        W95427  17.255  43.469  14.874
34117W        W95428   4.387  37.049  11.861
34118W        W95429  41.424  44.957  14.920
34119W        W95430  43.895  28.981   4.303
34120W        W95431  19.666  43.021  13.509
34121W        W95432   7.869  39.886  11.379
34122W        W95433  18.651  24.991  13.390
34123W        W95434  44.805  18.281   4.306
34124W        W95435  42.017  18.224   4.836
34125W        W95436  26.561  32.908  12.914
34126W        W95437  32.401  13.605   0.793
34127W        W95438  35.866  10.818   2.347
34128W        W95439   4.712  26.560  14.500
34129W        W95440   7.317  26.643   3.204
34130W        W95441  30.550   9.666  14.935
34131W        W95442   4.358  14.792  11.583
34132W        W95443  13.169   2.919  13.930
34133W        W95444  11.271  28.590   0.954
34134W        W95445  17.214   5.203  11.520
34135W        W95446  19.767   2.304  11.382
34136W        W95447  39.838  26.601  13.822
34137W        W95448   1.358  34.500   2.405
34138W        W95449  22.680  40.305   3.680
34139W        W95450  28.473  32.511   0.272
34140W        W95451  17.602  33.969   2.785
34141W        W95452  44.904  44.924   1.883
34142W        W95453  11.791  31.522   2.812
34143W        W95454  17.674  31.422   3.665
34144W        W95455  14.199  21.756   0.904
34145W        W95456   5.716  14.826  10.088
34146W        W95457  25.663  13.340  12.004
34147W        W95458  27.611  42.501   1.214
34148W        W95459  12.679  29.067  14.831
34149W        W95460  32.507  13.785  13.026
34150W        W95461  39.382  23.086  11.019
34151W        W95462  16.601  22.215  13.481
34152W        W95463   4.712  13.802   4.286
34153W        W95464   3.237   1.771  12.093
34154W        W95465  16.269  19.588   2.342
34155W        W95466  43.957  26.186   2.873
34156W        W95467  15.649   8.176   4.267
34157W        W95468  29.942   4.819   2.700
34158W        W95469   9.706   0.324  10.442
34159W        W95470  39.898  37.063   4.638
34160W        W95471  12.232  31.424   0.938
34161W        W95472  27.014  26.488  11.398
34162W        W95473  28.629  42.905  10.596
34163W        W95474  14.145  35.375   0.319
34164W        W95475  35.540  40.026   4.120
34165W        W95476  14.242  11.330  12.902
34166W        W95477  34.435  11.276  11.901
34167W        W95478   3.379  33.001   3.726
34168W        W95479  16.085  32.944  14.510
34169W        W95480  11.828   9.312  10.478
34170W        W95481   9.340   5.391  14.381
34171W        W95482  34.077  36.483  12.029
34172W        W95483  36.413  12.824   4.601
34173W        W95484  24.093  40.904  13.031
34174W        W95485  12.813  15.200   4.802
34175W        W95486   7.869  38.036   3.664
34176W        W95487   3.888  11.328   1.238
34177W        W95488  11.313   0.333  14.812
34178W        W95489  42.381  22.056  13.961
34179W        W95490  30.947  37.968   0.418
34180W        W95491  10.269   4.310  13.512
34181W        W95492   9.200   2.961   1.367
34182W        W95493  23.595  19.545   1.240
34183W        W95494   1.380  35.889   2.280
34184W        W95495  25.629  20.654  14.480
34185W        W95496  22.684  35.955   3.333
34186W        W95497  42.307  21.618   2.663
34187W        W95498   5.887   7.214   1.709
34188W        W95499  42.859  25.127   0.390
34189W        W95500   9.676   8.671   2.364
34190W        W95501  40.002  20.028  10.463
34191W        W95502  12.656  42.335  11.059
34192W        W95503   6.886   0.494   4.347
34193W        W95504  38.019   3.448   0.250
34194W        W95505   5.335  42.821   1.384
34195W        W95506  44.958  20.562  13.376
34196W        W95507   6.320   9.172  14.991
34197W        W95508  33.011   4.438  11.375
34198W        W95509  18.281  30.019   3.338
34199W        W95510  43.306  32.123   2.289
34200W        W95511  44.414   0.302  10.592
34201W        W95512  26.472  21.570   0.938
34202W        W95513  25.159   1.319   3.170
34203W        W95514   8.313  44.392  11.127
34204W        W95515  40.517  11.160  12.952
34205W        W95516  31.521  19.669  12.574
34206W        W95517   8.666  36.425   0.884
34207W        W95518  24.519  21.050  11.968
34208W        W95519  22.570  26.068  11.536
34209W        W95520   7.198  19.050  11.479
34210W        W95521  23.217   3.317   4.217
34211W        W95522   4.933  10.792   4.606
34212W        W95523  10.807  31.118  12.419
34213W        W95524  15.688   8.274   0.932
34214W        W95525  22.248  34.570   3.374
34215W        W95526  44.263  23.630  14.790
34216W        W95527  42.285   8.246   2.730
34217W        W95528  22.512   6.788  13.988
34218W        W95529  36.886  10.157   0.772
34219W        W95530   2.365  21.065  13.923
34220W        W95531   5.707  12.780   0.786
34221W        W95532  17.647  25.158   2.232
34222W        W95533  33.924  40.419   1.296
34223W        W95534  31.023  29.460   4.342
34224W        W95535  43.332  10.179   1.268
34225W        W95536  38.022  12.263  11.111
34226W        W95537  33.585  43.456  11.880
34227W        W95538  38.854   3.727  12.012
34228W        W95539  22.656  17.250  10.448
34229W        W95540   1.786  44.467   4.619
34230W        W95541   2.424  22.194   1.426
34231W        W95542  28.048  18.596  10.898
34232W        W95543  34.099  12.838  12.478
34233W        W95544   8.389  22.134  14.908
34234W        W95545  26.206  22.034   1.881
34235W        W95546   6.802   4.708  11.951
34236W        W95547   6.424  19.263  12.963
34237W        W95548  19.685   2.238  12.474
34238W        W95549  19.563  26.640   3.677
34239W        W95550  39.322  15.681   3.276
34240W        W95551  35.915   5.816  12.566
34241W        W95552  10.872  29.060  11.929
34242W        W95553  18.686  44.291  14.779
34243W        W95554  20.662  13.651  12.989
34244W        W95555  27.623  15.649  11.415
34245W        W95556  19.568  41.974  13.961
34246W        W95557   4.399  27.166  13.942
34247W        W95558  14.624   2.432   5.294
34248W        W95559  17.800  12.658   3.698
34249W        W95560   1.790  10.331   2.221
34250W        W95561   4.910   5.284  10.626
34251W        W95562  10.791   5.335   1.211
34252W        W95563  14.118   6.314  13.392
34253W        W95564   4.406  44.487   2.300
34254W        W95565  44.784  12.639   1.416
34255W        W95566  37.054  38.919   2.329
34256W        W95567  40.530  13.194  14.486
34257W        W95568  38.024  18.106   3.646
34258W        W95569  44.754  19.054  14.972
34259W        W95570  20.051  28.035  12.552
34260W        W95571  14.728  38.953   2.692
34261W        W95572  27.012  22.216   0.254
34262W        W95573   6.190  30.608  10.093
34263W        W95574  26.630   6.316   3.378
34264W        W95575  16.147   2.297  10.948
34265W        W95576  10.853  18.184   1.284
34266W        W95577  30.649  20.031  14.933
34267W        W95578  10.213  20.610  10.618
34268W        W95579   2.272  24.719   2.352
34269W        W95580   2.958  14.698   3.814
34270W        W95581   8.203  26.974   0.261
34271W        W95582  20.212  40.539   2.188
34272W        W95583  33.586  25.528   1.264
34273W        W95584  39.858  42.311   0.804
34274W        W95585  12.308  31.556  14.932
34275W        W95586  36.898  38.869   0.779
34276W        W95587  35.108  12.129  11.494
34277W        W95588  38.985  36.508  11.000
34278W        W95589   5.438  14.296   3.811
34279W        W95590  16.650  18.206   4.168
34280W        W95591  39.397  27.003   3.816
34281W        W95592  27.672  15.774  10.413
34282W        W95593  26.587  31.594   1.424
34283W        W95594  32.625   1.299  12.087
34284W        W95595  22.229  11.654   3.166
34285W        W95596   2.827  39.962  14.401
34286W        W95597   5.370   9.205   3.334
34287W        W95598  22.692  43.963   3.150
34288W        W95599  22.226  41.450   2.263
34289W        W95600   6.679  43.302   0.899
34290W        W95601   1.899   5.202   1.331
34291W        W95602  23.617  17.727  13.029
34292W        W95603  30.912   7.241  14.803
34293W        W95604   7.874  34.871   4.230
34294W        W95605   0.744  11.367  13.463
34295W        W95606   5.327  34.398  12.384
34296W        W95607  44.004   1.812  11.389
34297W        W95608  20.143  38.507  14.975
34298W        W95609  24.066  41.479   2.213
34299W        W95610  10.871  13.290   3.723
34300W        W95611   2.427  39.873  10.529
34301W        W95612  13.628   0.784   1.293
34302W        W95613  40.313  38.935   4.290
34303W        W95614  37.391   8.182   0.814
34304W        W95615  28.096   0.765   0.825
34305W        W95616  12.141  41.414   0.267
34306W        W95617  32.427  13.776  11.392
34307W        W95618  41.946  39.483  12.035
34308W        W95619  31.077  24.019  14.030
34309W        W95620  16.295   3.289  14.920
34310W        W95621  10.206  42.857   1.219
34311W        W95622  37.940  42.515   1.245
34312W        W95623  27.057  38.478  14.301
34313W        W95624  30.109   1.401  14.835
34314W        W95625  28.476  27.994  11.113
34315W        W95626  43.331   8.734  10.636
34316W        W95627   8.355  44.963  14.317
34317W        W95628  30.156   0.978  12.564
34318W        W95629  33.581   8.257   2.813
34319W        W95630  41.795  39.922   0.447
34320W        W95631   0.939   0.354  10.483
34321W        W95632  23.081   5.401  12.096
34322W        W95633   7.797  15.158   4.324
34323W        W95634   7.724  30.540  13.062
34324W        W95635   8.737  40.806  11.860
34325W        W95636  28.069  42.454   0.815
34326W        W95637   5.305   8.342   0.380
34327W        W95638   9.780  36.937   2.332
34328W        W95639  38.003  24.724   3.750
34329W        W95640  19.137   1.354   2.662
34330W        W95641   1.841  26.160  12.846
34331W        W95642  22.745  23.099   1.738
34332W        W95643  32.485  36.580  12.447
34333W        W95644  11.357  31.527   0.786
34334W        W95645  31.443  29.597   3.185
34335W        W95646  20.060  34.452  12.924
34336W        W95647  28.057  39.894   0.764
34337W        W95648  35.409   1.238   3.241
34338W        W95649   7.196  43.867   4.351
34339W        W95650  41.372  31.132  12.847
34340W        W95651  12.262   7.860  10.641
34341W        W95652  19.687  30.630  14.399
34342W        W95653  39.978  33.479   1.851
34343W        W95654  25.996  35.558  13.469
34344W        W95655  27.037  27.485   1.870
34345W        W95656  23.066  28.581   5.731
34346W        W95657  32.446   1.976  14.885
34347W        W95658  43.016  41.483  10.156
34348W        W95659  12.843  35.601   3.226
34349W        W95660  12.661  22.675   2.292
34350W        W95661  10.295  20.648   3.648
34351W        W95662  29.133  38.925   2.343
34352W        W95663   7.224   9.349   3.189
34353W        W95664  28.990  13.610   3.844
34354W        W95665  26.182  13.689  13.513
34355W        W95666  44.449   0.312  11.987
34356W        W95667   0.293   4.450  13.450
34357W        W95668  23.632  20.739   1.762
34358W        W95669  26.017  40.318   2.852
34359W        W95670  35.447  27.986  14.801
34360W        W95671  22.668  40.468  14.793
34361W        W95672  16.805  28.505   4.823
34362W        W95673   5.337  29.124   3.240
34363W        W95674  16.780   9.805   1.735
34364W        W95675  15.749  16.808  12.023
34365W        W95676  12.664  19.667  11.965
34366W        W95677   1.374  23.540  12.914
34367W        W95678  22.070   9.357  11.894
34368W        W95679  13.179  10.333   1.697
34369W        W95680  19.128  34.922  11.958
34370W        W95681   4.711  23.714  13.004
34371W        W95682  14.764  24.507  14.503
34372W        W95683  34.561  35.073  12.491
34373W        W95684  15.819  37.003   4.722
34374W        W95685  25.649  19.696  14.275
34375W        W95686  19.206  37.065   3.851
34376W        W95687  17.238   8.818  14.416
34377W        W95688  20.166  19.578  12.363
34378W        W95689  19.175  28.623  12.874
34379W        W95690  33.061  33.605   4.184
34380W        W95691  18.058  19.614  13.972
34381W        W95692   5.772   7.716  12.378
34382W        W95693  14.760  23.605  10.050
34383W        W95694  29.428   8.759   2.879
34384W        W95695  17.244  18.143   3.729
34385W        W95696  30.433  25.061   3.732
34386W        W95697   8.401  33.112  10.595
34387W        W95698  30.044  15.756  13.901
34388W        W95699  14.714  21.526  11.507
34389W        W95700  37.464  36.910   4.336
34390W        W95701  27.119  14.132   2.751
34391W        W95702  20.062  43.013   1.404
34392W        W95703  37.343   5.338   4.325
34393W        W95704  16.186  21.700   4.827
34394W        W95705  25.082   3.370   0.737
34395W        W95706  11.292   3.864   3.171
34396W        W95707  22.093  31.529   1.916
34397W        W95708  40.475   0.761  12.350
34398W        W95709  42.501  41.893  11.056
34399W        W95710  13.255   0.270   4.155
34400W        W95711  40.850  13.214  13.884
34401W        W95712  44.319  31.046  10.553
34402W        W95713  27.659  26.682   3.365
34403W        W95714  10.215  13.263  14.017
34404W        W95715  35.001  44.394   4.608
34405W        W95716  30.139  10.300   2.742
34406W        W95717  39.911  40.517   3.768
34407W        W95718  22.017  36.531  13.408
34408W        W95719  18.107   5.243  11.998
34409W        W95720  31.489  13.845   4.329
34410W        W95721  25.210   7.416  11.035
34411W        W95722  39.465  20.100   2.309
34412W        W95723  42.496  20.108   3.220
34413W        W95724  36.511  11.347  14.875
34414W        W95725  14.748   1.959  12.967
34415W        W95726  21.068  30.108  13.371
34416W        W95727  42.486  22.145   2.388
34417W        W95728  15.673  43.994  10.113
34418W        W95729  36.404   4.429  13.015
34419W        W95730  42.870   2.751  13.018
34420W        W95731  14.259  36.990   4.801
34421W        W95732  40.444  15.197  14.294
34422W        W95733   4.836  20.067   4.641
34423W        W95734  22.674  27.041   2.674
34424W        W95735  12.730   3.751  10.424
34425W        W95736  41.340  16.279   1.795
34426W        W95737  20.664   0.893   1.884
34427W        W95738  19.202  26.560  10.553
34428W        W95739  35.043  14.758  11.410
34429W        W95740  36.028  36.932   3.276
34430W        W95741  12.617   2.309   2.791
34431W        W95742  27.973  11.270   4.210
34432W        W95743  16.782  25.701   3.736
34433W        W95744  19.173  39.888   1.428
34434W        W95745  25.995   7.278  13.053
34435W        W95746  43.483  20.648   1.420
34436W        W95747  15.713  32.396   0.443
34437W        W95748  42.959  37.985   3.184
34438W        W95749  43.509  16.686   2.763
34439W        W95750  29.469  12.240  13.823
34440W        W95751  10.845  15.134   0.762
34441W        W95752  42.381  39.390  12.027
34442W        W95753   7.814   3.830   0.352
34443W        W95754  13.209  15.234   2.715
34444W        W95755   0.419  24.129  14.487
34445W        W95756  29.592  31.485  14.000
34446W        W95757  40.476   4.717   2.321
34447W        W95758  29.447  38.049   3.658
34448W        W95759   2.410  27.166   3.688
34449W        W95760   6.283  14.701   5.677
34450W        W95761  38.347  38.900  14.877
34451W        W95762  27.076  17.676   0.835
34452W        W95763  30.471  42.850  14.841
34453W        W95764  18.666  16.106  11.431
34454W        W95765  11.354  17.086  13.965
34455W        W95766  37.542  20.137  11.877
34456W        W95767  10.762   2.810   0.472
34457W        W95768  28.117  34.968  14.944
34458W        W95769  29.027  38.519  14.909
34459W        W95770  10.800   1.838   2.269
34460W        W95771  27.167  11.724  14.283
34461W        W95772  18.111  39.400  10.958
34462W        W95773  13.754  44.786  14.391
34463W        W95774  33.945  42.947  12.892
34464W        W95775   7.828  37.069  13.534
34465W        W95776  30.550  28.473   4.798
34466W        W95777  21.523  22.109   1.440
34467W        W95778  34.078  11.188   4.743
34468W        W95779  42.973   2.467  10.618
34469W        W95780  34.403  34.883  14.827
34470W        W95781  34.998  20.111   2.310
34471W        W95782  21.172  19.104  11.598
34472W        W95783  36.098  27.509  14.359
34473W        W95784  24.141  34.398   2.416
34474W        W95785  26.487  36.466   3.793
34475W        W95786   1.476  14.822  11.038
34476W        W95787  32.089  28.045   0.404
34477W        W95788  42.854  24.595  12.559
34478W        W95789  16.127  32.997   1.775
34479W        W95790   5.898  36.438   0.380
34480W        W95791  35.980  18.592   4.647
34481W        W95792  38.845   5.901  11.929
34482W        W95793  29.107  10.183   1.407
34483W        W95794  35.975  36.946   2.243
34484W        W95795  10.802  37.969  12.548
34485W        W95796  29.513  35.007  12.901
34486W        W95797   8.310  35.364   0.959
34487W        W95798  34.369   7.399   3.655
34488W        W95799  11.327  40.037   4.633
34489W        W95800  33.501  29.115  14.303
34490W        W95801  30.094  26.122  14.410
34491W        W95802  26.046  38.912   0.763
34492W        W95803  13.301  38.034   0.459
34493W        W95804  20.083  15.109   2.228
34494W        W95805  43.327  31.090  12.004
34495W        W95806  22.058  10.689  13.926
34496W        W95807  12.176   9.794   0.733
34497W        W95808  17.299  42.003  13.858
34498W        W95809  21.751  36.941  13.817
34499W        W95810  10.326  24.984  13.972
34500W        W95811  27.995  37.336   1.840
34501W        W95812   4.868  44.347   1.392
34502W        W95813  37.833  26.027  12.410
34503W        W95814   4.390   0.903   1.696
34504W        W95815  11.864  24.658  13.917
34505W        W95816  40.303  15.739  10.903
34506W        W95817   2.412  22.725  14.766
34507W        W95818  20.669  20.203   5.767
34508W        W95819  27.643  26.034   2.371
34509W        W95820  16.265  26.621   0.896
34510W        W95821  12.855   3.435   3.647
34511W        W95822  28.492   5.251   0.338
34512W        W95823  23.502  31.019   1.420
34513W        W95824   7.201  43.979   4.824
34514W        W95825  23.514   8.300  13.940
34515W        W95826  37.914  44.315  12.973
34516W        W95827  32.426  40.011   0.253
34517W        W95828  18.737  22.712  14.438
34518W        W95829  25.962  16.140  12.532
34519W        W95830  37.859  39.546  12.361
34520W        W95831  36.874  38.008   0.899
34521W        W95832  25.199  22.025  12.904
34522W        W95833  12.353  44.000   0.783
34523W        W95834  25.087  11.712   3.853
34524W        W95835  44.780  34.071  12.907
34525W        W95836  11.694  21.106  13.996
34526W        W95837  11.686  28.094  14.434
34527W        W95838  40.863  27.622   4.724
34528W        W95839  29.628  25.542  10.632
34529W        W95840   3.420   1.866  14.817
34530W        W95841   8.872  43.369  11.586
34531W        W95842  43.309  38.450  14.486
34532W        W95843   9.890  28.943  13.503
34533W        W95844  11.636   5.205  11.543
34534W        W95845  31.463  19.134   3.242
34535W        W95846  40.899  22.707  14.960
34536W        W95847  43.835  12.653   2.232
34537W        W95848  12.293  38.388   3.350
34538W        W95849  12.121  31.622   0.263
34539W        W95850  13.312  27.459  13.510
34540W        W95851  10.229  34.882   1.791
34541W        W95852  33.935  43.348   1.344
34542W        W95853  18.767  33.893  14.352
34543W        W95854   7.180  21.662  10.601
34544W        W95855  31.974  28.176  14.862
34545W        W95856  25.965  39.533  12.578
34546W        W95857  30.428  26.001  14.283
34547W        W95858  13.764   9.262   0.801
34548W        W95859  10.214  14.686   4.728
34549W        W95860  35.890  25.187  12.545
34550W        W95861  43.411  34.474  13.455
34551W        W95862   8.269   0.348  12.386
34552W        W95863  31.118  38.830   2.398
34553W        W95864  20.119  37.561  14.940
34554W        W95865   5.213  17.672   2.220
34555W        W95866   6.836  12.673  12.876
34556W        W95867  18.116  19.159  10.469
34557W        W95868  22.147   7.910   3.747
34558W        W95869  17.796   4.799  12.504
34559W        W95870  29.437   0.285  14.780
34560W        W95871  10.166  38.034  12.416
34561W        W95872  17.643  10.846   3.823
34562W        W95873   7.225  14.748   3.843
34563W        W95874  33.057  38.835  12.495
34564W        W95875   1.912   1.772   1.808
34565W        W95876  12.203  40.490   1.230
34566W        W95877  36.984  12.121  13.351
34567W        W95878  16.644   4.217   3.301
34568W        W95879  43.479  12.250  10.903
34569W        W95880  19.206  24.566  10.971
34570W        W95881  29.456  33.395  10.473
34571W        W95882  31.554  33.616   3.178
34572W        W95883  27.603  23.226   0.777
34573W        W95884  11.173  32.490  12.085
34574W        W95885  18.655  37.980   3.297
34575W        W95886  20.158  36.011  14.321
34576W        W95887   1.819   8.844  11.385
34577W        W95888  18.670  14.306   2.895
34578W        W95889  36.468  19.606  13.933
34579W        W95890  23.094   2.916   0.460
34580W        W95891  25.501  41.412  12.368
34581W        W95892  10.305   8.785  13.940
34582W        W95893  24.592  12.253  11.050
34583W        W95894  33.447  23.124  13.930
34584W        W95895  29.494   2.916  10.002
34585W        W95896  12.632  40.529  10.978
34586W        W95897  12.697   0.450   0.273
34587W        W95898  23.721  25.690  13.522
34588W        W95899  19.676  36.063  12.504
34589W        W95900  23.175   1.864  14.354
34590W        W95901  42.423   2.264  14.501
34591W        W95902  33.958  21.122  12.895
34592W        W95903  41.383   7.373  10.459
34593W        W95904  36.391  11.791   0.448
34594W        W95905   6.898  35.515   3.731
34595W        W95906  21.636   2.322  13.474
34596W        W95907  44.288  10.773   0.895
34597W        W95908  41.474  30.569   2.835
34598W        W95909  21.675   1.831   0.896
34599W        W95910   6.771  14.202  12.875
34600W        W95911  25.608  16.226  14.793
34601W        W95912   2.753  43.341   0.908
34602W        W95913  11.223  14.189   4.729
34603W        W95914   8.347  42.508   2.385
34604W        W95915   0.959   2.447   0.847
34605W        W95916  24.678  24.142  14.291
34606W        W95917  33.061  10.849   2.335
34607W        W95918  41.451   3.942  13.444
34608W        W95919   4.274  13.733  14.833
34609W        W95920  11.693  43.833   4.624
34610W        W95921   4.837   5.885   2.822
34611W        W95922  41.831  16.730   2.758
34612W        W95923  37.577   2.392   4.117
34613W        W95924  13.318  32.068  13.907
34614W        W95925  31.408   9.357   2.254
34615W        W95926  12.327  33.592  10.136
34616W        W95927  33.876   9.325   4.280
34617W        W95928   3.418  13.643   4.618
34618W        W95929  31.956   2.830   4.823
34619W        W95930  43.834  39.522   0.944
34620W        W95931   1.348  40.883  10.466
34621W        W95932  39.949  38.482   1.212
34622W        W95933  40.886   1.922   3.867
34623W        W95934  37.837  12.822  14.007
34624W        W95935  35.476  44.427   3.722
34625W        W95936   6.741   2.325   0.921
34626W        W95937  42.370  16.632   1.423
34627W        W95938  20.162  17.236  11.031
34628W        W95939  32.941  29.129  11.543
34629W        W95940  12.275  25.147  11.375
34630W        W95941  13.628   4.257  13.384
34631W        W95942   8.833  16.246   5.152
34632W        W95943  17.250   5.377  10.462
34633W        W95944  27.179   3.747   0.824
34634W        W95945   3.784  15.215   0.282
34635W        W95946  24.491  42.509   1.850
34636W        W95947   0.249  27.054   0.388
34637W        W95948  33.068  25.965  13.462
34638W        W95949  30.019  42.835   4.735
34639W        W95950   0.937  37.503   3.208
34640W        W95951  26.142  17.130   4.215
34641W        W95952  30.539  26.103  13.316
34642W        W95953   9.821  38.962   4.658
34643W        W95954   1.437  16.613  12.057
34644W        W95955   0.879  30.512  13.447
34645W        W95956  30.526   2.823  13.024
34646W        W95957   5.209   1.311  11.113
34647W        W95958  18.287   6.424  13.317
34648W        W95959  35.924   4.288  10.467
34649W        W95960  14.207   5.704   0.784
34650W        W95961  28.607  20.604  12.386
34651W        W95962  42.407  37.845  12.344
34652W        W95963  15.691  10.820  12.362
34653W        W95964  25.038  11.185  12.056
34654W        W95965  15.204   1.742   5.165
34655W        W95966   8.864   8.197  14.813
34656W        W95967  42.340   1.305   1.325
34657W        W95968   0.357   6.363  11.954
34658W        W95969  31.444   6.919  14.489
34659W        W95970  10.778  17.263  11.929
34660W        W95971  32.564  16.610   0.813
34661W        W95972  27.502  28.174  13.872
34662W        W95973  16.797  11.684   3.166
34663W        W95974  20.122  15.243   0.835
34664W        W95975   4.828  13.196  10.528
34665W        W95976  35.068   0.747  10.409
34666W        W95977  23.665  35.956   2.738
34667W        W95978  25.491  14.125  10.634
34668W        W95979  19.773   2.951   4.349
34669W        W95980  18.734  32.091   1.236
34670W        W95981  11.196  10.737   0.898
34671W        W95982   5.248  41.324   0.934
34672W        W95983  18.687  20.105   2.749
34673W        W95984  32.030  44.925  11.489
34674W        W95985   3.830  35.032  12.530
34675W        W95986  19.285  31.597   3.688
34676W        W95987   7.403  42.830  11.432
34677W        W95988  26.606  39.900  14.999
34678W        W95989  37.960  41.357  12.528
34679W        W95990   9.808  26.956   3.258
34680W        W95991  23.984  21.035   0.942
34681W        W95992  28.033  13.845   1.735
34682W        W95993  43.822   7.174  13.324
34683W        W95994  33.576   3.848  11.491
34684W        W95995  38.008   1.890   1.450
34685W        W95996  20.036  32.905  12.035
34686W        W95997  30.071  33.625   2.291
34687W        W95998  18.176  32.572  12.367
34688W        W95999  39.820  27.455  10.595
34689W        W96000  36.531  34.600   0.437
34690W        W96001  21.632  41.457   0.926
34691W        W96002   7.301  11.655   1.727
34692W        W96003  12.159  43.420   1.369
34693W        W96004  41.401  43.774  14.340
34694W        W96005  20.743  14.696   2.369
34695W        W96006  23.984  29.589   1.347
34696W        W96007  37.954  17.793   4.708
34697W        W96008   4.926   7.346  10.619
34698W        W96009  37.503  14.617   4.257
34699W        W96010  41.460  29.520   3.337
34700W        W96011   8.841  35.424   1.770
34701W        W96012  31.516  33.036   3.698
34702W        W96013   5.345  27.181  14.976
34703W        W96014  41.997   4.228  10.981
34704W        W96015  15.749  18.698   2.687
34705W        W96016  29.054  28.037   3.713
34706W        W96017  39.453  12.328   0.423
34707W        W96018  18.716  43.385   0.420
34708W        W96019   2.865   8.285   4.325
34709W        W96020  16.214   9.299   1.892
34710W        W96021  10.737   0.486  11.055
34711W        W96022   9.245  40.478   3.189
34712W        W96023  32.515  38.450  10.478
34713W        W96024  34.514  21.234   4.138
34714W        W96025  34.025  35.050  13.333
34715W        W96026  38.895  38.981  14.343
34716W        W96027  23.179  21.135   0.747
34717W        W96028   1.963  32.568   2.183
34718W        W96029  36.985  40.037   3.820
34719W        W96030  37.061  11.747   0.797
34720W        W96031  33.947  21.654  12.025
34721W        W96032  18.106  18.200  11.114
34722W        W96033  14.593  32.395   2.670
34723W        W96034  29.086  22.025   1.767
34724W        W96035   1.363  34.100  12.387
34725W        W96036  16.114  42.511  10.906
34726W        W96037   5.349  40.375   1.847
34727W        W96038  23.232  13.625  14.798
34728W        W96039  30.028  37.984  12.029
34729W        W96040   3.883  37.566  11.954
34730W        W96041   3.880  40.949  10.466
34731W        W96042  43.973  19.238  13.309
34732W        W96043  29.477  43.454   2.397
34733W        W96044  30.118  17.680   3.660
34734W        W96045  24.554  20.612  11.070
34735W        W96046  27.595  28.158   3.652
34736W        W96047  23.623  32.934  10.038
34737W        W96048  42.981  12.201   4.164
34738W        W96049  17.088   3.719  12.984
34739W        W96050  15.238  37.974   2.801
34740W        W96051  20.033  17.767  11.046
34741W        W96052  18.568   4.413   0.368
34742W        W96053  14.710   8.309  13.946
34743W        W96054  14.239  22.253   0.755
34744W        W96055  23.032  12.125  10.959
34745W        W96056  31.975  10.844   2.899
34746W        W96057  24.637  27.141  12.018
34747W        W96058  32.511  29.041   4.697
34748W        W96059  35.421  27.995  13.474
34749W        W96060  19.739   3.854   0.403
34750W        W96061  35.076  30.068   9.488
34751W        W96062  27.080   5.811  12.531
34752W        W96063  12.227  23.997  14.423
34753W        W96064  23.188  11.724  13.880
34754W        W96065  16.724  32.929  12.558
34755W        W96066  26.013   3.234  10.060
34756W        W96067  23.524  35.995  14.955
34757W        W96068  27.066  26.582  11.896
34758W        W96069  35.102  15.680  10.615
34759W        W96070  35.477  20.527   1.444
34760W        W96071  32.963  17.621   1.717
34761W        W96072  22.609  10.653   1.274
34762W        W96073  22.054  23.586  14.390
34763W        W96074  40.821  12.189  12.894
34764W        W96075  32.410  33.960  12.943
34765W        W96076  11.195   1.345   3.780
34766W        W96077  13.783  10.722   4.790
34767W        W96078  33.084  42.977   4.741
34768W        W96079  33.533  41.870  12.059
34769W        W96080  32.960   8.244  10.510
34770W        W96081   6.314   4.348  14.358
34771W        W96082   8.787  36.961  13.798
34772W        W96083  15.305  38.497  11.476
34773W        W96084  16.676  25.584  14.837
34774W        W96085  18.716  18.769  12.569
34775W        W96086  22.071  28.137   1.764
34776W        W96087  28.173   4.929  13.529
34777W        W96088  23.071  28.562   9.571
34778W        W96089  40.439  21.213  10.085
34779W        W96090  41.798  21.104   3.846
34780W        W96091   1.439  11.784   3.322
34781W        W96092   0.422  14.159   2.864
34782W        W96093  38.875   4.252   1.846
34783W        W96094  17.637  23.564   0.732
34784W        W96095  29.150  24.677   4.605
34785W        W96096  43.479   7.733   1.396
34786W        W96097  21.020  25.965  11.040
34787W        W96098  32.971   5.804   2.419
34788W        W96099  13.237  32.922  13.001
34789W        W96100  38.471   5.237   4.827
34790W        W96101  17.752   7.415   3.837
34791W        W96102  19.654  12.299  14.443
34792W        W96103  15.699  21.650   3.171
34793W        W96104  19.060  34.026   4.118
34794W        W96105  27.969  33.043  10.588
34795W        W96106  41.847  14.773  13.404
34796W        W96107  40.530  20.163   3.227
34797W        W96108  11.261   1.863  12.859
34798W        W96109  34.909  38.471  10.147
34799W        W96110  21.546  14.300   1.865
34800W        W96111   1.281  25.166  13.423
34801W        W96112   4.756  34.111   3.180
34802W        W96113  40.970  24.223  11.904
34803W        W96114  15.237  35.574   3.302
34804W        W96115  28.485  44.402   3.275
34805W        W96116   9.279  10.208   4.650
34806W        W96117  11.260  39.061   1.905
34807W        W96118   5.419  14.631   3.176
34808W        W96119  41.040   1.253  14.456
34809W        W96120  40.957  22.538  12.030
34810W        W96121  28.961  38.427  14.393
34811W        W96122   5.691  39.426  10.958
34812W        W96123  11.188  38.968  14.850
34813W        W96124  17.266   5.916  11.095
34814W        W96125  17.137  15.666   4.158
34815W        W96126  44.346  23.567   3.804
34816W        W96127   3.802  31.937   0.736
34817W        W96128  36.904  23.623  12.484
34818W        W96129  12.745  40.482  12.511
34819W        W96130   0.391  35.869  11.007
34820W        W96131  15.107   0.265   4.660
34821W        W96132  27.595   0.744   3.166
34822W        W96133  35.876  25.621   2.385
34823W        W96134  23.219   9.221   4.771
34824W        W96135  23.504  11.791  13.328
34825W        W96136  11.290   0.954  10.996
34826W        W96137  40.799   4.307   0.735
34827W        W96138   5.714  10.868   3.245
34828W        W96139  31.469  44.421   4.721
34829W        W96140  19.699  33.599   0.933
34830W        W96141  14.638   1.961  11.062
34831W        W96142  12.289  35.922   2.273
34832W        W96143   3.252  24.484   4.623
34833W        W96144   8.814  31.054   4.824
34834W        W96145  17.302  44.504  11.084
34835W        W96146  41.362   1.322  14.823
34836W        W96147   6.702  17.169  10.120
34837W        W96148   3.889  42.469  13.800
34838W        W96149  12.330   4.286   4.767
34839W        W96150   5.705  13.693   9.543
34840W        W96151  29.956  17.075   0.453
34841W        W96152  31.465  38.947   3.153
34842W        W96153  13.121  43.928   0.334
34843W        W96154  36.956  23.063   4.716
34844W        W96155   3.281  34.892  12.987
34845W        W96156   7.807  20.696   3.228
34846W        W96157  15.180   0.371   1.925
34847W        W96158  40.818  26.537  13.984
34848W        W96159  15.111   4.762   0.476
34849W        W96160  26.148  29.124   1.715
34850W        W96161   8.821  16.585   0.778
34851W        W96162  25.638  42.982   1.811
34852W        W96163  43.288  30.449  13.946
34853W        W96164  44.299   2.466   2.240
34854W        W96165  23.164  14.126  14.937
34855W        W96166   6.291  15.623  12.533
34856W        W96167   3.749  22.245  13.886
34857W        W96168   0.273  17.184   4.612
34858W        W96169  30.645  13.716   0.896
34859W        W96170  40.488  38.379   4.350
34860W        W96171  23.674  26.200   2.362
34861W        W96172  20.623  43.855  10.628
34862W        W96173   6.420  37.529   1.221
34863W        W96174  22.214  31.446   1.240
34864W        W96175  40.348   0.478  13.495
34865W        W96176  19.736  39.824   1.344
34866W        W96177  39.395  27.543  13.349
34867W        W96178  22.504  33.116  10.049
34868W        W96179   0.768  31.898   0.831
34869W        W96180  38.982   0.970   2.879
34870W        W96181  27.954   6.423  11.925
34871W        W96182  19.224  21.673  13.335
34872W        W96183  26.484  31.536  10.990
34873W        W96184  34.524  22.130   1.243
34874W        W96185  17.580  44.939   0.811
34875W        W96186  20.633   0.323  14.924
34876W        W96187  28.167   9.335  13.003
34877W        W96188  23.231   3.799   3.822
34878W        W96189  18.606  28.526  12.085
34879W        W96190  14.728  41.832   2.253
34880W        W96191  17.156  20.762  10.624
34881W        W96192  28.066   1.344  14.932
34882W        W96193  44.988  20.537   4.640
34883W        W96194   3.429  36.050   2.692
34884W        W96195  23.060  20.610  10.130
34885W        W96196  15.087  15.788  11.607
34886W        W96197  31.500  36.091   4.781
34887W        W96198  37.044  41.999  10.140
34888W        W96199  25.060  43.791  11.917
34889W        W96200  34.477  42.021   3.843
34890W        W96201  43.785   7.790   0.888
34891W        W96202  21.720  17.753  12.929
34892W        W96203  22.705   2.750  13.391
34893W        W96204  15.322  20.756   2.780
34894W        W96205  12.301  28.557   2.858
34895W        W96206  38.872  44.941   1.403
34896W        W96207  44.877  13.226   2.282
34897W        W96208   5.728  39.829  12.907
34898W        W96209  38.862  20.253  11.897
34899W        W96210  43.505  26.124  11.424
34900W        W96211  33.097   4.428   0.962
34901W        W96212   2.237  19.228   1.806
34902W        W96213  22.219  19.244  13.537
34903W        W96214  38.948  44.944  10.536
34904W        W96215  39.938  17.558   3.162
34905W        W96216  15.287  40.034  10.943
34906W        W96217  27.445   1.421  13.533
34907W        W96218  29.129  15.634   1.428
34908W        W96219   9.155   0.746  13.020
34909W        W96220   9.786  43.929   3.744
34910W        W96221  22.510  27.615  10.591
34911W        W96222  39.962   3.453   4.121
34912W        W96223  33.439  18.556  14.288
34913W        W96224  40.809  44.783  12.496
34914W        W96225  38.336  26.466  10.441
34915W        W96226   5.216  22.124   1.403
34916W        W96227  30.479  29.511  12.430
34917W        W96228  28.441   6.248   1.443
34918W        W96229  26.194  41.358  13.797
34919W        W96230   2.395  27.992   5.318
34920W        W96231  15.712   6.265   1.450
34921W        W96232  18.771   5.212  12.527
34922W        W96233  24.172  43.799  11.991
34923W        W96234  42.982   0.394   4.193
34924W        W96235  18.115   1.866  14.386
34925W        W96236   5.863  18.640  14.456
34926W        W96237   9.180  33.996   4.272
34927W        W96238  12.249  38.991  12.435
34928W        W96239   1.448  44.861   4.224
34929W        W96240   8.348  11.648  14.405
34930W        W96241  35.006  23.034   3.175
34931W        W96242  11.667  44.473   0.858
34932W        W96243  16.094  30.046   4.740
34933W        W96244   7.220  14.252  14.776
34934W        W96245  19.574   0.756  12.525
34935W        W96246  19.688  17.771   2.825
34936W        W96247  25.707  30.434  11.448
34937W        W96248  31.547  14.141  11.473
34938W        W96249  16.627  22.064  11.431
34939W        W96250  19.067   6.815  12.457
34940W        W96251  14.243  35.878   3.716
34941W        W96252   0.819  23.101   2.399
34942W        W96253  38.438  22.710   2.782
34943W        W96254  43.911  24.195   2.668
34944W        W96255  24.647  38.882   2.833
34945W        W96256   0.480  39.489   0.472
34946W        W96257   6.798  39.478   2.829
34947W        W96258  13.730  30.047   0.376
34948W        W96259  31.457  19.578   3.155
34949W        W96260  13.631  39.546   0.459
34950W        W96261   7.702  31.494  12.491
34951W        W96262  32.480  44.353   2.187
34952W        W96263  38.856  17.637  10.476
34953W        W96264  26.487  16.689   4.185
34954W        W96265  17.178  34.927  14.465
34955W        W96266  24.494   3.391   2.270
34956W        W96267   0.433   2.734   3.708
34957W        W96268  32.623  19.595   4.306
34958W        W96269  23.007  22.102  12.949
34959W        W96270  17.274  29.554  10.446
34960W        W96271  18.114  11.301   4.662
34961W        W96272  12.842  15.755   0.817
34962W        W96273  27.580  39.486  11.046
34963W        W96274  19.174   3.329   1.242
34964W        W96275  19.135  24.020  14.839
34965W        W96276   7.830   3.929  11.087
34966W        W96277  21.051  32.013  14.842
34967W        W96278  31.560  28.560   4.679
34968W        W96279  39.412  17.595  12.543
34969W        W96280  19.534  35.506   2.198
34970W        W96281  19.234  14.654   0.964
34971W        W96282  41.410  12.837  10.441
34972W        W96283   2.378  17.064   3.717
34973W        W96284  19.120  41.293   3.261
34974W        W96285  37.388   5.787  11.124
34975W        W96286  31.491  35.966   0.371
34976W        W96287   6.812  10.203  13.350
34977W        W96288  24.670  29.121   0.768
34978W        W96289  10.160  36.549   2.692
34979W        W96290  38.974  19.048   3.196
34980W        W96291   1.388  36.847  12.391
34981W        W96292  14.705  12.786   0.396
34982W        W96293  16.709   6.821  14.800
34983W        W96294  11.296  20.582   4.231
34984W        W96295   7.891  22.999   1.336
34985W        W96296  37.057  36.025  10.491
34986W        W96297  23.195  20.096   3.157
34987W        W96298  30.100  15.587   4.819
34988W        W96299  44.318  11.674   1.332
34989W        W96300   5.760  21.695   4.142
34990W        W96301  17.146  23.664  14.509
34991W        W96302  27.641  26.510   1.293
34992W        W96303  13.275  10.310  13.879
34993W        W96304  40.871  22.675   2.671
34994W        W96305  43.891  39.889   2.816
34995W        W96306  38.362  36.031  12.481
34996W        W96307   3.389  37.562  14.299
34997W        W96308  44.947  12.258   0.739
34998W        W96309  13.296  16.170   4.708
34999W        W96310  44.354  24.064  14.399
35000W        W96311  15.313  39.508   0.256
35001W        W96312  21.631  17.588  12.046
35002W        W96313  39.035   2.258  10.996
35003W        W96314  18.284  39.004  11.120
35004W        W96315  31.959  30.558   2.395
35005W        W96316   7.374  25.193   2.902
35006W        W96317  10.378  33.057   1.799
35007W        W96318  26.965  34.455  13.897
35008W        W96319   4.807   8.227  13.885
35009W        W96320  42.495  14.204   2.681
35010W        W96321  17.706   8.395  13.351
35011W        W96322  30.934   6.210   0.380
35012W        W96323  43.478  25.550  12.367
35013W        W96324  43.910   0.928   1.316
35014W        W96325  38.906  34.004  14.975
35015W        W96326  11.667  36.983   4.649
35016W        W96327  33.129  19.276   0.906
35017W        W96328  27.683  28.602  14.345
35018W        W96329  23.525  31.976   2.684
35019W        W96330  44.483  19.115  13.986
35020W        W96331  30.109  39.998   2.191
35021W        W96332   0.407  41.874   1.768
35022W        W96333  27.606  43.845   4.765
35023W        W96334  20.683  25.121   1.381
35024W        W96335  33.046  25.705   1.272
35025W        W96336  13.331  13.287  12.093
35026W        W96337  26.589  20.669  14.784
35027W        W96338  23.680  25.030  12.379
35028W        W96339   8.758   5.723  13.514
35029W        W96340  22.501  31.074   3.300
35030W        W96341  18.729   3.285  12.910
35031W        W96342  31.144  44.320   1.296
35032W        W96343   3.813   6.716  13.058
35033W        W96344  16.718  29.074  11.558
35034W        W96345  21.257   1.772   3.327
35035W        W96346  38.525  25.097   3.272
35036W        W96347   7.722  26.093   4.189
35037W        W96348  37.512  39.540   2.665
35038W        W96349  14.254  35.930   3.347
35039W        W96350  11.318   6.383  11.540
35040W        W96351  42.814  40.827   1.337
35041W        W96352  41.469   5.690   1.298
35042W        W96353   2.227  33.901   3.638
35043W        W96354  17.148  30.045  14.836
35044W        W96355  28.175  31.936   4.822
35045W        W96356  44.996  38.529  14.491
35046W        W96357  16.712   1.731   0.860
35047W        W96358  14.784  11.266   4.247
35048W        W96359  29.614  11.147  14.831
35049W        W96360  23.052  34.941   3.823
35050W        W96361  35.892  43.366   2.747
35051W        W96362   8.716  41.387   1.421
35052W        W96363   1.300   9.192   4.135
35053W        W96364  33.884   1.402  10.523
35054W        W96365   9.743   8.228  14.416
35055W        W96366   3.321  41.394  12.350
35056W        W96367  43.817  16.241  10.442
35057W        W96368   0.940  11.707   1.781
35058W        W96369  36.528  34.496  14.908
35059W        W96370  18.112   2.761  13.959
35060W        W96371  22.581  43.284   3.214
35061W        W96372  27.131  43.514  11.538
35062W        W96373  11.649  26.186  14.411
35063W        W96374  20.683  16.730   3.816
35064W        W96375   6.838  43.357  12.428
35065W        W96376   0.805   7.312   5.137
35066W        W96377  26.698  34.877   1.372
35067W        W96378  26.651  33.546   4.199
35068W        W96379  17.635  24.192   9.673
35069W        W96380  25.127   7.259   0.255
35070W        W96381   7.681   3.888  10.454
35071W        W96382  27.621   8.900   3.146
35072W        W96383  40.488  18.287  13.881
35073W        W96384   8.170  41.463  11.573
35074W        W96385  25.159   4.403  13.833
35075W        W96386  23.028   7.741   4.706
35076W        W96387   5.283  13.843   3.355
35077W        W96388   1.848   1.831   4.190
35078W        W96389  13.738   3.714   4.259
35079W        W96390  10.241  38.394  12.876
35080W        W96391  43.973  16.132   0.874
35081W        W96392  41.837  24.629   1.404
35082W        W96393  18.604  40.463   4.650
35083W        W96394  25.154   3.930  11.574
35084W        W96395  13.230  33.447   3.177
35085W        W96396  41.377  17.710   4.622
35086W        W96397  42.852  40.456  13.445
35087W        W96398  35.395  24.973  13.379
35088W        W96399  16.771  38.843   0.822
35089W        W96400  19.703   0.903   1.784
35090W        W96401  12.247  38.551   4.648
35091W        W96402  10.317  30.965  10.990
35092W        W96403   6.784  44.353  14.944
35093W        W96404  34.108  22.008  12.557
35094W        W96405   6.269   2.323  13.795
35095W        W96406  41.936  40.547   0.261
35096W        W96407  28.121   0.796  11.929
35097W        W96408  19.585  27.622  12.560
35098W        W96409  11.193   6.354  11.002
35099W        W96410  37.504  33.907   1.241
35100W        W96411  22.585  21.113  10.637
35101W        W96412   8.708  36.932   1.700
35102W        W96413  37.084  16.218   3.292
35103W        W96414  34.984   6.201   4.794
35104W        W96415  28.942  31.138   4.130
35105W        W96416  34.998  18.578  12.045
35106W        W96417  22.702   3.745  13.841
35107W        W96418  28.562  17.152  10.895
35108W        W96419  38.987  35.017  12.358
35109W        W96420  27.632   8.687   2.762
35110W        W96421  33.445  44.356  11.901
35111W        W96422  24.528  39.886   1.842
35112W        W96423  29.131  24.181  11.064
35113W        W96424   3.793  13.617   4.137
35114W        W96425   7.401  24.070   2.367
35115W        W96426  17.224  39.928  10.921
35116W        W96427  20.197   4.816  14.295
35117W        W96428  10.251  33.909  10.481
35118W        W96429  31.484  37.859   2.312
35119W        W96430  28.159  12.745   1.770
35120W        W96431   7.849  10.219   1.817
35121W        W96432  29.465  25.123  12.339
35122W        W96433  22.071  11.831  11.910
35123W        W96434   7.865   1.836   2.283
35124W        W96435  16.629  20.690  11.908
35125W        W96436   0.798  26.952   2.350
35126W        W96437  42.305  38.373   0.877
35127W        W96438  25.593  20.208  11.378
35128W        W96439  34.985  32.587  11.020
35129W        W96440  30.473  31.606   4.256
35130W        W96441   4.353  26.177   2.388
35131W        W96442  11.222  10.305  14.450
35132W        W96443  13.760  36.019  14.375
35133W        W96444  42.443  35.928  14.355
35134W        W96445  12.226  14.690   1.337
35135W        W96446  41.902  38.958   0.905
35136W        W96447   3.796  31.600  13.514
35137W        W96448  18.639  38.518  12.500
35138W        W96449  41.786  10.365   2.778
35139W        W96450  10.265   9.210  10.476
35140W        W96451  32.984  37.904  14.011
35141W        W96452  16.610  32.907  12.065
35142W        W96453  37.491  26.634  10.538
35143W        W96454  41.450  42.916   3.792
35144W        W96455  14.248   5.418  12.528
35145W        W96456   0.866   0.273  11.977
35146W        W96457  22.146  44.463   1.266
35147W        W96458   6.709  39.393   0.914
35148W        W96459  27.572   7.254  12.043
35149W        W96460   4.750  14.775  11.504
35150W        W96461  44.932  12.275   4.339
35151W        W96462  24.151  17.660  12.550
35152W        W96463   1.412  35.586  11.568
35153W        W96464  25.648  20.181   5.193
35154W        W96465  29.442  10.835  14.286
35155W        W96466  25.481  18.090   3.250
35156W        W96467  34.925  35.403   4.315
35157W        W96468   3.367  43.015  12.835
35158W        W96469   2.803  14.789  11.532
35159W        W96470  28.551  37.480  12.920
35160W        W96471  25.155  25.064   1.435
35161W        W96472  15.237   4.850   3.676
35162W        W96473  13.661  26.612   0.841
35163W        W96474  10.275   0.908   1.795
35164W        W96475  13.792   5.378  11.078
35165W        W96476  40.017  28.477   2.254
35166W        W96477  29.996  17.122  13.430
35167W        W96478  19.753  31.952   0.744
35168W        W96479  19.710  21.739   3.356
35169W        W96480  19.744  43.876  13.447
35170W        W96481  42.938  42.796   1.861
35171W        W96482  17.690  20.098   2.335
35172W        W96483   9.345  12.726  14.282
35173W        W96484  42.463   5.699  13.938
35174W        W96485  40.843  18.571  12.501
35175W        W96486  33.419  27.959  13.315
35176W        W96487   9.276  31.409   4.690
35177W        W96488  34.577  13.120   0.397
35178W        W96489  40.467  30.979   4.712
35179W        W96490  24.525  11.726   3.246
35180W        W96491   1.864   9.214  11.594
35181W        W96492   8.326  19.649  13.496
35182W        W96493  44.320   2.462   3.750
35183W        W96494  16.089  22.124  10.442
35184W        W96495   7.746   1.382  13.965
35185W        W96496  37.995  11.681   1.358
35186W        W96497  33.547  11.313   1.718
35187W        W96498   3.442   3.279   5.224
35188W        W96499  35.055   1.873   3.264
35189W        W96500  27.691  24.163  12.046
35190W        W96501   6.845   3.226   0.890
35191W        W96502  35.412  20.713   4.121
35192W        W96503  36.367  39.953  13.900
35193W        W96504  27.574  36.857   2.757
35194W        W96505  18.634   0.296   2.340
35195W        W96506  31.498  10.773  13.479
35196W        W96507  38.863  13.834   9.964
35197W        W96508  39.876  34.091  12.415
35198W        W96509  29.107  23.508   4.836
35199W        W96510  38.869  43.957  14.786
35200W        W96511  36.974  21.715   4.266
35201W        W96512  25.530  36.373  11.859
35202W        W96513  22.191  30.044   2.697
35203W        W96514  26.962   5.724  14.455
35204W        W96515  28.084  19.724  12.480
35205W        W96516  10.218  40.871   5.170
35206W        W96517  15.792  30.963  13.998
35207W        W96518   3.299  17.141   4.687
35208W        W96519  15.737  22.681  10.627
35209W        W96520  43.494  31.914   4.750
35210W        W96521  44.935  40.478  11.095
35211W        W96522  29.602  26.157  14.322
35212W        W96523   4.375  25.655   2.679
35213W        W96524  43.393  11.698   0.316
35214W        W96525  19.076   3.297   3.716
35215W        W96526  25.633  40.531  11.930
35216W        W96527  11.345  13.724   0.820
35217W        W96528  19.222  11.837   4.198
35218W        W96529  10.702  40.464  11.869
35219W        W96530   1.759  35.370  10.943
35220W        W96531  44.414  18.277  11.878
35221W        W96532  42.417  28.105   4.270
35222W        W96533  20.644   5.839  11.922
35223W        W96534  42.860  30.639  13.443
35224W        W96535  34.600  11.815   4.252
35225W        W96536  25.055  18.097  11.070
35226W        W96537  40.800  18.192   2.233
35227W        W96538  43.903  18.203   0.802
35228W        W96539  25.604  25.695   0.303
35229W        W96540  19.751  11.745   3.384
35230W        W96541  23.509  23.060   2.400
35231W        W96542  43.279  18.169  11.935
35232W        W96543  29.134  37.017   2.771
35233W        W96544  23.721  24.044   0.926
35234W        W96545   0.494  38.055  11.395
35235W        W96546  26.035  15.123  11.090
35236W        W96547  39.530  39.064  12.427
35237W        W96548  20.178  20.715  12.896
35238W        W96549  13.227  37.400   1.700
35239W        W96550  18.179  39.510  14.869
35240W        W96551  15.083   8.673   2.722
35241W        W96552   6.372  20.693  13.952
35242W        W96553  44.334  27.555   2.677
35243W        W96554   2.317  29.097  14.336
35244W        W96555  43.476   8.894   4.247
35245W        W96556  33.598  14.280   2.713
35246W        W96557  18.239  23.998   2.205
35247W        W96558  22.580  43.795  14.858
35248W        W96559  15.310  26.526   4.212
35249W        W96560   3.276  13.186  12.826
35250W        W96561  44.461  34.390   1.277
35251W        W96562  32.628   4.433  13.841
35252W        W96563   3.321  37.452  11.610
35253W        W96564   9.664   9.235   2.880
35254W        W96565  29.139  39.048  14.793
35255W        W96566  15.106  38.018  11.032
35256W        W96567  33.891  16.176  12.987
35257W        W96568  31.474   4.391   2.188
35258W        W96569  34.569  12.703   1.750
35259W        W96570   8.883  39.033   2.365
35260W        W96571  23.159  38.832  13.872
35261W        W96572   6.425  35.490  10.601
35262W        W96573  26.573  31.117   1.900
35263W        W96574  19.601   2.391   2.725
35264W        W96575  27.076  35.886   3.658
35265W        W96576  33.901  37.048   4.144
35266W        W96577  18.154  25.593  10.043
35267W        W96578   1.964  32.420   3.678
35268W        W96579   6.284  26.682   9.994
35269W        W96580  17.607  25.975   1.827
35270W        W96581   2.932   9.885  11.395
35271W        W96582  10.711  40.342  11.410
35272W        W96583   2.939  38.997  14.886
35273W        W96584  43.008  22.211   1.351
35274W        W96585  31.006  22.194  13.508
35275W        W96586   3.910   5.278  12.075
35276W        W96587  28.465  14.120   2.248
35277W        W96588  12.796  42.825  11.982
35278W        W96589   7.840  28.053  13.048
35279W        W96590  28.023  19.713  10.152
35280W        W96591  30.521  39.397   4.783
35281W        W96592  28.097  38.899   5.272
35282W        W96593  30.641   0.801   1.280
35283W        W96594  25.684   3.283  12.386
35284W        W96595  22.032   1.852   4.193
35285W        W96596  36.047  29.523  11.001
35286W        W96597  39.405  18.707  10.528
35287W        W96598  20.116  35.894  12.899
35288W        W96599  42.910  24.004  14.971
35289W        W96600  16.703  25.507   0.874
35290W        W96601  31.911   5.425   3.184
35291W        W96602  36.906   9.241   1.933
35292W        W96603  26.527  24.626   1.800
35293W        W96604  35.988  19.246   0.817
35294W        W96605  21.709  38.386   1.436
35295W        W96606  13.193  16.692  12.459
35296W        W96607   6.396  15.200   9.587
35297W        W96608   9.355  33.890  12.903
35298W        W96609   1.347   3.271   4.628
35299W        W96610  14.193  21.141  11.976
35300W        W96611  35.985  30.910   0.736
35301W        W96612  19.042  21.668  11.932
35302W        W96613  23.045  44.410   4.741
35303W        W96614   6.782  11.765   4.721
35304W        W96615  27.961  28.561  11.385
35305W        W96616  18.553  20.031  14.997
35306W        W96617  35.922  27.003  12.575
35307W        W96618  21.100  10.822   4.125
35308W        W96619  42.313  40.027  11.942
35309W        W96620  22.148  40.869   5.721
35310W        W96621  20.524  23.225  14.814
35311W        W96622  20.524  14.300   2.775
35312W        W96623  43.364  38.904   2.336
35313W        W96624  38.462  36.493   0.350
35314W        W96625   5.366  15.145   1.829
35315W        W96626  29.655  30.524   3.304
35316W        W96627   0.847  38.902   5.242
35317W        W96628  15.135  29.589   2.364
35318W        W96629  26.507   1.741   4.763
35319W        W96630  17.593  38.856   2.675
35320W        W96631   0.864  17.769   4.808
35321W        W96632  23.042  36.001   2.373
35322W        W96633  33.391  31.565   0.790
35323W        W96634   2.446   1.462   2.746
35324W        W96635  21.054  25.185  14.304
35325W        W96636  43.480   4.737   3.796
35326W        W96637  40.967   8.368   0.754
35327W        W96638  17.242  27.078  12.038
35328W        W96639  23.120  39.065  12.524
35329W        W96640  38.961  44.781  14.384
35330W        W96641  10.224   0.360   1.718
35331W        W96642  24.995  16.636  12.016
35332W        W96643  16.576  26.573  10.901
35333W        W96644  21.690  18.675   2.707
35334W        W96645  41.477   6.859  14.759
35335W        W96646   0.385  12.210   2.209
35336W        W96647   9.889  17.636  13.512
35337W        W96648  38.032  43.989   4.816
35338W        W96649  36.974   4.417  13.356
35339W        W96650   9.786  16.292   3.207
35340W        W96651  28.090  31.936  10.934
35341W        W96652  28.990  21.576   4.178
35342W        W96653  23.699  35.543  13.996
35343W        W96654  20.588   1.914  10.408
35344W        W96655  21.234  27.523  11.490
35345W        W96656  18.778  30.644  11.878
35346W        W96657   3.781  42.021  11.989
35347W        W96658  10.748   7.415  13.380
35348W        W96659  20.526  39.049  13.331
35349W        W96660  39.419  32.628  11.395
35350W        W96661  43.294  37.553   9.921
35351W        W96662  15.241  38.555  11.070
35352W        W96663  43.880  32.930   2.832
35353W        W96664  34.065  38.936   1.926
35354W        W96665  41.831   0.350   1.715
35355W        W96666  32.574   4.440  12.388
35356W        W96667  25.688  27.991   1.387
35357W        W96668  16.774   5.819  10.929
35358W        W96669  27.561  27.458  13.811
35359W        W96670  36.944  44.477  14.446
35360W        W96671  30.122   1.323   3.384
35361W        W96672   6.790  14.670   0.947
35362W        W96673  21.084   1.341  12.479
35363W        W96674  11.640  20.190  14.893
35364W        W96675  36.480   7.339   0.342
35365W        W96676  43.829   2.880   2.747
35366W        W96677  36.862  21.143   3.355
35367W        W96678   1.376   4.711   4.161
35368W        W96679   7.295   6.286  10.515
35369W        W96680  34.508  44.403   3.335
35370W        W96681   0.807   8.789   4.795
35371W        W96682   1.338  20.272  14.492
35372W        W96683  39.483   4.247   4.218
35373W        W96684  30.932  14.689  14.843
35374W        W96685  36.947  41.820  14.916
35375W        W96686  23.118  34.972  13.917
35376W        W96687  25.021  39.511  14.328
35377W        W96688   4.699  30.444  10.001
35378W        W96689   8.656  26.593  12.493
35379W        W96690  12.129   3.832   0.727
35380W        W96691  29.493  35.018  14.398
35381W        W96692  20.639   6.725   2.214
35382W        W96693  15.188  13.652  10.955
35383W        W96694  40.813   7.261   0.838
35384W        W96695  10.806   8.327   3.242
35385W        W96696  18.092  24.629  11.857
35386W        W96697  16.120  44.909  13.997
35387W        W96698  24.714   9.674   1.727
35388W        W96699  36.439  42.978  12.445
35389W        W96700  12.855  19.584  14.403
35390W        W96701  23.602  13.232   2.689
35391W        W96702  22.528  35.090   3.808
35392W        W96703   1.799  31.472   3.365
35393W        W96704  17.191  29.100  13.489
35394W        W96705  26.064  42.863   2.862
35395W        W96706  22.574  29.157  14.997
35396W        W96707  38.895  43.453  14.374
35397W        W96708  28.164  31.591   2.696
35398W        W96709  17.087  39.040   3.374
35399W        W96710  14.660  20.559  14.923
35400W        W96711  10.813  15.786   2.749
35401W        W96712  35.864  35.385  12.914
35402W        W96713  25.014  13.620   3.326
35403W        W96714   0.414  42.448  14.931
35404W        W96715  19.206  35.552   0.419
35405W        W96716  12.780  33.119  13.509
35406W        W96717  42.472   3.906  11.589
35407W        W96718  22.543  33.527   1.855
35408W        W96719  26.608   6.711   5.271
35409W        W96720  40.930  22.129   3.155
35410W        W96721  30.079  37.028  13.974
35411W        W96722  16.084   4.943   1.896
35412W        W96723  43.284  42.282  13.424
35413W        W96724  24.574   9.744  12.447
35414W        W96725  25.155  14.277   2.203
35415W        W96726  37.488   8.718  11.079
35416W        W96727  18.092  41.494  11.450
35417W        W96728   6.779  34.405  12.572
35418W        W96729  39.044  12.338  13.910
35419W        W96730  34.922   0.917  13.847
35420W        W96731  25.155  42.851  11.593
35421W        W96732  28.563  11.315   2.778
35422W        W96733   4.717  23.024  14.348
35423W        W96734  27.689  42.972   3.375
35424W        W96735   1.411   7.734   1.431
35425W        W96736  18.661  25.212   2.724
35426W        W96737  31.129  22.224  10.600
35427W        W96738  29.032  42.783   0.757
35428W        W96739   9.858  19.224  14.381
35429W        W96740  21.641  13.170   2.341
35430W        W96741  27.570  28.054   4.121
35431W        W96742  35.013  27.483   0.769
35432W        W96743  11.264   2.371  13.909
35433W        W96744  36.433  15.583   0.951
35434W        W96745  42.875  44.913   1.448
35435W        W96746   8.185  16.646  12.035
35436W        W96747   3.838  42.926  11.930
35437W        W96748  20.646  25.640   0.261
35438W        W96749   7.808  29.588  11.529
35439W        W96750   4.776   9.811   3.375
35440W        W96751  22.225   8.255   1.399
35441W        W96752  28.023  32.564  11.088
35442W        W96753   6.342  13.650  10.461
35443W        W96754  43.279  35.088   1.277
35444W        W96755   7.273  17.297   1.837
35445W        W96756   9.689   5.820   1.284
35446W        W96757   0.435  23.214   0.748
35447W        W96758  33.912  31.991  12.070
35448W        W96759   1.941   7.857   3.316
35449W        W96760  25.594   3.339   2.833
35450W        W96761   6.221   8.748  11.438
35451W        W96762  23.185   1.803  12.969
35452W        W96763  23.619   9.294   3.260
35453W        W96764   0.248  41.939  11.393
35454W        W96765  18.598  35.053  11.423
35455W        W96766  31.010   0.423  11.597
35456W        W96767   9.726  37.854  11.552
35457W        W96768  31.914  44.339  12.964
35458W        W96769   7.323  35.364  14.914
35459W        W96770  20.657  36.864   0.866
35460W        W96771  32.008  32.059   5.109
35461W        W96772  38.341  41.028  14.929
35462W        W96773   9.840  35.957  14.962
35463W        W96774  36.923  41.841   2.226
35464W        W96775  41.362  27.522   2.197
35465W        W96776  41.904  22.627   5.102
35466W        W96777  30.524   7.855  10.643
35467W        W96778  12.831  41.988   3.811
35468W        W96779   9.675  32.589  10.589
35469W        W96780  44.905  12.758  13.050
35470W        W96781  35.464  35.361   0.361
35471W        W96782  38.064   1.257  10.619
35472W        W96783  26.676  11.664  12.384
35473W        W96784  13.626  41.021  11.032
35474W        W96785  40.435   0.972  10.957
35475W        W96786  26.688  15.763   5.242
35476W        W96787   6.739   3.454   3.673
35477W        W96788  16.073  10.762  10.485
35478W        W96789  29.460   5.304  12.903
35479W        W96790  30.492  26.470  14.371
35480W        W96791   3.868  20.176   3.295
35481W        W96792  40.472  43.284   3.173
35482W        W96793  16.583  14.129  14.359
35483W        W96794  36.982   4.364  11.895
35484W        W96795  16.131  35.911  11.401
35485W        W96796  43.769   3.428  12.450
35486W        W96797  19.636  22.010  13.904
35487W        W96798  12.737  22.727   4.159
35488W        W96799  28.523   6.268  12.343
35489W        W96800  28.648  21.120  13.362
35490W        W96801  44.955   2.918   1.908
35491W        W96802  11.733  40.322   2.416
35492W        W96803  16.754  13.764  14.285
35493W        W96804   1.872   5.734   1.280
35494W        W96805   6.193  35.399   3.253
35495W        W96806  31.475  13.239  11.612
35496W        W96807  42.833  35.083   0.832
35497W        W96808  13.652  20.577  13.886
35498W        W96809  13.266  18.607  12.383
35499W        W96810  41.297  19.672  12.933
35500W        W96811  25.098  10.878   0.754
35501W        W96812  18.733   6.826   1.759
35502W        W96813  20.604   3.460  11.371
35503W        W96814  30.506  18.278   3.691
35504W        W96815  34.933  31.463   5.232
35505W        W96816  17.600  16.193   3.789
35506W        W96817  30.099  25.997   0.904
35507W        W96818  30.564  39.847   3.859
35508W        W96819  17.630   2.385   1.417
35509W        W96820   2.468  20.651  10.571
35510W        W96821  19.537  29.452   0.877
35511W        W96822  33.084   0.429   3.748
35512W        W96823  17.778  29.501  14.980
35513W        W96824   9.866   0.434  11.456
35514W        W96825  10.214   2.356   1.411
35515W        W96826  15.670  10.228   2.794
35516W        W96827  40.549  19.215   3.163
35517W        W96828  33.005   3.253   2.414
35518W        W96829  15.257  20.208  14.321
35519W        W96830  10.655  34.039   2.700
35520W        W96831   1.470  19.177   0.875
35521W        W96832  18.573  10.181   0.306
35522W        W96833  31.085  19.162  14.958
35523W        W96834  33.989  16.661   3.192
35524W        W96835  34.450   2.249   0.878
35525W        W96836  32.957  38.469   0.832
35526W        W96837  15.207  40.378  12.449
35527W        W96838   1.267   1.912   4.119
35528W        W96839  30.498  10.258  14.816
35529W        W96840   0.384  36.975   3.175
35530W        W96841  36.464  39.913  12.410
35531W        W96842   2.749   3.914  13.020
35532W        W96843   7.748  42.426   3.814
35533W        W96844   3.367  24.168   2.331
35534W        W96845  27.679  33.882   2.189
35535W        W96846  26.060  16.713  12.471
35536W        W96847  29.937  16.571  14.865
35537W        W96848  11.353  44.287  13.508
35538W        W96849   0.365  37.521  11.875
35539W        W96850  37.497   3.461  14.853
35540W        W96851  24.624  23.142  13.443
35541W        W96852  24.038  41.963   2.701
35542W        W96853  20.588  19.061   0.277
35543W        W96854  22.114  36.997  10.591
35544W        W96855  28.671   8.831  13.403
35545W        W96856  20.148  19.202  11.864
35546W        W96857  15.313  14.246   2.215
35547W        W96858  38.902  33.459  11.017
35548W        W96859  14.781  13.145   0.953
35549W        W96860   7.732  30.427   3.769
35550W        W96861  30.978  19.656   4.686
35551W        W96862  14.192   6.779  11.506
35552W        W96863  17.782  23.512   9.454
35553W        W96864  16.599  16.687   4.320
35554W        W96865  18.263  22.672   0.940
35555W        W96866  35.853  26.131  10.577
35556W        W96867  38.903   9.151   4.237
35557W        W96868  17.751   4.242   5.134
35558W        W96869  17.061   1.455   2.863
35559W        W96870  39.866  19.591  11.027
35560W        W96871  29.612  32.032   3.796
35561W        W96872  17.591  12.811  10.138
35562W        W96873  21.255   9.880  13.342
35563W        W96874  38.352   1.796   4.277
35564W        W96875  22.522   0.391   3.837
35565W        W96876  11.214  28.658  11.012
35566W        W96877   1.274  24.001   3.698
35567W        W96878  22.085   1.795   1.784
35568W        W96879  20.741  44.877  10.965
35569W        W96880  42.491  43.495  14.768
35570W        W96881  18.097   0.864   4.672
35571W        W96882  43.341  24.978  13.447
35572W        W96883  12.647  13.714   3.782
35573W        W96884  21.605   9.150  14.346
35574W        W96885  44.480  28.108   1.786
35575W        W96886  11.799  21.748  14.881
35576W        W96887  11.625  15.665  14.780
35577W        W96888  10.675  42.981  11.444
35578W        W96889   0.432  18.265  10.621
35579W        W96890   4.736  31.441  11.441
35580W        W96891   1.737  43.363  12.824
35581W        W96892  22.026  20.705   0.860
35582W        W96893  44.444   1.305   2.865
35583W        W96894  37.049  14.117  14.275
35584W        W96895  25.028   5.262   1.419
35585W        W96896   9.724   5.240   0.832
35586W        W96897  35.925  28.032   0.942
35587W        W96898  18.108  37.355   4.603
35588W        W96899  41.906   0.927  12.513
35589W        W96900  37.457  20.082  14.011
35590W        W96901  32.587  42.349  11.022
35591W        W96902  26.650   9.884   3.693
35592W        W96903  33.388  26.008  13.410
35593W        W96904  26.487  25.695  14.348
35594W        W96905  13.733  40.030  10.492
35595W        W96906   5.782  34.601  14.964
35596W        W96907  19.166  15.202  10.103
35597W        W96908   5.381  40.397   4.354
35598W        W96909   8.697   2.795   4.290
35599W        W96910  20.596  18.617  12.546
35600W        W96911   3.844  39.810   1.864
35601W        W96912   7.826  22.203  10.461
35602W        W96913  22.611   8.356   0.735
35603W        W96914   5.755   1.933  12.008
35604W        W96915  11.348  38.057   0.840
35605W        W96916   2.338  27.111   2.276
35606W        W96917  21.651  15.723  11.096
35607W        W96918  23.527  18.756   2.415
35608W        W96919  19.777  14.097  12.482
35609W        W96920  22.669  24.610   1.807
35610W        W96921   8.880   0.265  14.391
35611W        W96922  26.200  13.124   3.809
35612W        W96923  18.580  29.656  14.841
35613W        W96924  32.547  18.122   0.754
35614W        W96925  18.113  36.569  12.544
35615W        W96926   5.202  25.617  11.451
35616W        W96927   9.879  11.185   4.156
35617W        W96928   7.222   9.887   1.917
35618W        W96929  44.825   9.282  13.907
35619W        W96930  14.618  23.148  13.342
35620W        W96931  29.939  30.161   0.734
35621W        W96932  39.433  16.746  11.913
35622W        W96933  43.791  31.082  11.088
35623W        W96934  16.255  13.168   3.169
35624W        W96935   5.352  36.989  14.368
35625W        W96936  34.416  43.493  11.532
35626W        W96937   6.717  10.851  13.811
35627W        W96938  25.480  24.504   0.865
35628W        W96939  28.503  43.479  11.476
35629W        W96940  17.688  19.171  11.513
35630W        W96941  24.036   9.214   2.797
35631W        W96942  44.425  14.639   0.860
35632W        W96943  12.171  28.149  14.379
35633W        W96944  19.057  23.718   3.246
35634W        W96945  14.141  44.386   2.361
35635W        W96946  33.945  29.529   3.660
35636W        W96947   3.323  30.023  10.619
35637W        W96948  40.470  11.856  12.429
35638W        W96949  20.709  38.006   2.185
35639W        W96950   4.818   4.712   0.303
35640W        W96951  18.288  24.178  13.432
35641W        W96952  15.687  21.212  14.292
35642W        W96953  22.222  40.929  14.333
35643W        W96954  14.242  12.282  11.540
35644W        W96955  10.878   3.353   1.909
35645W        W96956  33.579  10.243   0.928
35646W        W96957  12.740   4.437   2.370
35647W        W96958  14.779   8.345   0.391
35648W        W96959  32.415  17.213   1.701
35649W        W96960  30.016   0.915   3.781
35650W        W96961  31.473  41.326   2.875
35651W        W96962   6.718  44.955   2.853
35652W        W96963  43.862  14.750  12.359
35653W        W96964   6.249  19.576   4.688
35654W        W96965  30.994  39.445  12.534
35655W        W96966  41.937   5.797   0.344
35656W        W96967  30.429  33.597   0.412
35657W        W96968   4.907  37.931  13.046
35658W        W96969  38.474  24.048   4.134
35659W        W96970   2.901  44.486   4.230
35660W        W96971  31.428  40.514   4.291
35661W        W96972  25.670   2.397   4.689
35662W        W96973  16.664   5.287  12.051
35663W        W96974  27.535  14.663   3.797
35664W        W96975   0.351  37.382   3.258
35665W        W96976  13.709   6.798   4.175
35666W        W96977  13.136   3.343  11.559
35667W        W96978  22.046   9.653   3.866
35668W        W96979   1.404  35.019  13.052
35669W        W96980   1.922  41.921  14.900
35670W        W96981   4.371   4.731   3.800
35671W        W96982   7.696  21.632   2.208
35672W        W96983  41.877  20.246  14.297
35673W        W96984  32.980   9.152  14.402
35674W        W96985  41.356   9.871  10.413
35675W        W96986  26.623  29.538   5.119
35676W        W96987  18.209  14.094  12.900
35677W        W96988  31.022  34.474  11.480
35678W        W96989  21.629  21.245  13.988
35679W        W96990  43.491  33.017   0.417
35680W        W96991  10.165  21.638   3.809
35681W        W96992  22.203  21.638   4.300
35682W        W96993   6.888  27.194   1.330
35683W        W96994  38.508  34.430   2.290
35684W        W96995  25.524   1.392   2.397
35685W        W96996  16.209  36.420   2.872
35686W        W96997  26.019  14.289   3.635
35687W        W96998   1.805  17.643  13.463
35688W        W96999   7.676   5.818  10.915
35689W        W97000  16.668  30.530  13.426
35690W        W97001  11.246  32.399   1.351
35691W        W97002  13.260  14.672  13.015
35692W        W97003   4.865  29.140  10.445
35693W        W97004  34.889   9.654  13.324
35694W        W97005  34.869   6.332   2.257
35695W        W97006  11.129  40.844   3.345
35696W        W97007  30.156  22.208  10.638
35697W        W97008   6.405  20.152   0.781
35698W        W97009  17.257   9.886  12.566
35699W        W97010   2.852  13.717   2.689
35700W        W97011  19.183  40.972  13.026
35701W        W97012   1.735  40.491   1.847
35702W        W97013  32.993   7.722   4.193
35703W        W97014  28.580  20.660  13.407
35704W        W97015  41.412  26.070   4.803
35705W        W97016  21.160  36.924  10.544
35706W        W97017  11.258  11.299   0.917
35707W        W97018  43.905  30.137  10.574
35708W        W97019  44.928  43.357  14.398
35709W        W97020  10.833  28.468  10.916
35710W        W97021  33.523  41.469   0.262
35711W        W97022   7.695  12.716  10.406
35712W        W97023  26.501  20.688  14.340
35713W        W97024  42.433  26.501   4.773
35714W        W97025  42.302   0.938  12.859
35715W        W97026  43.879  26.490   3.660
35716W        W97027  16.690  41.342   2.375
35717W        W97028   6.321   5.371  11.547
35718W        W97029  36.521  36.867   3.166
35719W        W97030  25.480  34.109   0.785
35720W        W97031  42.477  20.562  14.930
35721W        W97032  18.679   1.847   1.873
35722W        W97033  36.075  33.488   2.380
35723W        W97034  23.193   3.822  14.392
35724W        W97035  32.969  23.046  14.820
35725W        W97036  18.640  43.309  11.431
35726W        W97037   0.812  14.698   3.314
35727W        W97038  44.326   6.254  14.342
35728W        W97039  34.388  31.488   4.241
35729W        W97040  29.489  37.499  14.350
35730W        W97041  42.367  34.508   3.739
35731W        W97042  28.128  27.473  13.885
35732W        W97043  31.001   6.724  10.943
35733W        W97044   3.376   8.172   2.687
35734W        W97045  36.519  16.175  10.579
35735W        W97046  12.767  23.237  13.793
35736W        W97047  27.558  41.328   3.227
35737W        W97048  10.164  20.664   1.925
35738W        W97049  42.371   5.399  13.796
35739W        W97050  43.769  19.591   2.264
35740W        W97051  25.125  10.652   2.779
35741W        W97052  31.454  15.599  13.509
35742W        W97053  42.938  23.225   3.337
35743W        W97054   3.454  11.786   3.349
35744W        W97055  24.087  42.524   2.242
35745W        W97056  31.137   6.208  14.361
35746W        W97057  28.941  20.117   4.828
35747W        W97058  22.542  22.155   3.717
35748W        W97059  13.328  19.634   1.725
35749W        W97060  31.083  44.503  14.894
35750W        W97061  11.364  23.095  11.109
35751W        W97062   9.659  19.102   2.328
35752W        W97063  30.440  18.664  11.542
35753W        W97064   8.897  36.882  10.997
35754W        W97065  31.495   2.300  13.933
35755W        W97066  10.711  31.921  10.505
35756W        W97067  14.610  28.957   5.275
35757W        W97068  28.621  31.526  10.542
35758W        W97069  10.858   7.861   2.315
35759W        W97070  25.091  26.478   1.742
35760W        W97071  17.668  41.505  14.885
35761W        W97072  42.986  17.193  13.317
35762W        W97073  40.379  42.907   4.335
35763W        W97074  14.747  41.813  13.904
35764W        W97075  39.491  10.751   1.409
35765W        W97076  13.810  10.179  13.851
35766W        W97077   8.318   7.352  14.396
35767W        W97078  22.513  12.208  10.934
35768W        W97079  32.101  15.812  14.327
35769W        W97080  40.477   2.357   1.747
35770W        W97081  23.683  43.868  13.941
35771W        W97082   1.424  43.355   2.298
35772W        W97083  29.432  32.885  12.431
35773W        W97084   1.873  12.135   2.378
35774W        W97085  43.421  23.162   1.707
35775W        W97086  43.287  42.030  13.965
35776W        W97087  12.301  15.762  12.862
35777W        W97088  13.773  29.487   3.215
35778W        W97089   0.836   1.338   3.312
35779W        W97090  14.336  17.074   3.370
35780W        W97091  40.851  10.792   4.279
35781W        W97092  41.381  37.995   1.807
35782W        W97093  32.082  20.208  14.781
35783W        W97094  42.296   2.415  13.398
35784W        W97095  18.195  30.041   1.919
35785W        W97096  34.500  26.579  11.510
35786W        W97097  11.198  15.219  14.459
35787W        W97098  31.568  29.971   3.202
35788W        W97099  37.021  10.365   0.277
35789W        W97100  31.550  18.242   3.167
35790W        W97101  16.773   3.288  13.927
35791W        W97102  16.086   8.713   2.341
35792W        W97103   1.822  10.817  14.357
35793W        W97104   6.712  34.408   4.195
35794W        W97105   4.272  25.136  13.543
35795W        W97106  43.308  17.270   3.790
35796W        W97107  38.335  26.497   4.221
35797W        W97108  18.122  25.634  11.571
35798W        W97109  43.315  18.081   2.703
35799W        W97110   6.427  37.562  12.959
35800W        W97111  20.197  22.658  10.117
35801W        W97112  26.472  26.460   2.364
35802W        W97113  18.565   0.454   0.911
35803W        W97114   1.264   0.845   4.606
35804W        W97115  24.613   1.341   0.804
35805W        W97116  24.087  20.768   0.449
35806W        W97117  23.988   3.781  12.988
35807W        W97118  18.256   6.362  13.028
35808W        W97119  41.818  18.688   2.337
35809W        W97120  23.574  11.746   1.239
35810W        W97121  15.183   1.905  13.865
35811W        W97122  16.231  35.055   0.386
35812W        W97123  29.652  15.652   3.844
35813W        W97124  38.955  43.781   1.424
35814W        W97125  30.525  23.022  11.000
35815W        W97126  36.519  43.790   4.611
35816W        W97127  25.624  12.313   0.890
35817W        W97128  33.966  21.156  12.460
35818W        W97129  44.940   3.891  12.544
35819W        W97130   1.955  31.148   0.787
35820W        W97131  26.487  42.836  10.493
35821W        W97132  12.818   0.385  11.545
35822W        W97133  24.486  43.380  13.344
35823W        W97134  29.599  24.640   2.840
35824W        W97135  19.678  44.342  13.332
35825W        W97136  20.139   8.180  12.831
35826W        W97137   8.396  32.000  12.404
35827W        W97138  18.653  33.096   4.149
35828W        W97139  17.211   0.899   3.643
35829W        W97140  43.347  11.670  14.398
35830W        W97141  24.034  23.592  13.991
35831W        W97142   8.685  18.192   1.257
35832W        W97143  25.008  30.539  12.060
35833W        W97144  43.309  43.932   0.870
35834W        W97145  11.633  13.846  13.902
35835W        W97146  10.728   6.238   3.758
35836W        W97147   3.422  15.801  10.995
35837W        W97148  31.558  37.365   3.230
35838W        W97149  24.678   6.739   3.370
35839W        W97150  34.459   9.855   4.128
35840W        W97151  33.042  10.760   0.910
35841W        W97152  30.592  23.197   3.153
35842W        W97153  16.768  14.154   0.838
35843W        W97154  29.595  38.437  11.483
35844W        W97155   1.903   3.450   1.902
35845W        W97156  22.034  10.758  10.463
35846W        W97157  23.722   4.824   2.226
35847W        W97158  15.085  17.629  10.007
35848W        W97159   7.859  40.515   1.858
35849W        W97160  25.484  18.715  12.917
35850W        W97161  34.568   1.888  11.104
35851W        W97162  20.146  28.500  11.583
35852W        W97163  13.202  30.147   3.695
35853W        W97164  26.497  38.567   0.292
35854W        W97165  22.735  12.856  10.471
35855W        W97166  42.889   1.961   4.262
35856W        W97167  39.873  39.532   3.376
35857W        W97168  38.031  12.296  14.881
35858W        W97169  40.335  15.791  10.587
35859W        W97170  27.037  14.822  10.583
35860W        W97171  33.941  27.012  11.974
35861W        W97172  16.290  20.742   3.805
35862W        W97173  28.638  14.809   1.307
35863W        W97174   8.170  14.294  13.399
35864W        W97175   2.916  36.462  12.486
35865W        W97176  22.075   3.225   1.343
35866W        W97177   0.818  29.613  13.975
35867W        W97178  21.027  42.979  12.578
35868W        W97179  22.092  17.730  12.518
35869W        W97180   0.841  32.084  12.974
35870W        W97181  20.071  14.196   2.322
35871W        W97182  17.640  35.907  13.797
35872W        W97183  27.691  28.499  13.812
35873W        W97184  34.983   5.760  13.799
35874W        W97185  15.289  41.495  13.327
35875W        W97186  11.348  15.815   4.268
35876W        W97187  14.778   4.326  11.531
35877W        W97188  30.123  23.064   3.272
35878W        W97189  24.065  42.359  10.516
35879W        W97190  15.107  32.954  13.985
35880W        W97191  38.840  19.716   0.942
35881W        W97192  23.170  41.427  13.838
35882W        W97193   6.347  44.935   2.766
35883W        W97194  35.488  28.618   1.428
35884W        W97195   2.247  39.483  13.043
35885W        W97196  35.500  19.185  10.414
35886W        W97197  27.076   2.403   2.361
35887W        W97198  42.787  21.142  12.468
35888W        W97199  33.505  34.914   4.277
35889W        W97200  36.054  35.083  14.343
35890W        W97201  13.715  25.561   4.675
35891W        W97202  24.106  32.975   0.423
35892W        W97203  38.521  40.847  13.953
35893W        W97204  31.929  27.054  10.633
35894W        W97205  22.035  28.586  13.020
35895W        W97206  41.416  17.245   2.723
35896W        W97207   1.481  32.590   2.885
35897W        W97208  38.456   2.237   4.209
35898W        W97209  40.989   3.360  14.390
35899W        W97210  38.353  44.767   0.811
35900W        W97211  27.487  28.157  10.533
35901W        W97212  15.804  42.452  10.988
35902W        W97213  32.407  14.161  11.092
35903W        W97214  25.621  26.611   2.772
35904W        W97215   6.888  11.805  12.942
35905W        W97216   3.224  28.177   3.793
35906W        W97217  11.239  14.228  12.866
35907W        W97218   8.845  38.912  13.498
35908W        W97219  37.853  34.515  14.283
35909W        W97220   1.372   9.725  13.360
35910W        W97221  42.933  10.331  13.926
35911W        W97222  21.073  14.179   1.759
35912W        W97223  41.799   0.427   3.698
35913W        W97224  33.004   9.822   0.377
35914W        W97225  27.572  26.625   3.830
35915W        W97226  34.408  23.510   0.747
35916W        W97227  23.205   3.878   4.212
35917W        W97228  20.135  43.934   4.674
35918W        W97229  43.846  39.916  10.427
35919W        W97230  12.732  16.678  14.915
35920W        W97231   9.645  19.270   4.260
35921W        W97232  11.230  41.975  11.051
35922W        W97233  33.951  40.439   4.235
35923W        W97234   3.449  12.717   3.239
35924W        W97235   5.391  10.359   0.772
35925W        W97236  43.315  15.228   0.260
35926W        W97237  10.183  23.592  12.347
35927W        W97238   7.837  32.547  13.005
35928W        W97239  20.649   5.750  14.886
35929W        W97240  19.144   4.366   0.337
35930W        W97241  33.007  33.566  12.062
35931W        W97242  26.005  31.529   4.781
35932W        W97243  14.671  20.729  12.984
35933W        W97244  38.981   4.304  12.359
35934W        W97245  38.825   9.364  11.937
35935W        W97246  10.839  37.369   3.763
35936W        W97247   4.205  13.610   0.758
35937W        W97248   9.238   0.816  12.453
35938W        W97249  39.551  19.119  10.571
35939W        W97250  27.103  20.692   0.935
35940W        W97251  16.243   8.272  11.095
35941W        W97252  42.872  38.328  13.811
35942W        W97253  29.508   9.178   3.280
35943W        W97254  32.143  15.115   3.284
35944W        W97255  40.901  26.979   3.293
35945W        W97256  38.856  22.023  12.866
35946W        W97257  21.565  43.411   4.636
35947W        W97258  34.600  39.510  12.392
35948W        W97259  40.538  15.652   1.812
35949W        W97260   2.947   7.192  14.838
35950W        W97261   8.697   2.846  11.569
35951W        W97262   0.360   3.223   3.765
35952W        W97263  42.392  14.703   3.381
35953W        W97264  43.890  27.087   1.766
35954W        W97265  13.774  41.847   3.204
35955W        W97266  39.858   2.799   0.246
35956W        W97267  43.375  16.311  11.516
35957W        W97268  27.587  16.293  11.387
35958W        W97269  12.206  44.430   2.249
35959W        W97270  24.152  15.580  12.944
35960W        W97271  19.594   2.844   3.714
35961W        W97272   9.681  29.014   1.306
35962W        W97273  30.980   5.386   4.253
35963W        W97274  31.941  40.857  13.955
35964W        W97275  28.111  18.083  13.866
35965W        W97276  37.441  43.399   5.101
35966W        W97277   7.676  35.082   2.752
35967W        W97278  39.036  38.497   0.395
35968W        W97279  27.131  14.611  11.961
35969W        W97280   0.810  42.923  14.431
35970W        W97281  15.121  11.675  11.535
35971W        W97282   7.335  25.693  11.383
35972W        W97283  30.159  42.359   3.805
35973W        W97284  35.435   0.911   1.916
35974W        W97285  39.321  11.694  12.425
35975W        W97286  39.359  22.162  13.431
35976W        W97287  38.971  36.077  13.452
35977W        W97288  16.570   9.173   3.686
35978W        W97289  33.088  18.563   4.200
35979W        W97290  40.513   9.327  14.008
35980W        W97291  23.216  29.659   0.264
35981W        W97292   2.373  12.829  14.909
35982W        W97293  35.874  21.512   1.734
35983W        W97294  40.860  15.252   0.432
35984W        W97295  40.028  35.391  10.523
35985W        W97296  27.110  36.053   4.637
35986W        W97297  36.556  34.535  10.501
35987W        W97298   8.881  31.915   2.770
35988W        W97299   0.944  20.043  11.972
35989W        W97300  16.076  26.559   1.315
35990W        W97301  39.369   1.335   3.823
35991W        W97302   5.350   6.874   1.699
35992W        W97303   8.338  17.247  10.020
35993W        W97304  16.185  34.498   2.281
35994W        W97305  24.988   9.772   4.682
35995W        W97306  38.549  43.455   0.795
35996W        W97307  44.386  39.004  11.376
35997W        W97308   9.321  20.238   0.897
35998W        W97309   4.281  17.702   9.969
35999W        W97310   6.729  29.514   3.762
36000W        W97311  13.260  32.902  14.006
36001W        W97312  24.591  39.951  14.826
36002W        W97313  28.093  14.142  12.885
36003W        W97314  44.285  12.319  12.071
36004W        W97315  19.040  19.096   0.917
36005W        W97316  41.905  40.927  13.877
36006W        W97317  42.832  42.805   2.745
36007W        W97318  10.225  39.843   2.843
36008W        W97319  28.594  34.413   0.833
36009W        W97320   9.290  16.713  13.817
36010W        W97321   7.705   8.167   0.801
36011W        W97322  34.376   2.797   2.841
36012W        W97323  21.151  33.491  13.475
36013W        W97324  43.974  21.574  10.913
36014W        W97325  33.926   7.668  11.040
36015W        W97326  29.568  36.430  14.913
36016W        W97327  31.101   2.330  12.965
36017W        W97328  25.568  16.273   1.828
36018W        W97329  41.896  15.775  12.937
36019W        W97330   2.282  14.689  10.966
36020W        W97331  13.796  41.304  14.957
36021W        W97332  33.893  44.810  13.042
36022W        W97333  18.715  19.597  11.490
36023W        W97334   4.401  33.127   1.359
36024W        W97335  38.529  12.618   4.745
36025W        W97336   2.880  15.327  12.935
36026W        W97337  35.432  34.028  12.955
36027W        W97338  30.097  14.324  14.304
36028W        W97339   4.920  31.562  13.383
36029W        W97340  15.611  14.219  12.881
36030W        W97341  27.134  21.586   2.711
36031W        W97342  34.569  39.395   2.269
36032W        W97343   2.463  21.102  10.459
36033W        W97344   4.408  41.819   0.403
36034W        W97345  35.990  37.051  12.465
36035W        W97346  19.135  35.388  10.631
36036W        W97347  27.080  15.243   4.610
36037W        W97348  33.095  24.506  12.458
36038W        W97349   2.259   7.338   1.756
36039W        W97350  34.043  13.643  14.438
36040W        W97351  43.833  44.291  10.128
36041W        W97352  17.246  17.752  12.924
36042W        W97353  15.104  32.440  14.499
36043W        W97354  10.808  13.319  14.804
36044W        W97355   6.236  13.128   0.794
36045W        W97356  10.761  12.677   3.166
36046W        W97357  17.199  41.904  11.881
36047W        W97358  33.437   2.899   3.384
36048W        W97359   9.750  34.063   3.270
36049W        W97360  28.069   2.245  11.060
36050W        W97361  19.110   4.438   2.902
36051W        W97362  43.018   9.312  11.573
36052W        W97363   7.309   7.889   1.392
36053W        W97364  25.093  25.168   4.665
36054W        W97365  43.905   9.365  13.379
36055W        W97366  11.240  24.718   4.694
36056W        W97367  18.739   8.296   0.354
36057W        W97368  26.465   5.805   5.190
36058W        W97369  27.454  22.047  14.481
36059W        W97370   5.437  44.818   2.765
36060W        W97371  23.171  29.001   1.871
36061W        W97372  28.016   1.738  12.416
36062W        W97373  12.155  26.975  11.901
36063W        W97374  18.095  11.788  11.019
36064W        W97375   3.222  23.566  14.868
36065W        W97376  16.282   1.461   1.712
36066W        W97377  27.597  35.958   1.434
36067W        W97378  31.147  27.686   0.792
36068W        W97379  24.487   2.841  12.910
36069W        W97380  36.862   0.958  14.366
36070W        W97381   2.723   2.270  11.973
36071W        W97382  40.966  30.594   1.870
36072W        W97383  40.473   6.762  14.914
36073W        W97384   8.821  26.513  13.538
36074W        W97385  42.476   3.336   2.884
36075W        W97386  37.556  39.033  11.567
36076W        W97387  14.655  32.118   4.833
36077W        W97388  23.591   1.450  10.644
36078W        W97389  27.593   1.304   0.287
36079W        W97390  35.585  39.376  12.432
36080W        W97391  12.169  24.595   5.771
36081W        W97392  14.602   1.782  13.333
36082W        W97393  21.750   6.714   1.240
36083W        W97394  19.281  16.738   2.799
36084W        W97395  30.155  39.525  14.472
36085W        W97396  16.643   1.339  14.428
36086W        W97397   4.781  41.955  10.994
36087W        W97398  25.108   1.784   1.332
36088W        W97399  37.841  18.076  11.002
36089W        W97400  42.006  24.524   3.273
36090W        W97401  44.952  15.150   1.881
36091W        W97402  21.222  13.121   4.732
36092W        W97403  10.366   5.349   1.741
36093W        W97404   4.316  31.526   3.778
36094W        W97405  18.621  41.013  13.312
36095W        W97406  36.979  20.577  12.348
36096W        W97407  38.965  42.391   0.870
36097W        W97408  25.187  43.319   3.150
36098W        W97409   5.332  10.857  13.498
36099W        W97410  39.951  33.485   4.138
36100W        W97411  33.444  30.112   4.145
36101W        W97412  44.769  38.916  11.122
36102W        W97413  35.378  31.964  12.993
36103W        W97414  14.797  28.491  14.826
36104W        W97415  44.892  17.777   2.881
36105W        W97416  39.876  13.309  12.921
36106W        W97417  35.552  10.229   1.915
36107W        W97418   7.796  44.318   4.682
36108W        W97419   8.727  44.447  10.420
36109W        W97420   5.362  14.796   2.208
36110W        W97421  35.536  17.189   1.758
36111W        W97422  36.063  29.988  13.043
36112W        W97423  15.258  34.520  10.423
36113W        W97424  30.602  20.768   2.708
36114W        W97425  11.723   4.862  12.393
36115W        W97426  24.650  15.609  14.891
36116W        W97427   9.356  35.861  11.003
36117W        W97428  38.842  12.811  13.822
36118W        W97429  27.177  38.858  13.835
36119W        W97430  26.175  28.163  14.768
36120W        W97431  40.932  12.830   2.900
36121W        W97432  19.153  25.659  10.503
36122W        W97433  17.688  11.203   0.479
36123W        W97434   0.397   7.881   4.797
36124W        W97435  37.898  22.109   1.397
36125W        W97436  27.643  21.039  13.881
36126W        W97437  24.640  11.294   1.312
36127W        W97438  28.530  22.179   4.650
36128W        W97439  24.614  11.667   1.388
36129W        W97440  13.302  17.149  14.997
36130W        W97441  31.594  33.075   1.420
36131W        W97442   6.723  29.663   1.737
36132W        W97443  28.026  16.300   0.925
36133W        W97444   9.796   3.895  10.572
36134W        W97445  34.509  11.646   1.821
36135W        W97446  21.711  18.084   0.929
36136W        W97447   7.198  27.663  12.878
36137W        W97448   9.162  24.677   4.168
36138W        W97449  23.182  26.160  12.960
36139W        W97450  43.946  37.417   2.878
36140W        W97451   9.721  15.764  11.434
36141W        W97452  11.714  40.389   5.088
36142W        W97453   5.333  26.485   0.338
36143W        W97454  29.154  24.127  10.630
36144W        W97455  35.480  10.847  14.984
36145W        W97456  38.430   6.325   3.163
36146W        W97457  21.255  35.997  12.475
36147W        W97458   3.799  38.465   3.780
36148W        W97459  41.880  10.674   0.325
36149W        W97460  12.139  36.944   2.845
36150W        W97461  37.858  44.276   3.717
36151W        W97462  37.441   4.760   4.147
36152W        W97463   8.782  13.738  13.445
36153W        W97464  23.057  25.497  13.024
36154W        W97465  16.239  42.978  10.522
36155W        W97466  14.215  33.475   4.301
36156W        W97467  17.676  32.899  14.466
36157W        W97468  40.432  44.400  14.385
36158W        W97469  20.642  25.709  13.791
36159W        W97470  14.592  13.279  14.785
36160W        W97471  33.056  31.109  13.982
36161W        W97472  22.037  24.086  14.858
36162W        W97473  28.094   7.762  14.293
36163W        W97474  22.067  14.615  11.460
36164W        W97475  13.714  23.497  12.550
36165W        W97476  27.180  33.479  13.929
36166W        W97477  21.580   3.711  14.444
36167W        W97478  27.008  13.143   3.334
36168W        W97479  25.686  36.024  12.988
36169W        W97480   3.247  33.383  12.887
36170W        W97481   8.878  39.475  10.986
36171W        W97482  44.382   8.809   4.265
36172W        W97483  15.738   6.809   5.233
36173W        W97484   3.291  18.223   1.741
36174W        W97485  31.034  17.196  13.435
36175W        W97486  32.459   9.704  10.602
36176W        W97487  11.215   8.400  11.127
36177W        W97488  36.503  26.082  10.474
36178W        W97489   3.761  42.526  13.048
36179W        W97490  27.106   2.798  11.545
36180W        W97491  27.008  43.998  10.560
36181W        W97492  23.081   0.985   4.707
36182W        W97493  31.021  16.652   2.325
36183W        W97494   1.820   5.701  14.310
36184W        W97495  13.805  30.416  12.966
36185W        W97496  10.225  20.267  12.371
36186W        W97497  25.989  29.608  13.519
36187W        W97498  29.074   3.916  11.907
36188W        W97499  26.998  19.105  11.613
36189W        W97500   9.371  10.150   3.710
36190W        W97501  30.494   5.328   5.208
36191W        W97502  15.760  26.168  14.477
36192W        W97503  33.500  42.906   9.999
36193W        W97504  34.996  22.664   2.740
36194W        W97505  25.506   7.790  11.958
36195W        W97506  23.720  21.109  11.908
36196W        W97507   3.461  43.898  12.832
36197W        W97508  39.391  36.843  13.057
36198W        W97509   8.352  10.866   0.451
36199W        W97510  28.566  32.447  14.019
36200W        W97511  36.059  16.770   3.281
36201W        W97512   5.234  33.020  12.974
36202W        W97513   9.704   7.346  14.422
36203W        W97514  34.984  10.690   0.769
36204W        W97515  31.525  21.666  11.064
36205W        W97516  22.233  18.215   3.763
36206W        W97517  13.624  41.953   4.324
36207W        W97518  30.932  13.836   4.753
36208W        W97519  14.191  35.558   4.782
36209W        W97520  42.460  31.029   1.757
36210W        W97521  28.580  42.484   4.208
36211W        W97522  37.959  37.903  11.032
36212W        W97523  34.561  36.929  12.051
36213W        W97524   9.208  27.680  11.985
36214W        W97525  17.109  15.771  14.424
36215W        W97526   0.764  42.795   9.945
36216W        W97527   7.320   6.398  12.875
36217W        W97528  41.795  32.590  10.420
36218W        W97529   1.887   4.208  14.436
36219W        W97530  30.447   1.837   2.327
36220W        W97531  27.166  27.987   2.845
36221W        W97532  35.009  31.979   2.742
36222W        W97533  17.182   4.280  14.426
36223W        W97534  38.073   6.699   4.797
36224W        W97535  10.236  30.471   2.840
36225W        W97536  13.259  20.566  14.439
36226W        W97537  41.038  13.256  13.414
36227W        W97538  27.471  22.118   3.239
36228W        W97539  26.668  43.011   5.267
36229W        W97540  42.313  43.468   3.707
36230W        W97541  21.732  42.954  12.408
36231W        W97542  44.318   8.309   0.299
36232W        W97543  35.366   8.163   1.408
36233W        W97544  33.926  37.954   2.784
36234W        W97545  28.675  29.622   3.842
36235W        W97546  29.467  43.921   1.868
36236W        W97547   9.236  38.568   2.740
36237W        W97548  23.100  31.900   3.230
36238W        W97549  21.165  22.061   4.740
36239W        W97550  34.947  16.782  13.414
36240W        W97551   3.298  20.654   0.345
36241W        W97552   7.290  34.547   0.262
36242W        W97553   5.774  43.932   2.394
36243W        W97554  12.857  10.368   1.370
36244W        W97555  42.389  33.383   1.888
36245W        W97556  38.361  18.612   4.643
36246W        W97557  23.073  40.491  12.929
36247W        W97558  12.201   3.265  14.513
36248W        W97559   5.913  25.568  10.518
36249W        W97560   6.213  14.740  13.915
36250W        W97561  38.450  27.075  13.370
36251W        W97562  43.938  13.800   1.794
36252W        W97563   1.857  14.649   1.379
36253W        W97564   7.361  16.739  13.315
36254W        W97565  11.203  32.505   4.800
36255W        W97566  43.478  29.558   1.806
36256W        W97567  34.375  41.370  11.400
36257W        W97568   8.823  41.349   2.834
36258W        W97569   8.709  38.367   3.788
36259W        W97570  15.736  20.128   1.250
36260W        W97571   6.329   4.727  13.319
36261W        W97572  39.477  40.304   2.663
36262W        W97573  19.537  18.681   0.268
36263W        W97574  36.099  44.922   4.676
36264W        W97575  23.156  38.998   2.199
36265W        W97576  26.659  39.413   2.662
36266W        W97577  38.915   7.266   1.362
36267W        W97578  13.178  14.729   0.420
36268W        W97579  15.584  16.788   9.625
36269W        W97580  38.906  42.939   2.893
36270W        W97581  23.518  32.123  11.916
36271W        W97582   3.343   4.388  10.957
36272W        W97583  38.372  13.199  12.571
36273W        W97584  20.766  44.803  11.587
36274W        W97585  31.044  26.048  13.408
36275W        W97586  32.608  25.496   4.197
36276W        W97587  29.149  10.287  14.488
36277W        W97588  15.243  34.456   3.263
36278W        W97589  28.529  23.055  11.914
36279W        W97590  18.582  14.734   2.705
36280W        W97591   5.265  26.142  11.007
36281W        W97592  34.942  26.600   2.308
36282W        W97593  16.664  28.597  10.972
36283W        W97594   9.367  27.185   2.853
36284W        W97595  44.862   8.832  12.060
36285W        W97596  17.181   2.412  14.865
36286W        W97597  23.028  21.670  11.898
36287W        W97598  20.086  32.430  13.853
36288W        W97599  12.141  13.175   1.843
36289W        W97600   8.777  27.084  10.455
36290W        W97601  33.925  26.633  11.030
36291W        W97602  27.967  19.183   2.372
36292W        W97603  25.997  42.352   2.384
36293W        W97604  21.560  22.703  14.765
36294W        W97605  18.638  22.719   2.322
36295W        W97606  25.657  34.528   3.737
36296W        W97607  12.610   3.425  11.996
36297W        W97608  35.971  24.211  13.840
36298W        W97609  30.934  28.486   4.186
36299W        W97610  22.715   1.311   1.815
36300W        W97611  38.026   8.210  12.066
36301W        W97612   5.774  43.934  12.024
36302W        W97613  41.868  36.048   4.625
36303W        W97614  17.656  15.094   4.186
36304W        W97615  35.413  12.734   1.385
36305W        W97616   3.315  26.021   3.255
36306W        W97617   1.825   8.177   4.632
36307W        W97618  15.208  39.422  10.609
36308W        W97619  35.393  35.597  11.032
36309W        W97620   9.729  15.105   4.272
36310W        W97621   6.812  31.565  11.586
36311W        W97622  25.041   7.376  14.313
36312W        W97623  40.929  36.917  14.808
36313W        W97624   7.305  42.425   1.354
36314W        W97625  30.492  18.064   4.337
36315W        W97626   4.877  30.951   3.170
36316W        W97627  39.546  27.148   2.195
36317W        W97628   4.393  39.886   0.942
36318W        W97629   8.760   8.178   2.391
36319W        W97630  33.091  16.244  14.449
36320W        W97631  24.092  24.170   2.254
36321W        W97632   7.813  21.127   2.770
36322W        W97633  44.485   1.455   2.400
36323W        W97634  27.528  19.075  12.889
36324W        W97635  34.916  17.753  11.466
36325W        W97636  13.712   1.837  10.500
36326W        W97637  26.463  16.697   1.441
36327W        W97638  24.621   3.828  13.047
36328W        W97639  23.175  36.352  13.062
36329W        W97640  31.634   8.228   3.285
36330W        W97641  37.056   6.888   3.192
36331W        W97642  12.754  13.828   0.831
36332W        W97643  30.918  18.160   1.756
36333W        W97644  27.476  27.597   0.753
36334W        W97645  15.716  27.550   1.756
36335W        W97646  31.102   1.365  11.373
36336W        W97647  22.138  35.042   4.837
36337W        W97648   8.396  31.004  11.597
36338W        W97649  30.632  17.632  12.350
36339W        W97650  26.994  22.528   4.297
36340W        W97651   9.151  33.982  11.467
36341W        W97652  30.161  28.465  14.892
36342W        W97653  39.358  44.983  12.914
36343W        W97654   3.301  17.606  14.496
36344W        W97655  18.243  44.794  11.029
36345W        W97656   2.369   1.268   4.662
36346W        W97657  32.924  32.630  12.545
36347W        W97658  19.096  12.288   4.288
36348W        W97659  17.098  21.245   2.414
36349W        W97660  34.097  29.060  10.076
36350W        W97661  22.200  18.682  11.606
36351W        W97662   5.691  19.545  13.028
36352W        W97663   1.885   5.213   4.746
36353W        W97664  22.592  18.080  14.773
36354W        W97665  32.001   8.845  10.475
36355W        W97666  31.507  27.189   4.816
36356W        W97667  13.839  17.644   4.141
36357W        W97668  30.162  19.656   3.320
36358W        W97669  17.633  18.739  13.364
36359W        W97670  28.583   2.332   4.292
36360W        W97671  12.671  36.935  10.554
36361W        W97672  27.052  40.960  11.975
36362W        W97673  23.714  15.674   2.238
36363W        W97674  15.755  32.980   3.200
36364W        W97675  21.514   4.287   1.832
36365W        W97676  31.574  28.042  14.793
36366W        W97677  41.298  34.416  10.610
36367W        W97678  15.282  13.610   2.404
36368W        W97679  27.059  31.571  12.026
36369W        W97680  20.581  29.505  14.999
36370W        W97681  44.943   0.742   4.667
36371W        W97682  15.149  20.699  13.315
36372W        W97683   8.710  22.016  10.901
36373W        W97684  14.743  27.076  12.991
36374W        W97685  18.218   8.160  13.031
36375W        W97686   9.662  12.635  11.057
36376W        W97687   6.790   8.844   2.762
36377W        W97688  33.897  43.809   4.802
36378W        W97689  14.739  26.153  12.539
36379W        W97690  36.525  17.147   3.763
36380W        W97691  30.582  23.633   1.862
36381W        W97692  16.594  15.585   4.634
36382W        W97693   5.739  42.974  10.515
36383W        W97694  23.569  44.317   2.833
36384W        W97695  27.127  36.021   0.806
36385W        W97696  36.422  34.532  11.568
36386W        W97697  13.179   5.921  13.828
36387W        W97698   0.849   2.335  11.549
36388W        W97699  29.104   4.925  11.610
36389W        W97700   0.882  12.200   0.444
36390W        W97701  11.240  25.566   4.662
36391W        W97702   7.305  12.697  13.828
36392W        W97703  41.963  31.478  13.885
36393W        W97704  12.849  12.244   0.946
36394W        W97705  34.581  14.649   1.397
36395W        W97706  44.935  28.126  10.504
36396W        W97707  24.485   4.224  11.071
36397W        W97708  14.707   1.780   2.705
36398W        W97709  12.823  35.057  13.399
36399W        W97710  43.359  27.012   0.344
36400W        W97711   4.716  21.544   3.320
36401W        W97712  13.208  33.024   1.399
36402W        W97713  23.104  39.872   1.210
36403W        W97714   1.249  27.450   0.423
36404W        W97715  28.036  21.246   3.330
36405W        W97716  12.219  12.292  14.294
36406W        W97717  19.541  37.927  13.796
36407W        W97718  36.015  42.945  11.519
36408W        W97719  42.790   0.268  10.098
36409W        W97720  41.369   2.337   3.345
36410W        W97721  41.844  12.812  10.042
36411W        W97722   1.926  23.664   0.872
36412W        W97723  20.687  16.648   0.288
36413W        W97724  28.011   9.260  11.975
36414W        W97725  25.166  35.005  10.411
36415W        W97726  33.380  24.209  14.373
36416W        W97727  24.510  14.604   2.189
36417W        W97728  23.229  10.736   1.751
36418W        W97729  22.146  32.453  11.470
36419W        W97730  13.105   4.889  10.459
36420W        W97731  11.806   0.833  13.928
36421W        W97732   8.796  15.644  12.848
36422W        W97733  28.463  42.879  11.920
36423W        W97734   7.858   5.436   1.273
36424W        W97735  17.749  14.596   0.427
36425W        W97736  24.005   6.398   1.379
36426W        W97737  12.704  15.207   2.664
36427W        W97738  25.966  35.938  10.610
36428W        W97739  10.869  36.530  14.487
36429W        W97740  28.547  38.045   3.836
36430W        W97741  39.478   7.232  12.525
36431W        W97742   5.885   4.923  10.894
36432W        W97743  38.334   4.843  10.896
36433W        W97744   0.289  33.109  14.861
36434W        W97745  27.651   7.830   3.347
36435W        W97746  22.054  30.088   0.831
36436W        W97747   6.421   6.276  11.974
36437W        W97748   1.773  27.976  12.371
36438W        W97749   4.323  14.603   5.258
36439W        W97750  32.039  31.138  13.335
36440W        W97751  31.514  16.797   2.384
36441W        W97752   3.834   3.288  12.950
36442W        W97753  25.009  25.476  10.629
36443W        W97754  22.741  28.997   0.855
36444W        W97755  12.197  14.784   2.378
36445W        W97756  18.658  25.480  10.421
36446W        W97757  37.921  18.789  12.409
36447W        W97758  10.670  18.292   4.618
36448W        W97759  20.203   4.392   2.713
36449W        W97760  34.480  31.610  13.492
36450W        W97761   6.761  42.342  13.907
36451W        W97762  13.712  32.120  13.988
36452W        W97763  40.053  22.589   2.828
36453W        W97764   0.857  26.528   4.352
36454W        W97765   5.899  13.611  10.077
36455W        W97766   2.233  43.439  13.328
36456W        W97767  23.568  17.149   2.243
36457W        W97768  12.692  38.034   2.776
36458W        W97769  31.412  17.633  14.845
36459W        W97770  21.263  12.190   1.367
36460W        W97771   4.818  32.590   2.267
36461W        W97772  13.207  10.732   0.756
36462W        W97773  35.875  15.236   4.787
36463W        W97774  12.275  21.030  10.982
36464W        W97775   3.324  34.983   0.334
36465W        W97776  37.464  20.274   5.094
36466W        W97777  20.601   3.915  13.022
36467W        W97778  38.494  14.827  11.986
36468W        W97779   1.927   8.236  13.021
36469W        W97780  23.554  41.362   2.354
36470W        W97781  36.898   1.957   3.261
36471W        W97782  16.196  22.718   1.767
36472W        W97783  26.683  13.613   4.672
36473W        W97784  31.578  11.140   4.788
36474W        W97785  25.629   5.876  13.334
36475W        W97786  33.057   4.794  13.311
36476W        W97787  12.665  40.399   0.347
36477W        W97788  43.341  18.706   3.741
36478W        W97789  30.920  33.124   1.717
36479W        W97790  35.058  26.153   0.782
36480W        W97791  30.436   3.886  13.373
36481W        W97792  29.626  20.656   4.724
36482W        W97793  25.040  37.440  12.463
36483W        W97794  39.012   5.370   4.806
36484W        W97795  39.924  39.813  12.978
36485W        W97796   8.865  17.272  11.458
36486W        W97797  28.957  37.963   4.122
36487W        W97798   3.899   0.900  11.120
36488W        W97799  15.313  22.168   1.931
36489W        W97800   5.745   9.732   1.916
36490W        W97801  21.739  24.188   4.603
36491W        W97802   9.800  11.733  11.936
36492W        W97803  34.383   6.887  11.515
36493W        W97804  32.077   4.409   1.242
36494W        W97805  41.319  11.643   0.369
36495W        W97806  20.649   0.490  11.859
36496W        W97807  28.525   8.194  13.871
36497W        W97808   5.711  31.456  10.929
36498W        W97809  23.083  31.404  12.529
36499W        W97810  34.469  39.900   2.275
36500W        W97811  28.168  28.467   0.283
36501W        W97812  16.191  26.169  14.472
36502W        W97813  11.670  34.508   4.672
36503W        W97814  15.245  21.651  12.521
36504W        W97815  35.865  32.463   3.267
36505W        W97816  41.406  38.485  13.429
36506W        W97817  31.627  27.690  12.412
36507W        W97818   6.875   6.338   0.403
36508W        W97819  32.137  20.694  12.044
36509W        W97820  13.247   2.241   1.760
36510W        W97821  24.140  34.413  13.831
36511W        W97822  16.162  11.300   2.191
36512W        W97823  31.560  18.789  14.383
36513W        W97824  19.577  27.490  13.885
36514W        W97825  33.385  25.693   0.915
36515W        W97826  30.646   9.671   0.911
36516W        W97827  44.827   8.346  10.581
36517W        W97828  38.018  10.210   4.801
36518W        W97829  19.761  15.094   2.339
36519W        W97830  41.430  28.443  14.280
36520W        W97831  29.477   4.888   0.463
36521W        W97832  12.759   0.932  12.383
36522W        W97833   3.218  42.782  13.974
36523W        W97834  14.302  17.742  12.473
36524W        W97835  27.072  15.798  14.280
36525W        W97836  38.858   2.243  13.437
36526W        W97837   0.814  28.000  14.324
36527W        W97838  10.654  30.441  11.885
36528W        W97839   9.179  19.621  10.064
36529W        W97840  40.461  25.113   4.691
36530W        W97841  31.614  14.813  13.530
36531W        W97842  41.003  36.075  13.015
36532W        W97843  27.690   2.245  14.997
36533W        W97844  34.893  43.943  14.898
36534W        W97845  17.228   1.908   3.850
36535W        W97846   6.256  41.942   0.922
36536W        W97847  18.142   7.325  12.894
36537W        W97848   6.282  17.166  13.864
36538W        W97849  36.575  26.683   2.237
36539W        W97850  43.312   8.320   1.771
36540W        W97851  27.570  13.227  14.909
36541W        W97852  16.636  22.996  14.445
36542W        W97853   0.840   3.427   4.617
36543W        W97854   8.892  38.821  11.885
36544W        W97855  17.571  11.695   0.305
36545W        W97856  18.729  29.580   4.636
36546W        W97857  21.261   5.331   5.282
36547W        W97858   7.809  44.432  10.552
36548W        W97859   3.796   3.362   2.812
36549W        W97860  14.817  15.128   0.362
36550W        W97861  32.619   6.916   5.805
36551W        W97862  20.252  14.801  11.431
36552W        W97863  35.989  21.109   4.824
36553W        W97864   3.437  25.125  13.045
36554W        W97865  32.923  19.580  14.824
36555W        W97866  38.563  13.736   1.852
36556W        W97867  23.659   9.288   2.198
36557W        W97868  27.031  38.843  11.432
36558W        W97869  42.455  27.682  11.860
36559W        W97870  27.625  33.919  10.563
36560W        W97871   1.385  38.987  11.509
36561W        W97872   1.785  32.621   3.345
36562W        W97873   5.819  21.253   2.337
36563W        W97874  10.646   6.919   0.244
36564W        W97875   4.853  20.593  13.423
36565W        W97876  14.718  29.635  11.015
36566W        W97877  11.260  30.979   3.283
36567W        W97878  31.487  15.202  12.090
36568W        W97879  27.016  41.408   1.359
36569W        W97880  14.783  18.078  11.519
36570W        W97881  30.434  16.243  14.819
36571W        W97882  11.851  34.369   2.679
36572W        W97883  32.486  18.212  14.944
36573W        W97884   5.233   6.711   2.747
36574W        W97885   7.736  24.145   0.478
36575W        W97886  33.459  36.952   2.766
36576W        W97887   8.254  30.626  13.024
36577W        W97888   3.875   9.711   4.129
36578W        W97889  24.492   5.224   3.277
36579W        W97890  37.857   2.245   2.399
36580W        W97891  24.095  37.509  11.392
36581W        W97892  32.538  40.909   4.317
36582W        W97893  22.998   9.727  13.371
36583W        W97894  14.177  35.451  12.065
36584W        W97895  28.117  12.801   0.435
36585W        W97896  17.105  40.932  10.631
36586W        W97897  11.762  17.079  12.003
36587W        W97898  37.436  22.572  11.517
36588W        W97899  37.468   5.699   2.698
36589W        W97900  17.763  43.423  10.637
36590W        W97901   1.434  22.042   4.606
36591W        W97902  25.179  22.694  13.990
36592W        W97903   0.295  31.534   3.287
36593W        W97904  24.010  30.588  11.119
36594W        W97905  27.678   9.819   0.883
36595W        W97906   4.322   3.932  13.444
36596W        W97907  37.378  27.456  10.100
36597W        W97908  34.889  12.646  12.884
36598W        W97909  43.920  39.314   2.828
36599W        W97910   6.348  32.597   3.266
36600W        W97911  33.580  11.239   0.301
36601W        W97912  14.603   4.813  13.458
36602W        W97913   0.482  18.756   1.229
36603W        W97914   3.237  16.230  14.855
36604W        W97915  18.129  44.338  10.973
36605W        W97916   3.405  26.026  14.384
36606W        W97917   3.787  41.917   2.266
36607W        W97918   6.793  44.766  10.584
36608W        W97919  29.024   5.363  12.089
36609W        W97920  20.648  24.582   2.708
36610W        W97921  32.913   5.855  11.043
36611W        W97922  30.940   1.857   3.278
36612W        W97923  34.590  43.478  14.908
36613W        W97924  14.153  25.152  12.509
36614W        W97925  33.929  28.551   1.896
36615W        W97926   9.244  26.511  11.013
36616W        W97927   8.808  20.097   3.723
36617W        W97928  12.853  38.353   3.348
36618W        W97929  34.050  32.475   1.328
36619W        W97930  43.410  25.116   2.811
36620W        W97931  20.527  25.189  10.563
36621W        W97932   8.302  29.001  10.528
36622W        W97933   5.351  15.271  11.461
36623W        W97934  40.313  11.373   1.353
36624W        W97935  31.450  22.644  11.906
36625W        W97936  25.605   4.408   4.168
36626W        W97937  34.055  26.051  11.488
36627W        W97938  12.778  18.157   4.614
36628W        W97939  17.298  19.735  10.522
36629W        W97940  32.570   6.278  13.400
36630W        W97941  12.644   1.801  12.081
36631W        W97942  13.107  15.639  11.484
36632W        W97943  22.129  36.507  12.030
36633W        W97944  35.039  26.195  13.457
36634W        W97945  25.158  31.951  10.461
36635W        W97946  14.116  19.617  13.356
36636W        W97947  37.418  39.331  13.056
36637W        W97948  25.580  30.593   1.743
36638W        W97949   5.798  29.455   2.312
36639W        W97950  18.626   6.299   5.209
36640W        W97951  28.556  42.480  11.884
36641W        W97952  25.208  31.952   2.328
36642W        W97953  15.290  25.556   3.149
36643W        W97954  19.091  43.953  12.000
36644W        W97955  32.566   1.442   2.395
36645W        W97956  26.550  17.275  11.502
36646W        W97957   4.760  27.659  13.849
36647W        W97958  31.556  23.083  12.515
36648W        W97959  35.441  24.185   0.728
36649W        W97960  33.925  10.218  13.005
36650W        W97961  42.442  15.697  10.504
36651W        W97962   5.735  41.963   3.287
36652W        W97963  40.050  17.772  14.910
36653W        W97964  35.070  23.052   4.738
36654W        W97965  13.648   8.243  13.030
36655W        W97966  31.638  13.140  14.513
36656W        W97967  38.862  40.505   3.631
36657W        W97968  39.827  34.057   3.845
36658W        W97969   9.846  25.594   4.159
36659W        W97970   9.320  31.434  11.122
36660W        W97971  41.319  24.714  12.946
36661W        W97972   3.239  11.859   5.087
36662W        W97973   6.839  37.877  13.918
36663W        W97974  37.440   9.351  11.988
36664W        W97975  15.305  40.401  14.996
36665W        W97976   8.782   1.317   2.342
36666W        W97977  14.825  29.499  11.452
36667W        W97978   9.372   2.458   0.265
36668W        W97979  11.140  43.377   2.894
36669W        W97980   5.835   2.839  10.557
36670W        W97981   4.228  14.158   9.954
36671W        W97982  40.801  28.499  12.016
36672W        W97983  40.329  39.971   3.326
36673W        W97984  33.891  39.875  14.838
36674W        W97985  22.228  41.958   4.196
36675W        W97986   1.828  44.844  12.839
36676W        W97987   9.796  30.155  11.057
36677W        W97988  41.883  20.650  11.088
36678W        W97989  34.375  34.380  11.534
36679W        W97990  19.653   0.473  13.873
36680W        W97991  23.061  38.366  10.430
36681W        W97992  44.756   1.263  14.839
36682W        W97993  12.264   2.894   3.731
36683W        W97994  31.520  36.460   0.296
36684W        W97995  15.306  36.038  10.919
36685W        W97996  25.059  39.374   2.187
36686W        W97997  27.137  29.043   3.829
36687W        W97998  22.506  30.910   1.737
36688W        W97999  25.031  10.647   1.290
36689W        W98000   7.729   4.409  12.986
36690W        W98001  25.086  34.450   0.249
36691W        W98002  32.904  43.471  13.794
36692W        W98003  29.659  40.939  12.983
36693W        W98004   8.292  21.643   0.735
36694W        W98005  19.583   7.910  14.494
36695W        W98006  29.951  35.916   1.726
36696W        W98007  13.152   2.424   3.193
36697W        W98008   4.404  11.364  14.468
36698W        W98009  31.483   9.715   4.202
36699W        W98010  39.406  30.604   1.831
36700W        W98011   2.925  16.205  10.438
36701W        W98012  43.491  31.957  12.478
36702W        W98013  21.209  21.747   3.850
36703W        W98014  31.919  25.536   1.344
36704W        W98015   0.327  25.572  10.897
36705W        W98016  15.633  23.514   0.893
36706W        W98017  33.020  30.468  12.523
36707W        W98018  26.488  43.464  11.866
36708W        W98019  42.527  12.743   4.631
36709W        W98020  24.584  16.155  13.546
36710W        W98021  43.818  33.048  10.990
36711W        W98022   1.425   1.976  13.395
36712W        W98023   8.830  20.700   4.164
36713W        W98024  24.984  26.673   3.305
36714W        W98025  43.967  32.979   0.929
36715W        W98026   3.771  11.749  11.937
36716W        W98027  32.407  44.417  11.436
36717W        W98028  43.019  11.714  13.857
36718W        W98029   1.425  29.642   0.320
36719W        W98030  14.655   0.395  12.524
36720W        W98031   4.831  44.874  10.578
36721W        W98032  43.437   4.346  14.471
36722W        W98033  28.445  25.562  12.558
36723W        W98034  22.640   1.252  14.416
36724W        W98035  26.131  25.671   0.430
36725W        W98036   7.336  13.177   3.728
36726W        W98037  41.477  41.466   4.168
36727W        W98038  17.648  35.910  14.334
36728W        W98039  19.615   8.218   1.215
36729W        W98040  44.404  17.149   4.764
36730W        W98041  24.038  21.175  14.345
36731W        W98042   3.759  26.085   3.704
36732W        W98043   2.268  43.448  14.962
36733W        W98044  33.022   6.727   0.895
36734W        W98045  26.005   1.877   3.345
36735W        W98046  25.624  32.498   3.716
36736W        W98047  40.812  42.379   3.344
36737W        W98048   8.337  19.117  12.452
36738W        W98049  29.961  35.108  12.006
36739W        W98050   1.398   8.319   2.368
36740W        W98051  22.194  12.796   3.798
36741W        W98052  19.120  34.025  13.319
36742W        W98053  37.410  20.609  11.903
36743W        W98054   4.223  19.534   2.341
36744W        W98055   5.390  17.595   5.123
36745W        W98056  29.163  15.105  12.894
36746W        W98057  19.245  39.547   5.173
36747W        W98058  27.162  11.245  11.948
36748W        W98059  21.742   8.828   2.828
36749W        W98060  39.545  25.150  12.013
36750W        W98061   0.840  31.468  10.483
36751W        W98062  24.171  18.151  13.473
36752W        W98063  40.876   2.444  12.430
36753W        W98064  12.159  29.009  13.533
36754W        W98065  16.804   8.797  10.614
36755W        W98066   0.384  25.088  14.421
36756W        W98067   4.331  21.123   4.675
36757W        W98068  35.383  39.358   0.361
36758W        W98069  11.248  17.657   0.774
36759W        W98070  16.150  43.845   0.310
36760W        W98071  23.535  16.087   9.995
36761W        W98072  10.347  28.641   0.787
36762W        W98073   1.769  36.058   4.684
36763W        W98074  32.534  40.442   3.376
36764W        W98075  41.500  34.372  11.029
36765W        W98076  22.556  23.230  14.929
36766W        W98077  12.667  24.580   1.863
36767W        W98078  35.892   9.262   3.865
36768W        W98079  13.678  19.583  14.006
36769W        W98080   4.826  11.785   2.270
36770W        W98081  33.928   6.264   3.858
36771W        W98082   3.714  21.725  14.998
36772W        W98083  27.121   9.770   3.147
36773W        W98084  15.774   6.792   4.836
36774W        W98085  33.091   1.875   4.130
36775W        W98086  13.106  10.786   3.337
36776W        W98087   2.231  33.394   1.304
36777W        W98088  22.245  26.015  14.285
36778W        W98089  41.842  40.042   3.850
36779W        W98090  11.809  25.595  10.123
36780W        W98091  31.552  31.132  12.378
36781W        W98092  29.465  17.091   4.836
36782W        W98093   8.258   5.311  11.948
36783W        W98094  32.026   5.312  11.474
36784W        W98095  14.219   2.770  14.318
36785W        W98096  10.220   4.854   1.869
36786W        W98097  22.217  10.179  12.046
36787W        W98098   7.370  37.356   5.209
36788W        W98099  36.412  22.518  11.915
36789W        W98100  42.815  36.550  11.585
36790W        W98101   8.766  19.114   0.372
36791W        W98102  29.163  32.967   3.253
36792W        W98103  16.702   5.193  13.365
36793W        W98104   5.439   2.256   2.193
36794W        W98105  10.154  27.657   2.276
36795W        W98106  11.357  26.163   4.141
36796W        W98107  12.347  18.055   3.252
36797W        W98108  10.840  43.466  14.391
36798W        W98109  37.022  37.514   9.477
36799W        W98110  22.609  27.964  10.950
36800W        W98111  31.030  37.406   3.227
36801W        W98112  42.989  27.039  14.304
36802W        W98113  34.986   2.846   2.800
36803W        W98114   9.781  12.728  12.913
36804W        W98115  31.415  43.338  13.836
36805W        W98116  22.604   3.795   4.820
36806W        W98117  29.959  13.778  14.962
36807W        W98118  31.049  12.771  10.949
36808W        W98119  33.473   7.258   2.884
36809W        W98120  42.523   1.427  13.899
36810W        W98121   8.175   4.909  13.973
36811W        W98122  21.681  38.870  11.098
36812W        W98123  16.790   9.353  11.936
36813W        W98124  34.577   7.857   4.313
36814W        W98125   3.379   2.247  14.964
36815W        W98126  29.059  15.247   4.284
36816W        W98127  12.769   7.186   1.780
36817W        W98128  41.398  18.731  13.338
36818W        W98129  43.792  39.964   3.739
36819W        W98130  40.541   3.293   3.174
36820W        W98131  11.272  22.625   3.684
36821W        W98132  18.241  27.181  14.920
36822W        W98133  25.991   6.252   2.803
36823W        W98134  44.500  25.135   3.826
36824W        W98135  24.694  12.724  10.589
36825W        W98136   2.963   0.420   3.739
36826W        W98137  30.559   4.894   0.776
36827W        W98138  19.731  18.673   0.918
36828W        W98139  36.566  22.060  14.952
36829W        W98140  10.768  40.542   4.700
36830W        W98141  22.561  10.322   5.286
36831W        W98142  33.389  37.903   3.205
36832W        W98143  37.947  31.900   3.247
36833W        W98144  32.582  37.975  14.793
36834W        W98145  39.479  24.084   1.268
36835W        W98146  39.454   3.368  10.436
36836W        W98147  33.058  41.435   3.778
36837W        W98148  11.623   6.301   5.101
36838W        W98149  37.459   0.864   3.313
36839W        W98150  44.269  30.028   2.835
36840W        W98151  33.978  34.585   3.359
36841W        W98152  29.981   4.407   2.404
36842W        W98153   4.436  32.919   3.298
36843W        W98154  25.023   9.793   0.958
36844W        W98155  31.078  11.711   0.287
36845W        W98156   4.263  40.409   3.712
36846W        W98157  44.354  41.404  10.954
36847W        W98158   8.231  29.049   3.805
36848W        W98159  11.727  23.676   3.219
36849W        W98160  43.316   0.290   3.736
36850W        W98161  10.142  42.459   4.147
36851W        W98162  37.445  16.259  14.859
36852W        W98163  38.341   4.921  14.942
36853W        W98164   8.167  36.059  13.385
36854W        W98165  10.745  28.024  11.458
36855W        W98166  19.106  13.123   5.231
36856W        W98167   3.300  19.091  12.002
36857W        W98168   5.764  22.708  11.437
36858W        W98169   5.699   7.375   2.840
36859W        W98170   1.383  40.933  11.057
36860W        W98171  21.033  10.876  12.936
36861W        W98172  31.001  44.003   1.381
36862W        W98173  36.476   8.273  11.895
36863W        W98174  19.748  31.088  11.945
36864W        W98175  13.131  29.525   2.225
36865W        W98176  40.997  13.337   4.680
36866W        W98177   9.315   4.764   1.804
36867W        W98178  29.923   4.873  10.984
36868W        W98179   9.819  24.217  11.036
36869W        W98180  26.176  33.428   0.249
36870W        W98181   5.851   2.428   3.326
36871W        W98182  34.987   0.971   2.662
36872W        W98183  32.518  10.207   1.709
36873W        W98184  26.602  34.877  13.014
36874W        W98185  23.070  15.593  10.614
36875W        W98186  38.424  28.540   4.648
36876W        W98187  42.928  38.410  12.540
36877W        W98188   9.671  42.022  14.369
36878W        W98189  13.629  23.538  13.518
36879W        W98190  32.087  33.436  13.894
36880W        W98191  43.388   8.360  12.076
36881W        W98192  22.008  13.134  11.045
36882W        W98193  34.535  21.021  12.850
36883W        W98194  43.951  18.063  10.412
36884W        W98195  35.559  42.313   2.386
36885W        W98196  44.865  37.990   4.291
36886W        W98197  29.623  15.240   0.287
36887W        W98198  10.707  23.553   1.925
36888W        W98199   0.409  12.617   2.284
36889W        W98200   2.340   3.316  11.404
36890W        W98201  17.265  43.471  13.500
36891W        W98202  37.390  44.307   1.216
36892W        W98203  28.005   1.928  11.547
36893W        W98204  18.765   0.825   1.840
36894W        W98205  21.536   6.890   2.783
36895W        W98206  30.613   8.749  11.944
36896W        W98207  32.600   5.290   0.356
36897W        W98208  25.192  16.114   0.733
36898W        W98209  20.549   0.883   4.332
36899W        W98210  10.207  39.508  10.452
36900W        W98211  18.618  41.480   4.206
36901W        W98212   4.436  37.917   1.392
36902W        W98213   7.736   6.293   4.766
36903W        W98214  35.973  39.988  11.488
36904W        W98215  24.208  15.740  11.090
36905W        W98216  23.175  29.110   1.221
36906W        W98217  31.150  14.690   4.625
36907W        W98218  19.159  21.207   0.337
36908W        W98219   2.400   4.423  12.382
36909W        W98220  18.264  13.608   1.359
36910W        W98221  43.998   6.908   2.883
36911W        W98222  43.350   2.330   2.717
36912W        W98223  36.977   8.360   3.270
36913W        W98224  36.504  22.611   0.451
36914W        W98225  22.738   0.444  13.792
36915W        W98226  38.367  14.653   1.779
36916W        W98227  28.029  34.915   1.424
36917W        W98228  22.072  38.007  14.879
36918W        W98229   0.339  15.811   4.708
36919W        W98230  24.601   2.818   4.208
36920W        W98231   0.981   6.425  12.086
36921W        W98232   7.354  40.959  11.059
36922W        W98233   4.727  13.296   9.970
36923W        W98234  37.369  39.427   3.337
36924W        W98235  13.785  34.898   1.783
36925W        W98236  23.172  27.117   1.928
36926W        W98237   8.827  43.933   1.720
36927W        W98238  22.114  17.720   2.748
36928W        W98239  43.513  20.588   3.166
36929W        W98240  36.368   0.352  11.468
36930W        W98241   0.842  42.362  13.937
36931W        W98242  38.819  40.831   4.207
36932W        W98243  13.186  25.620   4.310
36933W        W98244   0.825  34.044   0.418
36934W        W98245  23.551  14.726   2.858
36935W        W98246  39.988  29.170   4.170
36936W        W98247  37.413   5.925   0.343
36937W        W98248   6.423   7.794  12.962
36938W        W98249  10.246  43.372  12.920
36939W        W98250  22.124  43.489   3.695
36940W        W98251   9.748  39.324  13.038
36941W        W98252  29.152   2.369   3.251
36942W        W98253  23.195  40.859   4.803
36943W        W98254   8.187   2.390  11.072
36944W        W98255  22.182   4.703  10.908
36945W        W98256   8.730   2.266   2.699
36946W        W98257  42.941  14.764  12.382
36947W        W98258  14.765  23.174  13.883
36948W        W98259  27.971  18.694  10.459
36949W        W98260  14.272   0.795  10.472
36950W        W98261   5.428   6.702   0.398
36951W        W98262   1.965  24.539   0.810
36952W        W98263  18.591   3.268   1.731
36953W        W98264  14.245  29.127  14.981
36954W        W98265  36.504  14.196   4.257
36955W        W98266  33.974  39.043   4.252
36956W        W98267  43.303  22.703  12.556
36957W        W98268  24.660  16.648  13.356
36958W        W98269   6.761  32.965  10.987
36959W        W98270   2.902  14.705  13.003
36960W        W98271  22.212  36.858   3.194
36961W        W98272  10.146  39.501  11.596
36962W        W98273  44.375  26.617  12.869
36963W        W98274  14.816   6.273   0.863
36964W        W98275  12.358  10.153  11.045
36965W        W98276  43.876  35.381   0.483
36966W        W98277  29.155  36.934   1.344
36967W        W98278  39.555   6.908  11.089
36968W        W98279  44.875   8.711  14.474
36969W        W98280  10.756  41.788  14.789
36970W        W98281   8.855  12.129  10.553
36971W        W98282   4.729  38.547  12.893
36972W        W98283  21.547  20.768  13.955
36973W        W98284  35.891  37.559  10.998
36974W        W98285   9.246  14.589  10.415
36975W        W98286  40.416   0.967  12.881
36976W        W98287  37.574  37.435   3.342
36977W        W98288  29.637   8.330   2.841
36978W        W98289  17.636  27.475   1.333
36979W        W98290  12.328  13.780   3.815
36980W        W98291  29.596  14.148   0.395
36981W        W98292  27.086  35.546  10.486
36982W        W98293  39.492  25.086  13.816
36983W        W98294  43.896  16.110   3.720
36984W        W98295  13.631   8.186  11.876
36985W        W98296   9.699  32.904   0.431
36986W        W98297   4.787  24.627  11.985
36987W        W98298  38.502  26.498   0.275
36988W        W98299  32.913  36.994  13.886
36989W        W98300  21.112  19.623  14.983
36990W        W98301  44.880  17.799  14.499
36991W        W98302   8.659  42.354  12.922
36992W        W98303  38.872  41.836   4.285
36993W        W98304  38.924  23.090  12.023
36994W        W98305  44.959  26.691  13.477
36995W        W98306  31.020  35.976   0.750
36996W        W98307  25.052  42.830  11.108
36997W        W98308   0.369  13.604   4.828
36998W        W98309  13.783  34.376  11.436
36999W        W98310  33.488   7.223  13.400
37000W        W98311  17.084  28.506  10.989
37001W        W98312  11.854  23.056   1.931
37002W        W98313  12.815   7.256   2.824
37003W        W98314  35.484  13.202   1.808
37004W        W98315  43.770  43.863  12.524
37005W        W98316  28.955   7.301   2.686
37006W        W98317   0.358  19.084   0.477
37007W        W98318  15.737   2.235  11.449
37008W        W98319   2.401  41.301   0.761
37009W        W98320  44.447  31.037  11.887
37010W        W98321   2.954  23.993   4.622
37011W        W98322   5.383  17.168  11.583
37012W        W98323  36.456  19.128  14.961
37013W        W98324  26.204  14.188   4.724
37014W        W98325  14.247  28.135  10.057
37015W        W98326  21.046  41.041   1.860
37016W        W98327  41.036  27.122  13.012
37017W        W98328  26.966  24.023   1.703
37018W        W98329   3.452  22.500  13.438
37019W        W98330   0.918  36.406  13.921
37020W        W98331  25.054  22.524   1.902
37021W        W98332  36.570  30.051  12.947
37022W        W98333   8.665  18.142   0.478
37023W        W98334   9.205  25.590  14.977
37024W        W98335  23.176  16.299   1.728
37025W        W98336   3.298  11.270  14.471
37026W        W98337  29.664  29.478  12.922
37027W        W98338   2.257   8.275  14.399
37028W        W98339  27.671  10.704   3.300
37029W        W98340  12.126  12.669   4.701
37030W        W98341  22.529  10.246  11.449
37031W        W98342  44.305  18.718  10.955
37032W        W98343   0.407  30.489  14.781
37033W        W98344  41.857  29.150   3.253
37034W        W98345   5.706  37.349  10.140
37035W        W98346  43.915   0.761   0.442
37036W        W98347  12.266  26.017  11.505
37037W        W98348  30.085  30.444  10.412
37038W        W98349  30.979  33.596   4.730
37039W        W98350   6.203  10.784   1.337
37040W        W98351  38.038  23.563  14.389
37041W        W98352  34.974   0.804   0.312
37042W        W98353  21.622   0.840   3.321
37043W        W98354  28.180   6.771   0.820
37044W        W98355  17.754  13.691  13.993
37045W        W98356  36.505  10.336  10.955
37046W        W98357  14.711   8.312  14.916
37047W        W98358   4.890  44.766   4.268
37048W        W98359  34.998  18.206  13.833
37049W        W98360  21.191  30.539   2.234
37050W        W98361  40.513  30.080  13.829
37051W        W98362  20.524   1.449   2.355
37052W        W98363  36.407  32.462   2.676
37053W        W98364  12.249  43.797   3.630
37054W        W98365  16.188  21.520  11.486
37055W        W98366  27.656   8.900   0.250
37056W        W98367   8.406  29.660   1.862
37057W        W98368  28.134  17.556  13.911
37058W        W98369  44.784   4.790   2.334
37059W        W98370  34.898  16.721  10.625
37060W        W98371  11.197  26.595   3.225
37061W        W98372  40.322  39.350  12.861
37062W        W98373  23.613   5.337   0.483
37063W        W98374   0.846  33.474  11.081
37064W        W98375  15.242  43.944   2.332
37065W        W98376  34.399  44.002   2.283
37066W        W98377  36.875  35.455  14.977
37067W        W98378  13.338  18.185   0.258
37068W        W98379   4.335  29.151   1.797
37069W        W98380  35.959  26.485  12.945
37070W        W98381  20.130  19.708   1.327
37071W        W98382  44.002  44.863   2.285
37072W        W98383  26.010  35.901  13.547
37073W        W98384  35.878  34.010   5.303
37074W        W98385   4.930  10.330   0.279
37075W        W98386  29.501  38.836   4.273
37076W        W98387   8.685  41.888   3.723
37077W        W98388   6.760  32.122  10.621
37078W        W98389   8.762   2.280  10.552
37079W        W98390  17.794  28.644   4.286
37080W        W98391  34.553  37.531  10.962
37081W        W98392   1.957  23.187  14.284
37082W        W98393   3.325   4.829   4.244
37083W        W98394  44.378  37.023  12.528
37084W        W98395  43.416  25.644   1.226
37085W        W98396   9.873  41.500   2.722
37086W        W98397  28.561  15.582   1.294
37087W        W98398  34.925  38.845  14.953
37088W        W98399  38.061   5.747   2.834
37089W        W98400  12.798  13.175  11.886
37090W        W98401  18.100   5.408   3.749
37091W        W98402   1.379  35.397   1.774
37092W        W98403   7.846  35.434   2.853
37093W        W98404   2.921  20.077  14.989
37094W        W98405  19.669   9.837  12.993
37095W        W98406  26.015  28.496   4.630
37096W        W98407  21.713   6.889   0.427
37097W        W98408  31.513  31.981   2.391
37098W        W98409   8.721  22.700   4.761
37099W        W98410   5.720   5.328  12.563
37100W        W98411  15.270  39.371  10.890
37101W        W98412  12.648   7.178   3.310
37102W        W98413   4.826  14.177  14.938
37103W        W98414  13.202  13.822  14.312
37104W        W98415  31.093  28.120  14.376
37105W        W98416  30.084   9.825  14.395
37106W        W98417   7.718  34.554  12.497
37107W        W98418  27.557  22.225   2.224
37108W        W98419  19.730  38.941   3.338
37109W        W98420  15.591  16.739   1.709
37110W        W98421   1.880   8.818  12.971
37111W        W98422   8.323  39.488   4.338
37112W        W98423  33.913  20.111   0.376
37113W        W98424   3.260  13.628   3.243
37114W        W98425   4.761  30.470  14.824
37115W        W98426  10.315  32.055   4.165
37116W        W98427   9.191  44.458  12.366
37117W        W98428  14.630  31.594   4.741
37118W        W98429  17.798   5.908   3.677
37119W        W98430  37.545  25.011   2.228
37120W        W98431  24.662  30.651  13.859
37121W        W98432  27.476  24.681  12.544
37122W        W98433  23.047  21.234   0.384
37123W        W98434   2.403  33.004   4.312
37124W        W98435  13.319  29.120   1.732
37125W        W98436  25.598  10.374  10.081
37126W        W98437   5.257  17.217   2.374
37127W        W98438   2.254   0.964  13.379
37128W        W98439   8.675  16.700  14.765
37129W        W98440  20.523  29.164   4.119
37130W        W98441  37.907  21.247   4.352
37131W        W98442   6.241  14.615   4.837
37132W        W98443  12.243  30.636  14.488
37133W        W98444  37.411  41.789  13.956
37134W        W98445  39.816  17.610   2.844
37135W        W98446   5.693  33.078   2.762
37136W        W98447  26.996  30.599   2.263
37137W        W98448  13.210  34.503  10.152
37138W        W98449   1.363  18.588  11.523
37139W        W98450  38.996  26.663  10.969
37140W        W98451  15.701  25.624  14.825
37141W        W98452   8.335  38.834   3.276
37142W        W98453   1.405  12.204  11.443
37143W        W98454  21.538  37.348  12.880
37144W        W98455   3.448  26.002  10.606
37145W        W98456  22.677  24.656  11.923
37146W        W98457  18.650  31.617   2.886
37147W        W98458  21.064   2.777  14.003
37148W        W98459   6.691   2.236   4.335
37149W        W98460  36.349  31.141   2.244
37150W        W98461  19.558  43.820  13.833
37151W        W98462  35.947  29.473   2.243
37152W        W98463   0.442  33.065   2.796
37153W        W98464  39.344   4.852  12.380
37154W        W98465  26.644  39.420  11.026
37155W        W98466  34.415   6.280  10.945
37156W        W98467  12.116   6.326  14.451
37157W        W98468  10.381   4.861   2.742
37158W        W98469   6.840  40.450   2.721
37159W        W98470  41.900  25.498  14.005
37160W        W98471  19.605  31.498   2.337
37161W        W98472  14.780  37.869  14.397
37162W        W98473   4.279  11.263   1.883
37163W        W98474  40.545   6.279  12.992
37164W        W98475  13.315   3.872   3.801
37165W        W98476  21.263  19.701  12.371
37166W        W98477  21.119  21.116   3.266
37167W        W98478  39.459  40.350   4.833
37168W        W98479  13.225  21.619   2.414
37169W        W98480  44.327  14.215   2.748
37170W        W98481  15.795   8.272  11.574
37171W        W98482  36.530  22.147   1.424
37172W        W98483  24.083  14.819   4.757
37173W        W98484  32.902  27.561  10.407
37174W        W98485  18.735  12.346   2.255
37175W        W98486  13.693  32.976   2.209
37176W        W98487  15.194  30.042   0.832
37177W        W98488  16.082  27.079  10.580
37178W        W98489  40.976  19.592  14.997
37179W        W98490  14.764   4.228   1.211
37180W        W98491  21.154  35.478   0.353
37181W        W98492   5.307  19.694  12.997
37182W        W98493  10.703  21.607   3.685
37183W        W98494  35.581  38.485  11.082
37184W        W98495  24.519   0.256   3.755
37185W        W98496  36.538  30.107   4.238
37186W        W98497  34.578  16.583   4.647
37187W        W98498   4.248  44.351   2.798
37188W        W98499   1.760   0.968   1.899
37189W        W98500  40.981  16.811  10.998
37190W        W98501  15.213  18.268   1.279
37191W        W98502  29.649   6.240   9.999
37192W        W98503  11.329   4.850  14.029
37193W        W98504   1.254   8.215   0.807
37194W        W98505   8.249  21.604  13.931
37195W        W98506  10.151  18.751  14.992
37196W        W98507   0.330   9.335  11.564
37197W        W98508  22.597  37.513   2.763
37198W        W98509   4.237  38.921   0.423
37199W        W98510  25.641  20.125   1.235
37200W        W98511   7.390  16.765   0.768
37201W        W98512  28.592  26.480  13.063
37202W        W98513  35.512  38.950   2.390
37203W        W98514  37.558  12.293   4.702
37204W        W98515  36.510  27.612   9.999
37205W        W98516  41.502  33.036  11.605
37206W        W98517  38.033  41.445   1.850
37207W        W98518  12.206  24.112   3.739
37208W        W98519  17.270  23.654  11.395
37209W        W98520  31.633  11.245  14.839
37210W        W98521  41.495  19.592  11.988
37211W        W98522  33.003   3.402   3.270
37212W        W98523  44.902  11.675  13.355
37213W        W98524  31.441  43.324   4.173
37214W        W98525  20.223  24.550   2.319
37215W        W98526   5.367  37.420  13.530
37216W        W98527  12.711  40.948  11.058
37217W        W98528  30.969  31.905   2.265
37218W        W98529  26.127   4.715  13.802
37219W        W98530   7.750  39.325  13.516
37220W        W98531  15.632  33.914   2.180
37221W        W98532  28.131  41.830   2.191
37222W        W98533  34.975  43.317  12.989
37223W        W98534   3.419  35.520   1.234
37224W        W98535  33.077  15.130  10.963
37225W        W98536  42.330  42.340   4.814
37226W        W98537  16.737   4.283  12.442
37227W        W98538   6.240   6.220   3.375
37228W        W98539  33.042  37.405  11.541
37229W        W98540  42.851  26.458  11.881
37230W        W98541  41.861  26.613   0.927
37231W        W98542   1.744  15.161  12.474
37232W        W98543  30.479  32.132   4.730
37233W        W98544  42.441  24.030  12.547
37234W        W98545  21.552  16.623  14.787
37235W        W98546  26.972  32.555   4.270
37236W        W98547  14.305  16.706  11.400
37237W        W98548   5.882   1.795   1.729
37238W        W98549  14.165  17.759  13.340
37239W        W98550   8.309  30.555   1.744
37240W        W98551  36.411  37.408   5.131
37241W        W98552  34.912  35.380   1.903
37242W        W98553  34.584  14.253   4.639
37243W        W98554  16.285  34.393   0.965
37244W        W98555  24.007  33.511  14.910
37245W        W98556   9.307  25.511   2.801
37246W        W98557   2.934  18.587  12.011
37247W        W98558  33.973  36.487   3.321
37248W        W98559  24.580  29.531  13.814
37249W        W98560  43.868  20.069  12.920
37250W        W98561  32.580   4.215   2.344
37251W        W98562  20.529   8.278  11.551
37252W        W98563   8.739  19.702  11.431
37253W        W98564  19.740  32.538  13.899
37254W        W98565  10.209  40.408  14.487
37255W        W98566  26.071  28.521  13.995
37256W        W98567  40.900  39.392  11.125
37257W        W98568  37.366  10.760   0.783
37258W        W98569  12.340  16.606   3.214
37259W        W98570   3.320  33.978   1.447
37260W        W98571  38.959   2.301  13.019
37261W        W98572  12.758  24.176  14.463
37262W        W98573  15.738  33.400   4.685
37263W        W98574   4.234  12.624   4.740
37264W        W98575  19.684  42.312   1.776
37265W        W98576  40.487   6.318   2.260
37266W        W98577  37.389   9.252  14.355
37267W        W98578  19.096  44.368  14.452
37268W        W98579  30.479  37.866  13.889
37269W        W98580  27.106  13.286  11.542
37270W        W98581  43.003   2.337   0.300
37271W        W98582  12.358  39.907  10.587
37272W        W98583  36.897   5.779  11.123
37273W        W98584  25.007   7.899   2.896
37274W        W98585  38.947  20.714   0.840
37275W        W98586  37.024  24.560   2.182
37276W        W98587  28.650   2.310  13.047
37277W        W98588  25.490  18.570  11.051
37278W        W98589  29.943  10.756  14.416
37279W        W98590   1.796  40.346  12.947
37280W        W98591   9.166  19.049   1.258
37281W        W98592  39.828  43.372   4.604
37282W        W98593  16.781   3.824  13.513
37283W        W98594  19.126  25.652  12.532
37284W        W98595   7.759  36.061   2.722
37285W        W98596  34.476   6.305   0.284
37286W        W98597   6.718   9.266  12.860
37287W        W98598   7.268  16.292   2.335
37288W        W98599  28.556  17.640   4.647
37289W        W98600  22.527  32.508  13.501
37290W        W98601  25.608  19.667  12.491
37291W        W98602  30.500  23.021  10.524
37292W        W98603  16.613  19.243   4.217
37293W        W98604   3.339  21.262   2.323
37294W        W98605  43.400   5.864  12.519
37295W        W98606  14.131  11.699   3.644
37296W        W98607  11.651  34.422  11.940
37297W        W98608   7.706  30.606  13.946
37298W        W98609  14.761  38.010   1.898
37299W        W98610  20.711  32.444   4.729
37300W        W98611  41.994   1.946  14.446
37301W        W98612  43.320  15.274  13.527
37302W        W98613   9.230  21.100   4.351
37303W        W98614  38.964  31.921  14.961
37304W        W98615  15.659  13.266  12.924
37305W        W98616  33.106  12.814  10.915
37306W        W98617  11.314  41.317   0.943
37307W        W98618  32.068   3.751   2.334
37308W        W98619  27.481   5.333  11.871
37309W        W98620  39.373  32.012  10.539
37310W        W98621  14.610   7.893   5.158
37311W        W98622  32.526  32.071  11.025
37312W        W98623  14.189  31.029  11.036
37313W        W98624  15.304   2.900  12.876
37314W        W98625   2.366   9.308  13.008
37315W        W98626  24.625  24.995   1.231
37316W        W98627  23.561   3.397   2.401
37317W        W98628  31.134  36.398  13.053
37318W        W98629  26.479  26.647  11.125
37319W        W98630   2.363  11.353   0.797
37320W        W98631   6.288  23.159   2.711
37321W        W98632  21.706  43.441   5.223
37322W        W98633  26.104  44.899  12.442
37323W        W98634  19.546   7.206   2.351
37324W        W98635  44.847  22.167   2.232
37325W        W98636  11.761  41.023  11.479
37326W        W98637  29.095  28.173   4.728
37327W        W98638  27.054  35.092   4.127
37328W        W98639  38.018   4.424  14.024
37329W        W98640  23.496  33.484  11.991
37330W        W98641  31.933  43.303  12.846
37331W        W98642  21.034  12.217  14.909
37332W        W98643  43.809  13.105  12.481
37333W        W98644  16.792  21.744  12.888
37334W        W98645  11.299  15.088  13.334
37335W        W98646  28.185  20.115   2.734
37336W        W98647   2.913  41.432   0.248
37337W        W98648  21.679  22.614  11.044
37338W        W98649  26.476  14.742  14.865
37339W        W98650  33.444  13.290   0.943
37340W        W98651  40.339  26.953  11.546
37341W        W98652  39.927   6.238   1.920
37342W        W98653   5.726  10.749  12.340
37343W        W98654   0.771  41.476  11.056
37344W        W98655   2.467   5.289   3.169
37345W        W98656   1.442  26.479  14.993
37346W        W98657   0.265  14.124   4.298
37347W        W98658  26.144  28.662  14.930
37348W        W98659   0.819  23.490   2.870
37349W        W98660  15.623   8.839   0.968
37350W        W98661  11.827  39.001  10.576
37351W        W98662  28.677  30.426  13.423
37352W        W98663   2.831   9.268   3.636
37353W        W98664  33.044  31.526  10.526
37354W        W98665  33.944  37.555   3.871
37355W        W98666  23.059  29.967   0.836
37356W        W98667  16.103  35.466  14.421
37357W        W98668  23.136  41.895  12.538
37358W        W98669  26.496   6.388   1.254
37359W        W98670   2.933  19.624   1.408
37360W        W98671  25.484  17.198  13.932
37361W        W98672   1.340  29.055  13.326
37362W        W98673  17.622   9.373  14.431
37363W        W98674  25.627  36.593   0.255
37364W        W98675  11.786   8.336  10.020
37365W        W98676   6.804  36.045   1.306
37366W        W98677  29.001  10.729   1.435
37367W        W98678  33.444  32.012  12.510
37368W        W98679  40.442  38.046   2.301
37369W        W98680  18.289  13.207   3.215
37370W        W98681  25.174  30.658  10.629
37371W        W98682  44.315  44.393  11.012
37372W        W98683  15.605   9.825  11.997
37373W        W98684  20.167  30.634   3.188
37374W        W98685  42.399  40.047  13.475
37375W        W98686  36.879   7.766   1.331
37376W        W98687  36.577   9.272  12.072
37377W        W98688  23.685  15.133   3.334
37378W        W98689  24.088   1.753  12.970
37379W        W98690   0.927  39.394   0.733
37380W        W98691  23.534  21.219  10.111
37381W        W98692  15.281  14.751   5.090
37382W        W98693   5.777   1.835  12.367
37383W        W98694  12.725  15.267   1.421
37384W        W98695  31.413  26.010  10.975
37385W        W98696  39.984   4.883   1.930
37386W        W98697  29.992   1.421  11.868
37387W        W98698  37.871  38.410  14.360
37388W        W98699   4.767  12.330   2.803
37389W        W98700  24.081   3.815  13.964
37390W        W98701  23.011  31.999  14.995
37391W        W98702   5.322   1.443   0.255
37392W        W98703  39.472  37.981  12.060
37393W        W98704  20.651   3.717   4.757
37394W        W98705  20.084  25.646  12.921
37395W        W98706  44.872  32.885   2.766
37396W        W98707   8.353  13.766   2.210
37397W        W98708  36.396  31.403   2.304
37398W        W98709  43.488  12.646   2.324
37399W        W98710  32.095   7.688  11.588
37400W        W98711  43.273  29.482   2.902
37401W        W98712  43.453   5.785   1.315
37402W        W98713  44.931  16.250  11.004
37403W        W98714  11.754  29.165   2.864
37404W        W98715  22.236   5.321   3.804
37405W        W98716   1.450  10.353   3.194
37406W        W98717   2.335  38.980   1.351
37407W        W98718  36.548  28.545  13.833
37408W        W98719   0.329  14.100   0.956
37409W        W98720  14.174  29.996  12.896
37410W        W98721  36.866  24.582   2.730
37411W        W98722   3.756  24.057  14.783
37412W        W98723  27.013  24.994   5.228
37413W        W98724  37.853  26.645   4.114
37414W        W98725   2.371   9.191  14.002
37415W        W98726   3.822  14.194   1.223
37416W        W98727   3.278  26.613  12.071
37417W        W98728  12.843  30.989   1.356
37418W        W98729  23.643  29.527  10.477
37419W        W98730   2.401  23.691   1.228
37420W        W98731  33.011  42.927  12.877
37421W        W98732  40.848  41.319   1.775
37422W        W98733  24.493  34.573   2.271
37423W        W98734  15.618  31.108  14.467
37424W        W98735  38.462  31.547  11.463
37425W        W98736  28.617   4.426   0.870
37426W        W98737  11.329  39.353   2.826
37427W        W98738   4.713  41.036   3.366
37428W        W98739  26.701  15.306   1.720
37429W        W98740   2.339  15.823   2.776
37430W        W98741  17.733   1.437  10.546
37431W        W98742  44.378  25.710  11.891
37432W        W98743  27.469  40.833   1.254
37433W        W98744   9.347  24.997   5.311
37434W        W98745  27.506  36.906  11.073
37435W        W98746  42.380  41.859  11.496
37436W        W98747  43.816  12.290   3.306
37437W        W98748   2.440  18.117   5.273
37438W        W98749  41.465  20.072   0.309
37439W        W98750   2.245  38.361   1.766
37440W        W98751  42.845  27.100  10.581
37441W        W98752  22.109  37.543  11.600
37442W        W98753  18.083   2.765  11.609
37443W        W98754  27.536   8.846   1.730
37444W        W98755  24.114  23.556   4.192
37445W        W98756  37.858  34.093  13.423
37446W        W98757  38.829  31.493  10.112
37447W        W98758  18.185   3.281   1.308
37448W        W98759  12.713  19.135   0.419
37449W        W98760  28.644  37.927   2.828
37450W        W98761  30.481   3.338   4.301
37451W        W98762  31.513  19.555  13.018
37452W        W98763  22.105  14.264  14.401
37453W        W98764  27.636  25.523  14.329
37454W        W98765  44.920  10.223   4.725
37455W        W98766  12.117  14.709  13.953
37456W        W98767  43.785  21.030   1.815
37457W        W98768   8.707   3.406   1.832
37458W        W98769  31.487  29.074   3.766
37459W        W98770  35.084   4.393  10.446
37460W        W98771   6.691   3.354   0.355
37461W        W98772  42.371  13.273   1.812
37462W        W98773   7.809  17.799  14.780
37463W        W98774  19.274  19.559  10.937
37464W        W98775  39.876  28.447   0.367
37465W        W98776   3.251  43.376   2.867
37466W        W98777  20.743  11.724   1.762
37467W        W98778  28.067   3.312  12.362
37468W        W98779   1.841  24.569   4.674
37469W        W98780  10.319  33.395   1.322
37470W        W98781  14.129  42.508   4.772
37471W        W98782  11.729  40.907   1.735
37472W        W98783  27.458  20.096  14.307
37473W        W98784  10.803  29.934   4.121
37474W        W98785  22.098  37.424  10.976
37475W        W98786  44.439   1.471   4.224
37476W        W98787  10.189   8.302  13.870
37477W        W98788   3.445  11.754   1.700
37478W        W98789  19.571   3.395   3.190
37479W        W98790   9.807   4.902  14.881
37480W        W98791  14.799   8.758   2.302
37481W        W98792  18.633  30.044   3.287
37482W        W98793  11.732  37.488  13.986
37483W        W98794  33.062  16.723  14.393
37484W        W98795   2.731  10.667  12.927
37485W        W98796   9.166  26.572   4.677
37486W        W98797   7.687  27.666  14.446
37487W        W98798  42.405  18.665   0.844
37488W        W98799  12.634  19.571   3.700
37489W        W98800  41.800   5.831   3.720
37490W        W98801  33.117   7.891   1.762
37491W        W98802  39.363  31.495  11.940
37492W        W98803   0.287  18.252  12.827
37493W        W98804   1.417   1.883   1.294
37494W        W98805   9.711  24.978   2.839
37495W        W98806  10.755  39.389   4.252
37496W        W98807  30.924  30.460   5.110
37497W        W98808  16.126  30.967  11.054
37498W        W98809  32.488  37.007   1.415
37499W        W98810  33.394  14.798  10.487
37500W        W98811  12.135  38.421  11.540
37501W        W98812  41.027  35.937   1.793
37502W        W98813  10.159  20.744   0.413
37503W        W98814  42.791  38.980  14.305
37504W        W98815  28.136  36.891  10.081
37505W        W98816   6.221  29.072   1.380
37506W        W98817  27.092  37.546   4.814
37507W        W98818  35.032   4.922   0.462
37508W        W98819  34.434  22.594  11.905
37509W        W98820  35.387  18.544   4.144
37510W        W98821   7.405   8.882   2.205
37511W        W98822  18.559  32.065  13.541
37512W        W98823   0.911  43.946  13.368
37513W        W98824  30.459  17.123  10.921
37514W        W98825  31.571  40.359  12.484
37515W        W98826  43.979  42.372  14.995
37516W        W98827  33.889  10.189   4.802
37517W        W98828  22.177  14.736   2.339
37518W        W98829  25.635  31.147  13.991
37519W        W98830  32.580  21.039   3.243
37520W        W98831   1.931  19.145  13.821
37521W        W98832  39.985  11.766  11.993
37522W        W98833  24.987   4.912   4.711
37523W        W98834  44.777  42.807   1.826
37524W        W98835  21.723  43.311   3.752
37525W        W98836   6.253  34.407   2.810
37526W        W98837  36.891  29.066  12.040
37527W        W98838  27.681  40.848   0.915
37528W        W98839   1.368  18.075  10.985
37529W        W98840  13.184  27.635   2.382
37530W        W98841  23.088  25.041  14.299
37531W        W98842   6.370  29.637   0.857
37532W        W98843  18.771  21.186   2.235
37533W        W98844  13.721  23.204  12.844
37534W        W98845  41.875   9.733   2.371
37535W        W98846  42.369  38.867  10.407
37536W        W98847   6.704   0.430  11.529
37537W        W98848  30.416  32.028  13.343
37538W        W98849  15.137  24.610  11.435
37539W        W98850  44.454   6.835   3.331
37540W        W98851   4.855  25.639  12.020
37541W        W98852  35.920  35.447   0.758
37542W        W98853  43.310  24.558   3.758
37543W        W98854  18.761   1.349   3.733
37544W        W98855  26.004   4.736  10.456
37545W        W98856  38.955  33.942   4.191
37546W        W98857  10.647   5.783   2.703
37547W        W98858  20.072  42.369  14.823
37548W        W98859  33.458  42.944  13.412
37549W        W98860  24.635  27.471  10.551
37550W        W98861  23.635   2.863  13.470
37551W        W98862  14.170   0.804  13.328
37552W        W98863   2.733  29.008   1.918
37553W        W98864  43.886   0.772  13.960
37554W        W98865  17.228  37.346   3.688
37555W        W98866  40.016  10.341   2.379
37556W        W98867  18.758   7.764  14.508
37557W        W98868  16.094  31.107  13.940
37558W        W98869   6.302  28.013   1.301
37559W        W98870  24.096   6.347  12.083
37560W        W98871  40.966  18.559   3.367
37561W        W98872  22.176   4.443   3.803
37562W        W98873  10.747  43.874  14.402
37563W        W98874  23.629  41.322   3.833
37564W        W98875  36.872  22.065   1.836
37565W        W98876  16.294  19.645  11.960
37566W        W98877  37.573  20.652  14.361
37567W        W98878   9.250   6.332  14.891
37568W        W98879  21.017  22.067   0.961
37569W        W98880  11.315  29.435  14.405
37570W        W98881  18.555  18.127   2.321
37571W        W98882  44.396  11.217   0.375
37572W        W98883  35.886   6.261  14.403
37573W        W98884  10.737  44.351   0.428
37574W        W98885  27.512  34.373  14.996
37575W        W98886  15.233  35.993   3.241
37576W        W98887  25.219  21.659  12.979
37577W        W98888  29.511  18.641  13.969
37578W        W98889  33.935   5.729  14.419
37579W        W98890  31.623   2.905  12.580
37580W        W98891  42.487  35.588   0.907
37581W        W98892  27.633  42.867   3.751
37582W        W98893  41.787  42.428  11.441
37583W        W98894  20.149  20.602  14.838
37584W        W98895  42.360  32.634   0.928
37585W        W98896   2.862   7.245  10.630
37586W        W98897   0.353   1.859  10.601
37587W        W98898  44.275   2.292   4.778
37588W        W98899  34.497  36.473  13.058
37589W        W98900  18.789   7.261   4.334
37590W        W98901  18.627  43.382  14.426
37591W        W98902  15.146  23.111   4.303
37592W        W98903  28.568   3.823  13.883
37593W        W98904  28.552   8.339   3.800
37594W        W98905  20.047   9.797   3.771
37595W        W98906   1.829  12.666   0.315
37596W        W98907  17.286  27.551   1.406
37597W        W98908  25.098  27.103   2.412
37598W        W98909  34.957  29.423  10.515
37599W        W98910  22.574   1.753   1.323
37600W        W98911  44.337  24.637   4.298
37601W        W98912  23.535  35.554   2.381
37602W        W98913  28.579  41.382  13.326
37603W        W98914  16.584  42.329   2.815
37604W        W98915  13.639  32.996   0.861
37605W        W98916  16.801  13.738   3.648
37606W        W98917  39.024   5.390  11.953
37607W        W98918  43.016  16.211   1.744
37608W        W98919  26.122  22.733  14.919
37609W        W98920   2.423  41.320   4.321
37610W        W98921  26.130  13.790   3.334
37611W        W98922  15.233   6.823   0.958
37612W        W98923  13.237   1.958  13.485
37613W        W98924  43.429   4.325  10.558
37614W        W98925  25.206  29.465  14.923
37615W        W98926  34.500  31.525   2.259
37616W        W98927  12.785  13.702  13.907
37617W        W98928   1.288   8.388  12.852
37618W        W98929   1.380  38.550   1.257
37619W        W98930  11.281  41.436   3.869
37620W        W98931  43.375  10.678  13.801
37621W        W98932  10.152  27.942  12.826
37622W        W98933  21.608  38.022   9.965
37623W        W98934  16.146  17.298   0.823
37624W        W98935  39.042  43.840  12.464
37625W        W98936  37.408  33.065  12.984
37626W        W98937  38.072  37.036   5.774
37627W        W98938  13.818   2.747  14.278
37628W        W98939   1.877  17.744  13.915
37629W        W98940  16.161  34.113  11.452
37630W        W98941   4.311  37.465   2.724
37631W        W98942  37.020   9.287  11.918
37632W        W98943   7.406  44.288   1.227
37633W        W98944   1.359  22.140   1.297
37634W        W98945  44.839   3.791   0.861
37635W        W98946   9.678  11.189  14.847
37636W        W98947  30.428  39.970  12.082
37637W        W98948   4.725  23.528   0.758
37638W        W98949  25.582  29.434   0.404
37639W        W98950  13.349  20.165  13.924
37640W        W98951  36.366   9.699   1.901
37641W        W98952  41.507  10.298  11.505
37642W        W98953  38.978   9.818  13.875
37643W        W98954  37.016   8.750   0.966
37644W        W98955  44.401  40.025  12.939
37645W        W98956  29.175  26.656  14.852
37646W        W98957  26.037  19.663   4.180
37647W        W98958  13.312   4.709   3.708
37648W        W98959  35.577  37.060  14.302
37649W        W98960  35.384  25.605  14.934
37650W        W98961  20.722  11.840  10.519
37651W        W98962  34.462  40.479   4.605
37652W        W98963  13.688  22.036   1.357
37653W        W98964  26.580   8.197   4.345
37654W        W98965  30.587  10.638  14.291
37655W        W98966  23.667  32.047   3.735
37656W        W98967  32.079   9.214  13.523
37657W        W98968  16.122  28.456  11.989
37658W        W98969  17.713   5.260  14.481
37659W        W98970  38.983  44.435   2.683
37660W        W98971   3.851  23.647   0.463
37661W        W98972   6.316  40.548  10.043
37662W        W98973   0.790  37.942   0.280
37663W        W98974  19.213  44.755  14.916
37664W        W98975  21.714  30.445   4.125
37665W        W98976  10.781  44.461  13.801
37666W        W98977   7.769  44.419   3.280
37667W        W98978  44.984  11.332   2.328
37668W        W98979  12.321   9.711  10.935
37669W        W98980  30.594  14.666   1.709
37670W        W98981  36.462  21.560   1.851
37671W        W98982  43.968  21.177   3.344
37672W        W98983   6.741  18.171   2.725
37673W        W98984  41.942  42.800   3.383
37674W        W98985  30.640  16.629  12.356
37675W        W98986  11.760  35.856  11.880
37676W        W98987   1.866   9.332  12.091
37677W        W98988   4.387  22.702   4.824
37678W        W98989  43.982  25.205  13.543
37679W        W98990  15.813  25.978  12.086
37680W        W98991  37.936  29.509  10.548
37681W        W98992  24.635  17.253   3.281
37682W        W98993  35.363   7.269  10.943
37683W        W98994  15.712  43.508   1.337
37684W        W98995   8.161   4.382   1.844
37685W        W98996   7.251   7.358  12.879
37686W        W98997  13.143  37.949  12.448
37687W        W98998  25.556  39.516   0.452
37688W        W98999  37.068  18.112   4.336
37689W        W99000  44.444  32.099   4.671
37690W        W99001  17.707  34.389  10.989
37691W        W99002  22.135  39.519   2.848
37692W        W99003  14.724  30.154   3.668
37693W        W99004  20.733  30.993   3.184
37694W        W99005  22.574  10.319  10.464
37695W        W99006  26.541  14.248   0.903
37696W        W99007  16.724  11.634   4.696
37697W        W99008  27.581   9.752  11.085
37698W        W99009  31.609  22.207  14.511
37699W        W99010   6.286  34.995   1.324
37700W        W99011  33.963  39.047   2.395
37701W        W99012  33.934   9.818  11.592
37702W        W99013  16.131  43.783  12.043
37703W        W99014  39.336  37.980   3.337
37704W        W99015  27.038  41.478  13.339
37705W        W99016  29.123  25.119   4.235
37706W        W99017  29.047   2.954  10.053
37707W        W99018   4.213  23.546   0.403
37708W        W99019   5.896   6.880  11.462
37709W        W99020  22.006  15.728   4.193
37710W        W99021  40.842  37.043   1.912
37711W        W99022  16.667  41.462   4.341
37712W        W99023   4.289  36.088  12.872
37713W        W99024  12.189  25.186  10.048
37714W        W99025  12.828  43.310  13.016
37715W        W99026  12.823  38.975  13.949
37716W        W99027  16.794  44.813   3.856
37717W        W99028  16.205  44.755   4.166
37718W        W99029  38.037  19.624  14.459
37719W        W99030  18.684  11.707   2.781
37720W        W99031  24.091   4.376  11.030
37721W        W99032  39.553  30.427  13.342
37722W        W99033   1.278  42.394  13.001
37723W        W99034  12.630  36.998   0.775
37724W        W99035  17.277  28.578   4.692
37725W        W99036  40.044  16.709  13.397
37726W        W99037  39.419  37.363   3.245
37727W        W99038  42.307  32.116  14.431
37728W        W99039  33.590  32.632  13.508
37729W        W99040  22.232  14.327   4.326
37730W        W99041   7.192  40.969  14.869
37731W        W99042  41.843  44.301   0.281
37732W        W99043  17.680  23.570   5.108
37733W        W99044   5.764  22.173  13.520
37734W        W99045  32.076   3.249   4.273
37735W        W99046   6.199  36.069  10.504
37736W        W99047  38.831  13.676  11.033
37737W        W99048  35.542  10.829  13.485
37738W        W99049  25.655  37.422   2.676
37739W        W99050  10.694  22.580  12.996
37740W        W99051   7.304   8.756   1.402
37741W        W99052  42.955  43.837  12.054
37742W        W99053  29.442  17.659   3.285
37743W        W99054  40.352   1.274  10.601
37744W        W99055  19.146  39.015  10.055
37745W        W99056  37.425  23.037  14.414
37746W        W99057  19.678  41.336  10.466
37747W        W99058   8.249  37.452   3.711
37748W        W99059  19.662  34.975  12.051
37749W        W99060   6.309  32.085   1.377
37750W        W99061  12.162   9.841  10.410
37751W        W99062  13.629   5.259   4.137
37752W        W99063  23.689  19.604  10.010
37753W        W99064  32.535  16.753   1.718
37754W        W99065  30.572  27.449   4.318
37755W        W99066   5.746  30.921  12.954
37756W        W99067   9.176   8.841   4.215
37757W        W99068  40.534  16.645  14.782
37758W        W99069  20.571   8.250  14.380
37759W        W99070   6.383  27.602   4.632
37760W        W99071  15.745  10.198   0.450
37761W        W99072  35.591  12.667   0.250
37762W        W99073  15.722  20.638  11.604
37763W        W99074  36.045  18.763   4.294
37764W        W99075  12.792  32.899  13.019
37765W        W99076  25.992  37.539  14.383
37766W        W99077  10.683  23.550  11.889
37767W        W99078  30.426  16.727  11.419
37768W        W99079  13.260  43.909   4.712
37769W        W99080  22.688  14.252  13.453
37770W        W99081  13.215  26.078   3.244
37771W        W99082  27.561  17.089   4.190
37772W        W99083   9.753  13.768  11.517
37773W        W99084  21.736   3.287   0.357
37774W        W99085  13.217  38.846   0.826
37775W        W99086   6.349  15.778  11.477
37776W        W99087  24.038   9.171  12.510
37777W        W99088   3.321   0.751  14.999
37778W        W99089  29.128  43.400   3.281
37779W        W99090  40.410  22.237  10.961
37780W        W99091  24.493  29.069   2.786
37781W        W99092   8.257  36.486  11.116
37782W        W99093  29.012  10.661  13.877
37783W        W99094  20.672  42.924  10.545
37784W        W99095  11.752  39.978  10.036
37785W        W99096  41.458   7.791  14.366
37786W        W99097  39.839  36.427   0.326
37787W        W99098  31.133  23.211   3.739
37788W        W99099  28.035  27.169   3.769
37789W        W99100   3.237  15.590   3.352
37790W        W99101  18.659  27.010   4.706
37791W        W99102   9.695   1.938   1.814
37792W        W99103  37.879  16.795   3.654
37793W        W99104  20.127  17.564   0.752
37794W        W99105   5.238  11.228   4.645
37795W        W99106  42.814  27.589   0.880
37796W        W99107   8.700  32.050  12.009
37797W        W99108  13.824  42.816  13.853
37798W        W99109  24.983  43.344   2.903
37799W        W99110  29.583  24.523  13.539
37800W        W99111   6.260  36.486  11.954
37801W        W99112  17.655  34.072   2.193
37802W        W99113  21.154  15.658   1.436
37803W        W99114  18.689  31.062   0.276
37804W        W99115  13.194  21.100   1.287
37805W        W99116  14.773   6.889  14.995
37806W        W99117   9.225  40.430   2.302
37807W        W99118  23.065   1.959   2.393
37808W        W99119  37.019   6.188   0.346
37809W        W99120  38.368  18.744   0.855
37810W        W99121  43.892   0.747  12.535
37811W        W99122   3.878  38.473  12.554
37812W        W99123   9.825  26.687   3.755
37813W        W99124  41.476  26.953  13.798
37814W        W99125  10.740  32.434   1.217
37815W        W99126   5.707  40.372  13.798
37816W        W99127  36.038  33.471  14.843
37817W        W99128  21.110  16.812  13.837
37818W        W99129  31.439  42.319  12.531
37819W        W99130  44.802  23.157   4.130
37820W        W99131  42.298  18.100  12.931
37821W        W99132  19.736  32.015  11.859
37822W        W99133   9.803  28.051  14.512
37823W        W99134  28.603  23.116  12.862
37824W        W99135  20.717   2.270   1.394
37825W        W99136  29.928  28.023   1.821
37826W        W99137  32.040  37.575   2.722
37827W        W99138   5.873   2.838  11.011
37828W        W99139  29.449  42.409  13.524
37829W        W99140  36.979  42.951  14.321
37830W        W99141  14.611  42.423   4.638
37831W        W99142   6.339  28.170   2.233
37832W        W99143  17.206  33.508  12.553
37833W        W99144  12.832  38.548  14.831
37834W        W99145  16.625  31.429  11.383
37835W        W99146  20.753   1.944   4.597
37836W        W99147   1.866   6.744  12.492
37837W        W99148  33.484  16.226   2.841
37838W        W99149   6.357  16.113   3.807
37839W        W99150  31.467  44.330   2.825
37840W        W99151  42.938  27.071  13.050
37841W        W99152  24.639  42.978  10.961
37842W        W99153  18.199  29.055   2.708
37843W        W99154  34.963  40.455  14.462
37844W        W99155   1.855   7.358  11.412
37845W        W99156   4.258  35.007  13.919
37846W        W99157  20.534  23.563  13.843
37847W        W99158  14.258  23.076  14.969
37848W        W99159  20.085   0.321  13.012
37849W        W99160  39.453  14.265   5.198
37850W        W99161  22.621  24.500  10.405
37851W        W99162  12.267  12.232   4.162
37852W        W99163  26.151  35.975   1.753
37853W        W99164  34.402   2.323   2.895
37854W        W99165  32.967  40.045  14.396
37855W        W99166  35.450  43.496   3.813
37856W        W99167  30.543  37.509   5.256
37857W        W99168   9.878  42.420  14.482
37858W        W99169  16.152  44.269  14.934
37859W        W99170   1.363  14.722  11.940
37860W        W99171  22.711  30.968   5.160
37861W        W99172  21.118  42.505   2.347
37862W        W99173  27.065  16.182  14.002
37863W        W99174  21.111  16.106  12.403
37864W        W99175  39.004  35.464  14.917
37865W        W99176  12.773   5.342  14.833
37866W        W99177  17.735   5.193  12.581
37867W        W99178   9.850  26.990   2.227
37868W        W99179  13.767  38.346  14.849
37869W        W99180  36.046  13.845   3.366
37870W        W99181  30.032   4.773  11.928
37871W        W99182  43.368  30.608  11.467
37872W        W99183  27.038  29.987   2.732
37873W        W99184  31.409  12.280  14.441
37874W        W99185  38.518  23.106  13.535
37875W        W99186  25.468   9.688  11.122
37876W        W99187   4.750  40.419   1.221
37877W        W99188  22.212   6.237   0.405
37878W        W99189   5.282  33.420   1.777
37879W        W99190  44.873  21.747   2.711
37880W        W99191  13.720  30.020   3.383
37881W        W99192  44.918  40.541  13.934
37882W        W99193  11.191  14.804  13.484
37883W        W99194  35.931  30.477  12.066
37884W        W99195  16.629   4.259  13.369
37885W        W99196  26.962  20.030   4.234
37886W        W99197  13.284  44.756   0.766
37887W        W99198   6.254  40.457  10.642
37888W        W99199   6.353  20.709  11.521
37889W        W99200  43.786  34.051  12.895
37890W        W99201   6.849  35.494   4.802
37891W        W99202  13.280  31.612  14.859
37892W        W99203  20.642   6.706   2.857
37893W        W99204  33.905  34.577   1.904
37894W        W99205  25.984  19.639   3.850
37895W        W99206  18.644  20.751   0.836
37896W        W99207  15.712  10.294  13.863
37897W        W99208  19.200  28.543  11.884
37898W        W99209  15.217  26.999   3.659
37899W        W99210  44.341  38.417   0.733
37900W        W99211   1.751  40.947   1.216
37901W        W99212  22.647  21.093   1.919
37902W        W99213  28.666  34.007  11.451
37903W        W99214  20.707  15.754   2.185
37904W        W99215  16.225  41.849   0.254
37905W        W99216   5.405  33.953   1.853
37906W        W99217  10.367   8.771  10.976
37907W        W99218  21.534   7.256   3.321
37908W        W99219  22.667  41.507  11.376
37909W        W99220  14.786  32.629   4.826
37910W        W99221  31.016  27.532  11.511
37911W        W99222  35.509  37.380  10.536
37912W        W99223  44.466  10.723  12.418
37913W        W99224  33.046  38.028   1.423
37914W        W99225  27.463  29.438  12.824
37915W        W99226  21.585  24.540  14.959
37916W        W99227  31.013  13.125   2.836
37917W        W99228   0.746  44.285   1.441
37918W        W99229  15.314  19.558  10.405
37919W        W99230  18.072  44.759  12.551
37920W        W99231  30.939  10.154  13.439
37921W        W99232  40.968  42.397   2.840
37922W        W99233  40.547   3.352   1.696
37923W        W99234  16.242   0.858  12.411
37924W        W99235  22.628  35.552   0.462
37925W        W99236  30.656  40.023   2.330
37926W        W99237  28.155  22.134   2.329
37927W        W99238  17.757  32.461  11.879
37928W        W99239   8.726  21.544  11.593
37929W        W99240  32.437  11.650   1.765
37930W        W99241  35.987  28.953  11.029
37931W        W99242  23.230   0.407  10.574
37932W        W99243  22.999  32.604  14.938
37933W        W99244  33.007  20.190   2.253
37934W        W99245  39.834  11.725   4.789
37935W        W99246   2.447   5.923   3.728
37936W        W99247  13.213  14.165  11.507
37937W        W99248   1.360  35.029  11.960
37938W        W99249   2.901   4.404   2.747
37939W        W99250  36.058  34.445  10.495
37940W        W99251  28.083  40.362  14.331
37941W        W99252   5.291  36.386   4.801
37942W        W99253  27.068  17.219   0.349
37943W        W99254   4.417  40.997   2.823
37944W        W99255   2.784  21.725   4.835
37945W        W99256  33.465  40.338  14.943
37946W        W99257  11.770   7.722  12.387
37947W        W99258  35.033  43.770  13.795
37948W        W99259  24.693  38.001  13.363
37949W        W99260  31.995  40.883  14.968
37950W        W99261   0.273   5.730   1.368
37951W        W99262   7.274  23.236  12.428
37952W        W99263  41.921  43.951  13.845
37953W        W99264  23.120   0.416   1.919
37954W        W99265  36.382  43.865   3.803
37955W        W99266  34.448  43.457  10.516
37956W        W99267   4.314  42.857  14.321
37957W        W99268  41.425   1.894   1.348
37958W        W99269   7.753  32.440   2.389
37959W        W99270  14.752  27.088  14.491
37960W        W99271  36.861  32.523  13.507
37961W        W99272   9.360  18.221  12.421
37962W        W99273  43.913   8.316  14.918
37963W        W99274   4.866  12.636   2.288
37964W        W99275  28.119  22.050   2.724
37965W        W99276  33.054  24.589   3.652
37966W        W99277  19.207  39.905   4.805
37967W        W99278  29.174   1.747  11.061
37968W        W99279  35.412  32.070  14.369
37969W        W99280  37.459   9.215   4.116
37970W        W99281  12.347  19.609  14.774
37971W        W99282  33.531  38.843  13.535
37972W        W99283  39.041  11.838  11.453
37973W        W99284  16.192  40.347   1.902
37974W        W99285  35.084  28.997  13.871
37975W        W99286  23.130  15.278  12.884
37976W        W99287   2.447   3.351   2.706
37977W        W99288   5.289  17.181  13.971
37978W        W99289  42.384  30.451  12.346
37979W        W99290  29.929   4.744  14.357
37980W        W99291  34.513  32.598  12.553
37981W        W99292  39.559  41.970  10.521
37982W        W99293   5.314  20.117  11.971
37983W        W99294   7.748  31.112   0.777
37984W        W99295   7.176  31.133  11.392
37985W        W99296  16.809  35.429   4.238
37986W        W99297  18.145  32.547   0.267
37987W        W99298  40.491  30.424  13.019
37988W        W99299  32.428  28.129   0.751
37989W        W99300   9.298  21.017   1.402
37990W        W99301  28.442  16.645   0.921
37991W        W99302  29.622  14.144  13.315
37992W        W99303  24.183  40.402   4.273
37993W        W99304   0.983  17.740   0.908
37994W        W99305   3.873  22.597   2.202
37995W        W99306  44.756   1.802  12.942
37996W        W99307  13.679  40.392  10.896
37997W        W99308   6.832   7.235  10.962
37998W        W99309  22.052   6.361   4.183
37999W        W99310  22.707  39.540   3.352
38000W        W99311  24.723  17.670   2.235
38001W        W99312   1.768   1.809  12.059
38002W        W99313  38.386  32.068   4.756
38003W        W99314  11.747  12.236   3.743
38004W        W99315   2.950  38.494   3.655
38005W        W99316   4.765  29.054   3.325
38006W        W99317  41.918   2.355   4.263
38007W        W99318   7.902  11.307  12.026
38008W        W99319  17.252  41.425  14.484
38009W        W99320  40.440  25.622   4.828
38010W        W99321  41.027   2.240  13.343
38011W        W99322  11.754  22.740   0.823
38012W        W99323   7.338  21.209   0.425
38013W        W99324  20.655  29.106   2.760
38014W        W99325  15.705  10.813  10.996
38015W        W99326  17.573   1.337  12.465
38016W        W99327  18.630  43.943   3.648
38017W        W99328  13.207  44.817   3.168
38018W        W99329  37.968  19.771   3.236
38019W        W99330  14.291  40.353  14.291
38020W        W99331  24.118  36.088  14.377
38021W        W99332  19.558  42.845  14.373
38022W        W99333  29.614  14.826   3.711
38023W        W99334   1.954  27.052   4.269
38024W        W99335  19.048  23.528  12.555
38025W        W99336  31.136  20.072  12.421
38026W        W99337  30.639  20.253   3.334
38027W        W99338  38.047   8.817  13.477
38028W        W99339  27.005  24.975   3.348
38029W        W99340  15.194  10.776   3.157
38030W        W99341  32.098  21.641   2.278
38031W        W99342   4.725   7.383  14.321
38032W        W99343   9.221   0.256   3.686
38033W        W99344  12.687   0.341  13.021
38034W        W99345  20.118  24.714   0.257
38035W        W99346  34.609  44.807   1.764
38036W        W99347   9.332  19.089  11.122
38037W        W99348   1.285  34.020   1.731
38038W        W99349  16.110  36.392   1.357
38039W        W99350  13.255  10.691   2.769
38040W        W99351  16.236  31.922   3.758
38041W        W99352  36.900  37.048   4.137
38042W        W99353  11.365   8.404   3.296
38043W        W99354  21.724  14.681   3.757
38044W        W99355  23.655  12.303  12.887
38045W        W99356  28.486   7.772   0.350
38046W        W99357   3.387  44.477   0.399
38047W        W99358  29.965  28.615  11.103
38048W        W99359  31.998  24.507   4.829
38049W        W99360  22.055  32.548   2.830
38050W        W99361  42.359   3.741  13.028
38051W        W99362  38.571  28.960  11.428
38052W        W99363  22.581  33.011  13.349
38053W        W99364  40.903  17.677  10.580
38054W        W99365  11.146  13.138  13.938
38055W        W99366  25.508  26.205  11.372
38056W        W99367  28.633  14.820   0.871
38057W        W99368  19.576  42.909  13.936
38058W        W99369  22.565  30.056  11.373
38059W        W99370  30.138  43.458   0.814
38060W        W99371   2.813   7.697   4.281
38061W        W99372  23.519  19.080  12.061
38062W        W99373  21.171  39.832   3.364
38063W        W99374  12.229  26.167  12.464
38064W        W99375  17.202  20.135   3.306
38065W        W99376  18.189  16.314   5.724
38066W        W99377  35.601  42.391  13.861
38067W        W99378  40.823  44.948   2.753
38068W        W99379  35.547  41.956   0.323
38069W        W99380  25.494  17.269   3.196
38070W        W99381   6.373  10.334   4.641
38071W        W99382  20.169   7.879   2.706
38072W        W99383  26.206  35.522  10.935
38073W        W99384  43.868  44.278  14.404
38074W        W99385   2.723  26.490  12.871
38075W        W99386   9.313  37.931  14.024
38076W        W99387  20.649  19.771  10.441
38077W        W99388  19.564  16.110  14.476
38078W        W99389   3.313  43.780  11.383
38079W        W99390  39.833  22.567   2.337
38080W        W99391  27.193  18.155  12.520
38081W        W99392  36.093  25.679   0.252
38082W        W99393   7.806  42.290   1.281
38083W        W99394   8.337  14.613   0.967
38084W        W99395  22.649  34.061  13.975
38085W        W99396  23.108  39.336  14.031
38086W        W99397  41.443  36.069  12.077
38087W        W99398  27.148   8.210   0.879
38088W        W99399  28.632  41.297  14.512
38089W        W99400  11.728  21.625  12.863
38090W        W99401  21.192  22.155  13.352
38091W        W99402   5.305  33.035  11.080
38092W        W99403  42.284  33.968  12.917
38093W        W99404   7.741  36.038   1.441
38094W        W99405  29.614  16.660  12.029
38095W        W99406   3.280  39.061   1.332
38096W        W99407  34.995  18.116   1.888
38097W        W99408  29.427  39.951   3.376
38098W        W99409  24.665  28.047   2.370
38099W        W99410  33.589  23.724  11.099
38100W        W99411  25.468  12.139   0.382
38101W        W99412  16.156  41.812   4.768
38102W        W99413  28.508  30.055   0.345
38103W        W99414   7.353  22.569   0.455
38104W        W99415  16.157  39.818  12.829
38105W        W99416  19.742  24.520   4.316
38106W        W99417   0.306  25.962   2.742
38107W        W99418   7.739  29.011  10.418
38108W        W99419  25.131  14.258   4.756
38109W        W99420  16.772   5.215   4.598
38110W        W99421  14.127  39.362   4.623
38111W        W99422  42.327  21.551  10.439
38112W        W99423  18.721  30.036  11.032
38113W        W99424  41.868   4.228  14.382
38114W        W99425  31.900  39.815  14.875
38115W        W99426  22.112  16.099   0.297
38116W        W99427   9.167  28.969  12.361
38117W        W99428   2.930  28.667   2.213
38118W        W99429  41.367  23.670  14.337
38119W        W99430  28.568  36.428  14.406
38120W        W99431  13.268   4.699   2.691
38121W        W99432  42.301  17.790   4.336
38122W        W99433  34.602  22.620  10.436
38123W        W99434  26.678  31.086  14.772
38124W        W99435   4.810  23.988   4.834
38125W        W99436  32.979  36.948  11.964
38126W        W99437   8.694  23.041  10.938
38127W        W99438  32.435  42.301  12.856
38128W        W99439   7.817  39.044  14.012
38129W        W99440  25.079  33.120   1.275
38130W        W99441   1.338  12.355   4.129
38131W        W99442  13.257  37.467  12.015
38132W        W99443  23.532   2.366   2.376
38133W        W99444  33.932   3.277   3.190
38134W        W99445  20.169  40.047   0.942
38135W        W99446  13.783  38.835   4.776
38136W        W99447  25.074  20.767   4.717
38137W        W99448  41.339   5.317  13.918
38138W        W99449   8.385  17.222  11.389
38139W        W99450   2.767  13.273   4.115
38140W        W99451   3.735  11.714  10.540
38141W        W99452  30.111   2.840   1.767
38142W        W99453   1.963  38.931   3.825
38143W        W99454  16.739  42.890  13.411
38144W        W99455   6.406  18.194  12.078
38145W        W99456   1.240  37.437   3.317
38146W        W99457  42.514  29.918  12.561
38147W        W99458  22.252   6.773  11.933
38148W        W99459  30.967  10.714   0.374
38149W        W99460   0.441  27.645  10.416
38150W        W99461  34.115  27.129  13.360
38151W        W99462   2.753  34.511   0.810
38152W        W99463   2.238   3.939   4.750
38153W        W99464   8.219  23.230   2.269
38154W        W99465  20.543  44.297   0.295
38155W        W99466  43.891  41.042   3.323
38156W        W99467  32.109  43.812   0.930
38157W        W99468  37.571  23.613   4.287
38158W        W99469  44.798  38.855   4.776
38159W        W99470  21.222  12.755   2.364
38160W        W99471  42.470  11.135  10.952
38161W        W99472  31.988   3.461  11.051
38162W        W99473  11.311   8.896   1.241
38163W        W99474  15.123  29.063  10.967
38164W        W99475  17.610  31.413   3.375
38165W        W99476  28.962  43.932  12.094
38166W        W99477  29.979  39.335   3.868
38167W        W99478  31.091  25.117   4.677
38168W        W99479  38.986  20.640  11.429
38169W        W99480  26.173  14.152  12.416
38170W        W99481  29.166   7.367  12.005
38171W        W99482  44.989   1.408   0.367
38172W        W99483  27.033  12.845  11.892
38173W        W99484  14.759   9.815   2.778
38174W        W99485  24.549  12.745  14.900
38175W        W99486  42.307  33.469  14.360
38176W        W99487  30.533  35.033   0.322
38177W        W99488  35.966  11.209   0.394
38178W        W99489  25.049  25.143  14.354
38179W        W99490  20.667  40.865  14.357
38180W        W99491  43.810   5.875  14.422
38181W        W99492  33.075  16.109  10.911
38182W        W99493   4.262   0.424   1.366
38183W        W99494  27.955  15.308  14.766
38184W        W99495  12.277  27.121  11.557
38185W        W99496  38.536  26.486   3.313
38186W        W99497  23.060  37.016  12.880
38187W        W99498  24.586  12.754   2.392
38188W        W99499   7.874  26.551  13.893
38189W        W99500  30.485  22.564   1.413
38190W        W99501  44.932  39.441  11.078
38191W        W99502  42.893   6.323  12.359
38192W        W99503  13.174   4.910   1.385
38193W        W99504  28.959  32.430  14.758
38194W        W99505  40.800   6.771  11.429
38195W        W99506   3.863  32.903   3.774
38196W        W99507  25.163  29.091  13.325
38197W        W99508  30.034   0.266  10.489
38198W        W99509  14.590  29.049  11.025
38199W        W99510  16.115  29.992  12.494
38200W        W99511  34.492   4.716   3.294
38201W        W99512  28.950  17.698  10.453
38202W        W99513  42.469   0.285   3.868
38203W        W99514  26.955  23.568   4.833
38204W        W99515  14.710  23.610   1.409
38205W        W99516   6.768  38.536  10.546
38206W        W99517  41.966  35.056  10.406
38207W        W99518  20.697  22.010  11.545
38208W        W99519   6.879  10.268  12.560
38209W        W99520  43.915  24.149   1.370
38210W        W99521   1.938  12.805   2.311
38211W        W99522  41.538  12.345   3.351
38212W        W99523  28.983   0.409  10.454
38213W        W99524  20.655  12.779  13.449
38214W        W99525   1.335  44.431   3.372
38215W        W99526  23.525   9.886  14.377
38216W        W99527  28.679  20.582   0.897
38217W        W99528   6.323  40.892  12.964
38218W        W99529  41.510  31.489  14.488
38219W        W99530   7.382  31.545  11.884
38220W        W99531  43.434  41.913   4.760
38221W        W99532  20.637  25.109  14.357
38222W        W99533  41.405   1.408   3.852
38223W        W99534   4.355  43.488  12.579
38224W        W99535  30.557   7.715  14.460
38225W        W99536  10.748  21.686   1.266
38226W        W99537  18.194  34.589   2.775
38227W        W99538   5.843  28.538  11.417
38228W        W99539  43.825  31.050   1.433
38229W        W99540  25.026  42.317   2.179
38230W        W99541  40.424  14.259   1.354
38231W        W99542  25.005   0.375  10.535
38232W        W99543  11.137   6.681  13.489
38233W        W99544   5.348  26.655  10.599
38234W        W99545  38.419  15.722  12.556
38235W        W99546  10.821  42.510   2.282
38236W        W99547  12.345  36.990   3.864
38237W        W99548  31.420  43.929  14.388
38238W        W99549  31.908  21.621  10.908
38239W        W99550  42.032  42.439  13.531
38240W        W99551  23.208  44.961  12.505
38241W        W99552  19.047   3.319   0.774
38242W        W99553  25.529  33.400  11.475
38243W        W99554   8.313  34.029  12.500
38244W        W99555  26.479   6.320   4.123
38245W        W99556  24.004  25.145  14.804
38246W        W99557  13.811  27.635  11.010
38247W        W99558  14.235   0.798   3.867
38248W        W99559  38.878  26.083  13.417
38249W        W99560   8.213   8.175  14.796
38250W        W99561  29.091   6.422  10.580
38251W        W99562   2.769  33.432  13.009
38252W        W99563  17.280   1.746  11.096
38253W        W99564  38.997  15.664  14.301
38254W        W99565   6.769  12.360  11.103
38255W        W99566   4.847  13.643  10.642
38256W        W99567  20.182   6.334   3.258
38257W        W99568  32.091   4.872  13.975
38258W        W99569  25.476  13.220   4.275
38259W        W99570  33.108  11.749   2.329
38260W        W99571   6.919  30.626   2.309
38261W        W99572  16.687  16.695   0.424
38262W        W99573   5.846  19.053  13.016
38263W        W99574  41.414  35.488  12.543
38264W        W99575  24.105  41.957  12.011
38265W        W99576   8.274  37.988   2.205
38266W        W99577   0.798  34.565   1.695
38267W        W99578  42.509  43.944   1.864
38268W        W99579  11.640  31.907  13.828
38269W        W99580  13.678  40.487  12.433
38270W        W99581  25.988   5.388  10.078
38271W        W99582  34.542  38.971   1.726
38272W        W99583   0.866  28.043  10.450
38273W        W99584  14.165   5.821  11.529
38274W        W99585  18.054   1.426  14.897
38275W        W99586  11.639  14.268   2.899
38276W        W99587  42.467   9.735  13.515
38277W        W99588   8.900   2.465   0.448
38278W        W99589  37.011   8.312  10.588
38279W        W99590  29.653  17.578  12.862
38280W        W99591  26.676  41.792   1.341
38281W        W99592  34.384  15.225  11.591
38282W        W99593  14.726   9.778  13.344
38283W        W99594  17.679   2.738  13.547
38284W        W99595  30.414  30.625  14.505
38285W        W99596  16.133  21.068  13.336
38286W        W99597  39.030  14.812   1.326
38287W        W99598  38.537  20.666   4.821
38288W        W99599  20.035  11.332   1.790
38289W        W99600   6.349  15.731   0.354
38290W        W99601  44.851  19.108  14.372
38291W        W99602  27.048  20.153   1.414
38292W        W99603  42.895  37.571   4.743
38293W        W99604  43.885  39.941   1.792
38294W        W99605  13.833  23.070   4.284
38295W        W99606  38.853   9.258  12.390
38296W        W99607  17.170  21.587   4.638
38297W        W99608  10.746  21.525   1.770
38298W        W99609  10.239  26.557   4.257
38299W        W99610  42.498  37.075   0.917
38300W        W99611  19.748   8.356  13.950
38301W        W99612   1.294   4.313   3.847
38302W        W99613  41.477  37.919  12.556
38303W        W99614  44.818  24.124  10.415
38304W        W99615  12.271  17.296   2.681
38305W        W99616  10.332  39.958  10.544
38306W        W99617  26.170  44.492   2.774
38307W        W99618  30.527  19.173   3.774
38308W        W99619  25.057  41.333   2.695
38309W        W99620  12.660   4.294   0.908
38310W        W99621  21.574  24.593   1.339
38311W        W99622  40.968  16.626   4.675
38312W        W99623   1.390   7.857  13.811
38313W        W99624  14.767  44.872  14.384
38314W        W99625  12.186  14.104  13.502
38315W        W99626  24.722  26.054  11.594
38316W        W99627  36.021  25.493   5.199
38317W        W99628  17.278  20.676  14.786
38318W        W99629   8.850   7.730   0.264
38319W        W99630  31.908  29.151   3.774
38320W        W99631  41.385   3.419  11.484
38321W        W99632   4.860  43.880   1.309
38322W        W99633  35.046  37.484   1.776
38323W        W99634  44.933  21.756  12.018
38324W        W99635  37.847  15.187  14.793
38325W        W99636   7.906  39.462   0.769
38326W        W99637  32.053   2.423   0.909
38327W        W99638  30.041  37.417   3.306
38328W        W99639   4.785  17.141   3.328
38329W        W99640   6.820  39.999   1.778
38330W        W99641  10.189   9.359   0.785
38331W        W99642  12.330  32.037   2.313
38332W        W99643  17.248  26.078  14.913
38333W        W99644   1.245  18.737   4.145
38334W        W99645   2.291  25.683  12.989
38335W        W99646  43.855  20.550   1.785
38336W        W99647  22.189   1.466   2.386
38337W        W99648  31.962  13.662   4.698
38338W        W99649  28.003  14.651  14.480
38339W        W99650   7.343  19.114  10.995
38340W        W99651  22.231  44.976   3.715
38341W        W99652  24.564  38.487   1.740
38342W        W99653  17.102  44.760  10.631
38343W        W99654  19.632   5.243   4.217
38344W        W99655  25.205  24.170   0.806
38345W        W99656  11.766  35.906   3.695
38346W        W99657  43.322  14.332  10.463
38347W        W99658   1.351  37.013  13.539
38348W        W99659  33.957  39.935   1.814
38349W        W99660  11.814  28.089  11.402
38350W        W99661  25.666  21.709   2.839
38351W        W99662  42.001  13.304  13.975
38352W        W99663   4.263  30.555   0.963
38353W        W99664  13.701  25.680  12.399
38354W        W99665  29.611   8.394   0.281
38355W        W99666  11.768  30.485   5.220
38356W        W99667   6.801  12.278   3.630
38357W        W99668  20.713  42.778   5.104
38358W        W99669  42.971  30.450   0.884
38359W        W99670  32.554  36.998   0.839
38360W        W99671  26.554  41.354  13.908
38361W        W99672  22.652  29.579   2.324
38362W        W99673  30.613  34.552   0.815
38363W        W99674  44.809  16.132   0.923
38364W        W99675  33.566  25.498   2.734
38365W        W99676   9.229  11.753   1.280
38366W        W99677  32.137  22.617  12.394
38367W        W99678  27.629  41.790  12.968
38368W        W99679  14.318  43.320  11.903
38369W        W99680   8.818  43.438  14.828
38370W        W99681  11.323  23.010   3.205
38371W        W99682   2.900  26.516   3.279
38372W        W99683  29.065  25.549   0.387
38373W        W99684  18.754  42.340  13.453
38374W        W99685  38.531  13.634  11.432
38375W        W99686  28.571  14.830  12.479
38376W        W99687  21.214  22.632   2.305
38377W        W99688  38.046  16.081  11.893
38378W        W99689  22.631  42.432  14.939
38379W        W99690  42.343   0.291  13.830
38380W        W99691  28.575  37.581  14.303
38381W        W99692  38.946  20.162   0.787
38382W        W99693  12.649  23.067  14.808
38383W        W99694  44.772  43.910   3.344
38384W        W99695  20.668  27.683  13.484
38385W        W99696   2.225   9.770   1.697
38386W        W99697  26.061  31.539   4.158
38387W        W99698  16.633  35.433   3.160
38388W        W99699  38.351  14.641   0.395
38389W        W99700   0.433  22.706   1.739
38390W        W99701  30.132  28.603   1.825
38391W        W99702  42.874   0.920  11.095
38392W        W99703   6.815   5.322   4.258
38393W        W99704  41.019  33.902  11.982
38394W        W99705  36.459  29.664   2.705
38395W        W99706  26.617  36.928  14.027
38396W        W99707  23.166  38.424   1.702
38397W        W99708  29.491   3.718  11.113
38398W        W99709  36.917   9.818  10.558
38399W        W99710   1.827  22.075  11.392
38400W        W99711  12.723  36.405  13.827
38401W        W99712  26.143  18.690  12.427
38402W        W99713  13.181  43.490  13.791
38403W        W99714  33.121  40.869  12.079
38404W        W99715  43.477  37.893   4.333
38405W        W99716  19.693  35.068  14.486
38406W        W99717   8.263  16.727  11.425
38407W        W99718   7.860  44.380  13.974
38408W        W99719  37.005   9.646   1.830
38409W        W99720  29.564  20.630  12.365
38410W        W99721   5.437  39.815  14.833
38411W        W99722  14.331  21.184  11.033
38412W        W99723  14.653  33.480   1.238
38413W        W99724  17.670  22.153   3.165
38414W        W99725  29.146  39.493   0.750
38415W        W99726  40.497   2.382  11.435
38416W        W99727  20.730  36.054  13.520
38417W        W99728  10.177  36.082   3.290
38418W        W99729  26.513  39.449  12.970
38419W        W99730  41.981  11.746  13.419
38420W        W99731  19.284   1.434   3.291
38421W        W99732  20.091  18.055   3.791
38422W        W99733   9.742  16.687  11.024
38423W        W99734  32.622  24.693   3.200
38424W        W99735   6.240   2.437   4.161
38425W        W99736  39.011  12.325  14.956
38426W        W99737  40.424   5.247  11.395
38427W        W99738  26.543  26.651  13.518
38428W        W99739   0.396  27.101  13.333
38429W        W99740  43.904  11.683  11.422
38430W        W99741   9.677  44.397  13.858
38431W        W99742  42.821  35.602   4.155
38432W        W99743  13.754  27.994  13.828
38433W        W99744  42.816   0.470   0.827
38434W        W99745   9.675  13.206   1.770
38435W        W99746  42.463  14.812  14.491
38436W        W99747  17.178   3.743  12.541
38437W        W99748  39.062  38.570  12.488
38438W        W99749  22.154   8.170   3.321
38439W        W99750  31.952  34.508   4.767
38440W        W99751  37.032  32.455   3.859
38441W        W99752  34.950  21.088   2.832
38442W        W99753  29.945  33.972   2.268
38443W        W99754  32.551   2.831   0.306
38444W        W99755  13.833  13.601  10.628
38445W        W99756  15.231   9.310   4.135
38446W        W99757  29.968  23.095  14.507
38447W        W99758   0.470  30.109   3.630
38448W        W99759  28.583  24.590   1.911
38449W        W99760  19.765  26.976  12.091
38450W        W99761  40.887  10.202   0.861
38451W        W99762  24.519  43.904   0.812
38452W        W99763  30.972  42.293  14.765
38453W        W99764   3.276  26.639  13.324
38454W        W99765  26.169  33.999   1.804
38455W        W99766  28.069  35.003   5.192
38456W        W99767  14.282  33.003  13.914
38457W        W99768  24.696   7.691   1.315
38458W        W99769  11.372   3.713   2.866
38459W        W99770   3.711  27.181   0.352
38460W        W99771  37.404  40.517  14.879
38461W        W99772   5.266   8.283   2.254
38462W        W99773  20.636   5.351  13.382
38463W        W99774  17.654  28.464   1.441
38464W        W99775  24.057  30.600  12.341
38465W        W99776  34.419  16.802   4.224
38466W        W99777  39.981  10.331  11.601
38467W        W99778  39.520  11.191  14.987
38468W        W99779  11.696  25.663  13.929
38469W        W99780  14.748   7.225   4.754
38470W        W99781   2.814  12.200   4.152
38471W        W99782  19.151  37.574   0.824
38472W        W99783  20.119   9.156   2.890
38473W        W99784   4.874   0.963   9.968
38474W        W99785  33.403  26.113   3.157
38475W        W99786   1.479   8.882   1.703
38476W        W99787  35.589  28.484  11.550
38477W        W99788  11.824  13.210  13.039
38478W        W99789  24.696  36.493  11.567
38479W        W99790   5.698  32.531  11.473
38480W        W99791  38.388  20.271   0.289
38481W        W99792   0.844   4.913   5.191
38482W        W99793  34.539  13.123  12.495
38483W        W99794  34.589  39.033  11.957
38484W        W99795  25.596   3.831   0.377
38485W        W99796   7.760  23.143   3.182
38486W        W99797  31.019   4.813  12.057
38487W        W99798  11.777  44.796  13.537
38488W        W99799  42.885   2.867   2.745
38489W        W99800   1.810   8.254  11.055
38490W        W99801   9.684  39.046   3.684
38491W        W99802   8.850   4.391  14.795
38492W        W99803   7.278  21.240  13.983
38493W        W99804   1.885   4.706   1.735
38494W        W99805  33.610  11.788   3.740
38495W        W99806  33.090  15.175   0.917
38496W        W99807  20.221   1.349  12.576
38497W        W99808  29.436  10.860   3.730
38498W        W99809  22.152  32.973  10.438
38499W        W99810  14.803  36.983  14.987
38500W        W99811   3.328   7.879   2.213
38501W        W99812   8.222  33.615   2.882
38502W        W99813  17.732  10.271  12.840
38503W        W99814  30.978  37.424   0.912
38504W        W99815  36.477  25.565   0.818
38505W        W99816  44.889  44.918  12.527
38506W        W99817  10.263  44.778  11.039
38507W        W99818   7.845  19.622  12.396
38508W        W99819  27.662  41.392  11.571
38509W        W99820  31.466  34.536  13.828
38510W        W99821  20.696  17.107   0.733
38511W        W99822  37.971  16.594  10.971
38512W        W99823  39.980   9.813  13.003
38513W        W99824  22.513  20.254   3.303
38514W        W99825  37.906  15.782   4.223
38515W        W99826  26.490  18.665  12.850
38516W        W99827  11.241  10.828   4.737
38517W        W99828  27.020   3.301   3.314
38518W        W99829  18.602  35.520  11.995
38519W        W99830  13.657  18.153  13.443
38520W        W99831  37.836   0.321  14.429
38521W        W99832   6.720  33.614   3.724
38522W        W99833  30.084  39.928   3.150
38523W        W99834  16.764  32.437   2.845
38524W        W99835   9.725   6.289  14.395
38525W        W99836   2.844   8.328  14.985
38526W        W99837  41.882  23.516  14.903
38527W        W99838  27.588   5.399   5.586
38528W        W99839  27.552  27.960   0.249
38529W        W99840  31.647  31.919   4.295
38530W        W99841  12.347  44.329   4.745
38531W        W99842  40.952  18.232   0.428
38532W        W99843  22.089   6.183  12.574
38533W        W99844  14.115  11.213  14.382
38534W        W99845  40.488   6.745   4.259
38535W        W99846  44.441  42.862   1.309
38536W        W99847  18.222  38.979  11.586
38537W        W99848  14.241   4.930   0.257
38538W        W99849  37.840  36.070   4.800
38539W        W99850  36.350  26.603   4.758
38540W        W99851  44.385  14.128  14.897
38541W        W99852  30.635  26.599  10.979
38542W        W99853  31.984  26.136   2.870
38543W        W99854   0.882  26.531   3.207
38544W        W99855  23.986   8.337   1.739
38545W        W99856  24.172  13.704   1.771
38546W        W99857  23.621  22.679   4.142
38547W        W99858  32.908  18.764  11.029
38548W        W99859  27.550   4.746  12.422
38549W        W99860  15.154  20.033  11.524
38550W        W99861  30.457  12.852   1.931
38551W        W99862  23.660   8.897   5.098
38552W        W99863  44.504   1.830  11.562
38553W        W99864  17.244  26.573   0.905
38554W        W99865  35.866  17.748  12.523
38555W        W99866  13.154  37.445   2.735
38556W        W99867  13.637  22.175   9.509
38557W        W99868   1.866  19.585  11.611
38558W        W99869  31.133  12.771   9.955
38559W        W99870  40.038  13.214   0.921
38560W        W99871   8.697   6.810  14.419
38561W        W99872   3.342  20.670  10.994
38562W        W99873   9.848  28.508  11.026
38563W        W99874   8.874  25.541   0.941
38564W        W99875  10.666  11.313   4.718
38565W        W99876  32.954  29.062  13.372
38566W        W99877  13.121  39.363  11.553
38567W        W99878  17.564  32.609   2.764
38568W        W99879  33.396  27.067  14.885
38569W        W99880  25.656  36.486   1.422
38570W        W99881   2.749   8.353   0.323
38571W        W99882   8.275  29.079   1.759
38572W        W99883  29.517  36.071  11.544
38573W        W99884  44.788  20.748  13.873
38574W        W99885  21.108  25.024   1.738
38575W        W99886  24.486  15.133  11.591
38576W        W99887   3.359  34.943  13.406
38577W        W99888  23.639  37.501   2.257
38578W        W99889  13.767  11.695  13.965
38579W        W99890  18.260   4.871   1.759
38580W        W99891  23.649  31.071  13.950
38581W        W99892  20.671  33.530   4.617
38582W        W99893   9.840   1.755  10.457
38583W        W99894  17.601  13.202  14.294
38584W        W99895   7.763  39.835   3.815
38585W        W99896   8.223  10.159  11.914
38586W        W99897  38.988   9.179  12.831
38587W        W99898  13.230  38.484  11.556
38588W        W99899   9.262  21.185   0.766
38589W        W99900  30.997   1.258   4.273
38590W        W99901  33.381  41.929  10.634
38591W        W99902  38.955  27.454   0.266
38592W        W99903  36.426   5.699   0.798
38593W        W99904  35.960   2.891   0.957
38594W        W99905   3.333   6.277   1.272
38595W        W99906   6.702  33.436   1.696
38596W        W99907   8.255  36.864   4.799
38597W        W99908  20.112   1.914  14.397
38598W        W99909  17.697   9.877   1.738
38599W        W99910  23.679   9.223   0.270
38600W        W99911  41.413  43.973   4.138
38601W        W99912  10.145  21.629   0.481
38602W        W99913  13.289   0.251  10.501
38603W        W99914  24.077   8.352  10.420
38604W        W99915  23.530  27.590   2.742
38605W        W99916  40.985  23.165   3.368
38606W        W99917  36.514  32.933   2.710
38607W        W99918  32.622   3.423   4.738
38608W        W99919  13.778  11.259   1.329
38609W        W99920  40.519   7.704  11.449
38610W        W99921  34.448  30.059   5.302
38611W        W99922  11.314  26.115  14.291
38612W        W99923  43.426  33.086   3.222
38613W        W99924  43.330  33.524   0.265
38614W        W99925  28.173   7.376  14.818
38615W        W99926  21.076   7.774   3.365
38616W        W99927   4.383  12.797  12.875
38617W        W99928  30.418  32.887  12.954
38618W        W99929   9.794  18.264   2.293
38619W        W99930  25.565   0.747   1.348
38620W        W99931  12.144  22.656   3.846
38621W        W99932  23.000   6.707   2.363
38622W        W99933  23.124  30.917  13.804
38623W        W99934   6.391  18.155  10.505
38624W        W99935  21.070  41.979  14.315
38625W        W99936  41.893  37.426   0.941
38626W        W99937  17.189  37.037   2.662
38627W        W99938  15.819   0.824   1.294
38628W        W99939  16.589  43.966  13.465
38629W        W99940  27.652   3.439  13.434
38630W        W99941  40.948   6.238  10.920
38631W        W99942  16.099  36.552  13.872
38632W        W99943  24.632  28.977  11.907
38633W        W99944  38.471  36.430  12.004
38634W        W99945   9.886  18.211   0.379
38635W        W99946  28.152   1.881  10.017
38636W        W99947  23.993  17.152   1.226
38637W        W99948  10.266  38.494  13.809
38638W        W99949  32.043  32.935   4.191
38639W        W99950   8.266  27.178   4.756
38640W        W99951  16.643  17.076   5.160
38641W        W99952   7.375  27.029  14.940
38642W        W99953  36.384  27.172  12.035
38643W        W99954  14.800  37.935   3.695
38644W        W99955   5.289  10.790  12.936
38645W        W99956  15.117   6.799  14.765
38646W        W99957  17.680  21.171   2.296
38647W        W99958  25.103  12.752  13.797
38648W        W99959  18.693  28.604  12.893
38649W        W99960   0.838   3.790   1.434
38650W        W99961  44.919  10.370   1.843
38651W        W99962  15.240   9.305   0.805
38652W        W99963  43.494  36.482   4.279
38653W        W99964  17.779   3.455   0.918
38654W        W99965   0.914   7.276  12.344
38655W        W99966   5.812  12.222   3.670
38656W        W99967  38.440  15.763   5.321
38657W        W99968   5.700  23.191  10.474
38658W        W99969   9.720  27.648   2.732
38659W        W99970  42.389  36.460   3.293
38660W        W99971   6.305  38.053  13.369
38661W        W99972   5.436  31.582  10.586
38662W        W99973  37.363  34.981   2.204
38663W        W99974   6.349   9.696   3.828
38664W        W99975  15.600  29.048   9.935
38665W        W99976  15.218  29.068   1.276
38666W        W99977  42.797  26.638   2.286
38667W        W99978  26.543   9.700   4.717
38668W        W99979  36.925  27.678   4.798
38669W        W99980  40.475   8.831   4.313
38670W        W99981  30.937  22.247  11.098
38671W        W99982   9.266   1.327   4.632
38672W        W99983  38.853  17.582  13.041
38673W        W99984   0.869  30.066  10.894
38674W        W99985  10.869  18.668  12.567
38675W        W99986  42.293  40.514   0.348
38676W        W99987   9.765  35.052  12.975
38677W        W99988   3.346  44.461   3.358
38678W        W99989   1.420  36.054  14.282
38679W        W99990  31.640   3.709   2.850
38680W        W99991  37.514  14.760  11.925
38681W        W99992  42.891  27.040   0.468
38682W        W99993   7.196  13.670   1.345
38683W        W99994  34.906  26.015  14.912
38684W        W99995  38.467  26.546  11.509
38685W        W99996  37.053  43.481   0.866
38686W        W99997  23.571  33.488   4.338
38687W        W99998  28.601  18.618  12.921
38688W        W99999   7.312  13.284   1.259
38689W        W    0  42.816   7.363  11.374
38690W        W    1  25.125  19.150  12.399
38691W        W    2  17.718  15.577   3.216
38692W        W    3  11.181   6.835   0.328
38693W        W    4  32.140  27.455  14.888
38694W        W    5  21.049   0.470   0.941
38695W        W    6  42.871  41.898   1.859
38696W        W    7  35.973  28.116   2.737
38697W        W    8  42.360  38.927  12.371
38698W        W    9  10.755  24.645   0.413
38699W        W   10  16.781  35.928  13.503
38700W        W   11   0.915  35.431   3.699
38701W        W   12  33.108  44.002  14.316
38702W        W   13  24.706  41.912  12.546
38703W        W   14  34.573  27.037   0.756
38704W        W   15  12.169  24.010  12.380
38705W        W   16  27.115  38.872   2.752
38706W        W   17   6.336  19.754  11.407
38707W        W   18   9.194  44.760  10.951
38708W        W   19  37.956  10.831  11.411
38709W        W   20  15.130  44.937   0.449
38710W        W   21   9.162  40.972  10.919
38711W        W   22  25.202  24.687  11.455
38712W        W   23  22.128  26.530   2.888
38713W        W   24  20.075  16.316  13.955
38714W        W   25   8.401  15.824  13.489
38715W        W   26   4.757  12.753   5.224
38716W        W   27  33.463  44.860   2.849
38717W        W   28  35.912  42.940  10.428
38718W        W   29  24.489  30.637  11.964
38719W        W   30  41.005   8.349   2.668
38720W        W   31  17.591   6.201   3.214
38721W        W   32  13.218  23.504   3.675
38722W        W   33  35.040  15.801  14.859
38723W        W   34  28.442  36.525   1.247
38724W        W   35  35.028  33.488  11.120
38725W        W   36  16.193  10.834   0.774
38726W        W   37   7.717   4.890  12.398
38727W        W   38  29.649   7.876   5.303
38728W        W   39  14.732  13.315   3.349
38729W        W   40   4.945  21.241  14.443
38730W        W   41  23.000   7.234  11.989
38731W        W   42  21.249  23.997   2.851
38732W        W   43   9.886  34.043   0.470
38733W        W   44   7.308  24.521  13.507
38734W        W   45  24.084  10.718  14.985
38735W        W   46  42.944   5.371   3.344
38736W        W   47  22.100  38.930  13.035
38737W        W   48   7.239   3.717   0.806
38738W        W   49  35.895  22.045   0.281
38739W        W   50  21.578  12.196  12.350
38740W        W   51  44.963  44.277   3.274
38741W        W   52   7.671  31.555   1.717
38742W        W   53  44.894  28.091  11.417
38743W        W   54  12.265  13.261   1.404
38744W        W   55  12.147  38.006  13.322
38745W        W   56  36.439   0.969  11.504
38746W        W   57  32.613  41.883  11.608
38747W        W   58  31.422   5.307  12.053
38748W        W   59  22.102  37.898  14.316
38749W        W   60  20.710   1.948  12.380
38750W        W   61  32.969  42.432   4.831
38751W        W   62  25.646  28.569  14.292
38752W        W   63  41.345  18.726  11.974
38753W        W   64  14.245  26.688   1.710
38754W        W   65  19.052  24.553  10.506
38755W        W   66  15.651  11.369   1.725
38756W        W   67  26.164   0.803   3.770
38757W        W   68  26.141  41.041  14.831
38758W        W   69  34.051   2.361  13.408
38759W        W   70  39.011  42.452   4.215
38760W        W   71   8.322  21.246  11.090
38761W        W   72  44.889  14.117   0.738
38762W        W   73  13.677  24.705  11.910
38763W        W   74  13.773  36.049   3.726
38764W        W   75  37.851   0.286   4.266
38765W        W   76  37.531  36.519   5.147
38766W        W   77  11.153   5.257   1.396
38767W        W   78  26.610  31.558  12.478
38768W        W   79  41.380  37.339   3.183
38769W        W   80   0.935   2.375  10.533
38770W        W   81  11.720   1.431  13.909
38771W        W   82   8.788  34.526  11.978
38772W        W   83   2.923  14.702   4.139
38773W        W   84  33.514  40.460   3.785
38774W        W   85  31.926  40.377   4.667
38775W        W   86   2.737  19.637  10.949
38776W        W   87  25.490   8.282  11.064
38777W        W   88  21.195   6.197   0.278
38778W        W   89  38.424  42.495  10.423
38779W        W   90  40.394  28.129   5.287
38780W        W   91   1.359   3.817  11.571
38781W        W   92  15.203  26.590  14.014
38782W        W   93  10.255  14.772  11.399
38783W        W   94  24.091  32.516  13.033
38784W        W   95  24.527  20.268  11.993
38785W        W   96  34.381  44.973  12.905
38786W        W   97  18.759  22.688   4.225
38787W        W   98  41.861  42.811   1.831
38788W        W   99  33.546  22.510   2.212
38789W        W  100  24.035  25.545   3.645
38790W        W  101  26.538  25.473   3.182
38791W        W  102  34.566  23.547   3.841
38792W        W  103  30.651  21.114   0.858
38793W        W  104  32.947  19.147  13.884
38794W        W  105  19.257  33.402  13.948
38795W        W  106   5.281  24.149  12.443
38796W        W  107  37.897  29.448  14.777
38797W        W  108   6.702  38.394   3.199
38798W        W  109  11.737  40.952   2.323
38799W        W  110  22.564  26.620   2.706
38800W        W  111  17.678  39.921   1.378
38801W        W  112   0.256   8.271  13.911
38802W        W  113  12.727  17.178  13.347
38803W        W  114  31.920   5.696  10.529
38804W        W  115   2.467  21.189  14.937
38805W        W  116  27.944   0.439  12.853
38806W        W  117   8.332  27.573   1.410
38807W        W  118  11.781  39.328   3.161
38808W        W  119  41.436  20.766   3.293
38809W        W  120  40.499  30.656   4.617
38810W        W  121   1.356  23.728   3.287
38811W        W  122  23.157  32.129   0.465
38812W        W  123  38.033  15.295   2.799
38813W        W  124  13.105  11.857  12.944
38814W        W  125  34.604   1.263  14.911
38815W        W  126  41.454  32.014   1.707
38816W        W  127  41.843  35.419   3.202
38817W        W  128  22.643  25.969  12.435
38818W        W  129  28.633  27.623  11.502
38819W        W  130  39.939  28.593  12.832
38820W        W  131  37.002  29.118  14.338
38821W        W  132  28.012  12.755  11.438
38822W        W  133  24.636   5.408  13.967
38823W        W  134  39.500  25.609  11.505
38824W        W  135  12.214  36.901  10.972
38825W        W  136  37.027  26.530   2.891
38826W        W  137  14.698  44.883   0.935
38827W        W  138   4.926  27.463   4.139
38828W        W  139   1.241   1.936   2.672
38829W        W  140  36.868  14.780   4.331
38830W        W  141  38.524  37.962   0.751
38831W        W  142  41.333  44.898   3.630
38832W        W  143  14.798  34.469   1.416
38833W        W  144   6.203  11.689   5.303
38834W        W  145  19.102  11.625  14.976
38835W        W  146  18.144  25.512  14.868
38836W        W  147  38.941  34.536   1.747
38837W        W  148  42.521  21.083   3.360
38838W        W  149   5.365  14.792  11.910
38839W        W  150  37.463   6.713  11.954
38840W        W  151  39.003  38.336   2.368
38841W        W  152   0.292  25.162  12.060
38842W        W  153  17.099  21.152   1.296
38843W        W  154  35.039  26.169   1.358
38844W        W  155  35.955  31.101   1.260
38845W        W  156   1.831  14.728   4.654
38846W        W  157  30.087  14.794  13.058
38847W        W  158  29.632  19.228  14.509
38848W        W  159  29.163   7.250   3.730
38849W        W  160  40.313  40.833  12.567
38850W        W  161  14.251   2.347   0.310
38851W        W  162  31.532  39.815  14.994
38852W        W  163  38.883   6.307  11.994
38853W        W  164  19.177  17.601   0.906
38854W        W  165  42.974  22.708   1.895
38855W        W  166  15.198  21.174   4.746
38856W        W  167  20.561   1.413   3.157
38857W        W  168  37.999   6.412   1.749
38858W        W  169   6.275  20.560   0.963
38859W        W  170  20.159   4.735  13.389
38860W        W  171  37.029  26.148  10.624
38861W        W  172  10.293  35.993   1.775
38862W        W  173  31.131  36.505  10.911
38863W        W  174  31.402  24.036   4.117
38864W        W  175  10.327  40.391   0.925
38865W        W  176  20.232  21.713  11.566
38866W        W  177  30.034  34.599   3.777
38867W        W  178  31.077  28.012   2.734
38868W        W  179  22.701   7.348   2.814
38869W        W  180  12.723   9.275   4.746
38870W        W  181  29.120   3.790   0.297
38871W        W  182  17.141   2.386   3.236
38872W        W  183   4.704  19.099  13.539
38873W        W  184  10.734  15.620   9.956
38874W        W  185  19.091  12.838   4.783
38875W        W  186  43.343  21.069  14.493
38876W        W  187  18.744  41.500  13.332
38877W        W  188   8.400  38.539  13.011
38878W        W  189  13.624  18.069  14.802
38879W        W  190  43.898  30.514  11.875
38880W        W  191  30.987   0.271  12.393
38881W        W  192  27.145  32.592   2.241
38882W        W  193   0.755  44.416   0.483
38883W        W  194  37.426  27.145  12.549
38884W        W  195  27.121   5.427   2.244
38885W        W  196  14.782  40.915   0.834
38886W        W  197   9.199  43.371   0.906
38887W        W  198   7.220  31.945  10.420
38888W        W  199   0.321  41.954  11.952
38889W        W  200  31.462  19.557  10.437
38890W        W  201   3.254   2.444   4.180
38891W        W  202   9.711  42.510  13.873
38892W        W  203  30.429  25.980   1.697
38893W        W  204  27.947  25.626  14.886
38894W        W  205  34.086  17.631  11.498
38895W        W  206  38.920  22.576  12.031
38896W        W  207  28.179  28.470  14.928
38897W        W  208  15.714  11.734   5.232
38898W        W  209  11.748   1.966   1.747
38899W        W  210  26.553   9.746   1.846
38900W        W  211  32.932  19.623   1.793
38901W        W  212  39.505   5.933  14.437
38902W        W  213  40.938  27.525  11.463
38903W        W  214  12.349   1.458  14.509
38904W        W  215  33.900  33.445  10.083
38905W        W  216  33.966  41.427  14.477
38906W        W  217   9.716  13.739   0.345
38907W        W  218  36.369   8.193   1.827
38908W        W  219  34.043  28.487  12.895
38909W        W  220  23.139  11.623  10.084
38910W        W  221   0.342  43.319   4.685
38911W        W  222  16.270  22.524  12.573
38912W        W  223   8.859   0.897   2.821
38913W        W  224   8.294  36.523  14.512
38914W        W  225  23.104  11.140   0.820
38915W        W  226  37.986  14.693   3.371
38916W        W  227  44.917   2.343   3.320
38917W        W  228  40.479  13.824  11.916
38918W        W  229   5.324  44.348   1.930
38919W        W  230  35.986   8.889  13.938
38920W        W  231   8.333  24.190  11.104
38921W        W  232  32.083  30.146  12.891
38922W        W  233  40.484   2.953   3.158
38923W        W  234   3.857  24.532  13.931
38924W        W  235  35.094  37.345   2.741
38925W        W  236  15.140  25.693  14.789
38926W        W  237   9.664  42.978  12.840
38927W        W  238  30.069  20.601  10.964
38928W        W  239   7.738  24.545   0.902
38929W        W  240  29.157   7.335  11.377
38930W        W  241   7.909  21.678  13.424
38931W        W  242  29.501  32.615   4.610
38932W        W  243  17.725  43.329  11.595
38933W        W  244  44.504  28.938  10.040
38934W        W  245  30.557  22.080  13.913
38935W        W  246  20.205  34.881  11.526
38936W        W  247   7.802   4.212   2.893
38937W        W  248  38.479  12.336  13.399
38938W        W  249  34.581  40.425   2.848
38939W        W  250  15.810  10.824  13.524
38940W        W  251  20.160  37.901   1.285
38941W        W  252   1.409   7.911  13.421
38942W        W  253  16.189   1.481  13.867
38943W        W  254  14.821  23.104   3.196
38944W        W  255  30.657   3.425   1.448
38945W        W  256  23.066   7.271  14.933
38946W        W  257  16.191  40.469   2.408
38947W        W  258   7.310  21.072   1.901
38948W        W  259   3.939  19.584   0.269
38949W        W  260  15.736  10.305  11.422
38950W        W  261   8.730  21.055   1.852
38951W        W  262  34.418   7.702   2.379
38952W        W  263   4.811  19.267  13.866
38953W        W  264  37.069  34.469   2.215
38954W        W  265   4.767  20.040  13.933
38955W        W  266  22.109  14.118  14.935
38956W        W  267  16.792  23.234  10.056
38957W        W  268   5.797   6.412   1.808
38958W        W  269  13.639  20.583   2.719
38959W        W  270  27.128  24.982   1.774
38960W        W  271   9.375  18.154  13.948
38961W        W  272  16.799  40.005   4.767
38962W        W  273  33.454  25.217  11.920
38963W        W  274  19.609   5.312   3.382
38964W        W  275  42.858   6.718  13.543
38965W        W  276  33.597  31.148  13.392
38966W        W  277   9.201  25.692   1.929
38967W        W  278  41.824   7.391   2.260
38968W        W  279  31.526  15.203  11.521
38969W        W  280  21.695  29.032   2.206
38970W        W  281  41.823  29.633  11.470
38971W        W  282  27.567  37.062   3.783
38972W        W  283  26.044  27.509  13.521
38973W        W  284   8.319  40.547  12.359
38974W        W  285   9.658  16.183   5.749
38975W        W  286  26.082   6.871  12.496
38976W        W  287   1.328  40.470  11.494
38977W        W  288  26.577  31.503  13.036
38978W        W  289  18.241  10.210   3.753
38979W        W  290  29.129  16.228  13.800
38980W        W  291  40.951   4.758   1.450
38981W        W  292  40.442   8.260  14.321
38982W        W  293  21.598  19.572  10.018
38983W        W  294  31.943  33.409  14.492
38984W        W  295  15.773  28.472   3.257
38985W        W  296   5.328  25.122   4.723
38986W        W  297  35.550  23.628   0.917
38987W        W  298  24.222   1.319   1.284
38988W        W  299  26.634   1.477   0.425
38989W        W  300  16.770  23.057   5.141
38990W        W  301  44.834  19.076  13.021
38991W        W  302  25.467   9.749   2.664
38992W        W  303  31.128  17.605  13.046
38993W        W  304   6.918   3.297  13.835
38994W        W  305  17.254   0.967  13.938
38995W        W  306   0.492  38.976  10.896
38996W        W  307  17.274   0.352  13.407
38997W        W  308  32.529  28.573   0.415
38998W        W  309   7.783  34.432  13.395
38999W        W  310  40.992   1.974  12.395
39000W        W  311   1.964  37.555   0.738
39001W        W  312   4.916  42.004   1.221
39002W        W  313  18.205   5.754  10.595
39003W        W  314  21.594   5.270   4.121
39004W        W  315  27.115  27.606  12.861
39005W        W  316  28.437  25.479   4.837
39006W        W  317  33.433  17.145   1.872
39007W        W  318  25.685  20.159   4.704
39008W        W  319   2.860  18.150  14.495
39009W        W  320  13.172  30.512   2.350
39010W        W  321  29.022  32.036  10.614
39011W        W  322  38.005   1.860  12.092
39012W        W  323  42.348  24.490   2.736
39013W        W  324  30.096  26.001   4.310
39014W        W  325   7.692  31.987  14.986
39015W        W  326  26.616  36.962  12.457
39016W        W  327   6.786  39.502  12.018
39017W        W  328  43.494  24.163   0.304
39018W        W  329  33.487   4.701  11.943
39019W        W  330  43.803  25.626   0.280
39020W        W  331  12.791  29.097  12.015
39021W        W  332  43.485  36.868   3.741
39022W        W  333  17.754  27.641  14.853
39023W        W  334  24.166  13.150   1.795
39024W        W  335  43.866  42.317   3.729
39025W        W  336   0.413   3.809   3.236
39026W        W  337   3.362  20.205  12.944
39027W        W  338  33.433  38.837  12.359
39028W        W  339   8.797   2.787   2.760
39029W        W  340  34.951   0.271   3.832
39030W        W  341  28.655   3.389   4.637
39031W        W  342   1.789  15.751  12.053
39032W        W  343  26.179  17.165  14.797
39033W        W  344  34.010   9.343  11.898
39034W        W  345  11.354  18.275   3.238
39035W        W  346  10.232   7.290   1.896
39036W        W  347   8.329   8.192  11.898
39037W        W  348   4.253  44.286   0.437
39038W        W  349  18.753   4.919  12.342
39039W        W  350  27.558  41.864  13.977
39040W        W  351  24.640  42.863   3.209
39041W        W  352  10.858  42.927   0.948
39042W        W  353  10.322  39.972  11.869
39043W        W  354  28.447  39.377  11.560
39044W        W  355  41.455  16.643   2.697
39045W        W  356  16.757  34.383   4.146
39046W        W  357  18.292  44.326   2.229
39047W        W  358  43.312  15.245   4.270
39048W        W  359  10.723   8.682   1.403
39049W        W  360   0.443   3.873   3.780
39050W        W  361   3.260  27.598   4.355
39051W        W  362  34.495  44.266   4.305
39052W        W  363  12.288  10.861   1.774
39053W        W  364  15.204  12.220   0.338
39054W        W  365   6.858   1.960  12.080
39055W        W  366  18.626  21.033  11.891
39056W        W  367  17.206  28.096  10.129
39057W        W  368  28.453  24.498  14.355
39058W        W  369  18.210   4.429  11.452
39059W        W  370  21.090  20.623   4.794
39060W        W  371  32.470  42.348   0.831
39061W        W  372  28.097  26.051  10.488
39062W        W  373  24.043  27.650  13.062
39063W        W  374  40.306  14.291   3.837
39064W        W  375  41.930  25.690   4.337
39065W        W  376  12.361  35.358   2.722
39066W        W  377   6.687   4.868   4.208
39067W        W  378  10.226   9.848   2.722
39068W        W  379  37.886  33.988   5.263
39069W        W  380   6.415   8.192  13.337
39070W        W  381   7.678  30.508  12.392
39071W        W  382  43.467  21.579   4.132
39072W        W  383  19.126  43.473  13.856
39073W        W  384  33.413  20.181   2.886
39074W        W  385  33.515  31.054   2.823
39075W        W  386   5.695  40.548   4.814
39076W        W  387  12.790  43.499   0.356
39077W        W  388  42.778   9.741  13.921
39078W        W  389   6.303  20.727  12.559
39079W        W  390  44.791   3.739  13.392
39080W        W  391  17.626  17.289   1.371
39081W        W  392  20.541  13.609   9.546
39082W        W  393   4.254   4.755  14.361
39083W        W  394   0.800  19.655   0.373
39084W        W  395  32.919  39.042  11.094
39085W        W  396  38.971  30.572   2.185
39086W        W  397  11.854   8.706   2.201
39087W        W  398  29.439  27.480  12.054
39088W        W  399  34.078  43.276  10.541
39089W        W  400  12.741  20.125   2.869
39090W        W  401  27.106   5.370   1.221
39091W        W  402  15.753  10.290   1.416
39092W        W  403  39.956  26.564   1.703
39093W        W  404  36.970  36.978   1.912
39094W        W  405  36.522  27.165   4.249
39095W        W  406   5.734   5.913   0.808
39096W        W  407  39.851  15.722   0.836
39097W        W  408  17.211  24.992   5.223
39098W        W  409  29.081  29.473   4.342
39099W        W  410  42.964  42.442   4.227
39100W        W  411  35.047  24.010  12.029
39101W        W  412  21.575  23.720  12.881
39102W        W  413   9.843   0.865   4.197
39103W        W  414  40.477  30.022   4.226
39104W        W  415  33.380   5.302   4.187
39105W        W  416  15.281   2.244   3.241
39106W        W  417  35.529  17.306  13.358
39107W        W  418  42.832   0.904   3.770
39108W        W  419  36.375  41.877   0.364
39109W        W  420  38.343  23.039  11.022
39110W        W  421  15.128  29.656   0.863
39111W        W  422  30.426  35.463   4.303
39112W        W  423  39.386  27.186  10.947
39113W        W  424  33.111  14.733  14.924
39114W        W  425  24.066  40.937  11.883
39115W        W  426  40.031  15.172  11.023
39116W        W  427  44.400   1.433  14.865
39117W        W  428   1.793  40.399  13.791
39118W        W  429  40.948  20.056   3.220
39119W        W  430  40.895  10.687  14.825
39120W        W  431  14.193   2.266   1.721
39121W        W  432  31.581  20.223  12.936
39122W        W  433  42.021  14.155   2.834
39123W        W  434  13.130  40.823   0.892
39124W        W  435  41.310   0.264  13.316
39125W        W  436  28.936  24.142  12.968
39126W        W  437   4.404  15.259   3.190
39127W        W  438  44.981   0.358  11.980
39128W        W  439  38.501   0.416  13.038
39129W        W  440  40.982  27.987   2.264
39130W        W  441  43.971  17.140   0.767
39131W        W  442  41.819  22.204  11.109
39132W        W  443  10.849  20.559  14.902
39133W        W  444   4.742  36.482   2.757
39134W        W  445  18.231  30.024   3.833
39135W        W  446  27.096  14.172  11.933
39136W        W  447  23.027  14.625   1.360
39137W        W  448  23.138  33.617  12.496
39138W        W  449  15.771  44.877  10.904
39139W        W  450  16.307  20.242  10.478
39140W        W  451   4.329  18.725  12.032
39141W        W  452  21.062  39.440   1.226
39142W        W  453  30.633  27.548  11.535
39143W        W  454  26.457  21.086   5.296
39144W        W  455  13.738  33.595  14.453
39145W        W  456  13.724  26.534  14.347
39146W        W  457   1.456  10.162   3.837
39147W        W  458  30.569  42.985  11.958
39148W        W  459  31.437  36.018  12.080
39149W        W  460  32.548   1.782   3.813
39150W        W  461  29.061   4.706   1.742
39151W        W  462  40.354  18.553  14.480
39152W        W  463   2.725  14.706  12.476
39153W        W  464  11.679  20.718   0.297
39154W        W  465   7.396  23.660   0.402
39155W        W  466  23.503  23.596  14.324
39156W        W  467  36.984  12.781   0.372
39157W        W  468  34.984  24.715   2.246
39158W        W  469  28.585  31.964   3.321
39159W        W  470  29.637   8.785  13.041
39160W        W  471  23.070  25.501  14.976
39161W        W  472  19.237  26.133  12.510
39162W        W  473  15.626   2.253   4.228
39163W        W  474  33.052  20.721  12.982
39164W        W  475  25.058  25.483  13.438
39165W        W  476  33.559  28.126   4.162
39166W        W  477  44.760   9.724  10.407
39167W        W  478  31.599   1.853  14.330
39168W        W  479  14.185  17.226  10.556
39169W        W  480  35.415  40.032  10.118
39170W        W  481  10.155  43.487   0.284
39171W        W  482   3.444  15.314  10.035
39172W        W  483  41.392   2.824   0.776
39173W        W  484   3.304  39.867  14.948
39174W        W  485  29.035  43.448  14.896
39175W        W  486   1.951  16.247  10.921
39176W        W  487  17.141  23.543   0.913
39177W        W  488  18.250   3.321  12.900
39178W        W  489  38.822  31.553   5.649
39179W        W  490  44.928  25.086   0.802
39180W        W  491  29.519   4.353  11.925
39181W        W  492  24.540  25.478   4.658
39182W        W  493   9.643  29.500   1.365
39183W        W  494   3.382  39.854   1.381
39184W        W  495  17.197  40.886  14.514
39185W        W  496  29.057  10.337   2.365
39186W        W  497  14.133   7.771  13.843
39187W        W  498  29.567  22.226  10.434
39188W        W  499  24.611  23.607  10.468
39189W        W  500  18.725  34.952   1.306
39190W        W  501   2.373  10.851  13.482
39191W        W  502  19.750  28.558  13.813
39192W        W  503   0.402  26.111  13.965
39193W        W  504  17.225  36.543   4.324
39194W        W  505  35.108  31.074   0.479
39195W        W  506  21.631  21.243  11.920
39196W        W  507  32.595  11.338   2.408
39197W        W  508  44.778  19.261  11.106
39198W        W  509  14.709  17.099  11.581
39199W        W  510  38.963  23.577   2.682
39200W        W  511  15.627  27.960  14.827
39201W        W  512  42.906  35.908   0.901
39202W        W  513   5.719   9.760  10.544
39203W        W  514   7.182   6.231  13.429
39204W        W  515  10.159  11.767   4.673
39205W        W  516  19.559  34.097   3.769
39206W        W  517  21.063  11.146  12.458
39207W        W  518   3.818  43.971   1.290
39208W        W  519   7.673  26.494   3.350
39209W        W  520  44.832  27.597   1.872
39210W        W  521  39.472   6.358   4.347
39211W        W  522  40.899  32.914   3.199
39212W        W  523  16.098  24.035   3.194
39213W        W  524  35.463  17.619   0.313
39214W        W  525  34.079  11.251  12.040
39215W        W  526  26.576  20.530  11.387
39216W        W  527  27.085   9.752  11.430
39217W        W  528  29.581  24.671  11.006
39218W        W  529  20.549  36.566  14.437
39219W        W  530  29.528  32.044   9.921
39220W        W  531  36.445  44.793   2.669
39221W        W  532  30.928   8.380  14.288
39222W        W  533  30.951   5.249   9.515
39223W        W  534  29.092  10.723   2.821
39224W        W  535  21.119   8.290  11.403
39225W        W  536  40.012  17.072  10.522
39226W        W  537  29.067  42.953   1.900
39227W        W  538  33.580  12.643  11.860
39228W        W  539  27.085  20.540   0.393
39229W        W  540  44.869  44.869   4.629
39230W        W  541  23.984  15.682  14.290
39231W        W  542  11.836   5.831  13.411
39232W        W  543  12.702  29.600  12.509
39233W        W  544   6.414  42.882  13.973
39234W        W  545   2.435   9.207  14.935
39235W        W  546   3.236  11.672   2.292
39236W        W  547   0.830   8.721   1.735
39237W        W  548   2.329  32.565  12.465
39238W        W  549  16.608  21.597   1.697
39239W        W  550  30.423   3.418  13.801
39240W        W  551  14.614  23.231   3.758
39241W        W  552  30.448  33.443   1.848
39242W        W  553  40.312  19.600  13.547
39243W        W  554   9.288  29.964  10.945
39244W        W  555  27.510   5.244  11.480
39245W        W  556   8.805  32.942  11.856
39246W        W  557  42.879  44.322  12.061
39247W        W  558  10.755  27.190   1.784
39248W        W  559  26.161  42.435  14.013
39249W        W  560  38.872  19.539  12.420
39250W        W  561  20.684   4.875  13.952
39251W        W  562  24.670  44.375   3.183
39252W        W  563  12.173  10.139   2.417
39253W        W  564  15.278  16.591   1.247
39254W        W  565  25.497   8.772   2.314
39255W        W  566  19.717  24.611  14.324
39256W        W  567  37.380  13.638  14.820
39257W        W  568  14.611  22.524  14.921
39258W        W  569   2.958  41.851  12.454
39259W        W  570   8.338  19.060   1.702
39260W        W  571  38.344  29.066   4.792
39261W        W  572  10.206  26.643   1.917
39262W        W  573  26.512   8.204  14.298
39263W        W  574  26.993  43.813  11.977
39264W        W  575  22.568  25.992   2.714
39265W        W  576  17.650   5.354   4.160
39266W        W  577  19.216  23.731   0.808
39267W        W  578  20.234  36.356  12.542
39268W        W  579   6.876  39.451  12.526
39269W        W  580  18.130  44.303  12.950
39270W        W  581  22.109   7.380  10.464
39271W        W  582  20.207   8.227   4.821
39272W        W  583  42.812   5.931   0.841
39273W        W  584  37.562   7.722   2.226
39274W        W  585   9.384  29.067  13.927
39275W        W  586  41.303  19.069  13.794
39276W        W  587  18.289  40.351  11.032
39277W        W  588  10.362  23.147  12.053
39278W        W  589   3.735  19.583   3.252
39279W        W  590  41.928  26.493   3.676
39280W        W  591  31.401  38.032  14.834
39281W        W  592   6.860  18.246  12.077
39282W        W  593   8.227  10.374  12.356
39283W        W  594   5.694   2.380   4.194
39284W        W  595  10.761   2.961  12.574
39285W        W  596  35.486  39.972   1.841
39286W        W  597  33.890  14.220   4.689
39287W        W  598  39.864  43.779   3.721
39288W        W  599  37.388  19.126   4.604
39289W        W  600  43.381   1.957  13.872
39290W        W  601  44.349  32.921  14.801
39291W        W  602  17.285  36.001  13.824
39292W        W  603   3.886  20.212   3.788
39293W        W  604  33.893   7.839  12.999
39294W        W  605  44.490  14.606  11.476
39295W        W  606  29.423   9.843  10.618
39296W        W  607  11.847  37.963   4.322
39297W        W  608  27.001   1.480  10.946
39298W        W  609   9.744   1.905   0.778
39299W        W  610  43.966   5.280   4.598
39300W        W  611  40.972  21.582   1.264
39301W        W  612   3.456  32.550  13.498
39302W        W  613  13.762  13.165   0.812
39303W        W  614  13.247  43.330  11.596
39304W        W  615  41.944   1.811  13.514
39305W        W  616  39.024  26.551   1.216
39306W        W  617   0.800  24.119   4.238
39307W        W  618   7.216  20.552  14.515
39308W        W  619  43.957  43.812  10.480
39309W        W  620  24.553  42.805  14.969
39310W        W  621  30.958  28.107  13.505
39311W        W  622  20.220  17.139   5.153
39312W        W  623   3.343  13.811   0.837
39313W        W  624  19.270   2.965   1.244
39314W        W  625  10.384  23.700  11.928
39315W        W  626  22.561  26.539   1.826
39316W        W  627  25.966  14.299  13.397
39317W        W  628   1.425  18.756   2.201
39318W        W  629  25.136  25.064   1.933
39319W        W  630   0.348  25.012   2.826
39320W        W  631  34.583   7.874  12.422
39321W        W  632  26.022  14.767   0.786
39322W        W  633  26.088  25.573   2.251
39323W        W  634  39.059  18.615  10.994
39324W        W  635  38.481  26.566   2.876
39325W        W  636  39.395   8.890  11.000
39326W        W  637  31.476  15.301  10.635
39327W        W  638  27.632  24.029  14.318
39328W        W  639  16.671   5.217   2.321
39329W        W  640   4.219  11.710   0.895
39330W        W  641  24.661  32.980  10.599
39331W        W  642  10.236   3.456  11.390
39332W        W  643  20.202  32.056   0.876
39333W        W  644  18.217   7.273  11.097
39334W        W  645  34.517   3.828   3.817
39335W        W  646  27.982  32.910  11.997
39336W        W  647  27.940  41.948   1.301
39337W        W  648  27.106   8.842  10.012
39338W        W  649  36.895  42.431  12.871
39339W        W  650  42.510  30.512   1.332
39340W        W  651  33.421  15.307  11.498
39341W        W  652  10.701  35.534  13.046
39342W        W  653  17.279  32.617   2.189
39343W        W  654  32.458  12.791   1.767
39344W        W  655  14.812  44.963  13.546
39345W        W  656   5.219  18.098   4.601
39346W        W  657   2.872   5.212  13.793
39347W        W  658  27.670   6.900  10.156
39348W        W  659  44.331  35.540  11.878
39349W        W  660   5.690  43.498   2.353
39350W        W  661  40.516  21.063   2.862
39351W        W  662  38.424  36.050  11.877
39352W        W  663  23.096   7.759  12.343
39353W        W  664  31.437   0.793  12.414
39354W        W  665   6.209  34.069  10.459
39355W        W  666  11.789  44.894   0.744
39356W        W  667  12.661  24.068   1.772
39357W        W  668  30.920  43.282  13.810
39358W        W  669  37.920  42.846   2.891
39359W        W  670  43.846   3.365   1.260
39360W        W  671  12.660  21.229   5.215
39361W        W  672  33.128  39.943   3.834
39362W        W  673  22.683  32.020   2.261
39363W        W  674  29.064   0.334  11.011
39364W        W  675   7.258   4.906   4.204
39365W        W  676  29.612  42.837   2.211
39366W        W  677   4.373  21.173  11.078
39367W        W  678  44.336  14.784   3.790
39368W        W  679  34.442  12.610  12.825
39369W        W  680  21.054  43.325  14.026
39370W        W  681  40.992  36.366   3.155
39371W        W  682  44.901  28.466   1.326
39372W        W  683   5.851  43.293  14.791
39373W        W  684  33.449   3.926   1.756
39374W        W  685  37.990  35.023   1.239
39375W        W  686   6.235   8.709  10.541
39376W        W  687  37.842  31.073   3.797
39377W        W  688   0.907  26.192  13.861
39378W        W  689  16.680  15.171  14.985
39379W        W  690  29.558   2.436  11.959
39380W        W  691  11.271  42.301   3.816
39381W        W  692  21.054  15.674  13.336
39382W        W  693  41.349  20.539  12.958
39383W        W  694  18.651  39.473   3.237
39384W        W  695   5.363  11.643   3.814
39385W        W  696  15.265  34.989  11.569
39386W        W  697  44.456  35.010  10.603
39387W        W  698  26.008  23.704   1.231
39388W        W  699  31.039  42.310  14.281
39389W        W  700  33.901  13.748   1.708
39390W        W  701  34.538  12.170  14.460
39391W        W  702  27.073   5.771   0.265
39392W        W  703  33.912  27.517   2.842
39393W        W  704  24.502  10.385   0.838
39394W        W  705  38.880  34.897  13.493
39395W        W  706   5.912  38.338  13.542
39396W        W  707   0.777   6.747  13.882
39397W        W  708  29.592  24.118  11.991
39398W        W  709  34.077   9.272   3.238
39399W        W  710   3.805  38.941  10.119
39400W        W  711  35.053   9.159   0.738
39401W        W  712   6.350  29.483   2.897
39402W        W  713  17.170   5.423   3.631
39403W        W  714   1.386   7.743  10.608
39404W        W  715  37.878  21.151  10.934
39405W        W  716  29.624  32.991  14.487
39406W        W  717  29.583  20.569  14.828
39407W        W  718  28.447  39.378  10.410
39408W        W  719  39.481  16.283  11.861
39409W        W  720   9.269   0.813   3.153
39410W        W  721  25.000  33.582   3.811
39411W        W  722   9.269  27.949   4.213
39412W        W  723  35.027   0.472   4.152
39413W        W  724  19.081  41.988  14.942
39414W        W  725  33.122   6.919  12.403
39415W        W  726  32.026   6.276   2.831
39416W        W  727  25.120  24.563   3.200
39417W        W  728  12.353  12.287   2.308
39418W        W  729  25.124  15.695  13.946
39419W        W  730  44.806  31.588   3.149
39420W        W  731  25.047   1.774  12.957
39421W        W  732  14.765  20.719   1.793
39422W        W  733  13.341  43.922   3.155
39423W        W  734  35.908  40.877   2.392
39424W        W  735  21.699   9.363   1.298
39425W        W  736   9.824  39.819   3.285
39426W        W  737  31.949  20.763   2.202
39427W        W  738   0.773  24.698  11.063
39428W        W  739   5.336  13.336   0.378
39429W        W  740  17.779  25.162  12.408
39430W        W  741   9.284  33.503   1.885
39431W        W  742  29.588  41.816   0.357
39432W        W  743  10.693  17.215   4.130
39433W        W  744  37.470  29.968  14.029
39434W        W  745  42.302  35.427  12.446
39435W        W  746  36.568  37.077   4.603
39436W        W  747   9.760   9.715   4.838
39437W        W  748  40.402  44.343   3.162
39438W        W  749   5.426  31.564  14.954
39439W        W  750  23.644  18.742  14.355
39440W        W  751  20.220  42.887   0.936
39441W        W  752  35.059  43.290  12.040
39442W        W  753   5.321  17.244  14.960
39443W        W  754  37.354  15.691   3.764
39444W        W  755  34.991   3.785  11.474
39445W        W  756  24.005  25.083   1.766
39446W        W  757  26.631   9.155   3.260
39447W        W  758  29.430  35.520   2.320
39448W        W  759  33.447  41.801   3.798
39449W        W  760   3.381  12.356  12.045
39450W        W  761  41.941  16.689   4.795
39451W        W  762  14.797  17.123   2.249
39452W        W  763   6.241  35.878   3.775
39453W        W  764  25.582  40.892   2.256
39454W        W  765  36.023  18.734  11.979
39455W        W  766   3.395  35.983  11.480
39456W        W  767   7.284  22.250  14.415
39457W        W  768  37.567  32.968   4.781
39458W        W  769  32.997  31.509  14.435
39459W        W  770  34.041  10.826   2.832
39460W        W  771  26.604  29.025  12.413
39461W        W  772  20.061   8.660   1.219
39462W        W  773  14.105  15.086  10.974
39463W        W  774  29.558  28.134  14.918
39464W        W  775  27.677   4.431   0.910
39465W        W  776  25.615  41.530   9.953
39466W        W  777   2.812  30.516   4.680
39467W        W  778  27.679  35.092  14.015
39468W        W  779  17.625  26.544   0.887
39469W        W  780  31.990  31.032   2.184
39470W        W  781  17.133   7.357  12.084
39471W        W  782  20.538  10.672  13.503
39472W        W  783  34.063  27.943  14.803
39473W        W  784  14.296  31.909  12.424
39474W        W  785  38.939  42.329   4.713
39475W        W  786  27.545  23.712  10.561
39476W        W  787  20.160  10.165   4.139
39477W        W  788  26.116   1.472   3.150
39478W        W  789  15.273  13.733  12.094
39479W        W  790  10.296  39.049  13.932
39480W        W  791  27.504   1.284   2.181
39481W        W  792   4.241  20.195  14.345
39482W        W  793  18.567  40.991  10.512
39483W        W  794  24.073  24.708   2.301
39484W        W  795  19.759  35.490  10.966
39485W        W  796  10.734   2.882   3.661
39486W        W  797  27.648   4.250   4.166
39487W        W  798  17.165  22.506  12.881
39488W        W  799   2.809  26.556  11.946
39489W        W  800  36.369  13.824   3.205
39490W        W  801  24.989  40.401  10.080
39491W        W  802  23.158  27.190  14.018
39492W        W  803  24.605  13.614   0.403
39493W        W  804  30.583  35.476  12.920
39494W        W  805   9.823  14.326  10.441
39495W        W  806  11.800  24.509   3.671
39496W        W  807  29.645  35.056  12.074
39497W        W  808  40.341   6.346  10.618
39498W        W  809  26.162  14.209  10.599
39499W        W  810  23.009   0.260  11.047
39500W        W  811  43.887  31.903   4.325
39501W        W  812  43.488  24.600  10.987
39502W        W  813   9.858  17.173   3.632
39503W        W  814  13.611  31.509   3.298
39504W        W  815  35.033  44.301  10.637
39505W        W  816  20.762  29.171  13.902
39506W        W  817  13.164   5.220   3.836
39507W        W  818   5.865  18.106  11.123
39508W        W  819   3.390  38.524  10.616
39509W        W  820  44.985  34.967  13.929
39510W        W  821  29.567   5.872  14.988
39511W        W  822  36.929  21.097   3.857
39512W        W  823  18.107  33.891   3.824
39513W        W  824  29.172  19.114   4.768
39514W        W  825   4.746  31.427   2.387
39515W        W  826  19.083  21.063   3.367
39516W        W  827  38.869  38.543   3.638
39517W        W  828   8.262  18.261   0.819
39518W        W  829  32.502  11.801  13.865
39519W        W  830  36.875  21.541   1.278
39520W        W  831  36.465   6.345  13.899
39521W        W  832   6.766  33.897  13.963
39522W        W  833  26.108   7.720  13.926
39523W        W  834  40.504  38.565  13.491
39524W        W  835  33.391  32.967  14.964
39525W        W  836  24.010  14.199  14.351
39526W        W  837  19.254  36.574  10.583
39527W        W  838   2.737  28.029  10.511
39528W        W  839  30.043  24.494   4.787
39529W        W  840   7.888  12.757   4.672
39530W        W  841  38.495  11.128  14.299
39531W        W  842  16.180  36.997  12.954
39532W        W  843  28.447  25.215   1.368
39533W        W  844  20.210   2.299  12.391
39534W        W  845  34.923   0.451   2.300
39535W        W  846   7.679   7.289   3.677
39536W        W  847   0.820  27.535  13.407
39537W        W  848   7.262  38.893  14.768
39538W        W  849  30.079  14.712  10.939
39539W        W  850  12.809  24.072  11.911
39540W        W  851  17.631   7.172   3.288
39541W        W  852  33.003  42.322   4.288
39542W        W  853   1.373   3.858  14.823
39543W        W  854  15.248  22.671   3.755
39544W        W  855  39.978  41.428   0.948
39545W        W  856   0.367  18.649  14.855
39546W        W  857  19.533  10.860  10.558
39547W        W  858   6.335  16.614   1.220
39548W        W  859  30.421  33.620  13.418
39549W        W  860  34.396  32.482  12.900
39550W        W  861  22.728   0.929   0.280
39551W        W  862  33.491   2.378   0.417
39552W        W  863   9.789  24.569   1.865
39553W        W  864  38.361  25.049   4.347
39554W        W  865  36.574  21.755  10.639
39555W        W  866  40.891   1.965   1.307
39556W        W  867  36.515  21.566  10.990
39557W        W  868  36.885  18.286  11.575
39558W        W  869  34.612   6.212  13.053
39559W        W  870   4.340  23.609  10.918
39560W        W  871  20.161   7.837  12.905
39561W        W  872  35.408  17.191  11.491
39562W        W  873  22.229  28.465   0.848
39563W        W  874  22.606  25.605   1.885
39564W        W  875  19.741  10.253  10.514
39565W        W  876  30.154  10.376  12.385
39566W        W  877  14.298  41.792   0.867
39567W        W  878  26.968  32.113   0.859
39568W        W  879  34.864  13.140   1.700
39569W        W  880  21.169  16.232  14.850
39570W        W  881  16.584  32.632   3.331
39571W        W  882  35.100  37.478   4.200
39572W        W  883   9.268  27.989   1.876
39573W        W  884   9.837   3.831  10.902
39574W        W  885   5.244  26.961   1.724
39575W        W  886  32.019  40.476   0.326
39576W        W  887  16.211   1.877   3.317
39577W        W  888   4.927  22.234  14.283
39578W        W  889  35.050  15.815   5.109
39579W        W  890  43.365   1.788   0.385
39580W        W  891  31.151   6.337  11.951
39581W        W  892  40.899  19.608   2.750
39582W        W  893  29.969  39.991   1.213
39583W        W  894  34.950  13.313  12.476
39584W        W  895  12.188  13.621   2.370
39585W        W  896  30.018  12.636   1.925
39586W        W  897  26.527  16.224  14.809
39587W        W  898   0.402  17.693  12.577
39588W        W  899  35.993  10.222  11.036
39589W        W  900  20.236  29.100   4.188
39590W        W  901   5.306  24.484   0.416
39591W        W  902  30.156   6.188   2.221
39592W        W  903   4.343  33.590  12.425
39593W        W  904  38.890  26.068  13.961
39594W        W  905   3.271   1.458   4.651
39595W        W  906  22.087  15.264   0.837
39596W        W  907  42.441   7.793  11.544
39597W        W  908  16.103  37.457  12.384
39598W        W  909  36.468  25.219  10.015
39599W        W  910  35.972  41.900   1.221
39600W        W  911  14.175  22.728  12.049
39601W        W  912  15.688  11.679   3.742
39602W        W  913  35.976  29.006  13.989
39603W        W  914   6.870  21.698   3.706
39604W        W  915  18.292  43.948  14.906
39605W        W  916  16.077  17.143  12.364
39606W        W  917   3.386  32.921   9.993
39607W        W  918   0.479  44.281  13.538
39608W        W  919  20.559  23.561  14.786
39609W        W  920  21.095  10.767   0.787
39610W        W  921  41.368  44.286  14.822
39611W        W  922  34.483  19.546  14.016
39612W        W  923  35.946   1.307  12.450
39613W        W  924  36.428   2.930  13.053
39614W        W  925  34.029  42.943   3.716
39615W        W  926  15.324  35.990   4.697
39616W        W  927  15.116   1.861  11.066
39617W        W  928  11.676  16.645   1.253
39618W        W  929  43.805  38.516  14.403
39619W        W  930   2.462   6.892   1.448
39620W        W  931  31.915  44.828  14.487
39621W        W  932   4.387  33.012  11.903
39622W        W  933   5.856   3.220  12.037
39623W        W  934  21.636  16.684   3.269
39624W        W  935  22.141  44.322  11.005
39625W        W  936  26.078  20.227   4.653
39626W        W  937  32.031  37.005   3.260
39627W        W  938  42.920  15.248  13.959
39628W        W  939   6.910   2.433  13.389
39629W        W  940   1.745  42.019  11.554
39630W        W  941  31.052  34.587   3.188
39631W        W  942  39.893  33.383  10.943
39632W        W  943  23.179   6.843  13.360
39633W        W  944  11.239  20.169  11.075
39634W        W  945  13.829  37.570   4.818
39635W        W  946  25.175  36.062   0.868
39636W        W  947  23.174  26.199   4.738
39637W        W  948  21.169  26.967   0.822
39638W        W  949  22.734  28.642  10.920
39639W        W  950   4.755  36.474   4.833
39640W        W  951  20.266  18.670   2.263
39641W        W  952  39.963  13.120   4.242
39642W        W  953  36.439  29.554   1.235
39643W        W  954  10.824  41.838  13.897
39644W        W  955  29.097   0.819   0.840
39645W        W  956   3.752  21.642  13.453
39646W        W  957  22.032  44.929   4.610
39647W        W  958  40.392  28.454  11.427
39648W        W  959  25.965  32.414  14.514
39649W        W  960  10.767   4.415   2.341
39650W        W  961  22.565  18.179   2.261
39651W        W  962  41.500  31.919  12.558
39652W        W  963  34.917   6.757  14.969
39653W        W  964  32.477  36.955  10.614
39654W        W  965  22.117  36.526  12.375
39655W        W  966  40.028  25.630  12.351
39656W        W  967   4.407  19.650  12.954
39657W        W  968  25.130   9.778  11.931
39658W        W  969  40.950  17.706  12.998
39659W        W  970  24.501  14.109   4.178
39660W        W  971  30.020   3.747  14.454
39661W        W  972  16.644  12.856   5.699
39662W        W  973  28.965   6.315   1.256
39663W        W  974  17.624  13.251   0.253
39664W        W  975  35.488  39.531   0.766
39665W        W  976  13.261  33.471  11.541
39666W        W  977  36.438  24.539  12.014
39667W        W  978  33.089   0.425   1.849
39668W        W  979  20.562  20.262  12.504
39669W        W  980  30.630  32.572  12.410
39670W        W  981  12.726  35.593   4.200
39671W        W  982  29.012  19.217  13.399
39672W        W  983  18.615  10.707  11.980
39673W        W  984   3.389  11.151   0.284
39674W        W  985  44.349  39.923   0.441
39675W        W  986   6.249  15.282  10.928
39676W        W  987   1.879  35.571  12.096
39677W        W  988  42.327  28.627  14.363
39678W        W  989  26.057   7.888   3.855
39679W        W  990  30.599  35.980  13.875
39680W        W  991   5.699   2.727   2.240
39681W        W  992  32.970   7.210   3.741
39682W        W  993   5.894  43.417  12.543
39683W        W  994   7.754  37.531   2.180
39684W        W  995  40.001  11.218   3.652
39685W        W  996   8.194  32.988  11.559
39686W        W  997  20.220  17.286  10.418
39687W        W  998  20.704  18.590   0.450
39688W        W  999  41.469  30.482   0.862
39689W        W 1000  39.931  20.575  13.456
39690W        W 1001   1.248  36.413   3.687
39691W        W 1002  32.960  14.231  12.905
39692W        W 1003   9.233  35.425   1.437
39693W        W 1004   4.911  32.959  10.561
39694W        W 1005   9.841  32.556  11.095
39695W        W 1006   1.792  33.055   1.856
39696W        W 1007  28.444  40.515   4.315
39697W        W 1008   4.449  14.191   4.334
39698W        W 1009  28.980   3.764   5.259
39699W        W 1010  44.386  43.789  11.997
39700W        W 1011  24.542  18.701   3.366
39701W        W 1012  15.707  37.342  10.578
39702W        W 1013  43.909   3.434  14.286
39703W        W 1014  36.945  28.498  13.487
39704W        W 1015  20.147   0.483   0.275
39705W        W 1016  24.045  12.616  11.444
39706W        W 1017  26.961  41.304   4.718
39707W        W 1018  39.982  31.899  14.932
39708W        W 1019   4.234  38.378   2.863
39709W        W 1020   2.867  40.904  11.567
39710W        W 1021  23.187  39.043   1.750
39711W        W 1022  21.115   1.919  10.601
39712W        W 1023  27.593   4.244   4.662
39713W        W 1024  28.060  17.579  11.919
39714W        W 1025  21.640   2.400  14.290
39715W        W 1026   8.856  25.541  12.390
39716W        W 1027   3.409   9.283  12.881
39717W        W 1028  26.183  37.001   4.141
39718W        W 1029  36.094  15.604  12.388
39719W        W 1030   2.781   1.816  10.943
39720W        W 1031  24.174  11.854  11.520
39721W        W 1032  21.733  13.622  13.339
39722W        W 1033  24.174   2.423   0.285
39723W        W 1034  33.618  23.226  11.996
39724W        W 1035  14.137  28.517  12.376
39725W        W 1036  41.994  21.609  11.121
39726W        W 1037  17.237  40.025  13.489
39727W        W 1038  43.311  24.211  14.429
39728W        W 1039  17.116  24.678  14.296
39729W        W 1040  15.755  41.493  14.872
39730W        W 1041  42.520  20.071   1.791
39731W        W 1042  37.956  36.562  10.526
39732W        W 1043  24.069  21.627   5.268
39733W        W 1044  11.860   8.237   0.936
39734W        W 1045  44.404  28.974   3.842
39735W        W 1046  14.667  10.281  11.558
39736W        W 1047  41.027  13.230   1.748
39737W        W 1048  40.535  33.532   2.255
39738W        W 1049   1.253  16.589   0.944
39739W        W 1050   7.182  14.181  13.454
39740W        W 1051  10.722   0.299   2.719
39741W        W 1052  41.389  43.479  10.614
39742W        W 1053   2.774   8.366   3.792
39743W        W 1054  38.036   3.358  12.046
39744W        W 1055  28.535  13.214  11.000
39745W        W 1056  10.762  22.057   3.744
39746W        W 1057  11.309   6.916   3.631
39747W        W 1058  21.730  17.718   0.465
39748W        W 1059   2.892  41.344  13.056
39749W        W 1060  22.544  18.137  12.829
39750W        W 1061  32.460  15.734  10.547
39751W        W 1062  24.529  40.350  13.396
39752W        W 1063  42.930  13.123   3.332
39753W        W 1064  22.715  10.709  11.420
39754W        W 1065  41.310   7.385   2.824
39755W        W 1066  28.612  11.137  10.448
39756W        W 1067  41.840  22.746   4.695
39757W        W 1068  29.638   9.269  12.918
39758W        W 1069   0.364  30.065  12.397
39759W        W 1070   7.389  33.440   2.773
39760W        W 1071  31.426  40.052  12.348
39761W        W 1072  42.409  43.781  11.106
39762W        W 1073  18.559  22.639   2.884
39763W        W 1074  33.400  40.879  14.894
39764W        W 1075  14.679  34.027  13.009
39765W        W 1076  32.896  25.628   0.459
39766W        W 1077  21.582  35.949  11.516
39767W        W 1078  36.400  23.701   9.937
39768W        W 1079  37.557  23.683   1.847
39769W        W 1080  21.575  16.290   2.853
39770W        W 1081   5.757  10.306  10.496
39771W        W 1082   1.399   9.741  11.425
39772W        W 1083  20.701  42.331  14.972
39773W        W 1084  12.804  44.802  10.546
39774W        W 1085  14.719  34.425   0.749
39775W        W 1086  13.170  36.950  12.416
39776W        W 1087   6.225  31.911   5.221
39777W        W 1088  41.842   8.772   1.780
39778W        W 1089  20.575  42.942  13.423
39779W        W 1090   2.247  39.892  13.836
39780W        W 1091   1.788   1.784   3.274
39781W        W 1092   6.741   5.274   3.663
39782W        W 1093   9.887   7.219   3.242
39783W        W 1094  26.675   2.777  13.064
39784W        W 1095   3.362  33.570  11.457
39785W        W 1096  21.595  22.580  12.347
39786W        W 1097  19.164  14.225  14.309
39787W        W 1098  30.971   3.757  14.009
39788W        W 1099  10.326  16.102  10.897
39789W        W 1100  38.006  35.420   2.882
39790W        W 1101   8.813   2.237  14.772
39791W        W 1102  18.612  24.538  10.584
39792W        W 1103  26.028  33.025   3.332
39793W        W 1104  34.555  34.494   3.237
39794W        W 1105  34.062  26.656   4.129
39795W        W 1106   3.944  41.467   0.386
39796W        W 1107  10.646  26.627  12.542
39797W        W 1108  29.955  18.096   0.406
39798W        W 1109   0.879  22.713   5.181
39799W        W 1110  13.672  41.514  10.944
39800W        W 1111  31.925  40.542  13.799
39801W        W 1112  21.131  22.095  10.434
39802W        W 1113  21.236   8.253  12.086
39803W        W 1114  31.131   7.736  12.481
39804W        W 1115   4.349   9.291   3.222
39805W        W 1116  24.545   5.710   4.291
39806W        W 1117  25.175  17.708  10.631
39807W        W 1118  21.594   9.813  14.440
39808W        W 1119  28.662  16.148   2.847
39809W        W 1120   9.155  23.729   2.324
39810W        W 1121  42.366   0.491   3.340
39811W        W 1122  27.169  20.631   3.236
39812W        W 1123  23.579   8.282  13.401
39813W        W 1124  13.705  37.470  11.047
39814W        W 1125   0.467  36.084  10.420
39815W        W 1126   4.756  23.050  10.637
39816W        W 1127  39.423  20.555  13.890
39817W        W 1128  41.928  25.052   1.812
39818W        W 1129   0.781   1.803   2.327
39819W        W 1130  33.601  27.996   1.836
39820W        W 1131  24.140  22.218   0.418
39821W        W 1132  23.183  12.235  13.867
39822W        W 1133   4.341  33.594  12.888
39823W        W 1134  12.120  13.275  14.010
39824W        W 1135  41.907  34.062   3.797
39825W        W 1136  12.334  11.854  11.454
39826W        W 1137  20.767   8.834  12.855
39827W        W 1138  36.580  19.185   0.967
39828W        W 1139  33.615  21.237  11.519
39829W        W 1140  23.669  21.077   4.220
39830W        W 1141  36.357   6.903  10.613
39831W        W 1142  42.501  13.164  14.415
39832W        W 1143  32.078  20.203  12.482
39833W        W 1144  18.780  34.477  10.599
39834W        W 1145   6.834  18.561   3.163
39835W        W 1146  35.981  26.614  14.499
39836W        W 1147  31.084   4.395   1.729
39837W        W 1148  40.797  22.578  14.338
39838W        W 1149   2.796  20.215  13.906
39839W        W 1150   0.275  36.573   3.672
39840W        W 1151  23.583  38.474  13.030
39841W        W 1152  32.981   4.377  13.913
39842W        W 1153  14.333  41.974   4.313
39843W        W 1154  17.636   7.866  11.612
39844W        W 1155  23.690  14.725   1.798
39845W        W 1156  19.624  31.950   5.089
39846W        W 1157  21.539  41.923  10.146
39847W        W 1158   7.907  41.500   0.810
39848W        W 1159  37.436  43.825  14.820
39849W        W 1160  42.872  23.056   1.790
39850W        W 1161  10.766  20.122  13.458
39851W        W 1162  26.550  39.377  13.463
39852W        W 1163  27.665  34.893  14.333
39853W        W 1164  19.625  17.113  13.842
39854W        W 1165   3.754   0.826   2.207
39855W        W 1166  43.770   3.882  13.841
39856W        W 1167  43.446  20.258   3.736
39857W        W 1168  13.686  19.622   3.325
39858W        W 1169  16.631  39.892   2.275
39859W        W 1170  39.347  18.162   2.888
39860W        W 1171   9.773  27.964  11.029
39861W        W 1172   9.886  10.342   1.877
39862W        W 1173  34.434  23.142   1.399
39863W        W 1174   4.725  16.663   9.563
39864W        W 1175  42.803  14.204   3.353
39865W        W 1176  42.841   6.834   4.642
39866W        W 1177  28.475  19.730  12.053
39867W        W 1178  23.164   8.200  10.938
39868W        W 1179  14.218  20.271   0.389
39869W        W 1180  23.575   5.257   2.698
39870W        W 1181  12.791  29.948   1.258
39871W        W 1182  44.372  26.128   3.221
39872W        W 1183  36.440   6.740  13.036
39873W        W 1184  19.061   2.737   1.807
39874W        W 1185  27.193   0.853  10.585
39875W        W 1186  20.656  14.250  12.991
39876W        W 1187  31.612  24.634  14.991
39877W        W 1188  41.023   9.654   2.380
39878W        W 1189   1.961  15.797   0.908
39879W        W 1190   7.829  36.437  10.466
39880W        W 1191  39.904  13.676   4.273
39881W        W 1192   4.740   3.763   0.386
39882W        W 1193   3.330   4.436  12.523
39883W        W 1194   0.286   9.702  12.414
39884W        W 1195  35.463  17.574  11.859
39885W        W 1196  21.179   6.306   4.821
39886W        W 1197  13.148  29.666   3.776
39887W        W 1198  14.787  37.960   4.723
39888W        W 1199  37.970  28.059   0.956
39889W        W 1200   7.785  14.798   1.876
39890W        W 1201  28.095   4.748   4.629
39891W        W 1202  41.396  10.841   1.275
39892W        W 1203  11.787   4.721   1.870
39893W        W 1204   4.770  44.495  12.482
39894W        W 1205  40.805  36.859  10.429
39895W        W 1206  41.902  43.352  14.967
39896W        W 1207  19.048  11.357   4.340
39897W        W 1208  34.445  44.461  12.411
39898W        W 1209  22.231   9.351  14.913
39899W        W 1210  30.955  13.226   3.221
39900W        W 1211  36.432  42.895  13.054
39901W        W 1212  38.897  23.095  13.019
39902W        W 1213  39.030  44.410  14.854
39903W        W 1214  41.987   2.449   2.777
39904W        W 1215  10.325  20.226  13.494
39905W        W 1216  24.003  20.731   1.413
39906W        W 1217  22.230   0.475  11.447
39907W        W 1218   8.322  29.920   1.742
39908W        W 1219  20.064  31.962  11.578
39909W        W 1220  29.021  33.974   1.308
39910W        W 1221  43.816  13.138  13.311
39911W        W 1222  26.702  31.117   5.296
39912W        W 1223  15.640  28.557   3.837
39913W        W 1224  30.549   5.805  13.829
39914W        W 1225  27.504   7.746   4.188
39915W        W 1226  34.970   9.352  12.871
39916W        W 1227   5.834   2.404   2.338
39917W        W 1228   7.842  43.515  13.917
39918W        W 1229  12.276  30.110   4.291
39919W        W 1230   3.279  22.234   3.158
39920W        W 1231  17.263  13.814   1.769
39921W        W 1232  10.168  16.309   0.828
39922W        W 1233  33.939  36.871  14.860
39923W        W 1234  43.764  42.471   2.271
39924W        W 1235  44.406  40.348  11.381
39925W        W 1236  27.602  41.884  12.509
39926W        W 1237  33.888  10.743  12.529
39927W        W 1238  17.224  10.867   2.204
39928W        W 1239  30.159   9.774   0.902
39929W        W 1240  40.803  29.107   0.390
39930W        W 1241  28.568   1.261  14.363
39931W        W 1242  22.141   2.392   4.678
39932W        W 1243  43.315  26.489  13.342
39933W        W 1244  41.021  30.066  10.573
39934W        W 1245  19.769   9.299   3.238
39935W        W 1246   0.870  23.670  13.849
39936W        W 1247  44.357   6.918   4.684
39937W        W 1248  37.888  21.184   2.238
39938W        W 1249   1.244  19.538  11.543
39939W        W 1250   5.787  22.742  12.032
39940W        W 1251  21.091  42.934  14.369
39941W        W 1252  41.843   2.852  14.477
39942W        W 1253  40.527  31.402   1.854
39943W        W 1254  40.838  42.881  14.837
39944W        W 1255   3.939  34.025  13.006
39945W        W 1256  23.133  28.982  12.010
39946W        W 1257   0.453  19.636   0.798
39947W        W 1258  43.871  20.580  11.519
39948W        W 1259  44.908  17.105  14.460
39949W        W 1260  13.300  33.959  12.420
39950W        W 1261  21.196  24.644   2.812
39951W        W 1262  30.557   3.400   1.792
39952W        W 1263  29.052   5.253   0.298
39953W        W 1264   2.352  31.019  13.044
39954W        W 1265  23.569  43.900  12.427
39955W        W 1266  25.574  18.097   2.751
39956W        W 1267  36.053  28.668  13.916
39957W        W 1268  40.006  16.785   0.967
39958W        W 1269  42.419  39.325   3.171
39959W        W 1270  12.156  11.319  11.536
39960W        W 1271  28.151   8.663   0.851
39961W        W 1272  10.234  14.125   3.853
39962W        W 1273  33.432   7.238   1.262
39963W        W 1274  16.721   0.900  13.857
39964W        W 1275  39.913  29.132   3.326
39965W        W 1276  26.161  26.622   0.365
39966W        W 1277  23.016  25.685  12.493
39967W        W 1278  35.064  39.875   1.270
39968W        W 1279  15.158  40.927   2.256
39969W        W 1280   1.255  44.897   1.815
39970W        W 1281  24.656  32.481   1.393
39971W        W 1282  44.487  42.928  11.922
39972W        W 1283  14.625  25.033  14.476
39973W        W 1284   6.186  16.713  14.400
39974W        W 1285  25.629  22.700   1.243
39975W        W 1286  32.537  18.692   1.767
39976W        W 1287   7.741   4.925  13.986
39977W        W 1288  38.889  35.365  14.306
39978W        W 1289  17.240  22.562   3.228
39979W        W 1290  10.794  38.560  14.455
39980W        W 1291  17.651  37.505  13.861
39981W        W 1292   5.243  10.281  12.884
39982W        W 1293   2.373  22.034  14.022
39983W        W 1294  29.549   7.326   2.817
39984W        W 1295  39.034  16.785   4.823
39985W        W 1296  43.007  42.963  14.773
39986W        W 1297  38.955  44.402  11.555
39987W        W 1298  31.961  22.699   2.348
39988W        W 1299   2.853  24.157  12.860
39989W        W 1300  23.179  29.453  12.486
39990W        W 1301   4.270  20.194   3.345
39991W        W 1302  30.653  44.499  13.523
39992W        W 1303   9.644  24.047   3.787
39993W        W 1304  30.481  37.065   0.305
39994W        W 1305  44.877  41.005   2.408
39995W        W 1306  20.647  27.674   3.229
39996W        W 1307  41.959   1.481  14.482
39997W        W 1308  34.394  41.427  13.387
39998W        W 1309  43.914  21.556   1.724
39999W        W 1310   8.209  41.506  11.032
40000W        W 1311  19.585  10.255  13.903
40001W        W 1312   9.725  16.187  12.908
40002W        W 1313  13.212  16.775  12.964
40003W        W 1314  13.295   3.334   1.218
40004W        W 1315  44.914  32.061   0.325
40005W        W 1316  19.208  16.077   2.197
40006W        W 1317  23.730  15.190  12.466
40007W        W 1318  18.173  26.987   4.310
40008W        W 1319   5.197  24.596   1.351
40009W        W 1320  26.574  22.525  12.447
40010W        W 1321  42.314  22.678   0.834
40011W        W 1322   5.873   3.353   3.818
40012W        W 1323   5.198   7.374  12.852
40013W        W 1324  36.887  29.617   1.427
40014W        W 1325   0.316  26.637   4.794
40015W        W 1326  19.174  37.073   5.696
40016W        W 1327  19.729   0.405  10.982
40017W        W 1328   4.382  20.603  11.384
40018W        W 1329  36.557  29.496  14.457
40019W        W 1330  34.012   7.179   3.281
40020W        W 1331  39.902   3.344   1.343
40021W        W 1332  17.065  22.714   0.729
40022W        W 1333  25.047  11.688   0.957
40023W        W 1334  23.165  42.847   2.850
40024W        W 1335  28.156  18.178   4.702
40025W        W 1336  31.095  43.965  10.574
40026W        W 1337  11.319   0.423   0.727
40027W        W 1338  22.132  32.999  14.424
40028W        W 1339   1.283  28.953  10.507
40029W        W 1340  24.679  13.138  12.075
40030W        W 1341  19.191  19.588   0.294
40031W        W 1342   8.164   6.203  12.885
40032W        W 1343  40.327  38.503  10.018
40033W        W 1344   9.836  16.192   1.421
40034W        W 1345   6.802  19.604  13.454
40035W        W 1346  28.013  28.598  12.579
40036W        W 1347   3.846  10.811  12.469
40037W        W 1348   8.847  30.135  12.483
40038W        W 1349  27.980  14.594  11.439
40039W        W 1350  14.638  17.587  11.886
40040W        W 1351  26.554  30.016   0.264
40041W        W 1352  36.578  31.493  13.521
40042W        W 1353  42.461  41.316   4.599
40043W        W 1354  40.979  21.677  14.435
40044W        W 1355   1.974  14.793  12.450
40045W        W 1356   4.898  38.928   5.126
40046W        W 1357   6.407  31.614   0.868
40047W        W 1358   0.326  24.578   4.283
40048W        W 1359   9.667  27.996  12.529
40049W        W 1360  16.569  34.074  13.916
40050W        W 1361   0.324   8.688  14.310
40051W        W 1362  22.214  39.917  11.857
40052W        W 1363  41.915  34.958  11.859
40053W        W 1364   9.364  40.435   9.998
40054W        W 1365   0.935  37.570   3.814
40055W        W 1366   4.759  15.123  14.365
40056W        W 1367  42.808  23.600   9.989
40057W        W 1368  14.294   7.231  12.435
40058W        W 1369  35.858  12.192   2.864
40059W        W 1370  31.907  30.529   4.701
40060W        W 1371   8.659  13.160   4.643
40061W        W 1372   8.776  17.080   1.216
40062W        W 1373  30.599  35.938  13.420
40063W        W 1374  19.678  30.053   3.380
40064W        W 1375   4.383  34.421   1.735
40065W        W 1376  30.163  34.058  12.943
40066W        W 1377   3.865  18.214  13.944
40067W        W 1378  37.490  16.243   3.156
40068W        W 1379  42.806  31.080  14.785
40069W        W 1380   8.286   4.906   2.814
40070W        W 1381  34.997  21.100   4.719
40071W        W 1382  19.559  39.493   9.560
40072W        W 1383  33.622  28.552  12.049
40073W        W 1384  40.908  34.048   2.238
40074W        W 1385  12.818  18.690   0.963
40075W        W 1386  21.578  20.273   1.218
40076W        W 1387  17.107   2.313   2.844
40077W        W 1388   8.742  40.488   1.289
40078W        W 1389  44.990  25.655  14.905
40079W        W 1390  17.775  23.518  13.819
40080W        W 1391  37.545  20.613   2.304
40081W        W 1392  16.689  39.895   1.408
40082W        W 1393  44.761  34.891   2.856
40083W        W 1394  40.536  34.887  13.360
40084W        W 1395  21.696  23.734  11.498
40085W        W 1396   8.738  21.616  14.302
40086W        W 1397  10.718  25.638   2.299
40087W        W 1398  19.168   9.741  12.095
40088W        W 1399  34.517  17.192   3.789
40089W        W 1400  39.353  23.518  14.764
40090W        W 1401   9.256  33.380  12.051
40091W        W 1402  18.251  12.168   4.271
40092W        W 1403  15.291  15.637  13.450
40093W        W 1404   0.306  14.715  10.955
40094W        W 1405  25.086  18.629  13.965
40095W        W 1406  35.465  29.586   4.329
40096W        W 1407  16.574  28.034   2.719
40097W        W 1408  25.559   3.230  12.947
40098W        W 1409   0.912   8.384  11.076
40099W        W 1410  34.385  12.311  11.463
40100W        W 1411  44.802  34.932  10.625
40101W        W 1412   6.804  11.713   4.242
40102W        W 1413  40.394  33.517  13.896
40103W        W 1414  14.216  13.652  14.840
40104W        W 1415  40.496   7.352  11.880
40105W        W 1416  15.177  25.102  12.065
40106W        W 1417  41.966  25.085   0.966
40107W        W 1418  15.215  11.188  14.001
40108W        W 1419   2.893   7.807   1.303
40109W        W 1420  43.910  19.598  12.025
40110W        W 1421  10.302  28.595  14.949
40111W        W 1422  22.114  21.671   0.740
40112W        W 1423  40.004  17.612   3.670
40113W        W 1424  30.093   7.232   0.825
40114W        W 1425  20.175   2.755   4.309
40115W        W 1426  31.088  12.721   5.158
40116W        W 1427  41.926  33.066   1.934
40117W        W 1428  36.480  25.142   0.378
40118W        W 1429  15.159  28.443   0.744
40119W        W 1430   0.808  28.021   0.359
40120W        W 1431  10.867   8.895  12.892
40121W        W 1432  13.766   8.258  14.993
40122W        W 1433  31.067  37.076   1.714
40123W        W 1434   4.235  23.613   0.849
40124W        W 1435  26.636  35.517   2.710
40125W        W 1436  22.208  39.906  13.505
40126W        W 1437  41.326  19.274  13.004
40127W        W 1438   1.906  32.433  12.043
40128W        W 1439  13.295  19.540  11.125
40129W        W 1440  22.105  10.244   4.201
40130W        W 1441  28.160  31.405  13.538
40131W        W 1442  43.305   5.345   1.285
40132W        W 1443  28.631   1.351  11.461
40133W        W 1444  20.081   8.717  10.111
40134W        W 1445  11.624   5.231   0.847
40135W        W 1446  30.658  28.602   4.317
40136W        W 1447  24.133  21.192   2.805
40137W        W 1448  16.109  40.505   1.372
40138W        W 1449  32.947  11.273  10.522
40139W        W 1450  19.747  39.933  14.505
40140W        W 1451  17.779  20.069   4.184
40141W        W 1452  21.680   0.928  10.566
40142W        W 1453  17.094  24.178   3.641
40143W        W 1454  35.577   6.733  10.436
40144W        W 1455  39.425  26.675  14.307
40145W        W 1456   3.439  21.632  11.565
40146W        W 1457   7.320  24.125   0.348
40147W        W 1458  26.458   4.253   2.418
40148W        W 1459   0.475  21.638  10.944
40149W        W 1460  17.623  40.984  11.396
40150W        W 1461  19.640  25.179   2.182
40151W        W 1462  31.066  39.940  10.934
40152W        W 1463  23.101  16.675   4.666
40153W        W 1464   9.867  44.795  13.970
40154W        W 1465  22.174   1.262   2.866
40155W        W 1466  39.373  12.304   3.800
40156W        W 1467   8.892   4.787  13.495
40157W        W 1468  39.032   6.398  14.016
40158W        W 1469  24.170  38.955  14.875
40159W        W 1470  20.264  37.069  11.035
40160W        W 1471   1.459  34.605  10.507
40161W        W 1472   4.867  35.504  11.878
40162W        W 1473  14.728  21.160   1.810
40163W        W 1474  10.724   3.218  12.968
40164W        W 1475  40.974  20.220  10.422
40165W        W 1476  17.728   5.742  10.610
40166W        W 1477  28.531  16.121  10.579
40167W        W 1478  39.010  43.900  11.433
40168W        W 1479  43.911  16.707   2.236
40169W        W 1480  40.310  19.147  11.518
40170W        W 1481  25.969  40.351   4.658
40171W        W 1482  24.022  16.729  14.898
40172W        W 1483  14.214   2.873   0.817
40173W        W 1484  27.094  40.047  13.419
40174W        W 1485  20.752  41.395   2.694
40175W        W 1486  44.465   9.887  13.427
40176W        W 1487  11.769  35.562  13.881
40177W        W 1488  30.908   5.824  14.965
40178W        W 1489  18.095  33.951  10.618
40179W        W 1490  25.071  10.223   0.792
40180W        W 1491  22.112  34.017  12.057
40181W        W 1492  24.510  12.787   4.789
40182W        W 1493  37.337  32.413  11.905
40183W        W 1494  15.780  21.082   2.826
40184W        W 1495  17.099  12.687   4.231
40185W        W 1496   0.934  28.005  11.061
40186W        W 1497   3.351  25.037  13.915
40187W        W 1498  20.044  34.865  11.964
40188W        W 1499  39.984   8.330   1.911
40189W        W 1500  34.424   7.792   0.768
40190W        W 1501   9.786  41.824   1.831
40191W        W 1502  31.897  27.610  11.964
40192W        W 1503  29.004  15.621   0.776
40193W        W 1504   4.385   1.433   1.381
40194W        W 1505  31.018  36.572   3.305
40195W        W 1506  39.544  25.703   1.901
40196W        W 1507   6.373   4.825  11.128
40197W        W 1508  43.923  27.079  13.480
40198W        W 1509  30.514  34.375  12.906
40199W        W 1510  19.213   8.293  10.888
40200W        W 1511  44.902  33.595  13.541
40201W        W 1512  25.535   4.876  13.402
40202W        W 1513  17.184  17.790  12.422
40203W        W 1514   7.303  19.259   4.334
40204W        W 1515  15.096   0.851   2.216
40205W        W 1516  23.525   4.363   0.875
40206W        W 1517   5.374  15.672   3.266
40207W        W 1518   7.172  18.201   0.825
40208W        W 1519  41.390   3.927  11.971
40209W        W 1520  29.527   7.330   2.404
40210W        W 1521  42.363  36.451  10.587
40211W        W 1522  33.410   4.699   4.811
40212W        W 1523  44.899   7.881  14.802
40213W        W 1524   7.292  12.216  14.435
40214W        W 1525  25.563  24.101  14.302
40215W        W 1526  35.087  15.681   0.914
40216W        W 1527  21.543  38.076   0.758
40217W        W 1528  21.545  17.297   4.705
40218W        W 1529  25.632  29.486  13.400
40219W        W 1530  28.133  21.094   0.318
40220W        W 1531  32.142  22.010   0.797
40221W        W 1532  13.809  13.290  13.862
40222W        W 1533  26.185  38.901   2.848
40223W        W 1534  41.366  33.040  14.773
40224W        W 1535  33.050  34.918   0.332
40225W        W 1536  31.931  25.531   5.317
40226W        W 1537  23.241   1.955  12.471
40227W        W 1538   3.783  31.601  11.512
40228W        W 1539  31.977  22.517  14.813
40229W        W 1540  26.567  10.250   1.223
40230W        W 1541  29.612  37.856   2.691
40231W        W 1542   8.692  31.427   4.162
40232W        W 1543  35.080  28.593  12.886
40233W        W 1544   5.873  26.698   1.699
40234W        W 1545  29.117  32.443   1.789
40235W        W 1546   3.819   8.251   4.330
40236W        W 1547  28.121   9.269   0.324
40237W        W 1548   9.772  36.352  12.044
40238W        W 1549  30.643  21.106   4.297
40239W        W 1550   2.472  22.215  11.943
40240W        W 1551  31.101  43.335   2.279
40241W        W 1552  39.327   8.323   4.212
40242W        W 1553  33.475  22.997   0.873
40243W        W 1554  38.928  41.884   1.344
40244W        W 1555  13.822   8.219   3.298
40245W        W 1556  37.504  44.475  13.921
40246W        W 1557  12.239  39.990  12.897
40247W        W 1558  29.077  36.510   1.212
40248W        W 1559   3.244  39.458   1.843
40249W        W 1560  36.855  17.243   2.693
40250W        W 1561   9.702  16.763   0.828
40251W        W 1562   2.879  21.216  11.096
40252W        W 1563   8.831  22.111  11.423
40253W        W 1564   3.420  17.124   0.866
40254W        W 1565  27.187  16.598  12.538
40255W        W 1566  30.640  10.711   3.350
40256W        W 1567  40.482  27.172   0.400
40257W        W 1568  38.413  28.158  13.359
40258W        W 1569   9.365   1.316   2.725
40259W        W 1570  11.759  18.704  13.498
40260W        W 1571   0.790  34.090  10.966
40261W        W 1572  34.600  19.219   2.231
40262W        W 1573  31.571  19.769   2.835
40263W        W 1574  17.074   9.248   4.776
40264W        W 1575  31.141  36.416   4.625
40265W        W 1576  22.700  23.670  11.418
40266W        W 1577   1.853  32.946  10.481
40267W        W 1578   2.948  37.860  10.496
40268W        W 1579  30.937  17.211  11.562
40269W        W 1580  38.416  16.809   2.414
40270W        W 1581   2.246  14.247   0.733
40271W        W 1582  18.145   0.268   4.273
40272W        W 1583  27.015   2.298  11.107
40273W        W 1584  34.016   6.797  11.469
40274W        W 1585  32.627   1.275   3.842
40275W        W 1586  19.576  33.491   0.329
40276W        W 1587  23.525  20.186   5.771
40277W        W 1588  41.422  36.058   2.857
40278W        W 1589  28.632  21.165   3.232
40279W        W 1590   6.200  23.500  12.856
40280W        W 1591   7.695  25.173   5.280
40281W        W 1592   3.346  18.161  11.585
40282W        W 1593  42.381  29.045  14.815
40283W        W 1594   6.305  32.588  11.930
40284W        W 1595   1.794  28.639   1.257
40285W        W 1596  28.007   9.751   0.391
40286W        W 1597  30.070  11.681   0.293
40287W        W 1598  33.397  36.357   4.120
40288W        W 1599  38.008   6.349  11.469
40289W        W 1600   3.260   0.470  14.423
40290W        W 1601  42.385  17.218  12.464
40291W        W 1602   3.887  20.559  10.943
40292W        W 1603  33.886   0.785  13.993
40293W        W 1604  25.980   0.913  11.896
40294W        W 1605  11.243  26.203   3.734
40295W        W 1606   6.256  14.102   1.920
40296W        W 1607  25.562   3.738  11.372
40297W        W 1608   8.369  14.317   3.212
40298W        W 1609  23.138  34.548   3.804
40299W        W 1610  36.070  34.560  11.549
40300W        W 1611  17.792  38.502   1.743
40301W        W 1612   1.481  23.151   0.265
40302W        W 1613  40.011  25.070  12.060
40303W        W 1614   0.412   5.259  14.370
40304W        W 1615  27.022  22.534   1.347
40305W        W 1616  18.099  44.929  14.814
40306W        W 1617  13.606   6.333   2.326
40307W        W 1618  27.627  41.976   0.879
40308W        W 1619   3.801  30.634   0.278
40309W        W 1620  34.568  11.724  12.898
40310W        W 1621  40.892   7.671   4.173
40311W        W 1622  29.932  16.682  12.540
40312W        W 1623  33.950  21.551   4.206
40313W        W 1624  23.169  27.195   1.380
40314W        W 1625   6.751  44.262  10.511
40315W        W 1626  17.077  16.303   2.796
40316W        W 1627   8.305   8.884   1.324
40317W        W 1628  39.867  41.436   2.724
40318W        W 1629  22.132  42.932   0.303
40319W        W 1630  34.497  19.671   1.402
40320W        W 1631   5.710  28.651   1.413
40321W        W 1632  37.419  12.270  14.884
40322W        W 1633  38.072  43.926  12.996
40323W        W 1634  10.849  22.118   4.789
40324W        W 1635  11.730  18.247  13.825
40325W        W 1636  25.630  39.993   2.257
40326W        W 1637  39.439  24.197   0.756
40327W        W 1638  19.541  15.155   0.786
40328W        W 1639  20.238  37.363   1.394
40329W        W 1640  31.640   6.336   3.206
40330W        W 1641  41.363   8.772   2.780
40331W        W 1642  44.448  13.267  10.985
40332W        W 1643  29.640  34.395  13.920
40333W        W 1644  12.640   2.448   4.229
40334W        W 1645  35.552   9.842  13.317
40335W        W 1646  36.526  14.115  14.785
40336W        W 1647  16.678  40.994  13.322
40337W        W 1648   0.933  42.825   2.832
40338W        W 1649  34.393   1.353  12.904
40339W        W 1650  18.117  35.390   2.806
40340W        W 1651  32.623  24.544  12.050
40341W        W 1652  28.595  15.607   2.190
40342W        W 1653  22.128  19.760   3.199
40343W        W 1654  44.273  37.882  11.087
40344W        W 1655   8.741  18.100   3.826
40345W        W 1656  34.888  43.010  10.119
40346W        W 1657   1.795  25.091  13.470
40347W        W 1658   8.387  15.757  10.153
40348W        W 1659  23.116   4.409  12.037
40349W        W 1660   6.826  41.353  14.933
40350W        W 1661  24.480  44.804  13.840
40351W        W 1662   4.406  36.936  11.496
40352W        W 1663  12.820  13.175  14.304
40353W        W 1664  19.170  10.762   4.225
40354W        W 1665  27.997  18.678   3.178
40355W        W 1666  12.650  17.225  13.800
40356W        W 1667  26.078  34.909   1.715
40357W        W 1668  28.023  36.952  13.001
40358W        W 1669  31.592   7.833   1.223
40359W        W 1670  14.614  44.445   1.306
40360W        W 1671  23.220  36.412   2.315
40361W        W 1672   4.845   1.316   0.743
40362W        W 1673  21.142   4.295  10.959
40363W        W 1674  15.702  20.536   3.149
40364W        W 1675  21.608   8.744  12.901
40365W        W 1676  23.724  42.392   3.156
40366W        W 1677  33.006  27.572  10.905
40367W        W 1678  28.590  19.632  13.399
40368W        W 1679  20.731   7.264   1.895
40369W        W 1680  41.795  37.405  13.885
40370W        W 1681  37.903  16.134  12.982
40371W        W 1682  44.937  14.726   0.925
40372W        W 1683  23.614  13.256   0.474
40373W        W 1684  38.460   0.287   0.337
40374W        W 1685  38.428  31.420   5.269
40375W        W 1686  30.530  32.528  12.973
40376W        W 1687  29.641  22.536  10.404
40377W        W 1688   8.654   2.292  12.341
40378W        W 1689  15.800  20.620   1.708
40379W        W 1690  41.364  44.980  12.421
40380W        W 1691  38.874  37.453  12.475
40381W        W 1692  23.591  27.531  12.974
40382W        W 1693  16.767  21.566  14.805
40383W        W 1694  20.174  22.699  10.914
40384W        W 1695  13.766  41.928  13.446
40385W        W 1696   3.407   8.768   3.756
40386W        W 1697  30.001   7.847  12.379
40387W        W 1698  44.479  26.648   0.340
40388W        W 1699  36.403   7.318   4.796
40389W        W 1700  27.585  35.924  14.815
40390W        W 1701   2.290  44.402   3.296
40391W        W 1702  18.767  37.997  14.000
40392W        W 1703   5.385  26.030   2.691
40393W        W 1704  29.546   2.931   3.789
40394W        W 1705  11.726  25.038   3.381
40395W        W 1706   6.380  17.672   1.786
40396W        W 1707  30.099   5.877   3.328
40397W        W 1708  34.930  12.327   2.394
40398W        W 1709  17.687  42.368   4.684
40399W        W 1710   0.401  14.638  11.950
40400W        W 1711  42.431  13.136  12.858
40401W        W 1712  41.891   7.788  13.039
40402W        W 1713  22.139   3.315   4.293
40403W        W 1714  36.575  16.621   4.605
40404W        W 1715   1.457  29.019   0.407
40405W        W 1716  37.341  18.588  14.928
40406W        W 1717  17.630  42.872  13.920
40407W        W 1718  26.557  29.509  12.500
40408W        W 1719  11.751  30.961  10.928
40409W        W 1720   7.692  24.600   4.598
40410W        W 1721  13.800  26.197   4.195
40411W        W 1722  17.160   1.309   1.331
40412W        W 1723  32.924  37.460   0.259
40413W        W 1724   2.770   1.371   3.703
40414W        W 1725  36.967  34.553   1.699
40415W        W 1726   5.689  40.837  14.923
40416W        W 1727  25.587  12.267  14.987
40417W        W 1728  20.128  29.963   0.442
40418W        W 1729  32.397  31.431   3.694
40419W        W 1730  14.663  27.003   1.397
40420W        W 1731  35.485  23.105  13.511
40421W        W 1732  10.797  30.997  14.280
40422W        W 1733  29.517   4.707   3.787
40423W        W 1734  27.009   7.328  11.918
40424W        W 1735  21.755  21.075   1.309
40425W        W 1736   6.716   9.197  10.435
40426W        W 1737  39.943   6.734   1.263
40427W        W 1738  24.510  13.173  13.468
40428W        W 1739  13.183  39.354   1.782
40429W        W 1740   4.778  15.791   0.342
40430W        W 1741  22.683  33.068  12.504
40431W        W 1742  44.938  31.049  14.971
40432W        W 1743  29.097  29.094   0.904
40433W        W 1744   0.887  36.017  10.932
40434W        W 1745  43.430   6.834   1.440
40435W        W 1746  32.427  43.863  12.347
40436W        W 1747  30.946  31.508   0.826
40437W        W 1748  34.025  29.075  12.569
40438W        W 1749  14.236   0.440   1.221
40439W        W 1750  26.577  18.673   2.204
40440W        W 1751  18.193   7.734   2.256
40441W        W 1752  20.739   3.911   3.226
40442W        W 1753  35.535  41.924   2.861
40443W        W 1754  43.906  39.395  11.562
40444W        W 1755  19.078  42.292  12.348
40445W        W 1756  21.552  21.112   4.637
40446W        W 1757  18.073  27.085  14.471
40447W        W 1758  26.202  15.202   4.121
40448W        W 1759  33.501  15.109  14.925
40449W        W 1760  20.104  30.495  10.407
40450W        W 1761  41.354  20.250  10.596
40451W        W 1762   8.395  17.681   3.347
40452W        W 1763  18.267  34.057   4.139
40453W        W 1764   3.365  11.630  14.027
40454W        W 1765   7.857  11.131  14.363
40455W        W 1766  27.183  24.509  10.547
40456W        W 1767   4.252  15.698   0.736
40457W        W 1768  20.085  23.209   2.263
40458W        W 1769  17.744  10.708  12.575
40459W        W 1770  25.601  42.521   2.762
40460W        W 1771  21.713  26.525   0.288
40461W        W 1772  28.048   8.251   0.401
40462W        W 1773  39.968  32.045   3.187
40463W        W 1774   8.367  42.523   3.203
40464W        W 1775  14.672  29.434  13.912
40465W        W 1776  14.658  15.720   2.890
40466W        W 1777  12.318  31.621   1.753
40467W        W 1778  18.766  11.277  10.050
40468W        W 1779  41.338  44.810  11.019
40469W        W 1780  43.384  13.222  10.424
40470W        W 1781  20.161  40.331  13.934
40471W        W 1782  24.116  31.003  12.992
40472W        W 1783   0.793   9.169   1.220
40473W        W 1784  15.800  22.562  11.407
40474W        W 1785  24.624   2.797  11.979
40475W        W 1786  41.353  33.117   0.786
40476W        W 1787  20.181  22.160   3.240
40477W        W 1788  31.041   3.435  12.519
40478W        W 1789  13.647   1.240  13.405
40479W        W 1790   4.300  29.936  11.050
40480W        W 1791   3.719  11.792   1.840
40481W        W 1792  19.717  28.637   4.330
40482W        W 1793   5.806  20.076   4.758
40483W        W 1794  23.736  21.150  10.545
40484W        W 1795  43.836   7.282   0.263
40485W        W 1796  44.936  35.942  14.441
40486W        W 1797   9.343  24.628  14.782
40487W        W 1798   9.798  15.278  12.573
40488W        W 1799  12.667  42.892  11.406
40489W        W 1800  37.579   9.336   3.225
40490W        W 1801  20.241  13.817   0.873
40491W        W 1802  33.101  36.894  14.338
40492W        W 1803  20.566  10.159   4.686
40493W        W 1804  44.466  27.148   2.666
40494W        W 1805  23.719  29.945  12.924
40495W        W 1806   9.818  16.737  12.507
40496W        W 1807   9.870  18.108   3.806
40497W        W 1808  34.918  34.421  12.399
40498W        W 1809  13.675  16.641   1.702
40499W        W 1810  42.350  32.571   4.637
40500W        W 1811  39.834  21.032   0.320
40501W        W 1812  44.876   6.301   4.658
40502W        W 1813  22.544  30.116   0.478
40503W        W 1814  18.129   9.351   4.313
40504W        W 1815  42.820  30.143   4.251
40505W        W 1816  44.351  19.705  13.813
40506W        W 1817  42.992  34.390   0.905
40507W        W 1818  21.728  27.665   0.303
40508W        W 1819   3.255  32.485  13.907
40509W        W 1820  29.604   7.671   2.409
40510W        W 1821  10.345  24.046  14.852
40511W        W 1822   4.399  39.379   3.731
40512W        W 1823  36.985  23.669   0.850
40513W        W 1824  31.451  31.033   2.854
40514W        W 1825  34.457  12.222   4.114
40515W        W 1826  13.738  22.589   2.193
40516W        W 1827   1.850   1.430   0.737
40517W        W 1828  13.648   5.776  11.563
40518W        W 1829  41.515  16.290  14.008
40519W        W 1830  25.071   5.911  13.359
40520W        W 1831  12.348  30.974   3.350
40521W        W 1832  34.081  29.514  11.374
40522W        W 1833  22.223  24.618  14.447
40523W        W 1834  25.157  21.070  13.858
40524W        W 1835  40.491  35.104  13.971
40525W        W 1836  29.966  35.964   1.364
40526W        W 1837   4.855  24.148   2.735
40527W        W 1838  34.917  33.953   0.735
40528W        W 1839   5.291  34.545   3.202
40529W        W 1840   6.329  16.111  13.913
40530W        W 1841  42.780  27.651   1.827
40531W        W 1842  19.575  10.235   2.724
40532W        W 1843  10.257  36.946  12.902
40533W        W 1844  19.200   2.241   2.249
40534W        W 1845   1.787   3.282  14.458
40535W        W 1846  29.953  35.100  12.914
40536W        W 1847  15.642   3.877  14.488
40537W        W 1848  26.697  42.337   2.727
40538W        W 1849  16.800  23.220   3.237
40539W        W 1850  21.585  14.709  13.360
40540W        W 1851  40.865   5.438   0.869
40541W        W 1852  36.582  43.371  10.611
40542W        W 1853  39.503   8.377  14.445
40543W        W 1854  15.634  14.123   1.320
40544W        W 1855   4.938  26.561  12.874
40545W        W 1856  39.327  37.985   3.731
40546W        W 1857  13.300  34.392   1.269
40547W        W 1858  27.105   8.309  13.007
40548W        W 1859   5.342  30.992   0.834
40549W        W 1860  40.317   1.327  14.780
40550W        W 1861  34.608  29.461   4.172
40551W        W 1862   3.455  33.072   2.403
40552W        W 1863  43.832  32.578  14.995
40553W        W 1864  35.909  12.707   4.671
40554W        W 1865  11.219  21.622  13.056
40555W        W 1866   7.884   6.770  12.550
40556W        W 1867  19.264  28.665   4.815
40557W        W 1868  42.435  17.627  13.308
40558W        W 1869  20.214  40.038  13.883
40559W        W 1870  15.227   4.839  10.532
40560W        W 1871   8.710   5.918   4.635
40561W        W 1872  42.845  29.932   3.351
40562W        W 1873  14.806   9.876  14.364
40563W        W 1874  13.142  18.774   4.817
40564W        W 1875  29.974  38.545   1.441
40565W        W 1876   0.417   9.665   2.386
40566W        W 1877  28.124  40.410  11.042
40567W        W 1878   0.436  37.364   0.272
40568W        W 1879  37.534  24.134  14.772
40569W        W 1880  27.952  28.159   4.829
40570W        W 1881  28.564   1.295   1.729
40571W        W 1882  23.233   0.371   3.650
40572W        W 1883  16.307  31.547  13.436
40573W        W 1884   2.340  22.102  14.777
40574W        W 1885   3.316  22.143  14.934
40575W        W 1886  10.700  41.474  14.901
40576W        W 1887  10.656   3.830  11.412
40577W        W 1888   7.834   5.380   2.202
40578W        W 1889   1.425  33.476  14.863
40579W        W 1890  23.635  12.659   1.287
40580W        W 1891   5.275   2.246   1.328
40581W        W 1892   4.334   8.664   3.853
40582W        W 1893   8.403   0.782  13.466
40583W        W 1894  43.881  43.454  12.932
40584W        W 1895   6.683  16.631   1.923
40585W        W 1896  34.989  23.727  11.040
40586W        W 1897  29.042  12.156   0.417
40587W        W 1898  19.065  13.321  10.421
40588W        W 1899  33.410  21.243   3.704
40589W        W 1900  41.441  44.766   3.231
40590W        W 1901   1.400  32.536   4.742
40591W        W 1902  39.539  24.109  13.375
40592W        W 1903   7.228   4.263  13.039
40593W        W 1904  17.610   0.393  12.532
40594W        W 1905  26.558   1.464   1.708
40595W        W 1906  35.400  25.151  14.977
40596W        W 1907  11.189  28.066  13.035
40597W        W 1908  43.979  19.602  14.314
40598W        W 1909  33.613  41.340  11.086
40599W        W 1910  10.330  15.207  13.326
40600W        W 1911  11.318  12.154  12.406
40601W        W 1912   8.169  26.146  10.632
40602W        W 1913   0.310  13.782  11.585
40603W        W 1914  44.277  17.187  12.441
40604W        W 1915  43.382  26.122   2.752
40605W        W 1916  16.599  23.535   3.301
40606W        W 1917  29.092  14.825   1.268
40607W        W 1918  33.883  38.950  14.788
40608W        W 1919  26.569   7.235  12.936
40609W        W 1920  10.820  15.645   3.773
40610W        W 1921  36.883  44.315  11.109
40611W        W 1922  10.787   1.896  13.795
40612W        W 1923   8.402  20.542  14.477
40613W        W 1924  23.562  15.678   1.250
40614W        W 1925  20.543  28.679  12.362
40615W        W 1926  15.256  26.560   9.957
40616W        W 1927  13.309  31.446   4.779
40617W        W 1928  10.845  29.988  13.479
40618W        W 1929   1.473  31.902   0.391
40619W        W 1930  18.588   5.315  12.898
40620W        W 1931  41.807  14.311  11.375
40621W        W 1932  32.989   6.364  14.501
40622W        W 1933   9.211  44.443  11.092
40623W        W 1934   0.832  28.657   2.283
40624W        W 1935  34.033  44.005  10.593
40625W        W 1936  34.951  40.961   2.687
40626W        W 1937   3.911  15.315  11.510
40627W        W 1938  12.249   8.842   3.219
40628W        W 1939  12.126  32.554  10.567
40629W        W 1940  15.744  20.214  13.381
40630W        W 1941  39.038  26.053   3.318
40631W        W 1942  15.737  14.715  13.345
40632W        W 1943  23.674  25.653  10.626
40633W        W 1944   1.900  40.935  12.836
40634W        W 1945  36.881  38.835  12.839
40635W        W 1946  31.486   5.801   1.742
40636W        W 1947  39.445  14.633   3.791
40637W        W 1948  35.075  36.566   0.479
40638W        W 1949  13.295   6.711   4.351
40639W        W 1950  30.455  14.100   1.359
40640W        W 1951  10.644  42.942  13.880
40641W        W 1952   4.416  17.181  13.400
40642W        W 1953  36.440  29.049   4.631
40643W        W 1954  24.702   6.856  10.507
40644W        W 1955  38.370  14.278   2.819
40645W        W 1956  11.337   8.228  11.881
40646W        W 1957  30.085   0.315   2.780
40647W        W 1958  35.445  30.519   3.189
40648W        W 1959   6.828  39.550   0.465
40649W        W 1960   8.787  27.534  10.491
40650W        W 1961  22.165  26.973  11.591
40651W        W 1962   4.220  15.592   4.187
40652W        W 1963  43.786  27.059  12.926
40653W        W 1964  11.627  20.227   0.356
40654W        W 1965  35.983  37.985  12.483
40655W        W 1966   0.747  10.877  14.366
40656W        W 1967  17.741  30.594  11.998
40657W        W 1968  12.676  38.076  12.852
40658W        W 1969  31.898  12.182   3.163
40659W        W 1970  40.007  16.263  14.309
40660W        W 1971  16.280  41.537  11.481
40661W        W 1972  37.029   2.802   0.888
40662W        W 1973  12.195  39.981   3.827
40663W        W 1974  21.689  43.382  12.459
40664W        W 1975  39.902  44.408   1.379
40665W        W 1976  33.992  11.205   1.717
40666W        W 1977  42.475   7.761   3.249
40667W        W 1978   7.671  29.009  13.471
40668W        W 1979  35.035   4.750  12.832
40669W        W 1980  18.131  36.450  14.806
40670W        W 1981  34.535  26.601   0.904
40671W        W 1982   5.357   8.779  13.458
40672W        W 1983  36.440  33.571  10.517
40673W        W 1984  27.630  31.426  13.025
40674W        W 1985   8.760  22.518  14.379
40675W        W 1986  39.011  38.887   0.808
40676W        W 1987  35.596  11.358   1.811
40677W        W 1988  39.506  28.172   2.311
40678W        W 1989  24.624  11.836   2.806
40679W        W 1990  31.525   3.362   4.173
40680W        W 1991  25.519  27.635  11.942
40681W        W 1992  16.702  32.545  13.409
40682W        W 1993  31.490  15.282  10.922
40683W        W 1994  21.097  28.152   3.823
40684W        W 1995  21.058   2.445  12.862
40685W        W 1996  29.522  37.976   2.339
40686W        W 1997  38.404   8.794   4.226
40687W        W 1998   6.736  36.893   2.866
40688W        W 1999  29.540  40.514   0.460
40689W        W 2000   2.310   0.461  11.608
40690W        W 2001  24.548  35.546  12.065
40691W        W 2002  10.787  16.721   1.711
40692W        W 2003  16.636  40.476   4.720
40693W        W 2004  20.609  32.451   9.465
40694W        W 2005  21.574   6.292   1.298
40695W        W 2006  37.921   7.762  11.969
40696W        W 2007   3.842  27.194  10.489
40697W        W 2008  24.123   6.223   9.953
40698W        W 2009   7.863   8.888  12.427
40699W        W 2010  19.253   0.877  13.002
40700W        W 2011  14.804   4.823   1.235
40701W        W 2012  26.604  12.820  11.876
40702W        W 2013  25.989  38.027  12.882
40703W        W 2014   5.797  32.074   2.352
40704W        W 2015   0.472  19.253  11.389
40705W        W 2016  29.147  25.583  13.813
40706W        W 2017  26.991  18.618   0.943
40707W        W 2018  32.996  15.218   4.621
40708W        W 2019  10.301  20.068   1.862
40709W        W 2020  36.890  16.145  14.979
40710W        W 2021   8.256   9.762   4.282
40711W        W 2022  28.097  30.631   2.198
40712W        W 2023  44.924   1.433  10.602
40713W        W 2024   5.342  42.281   4.783
40714W        W 2025  39.477  26.610   1.715
40715W        W 2026  39.910   7.364  13.357
40716W        W 2027   7.200  13.618  11.939
40717W        W 2028  27.954  15.167   2.701
40718W        W 2029  17.067  31.119  13.540
40719W        W 2030  24.632  30.640  12.943
40720W        W 2031  18.262  10.278  13.859
40721W        W 2032  28.177   2.753  12.009
40722W        W 2033  33.098   7.270  12.036
40723W        W 2034  24.985  22.700   4.146
40724W        W 2035  37.865  37.044   9.522
40725W        W 2036  15.703  38.821  14.340
40726W        W 2037  12.722  24.607   0.448
40727W        W 2038  28.142  36.380  12.964
40728W        W 2039  18.083  40.871  10.053
40729W        W 2040  19.242  43.904  11.080
40730W        W 2041  29.609   3.432   5.273
40731W        W 2042  29.104  10.235   5.147
40732W        W 2043   6.681  44.457   2.890
40733W        W 2044  30.152  43.321  11.517
40734W        W 2045  16.196   2.810   0.254
40735W        W 2046  33.461   6.261   4.697
40736W        W 2047  19.151  13.326  13.460
40737W        W 2048  23.199  14.762   4.801
40738W        W 2049  43.430   9.355  13.812
40739W        W 2050  31.042  11.723  11.893
40740W        W 2051  44.467  10.843  12.944
40741W        W 2052  36.959  35.562  13.501
40742W        W 2053  34.093   1.319  11.924
40743W        W 2054   3.328  13.313  11.603
40744W        W 2055   2.246  33.090   3.370
40745W        W 2056  17.719   9.857  12.086
40746W        W 2057  36.068  39.513  11.018
40747W        W 2058  18.671  41.917   0.404
40748W        W 2059  14.292  29.951   3.205
40749W        W 2060  11.670  37.006   0.437
40750W        W 2061   7.412   8.289   4.309
40751W        W 2062  32.996  24.702   4.152
40752W        W 2063  11.719   7.190   3.371
40753W        W 2064   7.181  17.286   3.661
40754W        W 2065  42.402  21.567   1.316
40755W        W 2066  13.217  13.711   1.732
40756W        W 2067  41.833   9.336  14.320
40757W        W 2068  16.579  18.090   2.734
40758W        W 2069  32.575  12.177  14.381
40759W        W 2070  11.735  15.213  12.845
40760W        W 2071  44.883  33.907  11.904
40761W        W 2072  31.080  22.711  12.950
40762W        W 2073  24.193   9.255  11.943
40763W        W 2074   5.378  35.992   2.706
40764W        W 2075  14.809   3.872   1.881
40765W        W 2076  36.407  38.916   3.285
40766W        W 2077  30.983   1.896   1.758
40767W        W 2078  29.437  38.454   2.356
40768W        W 2079   0.435  43.909  13.358
40769W        W 2080  27.093   4.423  12.883
40770W        W 2081  42.902  25.103  10.435
40771W        W 2082  34.054  24.574  12.507
40772W        W 2083  42.466   4.799  14.910
40773W        W 2084  26.613  37.020   2.379
40774W        W 2085  43.480  16.285   3.292
40775W        W 2086  37.870  18.715   2.255
40776W        W 2087  19.128  31.566  12.860
40777W        W 2088  26.521  31.022  13.828
40778W        W 2089  37.029  43.363   4.189
40779W        W 2090  10.208  34.949   0.268
40780W        W 2091  15.209  40.978   1.233
40781W        W 2092   7.343  28.617   0.246
40782W        W 2093  12.148  11.639   2.342
40783W        W 2094  28.123  37.070   1.367
40784W        W 2095  19.281  32.033  10.530
40785W        W 2096   9.163   1.957   1.436
40786W        W 2097  42.781  11.778   4.624
40787W        W 2098  38.418  29.572   2.241
40788W        W 2099  30.083  36.990  11.420
40789W        W 2100  31.542  26.671   0.323
40790W        W 2101  41.825  37.007  14.863
40791W        W 2102  20.702  12.233   4.641
40792W        W 2103  12.261   1.833   4.209
40793W        W 2104  11.829  28.643  13.841
40794W        W 2105  37.857   2.460  13.875
40795W        W 2106  14.213  30.610  13.870
40796W        W 2107  19.131  22.105   3.326
40797W        W 2108  30.020  34.542   0.357
40798W        W 2109  44.759   2.906  13.891
40799W        W 2110  18.718  14.277   0.392
40800W        W 2111  10.653  42.857  13.046
40801W        W 2112  32.440  44.849   2.213
40802W        W 2113  43.906  17.201  14.973
40803W        W 2114  44.404  24.523   0.804
40804W        W 2115  33.915  38.830  11.890
40805W        W 2116  11.237  44.289   1.279
40806W        W 2117  29.069   8.260  13.512
40807W        W 2118  44.435  27.664  13.516
40808W        W 2119   6.906  36.371   3.792
40809W        W 2120  20.523  29.021   3.776
40810W        W 2121  13.285  15.589  10.514
40811W        W 2122   5.276  11.295   0.728
40812W        W 2123  28.986  24.088   2.240
40813W        W 2124  36.586   3.360  10.891
40814W        W 2125  35.974   1.846   2.663
40815W        W 2126  11.851  30.506   4.310
40816W        W 2127  23.508  30.036   4.767
40817W        W 2128   5.274  12.640  13.541
40818W        W 2129  12.738  19.225   2.413
40819W        W 2130   8.717  40.374   1.754
40820W        W 2131  15.716  20.576   3.704
40821W        W 2132  39.055   1.953  11.124
40822W        W 2133  34.439  10.803   1.744
40823W        W 2134  18.688  20.155  10.566
40824W        W 2135  28.092   6.756   0.305
40825W        W 2136  21.198  24.723   4.726
40826W        W 2137  19.772  35.093   2.860
40827W        W 2138  14.754  12.252   1.423
40828W        W 2139   5.829  13.169  11.600
40829W        W 2140  36.484  41.395  11.112
40830W        W 2141  27.493   9.246  14.841
40831W        W 2142  43.798  13.768   0.785
40832W        W 2143  39.895  11.224   1.435
40833W        W 2144  36.010  31.117  13.837
40834W        W 2145   4.858   3.789  10.026
40835W        W 2146   8.867  27.077  11.046
40836W        W 2147  10.771  34.536  11.375
40837W        W 2148  20.253  10.294  12.439
40838W        W 2149  27.037  20.567  13.820
40839W        W 2150  26.043  38.974  12.919
40840W        W 2151  27.137  20.610  14.508
40841W        W 2152   6.274   1.382  14.960
40842W        W 2153  16.310  20.730  11.107
40843W        W 2154  23.652  11.194  13.938
40844W        W 2155  14.236  28.558   3.289
40845W        W 2156   9.302  20.667   0.733
40846W        W 2157  26.671   3.886   4.666
40847W        W 2158  24.163  31.557   1.368
40848W        W 2159  24.005  33.524   4.686
40849W        W 2160  29.016  42.884  10.936
40850W        W 2161  44.355  38.067   2.237
40851W        W 2162  20.180   7.368   2.827
40852W        W 2163  33.560  10.217   2.369
40853W        W 2164  21.713   7.341  13.381
40854W        W 2165  18.602  31.992   4.286
40855W        W 2166   4.931  30.510   4.714
40856W        W 2167  19.640  20.691   1.756
40857W        W 2168  36.979   4.789  14.407
40858W        W 2169  23.612  31.917   1.230
40859W        W 2170  40.413  27.662  10.578
40860W        W 2171  38.867  24.516  13.330
40861W        W 2172  19.624  41.943   0.317
40862W        W 2173  30.101  40.805   3.176
40863W        W 2174  31.943  40.321   3.839
40864W        W 2175   0.445  16.597   3.291
40865W        W 2176  28.647  29.973   0.787
40866W        W 2177  16.091  14.107  11.442
40867W        W 2178   2.798  20.207   2.886
40868W        W 2179  33.966   0.884   3.299
40869W        W 2180  12.771  33.993  11.127
40870W        W 2181  40.989  34.083  13.026
40871W        W 2182  44.972  36.406   4.122
40872W        W 2183  16.177  40.900  12.370
40873W        W 2184  23.593  38.939  13.370
40874W        W 2185  41.006  44.800   4.201
40875W        W 2186  23.505  44.808  12.570
40876W        W 2187  14.704  18.623  11.585
40877W        W 2188  14.271  28.601   2.197
40878W        W 2189  24.486  26.208  14.971
40879W        W 2190  27.483  12.185  10.996
40880W        W 2191   6.296  17.263  13.355
40881W        W 2192  28.523  38.523  13.482
40882W        W 2193  35.567  25.974   4.704
40883W        W 2194  15.272  22.655   3.287
40884W        W 2195  41.953   5.238  11.588
40885W        W 2196  30.522  38.961   2.687
40886W        W 2197  30.483  32.062  12.467
40887W        W 2198  20.061   7.397  13.020
40888W        W 2199  25.535  39.419   3.790
40889W        W 2200   8.688  16.312   1.839
40890W        W 2201  17.090   8.256   2.838
40891W        W 2202   4.760  37.534   1.851
40892W        W 2203  21.209  30.486  11.081
40893W        W 2204  23.126   8.671   1.297
40894W        W 2205  41.369  37.932   4.703
40895W        W 2206   4.220  25.158  14.363
40896W        W 2207  31.604  40.378   1.841
40897W        W 2208  15.295  15.103  12.498
40898W        W 2209  12.717   0.342   1.401
40899W        W 2210  41.984   9.322  10.611
40900W        W 2211  28.983  24.580  12.344
40901W        W 2212  11.263  36.985   3.757
40902W        W 2213  30.102  31.969   3.782
40903W        W 2214  13.273  30.425   3.303
40904W        W 2215  12.694  32.620   4.611
40905W        W 2216  35.483   6.222  13.912
40906W        W 2217  13.263  26.163  13.846
40907W        W 2218   7.273  14.228  14.417
40908W        W 2219  23.592   7.855   1.360
40909W        W 2220  17.280  24.023  11.380
40910W        W 2221  11.343  33.885  12.939
40911W        W 2222   8.663   6.738  11.865
40912W        W 2223  41.314  23.080  10.630
40913W        W 2224  30.112   6.209   1.250
40914W        W 2225  40.414  42.979   0.908
40915W        W 2226  36.005  22.609   1.421
40916W        W 2227  24.619  13.724   3.853
40917W        W 2228  37.412  28.667  12.950
40918W        W 2229  36.015  44.926   3.258
40919W        W 2230  11.825  14.272   4.805
40920W        W 2231  13.249  44.424  10.030
40921W        W 2232  18.065  33.020  13.494
40922W        W 2233  23.670  27.151  14.851
40923W        W 2234  15.115  34.092   2.855
40924W        W 2235  35.497  31.623   5.105
40925W        W 2236  19.152  28.000  12.403
40926W        W 2237  35.982   0.401   2.355
40927W        W 2238  39.813  37.843   1.782
40928W        W 2239  29.665  19.540   3.260
40929W        W 2240  32.405  22.017   1.882
40930W        W 2241  31.922   3.455   2.254
40931W        W 2242  37.518  42.931   5.249
40932W        W 2243  16.167  24.053  14.325
40933W        W 2244   9.660   3.813   3.216
40934W        W 2245  28.549  27.066  12.053
40935W        W 2246  15.312  32.935  14.489
40936W        W 2247   7.754  20.068  14.340
40937W        W 2248   8.900  20.244  12.540
40938W        W 2249  42.439  41.449   2.383
40939W        W 2250  24.139   5.228   2.879
40940W        W 2251  21.645  39.987   1.859
40941W        W 2252  20.192  42.388   3.190
40942W        W 2253  17.091   4.895  11.900
40943W        W 2254  25.657  14.101   3.774
40944W        W 2255  41.798  34.499  14.925
40945W        W 2256  43.766  35.565  12.976
40946W        W 2257  43.967  30.949   2.403
40947W        W 2258  22.548  24.590   4.747
40948W        W 2259  26.497  38.563   1.751
40949W        W 2260   5.252  40.973  13.037
40950W        W 2261  29.103  40.840  11.903
40951W        W 2262  27.157  29.037   4.724
40952W        W 2263  35.441   1.902   4.786
40953W        W 2264  41.903  20.680   0.891
40954W        W 2265  22.715  16.600  13.951
40955W        W 2266  41.039  42.895  10.153
40956W        W 2267  32.947  36.889   2.300
40957W        W 2268  44.375  23.051   4.636
40958W        W 2269  19.676  20.720   0.313
40959W        W 2270   1.241  43.413   0.827
40960W        W 2271  11.177  38.964  12.009
40961W        W 2272   3.806  33.914   0.891
40962W        W 2273  32.894  44.887  12.436
40963W        W 2274  22.165  12.171  12.443
40964W        W 2275   1.765  37.391   2.693
40965W        W 2276  42.315  12.200  13.327
40966W        W 2277  39.857  16.278  10.555
40967W        W 2278  25.185  21.526   5.599
40968W        W 2279  40.533  22.999   4.705
40969W        W 2280  11.852  16.096   2.772
40970W        W 2281   3.217  23.644  14.446
40971W        W 2282   0.753  30.927  14.503
40972W        W 2283   4.724   5.287  12.989
40973W        W 2284  35.854   3.459  11.905
40974W        W 2285  11.316  40.834   4.286
40975W        W 2286  22.114  23.038   0.287
40976W        W 2287  29.146  33.624   0.434
40977W        W 2288  24.580  11.730  13.865
40978W        W 2289   8.369  29.945   4.713
40979W        W 2290   0.491  24.672  13.904
40980W        W 2291  22.638   0.985  14.283
40981W        W 2292  38.836  18.149  10.594
40982W        W 2293   9.272   7.234   1.807
40983W        W 2294  29.608  27.450  12.411
40984W        W 2295  30.490  10.711   0.431
40985W        W 2296  12.132  44.005   1.901
40986W        W 2297  37.965  21.540   2.873
40987W        W 2298  30.988  20.656  14.850
40988W        W 2299  33.486   7.414  12.973
40989W        W 2300  12.198  31.435  12.094
40990W        W 2301  31.057  20.599  14.331
40991W        W 2302   8.674   3.420   9.941
40992W        W 2303  12.309   9.326   0.889
40993W        W 2304  42.377   7.838  10.445
40994W        W 2305  34.981   5.408   3.161
40995W        W 2306  19.642   4.311   1.343
40996W        W 2307   4.801  41.916  12.563
40997W        W 2308   7.357  37.068   1.734
40998W        W 2309  31.941   7.712  14.835
40999W        W 2310  37.874   9.656   1.932
41000W        W 2311  13.299  23.095   2.702
41001W        W 2312  36.584  26.965  11.507
41002W        W 2313   0.921  35.024   1.404
41003W        W 2314  22.204  33.523   2.302
41004W        W 2315   7.368  34.376  13.969
41005W        W 2316  41.829  36.089   1.856
41006W        W 2317  26.030  22.202   3.760
41007W        W 2318  15.679  22.105  13.883
41008W        W 2319  17.194  23.156  12.985
41009W        W 2320  14.640  14.710   9.941
41010W        W 2321  31.898  17.112   3.852
41011W        W 2322  20.208  12.286  11.387
41012W        W 2323  43.460   5.878  13.986
41013W        W 2324  40.470  43.409  11.417
41014W        W 2325  42.021  26.652  10.522
41015W        W 2326  18.737  30.996  10.523
41016W        W 2327  26.691   1.961   0.401
41017W        W 2328  38.528  33.385  14.032
41018W        W 2329  34.972  39.336  10.912
41019W        W 2330  35.418   2.729   2.292
41020W        W 2331  40.891  30.907  14.378
41021W        W 2332  38.555  25.114  11.029
41022W        W 2333   7.200  23.673   1.778
41023W        W 2334  15.102  39.387  13.425
41024W        W 2335  10.837   4.344  11.065
41025W        W 2336  21.656   8.175   3.173
41026W        W 2337  37.892   4.863  14.462
41027W        W 2338   1.848  23.693   3.269
41028W        W 2339  26.602  33.031  12.054
41029W        W 2340  17.640  43.015  12.378
41030W        W 2341  13.648   8.166   3.847
41031W        W 2342   3.360  35.072  11.426
41032W        W 2343   4.915   1.448   2.388
41033W        W 2344   6.284   5.870  12.873
41034W        W 2345  39.448  41.896  12.862
41035W        W 2346  39.320  23.639  12.051
41036W        W 2347   5.698  39.927  10.955
41037W        W 2348   8.777   0.961  12.978
41038W        W 2349  10.680  38.331  11.071
41039W        W 2350  31.101  28.518  12.855
41040W        W 2351  20.639   7.842  12.865
41041W        W 2352  24.073  42.804   1.350
41042W        W 2353  36.059  43.306  11.916
41043W        W 2354  42.281  33.490  12.537
41044W        W 2355  29.520  41.964  10.542
41045W        W 2356  26.085   8.178  11.961
41046W        W 2357  26.188   6.747   4.222
41047W        W 2358   4.759  12.635  11.605
41048W        W 2359   2.769  38.448  11.909
41049W        W 2360   7.241   1.455   4.273
41050W        W 2361   3.432  41.945  11.418
41051W        W 2362  17.154  37.518   4.325
41052W        W 2363  30.121  39.021  13.392
41053W        W 2364  11.232  36.346  11.600
41054W        W 2365  38.543  34.068  13.818
41055W        W 2366   0.844  26.999  12.848
41056W        W 2367  17.638  24.227   1.894
41057W        W 2368  37.458  24.176   2.832
41058W        W 2369  20.122   1.242   3.291
41059W        W 2370  42.943   8.188   4.766
41060W        W 2371  35.080   8.667   2.403
41061W        W 2372  33.583  40.344  13.310
41062W        W 2373  11.226  25.552  14.978
41063W        W 2374  10.194  38.532   9.973
41064W        W 2375  14.592   6.778   4.775
41065W        W 2376  17.666  36.852   0.807
41066W        W 2377  25.615  22.076  12.443
41067W        W 2378  10.780  10.352   0.338
41068W        W 2379  30.472  41.379   4.813
41069W        W 2380  36.413   4.786  11.016
41070W        W 2381  23.717   3.287  11.881
41071W        W 2382  29.140  28.614   0.824
41072W        W 2383  10.190  22.523   0.277
41073W        W 2384  32.929  25.195   4.176
41074W        W 2385  43.470   9.767   1.267
41075W        W 2386  29.086   1.237   1.866
41076W        W 2387  15.125  18.687   4.734
41077W        W 2388  37.005   2.848  14.896
41078W        W 2389  17.141  40.037   2.779
41079W        W 2390  11.193  42.347   2.345
41080W        W 2391  24.997  18.554   2.319
41081W        W 2392   0.328  28.020  12.450
41082W        W 2393  18.772  19.609  10.452
41083W        W 2394  19.755  44.799  14.998
41084W        W 2395  29.918  36.017  11.924
41085W        W 2396   0.938  12.717   4.260
41086W        W 2397   9.211  25.678  13.457
41087W        W 2398   1.811  37.999  12.831
41088W        W 2399  12.295  27.137   4.747
41089W        W 2400  38.836  12.832  12.990
41090W        W 2401  19.634  34.577  10.639
41091W        W 2402  22.094  19.149   1.769
41092W        W 2403  18.710  15.714   4.650
41093W        W 2404   9.202   3.218   1.862
41094W        W 2405   4.227  17.636  13.881
41095W        W 2406  34.867  12.730  11.975
41096W        W 2407  22.554  21.564   2.897
41097W        W 2408   0.343  36.571   2.791
41098W        W 2409  15.191   6.735  12.846
41099W        W 2410   0.959   0.910   3.205
41100W        W 2411   6.761  33.978   3.352
41101W        W 2412  11.818  43.381  10.509
41102W        W 2413   6.222  23.222  12.513
41103W        W 2414  33.514  10.269   3.283
41104W        W 2415   0.250  34.433  14.479
41105W        W 2416  28.434  31.507  13.926
41106W        W 2417  17.696   9.765  14.337
41107W        W 2418   5.288  31.938   2.765
41108W        W 2419  16.263  31.607  11.102
41109W        W 2420  26.994  13.605   0.946
41110W        W 2421  43.396  41.293  11.553
41111W        W 2422  29.158  34.579   2.380
41112W        W 2423   8.751   9.851  14.962
41113W        W 2424  22.130  44.276   4.649
41114W        W 2425  13.845  19.698  13.485
41115W        W 2426  14.681  19.613   5.107
41116W        W 2427  44.909  15.799   0.376
41117W        W 2428  26.015  15.128   1.325
41118W        W 2429  23.647  23.714   2.200
41119W        W 2430  23.686  13.602   4.672
41120W        W 2431   0.900  17.161   0.828
41121W        W 2432  27.135   1.940   0.450
41122W        W 2433   5.231   3.752  14.975
41123W        W 2434  38.570  37.872  14.004
41124W        W 2435   6.866  30.453   1.803
41125W        W 2436  25.663   6.189   5.086
41126W        W 2437   0.382  29.476   0.246
41127W        W 2438  42.344   7.828   4.296
41128W        W 2439  18.079  24.133   1.391
41129W        W 2440   2.878   2.741   3.202
41130W        W 2441  41.368  17.082  14.996
41131W        W 2442  35.069   2.409   0.389
41132W        W 2443  15.631  42.358   2.833
41133W        W 2444  36.991  13.764  14.480
41134W        W 2445  41.996  32.966  14.430
41135W        W 2446  18.095  20.728   4.704
41136W        W 2447  33.480  26.702   1.267
41137W        W 2448  11.347  25.537   5.218
41138W        W 2449  20.095  35.052   4.748
41139W        W 2450  21.534  15.619  11.957
41140W        W 2451  20.547  15.582  14.891
41141W        W 2452  17.598  26.039   0.270
41142W        W 2453  18.621  43.422  13.443
41143W        W 2454  21.109  24.983  11.929
41144W        W 2455   9.751  42.360   4.742
41145W        W 2456   4.877  33.487  13.945
41146W        W 2457   0.879  22.147  11.456
41147W        W 2458  36.060  32.426   4.811
41148W        W 2459  19.083  20.035   1.419
41149W        W 2460  31.030  38.835   2.795
41150W        W 2461  10.305  43.433  13.362
41151W        W 2462  22.647  37.938  12.515
41152W        W 2463   8.359  28.995   0.416
41153W        W 2464  40.432  24.012   4.207
41154W        W 2465  37.352  11.717   3.718
41155W        W 2466  24.639  14.695  14.024
41156W        W 2467  13.202   2.441   3.647
41157W        W 2468  25.646   1.313  10.447
41158W        W 2469  26.065  25.985   1.302
41159W        W 2470  16.303   7.381  14.355
41160W        W 2471  30.941  14.271   2.750
41161W        W 2472  15.705  38.548  13.799
41162W        W 2473   1.752  28.606  12.901
41163W        W 2474  33.384  17.704   0.423
41164W        W 2475  40.800  36.414  11.579
41165W        W 2476  13.320  31.457  11.441
41166W        W 2477  39.353  28.015   2.755
41167W        W 2478  34.986   8.394  12.059
41168W        W 2479  11.845  32.593  12.051
41169W        W 2480  32.924  31.407   3.232
41170W        W 2481  20.721  14.600  10.460
41171W        W 2482  25.699   3.784  12.039
41172W        W 2483   5.845  40.935   1.868
41173W        W 2484  31.075  41.319   5.124
41174W        W 2485  39.035  35.000   1.920
41175W        W 2486   9.341  30.645   3.735
41176W        W 2487  16.093  44.429   9.991
41177W        W 2488  15.265  34.371  13.922
41178W        W 2489  10.213   1.926  12.350
41179W        W 2490  20.224   0.410   4.189
41180W        W 2491   2.736  41.031   4.332
41181W        W 2492  28.172  38.910   0.812
41182W        W 2493  14.314  37.572   4.309
41183W        W 2494  40.834  14.109   1.434
41184W        W 2495  17.064  23.029  11.512
41185W        W 2496  13.130  31.053   1.863
41186W        W 2497  37.893  26.468   4.615
41187W        W 2498  30.118   6.293  13.981
41188W        W 2499  20.660  37.464   0.396
41189W        W 2500  44.488  33.972  11.862
41190W        W 2501  22.667  37.575  10.505
41191W        W 2502  29.143  32.399  10.536
41192W        W 2503   1.281   9.261   2.279
41193W        W 2504  38.422   4.788   0.770
41194W        W 2505   4.708  24.994   5.095
41195W        W 2506   1.348  21.692  13.039
41196W        W 2507  11.175   0.399  13.824
41197W        W 2508  14.655  39.504   4.301
41198W        W 2509  40.307   4.757   4.712
41199W        W 2510  28.533   7.782   1.215
41200W        W 2511  18.168  22.140  12.410
41201W        W 2512  31.984  40.336   1.357
41202W        W 2513   2.461  38.893   2.857
41203W        W 2514  10.696  16.184  12.440
41204W        W 2515  37.962   9.875   0.729
41205W        W 2516  15.249  19.088  12.569
41206W        W 2517  14.326  35.019   1.450
41207W        W 2518  24.613  44.275   1.748
41208W        W 2519  14.828   5.829   1.753
41209W        W 2520   9.378  27.974  11.471
41210W        W 2521  35.459  32.988  12.833
41211W        W 2522  43.470  19.631  14.776
41212W        W 2523  29.517   7.787  14.343
41213W        W 2524   3.748   8.392   1.348
41214W        W 2525  39.520  40.546  14.942
41215W        W 2526  36.532  17.630  13.017
41216W        W 2527   0.363  34.428  11.122
41217W        W 2528  14.716  36.053   4.610
41218W        W 2529  23.509   0.840   0.464
41219W        W 2530  41.793  28.163   4.641
41220W        W 2531  30.074  12.130   2.306
41221W        W 2532  40.528  22.590  14.434
41222W        W 2533  36.472   5.224   4.803
41223W        W 2534   3.455  39.881  10.573
41224W        W 2535   4.828   8.216  14.297
41225W        W 2536  36.514  35.599  14.336
41226W        W 2537   8.750   8.254  13.938
41227W        W 2538  22.551  36.895   3.631
41228W        W 2539  16.798  37.906   2.397
41229W        W 2540  26.687  44.810   3.830
41230W        W 2541  10.259  18.637   2.897
41231W        W 2542   3.452  40.821   4.735
41232W        W 2543  17.246   8.840  13.523
41233W        W 2544  33.382  12.351  12.454
41234W        W 2545  15.716  29.453   2.786
41235W        W 2546  43.797   2.447   0.279
41236W        W 2547  26.598  31.008  14.476
41237W        W 2548  19.230   0.418   1.410
41238W        W 2549   6.374  25.524   3.302
41239W        W 2550  11.194  39.944  14.379
41240W        W 2551  35.495  12.628   4.819
41241W        W 2552   1.379   0.438  13.933
41242W        W 2553   7.865  27.591   3.202
41243W        W 2554  36.529  37.484   0.916
41244W        W 2555  33.464   1.929  11.019
41245W        W 2556  37.955  18.781   0.256
41246W        W 2557  42.825   9.303  13.469
41247W        W 2558   2.226   0.264  11.943
41248W        W 2559  34.941   1.922   0.449
41249W        W 2560  14.217   5.826   4.603
41250W        W 2561  42.937  31.018   1.447
41251W        W 2562   1.807  12.836  14.886
41252W        W 2563  18.657  20.548   4.791
41253W        W 2564  36.959  27.127  13.381
41254W        W 2565  28.562  28.551  14.828
41255W        W 2566   6.334  13.757   4.323
41256W        W 2567  32.516  40.315  13.950
41257W        W 2568  26.628  11.853   2.902
41258W        W 2569  14.757  31.040  12.501
41259W        W 2570  23.544  33.959   5.104
41260W        W 2571  10.358  35.502  14.991
41261W        W 2572  40.006  24.671   3.279
41262W        W 2573  13.733  18.667  13.380
41263W        W 2574   0.813  35.599   1.847
41264W        W 2575  10.361  26.529  11.014
41265W        W 2576   0.946   1.345   2.237
41266W        W 2577   0.454  28.645  14.339
41267W        W 2578  15.622  31.427  10.474
41268W        W 2579  37.416  43.973   3.868
41269W        W 2580  24.597  18.550  14.337
41270W        W 2581  40.459   4.933   3.795
41271W        W 2582  25.181  12.762  11.985
41272W        W 2583   9.248  30.126  10.511
41273W        W 2584   1.383  13.793  10.962
41274W        W 2585  44.342  36.018  11.085
41275W        W 2586  43.767  11.743   1.285
41276W        W 2587  37.402  36.537   3.198
41277W        W 2588  26.099  27.952  10.513
41278W        W 2589   2.457   6.322  10.631
41279W        W 2590  21.728  18.117  12.832
41280W        W 2591   9.154   1.961   2.361
41281W        W 2592  37.351  14.335  12.567
41282W        W 2593  42.982  16.209   2.684
41283W        W 2594  14.743  22.691  12.367
41284W        W 2595  15.249   2.427   0.923
41285W        W 2596   2.744  29.567  12.869
41286W        W 2597  17.178   4.347  11.478
41287W        W 2598  21.667  44.502   2.795
41288W        W 2599  30.591  40.819  10.498
41289W        W 2600  23.719  26.110   4.633
41290W        W 2601   1.267   6.734  10.975
41291W        W 2602   9.257  22.556  11.489
41292W        W 2603   8.331  31.941  13.511
41293W        W 2604   8.817  38.003  12.854
41294W        W 2605  37.444   4.753   5.204
41295W        W 2606   0.490   0.891   4.172
41296W        W 2607  41.385  24.483  14.452
41297W        W 2608  29.065  11.204  14.843
41298W        W 2609  11.293   1.789   1.897
41299W        W 2610  30.537  41.810   2.263
41300W        W 2611  10.318  13.617  12.953
41301W        W 2612  32.562  41.490  11.077
41302W        W 2613   9.259  37.003   3.180
41303W        W 2614  42.406  30.133   0.773
41304W        W 2615   5.367  22.084  14.930
41305W        W 2616  17.778   0.960   4.715
41306W        W 2617  34.559   6.219   4.828
41307W        W 2618  32.544   8.775  11.117
41308W        W 2619  21.684  22.526   4.654
41309W        W 2620  22.182  27.134  11.027
41310W        W 2621  10.243  12.835   0.362
41311W        W 2622  12.299  21.127   3.263
41312W        W 2623  40.447  36.517   1.810
41313W        W 2624  34.475  20.731  13.546
41314W        W 2625   3.941  21.216  12.546
41315W        W 2626  37.996  22.999  13.942
41316W        W 2627  24.018  14.703   0.451
41317W        W 2628  30.931  19.637  14.356
41318W        W 2629  17.788  35.406  11.886
41319W        W 2630  40.049  16.180  11.507
41320W        W 2631  28.953  32.966   2.368
41321W        W 2632  28.140  44.792   2.355
41322W        W 2633   6.302   5.751  12.079
41323W        W 2634  30.496  27.161   1.721
41324W        W 2635  23.011  40.307  10.493
41325W        W 2636   5.248  10.683  14.766
41326W        W 2637   9.799   0.485  11.912
41327W        W 2638  44.927  18.639   3.794
41328W        W 2639  36.942   5.926   0.426
41329W        W 2640  41.510  27.490  10.599
41330W        W 2641  43.981  20.064   4.608
41331W        W 2642  38.874   3.321  14.835
41332W        W 2643  38.970  15.809   3.159
41333W        W 2644  18.696  37.842   4.667
41334W        W 2645  21.685  13.111   4.836
41335W        W 2646  30.089  38.906  11.990
41336W        W 2647  15.183   1.773   4.281
41337W        W 2648  13.323  21.151  12.446
41338W        W 2649  14.825  19.698  12.452
41339W        W 2650  38.006  11.320  12.898
41340W        W 2651   6.313  42.520   0.965
41341W        W 2652   6.889  23.691   2.830
41342W        W 2653  28.641  44.320  14.780
41343W        W 2654  37.991  30.452   2.796
41344W        W 2655  41.881  18.783  10.458
41345W        W 2656  38.404  42.900  12.449
41346W        W 2657  23.619  36.448  11.981
41347W        W 2658  24.724  28.083  14.321
41348W        W 2659  11.197  32.609   3.843
41349W        W 2660   2.267  35.917   3.205
41350W        W 2661  28.058  26.494  13.014
41351W        W 2662  37.558   9.367   2.811
41352W        W 2663  21.593  12.345  14.773
41353W        W 2664  38.878  24.613  13.817
41354W        W 2665  21.710  34.406   3.780
41355W        W 2666  42.987  26.548  10.915
41356W        W 2667  10.679   2.804   1.759
41357W        W 2668  34.457   6.184  10.405
41358W        W 2669  32.013  40.540   4.198
41359W        W 2670   2.783   8.686  11.526
41360W        W 2671  19.671  43.443  13.386
41361W        W 2672  18.055  36.917   0.811
41362W        W 2673  17.239  16.303  11.538
41363W        W 2674   5.722  44.974  14.417
41364W        W 2675   3.786   7.884  12.486
41365W        W 2676  39.824  25.664  11.527
41366W        W 2677  16.798  23.489  14.991
41367W        W 2678  24.574  12.116  14.807
41368W        W 2679   9.226  32.140   4.796
41369W        W 2680  30.942  10.683  11.932
41370W        W 2681  36.936   7.183   4.619
41371W        W 2682  17.643  22.612  14.514
41372W        W 2683   4.840  35.054   0.349
41373W        W 2684  14.123   2.794   2.244
41374W        W 2685  19.609  17.235  14.450
41375W        W 2686  27.512  20.634  12.033
41376W        W 2687  32.599  38.340  12.545
41377W        W 2688  17.093   8.177  14.287
41378W        W 2689  39.815  14.271   0.388
41379W        W 2690  30.651  20.152   4.767
41380W        W 2691  30.018  36.553  11.978
41381W        W 2692  43.388  21.135  10.135
41382W        W 2693  16.289  14.811  12.831
41383W        W 2694  13.119  28.679   2.771
41384W        W 2695   6.306  23.154  11.560
41385W        W 2696  24.072   2.344   3.263
41386W        W 2697  28.061   8.688   3.705
41387W        W 2698  22.115   7.833   4.626
41388W        W 2699   6.883  38.894  11.539
41389W        W 2700  38.874  25.631  14.287
41390W        W 2701  20.677  19.679   3.666
41391W        W 2702  16.074  37.918   0.796
41392W        W 2703  18.565  23.624   2.281
41393W        W 2704   1.906  36.539  13.992
41394W        W 2705  37.041  11.347  11.108
41395W        W 2706  29.142   2.425   3.776
41396W        W 2707   5.237  35.365  14.893
41397W        W 2708  44.773   1.456  13.308
41398W        W 2709   2.945  13.264  12.969
41399W        W 2710  35.396   7.230  11.906
41400W        W 2711   5.230   3.380   1.752
41401W        W 2712  44.357   6.200   0.842
41402W        W 2713  10.253  19.661  12.344
41403W        W 2714  36.967  22.251  11.948
41404W        W 2715   2.349  19.735  14.317
41405W        W 2716  16.611   7.387   3.824
41406W        W 2717  38.443  20.621  13.530
41407W        W 2718  27.512  29.551  12.070
41408W        W 2719   3.745  35.888  10.443
41409W        W 2720  11.213  24.542  13.868
41410W        W 2721  29.038  11.852   1.372
41411W        W 2722  44.333  23.032  10.457
41412W        W 2723  31.044  40.389  10.461
41413W        W 2724  42.796  37.987  12.014
41414W        W 2725  17.101   7.208   4.740
41415W        W 2726  27.579  23.099   1.772
41416W        W 2727   5.833  14.272  10.991
41417W        W 2728  36.458  39.992   1.394
41418W        W 2729  39.314  15.253  11.596
41419W        W 2730  19.542  37.396   0.833
41420W        W 2731  40.312  20.161   0.794
41421W        W 2732  15.272  37.899   3.238
41422W        W 2733  36.844  14.626  13.517
41423W        W 2734  18.600   3.240   2.322
41424W        W 2735   5.381   1.842  11.127
41425W        W 2736  23.726  32.402  14.492
41426W        W 2737  38.439  15.089   3.797
41427W        W 2738  32.524  20.608  13.959
41428W        W 2739  44.288   1.882   1.261
41429W        W 2740   8.206  24.515   4.792
41430W        W 2741   7.415  34.499  11.920
41431W        W 2742  36.852  37.914   5.677
41432W        W 2743  14.221  14.320  13.970
41433W        W 2744  28.003  38.355   4.155
41434W        W 2745  42.800  22.683   4.601
41435W        W 2746  24.014  14.244   0.726
41436W        W 2747  26.175  10.347   1.719
41437W        W 2748  31.411  26.490  13.919
41438W        W 2749  40.031   9.158  13.334
41439W        W 2750  11.769  40.315  14.328
41440W        W 2751   2.452   6.244   2.802
41441W        W 2752  17.745  26.081  11.976
41442W        W 2753  17.237  13.161  10.888
41443W        W 2754  23.720  44.810   3.257
41444W        W 2755  42.806  30.121   0.864
41445W        W 2756  19.698  21.587  12.976
41446W        W 2757  36.910  37.468  11.011
41447W        W 2758   0.265  23.036  11.374
41448W        W 2759  21.162  29.662  11.126
41449W        W 2760  27.949  36.502  11.541
41450W        W 2761   7.227   2.278   2.311
41451W        W 2762  32.579  43.465   4.208
41452W        W 2763  44.299  33.917   0.451
41453W        W 2764   5.389  28.184  14.914
41454W        W 2765   1.423  35.448   4.628
41455W        W 2766  20.186  16.239   3.217
41456W        W 2767  26.476  37.409   4.779
41457W        W 2768  16.131  39.523  13.942
41458W        W 2769   7.317  38.984  13.495
41459W        W 2770   9.217  36.920  13.893
41460W        W 2771  44.006   6.691   4.664
41461W        W 2772  39.500  22.537   1.260
41462W        W 2773   6.191  11.130  12.863
41463W        W 2774  22.066  14.336   4.614
41464W        W 2775  16.188  30.073   0.914
41465W        W 2776  29.429  28.090   3.723
41466W        W 2777  35.459  41.994   3.665
41467W        W 2778  19.654  33.939  12.413
41468W        W 2779   9.202   0.872   0.398
41469W        W 2780   6.370  44.268   1.245
41470W        W 2781  32.040  44.356  10.500
41471W        W 2782  13.310  13.801   1.404
41472W        W 2783  32.499  34.914   0.911
41473W        W 2784  33.890  37.555  14.012
41474W        W 2785  42.470   9.262  12.993
41475W        W 2786  33.903  13.332   1.295
41476W        W 2787  19.205  43.948   4.687
41477W        W 2788  34.383  17.307   2.900
41478W        W 2789   4.250  15.301  13.030
41479W        W 2790  29.543  13.674  14.403
41480W        W 2791  36.429  44.907   1.926
41481W        W 2792  15.144  34.460  13.415
41482W        W 2793  31.140  18.284   2.755
41483W        W 2794   5.827  38.452   1.850
41484W        W 2795  10.669  39.995  14.496
41485W        W 2796   6.698  38.486  10.955
41486W        W 2797  29.077  26.586  12.428
41487W        W 2798  27.466   1.818  10.441
41488W        W 2799  41.859  29.582   0.416
41489W        W 2800  14.337  36.939  13.547
41490W        W 2801   2.249  36.085  12.016
41491W        W 2802  41.900  39.510  13.833
41492W        W 2803  11.855   5.764   0.937
41493W        W 2804  35.996  39.314   2.211
41494W        W 2805  16.166  16.571  14.453
41495W        W 2806   0.797  41.529  10.107
41496W        W 2807  35.543  36.019   4.786
41497W        W 2808  29.539  39.884  10.521
41498W        W 2809  19.577   6.812  12.522
41499W        W 2810   9.365  35.067   1.326
41500W        W 2811  21.715   9.181  11.951
41501W        W 2812  27.038  28.169  13.950
41502W        W 2813  28.612  36.065  14.294
41503W        W 2814   2.834  35.922   1.745
41504W        W 2815  27.149  10.330   3.230
41505W        W 2816  12.317   3.785   4.351
41506W        W 2817   5.721  35.098   1.823
41507W        W 2818  30.575  27.968   3.734
41508W        W 2819  23.575  22.161  10.570
41509W        W 2820  12.193  35.004  12.444
41510W        W 2821   4.702  42.282  12.459
41511W        W 2822  39.030  27.093   3.740
41512W        W 2823   6.812  33.539  13.321
41513W        W 2824  34.563   2.226  10.601
41514W        W 2825  38.843   8.865  14.393
41515W        W 2826   8.665  43.876  14.937
41516W        W 2827  41.944  41.462  11.414
41517W        W 2828   6.184  24.171   0.795
41518W        W 2829  34.866  40.523  10.626
41519W        W 2830  43.332  33.882  13.363
41520W        W 2831   3.736  35.964   1.314
41521W        W 2832  15.120  11.677  13.871
41522W        W 2833  30.987  20.144   0.774
41523W        W 2834  31.455   0.948   4.194
41524W        W 2835  32.549  21.583  14.388
41525W        W 2836   5.766  43.449  11.375
41526W        W 2837  14.235  29.658  14.387
41527W        W 2838  30.003  25.560  10.546
41528W        W 2839   4.277  30.657   4.299
41529W        W 2840  25.200   4.857   0.768
41530W        W 2841   2.957  19.195   3.292
41531W        W 2842  41.435   0.272   0.364
41532W        W 2843  41.900   7.275   1.420
41533W        W 2844  23.106  31.570  10.477
41534W        W 2845  19.068   1.305  14.818
41535W        W 2846  32.076  21.654   4.838
41536W        W 2847  38.841   0.407   3.215
41537W        W 2848  27.549  19.181  10.497
41538W        W 2849  22.086  29.126   0.815
41539W        W 2850   5.204  30.548  12.449
41540W        W 2851  27.950  31.147  12.884
41541W        W 2852  44.929  16.286   1.751
41542W        W 2853  21.223  21.614  14.834
41543W        W 2854  32.567  20.082   4.600
41544W        W 2855   4.698  18.178   4.647
41545W        W 2856  36.987   9.811   1.406
41546W        W 2857  30.042  34.073  11.904
41547W        W 2858  21.685   9.735   0.325
41548W        W 2859  21.739   9.733   3.645
41549W        W 2860  24.041   8.841  11.856
41550W        W 2861  42.990  10.342  14.431
41551W        W 2862  43.785  25.155   3.644
41552W        W 2863  44.786   9.385   1.449
41553W        W 2864  18.281  38.438   3.384
41554W        W 2865  38.941  18.295   4.822
41555W        W 2866  25.501   4.880   2.308
41556W        W 2867  44.781  40.982   3.762
41557W        W 2868  41.455   1.761   3.673
41558W        W 2869  25.208  32.021   4.243
41559W        W 2870   9.392  34.041   0.453
41560W        W 2871  42.960  35.527   1.302
41561W        W 2872  13.723   6.804   1.931
41562W        W 2873  38.513  11.296   4.608
41563W        W 2874  15.290  21.571  10.922
41564W        W 2875   9.746  18.231  10.911
41565W        W 2876  33.127  11.856  14.854
41566W        W 2877  18.615  22.719  13.413
41567W        W 2878  40.011   6.391  11.589
41568W        W 2879  34.585  38.834   0.462
41569W        W 2880   7.250  32.413   0.831
41570W        W 2881  21.535   0.746  12.426
41571W        W 2882  14.113   1.346  12.933
41572W        W 2883   9.754  23.719  10.643
41573W        W 2884  11.738  19.048   3.844
41574W        W 2885  11.150   9.824  12.370
41575W        W 2886  40.983   9.297  13.504
41576W        W 2887  20.037  23.049  14.390
41577W        W 2888  20.744  16.729   0.789
41578W        W 2889  20.647  29.161  12.421
41579W        W 2890  36.422  36.406  12.838
41580W        W 2891  26.085  10.703   4.312
41581W        W 2892  39.053  39.933  11.013
41582W        W 2893   0.833   0.344   3.225
41583W        W 2894  19.226  13.283  11.031
41584W        W 2895  30.947  16.084   3.784
41585W        W 2896  41.816  42.504   3.846
41586W        W 2897  36.352  11.665  12.435
41587W        W 2898  21.213   2.318   2.901
41588W        W 2899  24.674  35.379  11.416
41589W        W 2900  43.413  31.018  14.407
41590W        W 2901  28.169  39.393   3.353
41591W        W 2902  16.269  15.771  11.885
41592W        W 2903  30.114  25.142  10.600
41593W        W 2904   3.422  30.978  10.515
41594W        W 2905   6.757   5.199  12.466
41595W        W 2906  41.948  11.225  11.040
41596W        W 2907  24.076  35.379   0.312
41597W        W 2908   1.423  19.111   2.855
41598W        W 2909  20.263  10.780  11.082
41599W        W 2910   4.855  24.218   1.720
41600W        W 2911  33.622  18.735  10.471
41601W        W 2912  13.728  16.226   2.380
41602W        W 2913  18.681   9.234   1.422
41603W        W 2914  18.749  18.053  14.907
41604W        W 2915  22.539  34.939   0.941
41605W        W 2916  25.070  28.181  14.012
41606W        W 2917  38.486   2.260  11.372
41607W        W 2918  23.558  36.943   3.224
41608W        W 2919  43.778   4.437  13.064
41609W        W 2920  20.692  30.106  13.998
41610W        W 2921  14.140  12.312  14.818
41611W        W 2922   7.193  38.888   0.428
41612W        W 2923  37.080  14.108  13.419
41613W        W 2924  31.968  21.022   1.248
41614W        W 2925  35.552  20.530  13.542
41615W        W 2926   0.968  23.537   2.264
41616W        W 2927  35.572   2.812  12.436
41617W        W 2928  44.297   1.365  12.354
41618W        W 2929  22.717   8.683   2.393
41619W        W 2930  29.130  13.226  14.771
41620W        W 2931  14.190  28.031  13.000
41621W        W 2932   1.309  11.315  13.006
41622W        W 2933  41.472  13.225  13.538
41623W        W 2934   1.319  14.122   1.271
41624W        W 2935  20.212  40.835   2.861
41625W        W 2936  35.364  35.408  13.013
41626W        W 2937  22.229   9.168  12.571
41627W        W 2938  31.031  35.492  14.953
41628W        W 2939   4.744  44.758  12.847
41629W        W 2940  24.575  11.185   3.350
41630W        W 2941  30.120  23.164   2.875
41631W        W 2942  36.521  36.477   2.803
41632W        W 2943   4.854  26.102  14.925
41633W        W 2944   9.667  30.561  11.973
41634W        W 2945  22.544   8.819  12.895
41635W        W 2946  32.406   6.724   3.742
41636W        W 2947  36.082   0.387  10.411
41637W        W 2948  14.226  23.006   4.738
41638W        W 2949  40.939  23.563   4.285
41639W        W 2950  26.125   4.873   1.293
41640W        W 2951  38.954  17.231  14.768
41641W        W 2952  28.156   3.223  13.512
41642W        W 2953  34.565  43.897  11.988
41643W        W 2954  23.095   8.174   2.704
41644W        W 2955  25.682   7.799   2.194
41645W        W 2956  34.489  30.086   4.649
41646W        W 2957   7.195  41.529  14.763
41647W        W 2958  38.842  22.223  10.970
41648W        W 2959  38.839  37.456   4.690
41649W        W 2960   1.804  18.719   0.301
41650W        W 2961  13.771   7.302   0.482
41651W        W 2962  21.080  34.540  10.959
41652W        W 2963   9.698  13.127  12.492
41653W        W 2964  13.801  20.070  14.884
41654W        W 2965  24.518  28.466  11.421
41655W        W 2966  14.209  21.253   1.782
41656W        W 2967  24.099  42.348   2.885
41657W        W 2968  16.597  24.998   5.168
41658W        W 2969  35.450  30.068  11.392
41659W        W 2970  17.165  22.219  12.423
41660W        W 2971  29.627  26.671   5.185
41661W        W 2972  19.560  29.537   2.809
41662W        W 2973  15.254   3.387   2.797
41663W        W 2974  27.129  29.576   3.730
41664W        W 2975  17.159  17.159   4.746
41665W        W 2976  30.443   4.705  14.305
41666W        W 2977  18.162  28.511   1.296
41667W        W 2978  32.518  13.783   4.749
41668W        W 2979   1.770  42.393   3.818
41669W        W 2980  11.726  10.157  11.081
41670W        W 2981  41.965  33.512  10.052
41671W        W 2982  30.491  30.916  10.582
41672W        W 2983  20.139  20.059   2.687
41673W        W 2984  14.303  31.543   2.711
41674W        W 2985  26.035   5.222   9.461
41675W        W 2986   9.197  30.956  11.075
41676W        W 2987  35.892  12.168  12.392
41677W        W 2988  28.596  19.670   2.341
41678W        W 2989  33.468  28.476  14.336
41679W        W 2990  35.072   4.940   2.674
41680W        W 2991  33.888  20.258   0.872
41681W        W 2992   4.923   0.267  12.549
41682W        W 2993  14.316  41.407  11.872
41683W        W 2994  41.519  22.721  12.395
41684W        W 2995  41.986   8.673   0.467
41685W        W 2996  34.972  23.723   3.201
41686W        W 2997  32.958   0.354   1.344
41687W        W 2998  30.469  26.494   2.664
41688W        W 2999   7.733  38.503  14.762
41689W        W 3000  32.599  17.120   9.976
41690W        W 3001  17.180  12.855   1.303
41691W        W 3002  26.952  35.455   2.418
41692W        W 3003  33.929  43.943  14.339
41693W        W 3004   8.225  43.441   0.809
41694W        W 3005   8.874   9.698   3.787
41695W        W 3006   7.691  18.254  13.409
41696W        W 3007   5.365   4.320   1.298
41697W        W 3008  40.492  25.020  11.933
41698W        W 3009  22.159  28.990   3.725
41699W        W 3010  36.532  44.765  11.110
41700W        W 3011  10.745  25.010   5.175
41701W        W 3012  42.980   1.875   3.233
41702W        W 3013  30.057  39.415   4.300
41703W        W 3014   2.732   3.880  11.473
41704W        W 3015  35.077   9.735  11.957
41705W        W 3016   7.212   1.773  11.411
41706W        W 3017  35.063  31.042   2.278
41707W        W 3018  24.548   0.253   0.396
41708W        W 3019  21.558   8.840   2.380
41709W        W 3020  38.048   9.248   0.287
41710W        W 3021  18.575  13.309   4.761
41711W        W 3022  20.035  44.767  12.961
41712W        W 3023  36.988  13.639  12.576
41713W        W 3024  16.812   2.721   2.377
41714W        W 3025   2.920  15.249   0.842
41715W        W 3026  26.190  11.268  12.045
41716W        W 3027  11.195  22.998   0.727
41717W        W 3028  41.791  44.923   4.784
41718W        W 3029  30.618  42.514  11.579
41719W        W 3030  12.190  33.527   3.324
41720W        W 3031  13.339   3.740  12.525
41721W        W 3032  23.670  41.813  12.960
41722W        W 3033  43.811   9.374  13.892
41723W        W 3034  37.406  11.328   3.826
41724W        W 3035  18.747  28.662   0.247
41725W        W 3036   2.801  42.418  14.946
41726W        W 3037  11.744  37.085  10.638
41727W        W 3038   9.290  33.011   3.832
41728W        W 3039  28.605  21.550   0.768
41729W        W 3040  10.706  33.038   1.810
41730W        W 3041   3.881  30.428  14.452
41731W        W 3042  14.776   4.770  14.492
41732W        W 3043  25.618  25.539  13.003
41733W        W 3044  25.214  26.167   3.710
41734W        W 3045  33.106  44.425   0.939
41735W        W 3046  31.040   6.880   4.136
41736W        W 3047   7.254  25.577   3.291
41737W        W 3048  12.696  35.586  12.472
41738W        W 3049  26.660   4.711  13.798
41739W        W 3050   9.320   4.834  10.428
41740W        W 3051  16.792  14.300   3.638
41741W        W 3052   1.444  23.124  10.973
41742W        W 3053  18.133  37.962   0.814
41743W        W 3054   7.194  23.076   0.352
41744W        W 3055  36.498  24.646  14.031
41745W        W 3056  36.354  38.501   2.250
41746W        W 3057  16.194  38.412  13.332
41747W        W 3058  36.440  38.998  12.024
41748W        W 3059   5.819   6.222   4.694
41749W        W 3060  22.667  23.610  14.277
41750W        W 3061  40.961  44.811   1.909
41751W        W 3062  41.792  30.094  10.618
41752W        W 3063  37.545  18.695   3.652
41753W        W 3064   9.712   6.758  11.531
41754W        W 3065  39.408   2.901   2.789
41755W        W 3066  16.218  17.729  12.453
41756W        W 3067   0.394  21.094  10.032
41757W        W 3068   6.282  21.655  14.403
41758W        W 3069  12.847   1.456   0.783
41759W        W 3070   9.826  34.997  13.543
41760W        W 3071  41.536  25.702   2.724
41761W        W 3072  24.529  36.478  13.485
41762W        W 3073  35.871   8.655   3.315
41763W        W 3074  26.201  24.122  13.042
41764W        W 3075   7.715  27.651  13.416
41765W        W 3076   4.778  38.556  10.066
41766W        W 3077  12.768  12.122  11.025
41767W        W 3078  23.065   6.835   1.331
41768W        W 3079  16.288  26.177   2.299
41769W        W 3080  42.505  14.164  12.437
41770W        W 3081  32.126   0.413   3.838
41771W        W 3082  27.167  35.479  11.492
41772W        W 3083   2.939   6.760  14.782
41773W        W 3084   2.874  42.389  11.536
41774W        W 3085  15.322  28.666  11.122
41775W        W 3086   8.775  28.000  12.017
41776W        W 3087  39.553  15.248  11.005
41777W        W 3088  15.593   3.944  13.913
41778W        W 3089  34.102  18.689  14.903
41779W        W 3090   0.962  38.470   2.766
41780W        W 3091  25.046  26.520   0.928
41781W        W 3092  28.174  24.992  14.908
41782W        W 3093   8.188   9.307   1.827
41783W        W 3094   2.955  22.640   2.259
41784W        W 3095  37.488   8.712   5.108
41785W        W 3096  22.564  42.962  11.936
41786W        W 3097   6.712  25.110  11.512
41787W        W 3098  39.470  39.494   0.362
41788W        W 3099  34.908   9.843   0.917
41789W        W 3100  14.748   9.871   1.899
41790W        W 3101  16.622  33.918  14.413
41791W        W 3102  25.189   4.825  13.340
41792W        W 3103  34.961  25.975   2.874
41793W        W 3104  27.064   1.741   3.675
41794W        W 3105  21.025  32.135  11.541
41795W        W 3106  27.445   7.224  12.384
41796W        W 3107   1.793   4.750  11.513
41797W        W 3108  42.420   3.409   0.824
41798W        W 3109  35.102  25.121   2.197
41799W        W 3110   8.763  42.811  13.810
41800W        W 3111   5.265  41.031  12.410
41801W        W 3112  36.364  36.562   1.276
41802W        W 3113  21.707  22.567  10.007
41803W        W 3114   1.370  30.646   1.731
41804W        W 3115  30.935  35.552  13.827
41805W        W 3116   7.750  32.081   1.322
41806W        W 3117  21.712  41.022  12.905
41807W        W 3118   7.379  37.402   4.228
41808W        W 3119  41.348   0.274   1.845
41809W        W 3120  32.943  40.935   1.416
41810W        W 3121  13.731  44.380   1.377
41811W        W 3122   2.434   8.352   2.813
41812W        W 3123  27.600   9.719  14.494
41813W        W 3124  24.713   2.257   0.872
41814W        W 3125  13.640  21.067  14.976
41815W        W 3126  28.174   3.322   5.194
41816W        W 3127  20.741  16.156  14.277
41817W        W 3128  41.834   8.269  14.935
41818W        W 3129   6.866   8.776  12.498
41819W        W 3130  24.004   0.840  12.063
41820W        W 3131  19.556  37.515  14.796
41821W        W 3132   9.686  30.419   0.366
41822W        W 3133  13.627  24.070   2.364
41823W        W 3134   5.195   0.377   0.828
41824W        W 3135  39.524  14.828   1.244
41825W        W 3136   2.352  13.239   0.815
41826W        W 3137  39.881  19.608   0.429
41827W        W 3138  17.798   5.404   1.908
41828W        W 3139  26.072   2.947  13.014
41829W        W 3140  37.522  11.324  12.962
41830W        W 3141  37.928  23.022  12.941
41831W        W 3142   6.181  38.927   5.312
41832W        W 3143   7.309  21.080  11.563
41833W        W 3144  16.800  42.310  14.916
41834W        W 3145  40.006  11.302  10.590
41835W        W 3146  17.095  26.062   4.665
41836W        W 3147  24.586   2.363  11.546
41837W        W 3148  30.907   2.396   1.366
41838W        W 3149  30.128  22.719  10.986
41839W        W 3150   3.442   9.177  13.417
41840W        W 3151  21.717  17.586  12.494
41841W        W 3152  10.152  18.622   4.229
41842W        W 3153  16.577  31.147  10.566
41843W        W 3154  29.535   1.370  11.059
41844W        W 3155  26.653  35.361  11.399
41845W        W 3156  26.034  42.495   3.762
41846W        W 3157   1.254  44.286  11.465
41847W        W 3158  30.447  22.996   4.809
41848W        W 3159  11.744   5.862   2.417
41849W        W 3160   4.326   1.239  11.575
41850W        W 3161   4.422  13.729  13.948
41851W        W 3162  33.547   8.263   2.286
41852W        W 3163  29.996  38.365  13.530
41853W        W 3164   7.815  39.522   4.237
41854W        W 3165  20.700   7.361   0.320
41855W        W 3166  36.455  34.412   3.819
41856W        W 3167  10.770   1.482  13.818
41857W        W 3168  31.097   9.823   1.792
41858W        W 3169  43.845  17.279  12.907
41859W        W 3170  41.475  34.461   0.838
41860W        W 3171   1.240  17.284   3.651
41861W        W 3172   3.826   1.281  12.534
41862W        W 3173  33.459  16.124   0.332
41863W        W 3174  32.944  44.803   4.799
41864W        W 3175  25.702  40.390   1.720
41865W        W 3176   9.832  33.935  12.034
41866W        W 3177  13.768   4.368   1.726
41867W        W 3178  32.006   1.781   2.276
41868W        W 3179  16.772  33.891   1.449
41869W        W 3180  34.979  26.682  12.385
41870W        W 3181  12.143  26.514  12.531
41871W        W 3182  18.783   1.800   2.359
41872W        W 3183   6.316   2.879   4.323
41873W        W 3184   3.413  39.831   0.331
41874W        W 3185  12.303  23.194   1.270
41875W        W 3186  13.154  33.100   4.635
41876W        W 3187  28.622  36.857  14.370
41877W        W 3188   1.404  24.179  12.943
41878W        W 3189  25.627  30.510   0.445
41879W        W 3190  24.038  29.956  12.014
41880W        W 3191   9.186  15.188   1.412
41881W        W 3192  39.044  10.358   0.950
41882W        W 3193  22.643  33.018  13.923
41883W        W 3194  10.359   0.327  13.471
41884W        W 3195  35.086   4.223   2.802
41885W        W 3196  19.583   1.364  12.846
41886W        W 3197  14.833  44.811   2.189
41887W        W 3198  41.900   1.949   4.798
41888W        W 3199   7.729  11.356  13.444
41889W        W 3200  38.025  21.636  11.393
41890W        W 3201  25.578  37.984   4.117
41891W        W 3202  23.109   3.299  14.833
41892W        W 3203  33.910  39.493  14.383
41893W        W 3204  35.053  21.665  11.935
41894W        W 3205   8.291  31.547  13.949
41895W        W 3206  38.509  31.090  13.426
41896W        W 3207  21.108  42.863  11.875
41897W        W 3208  18.662  31.527   0.394
41898W        W 3209  39.486  18.635  12.047
41899W        W 3210  18.734  38.426   2.299
41900W        W 3211  39.325  23.031   2.255
41901W        W 3212   2.955  12.358  14.860
41902W        W 3213  11.689   7.350  14.375
41903W        W 3214  24.640  22.508   0.789
41904W        W 3215   2.756  29.149  11.939
41905W        W 3216  36.004  13.281  10.950
41906W        W 3217  12.695   8.743  13.416
41907W        W 3218  38.958  37.056   1.253
41908W        W 3219  10.242  13.173   1.918
41909W        W 3220  29.112  11.776  12.060
41910W        W 3221  15.295  32.086  13.881
41911W        W 3222  41.378   0.905   2.387
41912W        W 3223  34.596  38.058   1.732
41913W        W 3224  26.663  38.904  11.054
41914W        W 3225  24.225  39.015  11.898
41915W        W 3226  33.447   5.209   0.373
41916W        W 3227   7.861  26.517  14.814
41917W        W 3228  42.506  14.180   2.267
41918W        W 3229   6.815  17.096   4.140
41919W        W 3230  30.589  26.571   0.848
41920W        W 3231   6.346  40.001   3.731
41921W        W 3232  37.851  18.169   1.290
41922W        W 3233  36.853  21.747  10.427
41923W        W 3234   4.879  22.133   4.142
41924W        W 3235  36.950  12.310  14.889
41925W        W 3236  18.586  32.470  14.498
41926W        W 3237  33.942  15.113  13.869
41927W        W 3238  44.926   1.276  13.876
41928W        W 3239  34.545  14.258   0.347
41929W        W 3240  22.029  22.628  11.537
41930W        W 3241  15.243  42.844   3.301
41931W        W 3242  27.961   5.247   3.296
41932W        W 3243  30.049  19.740  12.881
41933W        W 3244   4.222  16.638  11.081
41934W        W 3245  26.165  41.414   1.264
41935W        W 3246  36.432   2.301   3.799
41936W        W 3247  32.922  31.630  11.566
41937W        W 3248  34.584  38.064   2.188
41938W        W 3249  29.432  36.005   2.208
41939W        W 3250  13.294  29.633  12.836
41940W        W 3251  38.031  17.267  14.998
41941W        W 3252  33.398  13.667  14.812
41942W        W 3253  38.883  14.313  11.535
41943W        W 3254  25.116  35.066   3.829
41944W        W 3255  43.979  20.702  13.539
41945W        W 3256  19.693  20.628   4.680
41946W        W 3257  35.892  28.992  12.956
41947W        W 3258  42.966  29.077  11.441
41948W        W 3259   3.719  39.374  14.456
41949W        W 3260   7.816  34.503   5.234
41950W        W 3261  19.262  19.687   5.167
41951W        W 3262  12.163  42.868   0.275
41952W        W 3263  19.089  10.371  12.515
41953W        W 3264  21.203  37.924   9.648
41954W        W 3265  43.864  23.559   3.763
41955W        W 3266  34.511  18.658  12.829
41956W        W 3267  27.641  25.611  14.879
41957W        W 3268  35.591   2.275   4.788
41958W        W 3269  16.290  25.591   1.752
41959W        W 3270  12.337  14.182  10.497
41960W        W 3271   7.366  24.056  12.903
41961W        W 3272  18.609  38.871  13.326
41962W        W 3273   6.818  30.590  13.047
41963W        W 3274  10.349  11.349  11.932
41964W        W 3275  36.383  23.543   0.904
41965W        W 3276   1.300  24.127   3.316
41966W        W 3277   9.175  17.114  14.918
41967W        W 3278  43.776   6.199  11.092
41968W        W 3279  21.099  10.153   3.685
41969W        W 3280  32.425  35.550  10.641
41970W        W 3281  42.784  38.542   0.321
41971W        W 3282  32.621  30.960   3.189
41972W        W 3283  13.275  41.009   2.220
41973W        W 3284  43.378  36.593  13.796
41974W        W 3285  29.069  41.470  13.439
41975W        W 3286   2.779   9.355  13.463
41976W        W 3287  37.527  32.125   1.925
41977W        W 3288  33.895   3.255   1.393
41978W        W 3289  28.598  22.128  13.335
41979W        W 3290  13.724  31.416  11.094
41980W        W 3291   8.391  23.013  13.988
41981W        W 3292  31.447   4.313   1.883
41982W        W 3293  25.187  19.235  11.911
41983W        W 3294  37.864  39.837  14.292
41984W        W 3295  19.168  24.671  13.513
41985W        W 3296  37.531  13.655  12.960
41986W        W 3297   4.222  42.863  12.532
41987W        W 3298  12.747  39.874   1.379
41988W        W 3299  33.459   0.955   3.360
41989W        W 3300  33.980   9.735   2.690
41990W        W 3301  34.041  13.765   4.775
41991W        W 3302   5.296   7.695   3.260
41992W        W 3303  41.786  36.083  11.520
41993W        W 3304  38.962  35.916   3.156
41994W        W 3305  36.991  15.659   0.402
41995W        W 3306  22.998  41.846  10.934
41996W        W 3307  23.078  41.452  12.522
41997W        W 3308  28.940  17.256   3.326
41998W        W 3309  39.519  30.436  11.520
41999W        W 3310  12.310  32.482   0.939
42000W        W 3311  19.264  12.175   1.777
42001W        W 3312   7.373  38.559  13.422
42002W        W 3313  32.014  29.156   3.352
42003W        W 3314  42.933   7.248  13.509
42004W        W 3315   7.717  23.622  14.316
42005W        W 3316  21.189  37.847   0.464
42006W        W 3317  20.233  24.640  11.585
42007W        W 3318  27.954  13.183  11.399
42008W        W 3319   2.789  17.725  14.307
42009W        W 3320  33.917  15.631   0.397
42010W        W 3321  31.008   6.772   3.281
42011W        W 3322   2.408  27.036   4.769
42012W        W 3323  21.576   6.218  11.874
42013W        W 3324   2.855  27.970  11.569
42014W        W 3325  41.875  12.706   0.832
42015W        W 3326  38.052   7.304  11.435
42016W        W 3327   5.857  36.859  10.560
42017W        W 3328  10.791  30.971   3.680
42018W        W 3329   6.921  26.505  14.905
42019W        W 3330  16.211  10.177  12.977
42020W        W 3331  38.916  29.162  12.986
42021W        W 3332  44.969  41.438   0.931
42022W        W 3333  27.524   8.184   3.794
42023W        W 3334  18.731  19.647  13.032
42024W        W 3335  12.300  37.442  11.503
42025W        W 3336  33.381  27.566   2.679
42026W        W 3337  14.808  24.662   3.162
42027W        W 3338  20.540  43.431   2.803
42028W        W 3339  27.159  33.526   3.351
42029W        W 3340  22.649   3.719   0.761
42030W        W 3341   1.756   7.397  10.445
42031W        W 3342  31.592   4.784   2.334
42032W        W 3343   5.332  27.515  14.803
42033W        W 3344  41.335  33.520  13.462
42034W        W 3345   3.878  30.580  13.506
42035W        W 3346   4.803  38.964   3.155
42036W        W 3347   7.702  11.232  12.870
42037W        W 3348  28.631  26.117   4.810
42038W        W 3349   4.303  12.845   0.433
42039W        W 3350  15.273   5.825  13.925
42040W        W 3351  19.682  26.188   2.358
42041W        W 3352  24.675  31.487   1.815
42042W        W 3353   5.283  10.701  11.882
42043W        W 3354  21.688   2.309   1.935
42044W        W 3355  39.315  16.686  12.969
42045W        W 3356  42.332  28.510   3.154
42046W        W 3357  44.386  44.979   3.687
42047W        W 3358  39.514  10.212  12.969
42048W        W 3359   6.874  42.360   3.259
42049W        W 3360  11.213   7.676   2.212
42050W        W 3361  37.569  35.109   4.233
42051W        W 3362  13.179   6.356  13.406
42052W        W 3363   0.961  35.099   0.835
42053W        W 3364   9.747  13.689  14.004
42054W        W 3365   5.854  10.642   0.823
42055W        W 3366  41.035  38.981   4.120
42056W        W 3367   1.248  38.841  13.855
42057W        W 3368  13.600  43.945   0.953
42058W        W 3369  21.255  33.022   3.181
42059W        W 3370  21.571   5.334   0.907
42060W        W 3371  22.607   6.378  13.842
42061W        W 3372  43.904  27.523  12.071
42062W        W 3373  12.718  22.692   1.771
42063W        W 3374   1.868  36.351   2.784
42064W        W 3375  14.752  12.801   2.356
42065W        W 3376  32.604  37.042  13.548
42066W        W 3377  16.742   1.820  13.344
42067W        W 3378  40.439  41.394  11.946
42068W        W 3379   2.283  32.456   3.205
42069W        W 3380  24.121  15.098  11.462
42070W        W 3381  37.882  11.318   1.447
42071W        W 3382  41.455  22.033  10.491
42072W        W 3383  20.085   2.804  12.526
42073W        W 3384   4.849   3.369  13.816
42074W        W 3385  20.143  14.769   4.184
42075W        W 3386  33.118  24.150   2.189
42076W        W 3387  38.414  15.205  10.901
42077W        W 3388  15.594  13.294   4.145
42078W        W 3389  37.950  41.899   2.694
42079W        W 3390  21.568   8.332   0.846
42080W        W 3391  19.550  31.069   1.851
42081W        W 3392  11.778  31.453   4.795
42082W        W 3393  24.513  29.142  12.521
42083W        W 3394  35.416  32.131   2.768
42084W        W 3395  14.624  35.861  11.550
42085W        W 3396  29.982  40.421   0.370
42086W        W 3397   0.278  21.078   0.838
42087W        W 3398   7.378   3.274  11.445
42088W        W 3399   4.246   7.834  13.059
42089W        W 3400  13.225   7.240   4.760
42090W        W 3401  32.925  11.756  12.826
42091W        W 3402   8.668  13.658   2.300
42092W        W 3403  42.829   0.256  11.452
42093W        W 3404  12.138   6.699   1.851
42094W        W 3405  25.494   9.695  13.532
42095W        W 3406  11.271  16.698   3.285
42096W        W 3407  27.975  16.160  11.373
42097W        W 3408  39.341   7.775   3.720
42098W        W 3409  30.510  18.566   2.418
42099W        W 3410  38.023  35.563  13.871
42100W        W 3411   5.825  23.517   1.335
42101W        W 3412  31.530  12.782   2.201
42102W        W 3413  38.903   4.808  12.542
42103W        W 3414  40.811  25.612  12.482
42104W        W 3415  11.813   0.413  13.402
42105W        W 3416  10.813   4.902   1.779
42106W        W 3417   1.429   4.903  13.397
42107W        W 3418   4.897  15.780   3.631
42108W        W 3419  26.591  36.458   1.829
42109W        W 3420   9.180   7.840   4.764
42110W        W 3421  14.796  13.842  10.094
42111W        W 3422  10.313  11.764  11.411
42112W        W 3423  43.294  41.356   4.782
42113W        W 3424  16.274  42.871  13.980
42114W        W 3425  10.678  36.080   2.692
42115W        W 3426  43.969   4.943  12.564
42116W        W 3427  36.398  19.181  13.518
42117W        W 3428   8.689   0.987  12.064
42118W        W 3429   8.721  36.470   0.299
42119W        W 3430  11.181  16.219   3.254
42120W        W 3431  19.125  35.488   4.150
42121W        W 3432  29.141  11.636  12.445
42122W        W 3433  15.123  36.471  11.959
42123W        W 3434   4.867  29.646   0.767
42124W        W 3435  24.537  22.562   2.318
42125W        W 3436  21.616  41.901  12.572
42126W        W 3437  10.699  40.969   1.411
42127W        W 3438   5.240  20.548   1.350
42128W        W 3439  11.356  10.327  14.968
42129W        W 3440   4.698   3.222   0.251
42130W        W 3441  14.630  10.863   2.315
42131W        W 3442  39.471   6.729   0.447
42132W        W 3443   7.777   2.956   4.630
42133W        W 3444   5.879  42.524   4.168
42134W        W 3445  33.932  42.945   1.917
42135W        W 3446  21.545  40.405   3.283
42136W        W 3447  38.367  21.200  14.482
42137W        W 3448  37.025  19.248   4.640
42138W        W 3449  44.863   8.251  12.525
42139W        W 3450  13.750  36.419  14.276
42140W        W 3451  24.586  31.078   0.808
42141W        W 3452  25.052  41.875  12.055
42142W        W 3453  30.597   3.931   0.864
42143W        W 3454  23.503  14.266  13.907
42144W        W 3455  24.153  26.033   3.365
42145W        W 3456  39.963  26.025  13.950
42146W        W 3457  10.279  21.230   3.308
42147W        W 3458   7.823  23.043  13.395
42148W        W 3459   8.700  36.588  12.546
42149W        W 3460  26.692  22.745   2.710
42150W        W 3461  32.455  23.635  14.998
42151W        W 3462  15.660   0.491   0.763
42152W        W 3463  43.777  14.735   4.331
42153W        W 3464  23.641  17.586   3.713
42154W        W 3465  43.496  22.743  10.111
42155W        W 3466  17.656   8.297   0.893
42156W        W 3467   3.241  30.010  11.874
42157W        W 3468  41.838  16.573  12.377
42158W        W 3469   7.808  32.027  13.490
42159W        W 3470   6.902  35.392  12.502
42160W        W 3471  43.466   7.761   0.888
42161W        W 3472  16.587  36.906   1.915
42162W        W 3473  11.785  27.518  12.485
42163W        W 3474   2.311  30.512  12.420
42164W        W 3475  22.634  27.606   2.760
42165W        W 3476  29.587   1.397   1.901
42166W        W 3477  32.057  28.101   1.442
42167W        W 3478  29.577   1.272  11.411
42168W        W 3479  12.846  16.311  11.442
42169W        W 3480  22.132  42.856  12.556
42170W        W 3481  13.775   6.752  12.048
42171W        W 3482  32.052  16.573   1.783
42172W        W 3483   9.876  22.532   1.790
42173W        W 3484   6.422  30.488   1.915
42174W        W 3485   7.398  16.584  12.489
42175W        W 3486   4.322  43.784   4.265
42176W        W 3487  21.199  26.202   3.633
42177W        W 3488  33.024  35.477   4.661
42178W        W 3489   4.938  10.169   2.749
42179W        W 3490  40.334  22.620  11.429
42180W        W 3491   1.956  20.620   2.397
42181W        W 3492   4.758  41.420   2.902
42182W        W 3493  24.644  26.570  13.030
42183W        W 3494  17.562   2.865   1.401
42184W        W 3495   0.955  11.337   1.326
42185W        W 3496  43.928  37.076  14.025
42186W        W 3497  41.978  21.612   2.418
42187W        W 3498  17.280   3.274  10.429
42188W        W 3499  37.401  32.631  12.993
42189W        W 3500  29.025   6.311  11.043
42190W        W 3501   9.367  27.634   3.745
42191W        W 3502  17.607  43.844   2.785
42192W        W 3503  10.145  28.546   4.737
42193W        W 3504  43.771  16.759  12.406
42194W        W 3505  28.977   6.686   3.782
42195W        W 3506  40.456   0.397   4.653
42196W        W 3507   0.844  32.416   3.836
42197W        W 3508  24.176  22.055   0.913
42198W        W 3509  22.644  15.611   5.311
42199W        W 3510   5.260  37.940  12.958
42200W        W 3511  32.886  28.653   4.142
42201W        W 3512  28.028  35.389   4.744
42202W        W 3513  38.066  30.540  11.997
42203W        W 3514   4.859   8.773  10.948
42204W        W 3515   1.374   6.760   4.822
42205W        W 3516   5.755  41.832   4.264
42206W        W 3517  44.275   5.377  10.516
42207W        W 3518  22.121  14.827  13.976
42208W        W 3519   8.727  10.692   1.919
42209W        W 3520   3.446   4.294   1.884
42210W        W 3521   7.864  11.146   2.281
42211W        W 3522  30.929  44.415   0.937
42212W        W 3523  29.018  41.957   2.257
42213W        W 3524  29.509   7.753  10.925
42214W        W 3525  33.959  16.727  11.553
42215W        W 3526   1.386  24.648   1.830
42216W        W 3527  15.238  28.084  14.415
42217W        W 3528   2.406  28.522  10.903
42218W        W 3529  33.028   4.361   3.170
42219W        W 3530   1.320  20.168  13.812
42220W        W 3531  24.031  40.052   1.834
42221W        W 3532  24.228  34.023  10.083
42222W        W 3533   1.785  26.582  14.317
42223W        W 3534  35.376  32.486  11.549
42224W        W 3535   6.829  20.041  12.445
42225W        W 3536  35.368  31.114  12.888
42226W        W 3537  29.501  10.819   0.320
42227W        W 3538  41.030  26.036  12.480
42228W        W 3539  23.671  43.944   3.804
42229W        W 3540  26.615  10.724   3.779
42230W        W 3541   5.839  41.367   4.671
42231W        W 3542  15.153  29.168   4.290
42232W        W 3543  15.801  21.260   9.979
42233W        W 3544  21.706  38.833  13.057
42234W        W 3545  26.702  26.058  12.037
42235W        W 3546  41.797  31.063   1.710
42236W        W 3547  16.579  18.239   3.809
42237W        W 3548  14.174  16.104  13.517
42238W        W 3549  12.849  31.587  11.055
42239W        W 3550  40.544  21.064   1.807
42240W        W 3551  37.017  25.201   1.318
42241W        W 3552  36.555  44.994   4.676
42242W        W 3553  25.519   2.856  11.376
42243W        W 3554  33.894  21.747   2.762
42244W        W 3555  21.675  38.883  11.580
42245W        W 3556  25.067  32.455  14.298
42246W        W 3557  42.349   4.847   2.870
42247W        W 3558  18.152  22.742   1.904
42248W        W 3559  25.085  12.665   3.826
42249W        W 3560  14.301   1.938  12.441
42250W        W 3561   0.346   8.792   5.137
42251W        W 3562  39.063  16.753   2.210
42252W        W 3563  12.214   3.794  13.804
42253W        W 3564   2.409  25.142   2.254
42254W        W 3565   6.826  43.982   3.283
42255W        W 3566   9.283   4.732   4.189
42256W        W 3567   8.677  23.149  13.370
42257W        W 3568  29.645  41.794  12.486
42258W        W 3569  38.358   6.308  14.288
42259W        W 3570  27.588  21.566   0.741
42260W        W 3571   3.846  10.317   4.296
42261W        W 3572  25.069   9.264  10.889
42262W        W 3573  13.307  11.358   0.339
42263W        W 3574  23.237   7.245   3.766
42264W        W 3575   1.905  42.849   2.828
42265W        W 3576  29.522  41.407  10.406
42266W        W 3577   2.306  15.821   2.197
42267W        W 3578  38.394  31.142   1.347
42268W        W 3579  41.498  43.902   3.283
42269W        W 3580  22.509  31.123   9.974
42270W        W 3581  37.948  24.155   4.705
42271W        W 3582  30.081   4.326  10.498
42272W        W 3583  25.593   6.818  13.897
42273W        W 3584  33.549  18.256  10.893
42274W        W 3585  17.186  30.435  12.536
42275W        W 3586  43.776  18.675   2.688
42276W        W 3587  13.306  13.830   4.808
42277W        W 3588  18.719  29.608   0.926
42278W        W 3589   3.460   8.279   0.463
42279W        W 3590  31.409   3.756  10.550
42280W        W 3591  37.346  23.221  12.898
42281W        W 3592  20.539  14.832  10.954
42282W        W 3593  25.158   0.961   3.302
42283W        W 3594  38.453  32.985  12.889
42284W        W 3595   8.233  43.505   2.880
42285W        W 3596   9.263   4.306   4.198
42286W        W 3597  35.912  44.803  11.480
42287W        W 3598  42.959  26.035   1.724
42288W        W 3599  11.862   3.847  14.292
42289W        W 3600  24.581  22.192   2.380
42290W        W 3601  34.072  16.711   0.324
42291W        W 3602  15.732  37.957  11.922
42292W        W 3603  17.122  25.691  13.474
42293W        W 3604  42.468  21.561   1.895
42294W        W 3605  24.107   8.331   4.834
42295W        W 3606  39.877  37.448  11.922
42296W        W 3607  25.108  41.309  12.452
42297W        W 3608  39.985  22.029  14.354
42298W        W 3609   9.320   3.416  14.500
42299W        W 3610  40.855  12.654  11.596
42300W        W 3611   2.422  10.764   4.744
42301W        W 3612  27.479  24.497   3.387
42302W        W 3613  44.987  14.286  12.509
42303W        W 3614  11.696  14.257  13.982
42304W        W 3615  18.249  24.195  12.476
42305W        W 3616  27.596  13.690   0.388
42306W        W 3617  36.542  37.897  14.304
42307W        W 3618  14.689  12.227  11.405
42308W        W 3619   8.805   4.845  10.493
42309W        W 3620  15.097  12.180   4.334
42310W        W 3621  22.607  27.023  10.919
42311W        W 3622  32.983  16.691  10.624
42312W        W 3623  29.987   0.423   4.243
42313W        W 3624  28.119  37.943  13.866
42314W        W 3625   0.406  19.058   4.758
42315W        W 3626  19.055  37.046   9.521
42316W        W 3627  30.637  30.579   0.259
42317W        W 3628   3.896  36.972   0.476
42318W        W 3629  25.615  13.764   0.861
42319W        W 3630  25.572  42.922   2.778
42320W        W 3631  27.686  11.176  14.999
42321W        W 3632  25.125  29.002   0.893
42322W        W 3633  44.783  11.778  11.525
42323W        W 3634  20.041   2.371   1.738
42324W        W 3635  43.926  12.197   4.248
42325W        W 3636   1.422  22.096   2.727
42326W        W 3637  38.908  33.120  11.028
42327W        W 3638  12.792  18.686   3.154
42328W        W 3639  16.683  30.159   0.792
42329W        W 3640  25.657  43.294  14.991
42330W        W 3641   7.755  38.449  13.913
42331W        W 3642   2.363   5.900   0.443
42332W        W 3643  11.824   7.838   4.320
42333W        W 3644  33.051  27.492   2.741
42334W        W 3645  37.425  24.696   3.193
42335W        W 3646  22.219   3.937  10.433
42336W        W 3647  28.597  26.626   3.657
42337W        W 3648   4.365  36.418  13.437
42338W        W 3649  40.839   1.358  11.887
42339W        W 3650  35.940  15.730   5.308
42340W        W 3651  35.106   6.789   0.265
42341W        W 3652   0.266   3.714  13.474
42342W        W 3653  32.409  37.501   1.391
42343W        W 3654   0.447  24.562   1.820
42344W        W 3655   1.447  23.626  14.850
42345W        W 3656  29.168   8.819  11.876
42346W        W 3657  19.284  18.155  13.056
42347W        W 3658   9.719  41.421   3.785
42348W        W 3659  30.487  42.450   0.432
42349W        W 3660  17.746  32.009  14.909
42350W        W 3661   8.871  29.969   3.282
42351W        W 3662  42.969  34.565   1.900
42352W        W 3663  41.982  18.191  10.078
42353W        W 3664   7.229  22.665   4.229
42354W        W 3665   6.343   8.331  10.894
42355W        W 3666   9.673  17.559   0.938
42356W        W 3667  33.424   9.784  12.975
42357W        W 3668   1.733   5.330  14.449
42358W        W 3669   7.216  36.000  12.884
42359W        W 3670  33.626  12.182   0.259
42360W        W 3671   5.838   7.327   1.427
42361W        W 3672  24.104   6.273   2.213
42362W        W 3673  41.489  32.989   2.188
42363W        W 3674   2.459   4.793  14.984
42364W        W 3675  10.186  13.276   1.271
42365W        W 3676  10.808  21.729  12.016
42366W        W 3677  44.315   1.973   9.977
42367W        W 3678  29.516  28.638  14.837
42368W        W 3679  41.888  27.526   4.783
42369W        W 3680  20.655   8.193   4.802
42370W        W 3681  14.650  40.533  13.433
42371W        W 3682  24.210   7.773   1.902
42372W        W 3683  10.825  33.494   3.299
42373W        W 3684  31.547   9.284  11.517
42374W        W 3685  16.617  22.600   1.249
42375W        W 3686   1.447   9.821  10.520
42376W        W 3687  31.969  44.827   0.955
42377W        W 3688  16.740  19.752  14.899
42378W        W 3689  44.315   4.846   3.362
42379W        W 3690  23.514  34.400   2.409
42380W        W 3691  39.874   0.959   0.380
42381W        W 3692  42.859   6.281  14.354
42382W        W 3693   5.705  18.778   1.837
42383W        W 3694  35.562  34.519  10.423
42384W        W 3695   4.241  25.057   3.811
42385W        W 3696  25.177   8.207  12.455
42386W        W 3697  15.589   1.807   9.629
42387W        W 3698  25.471   7.302  11.033
42388W        W 3699  18.272   2.857   3.222
42389W        W 3700  28.477   4.303  10.089
42390W        W 3701   5.285  34.477   4.765
42391W        W 3702  19.243  40.923   1.758
42392W        W 3703   8.845  28.064   1.372
42393W        W 3704  44.394   2.388   0.845
42394W        W 3705   8.848  20.169  13.027
42395W        W 3706  27.953   3.936  14.466
42396W        W 3707  10.780  42.871   5.273
42397W        W 3708  19.141  14.319  12.344
42398W        W 3709   0.974  35.034   0.415
42399W        W 3710  15.634  23.107   4.706
42400W        W 3711  37.526  24.138  14.285
42401W        W 3712  11.151  17.760  10.929
42402W        W 3713  24.102  20.245   0.316
42403W        W 3714  11.820  13.611   1.230
42404W        W 3715  18.731  16.105  11.969
42405W        W 3716  25.131  37.506  13.960
42406W        W 3717  40.855  11.184   2.292
42407W        W 3718  30.644  39.414   1.828
42408W        W 3719  30.032   3.736   4.748
42409W        W 3720  19.115  16.194  13.998
42410W        W 3721  38.956  19.737  11.038
42411W        W 3722  28.061  13.767   4.121
42412W        W 3723  25.138   0.450   2.244
42413W        W 3724  11.638  32.571   3.638
42414W        W 3725   0.431   8.857  13.451
42415W        W 3726   5.788   9.391  11.509
42416W        W 3727  32.110  40.305   3.332
42417W        W 3728   9.705   2.952  12.051
42418W        W 3729  41.299  28.576   2.406
42419W        W 3730  23.193  41.859   3.833
42420W        W 3731  34.969   7.666   3.308
42421W        W 3732  15.720  35.443  11.480
42422W        W 3733  19.181   8.200  12.946
42423W        W 3734  42.933  32.415   0.754
42424W        W 3735   1.787   6.201   1.909
42425W        W 3736  36.948  38.064  12.022
42426W        W 3737  27.599  41.353   4.817
42427W        W 3738   1.249  43.846  12.871
42428W        W 3739   0.288  37.414  14.500
42429W        W 3740   8.666   0.440  10.105
42430W        W 3741  25.020   8.889   9.987
42431W        W 3742  34.417  24.090   2.238
42432W        W 3743  37.923  25.639  14.774
42433W        W 3744   7.670  11.719   1.383
42434W        W 3745   6.222  28.183   2.893
42435W        W 3746  35.379  13.201   2.685
42436W        W 3747   8.830  21.694  11.118
42437W        W 3748  36.359  25.676  14.859
42438W        W 3749   6.391  13.678   4.649
42439W        W 3750  30.645  32.484   2.867
42440W        W 3751  38.468  32.490  13.026
42441W        W 3752  12.222  22.739   0.301
42442W        W 3753  26.025  23.608  11.926
42443W        W 3754  36.409  37.837  10.889
42444W        W 3755  32.952  37.888   1.773
42445W        W 3756  39.065  27.943   1.928
42446W        W 3757  14.768  30.919  11.518
42447W        W 3758  26.641   3.904  14.943
42448W        W 3759  34.517  13.139   4.781
42449W        W 3760  24.631  24.020  12.519
42450W        W 3761  27.079  11.722  10.924
42451W        W 3762  31.496  33.454   1.333
42452W        W 3763   7.726  16.788   3.812
42453W        W 3764  33.464  17.227   4.748
42454W        W 3765  32.987  11.262   1.309
42455W        W 3766  43.855  40.863  10.503
42456W        W 3767   3.303  17.188  12.552
42457W        W 3768  29.628  17.097  10.622
42458W        W 3769  28.109  13.607  12.400
42459W        W 3770  38.562  27.612   0.852
42460W        W 3771  27.660  15.270   2.290
42461W        W 3772  41.034  12.136  10.531
42462W        W 3773  35.926  32.033   2.263
42463W        W 3774  11.834   1.846   9.980
42464W        W 3775   0.294   1.863   3.270
42465W        W 3776  24.552   8.802   2.827
42466W        W 3777   2.468  30.977   4.648
42467W        W 3778  24.678  17.749   2.662
42468W        W 3779  33.058  38.552   4.741
42469W        W 3780  15.705  40.366   3.311
42470W        W 3781  38.901  36.062  11.996
42471W        W 3782  14.316  22.622  11.570
42472W        W 3783   0.487  26.571   2.687
42473W        W 3784  44.870   9.314  14.306
42474W        W 3785  12.635   0.892   3.300
42475W        W 3786  11.849  22.719  12.027
42476W        W 3787  24.103  32.017   3.788
42477W        W 3788   1.870  17.753  11.589
42478W        W 3789  30.085  25.170  13.542
42479W        W 3790   6.258  37.360  13.519
42480W        W 3791  41.875  40.808   0.263
42481W        W 3792  34.990   8.401  12.379
42482W        W 3793  19.229  16.219   0.819
42483W        W 3794  18.555   2.433   1.269
42484W        W 3795  16.119  21.229   1.844
42485W        W 3796  24.174  30.150   1.766
42486W        W 3797   9.874  31.502   0.480
42487W        W 3798  43.784   4.721   3.659
42488W        W 3799  15.602  13.245   5.231
42489W        W 3800  39.519   7.781  14.983
42490W        W 3801   7.872   4.734   0.820
42491W        W 3802  14.325  30.920   4.308
42492W        W 3803  40.356  27.544  10.951
42493W        W 3804  28.040   6.393  11.604
42494W        W 3805   8.200  29.487   2.254
42495W        W 3806  27.514  25.150   3.306
42496W        W 3807  35.475  25.019   0.830
42497W        W 3808  41.035  35.040   2.410
42498W        W 3809  26.023   8.779   4.115
42499W        W 3810   9.671   6.795   0.828
42500W        W 3811  38.447   2.379  10.930
42501W        W 3812  19.178  11.281   4.759
42502W        W 3813  38.847  35.024  14.415
42503W        W 3814  17.578  17.786  12.520
42504W        W 3815  11.729   4.286  12.484
42505W        W 3816  36.986  21.172   4.311
42506W        W 3817  19.743  18.093  12.551
42507W        W 3818  34.473  28.625  12.865
42508W        W 3819  22.706  44.000   1.710
42509W        W 3820  17.787  44.273   4.159
42510W        W 3821   6.226  19.177   4.622
42511W        W 3822   3.818   4.711   2.762
42512W        W 3823  11.716   5.753   0.478
42513W        W 3824  38.347   8.330  10.639
42514W        W 3825  44.879  21.684  14.873
42515W        W 3826  32.983  30.581  11.029
42516W        W 3827  20.208  23.539  10.572
42517W        W 3828  17.611  30.013  14.967
42518W        W 3829  13.833  19.755   2.304
42519W        W 3830  29.153  12.719  11.379
42520W        W 3831  36.552  11.860   1.795
42521W        W 3832   2.872  31.897  12.051
42522W        W 3833   6.320   5.765   3.365
42523W        W 3834   3.430   8.202   0.806
42524W        W 3835  42.960  41.037   0.731
42525W        W 3836  34.484  25.126   2.417
42526W        W 3837   1.322  24.123   2.870
42527W        W 3838  21.156  17.770   1.235
42528W        W 3839  16.649  39.364  10.641
42529W        W 3840  24.494  39.908   0.884
42530W        W 3841  42.006  43.359  11.948
42531W        W 3842  43.948  13.617   3.214
42532W        W 3843  42.999  20.107   2.678
42533W        W 3844  15.175  39.483   2.357
42534W        W 3845  35.440  28.144  10.947
42535W        W 3846  13.628  30.526   4.163
42536W        W 3847  29.129  16.273   2.708
42537W        W 3848  26.461  12.830  12.844
42538W        W 3849  42.930  29.485  10.449
42539W        W 3850  26.144  11.271   2.727
42540W        W 3851  13.728   9.276  11.387
42541W        W 3852  36.070  29.531   9.925
42542W        W 3853  13.147  25.711  14.918
42543W        W 3854  25.198   3.459  14.488
42544W        W 3855  43.982  37.897  14.794
42545W        W 3856   9.801  41.335  10.412
42546W        W 3857  22.576  12.655   5.218
42547W        W 3858  12.239  29.464   3.766
42548W        W 3859  10.662  42.452  14.340
42549W        W 3860  21.101  35.015   0.907
42550W        W 3861   1.465  21.120   1.344
42551W        W 3862  26.658  30.447   5.318
42552W        W 3863  19.683  32.137  10.963
42553W        W 3864  22.600  11.249  12.475
42554W        W 3865  34.406  44.753   0.358
42555W        W 3866  36.349  14.676   2.698
42556W        W 3867   7.399  14.698  14.502
42557W        W 3868  34.063  15.283  10.551
42558W        W 3869  38.991  30.944  13.935
42559W        W 3870  21.540   1.333  14.335
42560W        W 3871  26.543  43.319   3.741
42561W        W 3872   4.379   2.441  11.953
42562W        W 3873  41.786   9.248  14.772
42563W        W 3874  11.714  13.129  14.398
42564W        W 3875  35.478  18.637  13.409
42565W        W 3876   9.853  44.270  10.976
42566W        W 3877  13.822  12.650  14.022
42567W        W 3878  22.079  11.230   1.796
42568W        W 3879  13.265  11.693  11.002
42569W        W 3880  27.459  29.012  13.895
42570W        W 3881   8.331  10.175   1.325
42571W        W 3882  44.349  15.605  13.316
42572W        W 3883  10.837  41.411   0.898
42573W        W 3884  32.607  32.425  13.931
42574W        W 3885   6.318  28.954  11.917
42575W        W 3886  42.886  39.352  12.853
42576W        W 3887  27.687   2.928  11.891
42577W        W 3888  33.950   3.219   0.911
42578W        W 3889   2.239  40.442  12.025
42579W        W 3890  18.219  26.621   3.375
42580W        W 3891   3.918  28.954  13.538
42581W        W 3892  41.351  34.590  14.995
42582W        W 3893  16.601   3.945  12.398
42583W        W 3894  28.580  39.996  14.439
42584W        W 3895  21.056  31.142  14.829
42585W        W 3896  42.474  18.625   3.692
42586W        W 3897  23.100  44.972   4.815
42587W        W 3898  43.365  14.799   1.711
42588W        W 3899  41.020   7.416   3.242
42589W        W 3900  11.661  29.036  12.565
42590W        W 3901   6.227   0.742  14.764
42591W        W 3902  34.427   5.929  11.588
42592W        W 3903  11.301  28.956   0.895
42593W        W 3904   2.769   0.892  14.304
42594W        W 3905   7.344  16.247   2.854
42595W        W 3906   1.255  36.910  11.590
42596W        W 3907  15.163   5.906   4.157
42597W        W 3908  10.738   6.383  12.541
42598W        W 3909  38.356   5.803   2.190
42599W        W 3910  24.603  22.724  13.443
42600W        W 3911  35.587  16.762   4.696
42601W        W 3912  41.904  18.650  14.418
42602W        W 3913  35.000   7.678   5.265
42603W        W 3914   4.214  17.221   0.351
42604W        W 3915   2.896  34.593   2.213
42605W        W 3916   0.861  36.499  13.447
42606W        W 3917  33.913   5.355  13.955
42607W        W 3918  33.388  36.050  13.320
42608W        W 3919  19.258  30.418   1.722
42609W        W 3920  21.617  35.523   3.662
42610W        W 3921  20.192  33.546   1.365
42611W        W 3922  17.250  19.241  11.598
42612W        W 3923  20.648   0.893   3.382
42613W        W 3924  14.752  37.844   0.742
42614W        W 3925  36.965   3.912   4.308
42615W        W 3926  17.683   7.862   2.707
42616W        W 3927  40.007  19.243   1.246
42617W        W 3928  31.962  11.760  13.386
42618W        W 3929  34.376  29.655   2.833
42619W        W 3930   3.403  28.543  11.073
42620W        W 3931   4.896  18.641  11.434
42621W        W 3932  11.277  43.844  13.516
42622W        W 3933  20.038   7.854   0.841
42623W        W 3934  19.697  25.528  10.549
42624W        W 3935  23.596  13.802   4.235
42625W        W 3936   3.446  34.540   4.698
42626W        W 3937   5.315  21.617   3.679
42627W        W 3938  15.113  29.114   0.910
42628W        W 3939  36.959  22.135   1.443
42629W        W 3940  36.582  17.670  11.493
42630W        W 3941  22.063  42.477   2.891
42631W        W 3942   1.937  28.944   1.403
42632W        W 3943  23.211  43.370   3.704
42633W        W 3944  30.654  42.430  13.380
42634W        W 3945  19.262  11.736   0.482
42635W        W 3946  24.599  38.906   1.780
42636W        W 3947  42.326  40.017   2.747
42637W        W 3948  19.627  20.154  10.437
42638W        W 3949  40.487  44.825  11.117
42639W        W 3950   5.261  11.327   3.845
42640W        W 3951  29.555  34.382  11.035
42641W        W 3952   6.421  40.942  13.859
42642W        W 3953  11.669   8.804   3.666
42643W        W 3954  40.411  37.988  10.596
42644W        W 3955   0.280  35.090   1.413
42645W        W 3956  12.321   0.770   1.932
42646W        W 3957  15.243   4.414   9.974
42647W        W 3958  24.665  32.607  10.914
42648W        W 3959  26.137  21.669   5.229
42649W        W 3960   3.873   5.279  13.984
42650W        W 3961  41.365   6.885  12.904
42651W        W 3962  30.555  15.699   9.949
42652W        W 3963   6.883  41.366   4.618
42653W        W 3964  11.337   3.725  10.449
42654W        W 3965  38.472  23.195  14.942
42655W        W 3966   5.844  35.891  13.943
42656W        W 3967   2.761   0.861   1.210
42657W        W 3968  18.578   6.332  13.852
42658W        W 3969  25.671  13.645  11.016
42659W        W 3970  32.521  10.204   4.332
42660W        W 3971  38.455  27.126  10.539
42661W        W 3972  20.069   2.385  13.507
42662W        W 3973   8.332  24.134  13.365
42663W        W 3974  34.918   0.365   1.863
42664W        W 3975  19.635  25.006   2.747
42665W        W 3976  18.752   4.334  12.399
42666W        W 3977  37.546  11.356  13.310
42667W        W 3978  22.087   7.900  11.475
42668W        W 3979  11.677  21.234   3.265
42669W        W 3980  12.820  41.487  11.943
42670W        W 3981   7.870  38.927  14.364
42671W        W 3982  38.417  29.119   3.283
42672W        W 3983  16.597   1.825   4.615
42673W        W 3984  34.373   6.228   0.889
42674W        W 3985  12.272  36.517  11.037
42675W        W 3986  13.305  13.657  11.535
42676W        W 3987  31.920  14.215  11.388
42677W        W 3988  44.888   1.354   4.805
42678W        W 3989  29.081  27.535   1.746
42679W        W 3990  10.283  39.044  10.889
42680W        W 3991  38.014  41.482  13.509
42681W        W 3992  16.792   9.853  13.431
42682W        W 3993  40.871  12.178   1.417
42683W        W 3994  36.541   7.346   3.345
42684W        W 3995   4.391  36.456   3.322
42685W        W 3996  14.709  28.033  13.393
42686W        W 3997   0.454  33.104   3.666
42687W        W 3998  25.170  11.814  14.979
42688W        W 3999  37.502   4.712   2.901
42689W        W 4000   6.238  43.771  14.440
42690W        W 4001  38.013  16.753   4.304
42691W        W 4002  16.252   0.765  13.515
42692W        W 4003   2.410  23.991  13.546
42693W        W 4004  17.254  24.033   9.512
42694W        W 4005   5.727  16.721   3.377
42695W        W 4006   1.372   6.388  14.898
42696W        W 4007  14.740  29.920  12.448
42697W        W 4008  19.195  44.755  10.550
42698W        W 4009  37.421  34.043  12.380
42699W        W 4010  26.962   5.760   1.880
42700W        W 4011  35.489  12.143   1.772
42701W        W 4012  18.743  13.244  13.408
42702W        W 4013  40.334   9.162   0.875
42703W        W 4014  32.964  17.590  13.890
42704W        W 4015   2.876   8.740   1.903
42705W        W 4016  37.405   8.736   0.325
42706W        W 4017  22.746  15.696  11.870
42707W        W 4018   6.855  37.846   3.319
42708W        W 4019  21.523   5.792  14.966
42709W        W 4020  22.517   4.313   0.902
42710W        W 4021  42.955  14.341  14.496
42711W        W 4022   7.237  28.109  14.002
42712W        W 4023  15.249   9.279  10.424
42713W        W 4024  24.643  21.591  11.384
42714W        W 4025  29.121  37.382  14.897
42715W        W 4026  26.572  23.022  14.846
42716W        W 4027   2.291  25.077  11.906
42717W        W 4028  30.461  25.566  14.005
42718W        W 4029  38.924  29.427   3.858
42719W        W 4030  23.216  41.374  12.030
42720W        W 4031  17.169   5.749   3.708
42721W        W 4032  36.052  25.703  11.113
42722W        W 4033   8.332   0.751   0.871
42723W        W 4034  11.173  15.802   3.264
42724W        W 4035  17.752  24.516  11.411
42725W        W 4036   2.270  25.171  10.086
42726W        W 4037  44.485  16.574  10.438
42727W        W 4038  33.079  10.758   1.314
42728W        W 4039   3.764  16.569  14.323
42729W        W 4040  39.425  28.088  14.025
42730W        W 4041   5.221  23.005   1.305
42731W        W 4042  13.133  32.628   2.794
42732W        W 4043  32.452  21.191  11.510
42733W        W 4044  24.560  18.709  13.373
42734W        W 4045  30.136   7.744   3.870
42735W        W 4046  26.157  21.101  12.462
42736W        W 4047   4.804  30.571   2.306
42737W        W 4048  16.582  27.966  11.490
42738W        W 4049  24.982   0.787  14.378
42739W        W 4050  23.220   3.366   2.303
42740W        W 4051  29.997  11.373  12.453
42741W        W 4052  28.944  26.465  14.391
42742W        W 4053   6.774   6.422   1.302
42743W        W 4054  37.482  33.994  14.385
42744W        W 4055  37.410  39.969   3.695
42745W        W 4056   0.775  30.988   4.260
42746W        W 4057  13.204  30.093  10.639
42747W        W 4058  21.755  32.549  14.804
42748W        W 4059  32.590  34.416  12.910
42749W        W 4060   3.284   2.895   4.330
42750W        W 4061  16.767  19.148  13.443
42751W        W 4062  31.580  24.064  12.427
42752W        W 4063  10.818  22.596  12.363
42753W        W 4064  37.435  24.714  13.944
42754W        W 4065  28.944  22.183  11.950
42755W        W 4066  12.647  36.457   1.800
42756W        W 4067  27.692  22.668   2.289
42757W        W 4068  10.268  30.595  14.774
42758W        W 4069   5.399  38.560   3.749
42759W        W 4070  30.039   7.709  14.949
42760W        W 4071  36.073  43.407   4.347
42761W        W 4072  12.778  37.440  12.423
42762W        W 4073  37.527  21.532  10.524
42763W        W 4074  19.767  29.588  14.877
42764W        W 4075  12.344  26.131   2.230
42765W        W 4076  18.210  16.106   1.271
42766W        W 4077  20.192  23.171   0.478
42767W        W 4078  35.895   5.264  11.110
42768W        W 4079  11.683  24.698  10.895
42769W        W 4080  16.100  32.906  12.485
42770W        W 4081  10.678  12.683  11.033
42771W        W 4082  40.478  23.060   2.790
42772W        W 4083  32.571  26.662   4.720
42773W        W 4084  11.654   7.790  14.504
42774W        W 4085  43.406   2.249  10.421
42775W        W 4086  30.465  23.524  12.408
42776W        W 4087  27.188  19.125   0.830
42777W        W 4088  42.503  20.601  12.937
42778W        W 4089  12.675  10.366  14.971
42779W        W 4090  26.065  39.338   2.795
42780W        W 4091   5.364   9.842  13.012
42781W        W 4092  27.445  34.008  14.479
42782W        W 4093  39.558  37.059   0.826
42783W        W 4094  33.063  27.617  12.854
42784W        W 4095  33.928  35.966  13.939
42785W        W 4096  21.173  18.655  11.921
42786W        W 4097  18.650  18.261  12.958
42787W        W 4098   9.835   8.379   2.391
42788W        W 4099  25.706  15.822  14.881
42789W        W 4100  32.413  18.064  10.940
42790W        W 4101  15.162  30.073   1.858
42791W        W 4102  15.257  35.881  11.925
42792W        W 4103  40.831   2.287  12.086
42793W        W 4104  25.601  10.345  12.998
42794W        W 4105  13.780  38.381   2.249
42795W        W 4106  28.653  21.592  13.823
42796W        W 4107  38.402  12.244   2.718
42797W        W 4108  14.335  35.525   2.713
42798W        W 4109  18.644  17.692  13.909
42799W        W 4110  24.135  17.692  11.894
42800W        W 4111  27.690  31.137   3.170
42801W        W 4112  29.501  16.649  11.443
42802W        W 4113  25.704  43.854  14.861
42803W        W 4114   3.253  15.746   4.302
42804W        W 4115  28.083  11.843   2.793
42805W        W 4116  36.969  29.530   9.618
42806W        W 4117  39.997   5.212  14.878
42807W        W 4118  38.336  21.151  10.423
42808W        W 4119   6.302  11.147   2.900
42809W        W 4120  14.758   2.897   3.851
42810W        W 4121  34.518  40.892   2.304
42811W        W 4122   8.280  23.039   4.738
42812W        W 4123  10.705  22.995   0.268
42813W        W 4124  29.949  20.623   3.721
42814W        W 4125   0.368  20.527   1.703
42815W        W 4126   8.742  37.985   4.786
42816W        W 4127  19.175  11.829   3.827
42817W        W 4128  18.589  24.537  12.922
42818W        W 4129   1.241  35.077   3.637
42819W        W 4130   3.746  43.418   4.128
42820W        W 4131  21.134  10.185   1.225
42821W        W 4132  16.644  19.657   4.616
42822W        W 4133  33.034  24.011   0.362
42823W        W 4134  17.702   8.729   4.146
42824W        W 4135  29.487  17.254   2.716
42825W        W 4136  40.364  11.645  11.444
42826W        W 4137  17.574  15.693   4.147
42827W        W 4138  36.907  31.543  14.833
42828W        W 4139  27.671   6.771   3.159
42829W        W 4140  44.951   0.900  11.399
42830W        W 4141  37.493  44.282   5.112
42831W        W 4142  30.464  35.399   1.238
42832W        W 4143  43.867  35.364   3.322
42833W        W 4144  36.879  23.070   2.278
42834W        W 4145  22.067  26.963   4.708
42835W        W 4146   4.902  21.106   5.235
42836W        W 4147   4.932  30.995  14.885
42837W        W 4148   3.843  26.016   4.658
42838W        W 4149  14.678  35.943  11.961
42839W        W 4150   9.280  36.463   3.209
42840W        W 4151  30.483  19.630  13.886
42841W        W 4152  41.853  23.557   4.237
42842W        W 4153  13.657  29.655  11.966
42843W        W 4154   7.179  37.581   1.438
42844W        W 4155  17.301   1.895  12.968
42845W        W 4156  40.337  38.479  11.388
42846W        W 4157  40.333  28.439   3.783
42847W        W 4158  35.404  32.098  12.503
42848W        W 4159  15.584  33.554  13.531
42849W        W 4160  10.266   4.388  14.851
42850W        W 4161  15.196  30.445  11.119
42851W        W 4162  40.375  32.893  13.931
42852W        W 4163  34.467  37.479   1.216
42853W        W 4164   3.400   9.705  11.002
42854W        W 4165  29.436  11.196   1.728
42855W        W 4166  15.791  24.676  11.387
42856W        W 4167   2.443  33.954   0.470
42857W        W 4168  13.838   8.849  14.312
42858W        W 4169   3.295   4.805  14.421
42859W        W 4170   0.259  13.138  12.928
42860W        W 4171  17.600  19.193   0.883
42861W        W 4172   5.761  44.488   1.320
42862W        W 4173   7.234  12.353  12.367
42863W        W 4174  38.973  41.317  11.984
42864W        W 4175  21.674  30.025   3.753
42865W        W 4176  34.972   6.897   1.235
42866W        W 4177   5.368  34.081  11.594
42867W        W 4178   7.785  21.029  13.977
42868W        W 4179  34.005  39.057   0.473
42869W        W 4180  40.907  35.962   3.360
42870W        W 4181  36.429  16.743  12.866
42871W        W 4182  29.074  20.769   1.379
42872W        W 4183  23.150  17.586   5.166
42873W        W 4184  20.648  34.933   1.873
42874W        W 4185  17.126   6.829  10.994
42875W        W 4186  21.699  35.967   2.328
42876W        W 4187  39.932  13.788   4.795
42877W        W 4188  29.616  40.505   4.347
42878W        W 4189  26.033  30.156  14.972
42879W        W 4190  18.148  16.290  14.447
42880W        W 4191  30.993   0.805   2.323
42881W        W 4192  38.075   4.402   2.248
42882W        W 4193  16.780  12.851   9.594
42883W        W 4194   8.348  11.307   2.668
42884W        W 4195  18.579  21.520  10.523
42885W        W 4196  34.599  39.553  11.559
42886W        W 4197  27.485  20.658  10.904
42887W        W 4198  43.840  20.590  11.017
42888W        W 4199  39.832  31.483  13.427
42889W        W 4200  36.937  30.490  10.988
42890W        W 4201  24.014   5.844   4.334
42891W        W 4202   1.932  20.711   2.746
42892W        W 4203  30.975  11.783   0.787
42893W        W 4204   7.666  32.950   1.777
42894W        W 4205  21.073  31.492  10.496
42895W        W 4206   2.387  10.835   3.230
42896W        W 4207  39.465  39.020  13.360
42897W        W 4208  16.706  37.085  13.456
42898W        W 4209  32.580  29.103   3.318
42899W        W 4210   6.699  11.140  14.872
42900W        W 4211  43.396  38.924   4.648
42901W        W 4212  24.666  43.364   4.626
42902W        W 4213  39.912   1.277   0.371
42903W        W 4214  24.651  43.284  14.322
42904W        W 4215  35.462  23.106  13.935
42905W        W 4216  34.052   2.888  11.921
42906W        W 4217  32.003  33.122  14.805
42907W        W 4218  42.004  40.933   1.275
42908W        W 4219   7.891  10.795   0.756
42909W        W 4220  29.518  27.492  12.851
42910W        W 4221  44.797  32.924   3.271
42911W        W 4222  10.745  37.514  11.954
42912W        W 4223  24.195  31.900   5.280
42913W        W 4224  26.153  44.429  11.095
42914W        W 4225   3.813   1.298   1.723
42915W        W 4226  29.587   5.855   3.786
42916W        W 4227   5.405  28.019   4.199
42917W        W 4228  24.003  16.783   2.902
42918W        W 4229  43.003  37.958   2.718
42919W        W 4230  23.692  17.688  10.593
42920W        W 4231  34.984   3.358   2.178
42921W        W 4232  28.488  35.067  11.881
42922W        W 4233  26.675  18.556   1.841
42923W        W 4234   0.924   8.180  14.472
42924W        W 4235  10.857  43.408   1.780
42925W        W 4236   2.960  41.536   2.272
42926W        W 4237  35.976  13.125  12.384
42927W        W 4238  21.730  10.777   3.764
42928W        W 4239   4.329  30.631  13.861
42929W        W 4240  15.824  31.910   2.726
42930W        W 4241  29.490  20.739   1.740
42931W        W 4242  21.241  41.391   1.762
42932W        W 4243   4.705  41.489  10.955
42933W        W 4244   0.462   3.404   2.292
42934W        W 4245   8.322   1.249  13.395
42935W        W 4246  38.069  39.416  14.953
42936W        W 4247  39.941  28.176   1.806
42937W        W 4248  36.956  11.749  10.957
42938W        W 4249  16.664   7.304   2.269
42939W        W 4250  12.708  39.452   1.234
42940W        W 4251  29.124  17.626  11.120
42941W        W 4252   6.280  18.060   5.204
42942W        W 4253  29.546  29.020   4.168
42943W        W 4254   7.742   8.307   2.691
42944W        W 4255   0.746  35.953   4.721
42945W        W 4256  11.135   7.708   2.840
42946W        W 4257  18.214  15.703  13.063
42947W        W 4258   1.949  41.950   0.796
42948W        W 4259  19.081  15.271  10.927
42949W        W 4260  16.575  28.039  14.964
42950W        W 4261  16.616  12.260   0.937
42951W        W 4262  32.502  41.537   5.234
42952W        W 4263  17.244  20.553   3.211
42953W        W 4264  11.802  35.433   1.355
42954W        W 4265  36.032  38.367   3.641
42955W        W 4266  36.574  43.884   0.742
42956W        W 4267  21.543  16.279   2.339
42957W        W 4268  24.494   1.751  12.491
42958W        W 4269  44.920  32.016  13.331
42959W        W 4270   6.768  34.602   2.876
42960W        W 4271  30.039   7.378   5.274
42961W        W 4272  26.029  36.358   1.412
42962W        W 4273  35.078  36.098   4.320
42963W        W 4274  19.737   3.261   2.896
42964W        W 4275  21.223  33.978  10.587
42965W        W 4276   8.247  20.234  13.892
42966W        W 4277  37.414  41.958  14.805
42967W        W 4278  23.701   6.796   0.396
42968W        W 4279   3.394  44.825   0.265
42969W        W 4280  31.566  34.903   2.689
42970W        W 4281  21.733  39.559  10.969
42971W        W 4282  20.128  10.338   0.790
42972W        W 4283  30.503  27.667   1.881
42973W        W 4284   9.672  14.800   4.814
42974W        W 4285   5.832  22.632  12.394
42975W        W 4286   0.459  17.169   2.360
42976W        W 4287  25.663  12.732  14.930
42977W        W 4288  31.103  25.973  11.933
42978W        W 4289  12.838  38.918  14.462
42979W        W 4290  30.134   5.854   0.313
42980W        W 4291  39.374  36.854  14.941
42981W        W 4292  39.393   0.287   2.786
42982W        W 4293  39.034  15.110  13.462
42983W        W 4294  27.633  37.386  10.641
42984W        W 4295  38.045   2.916   1.849
42985W        W 4296  35.940  28.018  11.080
42986W        W 4297   1.482  14.725   3.245
42987W        W 4298  31.571   7.200   1.785
42988W        W 4299  15.682   4.392  11.944
42989W        W 4300  40.939   2.415  13.943
42990W        W 4301  24.155   8.834   2.762
42991W        W 4302  18.260  36.031  11.420
42992W        W 4303  28.681  18.240  14.356
42993W        W 4304  39.932  28.594   4.778
42994W        W 4305   3.828  16.290   2.214
42995W        W 4306   0.940  12.779  13.831
42996W        W 4307  23.682   8.244  14.344
42997W        W 4308  43.803   9.798   1.277
42998W        W 4309  14.612  15.709  11.610
42999W        W 4310  33.436  17.758  12.450
43000W        W 4311  39.382   4.941   1.716
43001W        W 4312  12.684  37.843   3.841
43002W        W 4313  23.193  38.365   3.794
43003W        W 4314   4.796  31.020  10.645
43004W        W 4315  40.821  16.155   0.430
43005W        W 4316   0.768  11.235   4.281
43006W        W 4317  35.920  16.713  12.864
43007W        W 4318  33.976   8.255  14.821
43008W        W 4319  18.060  18.682  10.406
43009W        W 4320  28.453  14.113  11.012
43010W        W 4321  41.504  16.638  14.506
43011W        W 4322  35.859  15.277   3.217
43012W        W 4323  10.707  43.494   3.172
43013W        W 4324  17.163  44.500  13.058
43014W        W 4325  26.511   5.238   2.792
43015W        W 4326   1.475  28.041   2.292
43016W        W 4327  24.142   6.389   1.874
43017W        W 4328   6.851  10.687  10.438
43018W        W 4329  15.271  20.108   1.322
43019W        W 4330  40.325  23.590   0.270
43020W        W 4331  37.486  23.183   1.307
43021W        W 4332  36.444   7.403  12.350
43022W        W 4333   3.906  34.474  11.450
43023W        W 4334  23.005  21.512  12.368
43024W        W 4335  20.135  15.227   0.282
43025W        W 4336  37.064  38.385   2.832
43026W        W 4337  43.390  22.024   1.728
43027W        W 4338  21.058  44.869   3.294
43028W        W 4339  35.093  11.707  12.447
43029W        W 4340  24.663   3.787   1.862
43030W        W 4341   4.854  42.798   3.241
43031W        W 4342  10.800  11.673  12.985
43032W        W 4343   6.321   9.729   1.773
43033W        W 4344  26.568  22.222   3.197
43034W        W 4345   1.252   6.850  14.338
43035W        W 4346   4.417  35.549   1.301
43036W        W 4347   5.761  25.015   0.809
43037W        W 4348  41.038  16.301  13.493
43038W        W 4349  44.463  22.720   0.396
43039W        W 4350  44.380  19.678  12.909
43040W        W 4351   2.866   1.941   2.843
43041W        W 4352   7.689   9.752  12.402
43042W        W 4353  30.135  15.663   3.305
43043W        W 4354  32.950  26.000   4.773
43044W        W 4355  12.274  14.311  14.781
43045W        W 4356  34.431  25.604  14.851
43046W        W 4357  15.260  37.935   0.906
43047W        W 4358  18.590  18.647  11.129
43048W        W 4359  40.828  28.125   1.231
43049W        W 4360   2.847  27.172   1.298
43050W        W 4361  23.521  27.135  10.635
43051W        W 4362  40.043   0.469   3.782
43052W        W 4363  29.120   8.226   2.701
43053W        W 4364  40.517   0.344  14.964
43054W        W 4365  29.955  31.152   4.127
43055W        W 4366   1.745  41.472   0.750
43056W        W 4367   2.726  12.213  14.329
43057W        W 4368  13.136   8.403   0.791
43058W        W 4369  32.069  30.031   0.278
43059W        W 4370   1.469  29.588  13.459
43060W        W 4371  14.695  35.483  12.958
43061W        W 4372  12.154  26.069  13.800
43062W        W 4373  41.354  13.714   0.851
43063W        W 4374   3.328   0.331   4.262
43064W        W 4375  44.347  24.637  11.510
43065W        W 4376  19.217  10.294   2.364
43066W        W 4377  39.854   3.347  12.877
43067W        W 4378  39.410  19.653   2.765
43068W        W 4379  28.973   0.331  13.018
43069W        W 4380  32.566  16.199  14.496
43070W        W 4381   1.263  28.126  12.541
43071W        W 4382  43.009   5.279   2.785
43072W        W 4383  38.987  27.120   0.883
43073W        W 4384  11.357  27.690   3.306
43074W        W 4385  35.045   8.863  11.602
43075W        W 4386  43.281  18.562   4.682
43076W        W 4387   1.881  19.192   4.778
43077W        W 4388  24.492   5.902  14.896
43078W        W 4389  25.038  40.858  14.925
43079W        W 4390  29.135  44.825  10.611
43080W        W 4391  22.202  38.061   4.162
43081W        W 4392  18.169  16.771   4.665
43082W        W 4393   3.789  28.175   1.370
43083W        W 4394  37.979  35.434  12.466
43084W        W 4395  31.554   0.848  14.291
43085W        W 4396  23.491  35.907   3.805
43086W        W 4397  27.184  30.489   5.300
43087W        W 4398  27.985  12.332  13.313
43088W        W 4399  38.335  12.815  14.310
43089W        W 4400  30.089  42.337  10.904
43090W        W 4401  40.009  29.143   2.665
43091W        W 4402  35.963  22.725  13.817
43092W        W 4403  31.459  19.237   2.294
43093W        W 4404   5.715  44.856  10.578
43094W        W 4405  14.261   6.197   4.288
43095W        W 4406   8.798  36.905   0.821
43096W        W 4407  44.427  27.120   3.703
43097W        W 4408  20.694  22.221  12.899
43098W        W 4409   1.368  12.629   3.734
43099W        W 4410   4.304   1.384  12.468
43100W        W 4411  43.311   7.715  11.582
43101W        W 4412  19.082  28.110  11.123
43102W        W 4413  26.162  36.517  11.959
43103W        W 4414   3.889  11.732   0.410
43104W        W 4415  36.881  42.790  13.359
43105W        W 4416  13.808  40.892   3.217
43106W        W 4417  13.229  22.178   1.767
43107W        W 4418  12.624  16.245   3.857
43108W        W 4419   6.701  12.145   0.903
43109W        W 4420  38.413  10.310   0.293
43110W        W 4421  43.334  38.353   2.855
43111W        W 4422  13.780   2.967   3.184
43112W        W 4423   0.870  39.379  14.413
43113W        W 4424  33.086   7.808  14.409
43114W        W 4425  24.206   6.774   4.677
43115W        W 4426  22.561  24.066   3.689
43116W        W 4427  20.662  15.207   4.817
43117W        W 4428  44.815  29.436   1.764
43118W        W 4429   6.680  43.279  14.351
43119W        W 4430  10.649  28.582   1.378
43120W        W 4431  11.145  36.865  11.100
43121W        W 4432  39.975  29.018  14.978
43122W        W 4433  44.409  35.519   4.760
43123W        W 4434  39.512   8.746   0.374
43124W        W 4435  15.300   9.754   2.364
43125W        W 4436  43.956  43.395  11.092
43126W        W 4437  18.203  22.597  12.497
43127W        W 4438   5.738  21.141   1.293
43128W        W 4439  37.560  11.792  11.573
43129W        W 4440  39.970  42.418   0.478
43130W        W 4441  44.290  16.158   2.408
43131W        W 4442   8.732  24.183  10.414
43132W        W 4443  12.151  41.794  13.526
43133W        W 4444  31.098  12.706   4.778
43134W        W 4445   5.396  32.566  13.930
43135W        W 4446  36.072  25.595  12.907
43136W        W 4447   9.372  22.670   3.190
43137W        W 4448  10.274  44.471   3.379
43138W        W 4449  17.287  40.861   1.732
43139W        W 4450  24.559  41.829   0.883
43140W        W 4451  14.125  12.709  11.021
43141W        W 4452   4.208  16.180   9.616
43142W        W 4453  34.546   8.786   3.171
43143W        W 4454  11.206  25.515   4.273
43144W        W 4455  30.416  40.309   0.825
43145W        W 4456  35.077  42.427  11.999
43146W        W 4457  30.538   2.288   3.707
43147W        W 4458  21.695  17.234  11.411
43148W        W 4459  33.936   5.217   3.322
43149W        W 4460  40.446  31.579   3.279
43150W        W 4461  39.867  14.725   4.334
43151W        W 4462  35.955  44.009  13.399
43152W        W 4463   3.913  44.883   2.335
43153W        W 4464  23.121  29.983   2.769
43154W        W 4465   6.350  14.602  13.460
43155W        W 4466  28.665  16.193   0.812
43156W        W 4467  30.127  31.523   0.253
43157W        W 4468  34.406  15.201  13.931
43158W        W 4469   7.881  22.242  13.834
43159W        W 4470  27.647  41.482  11.078
43160W        W 4471  13.792  28.634  11.563
43161W        W 4472  13.194   0.864   2.752
43162W        W 4473  19.693  30.466   2.332
43163W        W 4474  17.717   7.261  10.893
43164W        W 4475  13.764   9.821  13.045
43165W        W 4476  12.123  35.972  12.892
43166W        W 4477   2.246  40.452  11.004
43167W        W 4478  28.949   5.781  12.473
43168W        W 4479  29.523  29.655  10.952
43169W        W 4480  18.237   8.789  13.511
43170W        W 4481  31.999  24.674   0.764
43171W        W 4482  13.606  28.106   3.241
43172W        W 4483  17.080  11.287   0.379
43173W        W 4484  41.347  17.667   0.350
43174W        W 4485  34.511  13.711  13.388
43175W        W 4486  10.212   2.948  12.071
43176W        W 4487  36.969  40.445   4.203
43177W        W 4488  38.016   8.357  12.580
43178W        W 4489  22.047  39.431   4.123
43179W        W 4490  20.261  10.788   1.439
43180W        W 4491  42.802  20.618   0.962
43181W        W 4492  15.175  20.549  12.021
43182W        W 4493  25.179  19.175   1.258
43183W        W 4494  40.360   9.854  11.986
43184W        W 4495  26.479  36.520   1.446
43185W        W 4496  27.510  20.160  13.349
43186W        W 4497  43.766  44.811   3.282
43187W        W 4498  28.490  39.051   3.800
43188W        W 4499  25.098  36.442   4.132
43189W        W 4500  42.852  11.255   0.854
43190W        W 4501  16.289  10.816  14.275
43191W        W 4502  16.810  44.461   3.207
43192W        W 4503  12.661  13.717  14.449
43193W        W 4504  30.537  33.890   3.813
43194W        W 4505  14.789  13.814  10.571
43195W        W 4506  34.486  29.131   3.853
43196W        W 4507   0.787  22.610   2.270
43197W        W 4508  14.638  36.029  14.785
43198W        W 4509  21.514  14.121  14.927
43199W        W 4510  33.619  39.455   1.920
43200W        W 4511  42.969   7.711  11.022
43201W        W 4512  13.659  15.593  13.469
43202W        W 4513   1.307   4.772  13.882
43203W        W 4514  24.136  37.429  12.343
43204W        W 4515  40.942  11.213   0.845
43205W        W 4516  43.806  12.789   4.631
43206W        W 4517   7.312  42.899   3.721
43207W        W 4518  33.993  44.832  14.335
43208W        W 4519  41.474   9.773   4.823
43209W        W 4520  25.604  31.132   3.355
43210W        W 4521  28.118   7.215   0.372
43211W        W 4522  15.119  30.419  12.368
43212W        W 4523   7.406  20.541   2.875
43213W        W 4524  33.421  21.663  13.414
43214W        W 4525   6.764  18.731  12.875
43215W        W 4526  12.360  23.512  10.493
43216W        W 4527   8.861  42.969  11.454
43217W        W 4528  22.163  11.332   3.652
43218W        W 4529  28.067  20.596   2.185
43219W        W 4530   1.752  21.647   4.688
43220W        W 4531  40.861  39.013  10.640
43221W        W 4532  42.885  40.941  11.957
43222W        W 4533  14.714  16.726  10.052
43223W        W 4534   4.926  11.135   2.230
43224W        W 4535  24.076  36.487  11.583
43225W        W 4536  40.839  24.548  12.846
43226W        W 4537  18.558   1.907  10.469
43227W        W 4538  11.784   2.931  13.516
43228W        W 4539   5.741  21.632  11.049
43229W        W 4540  31.574  38.979  13.388
43230W        W 4541  42.876  18.705   4.348
43231W        W 4542   1.738  36.449   5.176
43232W        W 4543  34.050   5.803  11.887
43233W        W 4544  13.253  36.893  13.792
43234W        W 4545   3.316  18.213  10.622
43235W        W 4546   7.811  33.545   1.446
43236W        W 4547  27.185   9.150   2.699
43237W        W 4548  20.734  40.347  10.533
43238W        W 4549   0.408  15.123   2.744
43239W        W 4550  41.296  29.954   1.813
43240W        W 4551  19.082  44.388  12.078
43241W        W 4552  31.115  13.241   4.614
43242W        W 4553   0.779  31.458   4.326
43243W        W 4554  24.037  41.858   1.385
43244W        W 4555   8.248  11.221   4.826
43245W        W 4556  12.140   5.783   0.444
43246W        W 4557  33.470  42.361   4.597
43247W        W 4558  16.633  27.674   0.879
43248W        W 4559   8.268   4.716  13.365
43249W        W 4560  36.902  12.747  13.026
43250W        W 4561  39.036   7.682   3.294
43251W        W 4562  13.763  27.471   3.353
43252W        W 4563  24.632  15.703  14.490
43253W        W 4564  31.091   8.656  11.417
43254W        W 4565   1.938  36.586   3.343
43255W        W 4566  40.308  35.523   3.860
43256W        W 4567   8.877  34.963   2.895
43257W        W 4568   5.832  44.854  13.538
43258W        W 4569  37.006   7.883  12.837
43259W        W 4570   7.846  22.550   0.949
43260W        W 4571  18.593  29.618  11.981
43261W        W 4572  14.130   5.432  10.595
43262W        W 4573  10.670  32.599  12.928
43263W        W 4574  29.509  19.130   4.325
43264W        W 4575   7.721  13.796  12.037
43265W        W 4576  26.488  17.613  14.786
43266W        W 4577  28.178  12.660   3.848
43267W        W 4578  16.077  17.574  12.013
43268W        W 4579   5.263   3.458  12.560
43269W        W 4580  33.468   5.337  10.125
43270W        W 4581  33.103  25.500   3.378
43271W        W 4582  43.984  26.694  14.902
43272W        W 4583  43.946  30.945  13.382
43273W        W 4584  17.722  27.135   3.182
43274W        W 4585  42.827   4.798   2.825
43275W        W 4586  29.042  15.244  10.457
43276W        W 4587   9.829   0.885   1.875
43277W        W 4588   6.827  26.600   4.322
43278W        W 4589  24.091  34.896   0.893
43279W        W 4590  43.963   2.929  14.806
43280W        W 4591  16.269   4.899   3.711
43281W        W 4592   4.930   5.760  12.005
43282W        W 4593  44.486  43.885  14.815
43283W        W 4594   4.760   8.811  13.340
43284W        W 4595  19.195  21.087   4.749
43285W        W 4596   3.892   4.909   3.154
43286W        W 4597  13.603   5.771   0.960
43287W        W 4598  21.741  29.062  11.085
43288W        W 4599  17.137  42.843   2.214
43289W        W 4600  27.037  44.424  11.901
43290W        W 4601  40.315  25.194  10.104
43291W        W 4602   2.862  39.035  11.605
43292W        W 4603  41.879   1.438   0.830
43293W        W 4604  26.082  19.693  13.436
43294W        W 4605   4.931  36.961   3.834
43295W        W 4606  32.623   9.794   2.310
43296W        W 4607   4.315  36.518   2.263
43297W        W 4608   7.244  11.209  14.024
43298W        W 4609  39.533  15.745   4.632
43299W        W 4610   4.793   6.718  12.566
43300W        W 4611  28.162   8.394   1.825
43301W        W 4612   2.933  38.936  12.991
43302W        W 4613  19.638  32.052  11.499
43303W        W 4614  34.591   4.699   4.813
43304W        W 4615  37.497  40.884   1.229
43305W        W 4616  36.031  15.731   2.342
43306W        W 4617  37.847  29.023   2.318
43307W        W 4618  27.013   8.204   3.864
43308W        W 4619  42.498  11.757  10.626
43309W        W 4620  38.465  20.726   1.311
43310W        W 4621  16.574  12.647  12.477
43311W        W 4622  11.248   2.273   2.412
43312W        W 4623  41.951  36.516  14.952
43313W        W 4624   1.274   6.714   4.323
43314W        W 4625  33.622   0.322  14.317
43315W        W 4626  25.699  44.305  11.864
43316W        W 4627  41.982  13.230  13.394
43317W        W 4628   1.474  24.552   2.371
43318W        W 4629  19.604  17.606   1.371
43319W        W 4630  35.400  11.731   3.233
43320W        W 4631  26.974  36.843  13.543
43321W        W 4632   9.873  25.471   4.655
43322W        W 4633  30.452  33.621   4.123
43323W        W 4634  12.785  10.201   4.745
43324W        W 4635  36.438  24.012  12.954
43325W        W 4636  27.158  14.304   0.906
43326W        W 4637   7.912  26.552   3.650
43327W        W 4638  20.661  10.321   4.321
43328W        W 4639  20.749  32.026   0.829
43329W        W 4640  40.859  29.567   0.253
43330W        W 4641  29.431  25.088   2.227
43331W        W 4642  17.272  41.469   4.606
43332W        W 4643   4.301  44.439   1.882
43333W        W 4644  33.964  16.237  14.851
43334W        W 4645   6.333  23.610   2.790
43335W        W 4646  21.063  43.920  14.362
43336W        W 4647  21.109  25.593  14.804
43337W        W 4648   6.304  36.932   1.855
43338W        W 4649  38.547  43.393   2.788
43339W        W 4650   8.870  15.246   2.767
43340W        W 4651  32.461  24.531   2.299
43341W        W 4652  13.260  26.981  10.583
43342W        W 4653  44.796  19.698   3.758
43343W        W 4654  16.083  17.279   1.915
43344W        W 4655  36.458   8.885   3.827
43345W        W 4656  44.935  10.836  13.875
43346W        W 4657  38.895  38.034   5.170
43347W        W 4658  43.432  26.014   1.291
43348W        W 4659   8.234  40.873   4.824
43349W        W 4660  30.083  39.511  12.999
43350W        W 4661  40.824  30.928   2.802
43351W        W 4662   6.844   5.418  14.344
43352W        W 4663  28.565  29.561   0.353
43353W        W 4664  21.205   5.257   4.293
43354W        W 4665  40.393  33.959  11.879
43355W        W 4666  19.763   0.985   2.292
43356W        W 4667  26.006  32.489   3.703
43357W        W 4668   3.836  34.459   0.472
43358W        W 4669   0.311   8.757  11.533
43359W        W 4670   4.210  40.378   1.366
43360W        W 4671   6.380  16.775   2.317
43361W        W 4672  32.126  42.858   0.840
43362W        W 4673  27.584  10.252  12.347
43363W        W 4674  23.664  29.976  13.931
43364W        W 4675  13.198  26.618  11.472
43365W        W 4676  39.890  19.653   2.866
43366W        W 4677  15.320   8.699   1.316
43367W        W 4678  35.015  37.081   2.775
43368W        W 4679  23.008  19.760  14.476
43369W        W 4680   4.296  32.410   1.900
43370W        W 4681  32.005  35.912   9.983
43371W        W 4682  11.638   8.773  10.466
43372W        W 4683  11.251   8.687   2.875
43373W        W 4684  34.407  13.764   2.362
43374W        W 4685  37.905  40.894  11.536
43375W        W 4686  22.511  22.069  14.959
43376W        W 4687  27.643  42.839   1.788
43377W        W 4688  15.783   9.759  10.160
43378W        W 4689  41.329   3.735   3.662
43379W        W 4690  11.793  35.977  13.444
43380W        W 4691  30.979  40.521  14.495
43381W        W 4692  14.712  34.527  10.963
43382W        W 4693  28.008  26.608   1.294
43383W        W 4694  35.103  31.938   3.244
43384W        W 4695  34.489  27.547   0.858
43385W        W 4696   2.435  43.917  12.418
43386W        W 4697   7.369  17.173   2.222
43387W        W 4698  33.074   7.804   4.744
43388W        W 4699  38.000  20.053   3.724
43389W        W 4700  25.686  34.524  13.920
43390W        W 4701  12.307  33.412   2.681
43391W        W 4702  20.196  42.408   3.746
43392W        W 4703  41.329  34.023  14.429
43393W        W 4704  32.426  10.360   3.852
43394W        W 4705  24.050  20.740  10.946
43395W        W 4706  17.120   3.950   5.596
43396W        W 4707  36.971  19.661  12.082
43397W        W 4708  26.557  38.337  11.940
43398W        W 4709   8.337   5.399   0.930
43399W        W 4710  27.127  36.970   1.872
43400W        W 4711  20.191  20.626   3.814
43401W        W 4712  34.958  29.019   2.418
43402W        W 4713  17.150  30.094  13.923
43403W        W 4714  28.584  21.627   4.255
43404W        W 4715  25.018  29.667   3.314
43405W        W 4716  10.846  25.630   3.347
43406W        W 4717  36.529  42.823   5.222
43407W        W 4718  41.924   4.902   4.742
43408W        W 4719  28.598  21.123   2.830
43409W        W 4720  36.485  13.200  12.860
43410W        W 4721  31.079  30.420  10.577
43411W        W 4722  20.196  21.595   0.763
43412W        W 4723  27.545  42.466   2.794
43413W        W 4724  22.594  40.310  14.445
43414W        W 4725  14.645  26.564   5.607
43415W        W 4726   7.801  25.027  12.529
43416W        W 4727  13.205  27.603   0.844
43417W        W 4728  26.670  11.829  12.089
43418W        W 4729  12.203   6.381  13.394
43419W        W 4730  32.509  25.004   1.918
43420W        W 4731  35.072  23.227  10.571
43421W        W 4732   1.845  21.205   4.833
43422W        W 4733   5.409   7.311   4.695
43423W        W 4734   2.455  17.565  13.392
43424W        W 4735  13.690  19.777  10.900
43425W        W 4736   3.428  42.414   1.237
43426W        W 4737  23.010  28.144   2.675
43427W        W 4738  41.874  23.050   0.895
43428W        W 4739   9.340   7.794   0.442
43429W        W 4740  20.566   2.929  12.378
43430W        W 4741  40.420  43.293  10.639
43431W        W 4742  40.031  35.369  14.878
43432W        W 4743  42.927  20.122   4.121
43433W        W 4744  34.056  39.491   0.938
43434W        W 4745   8.899   8.788  14.843
43435W        W 4746  37.076  10.811  13.058
43436W        W 4747  37.076   0.887  11.039
43437W        W 4748  30.443  32.598   1.721
43438W        W 4749  25.534  42.333  11.891
43439W        W 4750  38.822  32.614   3.758
43440W        W 4751  31.149  12.841   3.228
43441W        W 4752   9.861  10.177  14.360
43442W        W 4753  15.252  33.497  11.430
43443W        W 4754  43.996  33.623   1.866
43444W        W 4755  31.096  20.197  11.513
43445W        W 4756  40.979  33.588  12.042
43446W        W 4757   3.297  41.381  12.023
43447W        W 4758  19.057  27.171  14.909
43448W        W 4759  42.432  43.005  13.500
43449W        W 4760  31.126  30.456  12.890
43450W        W 4761  32.099  33.972   2.404
43451W        W 4762  18.246   0.274   2.794
43452W        W 4763  38.474   6.891   2.860
43453W        W 4764  33.065  42.345  11.000
43454W        W 4765  44.316  15.738   5.212
43455W        W 4766  43.872  10.787  12.422
43456W        W 4767   0.339  33.517  11.082
43457W        W 4768   5.716  32.539  11.884
43458W        W 4769  11.643  37.895   3.325
43459W        W 4770   2.300  28.647   3.680
43460W        W 4771  12.357  18.766  14.903
43461W        W 4772  43.480  38.008   4.683
43462W        W 4773  41.385  31.636  10.888
43463W        W 4774  35.059   2.394  11.425
43464W        W 4775  29.561  33.402  12.019
43465W        W 4776   3.905  32.426  13.924
43466W        W 4777  12.758  41.402  11.608
43467W        W 4778  16.772  24.121  11.988
43468W        W 4779  21.664  36.065   2.666
43469W        W 4780   3.272   4.267  10.585
43470W        W 4781  31.556  10.287  12.386
43471W        W 4782  28.979  16.770  12.864
43472W        W 4783  10.873  30.026   3.855
43473W        W 4784   8.214  14.615   3.802
43474W        W 4785  27.973  25.681   4.300
43475W        W 4786  33.878  29.509   0.742
43476W        W 4787  30.428  25.144  11.533
43477W        W 4788  18.583  27.157  12.389
43478W        W 4789   5.389   8.342  13.426
43479W        W 4790   0.421   3.325   1.777
43480W        W 4791  32.449  14.317  10.416
43481W        W 4792  18.578  16.108   0.476
43482W        W 4793  43.488   6.404  13.311
43483W        W 4794  30.569  12.352  14.315
43484W        W 4795   3.777  22.637   2.668
43485W        W 4796  43.958  14.336   2.327
43486W        W 4797  30.050  31.458  14.784
43487W        W 4798  20.130  39.929   2.817
43488W        W 4799  36.443  36.894   2.189
43489W        W 4800  35.544  31.624   0.826
43490W        W 4801  11.770  22.706  10.421
43491W        W 4802  21.188  24.507  10.955
43492W        W 4803  11.816  11.317   4.274
43493W        W 4804  40.983   5.864   0.961
43494W        W 4805   4.310  27.597   1.899
43495W        W 4806   6.189  30.622   3.226
43496W        W 4807  26.026   6.394   9.995
43497W        W 4808  18.095  41.876   2.770
43498W        W 4809   4.415   7.892  11.929
43499W        W 4810  18.117  27.543   3.348
43500W        W 4811  26.665  30.477   4.123
43501W        W 4812  37.505  43.999  12.537
43502W        W 4813  27.154  34.459  12.560
43503W        W 4814  20.175  27.521   3.319
43504W        W 4815  33.523  17.790   4.233
43505W        W 4816  29.666  19.631  14.508
43506W        W 4817   6.756   4.231   0.290
43507W        W 4818  31.954  34.546   2.667
43508W        W 4819  26.522  28.660  11.017
43509W        W 4820  27.513   2.472   3.866
43510W        W 4821  36.396   7.320   0.841
43511W        W 4822  41.530   5.255  12.549
43512W        W 4823  41.348  41.870   5.194
43513W        W 4824   8.889  30.498  11.502
43514W        W 4825   0.939  10.854  13.514
43515W        W 4826   7.884  31.137  13.508
43516W        W 4827   4.789  24.993   4.788
43517W        W 4828  22.536  17.711   9.992
43518W        W 4829   4.838  28.065   4.781
43519W        W 4830  28.457  37.517  14.956
43520W        W 4831   1.818  25.687   3.322
43521W        W 4832  26.204  38.375   1.435
43522W        W 4833   4.288  27.455  13.370
43523W        W 4834   5.851  34.960  10.628
43524W        W 4835   0.476  40.426   3.682
43525W        W 4836  16.190   4.899   0.246
43526W        W 4837   3.228   9.163   4.195
43527W        W 4838   8.749  21.262   1.322
43528W        W 4839  43.859  33.507   0.454
43529W        W 4840  39.046   2.326   2.691
43530W        W 4841  11.274  17.590   1.284
43531W        W 4842  10.185  33.462  11.090
43532W        W 4843  37.954  21.560   4.188
43533W        W 4844  21.252  34.092  10.937
43534W        W 4845  22.059  25.512   2.324
43535W        W 4846  15.299   6.255   3.274
43536W        W 4847  39.408  24.584  11.972
43537W        W 4848  33.555  33.894  12.400
43538W        W 4849  34.922   0.985   4.801
43539W        W 4850   4.210   3.740  11.425
43540W        W 4851  13.255  36.908  14.922
43541W        W 4852  24.579  34.560  14.830
43542W        W 4853   0.868  43.336   1.345
43543W        W 4854  19.703  24.509  10.617
43544W        W 4855   2.341  18.675  13.447
43545W        W 4856  28.477  14.120   4.701
43546W        W 4857   2.840  42.388   2.277
43547W        W 4858  24.106  20.084  12.947
43548W        W 4859  39.408   6.744   2.180
43549W        W 4860  34.374   1.825   4.828
43550W        W 4861  44.404  33.538   2.816
43551W        W 4862  12.715   8.667   2.682
43552W        W 4863   2.369  38.379   1.403
43553W        W 4864  34.110  21.634   3.699
43554W        W 4865  19.168   9.818  13.474
43555W        W 4866  40.803  16.206  13.042
43556W        W 4867   3.331  37.058  11.026
43557W        W 4868  42.284   7.872  12.415
43558W        W 4869  42.934   6.870   1.802
43559W        W 4870  35.013  15.668   2.289
43560W        W 4871  11.649  44.790  10.943
43561W        W 4872  29.470  26.486  12.506
43562W        W 4873  19.229  26.584  14.881
43563W        W 4874  28.526  35.592   3.748
43564W        W 4875  25.160  27.065  12.833
43565W        W 4876  41.360  43.958   0.375
43566W        W 4877  14.230  15.094  13.016
43567W        W 4878  12.212   1.746   1.290
43568W        W 4879  15.182  23.149   3.200
43569W        W 4880  38.544  19.764  13.381
43570W        W 4881   2.782  28.145   4.258
43571W        W 4882  17.655  39.470   4.271
43572W        W 4883  43.876  24.491   4.778
43573W        W 4884  21.562  40.919   3.682
43574W        W 4885  30.102  16.606   3.244
43575W        W 4886  35.922  17.743  10.955
43576W        W 4887  44.952   7.206   4.296
43577W        W 4888  11.187  39.867   2.186
43578W        W 4889  40.477   8.401   1.868
43579W        W 4890  33.413  28.443  11.407
43580W        W 4891  27.985  16.622  11.084
43581W        W 4892  32.889  19.041   1.724
43582W        W 4893  44.298  12.802  14.781
43583W        W 4894   5.197  33.966   4.234
43584W        W 4895   6.293  12.350   3.637
43585W        W 4896  13.281  35.007  10.518
43586W        W 4897  42.432  41.451  11.107
43587W        W 4898  18.218  41.018   2.664
43588W        W 4899   9.670  42.877   4.754
43589W        W 4900   1.938  16.169   1.334
43590W        W 4901  22.507  24.628   0.914
43591W        W 4902  23.732  41.931  11.603
43592W        W 4903  33.528  28.446  12.536
43593W        W 4904  26.996  31.477   2.329
43594W        W 4905  43.349  35.529  10.938
43595W        W 4906  39.957   6.361   2.866
43596W        W 4907  13.761  13.732   4.294
43597W        W 4908  16.297  26.191  11.467
43598W        W 4909   9.734   4.737   4.142
43599W        W 4910  30.912   4.803   4.288
43600W        W 4911  23.615  21.200   4.816
43601W        W 4912  32.440  44.891   4.331
43602W        W 4913  32.030  24.983   3.824
43603W        W 4914   1.402  35.089  11.386
43604W        W 4915   9.316  43.480  10.528
43605W        W 4916  13.675  23.074   3.723
43606W        W 4917   0.406  13.655  12.018
43607W        W 4918  31.081  19.261   2.286
43608W        W 4919   0.431  26.989   2.826
43609W        W 4920  17.126  16.227  10.955
43610W        W 4921  37.879  25.157  14.901
43611W        W 4922  33.590  21.151  14.327
43612W        W 4923  11.843  29.616   4.790
43613W        W 4924   2.351   1.845  13.912
43614W        W 4925   6.320  12.698  10.637
43615W        W 4926  21.531  28.177   1.709
43616W        W 4927  22.661  40.467   2.663
43617W        W 4928  13.293   9.179   3.386
43618W        W 4929  22.718  25.513   2.858
43619W        W 4930  42.960   9.157  12.580
43620W        W 4931  19.596   1.743   3.315
43621W        W 4932  44.497  35.360  10.953
43622W        W 4933  23.085  17.625   0.407
43623W        W 4934  10.262  17.126   2.742
43624W        W 4935  15.638  24.621   1.930
43625W        W 4936  35.492  13.140  14.275
43626W        W 4937  15.150  14.612  13.363
43627W        W 4938  14.744  15.579   2.223
43628W        W 4939  12.701  13.296   1.902
43629W        W 4940   1.286  15.642   2.899
43630W        W 4941  25.498  29.080  11.485
43631W        W 4942  30.154   6.923   2.737
43632W        W 4943  36.047  30.951   2.204
43633W        W 4944  14.608  16.653  12.965
43634W        W 4945  20.156  14.809  12.924
43635W        W 4946  38.422   7.758  10.471
43636W        W 4947  39.933  39.479  11.898
43637W        W 4948  14.661   2.843  10.484
43638W        W 4949  10.300  13.620  13.536
43639W        W 4950  36.449  17.170  14.827
43640W        W 4951   8.405   8.375   1.328
43641W        W 4952  30.080   8.202  13.064
43642W        W 4953  21.756   4.804   1.319
43643W        W 4954  15.693  41.465  11.431
43644W        W 4955  36.874  35.545   0.411
43645W        W 4956  40.881   8.251  13.310
43646W        W 4957   1.309  30.586   4.717
43647W        W 4958   8.173  12.281  13.340
43648W        W 4959  38.973  18.569  11.581
43649W        W 4960  14.803  23.723   4.598
43650W        W 4961  31.098   1.866   2.721
43651W        W 4962  10.777  32.940   1.333
43652W        W 4963   4.313  19.748  11.113
43653W        W 4964  32.030  21.198   2.760
43654W        W 4965  18.726   8.734   0.421
43655W        W 4966  32.913  34.012  12.573
43656W        W 4967  38.468   3.835  13.837
43657W        W 4968  32.418  21.560  12.985
43658W        W 4969  21.703  44.772   3.842
43659W        W 4970  40.473  34.437  14.441
43660W        W 4971  27.668  38.996  13.854
43661W        W 4972  17.151   1.419   0.478
43662W        W 4973  36.075  20.051  14.382
43663W        W 4974   6.793   6.316   2.228
43664W        W 4975   5.721  32.969   0.752
43665W        W 4976  20.051  36.421   0.841
43666W        W 4977  39.812   5.876  14.795
43667W        W 4978   8.353  27.448   0.327
43668W        W 4979  27.533  27.957  12.406
43669W        W 4980   4.338   6.231   2.702
43670W        W 4981  40.373  17.242   2.715
43671W        W 4982   4.357  12.221  11.944
43672W        W 4983   3.753  44.784   3.808
43673W        W 4984  10.255  12.699  13.850
43674W        W 4985  16.144  16.138   3.275
43675W        W 4986  11.640   9.694  12.051
43676W        W 4987  39.359  17.125   3.227
43677W        W 4988  22.073  19.183  14.008
43678W        W 4989   1.309  29.472  14.436
43679W        W 4990  39.527  29.155   0.343
43680W        W 4991   2.744  36.056   3.321
43681W        W 4992  37.868  12.854   4.600
43682W        W 4993   1.237  25.589   3.156
43683W        W 4994  27.982  19.692   4.216
43684W        W 4995  17.167  12.201   4.166
43685W        W 4996   9.885  14.767  11.470
43686W        W 4997  22.512  39.364   3.786
43687W        W 4998   3.229  29.490  13.997
43688W        W 4999  27.595   2.932  10.961
43689W        W 5000  42.943  27.989  12.851
43690W        W 5001   7.850  33.487  10.039
43691W        W 5002  33.057  18.774   2.324
43692W        W 5003  30.990  23.685  11.052
43693W        W 5004   9.784  26.667  12.069
43694W        W 5005  32.924   7.847  12.421
43695W        W 5006  33.506  30.441   2.304
43696W        W 5007   0.932  26.089   2.322
43697W        W 5008  24.636  31.037   2.327
43698W        W 5009   0.854  30.122   2.748
43699W        W 5010  33.441  19.113   3.189
43700W        W 5011  20.647  31.957  13.894
43701W        W 5012  11.151  39.903   0.295
43702W        W 5013  15.768   7.848   1.859
43703W        W 5014  11.240   3.781   4.644
43704W        W 5015  10.235  17.127   4.139
43705W        W 5016  16.646  15.667   5.308
43706W        W 5017   2.242  25.668  10.455
43707W        W 5018  37.492   8.831  10.429
43708W        W 5019  32.134  20.651  11.056
43709W        W 5020   3.407  38.560   2.876
43710W        W 5021  19.534  34.404  13.933
43711W        W 5022  12.850  10.275  10.910
43712W        W 5023   8.309  38.392  14.781
43713W        W 5024  39.346  15.684   2.804
43714W        W 5025  13.157  42.512  10.471
43715W        W 5026  30.595  40.536  11.063
43716W        W 5027  31.553   3.902  13.841
43717W        W 5028  29.654  25.070  13.370
43718W        W 5029  39.811  40.009   4.624
43719W        W 5030   6.349  30.147  10.472
43720W        W 5031   0.783  28.953  14.890
43721W        W 5032   2.285  21.525  11.981
43722W        W 5033  10.667  15.741   4.147
43723W        W 5034  39.511  21.087  10.627
43724W        W 5035  16.706  38.949  11.032
43725W        W 5036  37.929  44.969   3.283
43726W        W 5037  22.135  24.008  13.021
43727W        W 5038  33.450  30.464  12.885
43728W        W 5039  30.584  41.454   2.200
43729W        W 5040  42.399   3.419   3.252
43730W        W 5041  34.076  15.182   3.822
43731W        W 5042  19.277  39.324  14.965
43732W        W 5043   7.782  34.549  11.901
43733W        W 5044  26.517  39.508  14.975
43734W        W 5045   3.777  42.018   4.775
43735W        W 5046  18.145   6.410   4.202
43736W        W 5047  34.506   3.383   5.173
43737W        W 5048   8.885  26.546   4.676
43738W        W 5049  40.376  43.926   3.631
43739W        W 5050  40.897  24.686  11.554
43740W        W 5051  30.075  19.199   3.233
43741W        W 5052  13.674  23.019   1.909
43742W        W 5053  31.516  32.460   3.716
43743W        W 5054  29.443  33.876  14.960
43744W        W 5055   3.279  34.393  13.913
43745W        W 5056   0.943  15.663  10.078
43746W        W 5057  34.517   0.981  10.941
43747W        W 5058  40.378  13.121  13.435
43748W        W 5059   6.301  10.249   0.940
43749W        W 5060   0.835  37.354   0.421
43750W        W 5061  12.673  15.774   1.822
43751W        W 5062  19.074  23.011   4.280
43752W        W 5063   1.322  21.613  12.506
43753W        W 5064  39.333   7.759  13.050
43754W        W 5065  11.328  27.122  14.781
43755W        W 5066   2.957  44.796  11.104
43756W        W 5067   7.721  10.334   9.974
43757W        W 5068  25.624  22.707   0.279
43758W        W 5069  33.502  26.513   0.443
43759W        W 5070  21.133  40.977  11.926
43760W        W 5071   3.366  12.174   3.154
43761W        W 5072  34.903   0.362  10.511
43762W        W 5073   2.464  29.998   4.647
43763W        W 5074  17.675  33.488  11.544
43764W        W 5075  34.974  15.602   4.213
43765W        W 5076  43.918  20.167  13.995
43766W        W 5077   6.228   0.757   3.295
43767W        W 5078  36.950  18.068  12.378
43768W        W 5079  11.136  19.131   1.715
43769W        W 5080  34.485  11.742  12.554
43770W        W 5081   5.363  41.328  12.040
43771W        W 5082  22.134  10.253   3.227
43772W        W 5083  44.289  20.224   4.670
43773W        W 5084  23.220  38.387  14.410
43774W        W 5085  13.138  34.555   2.802
43775W        W 5086  44.979  19.535   0.847
43776W        W 5087   2.852  33.387   4.251
43777W        W 5088   4.297   6.717  12.838
43778W        W 5089  10.685  13.351   1.241
43779W        W 5090  27.012  35.994  14.393
43780W        W 5091  41.829  39.050   3.766
43781W        W 5092  37.931  19.619   0.386
43782W        W 5093  22.641  41.919   0.871
43783W        W 5094  20.758  25.675  11.940
43784W        W 5095  33.397  11.861   4.828
43785W        W 5096   4.441  13.259   0.809
43786W        W 5097  44.824  32.901   4.670
43787W        W 5098  29.659  39.961   1.365
43788W        W 5099  25.151  13.205   1.738
43789W        W 5100  38.850  24.208  12.061
43790W        W 5101  11.359  31.116  14.015
43791W        W 5102  38.882  37.496  12.845
43792W        W 5103  28.460  42.963  10.904
43793W        W 5104  40.484  37.082  10.445
43794W        W 5105  35.108  10.368  10.901
43795W        W 5106  25.696  41.965   2.822
43796W        W 5107  34.019  37.973   0.906
43797W        W 5108  40.516  17.190   4.162
43798W        W 5109  15.817  35.443   3.382
43799W        W 5110  31.430  13.735   2.695
43800W        W 5111  32.478  44.997   3.147
43801W        W 5112  16.287  18.244   1.727
43802W        W 5113  13.301   6.776   5.138
43803W        W 5114  31.898  20.589   9.921
43804W        W 5115  26.091   2.797  14.797
43805W        W 5116   5.861   7.752   0.366
43806W        W 5117  22.597  40.334   1.851
43807W        W 5118  39.973  27.965   1.265
43808W        W 5119   9.803  19.126   4.739
43809W        W 5120  39.809  25.528  10.957
43810W        W 5121  43.965  11.789  12.073
43811W        W 5122  26.522  22.234  14.275
43812W        W 5123  31.463  44.345  11.870
43813W        W 5124  25.099  14.696  10.643
43814W        W 5125  37.354  11.677  11.024
43815W        W 5126  44.967  16.605  12.878
43816W        W 5127  37.875  19.553   3.770
43817W        W 5128  39.974  32.946  14.879
43818W        W 5129  23.143  38.975  10.956
43819W        W 5130   9.288   8.274   1.739
43820W        W 5131  26.079  25.606   3.870
43821W        W 5132   7.901  44.958  12.503
43822W        W 5133  23.540  28.585  12.894
43823W        W 5134   0.385  24.676  14.982
43824W        W 5135  13.106  35.926   3.765
43825W        W 5136  24.212  21.542   3.326
43826W        W 5137  44.326  12.265   0.729
43827W        W 5138  29.950  42.893  14.510
43828W        W 5139  33.480  37.558   0.741
43829W        W 5140  40.006  19.039  12.926
43830W        W 5141  26.592  25.041  11.503
43831W        W 5142  10.836  33.109   4.756
43832W        W 5143  20.081   9.737   4.622
43833W        W 5144  44.381  34.041   4.663
43834W        W 5145  23.712   4.852   4.310
43835W        W 5146   9.339   7.695   1.405
43836W        W 5147  14.157  12.696   0.429
43837W        W 5148   6.919  43.017  11.101
43838W        W 5149   0.449  13.749   1.240
43839W        W 5150  21.108  13.614  14.472
43840W        W 5151  38.837   9.176  14.003
43841W        W 5152   6.756   7.870  14.467
43842W        W 5153   1.411  32.450  14.935
43843W        W 5154  35.862   7.884  10.609
43844W        W 5155   2.965  22.559   1.428
43845W        W 5156   7.774  29.482  12.491
43846W        W 5157  39.350  32.056   4.649
43847W        W 5158   3.770  39.390  10.471
43848W        W 5159  20.530  31.053   4.765
43849W        W 5160   2.294  42.475   4.352
43850W        W 5161  15.089   3.876   1.921
43851W        W 5162  17.598  43.848  14.855
43852W        W 5163  37.883  16.081  14.479
43853W        W 5164   1.773  17.251   4.183
43854W        W 5165   0.264  14.748  13.956
43855W        W 5166  16.696  13.809  13.392
43856W        W 5167  36.064  32.073  12.968
43857W        W 5168  31.564   1.926  12.091
43858W        W 5169  34.047  15.766  13.012
43859W        W 5170   2.308  44.806  12.880
43860W        W 5171  20.211  22.698   4.635
43861W        W 5172  25.199   8.849   3.839
43862W        W 5173  40.938   4.870  10.954
43863W        W 5174  15.242  40.517   1.787
43864W        W 5175   0.446  30.919  14.466
43865W        W 5176  18.585   2.427   2.900
43866W        W 5177   8.769  44.888   1.434
43867W        W 5178   6.710  15.168   2.385
43868W        W 5179  36.462  23.719  12.963
43869W        W 5180   7.838  43.903   1.908
43870W        W 5181  27.648  41.855  13.309
43871W        W 5182  18.219  38.004   9.630
43872W        W 5183  24.136   2.335  10.939
43873W        W 5184  13.176  25.078  10.471
43874W        W 5185  37.366  20.670  10.579
43875W        W 5186  33.037  44.280   1.215
43876W        W 5187  41.371  15.223   2.291
43877W        W 5188   1.760  36.914   0.366
43878W        W 5189  28.648  10.826   4.672
43879W        W 5190  32.098  10.758  14.005
43880W        W 5191   8.809  40.045  12.032
43881W        W 5192  34.513  19.242   4.211
43882W        W 5193   0.872  20.741   4.169
43883W        W 5194  18.091   3.461  10.548
43884W        W 5195   7.282  21.209  14.895
43885W        W 5196   7.805   0.354  10.048
43886W        W 5197  29.017  34.601   3.169
43887W        W 5198   5.207   4.218  11.072
43888W        W 5199  28.650  25.666  13.987
43889W        W 5200  13.824  34.615   0.905
43890W        W 5201  35.465  33.053   0.271
43891W        W 5202  40.882   7.805   4.737
43892W        W 5203   2.794  28.472   3.696
43893W        W 5204  44.941  17.272  14.860
43894W        W 5205   7.235  34.900  14.004
43895W        W 5206  24.977   6.401   2.737
43896W        W 5207  29.601  40.043   2.845
43897W        W 5208  41.884  27.521  10.581
43898W        W 5209   0.969  38.823  11.014
43899W        W 5210  40.529  32.143  11.598
43900W        W 5211  17.686  33.536   2.300
43901W        W 5212   6.299  25.485  12.932
43902W        W 5213  41.963  13.212   3.356
43903W        W 5214  40.857  11.312   3.368
43904W        W 5215  29.516   8.330  10.594
43905W        W 5216   3.244   1.880  11.124
43906W        W 5217   1.948  36.386  10.623
43907W        W 5218  17.638  35.510  14.891
43908W        W 5219  12.776   4.822  13.828
43909W        W 5220  31.047  25.501   0.304
43910W        W 5221  16.596  39.984  11.041
43911W        W 5222  33.451  36.558  13.474
43912W        W 5223  15.681  21.627   1.891
43913W        W 5224  27.004  31.139   4.810
43914W        W 5225  11.842  41.924  11.552
43915W        W 5226  11.853  35.430   2.746
43916W        W 5227  16.202   7.683   2.849
43917W        W 5228  15.613   7.241   2.837
43918W        W 5229   7.387  27.946   2.217
43919W        W 5230  16.772  43.882   1.287
43920W        W 5231  40.524  29.106  11.396
43921W        W 5232  29.670   1.282   1.384
43922W        W 5233  18.204  18.573  12.030
43923W        W 5234  38.358   5.773  10.484
43924W        W 5235  32.107   1.288  14.020
43925W        W 5236  20.212  18.199   2.252
43926W        W 5237  24.597  21.256   1.883
43927W        W 5238  31.120  28.099  11.118
43928W        W 5239  40.950   4.859   3.837
43929W        W 5240  29.048  14.152  13.331
43930W        W 5241   3.362  17.746  13.372
43931W        W 5242  39.531   6.236   2.844
43932W        W 5243  44.450  43.335  10.645
43933W        W 5244  28.989  33.481   4.255
43934W        W 5245  20.711   7.285  13.924
43935W        W 5246  11.677  39.861  12.862
43936W        W 5247  36.897  14.172  12.436
43937W        W 5248   4.714  11.727   5.269
43938W        W 5249   4.225   4.214  11.406
43939W        W 5250   7.777  22.096   3.303
43940W        W 5251  31.900   3.732  12.543
43941W        W 5252  43.467  10.817  10.526
43942W        W 5253  10.698   8.171   4.171
43943W        W 5254  41.472   8.886  14.472
43944W        W 5255  22.586  36.471   1.890
43945W        W 5256  31.466   1.863  12.516
43946W        W 5257  34.875  18.101  12.026
43947W        W 5258  27.673  34.408  11.485
43948W        W 5259  37.009  17.298  10.484
43949W        W 5260  10.843  20.128   3.838
43950W        W 5261   6.378  40.431   4.602
43951W        W 5262   1.952  10.156   3.244
43952W        W 5263  40.803  16.787  12.367
43953W        W 5264  12.686   2.454  14.913
43954W        W 5265   7.328  24.128  11.020
43955W        W 5266  33.485  16.616  13.317
43956W        W 5267   2.234  31.937   4.115
43957W        W 5268  32.407  26.014   0.846
43958W        W 5269  15.606  37.348   2.690
43959W        W 5270  36.553  28.640  12.438
43960W        W 5271  44.961  12.621   0.822
43961W        W 5272  36.582  44.440  13.016
43962W        W 5273  30.929  38.515   3.779
43963W        W 5274   4.777  24.201   3.294
43964W        W 5275   9.223  17.103   0.739
43965W        W 5276  12.670  16.087  12.997
43966W        W 5277  20.733  33.461  12.466
43967W        W 5278  43.487  20.651  12.927
43968W        W 5279  15.273  43.931   3.310
43969W        W 5280  38.878  26.463  10.149
43970W        W 5281  21.100  43.806  11.075
43971W        W 5282  22.221  20.602   1.725
43972W        W 5283  18.614   1.455   2.243
43973W        W 5284  34.107   8.771  13.001
43974W        W 5285  24.190  16.706  14.466
43975W        W 5286  15.201  23.078  12.454
43976W        W 5287   7.725  42.848  10.156
43977W        W 5288   3.793  11.179   1.708
43978W        W 5289  43.503  23.524   4.207
43979W        W 5290  18.236  26.549  14.776
43980W        W 5291  35.081   5.863  13.347
43981W        W 5292  12.234  11.770   4.780
43982W        W 5293  26.651   4.341   3.367
43983W        W 5294  13.140  20.661  12.484
43984W        W 5295  20.738  18.076   3.219
43985W        W 5296  19.592  41.889  10.992
43986W        W 5297   1.823  27.689  10.620
43987W        W 5298  10.355  31.482   0.472
43988W        W 5299  28.539  16.204   1.340
43989W        W 5300  25.092  29.042  12.858
43990W        W 5301  29.066  27.169   3.365
43991W        W 5302  38.486  28.067   0.389
43992W        W 5303  41.987  30.538   5.137
43993W        W 5304  15.242  31.574   2.771
43994W        W 5305  29.444  28.055   1.410
43995W        W 5306  36.470  10.324  14.023
43996W        W 5307  44.854  44.326   0.481
43997W        W 5308  16.722  21.042   2.322
43998W        W 5309  13.744   6.415  14.333
43999W        W 5310  13.151  19.721   0.319
44000W        W 5311   0.492  32.420   3.166
44001W        W 5312  29.518  27.689  13.414
44002W        W 5313  11.250   1.896   0.468
44003W        W 5314   8.216  39.815  12.517
44004W        W 5315  42.856  37.499  13.475
44005W        W 5316  17.786  30.082  10.977
44006W        W 5317  20.601  27.175  14.016
44007W        W 5318  12.691   9.264   2.668
44008W        W 5319  14.769  24.105   3.713
44009W        W 5320  17.279  21.071  10.566
44010W        W 5321  29.009  13.605  14.950
44011W        W 5322  26.025  14.697  14.901
44012W        W 5323  32.460   8.263  13.458
44013W        W 5324  35.498  38.537  10.417
44014W        W 5325   6.380  38.436  14.991
44015W        W 5326   8.725   9.325   1.784
44016W        W 5327  29.499  16.639  11.076
44017W        W 5328  32.909   5.298  14.897
44018W        W 5329  44.283  12.118   4.823
44019W        W 5330   9.290  35.987   4.348
44020W        W 5331  38.436  17.674   4.148
44021W        W 5332  19.744  11.836   4.731
44022W        W 5333  12.781  39.357   1.806
44023W        W 5334  26.672  34.962  13.429
44024W        W 5335  40.961  24.509   3.351
44025W        W 5336  40.035  25.586   1.341
44026W        W 5337   2.903  25.200  14.836
44027W        W 5338  33.498   2.464   3.791
44028W        W 5339   7.831  19.588   4.118
44029W        W 5340  43.296  44.365  14.890
44030W        W 5341  43.344  13.804  11.050
44031W        W 5342  32.975  19.130   2.755
44032W        W 5343   6.770   0.888  14.990
44033W        W 5344  35.412  28.617   3.741
44034W        W 5345  12.833   7.370  13.009
44035W        W 5346  41.944   8.387  12.459
44036W        W 5347  35.392   0.295   2.809
44037W        W 5348  12.248   7.269   0.862
44038W        W 5349   7.291  11.847  13.896
44039W        W 5350  35.485  42.359   1.857
44040W        W 5351   1.744  26.654   0.328
44041W        W 5352  17.555   8.334   2.242
44042W        W 5353  40.960  34.429  14.867
44043W        W 5354  29.974  26.090   2.868
44044W        W 5355  33.584  11.805   5.284
44045W        W 5356  26.133  41.520   1.895
44046W        W 5357  31.503  42.304  13.013
44047W        W 5358  23.219  42.422  13.328
44048W        W 5359   3.794  28.091  11.603
44049W        W 5360  29.003   1.290  10.634
44050W        W 5361   7.177  14.833  10.585
44051W        W 5362  17.693  31.468  12.052
44052W        W 5363   5.927  44.307  13.984
44053W        W 5364  27.613  20.630  10.496
44054W        W 5365  16.798  28.991   0.787
44055W        W 5366  28.096  33.538  11.900
44056W        W 5367  44.312   5.855   2.745
44057W        W 5368  30.914  28.056  14.813
44058W        W 5369  22.127  39.046   1.276
44059W        W 5370  43.879   0.443   0.247
44060W        W 5371  22.083  33.522  11.085
44061W        W 5372  22.148  25.217   4.631
44062W        W 5373  26.509   9.316  11.557
44063W        W 5374   3.816  35.098   2.396
44064W        W 5375  24.036  12.714   0.934
44065W        W 5376  33.011  30.532  14.406
44066W        W 5377   5.243  41.893   3.686
44067W        W 5378  18.768  19.232  12.853
44068W        W 5379  32.512   6.208   3.380
44069W        W 5380  43.831  15.108   0.395
44070W        W 5381  17.720  14.729  12.477
44071W        W 5382  43.833  12.610  13.061
44072W        W 5383  29.976  33.398  10.625
44073W        W 5384  41.428  42.877   0.954
44074W        W 5385  28.184  44.391  11.432
44075W        W 5386  16.620  41.866   3.224
44076W        W 5387  21.236  41.497   2.234
44077W        W 5388  27.513  43.780   3.215
44078W        W 5389  22.046   9.267  10.999
44079W        W 5390  33.975   0.810   2.843
44080W        W 5391   7.809  36.528   4.675
44081W        W 5392  31.115  23.618  13.423
44082W        W 5393  15.139  11.166  12.893
44083W        W 5394  20.526  35.368  14.427
44084W        W 5395  16.566  27.153  13.444
44085W        W 5396  18.700  41.342   1.841
44086W        W 5397   7.743  29.586   0.779
44087W        W 5398   1.426  19.050  11.403
44088W        W 5399  36.530  35.950   5.212
44089W        W 5400  38.943   9.692  12.479
44090W        W 5401  30.432  16.748  13.465
44091W        W 5402  44.458  22.037  11.006
44092W        W 5403  18.551  21.218   0.739
44093W        W 5404  28.586  31.131  14.961
44094W        W 5405  14.748  25.616   5.267
44095W        W 5406  25.663  35.431  11.083
44096W        W 5407  42.777   1.249  11.070
44097W        W 5408  15.668  40.304   4.148
44098W        W 5409  22.058  26.561   3.733
44099W        W 5410  43.420  25.557   4.179
44100W        W 5411  36.087   2.253   1.753
44101W        W 5412   6.193  14.216   4.760
44102W        W 5413   5.292  25.189  14.903
44103W        W 5414  15.676   0.775  14.274
44104W        W 5415  31.647  12.309  11.898
44105W        W 5416  14.714  27.965   2.199
44106W        W 5417  22.578  31.103   1.312
44107W        W 5418  17.069  38.884   1.791
44108W        W 5419  27.189  43.507  11.013
44109W        W 5420  42.515   4.240  12.053
44110W        W 5421  29.070  10.257  13.516
44111W        W 5422  41.514  13.241  10.487
44112W        W 5423  31.611  11.165  14.316
44113W        W 5424  19.125   1.743  11.129
44114W        W 5425  23.575   6.905  14.847
44115W        W 5426  19.721  33.979  11.872
44116W        W 5427  39.333  21.094   3.695
44117W        W 5428  24.504  27.146  14.888
44118W        W 5429   9.811  44.264  12.920
44119W        W 5430  19.635  43.392   4.271
44120W        W 5431  37.956  18.115  14.386
44121W        W 5432   3.946  22.558  10.092
44122W        W 5433  21.226  24.090  11.519
44123W        W 5434  42.465  37.931   1.312
44124W        W 5435  29.978  10.799   4.792
44125W        W 5436  18.235   4.852  13.044
44126W        W 5437  15.654   4.272  13.407
44127W        W 5438  17.687  29.087  11.992
44128W        W 5439  10.162  35.554   1.810
44129W        W 5440   6.813   8.690  10.890
44130W        W 5441  39.967  27.498   0.957
44131W        W 5442  38.438  13.279  14.990
44132W        W 5443  34.543  32.045  12.864
44133W        W 5444   2.319   4.377  11.880
44134W        W 5445  26.951  22.205  14.428
44135W        W 5446  40.012   7.412   4.345
44136W        W 5447  15.758  22.601   4.748
44137W        W 5448  16.617  16.248   2.251
44138W        W 5449   6.298  42.895  14.887
44139W        W 5450  12.831  39.879  14.377
44140W        W 5451  39.883  41.038   3.223
44141W        W 5452  15.599  41.407   3.376
44142W        W 5453  26.154   9.703  13.812
44143W        W 5454  38.365  43.356  10.484
44144W        W 5455  24.187  13.793  12.830
44145W        W 5456  31.450   8.654   0.408
44146W        W 5457  39.387   9.859  11.463
44147W        W 5458   1.394  42.333  13.966
44148W        W 5459  40.356   9.259  13.505
44149W        W 5460  42.980  15.660  11.425
44150W        W 5461  41.371  42.028   3.192
44151W        W 5462   4.753  22.625  14.490
44152W        W 5463  41.378  18.183   1.211
44153W        W 5464  42.518  18.113   4.749
44154W        W 5465  30.627  10.365  11.088
44155W        W 5466  20.552  23.639  13.016
44156W        W 5467  39.860  36.406   3.362
44157W        W 5468  23.502   7.720   2.859
44158W        W 5469  25.124   9.809  14.923
44159W        W 5470  13.823   9.651  13.507
44160W        W 5471  29.558  38.036  12.562
44161W        W 5472   6.277  21.735  10.634
44162W        W 5473  33.914   4.374  12.894
44163W        W 5474  21.593  13.143  13.339
44164W        W 5475   8.311  28.069  11.409
44165W        W 5476  30.611   0.855  11.951
44166W        W 5477  14.318  31.006   2.720
44167W        W 5478  29.955  40.834  11.432
44168W        W 5479  27.529  32.112   0.966
44169W        W 5480  11.355   2.945   1.336
44170W        W 5481  28.558  23.155   2.862
44171W        W 5482  28.640  39.992   2.895
44172W        W 5483  15.228  19.239  13.521
44173W        W 5484  36.398  29.053   5.146
44174W        W 5485   5.732  30.504  13.490
44175W        W 5486  21.684  23.496   4.119
44176W        W 5487  13.846  30.996   1.222
44177W        W 5488  33.457  44.361   4.746
44178W        W 5489  11.163  35.924  12.918
44179W        W 5490  39.871  40.497   2.843
44180W        W 5491   6.187   1.405  11.941
44181W        W 5492   0.458   9.328  14.894
44182W        W 5493  40.809  25.131   0.436
44183W        W 5494  40.877  38.934  10.893
44184W        W 5495  27.105   1.897  12.914
44185W        W 5496   9.748  37.438   1.246
44186W        W 5497  40.006  16.798  13.015
44187W        W 5498  41.354   2.879  12.046
44188W        W 5499   2.788  16.651   3.747
44189W        W 5500  40.365  28.610  10.426
44190W        W 5501  33.390   1.920   2.386
44191W        W 5502  44.828  44.371  12.550
44192W        W 5503  21.039  36.448   3.765
44193W        W 5504  20.073  34.493   2.310
44194W        W 5505  42.868  28.949  13.857
44195W        W 5506  31.633  11.234  13.329
44196W        W 5507  31.553  29.980   4.607
44197W        W 5508  39.473  13.846   0.284
44198W        W 5509  26.180   9.890  12.839
44199W        W 5510   8.163  44.904  10.903
44200W        W 5511  43.329  16.691   2.180
44201W        W 5512   1.243  41.466  12.880
44202W        W 5513   8.369  13.738   4.291
44203W        W 5514   3.929   3.266   3.754
44204W        W 5515  29.431   2.929   0.774
44205W        W 5516   6.733  22.709  12.359
44206W        W 5517   9.242  22.531  10.100
44207W        W 5518  42.933  40.011  12.017
44208W        W 5519  42.297   2.343   4.354
44209W        W 5520  29.566  24.223  10.638
44210W        W 5521  26.207   3.840   1.787
44211W        W 5522  22.548  40.458  12.413
44212W        W 5523  26.668  41.786   0.753
44213W        W 5524  26.030  32.598   0.347
44214W        W 5525  22.130  43.799   3.846
44215W        W 5526  28.479  14.733  10.915
44216W        W 5527  43.325   7.776   4.166
44217W        W 5528  42.964  32.899   4.631
44218W        W 5529  16.289  34.928  14.294
44219W        W 5530  21.720  22.135  13.855
44220W        W 5531  36.094   7.747  14.028
44221W        W 5532  27.167  12.743   4.705
44222W        W 5533  32.929  24.013   2.797
44223W        W 5534  20.604  31.424   2.283
44224W        W 5535  14.651  37.943   0.456
44225W        W 5536   0.804  30.932  11.539
44226W        W 5537   8.765   6.898  11.451
44227W        W 5538  41.388  16.282  13.010
44228W        W 5539   8.846  21.212   3.647
44229W        W 5540  38.434  32.620   0.456
44230W        W 5541  20.260  40.965  12.065
44231W        W 5542  31.924  13.254   2.893
44232W        W 5543  44.374  30.973   4.188
44233W        W 5544  15.704  20.725  12.865
44234W        W 5545  11.722  24.113  14.966
44235W        W 5546  11.343  42.010  11.478
44236W        W 5547  39.916  19.730   3.837
44237W        W 5548  37.900  42.347   1.890
44238W        W 5549  26.980  41.945  11.971
44239W        W 5550  28.074  21.064  13.024
44240W        W 5551  13.289  37.528  12.360
44241W        W 5552  20.671   8.244  11.963
44242W        W 5553  41.508   7.893   0.419
44243W        W 5554  28.595  43.814   3.252
44244W        W 5555  21.033  44.388   3.381
44245W        W 5556  13.247  32.885  11.496
44246W        W 5557  31.966   9.821  12.019
44247W        W 5558   4.856  38.505  11.030
44248W        W 5559  35.508  21.033   3.690
44249W        W 5560   4.842  30.070  12.020
44250W        W 5561  22.587  40.518  11.563
44251W        W 5562  42.797   9.331   0.302
44252W        W 5563  38.927  20.269   2.386
44253W        W 5564   8.201  39.390  12.890
44254W        W 5565  40.924  26.043  13.832
44255W        W 5566  11.163  41.027  14.874
44256W        W 5567   8.239   8.878  11.379
44257W        W 5568   8.745  28.993   1.821
44258W        W 5569  24.199  36.563  12.944
44259W        W 5570  32.098  36.883  13.339
44260W        W 5571  38.428   3.933   0.294
44261W        W 5572  22.528   4.404   1.771
44262W        W 5573  40.362  12.707   2.278
44263W        W 5574  21.080  21.689   3.234
44264W        W 5575  42.843   4.319  12.366
44265W        W 5576  22.560   0.481   0.891
44266W        W 5577   3.769   6.390  10.894
44267W        W 5578  13.284  35.991  10.929
44268W        W 5579  30.910   5.298   5.138
44269W        W 5580  24.678  15.103   1.877
44270W        W 5581  25.627  31.636  14.842
44271W        W 5582   4.355   3.806   4.634
44272W        W 5583  11.186  12.728  13.423
44273W        W 5584   8.289   7.186   4.767
44274W        W 5585   1.910   8.402   1.412
44275W        W 5586  12.619  33.544   1.344
44276W        W 5587  32.493  20.143  13.915
44277W        W 5588  44.764   2.393   2.388
44278W        W 5589  33.967   8.894  14.339
44279W        W 5590   7.408  29.139  13.898
44280W        W 5591   6.353  21.255  13.340
44281W        W 5592   4.877  17.288   0.760
44282W        W 5593   2.952  30.098  12.028
44283W        W 5594  39.431   7.197   0.809
44284W        W 5595  35.390  33.884   0.848
44285W        W 5596  26.106  26.628   0.888
44286W        W 5597  12.724   5.421   2.834
44287W        W 5598  18.105  37.448  14.410
44288W        W 5599   3.857  42.384   3.812
44289W        W 5600   0.815   2.766   3.691
44290W        W 5601  35.891  37.436   1.393
44291W        W 5602  34.050   7.215  11.002
44292W        W 5603   2.419  28.125   4.163
44293W        W 5604  36.085   5.843   1.833
44294W        W 5605  22.213  30.040  13.533
44295W        W 5606  15.256   3.736  12.853
44296W        W 5607  33.480   4.713   5.141
44297W        W 5608   3.793  36.379  13.064
44298W        W 5609  19.535  18.188   3.365
44299W        W 5610  16.681  43.425  10.527
44300W        W 5611  35.509   8.882   1.750
44301W        W 5612  36.999  15.746   4.115
44302W        W 5613  28.139  40.524  13.833
44303W        W 5614  44.994  27.620  11.884
44304W        W 5615  19.067  28.979   4.672
44305W        W 5616   6.310  28.592  11.371
44306W        W 5617  23.197  44.400  11.974
44307W        W 5618  16.306  32.017   2.694
44308W        W 5619   2.884  38.868  13.957
44309W        W 5620  10.163  26.034  14.351
44310W        W 5621  20.573  15.321   3.287
44311W        W 5622   1.313  20.234  13.402
44312W        W 5623  37.845   2.811   2.835
44313W        W 5624  24.626  43.342   1.832
44314W        W 5625  36.947  38.547   4.209
44315W        W 5626  17.761  28.549  12.939
44316W        W 5627  12.810  13.125   0.287
44317W        W 5628  19.726   3.924  11.501
44318W        W 5629  23.047  23.044   3.866
44319W        W 5630  22.584  14.804   4.125
44320W        W 5631  28.461  32.924  13.462
44321W        W 5632  13.228  20.698  12.890
44322W        W 5633   9.375  29.009   4.635
44323W        W 5634   4.211  36.515  10.614
44324W        W 5635  21.581  18.647  13.391
44325W        W 5636   4.381   1.459   3.635
44326W        W 5637  33.548  22.654   4.622
44327W        W 5638  24.122  24.494   1.893
44328W        W 5639  30.510  25.166  12.040
44329W        W 5640   7.256  34.371  11.576
44330W        W 5641   0.251  11.270  11.401
44331W        W 5642   4.443   2.819  10.503
44332W        W 5643  13.676  12.687   2.398
44333W        W 5644  39.969  40.816   4.319
44334W        W 5645  29.666   8.222   4.238
44335W        W 5646  41.342  33.586   0.777
44336W        W 5647  37.033  13.712   1.314
44337W        W 5648  21.757  37.537  14.783
44338W        W 5649  39.983  40.364   9.944
44339W        W 5650   1.404  12.167   1.816
44340W        W 5651  18.766  10.373  12.361
44341W        W 5652  15.266  39.865  11.939
44342W        W 5653  20.766   4.724  14.977
44343W        W 5654   2.887  27.169  14.879
44344W        W 5655  19.194  41.907  11.560
44345W        W 5656   4.404  42.353   4.784
44346W        W 5657  12.217  39.983  14.421
44347W        W 5658  36.057  17.298   0.857
44348W        W 5659  23.080  18.675   1.332
44349W        W 5660  39.372   7.770   1.415
44350W        W 5661  39.516  24.024  12.000
44351W        W 5662  30.052  17.689  12.362
44352W        W 5663  13.771  32.990  11.446
44353W        W 5664  37.843  11.131   1.792
44354W        W 5665  44.305  35.507   1.234
44355W        W 5666   9.387  40.318  10.448
44356W        W 5667  34.383  29.078  10.413
44357W        W 5668  27.629  15.174  12.517
44358W        W 5669  24.007   8.697   4.140
44359W        W 5670  21.647  23.014  14.904
44360W        W 5671   8.246   0.937  14.297
44361W        W 5672  16.624  42.779   2.876
44362W        W 5673  40.475   2.242   4.228
44363W        W 5674  30.967   4.436   3.248
44364W        W 5675  15.820   5.239   0.819
44365W        W 5676  37.457  26.584   0.335
44366W        W 5677  40.994   1.285   4.254
44367W        W 5678  23.548  32.105  10.034
44368W        W 5679  13.148   0.810   3.785
44369W        W 5680  30.489  41.947  10.905
44370W        W 5681  25.215  37.972   1.384
44371W        W 5682  16.140  34.893   1.385
44372W        W 5683  30.969   3.799  10.105
44373W        W 5684  23.039  20.134  10.089
44374W        W 5685  32.115   8.292   1.269
44375W        W 5686  41.428   0.806  12.438
44376W        W 5687  12.831  13.212   0.866
44377W        W 5688   8.738  15.257   4.228
44378W        W 5689  36.534  24.488  12.523
44379W        W 5690  17.642  35.458  11.605
44380W        W 5691   3.892  38.971  12.548
44381W        W 5692   9.382   2.226  12.982
44382W        W 5693  12.691  35.964  13.348
44383W        W 5694  40.903  14.222  10.597
44384W        W 5695  39.902  28.951   1.385
44385W        W 5696  38.328  26.020  14.029
44386W        W 5697   5.828  35.455  13.441
44387W        W 5698   5.370   3.347   3.240
44388W        W 5699  19.670  26.036  10.593
44389W        W 5700  38.997  25.004   0.956
44390W        W 5701   2.443  21.531  13.496
44391W        W 5702  25.557  33.914   4.167
44392W        W 5703  40.843  24.520  10.595
44393W        W 5704  34.609  32.561  13.961
44394W        W 5705   1.348  16.210   2.402
44395W        W 5706   6.223  21.605   3.679
44396W        W 5707  35.458  15.728  13.796
44397W        W 5708  10.633  39.856   4.144
44398W        W 5709  26.640  31.473  13.393
44399W        W 5710   8.360  26.649   2.677
44400W        W 5711  29.959  28.138  11.610
44401W        W 5712  32.013  10.726   1.863
44402W        W 5713  26.093   6.908  10.911
44403W        W 5714  23.670  16.267  13.885
44404W        W 5715  39.902  41.979   0.432
44405W        W 5716  34.991  33.623   4.775
44406W        W 5717  20.554   9.286  10.591
44407W        W 5718  14.821  30.132   2.763
44408W        W 5719  32.951  37.990  14.445
44409W        W 5720  26.656  35.934  11.907
44410W        W 5721  24.716  29.022   1.241
44411W        W 5722  40.002  35.921   4.650
44412W        W 5723   1.271  22.057   4.236
44413W        W 5724  18.588  42.858   1.372
44414W        W 5725  24.605  36.421   2.339
44415W        W 5726  28.932  30.114  14.297
44416W        W 5727   1.430  23.556  11.971
44417W        W 5728  32.628  40.003   4.698
44418W        W 5729   6.857  11.661  13.908
44419W        W 5730   8.346  22.576  10.510
44420W        W 5731  42.921  28.057  11.877
44421W        W 5732  21.149  21.729  12.443
44422W        W 5733  34.970  19.164  10.903
44423W        W 5734  35.954  23.212  10.906
44424W        W 5735  37.483  26.206   1.274
44425W        W 5736   6.776  33.465   4.221
44426W        W 5737  13.787  44.388  14.944
44427W        W 5738  32.935  28.454  13.495
44428W        W 5739  39.480  43.839   2.195
44429W        W 5740  34.964  18.068   4.720
44430W        W 5741   7.772  32.606   0.821
44431W        W 5742  31.011  22.615  13.510
44432W        W 5743  18.259   2.331  10.049
44433W        W 5744  43.018  23.596   0.319
44434W        W 5745  27.657  21.216   2.796
44435W        W 5746  21.662  21.731   0.851
44436W        W 5747  18.266   9.262  14.498
44437W        W 5748  23.726  15.821  11.577
44438W        W 5749  13.674  23.219  11.091
44439W        W 5750  16.757  36.353  13.387
44440W        W 5751   7.702  44.502  13.498
44441W        W 5752  40.988  17.754  14.309
44442W        W 5753  19.088   7.172   4.646
44443W        W 5754   4.923  11.758  14.285
44444W        W 5755  38.440   5.735  14.981
44445W        W 5756  41.963  30.430  14.907
44446W        W 5757  28.117  43.820  10.485
44447W        W 5758  17.234   0.845   5.103
44448W        W 5759  34.104  30.626   4.337
44449W        W 5760  28.576  25.533  11.453
44450W        W 5761  42.426  14.748  12.484
44451W        W 5762  32.127  31.464  11.088
44452W        W 5763   9.207  21.057  12.530
44453W        W 5764  29.052   1.818  10.516
44454W        W 5765  29.583  32.118  11.892
44455W        W 5766  30.161  41.010   4.651
44456W        W 5767   0.817  40.312   4.799
44457W        W 5768   4.320  28.947   4.807
44458W        W 5769  30.464  31.975  14.360
44459W        W 5770  10.791  20.180   2.903
44460W        W 5771  39.521  13.720   2.847
44461W        W 5772  43.938   1.469   2.724
44462W        W 5773  15.267  36.053  12.934
44463W        W 5774  22.202   5.731   3.181
44464W        W 5775  40.963  37.573  12.902
44465W        W 5776   4.846  25.558   2.814
44466W        W 5777   8.759  13.697   0.473
44467W        W 5778  35.569  35.601   1.894
44468W        W 5779   0.809  25.597  14.448
44469W        W 5780   1.881   7.858  12.018
44470W        W 5781  26.106  22.505  13.980
44471W        W 5782  24.998  20.074   9.939
44472W        W 5783   3.820  14.241   2.725
44473W        W 5784  22.626   2.938  13.939
44474W        W 5785  32.396  13.650   1.893
44475W        W 5786   6.257   7.689   0.325
44476W        W 5787  43.315  23.170   4.813
44477W        W 5788  19.118  13.618   0.286
44478W        W 5789  22.008  14.644   3.350
44479W        W 5790   8.881   3.936   0.380
44480W        W 5791  40.332  31.989   0.310
44481W        W 5792   9.824  29.026  14.494
44482W        W 5793  19.140  27.106  13.911
44483W        W 5794  20.669  14.163   2.229
44484W        W 5795  10.214  38.820   0.407
44485W        W 5796  40.998  19.717   4.140
44486W        W 5797   8.693  11.766  14.869
44487W        W 5798  41.340   4.784   3.757
44488W        W 5799  22.638  13.217  11.960
44489W        W 5800  33.945  17.612   3.221
44490W        W 5801  17.742  29.424   4.350
44491W        W 5802  19.067  25.045  10.637
44492W        W 5803  15.589  36.843  14.411
44493W        W 5804   0.911   3.881   2.239
44494W        W 5805  37.057  10.721  14.359
44495W        W 5806  21.034  13.639  12.922
44496W        W 5807  28.680  39.930   0.916
44497W        W 5808  29.598   5.860   1.723
44498W        W 5809   3.415  35.463   4.185
44499W        W 5810  42.379  26.997  12.414
44500W        W 5811  31.505   2.345   2.724
44501W        W 5812   6.251  11.867   1.902
44502W        W 5813  25.031  19.238   0.901
44503W        W 5814  38.334  15.286  12.841
44504W        W 5815  42.913  41.420   4.837
44505W        W 5816   1.334  38.899   2.306
44506W        W 5817  42.329  30.115   3.713
44507W        W 5818  30.057  26.542   0.758
44508W        W 5819   5.777  21.697   1.221
44509W        W 5820  37.454   7.873  12.837
44510W        W 5821  24.650  40.326   1.423
44511W        W 5822  28.030  28.990  10.129
44512W        W 5823  19.768  15.270  14.994
44513W        W 5824  15.278  18.066  11.403
44514W        W 5825  12.289  42.350  12.065
44515W        W 5826  22.508  13.790   2.192
44516W        W 5827  30.627  12.236  14.992
44517W        W 5828  44.432  15.288   0.280
44518W        W 5829  40.891  44.442  12.501
44519W        W 5830  31.126   4.442  10.595
44520W        W 5831  12.237  34.059  11.874
44521W        W 5832  19.717  30.538   4.686
44522W        W 5833  31.956  18.105  14.016
44523W        W 5834  41.350  31.491  12.855
44524W        W 5835  31.091   3.824  14.921
44525W        W 5836  24.212   2.341  11.965
44526W        W 5837  34.909  30.625  13.404
44527W        W 5838   5.355  24.707   4.720
44528W        W 5839  41.321  32.071   3.292
44529W        W 5840  38.419  42.445  14.347
44530W        W 5841  24.157  18.573   0.750
44531W        W 5842  29.435  22.208  13.466
44532W        W 5843  24.549  40.999  14.353
44533W        W 5844   4.443  31.134   0.307
44534W        W 5845  22.088  39.412  11.591
44535W        W 5846  28.120  23.150  14.351
44536W        W 5847  44.430   6.279   2.814
44537W        W 5848  29.508  38.404  11.095
44538W        W 5849  15.248  32.435   0.309
44539W        W 5850  12.632   0.287   1.822
44540W        W 5851  29.100  31.485   1.443
44541W        W 5852  35.528   8.281  14.451
44542W        W 5853  32.099  12.814  11.069
44543W        W 5854  24.141  43.391  13.822
44544W        W 5855   2.256   3.834   2.666
44545W        W 5856  14.646  42.501  12.360
44546W        W 5857  32.407  13.804  10.908
44547W        W 5858   2.811   5.247  14.383
44548W        W 5859  23.544   0.862   2.271
44549W        W 5860   8.824   6.370   4.168
44550W        W 5861  16.228  36.095   0.247
44551W        W 5862  13.772  19.769   0.814
44552W        W 5863  28.657  33.925   0.885
44553W        W 5864  37.461  28.929  12.078
44554W        W 5865   3.800  20.539  13.510
44555W        W 5866   6.802  24.074   4.178
44556W        W 5867  30.089  44.434   1.270
44557W        W 5868  17.267  35.470   3.190
44558W        W 5869   0.330  29.666  14.003
44559W        W 5870  24.601  18.636   1.791
44560W        W 5871  20.028  26.966  13.505
44561W        W 5872   1.456  30.162  14.030
44562W        W 5873  17.655  11.643   1.323
44563W        W 5874  12.652  11.301   3.199
44564W        W 5875   9.741  18.064  14.959
44565W        W 5876  28.488  42.852   1.755
44566W        W 5877  17.715   9.350  12.461
44567W        W 5878   4.416   0.494   2.325
44568W        W 5879  36.560  19.172  11.395
44569W        W 5880   1.346   2.850  11.084
44570W        W 5881  19.118  38.050   1.424
44571W        W 5882  17.714   0.434   1.785
44572W        W 5883  21.530  26.528   1.385
44573W        W 5884  41.494  36.407  14.790
44574W        W 5885  33.496  35.058   0.821
44575W        W 5886  38.073  20.149   2.874
44576W        W 5887  22.701  42.345   5.298
44577W        W 5888  34.470  37.874   4.705
44578W        W 5889   1.438  13.181  10.606
44579W        W 5890   9.384  34.490   4.236
44580W        W 5891   4.940  13.309   5.201
44581W        W 5892  19.701   3.247   9.943
44582W        W 5893  28.594  25.590   0.344
44583W        W 5894  20.673  34.571  12.968
44584W        W 5895  39.398  17.764  14.926
44585W        W 5896   3.445  28.522  10.536
44586W        W 5897   8.351  15.182  14.780
44587W        W 5898  20.526  42.983   0.427
44588W        W 5899  32.561  21.567  14.917
44589W        W 5900  18.114  36.054   3.241
44590W        W 5901   8.888  33.071   2.198
44591W        W 5902  41.044  20.159  14.413
44592W        W 5903  15.102  37.923  13.842
44593W        W 5904  27.655  11.823  10.974
44594W        W 5905   3.377  36.910   1.753
44595W        W 5906  37.558  41.335  10.434
44596W        W 5907  42.948  24.699  11.007
44597W        W 5908  37.947  30.929  10.895
44598W        W 5909  35.436  34.909  13.942
44599W        W 5910  24.989  27.632   2.205
44600W        W 5911  40.978  12.717  10.604
44601W        W 5912  37.942  16.186   2.381
44602W        W 5913  12.827  11.143  11.605
44603W        W 5914  18.092  16.666  13.902
44604W        W 5915  30.606  18.672   1.851
44605W        W 5916  34.487  10.376   2.360
44606W        W 5917   8.865  10.835   0.379
44607W        W 5918  37.014  32.994  12.929
44608W        W 5919  38.994  38.042  14.441
44609W        W 5920  14.686  27.503  12.943
44610W        W 5921  29.128  28.121   0.766
44611W        W 5922  11.816  34.456  12.991
44612W        W 5923  36.083  33.058  13.505
44613W        W 5924  13.747  10.185  11.407
44614W        W 5925   4.363  43.499  13.368
44615W        W 5926  44.822   5.907   1.404
44616W        W 5927  40.974  42.863  14.318
44617W        W 5928  23.732  13.198   1.337
44618W        W 5929  10.323  35.512  12.869
44619W        W 5930  20.627  15.112   3.813
44620W        W 5931   1.931  18.260   3.286
44621W        W 5932   5.812  41.951  13.833
44622W        W 5933   1.416   5.343   3.769
44623W        W 5934   9.355  11.278  12.894
44624W        W 5935  10.210  28.670   2.353
44625W        W 5936  42.895   2.748   0.280
44626W        W 5937  22.726  19.228  13.401
44627W        W 5938  37.362  38.975  12.412
44628W        W 5939  42.788  10.680  14.356
44629W        W 5940   1.339  29.094   1.857
44630W        W 5941  19.629  11.637   2.239
44631W        W 5942  22.193  42.961   1.749
44632W        W 5943  13.212   0.853   0.312
44633W        W 5944  25.022  27.008  13.868
44634W        W 5945  22.248  44.844  14.793
44635W        W 5946  27.157  10.673   0.733
44636W        W 5947  24.678  39.519  10.899
44637W        W 5948  33.969  39.891  10.636
44638W        W 5949  29.528   4.433   1.747
44639W        W 5950  27.978  42.471  10.945
44640W        W 5951  41.989  22.653  13.959
44641W        W 5952   6.322  32.043   0.947
44642W        W 5953  22.215  26.177  10.605
44643W        W 5954  39.826   6.339  14.859
44644W        W 5955  23.600   6.884  13.346
44645W        W 5956  33.409   6.759   0.422
44646W        W 5957  36.416   9.674   3.750
44647W        W 5958  13.841   5.220  11.946
44648W        W 5959   2.235  16.782  14.924
44649W        W 5960  39.406  32.591  14.953
44650W        W 5961  35.533  25.591   3.367
44651W        W 5962  27.062  35.082   3.781
44652W        W 5963  19.534  25.108  14.833
44653W        W 5964  25.614  25.108   4.241
44654W        W 5965  30.512  22.145   0.825
44655W        W 5966  41.868  44.320   1.305
44656W        W 5967  16.657  17.223   1.865
44657W        W 5968  37.935  42.468  14.863
44658W        W 5969  22.100  32.529   2.374
44659W        W 5970  24.647  24.074  10.481
44660W        W 5971  19.193  18.740   1.714
44661W        W 5972  14.725  10.328  13.028
44662W        W 5973  39.544  21.056  12.469
44663W        W 5974  28.121  36.084  12.459
44664W        W 5975  33.574  10.868   1.343
44665W        W 5976  43.512  36.446  14.476
44666W        W 5977  38.887   9.296   1.249
44667W        W 5978  36.088  21.211  13.967
44668W        W 5979  26.523  28.982   5.150
44669W        W 5980  44.915   4.794   4.677
44670W        W 5981  44.887  24.998   1.278
44671W        W 5982  43.902   4.719   1.701
44672W        W 5983  21.651   6.690  10.502
44673W        W 5984  19.185  19.745   1.797
44674W        W 5985  24.204  17.799  12.866
44675W        W 5986  37.943  38.845   2.886
44676W        W 5987  31.056  28.122   0.929
44677W        W 5988  32.041  40.310  14.306
44678W        W 5989  38.393   2.901  10.447
44679W        W 5990  35.958  40.806   4.703
44680W        W 5991  31.139  11.292  13.831
44681W        W 5992  19.538  38.922  12.969
44682W        W 5993   5.199  36.489   0.402
44683W        W 5994  38.328  33.901   0.888
44684W        W 5995   5.413  20.264   3.330
44685W        W 5996  26.182   6.311   4.170
44686W        W 5997  16.644  35.863   4.795
44687W        W 5998   5.912  41.938   4.654
44688W        W 5999  24.134  10.345  11.990
44689W        W 6000  32.629  31.981   0.464
44690W        W 6001  32.460  38.881  12.940
44691W        W 6002  33.970   1.848  12.973
44692W        W 6003   1.920  17.066  13.037
44693W        W 6004  16.698  39.503  13.983
44694W        W 6005  13.637  22.655  10.560
44695W        W 6006  39.329   7.399  14.845
44696W        W 6007  21.149  10.284   4.726
44697W        W 6008   7.886  33.614  10.942
44698W        W 6009  23.657   2.915   0.768
44699W        W 6010  29.962  36.931  13.499
44700W        W 6011  27.197  38.924  10.109
44701W        W 6012  16.119  29.130  10.910
44702W        W 6013  14.700   9.326   1.272
44703W        W 6014  21.528   8.692   1.322
44704W        W 6015  13.128   0.860  12.580
44705W        W 6016  43.827   9.357   3.385
44706W        W 6017  18.106  22.530  11.975
44707W        W 6018  16.737   2.296   0.759
44708W        W 6019  27.940  32.496  12.035
44709W        W 6020  12.790  22.587  13.362
44710W        W 6021  36.373  17.307   0.352
44711W        W 6022  32.895  29.558   3.333
44712W        W 6023  24.211  42.468  12.408
44713W        W 6024  26.069  29.065   2.697
44714W        W 6025   1.336  18.603   1.303
44715W        W 6026   9.698  39.426  14.869
44716W        W 6027  15.622  22.572   1.236
44717W        W 6028   3.907  27.511   1.822
44718W        W 6029  32.573   2.758   4.190
44719W        W 6030   1.377  21.214   1.720
44720W        W 6031  28.638  10.813   2.212
44721W        W 6032  17.264  44.395   4.631
44722W        W 6033  37.981  17.724   2.315
44723W        W 6034  18.274  18.681  12.514
44724W        W 6035  24.228  14.703  13.966
44725W        W 6036  11.722  30.605   0.852
44726W        W 6037   1.775  12.250  12.045
44727W        W 6038  42.506  12.778   1.926
44728W        W 6039  23.186   8.336   3.356
44729W        W 6040  29.080  35.418  14.407
44730W        W 6041   8.296  23.056  11.027
44731W        W 6042  32.919  10.784   2.665
44732W        W 6043  38.379  32.914   0.405
44733W        W 6044   4.390  35.569   3.169
44734W        W 6045  26.681  41.335  11.517
44735W        W 6046  35.091   8.350  14.368
44736W        W 6047  24.045  38.961  11.070
44737W        W 6048   6.227   3.876   1.722
44738W        W 6049  23.149   8.165  13.991
44739W        W 6050  35.940  30.536   3.350
44740W        W 6051   2.853  27.560   4.691
44741W        W 6052   4.821  21.722  13.968
44742W        W 6053  17.181  35.539   2.836
44743W        W 6054  13.607  37.950  11.559
44744W        W 6055  42.505  30.999  13.796
44745W        W 6056  30.966  11.727   9.996
44746W        W 6057  19.776   5.709   3.210
44747W        W 6058  11.209  33.054   3.300
44748W        W 6059  43.400  44.479  11.964
44749W        W 6060  12.189  31.461  13.436
44750W        W 6061  40.542  38.961   2.347
44751W        W 6062  17.210   7.201   0.794
44752W        W 6063   8.267  31.477   1.451
44753W        W 6064  33.921  16.758  11.945
44754W        W 6065  21.237  38.867  14.960
44755W        W 6066  24.674   7.215   4.696
44756W        W 6067  23.039   5.786   4.342
44757W        W 6068  34.913  11.291   0.385
44758W        W 6069  25.126  35.080   4.724
44759W        W 6070   9.166  24.494   3.231
44760W        W 6071  15.123  33.485   3.640
44761W        W 6072   1.433  32.931  14.801
44762W        W 6073  41.385  17.213  12.072
44763W        W 6074  11.648  27.170   2.731
44764W        W 6075  11.326  35.405   4.693
44765W        W 6076  32.025  44.864  12.378
44766W        W 6077  22.723  44.821  14.461
44767W        W 6078  29.479   1.457   4.122
44768W        W 6079   1.797   3.730   1.718
44769W        W 6080  26.587  38.880   4.646
44770W        W 6081  19.243  43.383   1.313
44771W        W 6082  27.557  34.917   0.366
44772W        W 6083   6.187  18.177  14.795
44773W        W 6084  37.361  26.200  10.442
44774W        W 6085  14.630  32.491  10.621
44775W        W 6086  15.660  24.483   2.236
44776W        W 6087  30.089  35.546  10.585
44777W        W 6088  32.488  41.896   0.856
44778W        W 6089  37.027  32.481  12.003
44779W        W 6090  35.569   8.818   1.447
44780W        W 6091  28.167  12.168   4.307
44781W        W 6092  37.860  41.338  10.927
44782W        W 6093  39.897  18.202   1.812
44783W        W 6094  39.967   8.243  11.940
44784W        W 6095  25.694  15.806  10.129
44785W        W 6096  43.277  38.479  13.535
44786W        W 6097  25.529  17.784   4.678
44787W        W 6098   5.748  25.515   1.223
44788W        W 6099  13.784  42.963   1.748
44789W        W 6100   5.427   5.199  14.937
44790W        W 6101  40.497   0.432   0.348
44791W        W 6102  24.616   4.878   2.678
44792W        W 6103  20.216  27.473  11.511
44793W        W 6104  23.518  30.509   2.341
44794W        W 6105  25.045  43.392  10.580
44795W        W 6106   7.746  28.611   4.190
44796W        W 6107  42.784  23.697   3.850
44797W        W 6108  20.547  21.224   1.315
44798W        W 6109  34.886  31.621  11.404
44799W        W 6110  34.537  31.510   2.895
44800W        W 6111  31.126  12.857  13.911
44801W        W 6112  31.956  32.436  10.633
44802W        W 6113  23.511  42.788   0.366
44803W        W 6114  34.108  40.834   4.672
44804W        W 6115  43.929  18.681  11.375
44805W        W 6116  42.384   7.899  14.761
44806W        W 6117   1.443  36.871   4.199
44807W        W 6118  17.775   6.253   9.994
44808W        W 6119   5.839  17.612   1.299
44809W        W 6120   3.441  29.964   0.427
44810W        W 6121   9.713  34.903   3.862
44811W        W 6122  11.265   1.868   0.750
44812W        W 6123   6.206   4.701   3.656
44813W        W 6124  22.563  16.140   0.966
44814W        W 6125  25.630  22.047   2.404
44815W        W 6126  17.577  37.515   3.257
44816W        W 6127   6.681   9.806   1.810
44817W        W 6128   4.835  38.842  11.900
44818W        W 6129  28.486  11.742   0.439
44819W        W 6130   1.342  33.131   2.772
44820W        W 6131  19.130  14.271   3.202
44821W        W 6132  17.087  37.476   0.923
44822W        W 6133  38.561   8.171   3.230
44823W        W 6134  25.213  30.036   0.287
44824W        W 6135  18.708  18.695  12.020
44825W        W 6136   8.203  22.617  12.920
44826W        W 6137  14.332   5.301  11.029
44827W        W 6138   1.415  26.011  13.837
44828W        W 6139  29.941  34.905  13.793
44829W        W 6140  22.746  15.320   0.767
44830W        W 6141  14.656  32.551  10.980
44831W        W 6142  15.157  31.941   2.713
44832W        W 6143  22.712  27.162   3.324
44833W        W 6144  21.556  43.890  11.000
44834W        W 6145  38.940  24.147  11.009
44835W        W 6146   2.432  18.650   1.214
44836W        W 6147  32.139   1.324   1.448
44837W        W 6148  14.699   3.829  12.466
44838W        W 6149  32.596  11.742   0.304
44839W        W 6150   3.408  13.194  10.597
44840W        W 6151   2.834  44.899   1.771
44841W        W 6152  15.225  35.039  10.424
44842W        W 6153  43.344  10.749  12.830
44843W        W 6154  25.138   9.285  13.872
44844W        W 6155  36.074  30.484  13.906
44845W        W 6156  38.974  21.104   1.792
44846W        W 6157   6.294  39.408   3.238
44847W        W 6158   5.306  43.480   3.345
44848W        W 6159  38.016  30.061  12.390
44849W        W 6160   8.730  35.990   4.124
44850W        W 6161  39.899  24.689  14.460
44851W        W 6162  20.270   4.847   9.921
44852W        W 6163  11.156   8.766   0.736
44853W        W 6164  24.005  10.271  10.995
44854W        W 6165  21.531  27.122   4.619
44855W        W 6166  29.503  27.953   9.924
44856W        W 6167  36.953  23.158   0.730
44857W        W 6168  26.681  33.042   3.377
44858W        W 6169  15.653   9.323  10.435
44859W        W 6170  34.391  22.035   0.772
44860W        W 6171  12.191  41.902   1.323
44861W        W 6172  27.142  33.901  11.100
44862W        W 6173  26.980  29.580   4.252
44863W        W 6174  10.358  13.817  14.922
44864W        W 6175  41.901  26.013   0.856
44865W        W 6176  19.602   1.258   4.801
44866W        W 6177  31.534  10.184   3.769
44867W        W 6178   7.390  43.345  11.892
44868W        W 6179  28.118   2.941  14.499
44869W        W 6180  26.633  26.546   5.264
44870W        W 6181  32.487  32.930   3.164
44871W        W 6182  31.134  39.931  14.024
44872W        W 6183   1.399  18.784  11.979
44873W        W 6184  10.736   8.199   1.244
44874W        W 6185  30.941  14.193  14.013
44875W        W 6186  10.737  27.975  13.822
44876W        W 6187  35.391  12.344  14.313
44877W        W 6188   7.813  16.255   1.246
44878W        W 6189  15.746  22.169   0.260
44879W        W 6190  24.074  34.108   1.321
44880W        W 6191  13.272  43.484  12.093
44881W        W 6192   0.845  27.052  13.824
44882W        W 6193  27.524  17.615   2.372
44883W        W 6194   3.240  22.658  14.977
44884W        W 6195  30.144  15.211   3.768
44885W        W 6196   4.758  28.941   2.288
44886W        W 6197  44.920  10.184   4.317
44887W        W 6198  34.955  20.162   4.335
44888W        W 6199  43.813  33.417   3.164
44889W        W 6200  31.993   9.721  10.437
44890W        W 6201  11.325  31.082  11.472
44891W        W 6202  40.840  32.023  12.940
44892W        W 6203  30.925  19.275   1.909
44893W        W 6204  23.076  17.569  12.838
44894W        W 6205  14.699  36.382   2.729
44895W        W 6206   8.283   1.890  12.093
44896W        W 6207  23.020   0.328   2.737
44897W        W 6208   1.751  20.527   3.712
44898W        W 6209  40.940  17.118   4.331
44899W        W 6210  33.891  43.992   2.815
44900W        W 6211   2.370   3.936  12.031
44901W        W 6212  10.776  24.565  14.404
44902W        W 6213  34.402  28.649   3.864
44903W        W 6214   5.301  13.826  11.943
44904W        W 6215  20.125  34.973  11.075
44905W        W 6216  28.120   6.245  14.877
44906W        W 6217  44.806   7.242  13.877
44907W        W 6218  34.913  25.092  12.997
44908W        W 6219  41.312  14.113   4.661
44909W        W 6220  29.972  13.788   0.282
44910W        W 6221   9.848  24.987   4.642
44911W        W 6222  41.812  33.416  14.791
44912W        W 6223   4.790  27.560   2.381
44913W        W 6224  10.210   1.917   0.346
44914W        W 6225  18.274  39.318  10.519
44915W        W 6226  27.686   5.375  13.538
44916W        W 6227  18.210   3.755  13.064
44917W        W 6228  10.863  16.137   4.624
44918W        W 6229  26.602  34.573  12.070
44919W        W 6230   6.824  38.395  12.528
44920W        W 6231   3.338  38.038   0.926
44921W        W 6232  14.250  13.334  11.997
44922W        W 6233  35.405  36.360  10.599
44923W        W 6234  44.489  43.861   3.250
44924W        W 6235  21.176  36.085  13.050
44925W        W 6236  33.073   7.878   3.274
44926W        W 6237  29.635  21.692   1.735
44927W        W 6238  17.117  37.432  10.939
44928W        W 6239   2.357  34.024   2.321
44929W        W 6240  40.807  24.542  11.935
44930W        W 6241   6.845  18.699  14.815
44931W        W 6242  39.555  31.117  12.095
44932W        W 6243  13.135  22.212  12.364
44933W        W 6244   5.714  31.527   2.734
44934W        W 6245  17.260  42.977  10.498
44935W        W 6246  40.453  37.897   0.904
44936W        W 6247  36.957  29.022  10.986
44937W        W 6248  18.224  30.038  10.414
44938W        W 6249  16.286  18.625   0.434
44939W        W 6250  36.971   5.718   2.863
44940W        W 6251  13.325  30.076   1.428
44941W        W 6252  15.813  32.432  10.589
44942W        W 6253  26.573  32.979   3.793
44943W        W 6254  22.080  37.923  13.365
44944W        W 6255  30.531  23.662   4.771
44945W        W 6256  24.650  24.117   4.686
44946W        W 6257   8.393  24.561  11.071
44947W        W 6258  38.514  28.449   1.929
44948W        W 6259  38.371  34.374   2.867
44949W        W 6260   5.347  19.261   2.756
44950W        W 6261  16.085  34.071  13.871
44951W        W 6262  17.653  10.746   4.694
44952W        W 6263  18.190  32.536  10.919
44953W        W 6264  38.855   6.363   2.259
44954W        W 6265  29.110  12.135  11.576
44955W        W 6266  22.104  11.152   2.673
44956W        W 6267  41.856  20.273   1.331
44957W        W 6268  42.483  44.384   3.740
44958W        W 6269   6.723  43.929  11.517
44959W        W 6270  19.179   5.926   1.229
44960W        W 6271  41.496  13.638  13.431
44961W        W 6272  28.479  33.967  13.863
44962W        W 6273  25.049  18.712   0.762
44963W        W 6274  37.501  14.811  12.901
44964W        W 6275   6.815  35.543  11.502
44965W        W 6276   3.763  17.667   2.234
44966W        W 6277  31.946   0.461  10.941
44967W        W 6278   5.792  14.255  12.563
44968W        W 6279  10.306  17.668  10.637
44969W        W 6280  21.515  37.447  13.825
44970W        W 6281  20.232  43.435  14.421
44971W        W 6282  20.632  13.113  11.558
44972W        W 6283  44.324  25.074  13.931
44973W        W 6284  44.492  25.498  10.439
44974W        W 6285  42.445  25.547  10.586
44975W        W 6286  10.701  19.142   0.813
44976W        W 6287  10.237  10.200  13.541
44977W        W 6288  39.941   2.388  14.932
44978W        W 6289   8.302  34.009  11.908
44979W        W 6290  25.166  26.069  12.052
44980W        W 6291  17.659  39.967   1.876
44981W        W 6292  43.482  41.435   1.703
44982W        W 6293  26.554  24.056  11.875
44983W        W 6294   5.768   7.688  10.956
44984W        W 6295  34.436  40.936  14.961
44985W        W 6296  41.329   3.916   1.445
44986W        W 6297  15.672  17.132  12.034
44987W        W 6298  35.583  18.245  11.973
44988W        W 6299  10.229  25.634   3.212
44989W        W 6300  25.133  17.109  14.383
44990W        W 6301  13.326  40.870  11.956
44991W        W 6302  15.779   2.749  11.012
44992W        W 6303  38.435  33.937  10.508
44993W        W 6304   6.428   7.174  13.984
44994W        W 6305   2.732   6.827   4.329
44995W        W 6306  17.593  32.525  14.294
44996W        W 6307   3.417  34.499   1.408
44997W        W 6308  39.321  10.346  14.810
44998W        W 6309  23.089   5.918  12.908
44999W        W 6310  10.231  33.080  10.627
45000W        W 6311  44.851  30.033   4.334
45001W        W 6312  27.076  34.470   0.409
45002W        W 6313  22.708  34.604  12.465
45003W        W 6314  20.257  27.990   3.300
45004W        W 6315  33.412  21.523  11.104
45005W        W 6316  31.119  18.693  14.305
45006W        W 6317  27.007  29.006   0.368
45007W        W 6318  19.639  20.255  12.449
45008W        W 6319  21.052  31.141   2.275
45009W        W 6320   3.218  34.504  14.886
45010W        W 6321  13.250  11.649   4.759
45011W        W 6322  24.104  30.596   2.751
45012W        W 6323  34.416   2.450   3.751
45013W        W 6324   8.856  22.112  12.980
45014W        W 6325   1.921  43.923  10.530
45015W        W 6326  26.609  19.182   2.845
45016W        W 6327  33.592  40.420  13.904
45017W        W 6328  13.237  16.191  11.527
45018W        W 6329  18.791  11.130  10.629
45019W        W 6330  33.535  17.774  13.986
45020W        W 6331  10.704  20.255   1.307
45021W        W 6332  14.107  15.122  10.012
45022W        W 6333  27.957  27.543   3.776
45023W        W 6334   3.810   8.251   3.781
45024W        W 6335  39.523   6.919   0.915
45025W        W 6336   1.363  26.659  12.402
45026W        W 6337  18.695  10.759  10.493
45027W        W 6338  28.168  32.440  12.890
45028W        W 6339  19.057  13.609  13.863
45029W        W 6340  20.722  18.169   4.288
45030W        W 6341  39.868   1.291   1.418
45031W        W 6342  28.442  39.991  11.943
45032W        W 6343  18.266   0.452   1.317
45033W        W 6344  23.012  19.742   2.820
45034W        W 6345   5.881  34.029   4.327
45035W        W 6346  25.142   2.376  12.377
45036W        W 6347  32.138   9.830   3.309
45037W        W 6348  39.918  32.458  12.951
45038W        W 6349  11.257  13.833  14.398
45039W        W 6350  19.663  19.251  12.496
45040W        W 6351  31.609  15.759   5.167
45041W        W 6352  29.958  11.839   2.399
45042W        W 6353   8.709  20.595   2.380
45043W        W 6354   4.712  11.669  13.809
45044W        W 6355   0.824  14.248  11.985
45045W        W 6356  10.258   1.780   4.623
45046W        W 6357   7.894  15.293   2.792
45047W        W 6358  24.080  23.105   0.418
45048W        W 6359  22.646  23.610  13.407
45049W        W 6360  23.599  22.669   2.770
45050W        W 6361   8.267  36.516   0.752
45051W        W 6362  14.774   6.297   2.891
45052W        W 6363  28.093  12.160   3.348
45053W        W 6364  22.715  24.624  14.796
45054W        W 6365  38.913  24.040   2.845
45055W        W 6366  35.009   0.979  14.353
45056W        W 6367  15.102  39.337   1.774
45057W        W 6368  19.093  42.888  12.539
45058W        W 6369  31.905  28.993   0.846
45059W        W 6370  28.481  39.435  13.009
45060W        W 6371  23.639  36.955   1.429
45061W        W 6372   1.789  39.516   2.727
45062W        W 6373  42.030   9.864  13.018
45063W        W 6374  15.218  34.588   0.420
45064W        W 6375  11.300  24.056   4.814
45065W        W 6376  18.791  42.899  14.030
45066W        W 6377  30.953  44.308  13.987
45067W        W 6378   6.308  15.724  13.873
45068W        W 6379  36.924  12.623   2.736
45069W        W 6380  41.893   0.770   2.679
45070W        W 6381  24.119  29.961  14.868
45071W        W 6382   4.737  27.094  12.906
45072W        W 6383  27.617  39.549   3.778
45073W        W 6384  27.562   1.902  11.069
45074W        W 6385  13.179  43.326   1.897
45075W        W 6386  28.461  27.013  13.795
45076W        W 6387  13.183  23.153  11.069
45077W        W 6388  41.914  10.798  13.947
45078W        W 6389  33.005  21.072   3.816
45079W        W 6390  39.983  28.109  12.542
45080W        W 6391  32.428   6.873  12.918
45081W        W 6392   1.421  12.356  13.472
45082W        W 6393  23.204  25.158   3.177
45083W        W 6394   2.234  34.024  10.607
45084W        W 6395  20.080  14.818  12.038
45085W        W 6396  28.959  21.214   0.367
45086W        W 6397  12.356   7.873   1.296
45087W        W 6398  37.572  35.602   1.817
45088W        W 6399  38.902  39.034   1.389
45089W        W 6400  39.512  20.271  14.328
45090W        W 6401  39.009  30.122   3.841
45091W        W 6402  10.229  30.081   2.180
45092W        W 6403  31.149  12.272  13.412
45093W        W 6404  38.369  13.232  10.993
45094W        W 6405  31.446  19.140  14.785
45095W        W 6406   7.376  29.070  13.528
45096W        W 6407  11.229  26.620   2.690
45097W        W 6408  21.259  24.662  11.423
45098W        W 6409  23.619  20.543   0.957
45099W        W 6410  31.451  35.962  14.019
45100W        W 6411   7.719   9.859  13.354
45101W        W 6412  38.353  39.524  12.920
45102W        W 6413  15.123  41.495  11.598
45103W        W 6414   5.247   7.313   5.305
45104W        W 6415  38.881  19.151  12.023
45105W        W 6416  27.092  38.007  12.512
45106W        W 6417  31.104   2.371  13.981
45107W        W 6418  41.944  21.626  10.439
45108W        W 6419  42.850   4.379   3.757
45109W        W 6420   4.841  20.264  10.895
45110W        W 6421   1.344  13.746  12.823
45111W        W 6422  35.882  39.439  13.006
45112W        W 6423  31.465  24.105  13.338
45113W        W 6424   5.364  10.176   0.416
45114W        W 6425   6.838  39.350  12.988
45115W        W 6426   2.733   7.840  10.612
45116W        W 6427  40.485  17.291  11.040
45117W        W 6428  25.992  17.720   4.776
45118W        W 6429  24.032  22.675  10.055
45119W        W 6430   8.180   9.393  11.089
45120W        W 6431  39.047  17.272   3.267
45121W        W 6432  35.452   8.783   0.469
45122W        W 6433  18.055  44.846   0.298
45123W        W 6434  23.658  31.940  13.524
45124W        W 6435  30.488   7.833  14.806
45125W        W 6436  36.063  28.139   5.094
45126W        W 6437  24.655  21.191  12.966
45127W        W 6438  20.628  44.421   3.646
45128W        W 6439   1.444   6.698  10.549
45129W        W 6440  27.983   2.931   2.679
45130W        W 6441  36.859   4.761  14.011
45131W        W 6442  27.060  29.518   2.241
45132W        W 6443  35.358  20.724  12.063
45133W        W 6444  36.066  40.900   1.742
45134W        W 6445  14.213   2.850   3.831
45135W        W 6446   3.851  18.280   1.356
45136W        W 6447  36.038   4.316  11.957
45137W        W 6448   2.271  39.985   3.691
45138W        W 6449   5.789  22.103   4.289
45139W        W 6450  40.458   0.952   2.892
45140W        W 6451  17.111   1.470  13.994
45141W        W 6452  39.825  34.489  12.951
45142W        W 6453  27.480  35.943   4.678
45143W        W 6454  11.152  25.036  14.464
45144W        W 6455  18.139  11.158  14.491
45145W        W 6456  23.586   8.324   0.816
45146W        W 6457   7.702  23.545   4.683
45147W        W 6458  34.953   2.341   4.728
45148W        W 6459  34.582  40.904  11.573
45149W        W 6460  40.548  18.763   3.701
45150W        W 6461   6.356  41.001  12.435
45151W        W 6462  36.477  33.029  10.890
45152W        W 6463  11.234  26.559  14.009
45153W        W 6464  12.257  40.814  14.335
45154W        W 6465  22.646   5.853  10.050
45155W        W 6466   7.904  44.984   3.254
45156W        W 6467  36.541  13.817   2.823
45157W        W 6468  21.248  26.195   1.383
45158W        W 6469  43.326  14.301  10.962
45159W        W 6470  13.693  23.711  12.002
45160W        W 6471  20.607  34.497  13.984
45161W        W 6472  34.374   1.350   3.696
45162W        W 6473  18.152  15.607   5.593
45163W        W 6474  22.726   2.353  11.090
45164W        W 6475  32.452  19.780   5.174
45165W        W 6476   0.343  27.977   3.189
45166W        W 6477  39.953  15.097  12.516
45167W        W 6478  36.511  19.569  13.001
45168W        W 6479  11.193  25.515   0.389
45169W        W 6480  21.153   8.242   0.855
45170W        W 6481  20.262  35.860  11.891
45171W        W 6482  26.463   4.359   9.960
45172W        W 6483  31.467  29.117  14.794
45173W        W 6484  37.014  22.505   3.692
45174W        W 6485  24.581  22.616   3.160
45175W        W 6486  29.526  19.079  14.914
45176W        W 6487  19.631  23.617   4.715
45177W        W 6488   5.251   1.402   3.736
45178W        W 6489  18.130  22.019   2.673
45179W        W 6490  12.128  14.634   3.342
45180W        W 6491  37.879  36.939  13.439
45181W        W 6492  28.609  22.062   1.229
45182W        W 6493  40.905  32.085   1.905
45183W        W 6494   0.778  19.646   1.219
45184W        W 6495  19.096  44.267   4.681
45185W        W 6496  18.177  44.464   3.790
45186W        W 6497  23.210  35.481   0.959
45187W        W 6498  18.580  32.948  10.415
45188W        W 6499  21.104  24.489  13.523
45189W        W 6500   3.849   4.809  14.312
45190W        W 6501   0.249  28.015   2.278
45191W        W 6502  26.652  16.073  10.566
45192W        W 6503  35.461  36.850   4.731
45193W        W 6504  40.893  12.818   1.279
45194W        W 6505  29.667   2.297  13.793
45195W        W 6506   6.804  32.122  14.912
45196W        W 6507  28.499  30.650  12.043
45197W        W 6508  34.035   0.971   3.839
45198W        W 6509  37.569  39.839   0.876
45199W        W 6510   3.838   0.921  14.957
45200W        W 6511  33.511  36.399  11.081
45201W        W 6512  27.100  16.200   2.680
45202W        W 6513  13.325   0.486  13.313
45203W        W 6514  24.617  39.044   4.779
45204W        W 6515  29.980  16.294  12.025
45205W        W 6516  42.473   3.897   0.945
45206W        W 6517  32.086  31.098  11.114
45207W        W 6518  29.945  41.817   1.914
45208W        W 6519  10.268  23.648   4.788
45209W        W 6520   5.894  30.509   1.353
45210W        W 6521   7.776  10.870   4.823
45211W        W 6522  34.908  39.346   5.084
45212W        W 6523  25.209  44.803   2.327
45213W        W 6524  17.714  14.738   4.806
45214W        W 6525  25.190  17.184   3.186
45215W        W 6526  21.579  36.854   4.300
45216W        W 6527  10.855   2.458   1.841
45217W        W 6528  28.076  38.416   3.635
45218W        W 6529  23.137  20.130   5.155
45219W        W 6530   6.212  26.517  11.120
45220W        W 6531   5.933   8.758   3.366
45221W        W 6532  23.080  11.212  11.542
45222W        W 6533  27.534  32.524  10.893
45223W        W 6534  19.120   7.755   2.332
45224W        W 6535   1.782   3.842  12.024
45225W        W 6536  37.065  33.060   5.248
45226W        W 6537  31.102  14.324  13.446
45227W        W 6538   4.392  26.029  13.434
45228W        W 6539  28.457  12.274  11.890
45229W        W 6540  26.097  25.963   0.367
45230W        W 6541  42.826   6.227  10.579
45231W        W 6542  32.582  27.637  10.463
45232W        W 6543  19.075   5.803  12.500
45233W        W 6544  21.612  40.359   3.728
45234W        W 6545  25.013  43.919   0.369
45235W        W 6546  15.088  35.528   1.751
45236W        W 6547  23.230  26.477  12.872
45237W        W 6548  11.249  18.287   4.256
45238W        W 6549  34.544  18.134   2.348
45239W        W 6550  23.132  10.738   2.200
45240W        W 6551  10.638  29.529   2.306
45241W        W 6552  22.672   7.705   4.234
45242W        W 6553  19.169  43.497  12.046
45243W        W 6554  10.222  12.295   3.666
45244W        W 6555  12.659  11.156   2.842
45245W        W 6556  12.177  41.511  14.794
45246W        W 6557  26.120  18.761  14.978
45247W        W 6558  17.770  23.069  13.812
45248W        W 6559  14.315   7.181   0.812
45249W        W 6560  39.342  35.569  10.620
45250W        W 6561  29.012  12.814   1.918
45251W        W 6562   5.889  19.763  11.379
45252W        W 6563  22.108  29.624  10.483
45253W        W 6564   3.934  34.079  14.978
45254W        W 6565  33.427  13.763   0.243
45255W        W 6566  10.645  10.264  12.383
45256W        W 6567  36.531  10.325   9.962
45257W        W 6568  35.585  23.620  11.961
45258W        W 6569  14.731  28.652  11.862
45259W        W 6570   5.932  18.606   3.219
45260W        W 6571  15.698  31.577  12.855
45261W        W 6572  23.146  22.568   3.361
45262W        W 6573  16.738  27.048   1.741
45263W        W 6574  41.811   4.277   2.191
45264W        W 6575  19.152  32.445  10.431
45265W        W 6576   6.296  39.456  12.973
45266W        W 6577  42.780   5.240  10.578
45267W        W 6578  12.308  43.798   1.350
45268W        W 6579  32.054   3.376  10.031
45269W        W 6580  33.986  17.688   2.375
45270W        W 6581  19.152  10.656  14.314
45271W        W 6582   7.854  15.771   3.197
45272W        W 6583  26.023  17.260   3.368
45273W        W 6584  27.946  11.280  11.543
45274W        W 6585  31.991  31.532  14.448
45275W        W 6586   9.189  26.497  13.798
45276W        W 6587  21.087  17.773  12.498
45277W        W 6588  23.591  40.361  14.893
45278W        W 6589   0.385  29.510   2.739
45279W        W 6590  41.806   8.355   4.644
45280W        W 6591   6.200  38.455   1.436
45281W        W 6592  21.258   9.707   2.332
45282W        W 6593   0.963  26.187   0.339
45283W        W 6594  27.511  33.964  12.539
45284W        W 6595  40.016  22.098  11.440
45285W        W 6596  24.573   7.373   4.138
45286W        W 6597  40.848  13.706  13.909
45287W        W 6598  19.597   7.259   1.935
45288W        W 6599  23.073  44.945   3.328
45289W        W 6600  16.758  21.732  12.343
45290W        W 6601  42.513  20.196   4.279
45291W        W 6602   6.381  17.219  14.974
45292W        W 6603  16.626   7.310   2.678
45293W        W 6604  12.690  37.572   3.740
45294W        W 6605  33.547  40.846  10.513
45295W        W 6606  10.775  11.158   4.304
45296W        W 6607   0.341  31.041   0.756
45297W        W 6608   5.286   8.249   1.896
45298W        W 6609  18.649   8.317  12.928
45299W        W 6610  36.522  25.003  13.007
45300W        W 6611  23.139  12.254   4.303
45301W        W 6612  13.349  38.051   1.921
45302W        W 6613  24.596  15.765  11.067
45303W        W 6614  35.969   6.729  14.486
45304W        W 6615  24.118  39.026  13.363
45305W        W 6616  30.444  39.394  12.370
45306W        W 6617   2.883   3.447   0.366
45307W        W 6618  36.846  36.543  11.562
45308W        W 6619  37.540  27.445   1.762
45309W        W 6620  35.494  26.161   3.709
45310W        W 6621  30.446  17.793   0.459
45311W        W 6622  32.552   4.729  13.905
45312W        W 6623  30.570  19.122  11.457
45313W        W 6624  25.470   7.835   0.959
45314W        W 6625  17.624   9.208   2.249
45315W        W 6626  40.488  13.732   4.773
45316W        W 6627  40.441  21.252   3.380
45317W        W 6628   1.882   6.230  13.322
45318W        W 6629  14.298  35.071   2.419
45319W        W 6630  35.108  38.535   0.925
45320W        W 6631  10.313  27.045   1.248
45321W        W 6632  26.958  21.616  11.902
45322W        W 6633  44.767  20.208  12.408
45323W        W 6634  27.627  21.069  10.499
45324W        W 6635  31.595  23.226  11.419
45325W        W 6636  37.437  41.345  13.430
45326W        W 6637  26.044  13.830   4.175
45327W        W 6638   8.262  42.990  11.127
45328W        W 6639  15.699  25.701  12.543
45329W        W 6640   4.385  41.911   4.341
45330W        W 6641  35.411   2.368  11.486
45331W        W 6642  20.636  24.558   1.244
45332W        W 6643  34.874   2.920  13.950
45333W        W 6644   0.779  21.036   0.740
45334W        W 6645  14.340  42.324  11.950
45335W        W 6646  15.271  20.704  12.550
45336W        W 6647  26.562  42.899  12.840
45337W        W 6648  22.022   3.238   2.180
45338W        W 6649  10.183  33.034   0.306
45339W        W 6650  32.011  30.426  14.301
45340W        W 6651  23.209  33.506   2.232
45341W        W 6652  41.450  43.510   4.270
45342W        W 6653  43.783  17.591   1.284
45343W        W 6654  15.647  38.341   9.934
45344W        W 6655  33.600   1.910  14.406
45345W        W 6656  36.409   7.710   4.314
45346W        W 6657   3.739  23.507  12.531
45347W        W 6658   8.386  16.190  12.823
45348W        W 6659  38.435  42.325   2.717
45349W        W 6660  35.505  27.529   2.180
45350W        W 6661  21.680  41.017  11.589
45351W        W 6662  19.569  38.512   1.295
45352W        W 6663  30.972  36.981  13.057
45353W        W 6664  37.941   3.290  14.032
45354W        W 6665  26.621  43.344   0.953
45355W        W 6666  31.902   2.832   2.418
45356W        W 6667  21.184  29.619  12.487
45357W        W 6668  44.991  43.885  13.442
45358W        W 6669  12.818  14.191  14.961
45359W        W 6670  12.345  30.501  12.961
45360W        W 6671  16.783  16.724  13.964
45361W        W 6672  31.897  38.477  11.457
45362W        W 6673  29.614   7.237   3.249
45363W        W 6674  25.111  42.454  11.519
45364W        W 6675  27.614  36.587   3.800
45365W        W 6676  43.480  10.696   4.212
45366W        W 6677  28.448  25.544  12.065
45367W        W 6678  33.043  15.329  13.392
45368W        W 6679   6.718   3.383   3.252
45369W        W 6680  41.003  31.920  13.346
45370W        W 6681  24.546  32.472  11.585
45371W        W 6682   9.752  13.616   2.242
45372W        W 6683  10.866  40.954   1.897
45373W        W 6684  20.218  16.613  10.986
45374W        W 6685  43.985   6.696  14.959
45375W        W 6686  18.643  33.101  13.471
45376W        W 6687  31.961   5.779   0.294
45377W        W 6688  37.974  19.767   2.324
45378W        W 6689  14.620   3.394   1.296
45379W        W 6690   2.892  37.994  14.993
45380W        W 6691  30.071  11.170   2.298
45381W        W 6692  23.205   3.395   0.908
45382W        W 6693  23.622  19.099   3.685
45383W        W 6694  18.201  29.010  14.274
45384W        W 6695  17.299  34.421  10.589
45385W        W 6696  43.420  37.064  13.873
45386W        W 6697  42.780  44.443   2.321
45387W        W 6698  12.182  35.431  12.950
45388W        W 6699  27.576  41.464  10.639
45389W        W 6700  20.619   5.816  14.430
45390W        W 6701  29.019  15.579  12.025
45391W        W 6702  20.766  23.671  11.958
45392W        W 6703  19.193  25.596   1.409
45393W        W 6704  21.123  31.981  12.415
45394W        W 6705  19.627  12.722   0.787
45395W        W 6706  38.437  28.628  10.628
45396W        W 6707  15.666  13.758   4.338
45397W        W 6708  15.712  28.163   4.220
45398W        W 6709   2.332   8.706   0.854
45399W        W 6710  15.600  23.103  12.856
45400W        W 6711  21.516  36.359   1.825
45401W        W 6712  38.534  13.340  13.882
45402W        W 6713  10.246   5.899   1.256
45403W        W 6714  36.082  18.689  14.446
45404W        W 6715  26.078  37.866   3.236
45405W        W 6716  38.360  43.871  14.918
45406W        W 6717  36.414  12.820   2.291
45407W        W 6718  36.582  25.154  11.406
45408W        W 6719  36.067  32.914  14.353
45409W        W 6720  10.836   4.761   1.247
45410W        W 6721  28.621  13.323  13.794
45411W        W 6722  27.446  13.109  11.045
45412W        W 6723  14.331  15.666   4.751
45413W        W 6724  44.850  44.365   1.439
45414W        W 6725   6.186   1.392   3.723
45415W        W 6726   6.406   6.228   1.416
45416W        W 6727  34.405  27.537   1.417
45417W        W 6728  35.965  17.620   4.807
45418W        W 6729   3.933   7.764   4.211
45419W        W 6730  37.839  19.186   4.340
45420W        W 6731  22.104  12.827  13.323
45421W        W 6732   5.926  42.451  14.954
45422W        W 6733  24.536  28.120  14.970
45423W        W 6734  37.019  36.990  12.839
45424W        W 6735  27.958  42.872   0.340
45425W        W 6736  21.710  36.530   0.831
45426W        W 6737   3.216  30.948   4.599
45427W        W 6738  27.197  12.687  14.413
45428W        W 6739   3.281  32.518  10.626
45429W        W 6740  33.925  29.048  11.552
45430W        W 6741  21.256  26.126  10.528
45431W        W 6742   2.367  37.495   0.397
45432W        W 6743  15.323  19.261   0.244
45433W        W 6744  43.375   3.888  10.982
45434W        W 6745  29.580  43.814   3.250
45435W        W 6746  11.211   9.730   0.784
45436W        W 6747  44.920  16.294  14.940
45437W        W 6748  16.156   1.328  14.445
45438W        W 6749   1.799  43.949   3.642
45439W        W 6750  39.837  32.993  10.628
45440W        W 6751   2.340  24.481  12.531
45441W        W 6752  35.096  24.037   0.788
45442W        W 6753   3.317   2.923   4.632
45443W        W 6754  11.345  29.540  10.434
45444W        W 6755  14.664  13.752   1.865
45445W        W 6756   8.894  43.416  12.430
45446W        W 6757  44.968   0.443  10.476
45447W        W 6758  22.099  28.578  14.827
45448W        W 6759  31.433  43.328  12.565
45449W        W 6760  28.601  39.487   3.208
45450W        W 6761  34.446  10.223   3.319
45451W        W 6762  28.554  29.080   3.344
45452W        W 6763  33.969  30.486  10.929
45453W        W 6764  19.123  19.046  14.966
45454W        W 6765  14.239  37.999   0.289
45455W        W 6766  19.555  29.500  13.905
45456W        W 6767  27.569  41.532   2.330
45457W        W 6768   0.820  41.857  10.947
45458W        W 6769  26.046  44.493  14.941
45459W        W 6770  23.212  23.496   1.429
45460W        W 6771  25.651  40.498   9.971
45461W        W 6772   2.254  33.461   3.727
45462W        W 6773  18.579  10.876   2.865
45463W        W 6774  11.773   1.358  11.476
45464W        W 6775   0.975  38.409   0.471
45465W        W 6776  10.661  27.101  14.843
45466W        W 6777  20.137   7.171   0.411
45467W        W 6778   2.891  16.073  11.516
45468W        W 6779  10.739  15.700   1.878
45469W        W 6780  15.618   1.340  14.495
45470W        W 6781   2.752  22.598   4.809
45471W        W 6782  23.727  35.505  11.511
45472W        W 6783  14.818  25.017  14.893
45473W        W 6784  12.266  33.954  11.073
45474W        W 6785  13.771  20.583   1.441
45475W        W 6786   2.803   7.376  13.390
45476W        W 6787   4.370   0.287   1.789
45477W        W 6788  24.156  15.105  13.810
45478W        W 6789  26.667  10.739   1.935
45479W        W 6790  23.073  24.099   1.249
45480W        W 6791  16.665  41.851  12.555
45481W        W 6792   1.849  33.563   3.269
45482W        W 6793  11.700  15.626   2.674
45483W        W 6794  40.991  11.629  11.586
45484W        W 6795   7.259  37.926  13.844
45485W        W 6796   7.367  23.721   0.770
45486W        W 6797  38.332  12.751   2.330
45487W        W 6798  34.103  38.544  12.405
45488W        W 6799  35.883  15.283   4.123
45489W        W 6800  44.860  28.016  14.871
45490W        W 6801  23.225  41.312   2.692
45491W        W 6802   6.718  10.736  14.924
45492W        W 6803   3.345  12.808   2.787
45493W        W 6804  42.424  11.659  14.955
45494W        W 6805  11.301  21.616  10.610
45495W        W 6806  18.739   5.310   1.290
45496W        W 6807  10.708  33.421  10.963
45497W        W 6808  24.485  25.140   2.690
45498W        W 6809  16.794  25.613   2.229
45499W        W 6810  36.425  44.383   3.662
45500W        W 6811  21.138   6.827  10.474
45501W        W 6812  33.582  19.726   0.462
45502W        W 6813  31.517   6.398  12.937
45503W        W 6814   3.776   5.919   4.170
45504W        W 6815   1.410   6.351  12.859
45505W        W 6816  12.805   4.448   4.282
45506W        W 6817  35.467  15.170   2.259
45507W        W 6818   8.381  23.645   0.915
45508W        W 6819  19.066  24.098  12.976
45509W        W 6820   4.300   9.149  12.834
45510W        W 6821  15.276  28.618   0.332
45511W        W 6822  38.435   0.988   1.850
45512W        W 6823  12.798  10.792  12.082
45513W        W 6824   4.713  37.968   1.897
45514W        W 6825  22.536  35.021  12.339
45515W        W 6826  36.359  21.162  10.564
45516W        W 6827  40.352   7.232   4.241
45517W        W 6828  36.360  35.027  10.506
45518W        W 6829   4.756  20.121   3.311
45519W        W 6830  39.518  36.533   0.262
45520W        W 6831   2.850  34.931  12.847
45521W        W 6832  37.564  12.770   2.704
45522W        W 6833  13.655  17.636   2.854
45523W        W 6834  20.668  25.478   0.737
45524W        W 6835   8.163  33.410  12.367
45525W        W 6836  23.042  10.383   0.381
45526W        W 6837  37.377  43.998  13.907
45527W        W 6838   8.188  33.991  12.984
45528W        W 6839  27.112  10.202  10.959
45529W        W 6840   1.429  27.488   3.670
45530W        W 6841   3.391  34.065  14.280
45531W        W 6842  11.234  38.472  14.030
45532W        W 6843  13.120  17.214   4.707
45533W        W 6844  14.132  40.502   4.816
45534W        W 6845  43.273  33.055   4.727
45535W        W 6846  27.589   6.416   3.672
45536W        W 6847  22.590  19.704   9.511
45537W        W 6848  15.635   7.785  13.495
45538W        W 6849  18.176   7.185  13.923
45539W        W 6850   3.807  28.069   3.799
45540W        W 6851  44.814  38.462   4.662
45541W        W 6852  32.618  18.746  10.571
45542W        W 6853  24.994  18.762   1.326
45543W        W 6854  20.629   1.912   3.835
45544W        W 6855  27.472  27.984  11.879
45545W        W 6856  43.926  21.534  13.012
45546W        W 6857   7.721  23.494  10.504
45547W        W 6858   4.865  37.408   5.291
45548W        W 6859   0.352   9.249   0.911
45549W        W 6860  25.049   7.309   3.706
45550W        W 6861  15.246   7.398   4.117
45551W        W 6862  26.652  32.041   3.355
45552W        W 6863  17.721  23.195   1.751
45553W        W 6864  38.984  21.687   3.682
45554W        W 6865  25.690  25.481   1.869
45555W        W 6866  18.052  17.721  14.453
45556W        W 6867  20.726   4.850  11.552
45557W        W 6868  24.689   4.832  14.515
45558W        W 6869   3.435   5.873  11.045
45559W        W 6870   3.460  28.461  14.451
45560W        W 6871   5.214  27.610  13.006
45561W        W 6872  30.486  38.052  12.346
45562W        W 6873  37.555  28.063  13.515
45563W        W 6874   9.811  20.097   4.275
45564W        W 6875  26.131  26.629   2.372
45565W        W 6876  16.249  29.034   0.843
45566W        W 6877  18.663  13.170  10.101
45567W        W 6878  21.533  11.831  12.560
45568W        W 6879  13.301  30.161  11.877
45569W        W 6880  10.161  21.574  14.402
45570W        W 6881  18.779  28.064  10.887
45571W        W 6882  27.483   3.725   2.880
45572W        W 6883  26.026  10.754  10.436
45573W        W 6884  13.191   2.932  12.035
45574W        W 6885  41.835  28.453   2.356
45575W        W 6886  11.195  37.495   3.318
45576W        W 6887  14.243  25.582   2.842
45577W        W 6888  23.071   6.377   3.663
45578W        W 6889  41.326   7.326  11.444
45579W        W 6890  18.129  23.054  14.287
45580W        W 6891  25.486  28.178   4.621
45581W        W 6892  23.644  42.475   1.392
45582W        W 6893  33.988  20.599  14.301
45583W        W 6894   9.302  23.070   3.754
45584W        W 6895   4.420  41.498   3.842
45585W        W 6896  14.295  32.918   3.852
45586W        W 6897  12.361  25.649   1.387
45587W        W 6898   1.807  27.011   0.739
45588W        W 6899   9.343  13.754   1.873
45589W        W 6900  14.796  44.333   4.222
45590W        W 6901  33.078  17.148  10.493
45591W        W 6902  25.003  13.134  14.764
45592W        W 6903  38.068   1.896   2.228
45593W        W 6904  27.048  12.766   1.406
45594W        W 6905  44.790  27.136   1.921
45595W        W 6906  34.025  32.517  11.928
45596W        W 6907  37.502  44.781   3.292
45597W        W 6908  21.161  36.019   0.269
45598W        W 6909  18.740  17.732  10.932
45599W        W 6910  39.851  34.978   4.285
45600W        W 6911  37.474  18.763   0.467
45601W        W 6912  27.002  10.807   3.214
45602W        W 6913  19.204  25.488  12.011
45603W        W 6914  38.474   4.433   0.786
45604W        W 6915  24.135   0.873  13.851
45605W        W 6916  30.950  43.342  14.788
45606W        W 6917  43.304  12.185  11.551
45607W        W 6918   6.718  16.246   1.399
45608W        W 6919  15.585  12.171   2.899
45609W        W 6920  30.555  34.035  10.987
45610W        W 6921  11.720  33.052  10.644
45611W        W 6922  30.484  25.648   0.431
45612W        W 6923  21.536  36.574  11.998
45613W        W 6924   7.727  22.522  13.496
45614W        W 6925  24.548  26.562   3.729
45615W        W 6926  21.615  24.710   1.933
45616W        W 6927  20.718  37.526   0.895
45617W        W 6928   2.403   3.323  12.956
45618W        W 6929   3.459  30.042   2.707
45619W        W 6930  22.118  10.283   0.732
45620W        W 6931  25.637  44.821  11.523
45621W        W 6932  34.611  14.211  11.025
45622W        W 6933  12.173   8.668  14.336
45623W        W 6934  33.030  11.850  13.855
45624W        W 6935  26.032   9.710  11.120
45625W        W 6936  36.029   7.292   3.789
45626W        W 6937  24.077   8.831  11.465
45627W        W 6938  22.248  33.942   3.237
45628W        W 6939  31.039  43.408  10.924
45629W        W 6940  41.839  14.259  13.386
45630W        W 6941  17.089  37.959  12.081
45631W        W 6942  25.696   0.345   2.320
45632W        W 6943  34.542   3.306   3.651
45633W        W 6944  11.644  19.616  13.910
45634W        W 6945   3.793   2.269  10.473
45635W        W 6946  43.360  27.066   0.824
45636W        W 6947  22.632  43.516  13.307
45637W        W 6948  33.893  20.246   3.727
45638W        W 6949  31.518  30.642  13.367
45639W        W 6950  24.188   7.228  11.375
45640W        W 6951  21.146  42.480  13.868
45641W        W 6952  39.458   6.898   4.132
45642W        W 6953   6.815  22.577  13.823
45643W        W 6954  34.036   1.942   4.686
45644W        W 6955  28.131  10.356  12.516
45645W        W 6956   6.916  26.142   2.684
45646W        W 6957  31.153   5.875  12.026
45647W        W 6958  18.550  24.604   2.358
45648W        W 6959  12.171  15.666   0.757
45649W        W 6960  13.138   0.760   0.829
45650W        W 6961  42.319  32.525  11.489
45651W        W 6962  33.415   8.209  10.441
45652W        W 6963  43.456   5.893   1.722
45653W        W 6964  29.116   0.800  11.060
45654W        W 6965  41.346  29.630   1.426
45655W        W 6966  17.689  14.667  11.392
45656W        W 6967  23.238  40.835   0.965
45657W        W 6968  43.841  26.995   2.322
45658W        W 6969  15.735  40.441  10.478
45659W        W 6970  12.151  36.493  11.483
45660W        W 6971  41.861  14.687   1.254
45661W        W 6972   7.747   4.699   1.783
45662W        W 6973  16.748  17.251  10.942
45663W        W 6974  34.079  16.725  14.344
45664W        W 6975  20.151   7.875  10.544
45665W        W 6976   4.276  22.131  14.914
45666W        W 6977   3.412  12.287   2.255
45667W        W 6978  10.816  12.632   4.603
45668W        W 6979  10.267  31.038  11.902
45669W        W 6980   7.313   4.234  14.448
45670W        W 6981  44.329  39.551  11.492
45671W        W 6982   9.357  13.632  13.038
45672W        W 6983  24.185  14.212   1.369
45673W        W 6984   5.744   5.356   1.737
45674W        W 6985  15.162   4.238  11.005
45675W        W 6986  30.014  28.165   4.805
45676W        W 6987  32.130  28.571   2.417
45677W        W 6988  23.989   2.827   3.169
45678W        W 6989  36.872  24.724  13.455
45679W        W 6990  19.643  31.485   0.796
45680W        W 6991  18.273  21.687  14.889
45681W        W 6992   0.357  41.501  13.523
45682W        W 6993  32.077  40.387   2.351
45683W        W 6994   9.185  41.306   3.243
45684W        W 6995  30.493  42.959   2.255
45685W        W 6996  34.514  31.581   0.303
45686W        W 6997  27.166  38.338  10.894
45687W        W 6998  43.472   5.320   3.657
45688W        W 6999   5.934  44.332  12.901
45689W        W 7000  17.161  18.254   5.312
45690W        W 7001  37.509  20.184   3.274
45691W        W 7002   3.409  37.452  12.383
45692W        W 7003  33.944   3.782   1.402
45693W        W 7004   0.858   7.853   3.197
45694W        W 7005  42.931  31.961  14.392
45695W        W 7006  34.424  27.158   2.275
45696W        W 7007  22.006   9.206  12.877
45697W        W 7008  36.941  31.504  11.450
45698W        W 7009  41.037   0.902   4.828
45699W        W 7010  21.158  25.664  11.382
45700W        W 7011   5.696  25.135  14.935
45701W        W 7012  20.168  41.962   1.255
45702W        W 7013   8.705  18.130   2.871
45703W        W 7014  11.156  11.339   4.680
45704W        W 7015  40.875  10.263   2.829
45705W        W 7016  44.772   0.815  13.508
45706W        W 7017  22.221  40.804   3.165
45707W        W 7018   4.913  10.645   0.432
45708W        W 7019  27.631  14.141  13.409
45709W        W 7020  17.273   0.790   0.868
45710W        W 7021  27.091  27.496   2.838
45711W        W 7022   5.918  31.988  11.034
45712W        W 7023   7.831  18.669  12.393
45713W        W 7024  23.145  33.437   2.803
45714W        W 7025   4.229  20.737   2.204
45715W        W 7026  18.601  33.550   4.601
45716W        W 7027   9.849  19.269  12.440
45717W        W 7028  24.104   9.251   3.220
45718W        W 7029  44.835   7.907   3.314
45719W        W 7030  40.851   9.268   2.323
45720W        W 7031  29.602  25.166   1.757
45721W        W 7032   3.724   8.770   0.392
45722W        W 7033  36.446  10.371   5.276
45723W        W 7034  19.689  44.282  14.917
45724W        W 7035  22.669  18.142   1.212
45725W        W 7036  20.260  41.819   4.309
45726W        W 7037  37.007  14.300  11.373
45727W        W 7038  13.604  34.891  14.027
45728W        W 7039  13.688   8.830   3.651
45729W        W 7040  43.989   2.226   2.715
45730W        W 7041  13.139   8.176  12.012
45731W        W 7042  35.018  23.709   4.604
45732W        W 7043  22.657   2.390  13.840
45733W        W 7044  23.719  32.028   2.300
45734W        W 7045  36.481  41.838   3.789
45735W        W 7046  16.648   2.905  10.538
45736W        W 7047  26.639  13.107   4.119
45737W        W 7048   9.159   1.413   0.861
45738W        W 7049  41.481  40.976   0.405
45739W        W 7050  31.021  21.104  14.458
45740W        W 7051  31.948  44.480   0.878
45741W        W 7052  19.122   8.405  13.923
45742W        W 7053  27.122   1.340   0.446
45743W        W 7054  28.997  20.072   2.880
45744W        W 7055  21.122  36.403  13.503
45745W        W 7056   2.435  23.049  14.940
45746W        W 7057  26.701  38.846   0.352
45747W        W 7058  16.689   0.883  12.039
45748W        W 7059   1.330  24.074  14.447
45749W        W 7060  17.751  38.943  14.337
45750W        W 7061  29.600  17.214   4.144
45751W        W 7062  44.405  23.583  13.911
45752W        W 7063   5.346  28.617  11.916
45753W        W 7064  34.879   7.672  13.449
45754W        W 7065  35.578  37.568  13.009
45755W        W 7066   1.867  15.276   4.751
45756W        W 7067  22.118  15.157  14.466
45757W        W 7068  11.275  34.499  14.418
45758W        W 7069   6.255   4.361   2.303
45759W        W 7070  31.489  16.672   0.471
45760W        W 7071  25.582   4.284   2.332
45761W        W 7072  24.216  34.527  14.892
45762W        W 7073  22.617  38.064   1.843
45763W        W 7074   2.251  15.748   5.270
45764W        W 7075  34.001  39.330   1.803
45765W        W 7076  36.902  18.789   0.757
45766W        W 7077  21.518  16.748   2.191
45767W        W 7078  39.516  24.671  12.358
45768W        W 7079  20.559  14.227  14.376
45769W        W 7080  17.087  40.863  11.559
45770W        W 7081  39.956  38.919   1.218
45771W        W 7082  27.589  13.710  13.460
45772W        W 7083  19.642  10.292   2.357
45773W        W 7084  40.341  36.892  14.984
45774W        W 7085   7.697  40.525  14.865
45775W        W 7086  27.953  16.082  13.016
45776W        W 7087  33.001  37.465  13.404
45777W        W 7088   6.419  26.162   1.823
45778W        W 7089  14.769   7.911   1.247
45779W        W 7090  15.730  32.010  10.578
45780W        W 7091  24.623  41.788   3.689
45781W        W 7092  41.316  22.119  12.391
45782W        W 7093  30.508  15.242   4.831
45783W        W 7094  24.204   1.832   1.719
45784W        W 7095   0.427   5.913   2.375
45785W        W 7096  36.575  19.706  14.814
45786W        W 7097   9.738  30.968   1.744
45787W        W 7098   2.321  19.120  12.392
45788W        W 7099  39.379  30.451   3.632
45789W        W 7100  23.175  17.610  11.429
45790W        W 7101   4.313   8.237   3.774
45791W        W 7102   6.387  28.051  14.951
45792W        W 7103  33.079   6.405   3.782
45793W        W 7104  37.864  31.940  12.055
45794W        W 7105   3.888  37.406   2.214
45795W        W 7106  14.310  33.026  13.466
45796W        W 7107   0.281   1.286  13.521
45797W        W 7108  13.749  16.238  12.086
45798W        W 7109   4.266  23.123   1.926
45799W        W 7110  36.082  20.622  14.411
45800W        W 7111  44.424  11.636   4.339
45801W        W 7112  41.799  30.475   2.317
45802W        W 7113  29.526  29.014  10.083
45803W        W 7114   7.869   7.830  11.516
45804W        W 7115  23.141  25.209   2.851
45805W        W 7116  37.401   3.784  13.506
45806W        W 7117   3.944  40.525   0.380
45807W        W 7118  31.540  43.463   1.298
45808W        W 7119  41.821  12.686   4.146
45809W        W 7120  32.055  29.169   4.791
45810W        W 7121  43.818  24.531  12.029
45811W        W 7122   8.664  20.659  12.946
45812W        W 7123   1.452  14.783  10.581
45813W        W 7124  15.746  26.612  13.927
45814W        W 7125  22.228  40.989   0.954
45815W        W 7126  40.315  22.063  12.512
45816W        W 7127   3.425  33.433  13.317
45817W        W 7128  12.260  35.011   4.122
45818W        W 7129  28.550   3.454   3.851
45819W        W 7130   2.330  40.323   2.855
45820W        W 7131  24.583  36.045   3.227
45821W        W 7132  29.156   1.483  12.457
45822W        W 7133  30.099  25.209   1.345
45823W        W 7134  30.624  30.634  13.529
45824W        W 7135   3.918  10.673  14.311
45825W        W 7136   4.761  37.394  13.891
45826W        W 7137  41.844  37.081  13.042
45827W        W 7138  31.615  38.569   3.313
45828W        W 7139  40.328  40.452   2.334
45829W        W 7140   4.855  26.567  14.892
45830W        W 7141  31.128   8.238  10.923
45831W        W 7142   4.321   5.430   1.338
45832W        W 7143  26.039  20.053  13.310
45833W        W 7144  38.071  28.133  14.366
45834W        W 7145   9.857   1.363   1.271
45835W        W 7146  16.258  42.420   3.312
45836W        W 7147  30.159  13.250   1.378
45837W        W 7148  13.665  21.080  14.433
45838W        W 7149  12.674  40.867  10.424
45839W        W 7150  43.309  32.509   3.350
45840W        W 7151  29.475  38.954   5.106
45841W        W 7152  13.130  11.265   3.722
45842W        W 7153   4.404   1.275  14.032
45843W        W 7154  37.933  23.718  11.545
45844W        W 7155  11.676  18.276   2.707
45845W        W 7156  42.848   9.669   2.378
45846W        W 7157   0.489   3.428   1.406
45847W        W 7158  34.433  14.768  13.818
45848W        W 7159   5.322  12.182  13.824
45849W        W 7160  33.601  33.994  11.949
45850W        W 7161  26.503  27.084  11.562
45851W        W 7162  15.764  38.828   5.300
45852W        W 7163  33.880   3.348  14.383
45853W        W 7164  42.435  11.351  12.463
45854W        W 7165  37.411  28.929  10.992
45855W        W 7166   4.757  19.056   1.772
45856W        W 7167  23.668  17.224  14.318
45857W        W 7168  29.451  18.583  13.033
45858W        W 7169  24.682  33.391  11.990
45859W        W 7170   3.424  17.178  12.869
45860W        W 7171  12.176  24.709  11.883
45861W        W 7172  12.706  22.634   2.781
45862W        W 7173  24.206  19.550   2.808
45863W        W 7174  44.829  43.292  13.800
45864W        W 7175  13.787  37.419  13.849
45865W        W 7176  30.139  28.623   0.810
45866W        W 7177  33.545   0.924  14.492
45867W        W 7178  26.582  16.263  11.083
45868W        W 7179  30.419  41.526  14.007
45869W        W 7180  19.278  41.040   2.238
45870W        W 7181   5.747  30.084  12.928
45871W        W 7182  33.038  31.557   2.275
45872W        W 7183  29.953  10.711   1.921
45873W        W 7184  27.078  28.561   4.294
45874W        W 7185   0.268   3.737   2.265
45875W        W 7186  33.607  13.734   0.841
45876W        W 7187  35.394  36.548  12.882
45877W        W 7188  41.419  23.524  12.939
45878W        W 7189  44.001  41.509   2.873
45879W        W 7190   5.732   9.286  12.562
45880W        W 7191  17.174   6.312   3.734
45881W        W 7192  18.758  11.657  10.640
45882W        W 7193   2.883  13.734   2.310
45883W        W 7194  15.130  38.870   1.269
45884W        W 7195  34.520  17.247   2.301
45885W        W 7196  19.591   6.771  11.597
45886W        W 7197  30.659  35.432  14.888
45887W        W 7198  24.663  38.504   4.747
45888W        W 7199  14.119  13.833   3.257
45889W        W 7200  19.186  32.462   0.832
45890W        W 7201  19.704  18.211  11.372
45891W        W 7202   3.711  36.065   4.807
45892W        W 7203  18.620  35.049   2.855
45893W        W 7204   5.796   9.820   4.720
45894W        W 7205  17.294  16.080  14.348
45895W        W 7206   5.749  30.089   4.212
45896W        W 7207   9.727   1.428  11.019
45897W        W 7208  26.583  40.953  10.948
45898W        W 7209  25.045  39.948  14.998
45899W        W 7210   5.879  17.135   1.348
45900W        W 7211  25.984  12.262   1.272
45901W        W 7212  34.107  37.578  12.978
45902W        W 7213  18.627   5.713  14.825
45903W        W 7214  35.108  23.232   1.877
45904W        W 7215  17.652  15.185  10.411
45905W        W 7216   8.278  38.541  14.308
45906W        W 7217  12.352  13.290   2.717
45907W        W 7218  31.139  14.790  10.607
45908W        W 7219   1.331  32.529   1.745
45909W        W 7220  26.159  20.669   0.886
45910W        W 7221  41.300   6.921   2.365
45911W        W 7222  30.433   7.332   0.457
45912W        W 7223  37.352  43.272   1.808
45913W        W 7224   4.326   0.763  13.941
45914W        W 7225  28.040  19.698   0.282
45915W        W 7226   7.339   1.768  12.021
45916W        W 7227  36.075  17.105   1.902
45917W        W 7228  24.011  41.468   3.737
45918W        W 7229  42.353   7.189  14.963
45919W        W 7230  27.158  22.588  12.032
45920W        W 7231  25.616  12.641  10.630
45921W        W 7232   2.904   2.412  13.819
45922W        W 7233  17.297  16.220   1.309
45923W        W 7234  27.459   0.467   3.850
45924W        W 7235   1.400  25.993   2.838
45925W        W 7236  44.992  27.073  13.943
45926W        W 7237  26.204  13.639   0.729
45927W        W 7238  40.413   6.806   0.285
45928W        W 7239   3.407  25.565  13.908
45929W        W 7240   9.837  36.412  14.989
45930W        W 7241  33.510  23.592  11.609
45931W        W 7242  44.398  27.050  12.084
45932W        W 7243  27.009  26.094  10.511
45933W        W 7244   1.283  40.521   0.280
45934W        W 7245  15.276  22.549   0.813
45935W        W 7246  44.456   2.916   4.162
45936W        W 7247   2.933  11.760   2.290
45937W        W 7248  23.215  24.178   2.889
45938W        W 7249  10.261   9.699  10.911
45939W        W 7250  24.696  27.161   3.165
45940W        W 7251  26.542  19.651   4.290
45941W        W 7252  33.384  22.669   4.222
45942W        W 7253  26.049  32.888  14.958
45943W        W 7254   1.301  11.828  14.967
45944W        W 7255  35.902  35.102   4.168
45945W        W 7256  44.427  33.466  12.086
45946W        W 7257  16.248   5.383   5.278
45947W        W 7258   7.732  28.562  13.439
45948W        W 7259  22.998  14.098  13.922
45949W        W 7260  25.600  35.411  12.942
45950W        W 7261   1.768  23.580   2.304
45951W        W 7262  42.778  12.118  12.881
45952W        W 7263  27.517   6.374  13.546
45953W        W 7264   4.889  10.345   3.212
45954W        W 7265  13.197  14.654  10.583
45955W        W 7266  43.467   1.755   1.738
45956W        W 7267  42.847  10.737   2.347
45957W        W 7268  13.731   2.732  14.005
45958W        W 7269  21.689  26.692   2.195
45959W        W 7270  36.953   3.923   2.688
45960W        W 7271  16.748  36.846   0.408
45961W        W 7272  21.112  36.431   4.762
45962W        W 7273  30.923  28.436  13.446
45963W        W 7274  33.469  17.298   2.279
45964W        W 7275  26.643  31.106  12.397
45965W        W 7276  14.761  31.639   0.939
45966W        W 7277  30.652   7.819   3.862
45967W        W 7278   7.734   2.801  14.830
45968W        W 7279   7.822  22.126  11.072
45969W        W 7280  42.981  32.081  12.937
45970W        W 7281  40.430  37.057  12.385
45971W        W 7282  18.784   7.772  11.938
45972W        W 7283  41.443  35.892  11.094
45973W        W 7284  43.806  41.881  14.011
45974W        W 7285  34.085  32.007  14.032
45975W        W 7286  38.353  20.649  10.908
45976W        W 7287  13.230  44.346   4.664
45977W        W 7288  35.999   8.246  12.064
45978W        W 7289  41.789  33.110   3.164
45979W        W 7290  26.206  43.498   4.760
45980W        W 7291   3.288  22.651   5.130
45981W        W 7292  25.088  23.086   4.613
45982W        W 7293  43.376  34.452   2.876
45983W        W 7294  37.570  33.458   0.403
45984W        W 7295  23.613  44.798   2.877
45985W        W 7296  29.922  23.609  10.972
45986W        W 7297  34.106  25.518  14.955
45987W        W 7298  12.623  33.071  11.546
45988W        W 7299  13.804  30.547  13.354
45989W        W 7300  15.268  24.705   1.346
45990W        W 7301  17.165  38.477   4.324
45991W        W 7302  42.360  43.299   2.402
45992W        W 7303   2.296  24.705   1.818
45993W        W 7304  22.551  15.225  13.421
45994W        W 7305  27.158   6.418   9.641
45995W        W 7306  11.769  36.391   1.350
45996W        W 7307  21.518  19.224  14.868
45997W        W 7308   6.762  38.358  13.817
45998W        W 7309  29.431  40.504  10.428
45999W        W 7310   5.881  21.228   4.806
46000W        W 7311   7.673  28.969   0.256
46001W        W 7312  42.486  14.212   0.459
46002W        W 7313  19.662   7.721   1.750
46003W        W 7314  26.977  19.201   4.221
46004W        W 7315  34.914  24.665  14.328
46005W        W 7316  11.211   2.456   3.705
46006W        W 7317  29.126  43.807   3.817
46007W        W 7318   1.386  21.059  10.431
46008W        W 7319  29.580  22.058   3.355
46009W        W 7320  18.227  31.474  13.032
46010W        W 7321  16.730   6.330   0.900
46011W        W 7322   1.419  27.101   1.317
46012W        W 7323  36.886   7.347   1.713
46013W        W 7324  38.998   0.368  14.480
46014W        W 7325  40.476  41.039   3.744
46015W        W 7326  30.105  22.164  10.965
46016W        W 7327   3.335  31.019   0.326
46017W        W 7328  38.854  31.608  11.129
46018W        W 7329   7.336  14.096  13.929
46019W        W 7330   2.435  15.150   3.357
46020W        W 7331  30.512  28.017   0.828
46021W        W 7332   2.445  35.869   0.469
46022W        W 7333  11.253  43.815  14.025
46023W        W 7334  15.693   2.884   5.263
46024W        W 7335  18.055  10.670   3.184
46025W        W 7336  24.494  23.498  11.871
46026W        W 7337  44.958  18.216   2.205
46027W        W 7338  32.579  44.862  12.972
46028W        W 7339   2.302  25.602   4.322
46029W        W 7340   7.391  31.133   0.473
46030W        W 7341  31.051  23.550   1.894
46031W        W 7342  42.031  23.206  14.835
46032W        W 7343   4.841   3.440   4.636
46033W        W 7344  41.949  25.690   4.799
46034W        W 7345   5.214  35.595   2.826
46035W        W 7346  16.192  28.132  11.899
46036W        W 7347  29.661   7.738  12.565
46037W        W 7348  44.387  31.912  10.983
46038W        W 7349  42.335  21.131  14.867
46039W        W 7350  38.069  38.014  11.897
46040W        W 7351  32.907  28.050   3.647
46041W        W 7352  15.239  14.287  10.406
46042W        W 7353  26.046  33.560   3.307
46043W        W 7354  40.913  10.270   3.767
46044W        W 7355  14.204  39.557   2.843
46045W        W 7356   8.896  33.961  10.609
46046W        W 7357   4.936  33.945   4.314
46047W        W 7358  18.702  16.735  14.846
46048W        W 7359  16.257  28.522  13.031
46049W        W 7360  43.304   0.472  14.461
46050W        W 7361  43.351  32.968  11.104
46051W        W 7362  27.609  14.155   1.906
46052W        W 7363  28.935  44.402  13.045
46053W        W 7364  17.649  39.956  11.895
46054W        W 7365  22.532  40.324   4.686
46055W        W 7366  32.426  27.600   1.369
46056W        W 7367  44.284  18.559   0.415
46057W        W 7368  31.982  28.015  11.114
46058W        W 7369  41.945  20.553   2.683
46059W        W 7370  41.952  36.982   3.325
46060W        W 7371  35.101  38.034   1.787
46061W        W 7372   6.274  29.629  12.494
46062W        W 7373  36.473  39.952   2.363
46063W        W 7374   1.322   7.322   0.932
46064W        W 7375  38.059  16.653  13.530
46065W        W 7376  42.869  36.479   3.682
46066W        W 7377  30.543  38.535  14.296
46067W        W 7378  19.281  16.600  12.422
46068W        W 7379   5.859  41.354  12.577
46069W        W 7380   0.414  10.160  14.934
46070W        W 7381  27.982   0.906   2.344
46071W        W 7382  31.928  11.269  10.570
46072W        W 7383  21.605  37.489  10.640
46073W        W 7384  24.575  21.200  14.457
46074W        W 7385  26.612  39.064   0.800
46075W        W 7386  42.389  37.442   2.702
46076W        W 7387  18.551  35.860  14.910
46077W        W 7388  31.533  29.024   4.164
46078W        W 7389  33.039  29.146  12.978
46079W        W 7390  13.816  10.308  12.073
46080W        W 7391  42.874  12.729  11.962
46081W        W 7392  36.359  19.258  14.325
46082W        W 7393  29.564  41.795   0.959
46083W        W 7394   2.419  20.739   2.791
46084W        W 7395   8.661   4.853  10.984
46085W        W 7396   2.229  31.487  14.826
46086W        W 7397  44.488  11.750  11.416
46087W        W 7398  34.483   0.829   4.279
46088W        W 7399  41.924  17.603   4.815
46089W        W 7400   5.209  36.848   0.465
46090W        W 7401   5.434   4.358  14.822
46091W        W 7402  12.832  26.523   2.823
46092W        W 7403   2.268  39.426  13.847
46093W        W 7404   6.223  44.921  13.032
46094W        W 7405   7.365   6.259  14.011
46095W        W 7406   8.339  41.484  12.346
46096W        W 7407  30.995  10.760  10.523
46097W        W 7408  37.016  26.701  14.838
46098W        W 7409   7.728  28.996  14.397
46099W        W 7410  24.522   9.305   0.891
46100W        W 7411  15.589   2.878  14.441
46101W        W 7412   1.778  35.986   1.902
46102W        W 7413   1.932  18.714   3.200
46103W        W 7414   6.369  40.840  11.925
46104W        W 7415  20.740  37.559  11.891
46105W        W 7416   8.245  31.560   0.314
46106W        W 7417  41.454  24.037  11.498
46107W        W 7418  37.831   5.279  13.464
46108W        W 7419  37.367   1.853   3.273
46109W        W 7420  17.759  38.865  12.549
46110W        W 7421  16.086   1.947   4.717
46111W        W 7422  31.088  40.530  13.935
46112W        W 7423   3.908  22.136   1.415
46113W        W 7424   7.716   7.353  11.075
46114W        W 7425  14.734  14.283  13.928
46115W        W 7426  37.021  41.973   1.733
46116W        W 7427  15.149   8.893  11.513
46117W        W 7428  36.853  12.154   4.291
46118W        W 7429  18.620  17.628  10.426
46119W        W 7430  23.693  38.506  14.917
46120W        W 7431  16.755  30.056   3.714
46121W        W 7432  40.437   2.230   1.357
46122W        W 7433  24.047  25.555  11.528
46123W        W 7434  26.072  17.579   2.200
46124W        W 7435  15.652  16.078  11.607
46125W        W 7436  20.695   4.716   4.709
46126W        W 7437  35.511   1.877  14.768
46127W        W 7438  22.222  25.092   1.444
46128W        W 7439  15.682   6.195   4.328
46129W        W 7440  15.128   5.882  14.972
46130W        W 7441  19.547  37.444   1.808
46131W        W 7442  19.281  22.032  14.294
46132W        W 7443   1.411  20.079   3.652
46133W        W 7444  15.652   4.782   2.300
46134W        W 7445   8.337   2.240  12.983
46135W        W 7446  33.618   1.415   2.260
46136W        W 7447  12.274  25.470   4.828
46137W        W 7448  39.023  21.125   4.830
46138W        W 7449  40.872   3.899  13.004
46139W        W 7450  31.481  26.166  14.311
46140W        W 7451   8.809  43.337   1.360
46141W        W 7452  32.136  25.201  10.045
46142W        W 7453  34.593  27.159  14.353
46143W        W 7454   2.313  23.148   3.267
46144W        W 7455  15.793  23.691   1.706
46145W        W 7456   5.240   5.221   4.148
46146W        W 7457  34.110   7.198   3.732
46147W        W 7458  21.536  10.665  13.906
46148W        W 7459   3.752  30.655   4.776
46149W        W 7460  18.731  31.055   4.598
46150W        W 7461  14.224   4.306   2.707
46151W        W 7462  35.939   8.896   1.928
46152W        W 7463  11.170  34.976   0.874
46153W        W 7464  19.126  29.457   2.271
46154W        W 7465  21.172  23.165   1.745
46155W        W 7466  16.286  37.476   4.312
46156W        W 7467   2.451  31.445  12.392
46157W        W 7468  36.522  27.170   1.259
46158W        W 7469   0.252  10.188  14.416
46159W        W 7470  30.059  32.992   4.350
46160W        W 7471  42.802  41.407   4.143
46161W        W 7472  15.083  10.764  11.050
46162W        W 7473  30.054  18.603  11.605
46163W        W 7474  13.201  31.468   1.757
46164W        W 7475  28.509  11.739  14.763
46165W        W 7476  21.020   2.736   4.218
46166W        W 7477   6.813  21.185   3.829
46167W        W 7478  29.493   3.237  14.889
46168W        W 7479  25.971  27.642   5.226
46169W        W 7480  30.580   5.280   2.858
46170W        W 7481  16.106  26.668  10.976
46171W        W 7482  18.289   5.306   3.334
46172W        W 7483  17.783  13.758  11.041
46173W        W 7484  35.579  15.678   0.747
46174W        W 7485   8.785   9.394  11.993
46175W        W 7486   8.223  34.462  13.402
46176W        W 7487  23.000  33.966  14.828
46177W        W 7488  35.994  22.733  11.008
46178W        W 7489  31.083  43.967   1.922
46179W        W 7490  20.700  24.649   0.942
46180W        W 7491  39.924   4.718  13.501
46181W        W 7492  22.171  28.025  11.087
46182W        W 7493  12.746  20.236   3.748
46183W        W 7494  16.716  29.946   4.720
46184W        W 7495   9.380  32.105  11.064
46185W        W 7496  36.852  22.067   4.179
46186W        W 7497  32.492  28.506   3.254
46187W        W 7498  21.210  15.586  12.878
46188W        W 7499  16.279   7.375  13.968
46189W        W 7500  11.693  26.459   3.674
46190W        W 7501   6.723  32.050  12.384
46191W        W 7502  18.574   0.476  12.982
46192W        W 7503  12.744  39.419  11.552
46193W        W 7504  18.643  44.389   2.831
46194W        W 7505   3.822  25.042  11.572
46195W        W 7506   1.934   5.688  11.468
46196W        W 7507  18.293  43.886  11.047
46197W        W 7508  19.260   3.793   2.228
46198W        W 7509  14.158  20.234   4.309
46199W        W 7510   5.434  32.420   1.437
46200W        W 7511  39.945   0.277   2.700
46201W        W 7512   3.431  33.090   4.319
46202W        W 7513  35.903   7.307   2.331
46203W        W 7514   5.915  30.941   0.744
46204W        W 7515  14.181  29.479   3.713
46205W        W 7516  37.030  12.276   0.307
46206W        W 7517  23.497   1.440  13.961
46207W        W 7518   8.170  22.656  13.503
46208W        W 7519  27.615   3.403   4.750
46209W        W 7520   0.874  18.625   1.227
46210W        W 7521  10.830   4.883   3.277
46211W        W 7522  28.602   9.743   1.321
46212W        W 7523  15.180  40.888  11.611
46213W        W 7524  36.096  30.530  12.531
46214W        W 7525   6.207  27.067   4.603
46215W        W 7526  34.060  34.402  11.450
46216W        W 7527  25.641   4.427  10.887
46217W        W 7528  30.577  43.486  11.442
46218W        W 7529  11.860  31.961  14.928
46219W        W 7530  35.453   0.776  10.614
46220W        W 7531  10.155  28.641  11.386
46221W        W 7532  41.882  19.719  10.406
46222W        W 7533  35.484  12.686  13.825
46223W        W 7534  32.502  14.655  12.539
46224W        W 7535  19.634  27.564  14.840
46225W        W 7536   0.786  34.872   2.300
46226W        W 7537  27.536  11.665   2.333
46227W        W 7538  27.576   3.882  11.025
46228W        W 7539  30.637  30.474  11.486
46229W        W 7540   1.767  30.128  10.638
46230W        W 7541  39.859  37.576   2.334
46231W        W 7542  43.924  23.622  13.996
46232W        W 7543  19.661  21.633   2.281
46233W        W 7544  34.549  41.817   4.717
46234W        W 7545   2.447   7.781  14.860
46235W        W 7546  16.199  42.332  11.393
46236W        W 7547   1.356  13.348  11.072
46237W        W 7548  21.729   2.772   0.935
46238W        W 7549   3.361  24.614  10.901
46239W        W 7550  16.664  26.125  11.035
46240W        W 7551  43.469  18.246  13.992
46241W        W 7552   1.834  31.983   2.778
46242W        W 7553   0.880  12.696  13.341
46243W        W 7554  43.931  11.224  13.418
46244W        W 7555  33.029  39.335   2.777
46245W        W 7556  33.942  26.658   0.250
46246W        W 7557   6.182  28.952  13.503
46247W        W 7558  14.187  16.732  10.634
46248W        W 7559  40.450  36.399  12.353
46249W        W 7560  11.322  37.885  14.024
46250W        W 7561  34.559  34.519  10.572
46251W        W 7562  25.495  10.202  13.461
46252W        W 7563  26.970  24.185   1.439
46253W        W 7564   7.197  22.704  11.549
46254W        W 7565  39.824  37.355   0.353
46255W        W 7566  34.878  25.675  10.573
46256W        W 7567  34.023  41.480  10.953
46257W        W 7568  22.216  44.841   3.355
46258W        W 7569  30.005  15.160  13.874
46259W        W 7570  14.732   8.854   5.130
46260W        W 7571  24.977  29.596   2.757
46261W        W 7572  13.129  27.692   1.902
46262W        W 7573  44.994   8.264   1.295
46263W        W 7574  35.515   7.847   0.481
46264W        W 7575  23.616  26.041   0.753
46265W        W 7576  24.540   9.728   1.312
46266W        W 7577  43.929  10.335  11.987
46267W        W 7578  15.780  11.275  13.528
46268W        W 7579  31.491  25.153   1.841
46269W        W 7580   5.919  19.590  14.980
46270W        W 7581   4.255  17.203   9.604
46271W        W 7582  42.962  38.918   2.884
46272W        W 7583  27.179   9.668   2.703
46273W        W 7584  18.074  24.600   4.238
46274W        W 7585  42.469   7.686   1.913
46275W        W 7586  31.524  10.838   2.786
46276W        W 7587  24.652   4.739  10.629
46277W        W 7588  28.178   7.793   4.705
46278W        W 7589  16.769  20.164  14.773
46279W        W 7590  25.615  23.240   4.262
46280W        W 7591  39.314   1.862  11.392
46281W        W 7592   7.266  29.467  13.857
46282W        W 7593  13.813   1.343   2.839
46283W        W 7594  30.145   3.266  12.854
46284W        W 7595  30.066  43.364  10.943
46285W        W 7596  38.966  26.123  10.502
46286W        W 7597  36.998  32.529   2.227
46287W        W 7598  24.658  21.730   3.273
46288W        W 7599  22.661   4.835   2.215
46289W        W 7600  24.554  13.307   0.452
46290W        W 7601  36.557  32.494  14.302
46291W        W 7602  22.153  20.576  13.806
46292W        W 7603  44.946   3.234  11.862
46293W        W 7604  42.957  18.649  14.850
46294W        W 7605  34.069  15.738   9.938
46295W        W 7606  36.011  10.157   4.642
46296W        W 7607  34.538  16.597   0.734
46297W        W 7608  31.615  22.724   2.782
46298W        W 7609  30.500  20.175  10.928
46299W        W 7610   4.369   3.287   3.216
46300W        W 7611   2.956  44.301  11.384
46301W        W 7612  12.284  10.751  10.470
46302W        W 7613  27.627  38.823  12.446
46303W        W 7614  39.478  15.685   4.330
46304W        W 7615  33.393   1.828  11.440
46305W        W 7616  19.719  41.022   1.696
46306W        W 7617  34.394   1.762   1.345
46307W        W 7618   2.795  31.984  11.393
46308W        W 7619   6.859  35.072   2.752
46309W        W 7620  36.362  25.095  14.982
46310W        W 7621  23.516  18.088  12.940
46311W        W 7622  42.009  18.644   1.313
46312W        W 7623  23.725   0.263  10.428
46313W        W 7624  18.111   4.831   0.273
46314W        W 7625  29.666  14.313   2.752
46315W        W 7626  25.044  12.833   2.412
46316W        W 7627  28.003  29.129   3.207
46317W        W 7628   8.262  21.150  12.988
46318W        W 7629  29.447  32.993   1.333
46319W        W 7630  24.172  11.266   3.692
46320W        W 7631  40.994  36.876   3.629
46321W        W 7632  29.058   5.335   0.793
46322W        W 7633  42.439  26.591  10.519
46323W        W 7634   7.787  15.288  12.477
46324W        W 7635  36.989  37.471  10.137
46325W        W 7636  21.614  26.605   3.857
46326W        W 7637  11.772   9.697  14.386
46327W        W 7638  18.077  17.280  12.381
46328W        W 7639  20.174  35.521   2.233
46329W        W 7640   6.375  13.141   3.184
46330W        W 7641  29.967   4.856   0.424
46331W        W 7642  38.857  10.231  13.794
46332W        W 7643   4.817   6.844  11.994
46333W        W 7644  23.504   8.684  12.948
46334W        W 7645  31.103  11.145  10.470
46335W        W 7646  41.023  39.971   2.378
46336W        W 7647   7.215  16.808  13.811
46337W        W 7648  19.247   1.378  11.450
46338W        W 7649   0.763   0.968  13.366
46339W        W 7650  23.729  20.667   1.398
46340W        W 7651  25.481   2.298  13.546
46341W        W 7652  29.017  30.087  13.408
46342W        W 7653  41.529  26.467   1.244
46343W        W 7654  26.178  38.356   3.676
46344W        W 7655  41.453   8.787  14.984
46345W        W 7656  34.870  14.233  10.509
46346W        W 7657   6.202  17.589  11.561
46347W        W 7658  31.947  36.036  12.524
46348W        W 7659  27.634   2.266  12.504
46349W        W 7660  10.293  29.962  12.421
46350W        W 7661  19.114  10.302   1.300
46351W        W 7662  22.998  17.138   5.737
46352W        W 7663  40.900  29.500   2.885
46353W        W 7664  33.460   7.799   2.702
46354W        W 7665  33.462  18.635   0.265
46355W        W 7666  17.192   8.722   1.772
46356W        W 7667   0.339  30.599   0.477
46357W        W 7668   7.408  34.612   4.127
46358W        W 7669   6.397  37.567   4.690
46359W        W 7670  20.089   1.331   4.352
46360W        W 7671  26.662  39.846  11.941
46361W        W 7672   6.913  36.359   3.313
46362W        W 7673   5.848  32.563  12.920
46363W        W 7674  18.133  43.353   3.667
46364W        W 7675  28.074  36.972  11.419
46365W        W 7676   7.286  18.161   4.706
46366W        W 7677  39.380  33.549   0.907
46367W        W 7678  28.101   6.711  14.468
46368W        W 7679  38.975  16.787  14.818
46369W        W 7680  36.952  16.231   1.344
46370W        W 7681  35.974  16.775  12.084
46371W        W 7682  42.294   5.297  13.507
46372W        W 7683  36.062  28.537   3.337
46373W        W 7684  29.622  41.946   3.700
46374W        W 7685   6.272  24.992  14.946
46375W        W 7686  35.474  25.667  10.458
46376W        W 7687  42.861   1.461   3.829
46377W        W 7688  37.997  21.045  13.951
46378W        W 7689  11.295  40.324   0.268
46379W        W 7690  12.734   8.184  11.955
46380W        W 7691   4.937  39.009   0.863
46381W        W 7692   2.245  12.321   3.260
46382W        W 7693   3.924   2.410   0.411
46383W        W 7694  11.199  17.676  11.561
46384W        W 7695  13.727  24.080   0.411
46385W        W 7696  36.534  23.038   4.152
46386W        W 7697  44.813   2.937  11.006
46387W        W 7698  41.885  19.609   4.682
46388W        W 7699  30.923  24.537   2.293
46389W        W 7700  25.012  26.680  12.388
46390W        W 7701   9.221  28.481  12.514
46391W        W 7702  41.446  44.386  12.493
46392W        W 7703   9.353  30.005   1.834
46393W        W 7704  16.290  34.976  13.023
46394W        W 7705   8.699  20.146  13.863
46395W        W 7706  43.021  13.633   2.792
46396W        W 7707  20.598  41.328  13.004
46397W        W 7708  37.940  17.183  14.409
46398W        W 7709   5.397  29.563  13.420
46399W        W 7710   4.880  14.308  13.424
46400W        W 7711   0.832  28.032   4.173
46401W        W 7712  19.054  20.711  12.946
46402W        W 7713  41.889   3.946  12.825
46403W        W 7714  43.002  20.612   1.704
46404W        W 7715  20.543  34.888  13.918
46405W        W 7716   2.889  27.024   2.694
46406W        W 7717  18.680  25.963   1.227
46407W        W 7718  29.939  38.865   3.377
46408W        W 7719  10.304  10.320   3.311
46409W        W 7720  16.307  14.261   2.243
46410W        W 7721  10.637  17.650  12.450
46411W        W 7722  42.864  26.112   2.862
46412W        W 7723  22.124  29.133   3.313
46413W        W 7724  30.957  42.421  13.906
46414W        W 7725  13.792  10.879   1.366
46415W        W 7726  39.464  29.077   4.775
46416W        W 7727  28.562  12.816  14.401
46417W        W 7728  17.080  18.574   3.202
46418W        W 7729  21.648  42.503  12.069
46419W        W 7730  35.953  21.068  10.047
46420W        W 7731  40.905  41.916  11.582
46421W        W 7732  16.768  22.649  10.980
46422W        W 7733   4.317  39.981   0.374
46423W        W 7734  12.215  12.815  12.450
46424W        W 7735  35.584   6.737   4.137
46425W        W 7736   6.735   8.262   2.388
46426W        W 7737  29.046  28.670   3.632
46427W        W 7738  23.655  35.541  12.537
46428W        W 7739  14.770  20.723  13.876
46429W        W 7740  39.451   4.419   1.210
46430W        W 7741   8.345  20.613   0.367
46431W        W 7742  38.978   2.905   0.263
46432W        W 7743  25.195  23.230  14.392
46433W        W 7744  19.262   9.731  12.867
46434W        W 7745  34.493  38.061   3.744
46435W        W 7746  41.396  19.559  13.488
46436W        W 7747  21.736   3.716  14.952
46437W        W 7748  34.940  23.596  11.442
46438W        W 7749  28.557  30.588   3.763
46439W        W 7750  37.031  20.719   4.647
46440W        W 7751  27.184  13.181  13.827
46441W        W 7752  26.189   4.272   2.318
46442W        W 7753  40.834   5.353  11.051
46443W        W 7754  41.381  24.624   4.741
46444W        W 7755  40.943   5.781   1.844
46445W        W 7756  26.138  27.198  14.964
46446W        W 7757  33.598  32.011  11.562
46447W        W 7758  34.594  15.811   2.239
46448W        W 7759   0.820  20.265  14.352
46449W        W 7760  32.006   3.750  11.421
46450W        W 7761  18.746   9.694   2.826
46451W        W 7762  20.582  26.962   3.371
46452W        W 7763  43.510  40.350  13.875
46453W        W 7764  14.101  22.136  11.972
46454W        W 7765   8.817   3.426  11.386
46455W        W 7766  18.124  39.901   0.331
46456W        W 7767  28.620   0.304  13.395
46457W        W 7768  18.715  42.449   1.384
46458W        W 7769   8.897   6.843   0.437
46459W        W 7770  13.246  25.049  11.116
46460W        W 7771  38.068  22.021  11.008
46461W        W 7772  13.661  34.533   2.761
46462W        W 7773  12.277  35.544   1.276
46463W        W 7774   2.259  30.582   5.143
46464W        W 7775  12.260  10.644  12.521
46465W        W 7776   3.308  31.501   3.718
46466W        W 7777  40.962  33.993  14.384
46467W        W 7778  43.994  35.009  10.915
46468W        W 7779  33.453  17.671   2.274
46469W        W 7780  12.651  29.978  12.091
46470W        W 7781  34.472  41.446  11.969
46471W        W 7782   5.219  15.115  11.060
46472W        W 7783  25.193   8.349  13.321
46473W        W 7784  38.561  44.397   1.733
46474W        W 7785  20.266  26.105  11.531
46475W        W 7786  20.238  28.128   2.796
46476W        W 7787   4.292  31.098  14.955
46477W        W 7788  37.358  17.603  14.359
46478W        W 7789  14.714  20.596  14.375
46479W        W 7790  23.684  17.228   1.428
46480W        W 7791   8.870  36.373  13.507
46481W        W 7792   7.690  37.361  13.904
46482W        W 7793  40.849   9.364   4.258
46483W        W 7794   5.208   2.944   0.781
46484W        W 7795  21.621  40.874   3.269
46485W        W 7796  36.377  15.252   3.671
46486W        W 7797  17.202  32.961   4.701
46487W        W 7798  40.541  17.677  12.381
46488W        W 7799  27.033  27.567  13.977
46489W        W 7800   0.794   8.222   1.783
46490W        W 7801   6.351  28.608  13.011
46491W        W 7802  41.292   8.207  14.857
46492W        W 7803  36.999  31.592  11.881
46493W        W 7804  13.280  44.312  10.954
46494W        W 7805   4.267  37.497   5.310
46495W        W 7806   8.301  43.841   1.280
46496W        W 7807  26.984  44.339   4.329
46497W        W 7808   0.814  22.535  13.966
46498W        W 7809   3.387   1.262  13.352
46499W        W 7810   7.797  22.176  14.846
46500W        W 7811  24.117  38.511   4.239
46501W        W 7812  22.093  19.563  13.389
46502W        W 7813  39.917  26.057  14.778
46503W        W 7814  19.547  31.088   1.333
46504W        W 7815  19.601  24.618  12.497
46505W        W 7816  23.501   3.885  14.815
46506W        W 7817   7.379  21.231   3.354
46507W        W 7818  12.743  21.653  13.791
46508W        W 7819  26.014  23.736   3.324
46509W        W 7820  32.431   4.937   2.803
46510W        W 7821  20.100  35.395  11.126
46511W        W 7822   6.400  28.135   4.163
46512W        W 7823   2.378  16.712   3.281
46513W        W 7824   1.480  35.940  11.905
46514W        W 7825  36.476   1.239  12.351
46515W        W 7826   1.313  35.419  13.991
46516W        W 7827  23.570  24.100   0.411
46517W        W 7828   3.388  26.611  10.959
46518W        W 7829  35.950   4.752   4.733
46519W        W 7830  39.040   4.727  14.355
46520W        W 7831  42.896  29.959  14.330
46521W        W 7832   8.805  30.138   0.314
46522W        W 7833  31.515  40.976  13.476
46523W        W 7834  36.844  25.550  12.947
46524W        W 7835   6.238  43.269   3.305
46525W        W 7836  11.705  14.294  10.139
46526W        W 7837  41.470  44.346  12.094
46527W        W 7838  32.637  43.332   3.307
46528W        W 7839  21.622   8.399   2.300
46529W        W 7840  23.577  24.127  10.926
46530W        W 7841   4.287  24.554  13.403
46531W        W 7842  13.159  23.202  14.819
46532W        W 7843   3.811   4.821   3.731
46533W        W 7844   9.846  22.021  14.314
46534W        W 7845  20.114   6.837   2.860
46535W        W 7846  16.131  19.045  14.842
46536W        W 7847  39.904  24.055   3.789
46537W        W 7848  42.487  17.661  11.509
46538W        W 7849  22.027  13.787   0.459
46539W        W 7850   3.792  15.759  11.432
46540W        W 7851  39.337   0.855   2.852
46541W        W 7852  34.113   5.242   1.722
46542W        W 7853  12.335  14.667  12.850
46543W        W 7854   3.741   2.896   2.382
46544W        W 7855  36.382  18.648   2.677
46545W        W 7856  19.247  41.353   3.701
46546W        W 7857  14.615  24.657  13.004
46547W        W 7858  10.246  23.151  14.866
46548W        W 7859  12.173  11.362   2.307
46549W        W 7860  24.193  37.462   0.456
46550W        W 7861  44.769   0.755  12.906
46551W        W 7862  22.044  35.993  11.562
46552W        W 7863  25.694  38.063   0.335
46553W        W 7864   5.437   8.245   3.348
46554W        W 7865   3.344   4.331   2.207
46555W        W 7866  17.592  29.025   0.756
46556W        W 7867  41.790  41.329  10.535
46557W        W 7868  39.495  44.902  11.974
46558W        W 7869  34.098   4.936   3.203
46559W        W 7870  19.064  42.473   3.732
46560W        W 7871  25.077   7.813   0.735
46561W        W 7872  15.284  29.980  11.886
46562W        W 7873  15.136  43.981   1.251
46563W        W 7874   8.742  11.340  11.985
46564W        W 7875  13.705  34.380  13.893
46565W        W 7876  14.725  12.191  13.376
46566W        W 7877   5.882  17.706   1.876
46567W        W 7878  34.572  31.130  14.792
46568W        W 7879   3.263   5.336   4.298
46569W        W 7880   4.356  14.768   5.588
46570W        W 7881   1.447  17.617  11.892
46571W        W 7882  34.964  13.280   1.310
46572W        W 7883   5.862  32.595   1.927
46573W        W 7884  32.577   1.448  13.482
46574W        W 7885  31.005  36.508   3.860
46575W        W 7886  24.650  34.105   2.678
46576W        W 7887   3.274  15.205  14.921
46577W        W 7888  26.059   7.351  14.965
46578W        W 7889  30.555  25.697  10.891
46579W        W 7890  35.982  32.076  11.511
46580W        W 7891   0.421   5.291   0.475
46581W        W 7892  25.571  35.486   0.731
46582W        W 7893  24.690  10.251   4.197
46583W        W 7894  22.553  40.839  14.417
46584W        W 7895  37.964  28.586  10.594
46585W        W 7896  37.934  10.169  13.467
46586W        W 7897   5.894  34.604  13.402
46587W        W 7898  38.051  23.063   3.849
46588W        W 7899   5.335   4.934   4.127
46589W        W 7900   8.766  14.715  10.976
46590W        W 7901  24.644  17.786  12.974
46591W        W 7902  40.520  19.652   5.113
46592W        W 7903   3.944  40.545  10.423
46593W        W 7904  43.890  30.437  12.375
46594W        W 7905  19.102  29.556  13.522
46595W        W 7906  29.014  41.853  14.387
46596W        W 7907  21.574  22.244  11.510
46597W        W 7908  35.941   8.769   1.408
46598W        W 7909  32.512  25.124  12.904
46599W        W 7910  21.071   4.310  14.421
46600W        W 7911  35.965   4.279   0.738
46601W        W 7912  30.946  20.556  11.449
46602W        W 7913  36.394  32.970   4.341
46603W        W 7914  13.183  20.165   1.234
46604W        W 7915  17.657  13.279  10.887
46605W        W 7916  22.044   7.710   1.293
46606W        W 7917  42.879   2.802   4.836
46607W        W 7918  25.558  26.988  13.352
46608W        W 7919  27.148  23.613  14.900
46609W        W 7920  13.179  31.593  11.051
46610W        W 7921  24.013  33.550  10.579
46611W        W 7922  42.016   2.877  10.420
46612W        W 7923  44.945   4.253  11.560
46613W        W 7924  33.978  10.212  12.353
46614W        W 7925  36.523  10.780   2.380
46615W        W 7926  25.504  32.635   4.266
46616W        W 7927  30.557  24.103  10.899
46617W        W 7928  27.502  37.532  11.473
46618W        W 7929  22.735  25.210   3.649
46619W        W 7930  13.344  34.993   4.645
46620W        W 7931   5.771  21.128  12.072
46621W        W 7932  17.788  33.450  14.446
46622W        W 7933   0.252  41.963   0.441
46623W        W 7934  17.177  32.512  10.420
46624W        W 7935  13.198   7.894   0.798
46625W        W 7936  12.305  24.548  11.019
46626W        W 7937  27.464  14.154  14.924
46627W        W 7938  21.513  25.710  12.884
46628W        W 7939  40.995  31.090   3.845
46629W        W 7940  25.217  16.662  12.574
46630W        W 7941   0.871   8.731   1.236
46631W        W 7942  10.259  12.203  12.508
46632W        W 7943   6.824   1.242   3.313
46633W        W 7944   7.796  34.474  14.364
46634W        W 7945  23.546   9.646   3.720
46635W        W 7946  26.690  44.380  12.449
46636W        W 7947  21.646  34.518   0.482
46637W        W 7948  44.419  14.311   4.688
46638W        W 7949  17.205  12.762  14.770
46639W        W 7950  27.512   1.756  11.590
46640W        W 7951  33.095  33.590   4.701
46641W        W 7952  35.856  17.164   3.845
46642W        W 7953  39.475  15.671   1.835
46643W        W 7954  33.126   6.694   4.640
46644W        W 7955  25.485  19.754  13.343
46645W        W 7956  22.238  29.670  13.535
46646W        W 7957  26.583  41.987  14.997
46647W        W 7958  34.590   6.352  12.471
46648W        W 7959  33.094  18.138   2.363
46649W        W 7960   9.705  17.732   3.373
46650W        W 7961  17.200  20.663  13.517
46651W        W 7962  42.887  33.000  14.820
46652W        W 7963  40.812  31.939  13.825
46653W        W 7964  29.919  41.530   1.715
46654W        W 7965   6.390   1.257   2.868
46655W        W 7966  13.828  29.645  14.314
46656W        W 7967   5.692  24.559  13.984
46657W        W 7968  31.595  40.498  10.985
46658W        W 7969  18.733   0.826   3.819
46659W        W 7970  19.220  27.008   2.300
46660W        W 7971   1.402  32.953   0.769
46661W        W 7972  18.169  19.679   4.192
46662W        W 7973  26.648  28.970  13.529
46663W        W 7974   9.210  20.630  11.571
46664W        W 7975  15.328  31.052   2.807
46665W        W 7976  11.726  18.627  12.839
46666W        W 7977  33.955  33.607   0.276
46667W        W 7978   6.335  44.856  12.461
46668W        W 7979  31.925   5.892  14.806
46669W        W 7980  33.948  32.424   0.823
46670W        W 7981  27.980  34.119  10.577
46671W        W 7982   3.767  34.376  13.399
46672W        W 7983  43.471  19.627   1.305
46673W        W 7984  13.227  30.028  14.914
46674W        W 7985  30.545  16.296  11.915
46675W        W 7986   9.788  31.001   0.955
46676W        W 7987  15.653  33.072  10.641
46677W        W 7988  44.420  37.433   0.894
46678W        W 7989  15.174  15.190   5.265
46679W        W 7990  36.526  40.371  12.503
46680W        W 7991  14.682  31.041   0.318
46681W        W 7992  36.386  41.464  10.583
46682W        W 7993  44.888  34.575   3.344
46683W        W 7994  14.803  40.992   4.264
46684W        W 7995  12.656  17.113  11.473
46685W        W 7996  28.500  44.882   1.833
46686W        W 7997  22.105  14.303   3.332
46687W        W 7998  40.007   7.236  11.448
46688W        W 7999  24.169  31.635  12.898
46689W        W 8000  17.713   4.208   1.854
46690W        W 8001  13.718  10.254   1.738
46691W        W 8002  13.317  16.087   2.412
46692W        W 8003  34.381  38.969  14.872
46693W        W 8004  40.047  18.781  14.916
46694W        W 8005  29.975  12.783   3.634
46695W        W 8006  10.664   8.846  12.532
46696W        W 8007  10.721  19.648   4.188
46697W        W 8008  41.431  27.491   4.837
46698W        W 8009  24.105  26.124   0.753
46699W        W 8010  37.037   6.385  13.428
46700W        W 8011   3.435   3.895  11.426
46701W        W 8012  39.034  22.151  13.430
46702W        W 8013   7.404   4.905  13.008
46703W        W 8014   6.227  10.210  12.945
46704W        W 8015  18.645   0.440  13.857
46705W        W 8016   9.854   8.782  14.338
46706W        W 8017   1.736  33.029   2.290
46707W        W 8018  15.091  16.766   1.911
46708W        W 8019  41.887  28.095   3.756
46709W        W 8020  22.743  42.366   0.760
46710W        W 8021  39.934  39.946  10.509
46711W        W 8022   2.805  15.646  12.372
46712W        W 8023   9.867   0.294  13.866
46713W        W 8024  20.552  42.330   3.264
46714W        W 8025  14.591  13.670   4.681
46715W        W 8026  40.016  20.167  13.480
46716W        W 8027  33.403  20.267  12.562
46717W        W 8028   7.369  30.121  13.892
46718W        W 8029  18.672  30.447   0.400
46719W        W 8030   1.769  12.356   3.815
46720W        W 8031  14.821   0.367  10.066
46721W        W 8032  20.658  21.666   4.288
46722W        W 8033   3.944  17.151  14.888
46723W        W 8034   7.699   1.378   2.407
46724W        W 8035  41.997  24.131   1.425
46725W        W 8036  37.854  14.241  13.421
46726W        W 8037  21.688  41.442  12.902
46727W        W 8038  37.932  17.615  10.430
46728W        W 8039  33.600  44.412   2.901
46729W        W 8040  30.582  42.478   2.219
46730W        W 8041   4.785  44.433   5.133
46731W        W 8042  43.920  43.928  12.015
46732W        W 8043  15.790   0.270   9.922
46733W        W 8044  30.103  42.922  11.913
46734W        W 8045  27.590  30.020   1.298
46735W        W 8046  43.381  41.017  13.038
46736W        W 8047   6.720  43.366  13.329
46737W        W 8048  10.669  10.857   0.336
46738W        W 8049  42.306  23.645   2.207
46739W        W 8050  36.449  34.893  11.888
46740W        W 8051  33.039   2.470   0.412
46741W        W 8052  14.598  21.603  13.340
46742W        W 8053  34.464  30.129  12.870
46743W        W 8054  29.438  21.028   3.288
46744W        W 8055  13.841  18.744  10.605
46745W        W 8056  41.337   8.335   1.346
46746W        W 8057  20.691  10.858   1.404
46747W        W 8058  23.661   7.386  13.492
46748W        W 8059  33.931  16.120  13.927
46749W        W 8060   3.246   5.251  10.461
46750W        W 8061   6.741  29.055   2.208
46751W        W 8062  18.729  39.413  14.500
46752W        W 8063  41.446  17.232   0.435
46753W        W 8064  42.311  40.302   2.775
46754W        W 8065  15.137   3.872   1.266
46755W        W 8066   7.335  27.546   0.289
46756W        W 8067  23.062  31.450  13.970
46757W        W 8068   9.166   5.770   4.315
46758W        W 8069  10.294  27.502   3.261
46759W        W 8070  28.069   9.208  11.518
46760W        W 8071   2.811   8.327   0.776
46761W        W 8072  24.004   6.388  11.399
46762W        W 8073  19.585  16.271  13.440
46763W        W 8074  25.596  33.045  14.425
46764W        W 8075   6.719  29.928   3.690
46765W        W 8076  40.319  36.468  13.335
46766W        W 8077  40.455  16.603   1.810
46767W        W 8078  42.016  10.277   3.776
46768W        W 8079  34.396  13.327   4.291
46769W        W 8080  26.986  43.860   2.720
46770W        W 8081  16.685  44.811   3.189
46771W        W 8082   2.367  44.326  13.959
46772W        W 8083  21.529   8.332   0.286
46773W        W 8084  41.502  32.980  13.395
46774W        W 8085  10.294  24.058   3.861
46775W        W 8086  15.328  30.625   3.378
46776W        W 8087  27.520  24.557  13.519
46777W        W 8088   9.725   1.438   4.677
46778W        W 8089  27.988  15.201  12.459
46779W        W 8090  21.213   3.330  11.547
46780W        W 8091   6.860  13.643  13.311
46781W        W 8092  33.965  11.807  11.859
46782W        W 8093  26.550  27.483  12.566
46783W        W 8094  44.826  19.060   3.844
46784W        W 8095  24.544  34.922  11.062
46785W        W 8096  37.494  17.574  12.037
46786W        W 8097  15.633  41.902   4.746
46787W        W 8098  36.024  12.233   0.729
46788W        W 8099  32.457  18.246   4.783
46789W        W 8100   1.912  11.775  14.001
46790W        W 8101  36.055   8.260  14.826
46791W        W 8102  30.576  15.088  12.440
46792W        W 8103  24.163  23.506  14.859
46793W        W 8104  32.098  33.576   1.916
46794W        W 8105  22.037  42.504   2.349
46795W        W 8106  41.451  44.343  11.119
46796W        W 8107  32.960  23.516   0.868
46797W        W 8108  14.681   5.690  12.463
46798W        W 8109  44.282  35.037  13.027
46799W        W 8110  18.722  29.008  12.000
46800W        W 8111  40.389  38.059   3.714
46801W        W 8112  31.564  13.687  11.913
46802W        W 8113   7.368   4.776  11.954
46803W        W 8114  24.045  24.118   5.238
46804W        W 8115   1.382  27.454   4.830
46805W        W 8116  16.253   8.700  10.923
46806W        W 8117  39.916  38.527  10.588
46807W        W 8118  33.917  27.633  10.964
46808W        W 8119  44.757  19.558  10.461
46809W        W 8120  41.812  19.709  14.373
46810W        W 8121  20.642  18.701  14.778
46811W        W 8122   1.933  30.610  14.333
46812W        W 8123  37.474  44.978  14.314
46813W        W 8124  32.080  12.784  10.024
46814W        W 8125  35.951  11.775  11.003
46815W        W 8126  26.559  20.159  11.569
46816W        W 8127  26.059  25.170  13.858
46817W        W 8128  20.058   7.857   4.780
46818W        W 8129  42.025  13.793  14.895
46819W        W 8130  32.392  18.174   3.198
46820W        W 8131  17.134   1.376  11.554
46821W        W 8132  26.666  20.263   0.243
46822W        W 8133  41.490  22.038  14.835
46823W        W 8134  24.541  41.972  12.080
46824W        W 8135  13.673  23.135  13.973
46825W        W 8136  40.478   6.819  11.987
46826W        W 8137  28.032  25.552  13.864
46827W        W 8138  15.655  41.963   3.346
46828W        W 8139  42.418  10.287   3.176
46829W        W 8140  11.310  43.846  11.071
46830W        W 8141  37.959  16.692   1.799
46831W        W 8142  41.798  37.050   2.720
46832W        W 8143  27.991  37.399   9.928
46833W        W 8144   2.793  31.472   0.394
46834W        W 8145  30.143   0.751   2.405
46835W        W 8146  36.965  24.072  10.439
46836W        W 8147  34.589  35.969  14.372
46837W        W 8148  24.612  27.549  13.842
46838W        W 8149  14.610  23.065  11.442
46839W        W 8150  40.409  32.399   3.381
46840W        W 8151  38.473   9.293  11.429
46841W        W 8152  20.160   0.481  11.457
46842W        W 8153   7.405  42.354  12.839
46843W        W 8154  13.610   9.705  13.812
46844W        W 8155  20.223  31.067   0.466
46845W        W 8156  33.072  23.708  14.440
46846W        W 8157   3.762  35.048  10.970
46847W        W 8158  10.689  33.096  13.796
46848W        W 8159   0.752  33.960  14.340
46849W        W 8160  22.075  30.487   1.381
46850W        W 8161  41.538   4.346  13.309
46851W        W 8162  26.132   6.405   1.396
46852W        W 8163  38.358  16.661   1.821
46853W        W 8164  12.335  10.147   0.303
46854W        W 8165  38.030  43.458   0.286
46855W        W 8166  30.135  34.022  14.417
46856W        W 8167   8.849  42.485   1.364
46857W        W 8168  36.584  23.990   2.273
46858W        W 8169  42.371  43.793  13.044
46859W        W 8170   3.349   0.331  14.904
46860W        W 8171   3.724   8.801   0.779
46861W        W 8172  14.631  13.195   3.748
46862W        W 8173  23.005   4.354  13.485
46863W        W 8174  29.102   3.283   3.736
46864W        W 8175  25.029  21.124   0.837
46865W        W 8176  13.235  38.398   2.275
46866W        W 8177  16.076  43.385   0.840
46867W        W 8178  38.451  24.687  10.560
46868W        W 8179   7.227  14.626  12.556
46869W        W 8180  44.808  20.553  12.349
46870W        W 8181   4.918  33.493  10.632
46871W        W 8182   3.735  41.291  12.074
46872W        W 8183   7.346   0.376  14.421
46873W        W 8184  25.064  43.378   4.121
46874W        W 8185  13.178   7.801  12.886
46875W        W 8186  11.790  27.157  11.058
46876W        W 8187   2.840  24.021   2.282
46877W        W 8188   6.774  36.369  10.464
46878W        W 8189  17.780   3.777   0.319
46879W        W 8190  10.294  36.005  11.893
46880W        W 8191  18.117  31.101   1.232
46881W        W 8192   6.211  42.949   1.415
46882W        W 8193   0.272  43.448  10.550
46883W        W 8194  33.965  25.616   0.916
46884W        W 8195  43.780  35.964   1.447
46885W        W 8196  35.579  22.158   0.303
46886W        W 8197  39.058   8.404   1.288
46887W        W 8198  40.410   5.226  14.833
46888W        W 8199   4.222  19.122   5.303
46889W        W 8200  18.280  14.172  12.047
46890W        W 8201  41.383  40.835   1.831
46891W        W 8202  28.610  32.141   3.796
46892W        W 8203  31.551  37.045  13.054
46893W        W 8204  43.460  28.038  13.467
46894W        W 8205  24.605   5.899  12.369
46895W        W 8206  35.399  42.937   1.448
46896W        W 8207  16.296  22.068   4.784
46897W        W 8208  43.858  35.481  11.385
46898W        W 8209  20.646  13.263  12.011
46899W        W 8210  44.837  30.562   0.365
46900W        W 8211  32.547   8.788   3.647
46901W        W 8212  17.121   1.957  12.451
46902W        W 8213  36.911  11.246   1.239
46903W        W 8214  29.612  28.457   2.417
46904W        W 8215  24.509   6.780   4.681
46905W        W 8216  32.982  32.972  14.784
46906W        W 8217  23.193  20.551  10.609
46907W        W 8218  29.162  24.637   2.288
46908W        W 8219   5.340  11.704   3.172
46909W        W 8220  16.781   2.450   3.183
46910W        W 8221  27.108  14.270   4.636
46911W        W 8222  26.676   9.219  10.495
46912W        W 8223   8.895  25.593  11.508
46913W        W 8224   8.215  15.608   4.645
46914W        W 8225  23.210  31.444   3.748
46915W        W 8226  30.604   6.249   1.779
46916W        W 8227  11.129  16.270   1.697
46917W        W 8228  11.316  24.219  11.503
46918W        W 8229  27.511  28.557   2.798
46919W        W 8230  23.991  38.829   4.823
46920W        W 8231  26.990  40.418   3.300
46921W        W 8232  26.515  43.966   0.273
46922W        W 8233  18.671  17.279  11.903
46923W        W 8234  25.562   0.938   0.295
46924W        W 8235  35.981  33.891  11.388
46925W        W 8236  40.377  19.273  13.444
46926W        W 8237  20.632  27.975  12.064
46927W        W 8238  27.025  36.994   4.748
46928W        W 8239  27.008  40.406  10.462
46929W        W 8240  41.921  34.010  10.601
46930W        W 8241  17.727   0.936  14.382
46931W        W 8242  12.687   8.165   1.450
46932W        W 8243  27.107  28.618   3.190
46933W        W 8244   5.406   0.387   3.290
46934W        W 8245  15.249   7.783   3.275
46935W        W 8246  15.230  17.072   2.383
46936W        W 8247  15.185  30.966  14.906
46937W        W 8248  14.302   4.263   1.814
46938W        W 8249  19.551  43.789  12.356
46939W        W 8250   7.274  30.980  13.862
46940W        W 8251  19.067  34.465   2.785
46941W        W 8252  43.497  41.982   3.198
46942W        W 8253  27.682  30.062   2.847
46943W        W 8254   8.243  22.645   4.688
46944W        W 8255  28.671  32.023  11.103
46945W        W 8256  22.166  27.639  13.889
46946W        W 8257  32.608  37.363  13.887
46947W        W 8258  38.362   5.724  14.455
46948W        W 8259  18.160  23.611  10.584
46949W        W 8260   6.348  25.695   2.897
46950W        W 8261  22.224  20.709   3.348
46951W        W 8262  11.862  32.484  13.449
46952W        W 8263  19.698   3.730   3.333
46953W        W 8264  18.249  32.029  13.957
46954W        W 8265  18.262  30.163   4.240
46955W        W 8266  25.530   5.760   2.661
46956W        W 8267  27.637  23.637  12.394
46957W        W 8268  30.044   3.269   1.695
46958W        W 8269  32.551  32.097  13.328
46959W        W 8270  18.715  44.316   4.167
46960W        W 8271  21.168  29.114  13.026
46961W        W 8272  17.697  44.870   4.145
46962W        W 8273  29.114  21.021   3.843
46963W        W 8274  44.423  13.139  12.504
46964W        W 8275  27.678  17.772  12.377
46965W        W 8276  36.090  15.740  10.936
46966W        W 8277  44.343  32.633   2.311
46967W        W 8278  30.132  21.204  11.487
46968W        W 8279   8.662  22.513   4.220
46969W        W 8280  10.644  19.110  13.029
46970W        W 8281  32.062  34.966  11.081
46971W        W 8282  38.391   3.296   4.292
46972W        W 8283  20.536  42.923   0.889
46973W        W 8284  31.987  36.859   1.820
46974W        W 8285  23.707  27.151  14.377
46975W        W 8286  34.973  38.971   3.193
46976W        W 8287  37.902  25.506  12.385
46977W        W 8288   9.851  33.936  11.403
46978W        W 8289  19.140  37.434   0.326
46979W        W 8290   7.795  30.552   5.314
46980W        W 8291  33.011  26.535  14.897
46981W        W 8292   1.243   4.421  10.569
46982W        W 8293  28.029  44.310   4.669
46983W        W 8294   1.427   7.793   2.797
46984W        W 8295  12.831  29.670   4.169
46985W        W 8296   8.196   9.861  11.121
46986W        W 8297  31.985  33.396   4.728
46987W        W 8298  27.636  11.204   2.256
46988W        W 8299   3.372   4.418   2.699
46989W        W 8300   1.271  18.125   3.698
46990W        W 8301  29.984  36.400  14.359
46991W        W 8302   4.737  15.162   3.313
46992W        W 8303  12.810  30.966  14.001
46993W        W 8304  16.161   0.802  11.978
46994W        W 8305  33.915  21.678   2.270
46995W        W 8306  23.074  43.769  13.540
46996W        W 8307   5.289  22.201   3.849
46997W        W 8308  27.095  19.550  11.861
46998W        W 8309  18.668  32.956  11.970
46999W        W 8310  37.343  16.132   4.279
47000W        W 8311  29.606   9.868  14.476
47001W        W 8312  41.813  24.086   0.402
47002W        W 8313   9.380  40.362   2.693
47003W        W 8314  40.805   4.811   1.744
47004W        W 8315  11.166  28.980  10.450
47005W        W 8316  31.569  22.080  11.906
47006W        W 8317  42.376   4.748  11.539
47007W        W 8318  15.291  19.754  14.356
47008W        W 8319  19.057  32.033   5.319
47009W        W 8320  27.629  28.151   0.923
47010W        W 8321  43.325  22.251  13.469
47011W        W 8322  33.559  12.218  14.990
47012W        W 8323   1.263  38.476  12.481
47013W        W 8324  19.177  19.171   4.626
47014W        W 8325  29.122  22.111   4.618
47015W        W 8326  24.541  22.062   2.846
47016W        W 8327  34.566  29.580   0.359
47017W        W 8328  13.195  22.086   1.301
47018W        W 8329  22.221  33.067  13.047
47019W        W 8330  37.537  28.527   2.331
47020W        W 8331  13.151  27.672  10.604
47021W        W 8332   9.313  39.995  10.599
47022W        W 8333  28.949  12.155   4.791
47023W        W 8334  27.515  12.325  12.823
47024W        W 8335  19.600  15.299   4.200
47025W        W 8336   8.820   9.331  13.797
47026W        W 8337  37.008   5.419   3.309
47027W        W 8338   2.912   8.871   2.190
47028W        W 8339   7.178  18.587  10.947
47029W        W 8340  12.179  41.018   3.160
47030W        W 8341  30.989  42.031  14.336
47031W        W 8342  13.243  30.531   1.213
47032W        W 8343  44.954  30.537  13.377
47033W        W 8344   4.884   5.739   3.650
47034W        W 8345  25.479   9.290   2.218
47035W        W 8346  23.200  36.519  14.294
47036W        W 8347  36.542  18.129  10.634
47037W        W 8348  36.057  27.022   0.395
47038W        W 8349   2.831  12.814   2.258
47039W        W 8350  10.779   2.856   2.281
47040W        W 8351   3.730  16.179  14.942
47041W        W 8352  39.366  42.843   4.757
47042W        W 8353   9.832  40.830   4.290
47043W        W 8354  21.073  33.954   3.735
47044W        W 8355  11.253  43.461  11.940
47045W        W 8356   1.828  26.050  14.876
47046W        W 8357  21.594  28.499  12.016
47047W        W 8358  23.564  32.904   2.289
47048W        W 8359  20.222  30.659   2.242
47049W        W 8360   3.302  27.974   2.233
47050W        W 8361  43.777  27.470   1.325
47051W        W 8362  24.208  30.998  13.827
47052W        W 8363  42.979  27.619  13.015
47053W        W 8364  16.200  13.820   5.242
47054W        W 8365   6.741  43.353   2.799
47055W        W 8366  41.810  37.070   0.394
47056W        W 8367  12.307   8.296   3.267
47057W        W 8368  42.790  33.904  11.975
47058W        W 8369  22.559   4.853  11.979
47059W        W 8370  12.618  44.947  12.010
47060W        W 8371  29.565  21.024   0.410
47061W        W 8372  15.104  44.431   4.261
47062W        W 8373   6.185  26.662   1.768
47063W        W 8374  32.957  31.027  11.435
47064W        W 8375  11.799  12.119   3.196
47065W        W 8376  22.573  14.701  10.464
47066W        W 8377  41.889  10.357  10.146
47067W        W 8378  32.953  44.903   0.329
47068W        W 8379  44.274  14.296  12.370
47069W        W 8380  29.611  12.658   2.266
47070W        W 8381  24.199  34.425   0.442
47071W        W 8382  44.271   8.205  11.999
47072W        W 8383  40.904  19.569  12.464
47073W        W 8384  33.933  30.044   1.785
47074W        W 8385  40.464  39.367   4.331
47075W        W 8386  14.695  26.954   2.379
47076W        W 8387   1.804   3.240   2.809
47077W        W 8388   8.790  22.640  11.481
47078W        W 8389  18.204  18.065   3.197
47079W        W 8390  44.797  24.610   4.350
47080W        W 8391   8.293  33.570  10.455
47081W        W 8392   9.714  41.837   1.250
47082W        W 8393   3.324   8.889   3.153
47083W        W 8394  31.948  40.835   0.342
47084W        W 8395   7.766  31.433   2.208
47085W        W 8396  40.465  27.147  11.924
47086W        W 8397  37.034  26.143  13.912
47087W        W 8398  20.702  25.097  12.883
47088W        W 8399  38.825  13.760  14.356
47089W        W 8400  40.451  26.537   2.298
47090W        W 8401  42.518  44.368   4.680
47091W        W 8402  25.606  35.567  13.904
47092W        W 8403  39.367   8.754  14.941
47093W        W 8404  25.585  10.836  12.866
47094W        W 8405   2.396   5.796  14.349
47095W        W 8406  19.095  26.507   1.790
47096W        W 8407   4.742   5.387   3.371
47097W        W 8408  11.807  43.394   2.704
47098W        W 8409  41.514  14.636  11.053
47099W        W 8410  20.220   5.408  11.381
47100W        W 8411  39.419  35.048  13.914
47101W        W 8412  43.335  23.622  13.855
47102W        W 8413  14.142  31.567   3.297
47103W        W 8414  14.229  14.336  14.781
47104W        W 8415  44.815  31.533   0.759
47105W        W 8416  13.120  16.218   0.434
47106W        W 8417  27.011  28.522  11.372
47107W        W 8418  41.341  22.719  10.437
47108W        W 8419  40.506  19.267  10.471
47109W        W 8420  37.514  13.755   2.227
47110W        W 8421  42.451   2.340  11.426
47111W        W 8422   5.843  11.160  11.960
47112W        W 8423  44.806  23.658   0.869
47113W        W 8424  43.790  19.212  10.959
47114W        W 8425  14.766  30.037  13.868
47115W        W 8426  42.343  28.962  14.017
47116W        W 8427  30.510  43.870  10.599
47117W        W 8428  18.768  26.073   4.672
47118W        W 8429  42.512  19.672   3.792
47119W        W 8430  29.499  11.830   4.834
47120W        W 8431  42.457  28.599  13.513
47121W        W 8432  35.004  18.567  10.536
47122W        W 8433  19.105  27.078  12.971
47123W        W 8434  44.867   4.322   0.939
47124W        W 8435  31.123   9.274  11.552
47125W        W 8436  10.703  13.257  13.858
47126W        W 8437  28.029  35.067  10.408
47127W        W 8438  25.119  19.561  14.375
47128W        W 8439   2.260  37.446   1.837
47129W        W 8440   1.743  15.284   3.252
47130W        W 8441  22.742   3.453  11.856
47131W        W 8442  11.856   2.885   1.725
47132W        W 8443  39.329  41.043   2.823
47133W        W 8444  10.353  42.003   5.198
47134W        W 8445   7.886  12.356  11.923
47135W        W 8446  40.363  42.938  13.446
47136W        W 8447  42.926  40.970  10.583
47137W        W 8448  37.912   0.389   2.337
47138W        W 8449  12.201  25.684  10.906
47139W        W 8450  31.519   2.828   2.841
47140W        W 8451  15.763  37.347   0.382
47141W        W 8452  19.617  18.064  13.369
47142W        W 8453  12.630  31.490  11.584
47143W        W 8454  20.174   7.378   4.776
47144W        W 8455  24.176  33.070   0.747
47145W        W 8456  20.076  14.785  13.311
47146W        W 8457  42.856   5.704  12.926
47147W        W 8458  35.980  43.321  13.830
47148W        W 8459   6.326  30.059  12.488
47149W        W 8460  13.137  32.433  11.421
47150W        W 8461  27.079  40.926  10.975
47151W        W 8462  32.586  12.771   3.752
47152W        W 8463  26.610  21.584  12.032
47153W        W 8464  36.370  13.654   3.721
47154W        W 8465  42.016   8.702  13.944
47155W        W 8466  40.447  30.158   3.851
47156W        W 8467  41.320  38.459  10.594
47157W        W 8468  11.228  19.053   2.765
47158W        W 8469  15.701  24.088   3.226
47159W        W 8470  36.419  38.074  13.928
47160W        W 8471  10.647  17.734   4.757
47161W        W 8472  15.112  17.763  10.972
47162W        W 8473  42.956   1.458   4.213
47163W        W 8474  43.377  31.489  11.892
47164W        W 8475   3.895  35.383  13.482
47165W        W 8476  23.684  40.907  13.887
47166W        W 8477  37.426  16.211   4.728
47167W        W 8478  16.309  11.667  13.810
47168W        W 8479  25.582  29.453  12.575
47169W        W 8480   1.741  21.194  13.516
47170W        W 8481  34.371  34.940   0.307
47171W        W 8482  22.515  40.977  10.511
47172W        W 8483  39.849  17.765   0.955
47173W        W 8484  41.360  29.128   1.763
47174W        W 8485  24.678  22.632   9.951
47175W        W 8486  28.042  20.649  10.981
47176W        W 8487  32.921  10.731  12.440
47177W        W 8488  19.677  21.722   1.774
47178W        W 8489  44.904   7.378  12.890
47179W        W 8490   7.857  41.393   1.250
47180W        W 8491   2.722  33.005  12.540
47181W        W 8492   4.419  19.662  11.433
47182W        W 8493  31.965  29.447   1.890
47183W        W 8494  19.562  30.509   0.424
47184W        W 8495   5.822  18.186  10.422
47185W        W 8496   0.875  19.258  12.505
47186W        W 8497  23.624  21.090  13.006
47187W        W 8498  18.670  25.129  11.374
47188W        W 8499  27.073  12.658   0.844
47189W        W 8500  28.501  20.584  11.111
47190W        W 8501  20.059  36.940   2.251
47191W        W 8502  14.294  23.051  12.093
47192W        W 8503  31.428   7.252   3.193
47193W        W 8504  41.020  36.573  14.361
47194W        W 8505  30.488  29.980  11.504
47195W        W 8506  30.154  17.606  11.037
47196W        W 8507  24.533   5.209   4.247
47197W        W 8508  21.242  37.512   0.288
47198W        W 8509   2.819   2.909  10.638
47199W        W 8510  43.895  20.198   1.315
47200W        W 8511   2.452  40.310  12.841
47201W        W 8512   9.324   0.957  14.941
47202W        W 8513   5.342  42.880  11.382
47203W        W 8514  18.599  30.919   2.312
47204W        W 8515  21.654  25.154  12.875
47205W        W 8516  21.185   6.774   4.756
47206W        W 8517  33.512  13.206  11.008
47207W        W 8518  25.527  36.347  11.509
47208W        W 8519  25.489  22.024   3.845
47209W        W 8520  10.720  33.964  12.577
47210W        W 8521   9.266   9.176  12.374
47211W        W 8522  18.253  16.593   3.189
47212W        W 8523  35.554  14.252   1.321
47213W        W 8524  14.118  36.384  12.379
47214W        W 8525  39.858   9.357  11.387
47215W        W 8526  20.594   1.739   0.328
47216W        W 8527  39.838  29.509  11.504
47217W        W 8528  32.119  10.238   1.748
47218W        W 8529  38.484   2.879  12.004
47219W        W 8530  21.061  36.456  13.927
47220W        W 8531  22.251  33.500   5.251
47221W        W 8532  10.257  28.097  11.060
47222W        W 8533  34.502  28.179   1.316
47223W        W 8534  43.316  38.930   4.341
47224W        W 8535  35.030  23.093   3.754
47225W        W 8536  16.808   1.405   0.961
47226W        W 8537  18.209  44.874   3.636
47227W        W 8538   2.411   0.325  13.808
47228W        W 8539   2.312   8.267  12.465
47229W        W 8540  28.639  35.016  11.035
47230W        W 8541  19.706  32.572   4.654
47231W        W 8542  21.538  38.373   1.871
47232W        W 8543   5.861   6.864   4.125
47233W        W 8544  42.479  40.035   4.302
47234W        W 8545   3.323  31.969   3.723
47235W        W 8546  35.460  29.134   3.823
47236W        W 8547   4.229   0.354   4.719
47237W        W 8548  12.780  39.356   3.657
47238W        W 8549   4.727  42.803   5.223
47239W        W 8550   6.186  16.134   0.334
47240W        W 8551   4.385  11.827  11.543
47241W        W 8552  40.480   5.845   4.137
47242W        W 8553  32.550  38.548  14.333
47243W        W 8554  27.498  16.647  12.021
47244W        W 8555  15.818   3.224   0.887
47245W        W 8556  18.776   5.728  11.509
47246W        W 8557  25.993  14.650   3.815
47247W        W 8558   1.434  11.678   2.667
47248W        W 8559  34.453  25.013   1.842
47249W        W 8560  20.587   5.214  13.044
47250W        W 8561   2.928  32.447   4.281
47251W        W 8562   4.333  27.077  11.444
47252W        W 8563  28.648   9.863   4.320
47253W        W 8564   1.814  18.564  14.437
47254W        W 8565  18.571  28.476   4.641
47255W        W 8566  28.992  37.433  10.508
47256W        W 8567  42.984  34.050  11.573
47257W        W 8568  41.813  37.957  13.961
47258W        W 8569  34.551  13.609   0.257
47259W        W 8570  35.538  43.924  13.519
47260W        W 8571  44.472  25.598   0.354
47261W        W 8572  23.091   5.403   3.312
47262W        W 8573  42.379  16.271  14.400
47263W        W 8574  33.113  21.561  13.036
47264W        W 8575  26.192  16.592  13.895
47265W        W 8576  42.021  12.255  14.949
47266W        W 8577  41.877  41.895   0.346
47267W        W 8578  21.651  15.083   0.325
47268W        W 8579   1.409  41.423  10.542
47269W        W 8580  16.653  34.975  13.006
47270W        W 8581  11.767  42.467  10.959
47271W        W 8582  25.658  29.047  11.876
47272W        W 8583  23.130  19.723   3.178
47273W        W 8584  15.817   1.379   1.282
47274W        W 8585  44.487  12.713   3.237
47275W        W 8586   0.264  21.715   0.368
47276W        W 8587  27.618  22.725   0.733
47277W        W 8588   8.347  39.339   3.716
47278W        W 8589   0.359  25.207  12.911
47279W        W 8590   6.899   7.694  13.976
47280W        W 8591  11.137   9.205   2.199
47281W        W 8592  21.180  38.893  13.407
47282W        W 8593  10.874  34.951  10.495
47283W        W 8594  35.875  39.042   2.809
47284W        W 8595  28.447   7.276  12.496
47285W        W 8596  38.463  13.289   2.882
47286W        W 8597  24.064  27.188  14.006
47287W        W 8598  18.757  37.423  14.932
47288W        W 8599  23.211  40.000  13.350
47289W        W 8600   7.409  32.090   5.103
47290W        W 8601  34.547  30.453   1.214
47291W        W 8602  15.319  34.475  11.522
47292W        W 8603  22.163  12.729   3.203
47293W        W 8604  42.369  23.724   2.774
47294W        W 8605  32.628  30.116  12.931
47295W        W 8606  20.623  29.522  13.806
47296W        W 8607   9.676  28.586  14.381
47297W        W 8608  39.981  26.081   3.786
47298W        W 8609   3.410  29.660   1.402
47299W        W 8610  41.874  18.790  14.015
47300W        W 8611  38.887  14.138   0.825
47301W        W 8612  20.708  34.531  14.504
47302W        W 8613  34.890  37.395  11.941
47303W        W 8614  41.493  39.981  13.454
47304W        W 8615  16.778  29.474   0.274
47305W        W 8616  17.142   7.395  11.407
47306W        W 8617  10.761  11.258   3.788
47307W        W 8618   7.376   7.372   0.929
47308W        W 8619  33.919  34.483   0.269
47309W        W 8620  10.202   6.252  11.000
47310W        W 8621  24.597   9.305  12.846
47311W        W 8622  10.721  14.775   0.369
47312W        W 8623  11.785  42.819  14.465
47313W        W 8624  23.186  15.199   3.770
47314W        W 8625  12.320  37.831  14.429
47315W        W 8626  16.624  10.256   3.229
47316W        W 8627  31.613   8.827  11.939
47317W        W 8628   8.678   0.954  10.950
47318W        W 8629  38.517  12.334   0.392
47319W        W 8630  21.170  21.074   4.822
47320W        W 8631  28.527  26.120  11.037
47321W        W 8632  39.447   6.213   2.196
47322W        W 8633  13.171  19.564   4.827
47323W        W 8634  37.962  42.408   2.895
47324W        W 8635  25.660   6.375   4.126
47325W        W 8636  44.905   8.362   1.789
47326W        W 8637  15.111  14.820  14.277
47327W        W 8638  40.365  26.502   1.697
47328W        W 8639  39.954  31.473   5.600
47329W        W 8640  36.415  42.031  11.532
47330W        W 8641   8.301  11.678  11.003
47331W        W 8642  44.783  43.421   4.314
47332W        W 8643  13.791  16.202   1.931
47333W        W 8644  28.560  36.012   1.324
47334W        W 8645  16.098   7.878   9.979
47335W        W 8646  29.544  30.631  11.881
47336W        W 8647  37.374   4.846  14.818
47337W        W 8648   8.671  40.930   3.266
47338W        W 8649   9.376   6.252   4.331
47339W        W 8650  37.528  24.040  13.903
47340W        W 8651   7.302  33.096  14.405
47341W        W 8652   7.223  21.609  11.932
47342W        W 8653  13.210   8.803   0.851
47343W        W 8654  19.715  12.771   3.654
47344W        W 8655  25.082   5.209  12.002
47345W        W 8656  15.161  19.667  14.023
47346W        W 8657  37.906  37.431   2.264
47347W        W 8658  30.000   1.967   3.147
47348W        W 8659  42.928  38.994  13.377
47349W        W 8660  39.956  42.786  13.960
47350W        W 8661   2.720   2.788  11.881
47351W        W 8662   2.415   2.381  13.419
47352W        W 8663  37.560  37.943  13.430
47353W        W 8664  41.306  44.954  14.018
47354W        W 8665  35.035  26.527   4.714
47355W        W 8666  22.507  24.688  11.535
47356W        W 8667  19.039  15.636  13.343
47357W        W 8668  18.115   1.901   1.281
47358W        W 8669  34.386  33.597   2.316
47359W        W 8670   8.759   9.301  10.948
47360W        W 8671  21.045  31.990  14.029
47361W        W 8672   3.949  26.468  12.877
47362W        W 8673  16.777  30.514  12.459
47363W        W 8674  16.622  23.613  13.319
47364W        W 8675  32.069  20.539  10.406
47365W        W 8676  36.535  26.590   3.303
47366W        W 8677  12.148   1.397  12.458
47367W        W 8678  40.446   7.690   3.321
47368W        W 8679  37.884  15.107   3.782
47369W        W 8680  20.172  26.975  14.424
47370W        W 8681  32.008  24.132   1.381
47371W        W 8682  20.580   9.886  14.852
47372W        W 8683  13.282  38.008   3.723
47373W        W 8684  17.144  24.520   5.172
47374W        W 8685  42.401   7.225   2.862
47375W        W 8686  31.602  12.742  10.505
47376W        W 8687  17.081  18.117  12.374
47377W        W 8688   8.390  38.356   0.736
47378W        W 8689  11.202  17.268   1.857
47379W        W 8690  30.561   0.439  13.547
47380W        W 8691  36.850   1.274   2.415
47381W        W 8692  36.849  39.836  12.474
47382W        W 8693   1.377  21.545   0.930
47383W        W 8694  15.710  25.508   2.364
47384W        W 8695  28.478  17.741   1.335
47385W        W 8696  26.163  28.664  10.637
47386W        W 8697   4.301   6.311  11.906
47387W        W 8698   5.345  24.699  13.861
47388W        W 8699   6.875   2.952  14.389
47389W        W 8700  38.024  12.613   3.354
47390W        W 8701  20.767  33.432   2.684
47391W        W 8702  30.439   4.440   4.687
47392W        W 8703  10.198   8.693   5.296
47393W        W 8704  38.058  15.154   1.274
47394W        W 8705  15.162  37.003   1.257
47395W        W 8706  33.931  28.143  12.073
47396W        W 8707  38.426  42.933  13.413
47397W        W 8708  23.502  36.456  12.850
47398W        W 8709  20.147  16.117   4.210
47399W        W 8710   4.728  36.551  12.447
47400W        W 8711  10.370  30.568   4.788
47401W        W 8712  36.027  11.343   2.738
47402W        W 8713  12.167  41.398  11.389
47403W        W 8714  28.060  19.618   2.690
47404W        W 8715  21.535  18.688   0.301
47405W        W 8716  23.657   6.237   2.345
47406W        W 8717   8.733  38.916  10.486
47407W        W 8718   4.814  35.374   0.949
47408W        W 8719  32.417   3.899   4.138
47409W        W 8720  42.373  34.441  12.980
47410W        W 8721  23.050  33.401   0.263
47411W        W 8722  34.951  39.841  11.473
47412W        W 8723   0.929   9.377  13.501
47413W        W 8724  13.695  21.234  13.809
47414W        W 8725  23.050  40.826   4.314
47415W        W 8726  32.575  40.407  11.466
47416W        W 8727  42.302  31.625  10.593
47417W        W 8728   5.295  40.936  14.849
47418W        W 8729  26.995  28.482   9.503
47419W        W 8730  19.763   4.708  12.513
47420W        W 8731  20.257  21.216  10.917
47421W        W 8732  31.627   7.372  12.908
47422W        W 8733  32.978  20.090  12.488
47423W        W 8734  11.797  18.189   2.312
47424W        W 8735  12.290  24.684  13.316
47425W        W 8736  12.641  17.262  11.999
47426W        W 8737   3.224  23.586  11.015
47427W        W 8738  11.709  18.599  10.081
47428W        W 8739  11.848  33.124   4.696
47429W        W 8740   5.363   6.257  11.389
47430W        W 8741  31.564  27.453   1.341
47431W        W 8742  30.041  36.387   3.233
47432W        W 8743   7.186  13.345  13.970
47433W        W 8744  31.995  41.410   4.125
47434W        W 8745  40.367  43.365   1.231
47435W        W 8746  42.814  12.242   0.276
47436W        W 8747  37.978  17.635   2.772
47437W        W 8748  28.031  37.336   2.193
47438W        W 8749  27.103  15.128   0.330
47439W        W 8750   6.398  27.486  13.329
47440W        W 8751  23.574  37.417   1.307
47441W        W 8752  10.331  11.148   3.733
47442W        W 8753  24.597   5.282   2.822
47443W        W 8754  42.868   1.957  13.472
47444W        W 8755  26.592  32.534   2.854
47445W        W 8756  43.451   1.278   0.920
47446W        W 8757   3.882  32.405   4.141
47447W        W 8758   6.238  44.496   3.768
47448W        W 8759  34.526  11.170  12.385
47449W        W 8760  44.382   7.351  10.022
47450W        W 8761  26.138  23.177  12.443
47451W        W 8762  20.236   3.242   3.274
47452W        W 8763  44.924   9.197   1.713
47453W        W 8764  16.677  30.908   1.902
47454W        W 8765   3.428  38.498   1.796
47455W        W 8766  21.088  27.115  11.968
47456W        W 8767  43.408  18.563  10.954
47457W        W 8768  18.661  38.444  10.638
47458W        W 8769  11.193  25.187   1.800
47459W        W 8770  30.122  36.844  14.825
47460W        W 8771  10.382  35.562   0.443
47461W        W 8772  10.298   8.394   2.385
47462W        W 8773  12.360   6.200   3.853
47463W        W 8774  40.526  27.157  13.862
47464W        W 8775  30.547  25.706  10.443
47465W        W 8776  26.989   4.325  11.491
47466W        W 8777  12.289  38.992   4.629
47467W        W 8778  13.683  44.891   1.226
47468W        W 8779  21.256   8.365   2.344
47469W        W 8780   5.850  11.265  12.515
47470W        W 8781  27.621  42.295  13.410
47471W        W 8782  38.557   0.445  14.278
47472W        W 8783  10.300  27.105  13.009
47473W        W 8784   7.296  21.582  14.774
47474W        W 8785  17.305  33.058  13.923
47475W        W 8786  21.028  26.684   1.352
47476W        W 8787  37.871   7.397   4.644
47477W        W 8788   0.430  35.571   1.256
47478W        W 8789   4.248  22.606  10.415
47479W        W 8790  41.801  42.021   3.221
47480W        W 8791  28.463  22.011   0.902
47481W        W 8792  36.401  31.062   1.384
47482W        W 8793  35.083   4.363  12.453
47483W        W 8794  26.695  32.065   1.404
47484W        W 8795  37.932   0.917   1.222
47485W        W 8796  30.155  22.510  13.446
47486W        W 8797  42.783  10.309   5.093
47487W        W 8798  40.821  40.797   4.667
47488W        W 8799  36.878  21.061   2.227
47489W        W 8800  28.017  18.057   4.208
47490W        W 8801  44.856  10.173   2.833
47491W        W 8802  36.001   9.284  12.572
47492W        W 8803  35.048  18.056   0.376
47493W        W 8804   4.927   3.364  14.966
47494W        W 8805  10.190  23.011  10.135
47495W        W 8806   7.334  44.939   2.347
47496W        W 8807  25.024  17.224  12.083
47497W        W 8808   2.802  31.047  13.901
47498W        W 8809   9.655  16.300  12.005
47499W        W 8810  44.944  33.568  12.396
47500W        W 8811  14.613  39.324   1.241
47501W        W 8812  44.763  30.023  14.765
47502W        W 8813   1.438   6.855   3.704
47503W        W 8814   6.760  29.995   2.335
47504W        W 8815  24.204  22.655  13.349
47505W        W 8816   3.951   2.805  12.363
47506W        W 8817  27.155  42.426   1.791
47507W        W 8818  15.169   8.829  14.355
47508W        W 8819   1.905  38.471  11.410
47509W        W 8820  28.632  35.852  14.004
47510W        W 8821   5.927   4.849  13.363
47511W        W 8822   0.483  31.470  14.997
47512W        W 8823   7.364  42.030   3.221
47513W        W 8824  15.750   2.780   4.211
47514W        W 8825  33.581  36.953   3.765
47515W        W 8826  42.372   8.768  13.985
47516W        W 8827   8.708  26.587   4.288
47517W        W 8828  25.133  22.554  11.920
47518W        W 8829   9.179  39.377   0.837
47519W        W 8830  39.861  44.465  11.075
47520W        W 8831  39.381  43.371  14.880
47521W        W 8832   9.889  19.604  11.486
47522W        W 8833   1.273  20.176   1.359
47523W        W 8834   8.191  12.691   1.762
47524W        W 8835  22.661   7.301  12.833
47525W        W 8836   2.319  15.291   4.694
47526W        W 8837  14.126   1.897  13.026
47527W        W 8838  42.469  33.885   4.189
47528W        W 8839  39.360   1.890  12.387
47529W        W 8840  34.523  32.079   2.707
47530W        W 8841  40.874  17.190   1.400
47531W        W 8842   2.434  41.412  14.895
47532W        W 8843   2.471  42.974   2.245
47533W        W 8844  37.906  20.142  10.607
47534W        W 8845  17.614  15.299   0.802
47535W        W 8846   9.296  26.002   4.198
47536W        W 8847  29.567  42.442   3.749
47537W        W 8848  14.101  34.540  12.418
47538W        W 8849  19.552  20.562  12.906
47539W        W 8850  18.195  41.836   3.761
47540W        W 8851  20.258  26.075   3.217
47541W        W 8852   2.421  28.516  12.486
47542W        W 8853   1.807  44.890   2.808
47543W        W 8854  13.749   3.327  12.064
47544W        W 8855   1.844  40.815  14.513
47545W        W 8856  27.598  22.540  12.952
47546W        W 8857   9.762  37.371   2.884
47547W        W 8858  44.978  39.974   1.446
47548W        W 8859  21.209  26.625   3.363
47549W        W 8860  24.666  25.172   4.142
47550W        W 8861  11.290   5.279  14.853
47551W        W 8862  36.936  28.990  10.621
47552W        W 8863  29.959  14.337   1.356
47553W        W 8864  23.190  15.298  12.026
47554W        W 8865  19.614  28.175  12.003
47555W        W 8866  16.738  19.207   0.308
47556W        W 8867  42.518  33.385   1.411
47557W        W 8868  44.848  41.850   3.679
47558W        W 8869  18.603  37.072   4.792
47559W        W 8870  27.092  39.368   3.667
47560W        W 8871  23.670  25.574  12.891
47561W        W 8872  24.212  33.080   4.218
47562W        W 8873  31.084   2.800   3.707
47563W        W 8874  36.511  22.076   3.841
47564W        W 8875  29.498  20.598  14.493
47565W        W 8876  29.022  40.887   0.894
47566W        W 8877   3.889  17.636   1.799
47567W        W 8878  38.057   5.347   2.783
47568W        W 8879  34.572   3.220   2.818
47569W        W 8880  19.578  39.335  13.337
47570W        W 8881  36.877  43.960   0.755
47571W        W 8882  34.465  28.987   9.993
47572W        W 8883  43.305  38.384   3.273
47573W        W 8884  31.613  21.213   1.836
47574W        W 8885  35.885  23.565  11.974
47575W        W 8886  32.622  24.071   2.810
47576W        W 8887  14.716  23.030   9.629
47577W        W 8888  42.350  35.966   0.481
47578W        W 8889   7.332   7.678   3.805
47579W        W 8890   2.375  20.129  11.453
47580W        W 8891  38.960  20.588  11.095
47581W        W 8892   6.379  20.563  13.548
47582W        W 8893   9.387  21.517  14.282
47583W        W 8894  37.078  12.758  13.360
47584W        W 8895  13.306  23.090  14.351
47585W        W 8896  31.924  44.470   3.268
47586W        W 8897  26.173   8.795  10.629
47587W        W 8898  26.628  30.912  12.087
47588W        W 8899  12.160  34.008   3.237
47589W        W 8900  26.194  41.444   4.145
47590W        W 8901  13.801  10.281   2.392
47591W        W 8902  19.212  23.567   0.471
47592W        W 8903  26.503   8.892  13.973
47593W        W 8904  21.139  35.383   1.795
47594W        W 8905  39.933  27.655   2.709
47595W        W 8906  33.593  44.969   2.360
47596W        W 8907  39.499  37.970   4.807
47597W        W 8908   3.877   5.392   3.330
47598W        W 8909  38.916   5.428   3.305
47599W        W 8910  38.055  38.009   1.272
47600W        W 8911  10.700   9.850   0.939
47601W        W 8912   1.266  41.961  12.528
47602W        W 8913  17.156   6.721   2.223
47603W        W 8914  21.258   9.678   4.794
47604W        W 8915  16.159  13.244   5.196
47605W        W 8916  11.368  22.164  13.825
47606W        W 8917  15.114  18.129  12.959
47607W        W 8918  14.198  20.263  12.855
47608W        W 8919  33.124  19.141  11.507
47609W        W 8920   0.359  36.482  14.793
47610W        W 8921   7.347  27.191   2.811
47611W        W 8922  10.266  18.591  12.940
47612W        W 8923   9.854   4.246  10.625
47613W        W 8924  23.592  39.358   2.390
47614W        W 8925   4.353  41.528   2.307
47615W        W 8926  22.235  24.063  12.398
47616W        W 8927  34.603  38.419   1.282
47617W        W 8928  11.703  23.229   4.767
47618W        W 8929  20.582   5.394  14.392
47619W        W 8930  10.703   9.654   0.466
47620W        W 8931  10.151  44.470   0.371
47621W        W 8932   3.729  38.828  12.880
47622W        W 8933  37.483  11.800  13.437
47623W        W 8934  33.619  44.342  14.832
47624W        W 8935  33.091  38.452   3.157
47625W        W 8936   9.722   1.420  12.958
47626W        W 8937  15.751  22.171  12.096
47627W        W 8938  14.679  11.825   2.182
47628W        W 8939  21.701  22.544  14.345
47629W        W 8940  15.629  37.041   3.835
47630W        W 8941  13.800   7.678   0.337
47631W        W 8942  20.205  16.607   0.272
47632W        W 8943  18.102  33.560  14.481
47633W        W 8944   1.387  25.121  14.344
47634W        W 8945  39.364  23.672   3.155
47635W        W 8946  21.231  16.302  11.907
47636W        W 8947  40.533  43.874   1.760
47637W        W 8948  38.487  21.704  13.907
47638W        W 8949  10.260  34.119   4.646
47639W        W 8950  35.878  25.680   3.279
47640W        W 8951   7.242  39.817  14.508
47641W        W 8952   9.837  10.210   3.271
47642W        W 8953  41.524  33.495  14.828
47643W        W 8954  25.712   6.785  10.620
47644W        W 8955  19.228  21.142  13.381
47645W        W 8956  26.104  34.057   3.722
47646W        W 8957  35.370  42.462  12.551
47647W        W 8958  14.230  30.053   2.835
47648W        W 8959  44.415  16.672   1.858
47649W        W 8960   3.342   5.834   3.365
47650W        W 8961  23.184   5.887  13.498
47651W        W 8962  34.559   7.291  11.893
47652W        W 8963  38.974  34.050   3.153
47653W        W 8964  24.578  36.901  12.941
47654W        W 8965  15.160  28.990  12.562
47655W        W 8966  27.683  41.417  14.886
47656W        W 8967  10.816  12.823  11.406
47657W        W 8968  13.653   6.891   1.382
47658W        W 8969  39.029  40.958   0.339
47659W        W 8970   2.322   6.811  14.027
47660W        W 8971  30.965  42.946   0.392
47661W        W 8972  26.093  20.603   1.887
47662W        W 8973  16.607  34.092   0.324
47663W        W 8974  25.577   3.878   1.848
47664W        W 8975   1.778  31.470  13.883
47665W        W 8976  24.057  21.197   3.757
47666W        W 8977  29.113  42.921  14.340
47667W        W 8978   4.858  35.932  14.960
47668W        W 8979  41.322   0.868   1.919
47669W        W 8980   2.246  12.260   1.819
47670W        W 8981  44.389  33.550  12.354
47671W        W 8982  19.598  17.795  12.835
47672W        W 8983  19.123  21.520  14.290
47673W        W 8984   6.352  35.873  10.011
47674W        W 8985  23.729  28.613   2.776
47675W        W 8986  26.035  22.997   4.629
47676W        W 8987  37.938  37.044   2.879
47677W        W 8988  31.553  21.638   0.451
47678W        W 8989  10.749  10.255   2.846
47679W        W 8990  19.128  12.661   1.873
47680W        W 8991  19.170  31.540   2.231
47681W        W 8992  14.696  42.298  13.804
47682W        W 8993   0.880   3.453  12.839
47683W        W 8994  13.778  32.581   3.308
47684W        W 8995  19.558  31.613   2.824
47685W        W 8996  19.738   2.307   3.368
47686W        W 8997  19.749   4.338  12.363
47687W        W 8998  44.310  43.476  14.841
47688W        W 8999  34.379  39.032   0.912
47689W        W 9000  33.122  17.194   1.275
47690W        W 9001  33.597  20.735  11.127
47691W        W 9002  24.665   4.744  14.888
47692W        W 9003  11.796  31.974   1.371
47693W        W 9004  17.696  32.906  11.937
47694W        W 9005  37.369  34.593   4.286
47695W        W 9006   7.186  18.141  11.400
47696W        W 9007  37.536  13.647  13.475
47697W        W 9008  21.698  21.563  13.433
47698W        W 9009  21.665  15.732   2.869
47699W        W 9010  32.501  36.505  11.071
47700W        W 9011  36.456  25.622  13.463
47701W        W 9012  17.290  11.824  10.563
47702W        W 9013   0.926  41.448   3.232
47703W        W 9014  27.540  11.648  13.480
47704W        W 9015  28.099  27.535  13.017
47705W        W 9016   1.940  26.034  10.637
47706W        W 9017  37.369  34.987   3.172
47707W        W 9018   9.669  34.492   1.769
47708W        W 9019  19.244  44.470  13.917
47709W        W 9020  36.439  33.970   1.256
47710W        W 9021  32.106  40.928   3.782
47711W        W 9022   4.763  10.848  12.017
47712W        W 9023   5.235  15.088   2.359
47713W        W 9024   6.717   0.334  11.000
47714W        W 9025  24.647  12.648   2.767
47715W        W 9026  30.590  38.397  12.455
47716W        W 9027  20.110  29.568   4.275
47717W        W 9028   0.771  19.096  10.495
47718W        W 9029  34.094  15.628  13.854
47719W        W 9030   0.829   3.412   1.776
47720W        W 9031  41.420  41.851   1.386
47721W        W 9032  14.149  27.574   3.681
47722W        W 9033   4.729  30.011   1.725
47723W        W 9034   0.373  35.074  12.922
47724W        W 9035   5.862  25.550   3.789
47725W        W 9036  12.239  40.929   1.349
47726W        W 9037  12.140  22.240   0.266
47727W        W 9038   3.219   2.907  12.383
47728W        W 9039   6.403  43.779   3.744
47729W        W 9040   6.262  23.716   2.405
47730W        W 9041  38.967   6.420   0.397
47731W        W 9042  28.182   3.280   1.867
47732W        W 9043  14.123   8.333   2.868
47733W        W 9044  27.649  38.994   1.340
47734W        W 9045  23.523  38.995  14.295
47735W        W 9046  22.574  16.611   0.941
47736W        W 9047   0.490  42.408  12.356
47737W        W 9048  25.184  18.731   0.456
47738W        W 9049  25.024   6.688  12.021
47739W        W 9050  17.174  36.086   2.850
47740W        W 9051  36.841   3.282   2.793
47741W        W 9052  12.119   1.268   0.922
47742W        W 9053  17.702  27.074  12.467
47743W        W 9054  35.018  21.096   0.853
47744W        W 9055   2.375  34.520  10.606
47745W        W 9056  19.235   8.391  10.521
47746W        W 9057  37.368  18.216  12.447
47747W        W 9058  24.725  33.064   2.669
47748W        W 9059  17.075  37.413  10.029
47749W        W 9060  24.604  11.372  14.016
47750W        W 9061  13.209   7.240   0.849
47751W        W 9062  26.698  20.656   1.840
47752W        W 9063  30.999  34.547   1.907
47753W        W 9064  41.020   5.733  12.066
47754W        W 9065  23.570   0.898  12.944
47755W        W 9066  40.991  39.051   1.291
47756W        W 9067  15.164  19.175   3.345
47757W        W 9068  33.949  29.545   1.884
47758W        W 9069  24.178   0.314   1.228
47759W        W 9070   6.684  16.712   4.230
47760W        W 9071  37.961  36.012   1.929
47761W        W 9072   6.214   3.865   2.716
47762W        W 9073   7.337  34.119   2.732
47763W        W 9074  12.128   2.369  13.538
47764W        W 9075  26.008   8.704   0.258
47765W        W 9076  34.010  38.400   1.873
47766W        W 9077  10.731  31.635  14.806
47767W        W 9078   7.743  30.582   4.683
47768W        W 9079  21.683  39.980  12.881
47769W        W 9080  22.148   0.848   1.364
47770W        W 9081  43.970  12.767  14.884
47771W        W 9082  33.992  30.956   5.124
47772W        W 9083  10.275  15.172   1.237
47773W        W 9084  19.625  22.514   2.814
47774W        W 9085   5.931   0.378   0.774
47775W        W 9086  11.745  23.140  14.504
47776W        W 9087  37.020  37.862   1.788
47777W        W 9088  36.865  25.133  14.940
47778W        W 9089  40.946  41.985   4.791
47779W        W 9090  30.550  34.002  13.912
47780W        W 9091  28.077  43.764   2.300
47781W        W 9092  41.827   7.804   4.693
47782W        W 9093  16.779  15.326   1.380
47783W        W 9094  24.530  36.372  14.849
47784W        W 9095  37.950  22.680  14.877
47785W        W 9096  28.098  24.021   3.672
47786W        W 9097  24.553  43.816   2.816
47787W        W 9098   2.386  41.411  10.524
47788W        W 9099  41.787  10.656   0.848
47789W        W 9100  18.692  17.095   4.131
47790W        W 9101  36.542   4.224   1.395
47791W        W 9102  36.882  31.511   1.244
47792W        W 9103  15.635   0.952   5.303
47793W        W 9104   2.903  22.169   4.124
47794W        W 9105   3.858  22.520  11.516
47795W        W 9106  29.921  12.618  13.436
47796W        W 9107  28.007  34.924  13.326
47797W        W 9108  34.028   4.708  12.467
47798W        W 9109  24.481  34.376   0.816
47799W        W 9110   9.349  22.051   3.837
47800W        W 9111   8.290  17.176   0.411
47801W        W 9112  34.473   0.920   0.967
47802W        W 9113  14.676  10.769   0.412
47803W        W 9114  28.453  43.951  12.520
47804W        W 9115   6.279   8.241  10.590
47805W        W 9116  36.043  44.796  13.320
47806W        W 9117  40.358   0.383  11.975
47807W        W 9118   5.785  22.193   0.903
47808W        W 9119  43.423  19.247  12.083
47809W        W 9120  34.508  21.678   2.730
47810W        W 9121   6.867  20.732   4.301
47811W        W 9122  41.915  17.693   0.281
47812W        W 9123  34.100  28.617   0.260
47813W        W 9124  26.648  26.562   0.468
47814W        W 9125  12.271  19.073  14.407
47815W        W 9126   0.932  14.306  13.990
47816W        W 9127  42.935  26.068  14.809
47817W        W 9128  14.792   7.689   3.210
47818W        W 9129  36.390   5.810  11.129
47819W        W 9130  14.781  18.721  11.952
47820W        W 9131   3.726  37.352  14.907
47821W        W 9132  30.143  13.348  14.360
47822W        W 9133  23.029  15.109   4.701
47823W        W 9134  14.255   1.324   1.213
47824W        W 9135   5.396   5.714   4.223
47825W        W 9136  33.917  31.448   3.314
47826W        W 9137  30.558   6.234  11.871
47827W        W 9138   0.487   1.319   2.220
47828W        W 9139  21.534  39.966   4.759
47829W        W 9140  18.265  43.022  11.432
47830W        W 9141   0.338   4.366  11.485
47831W        W 9142  18.093  16.601   1.850
47832W        W 9143  15.807  25.515  12.029
47833W        W 9144  26.199  21.044   0.834
47834W        W 9145  15.082  40.444  11.028
47835W        W 9146  44.475  33.127  11.386
47836W        W 9147  16.719   8.299   1.733
47837W        W 9148  14.808  28.483   1.703
47838W        W 9149  28.573   7.378   5.251
47839W        W 9150   9.297  23.617  14.760
47840W        W 9151  20.060  28.021  10.433
47841W        W 9152   0.790  22.542   3.290
47842W        W 9153  28.667  40.509   2.820
47843W        W 9154  31.402  44.426   1.815
47844W        W 9155  11.673  15.132   2.734
47845W        W 9156  23.233  16.250  10.064
47846W        W 9157  36.446   4.323  13.790
47847W        W 9158  38.921  42.434   1.241
47848W        W 9159  33.952   7.188  13.527
47849W        W 9160  36.377  33.095  10.641
47850W        W 9161  32.456   0.929   3.697
47851W        W 9162  11.301   4.348   0.813
47852W        W 9163  31.429  36.041  14.806
47853W        W 9164  43.971   8.301   0.368
47854W        W 9165   1.930   9.725  13.399
47855W        W 9166   6.680  16.242   2.808
47856W        W 9167  19.717   6.740   2.208
47857W        W 9168  19.223   4.369  14.894
47858W        W 9169  42.016  14.330  12.953
47859W        W 9170   5.361  34.920  14.510
47860W        W 9171   8.392  20.684   3.677
47861W        W 9172  37.463   8.833   3.858
47862W        W 9173  17.227   2.359  11.381
47863W        W 9174  26.490  17.164  14.479
47864W        W 9175  11.244  29.171  10.932
47865W        W 9176  16.181  41.869  14.330
47866W        W 9177  34.010  23.070   0.742
47867W        W 9178   0.787  36.393  11.906
47868W        W 9179  31.504   7.259   4.353
47869W        W 9180  44.918  24.061   3.201
47870W        W 9181   4.321  24.053   2.332
47871W        W 9182  18.178  31.946  11.522
47872W        W 9183  30.627  11.758   3.265
47873W        W 9184   9.234   9.748  13.832
47874W        W 9185  43.284  18.606  13.459
47875W        W 9186  12.620  44.292  13.547
47876W        W 9187  16.274  28.093   1.778
47877W        W 9188  25.658  20.050   0.806
47878W        W 9189  17.617  23.213   3.344
47879W        W 9190  43.415  32.411  13.328
47880W        W 9191  40.049  21.173  11.565
47881W        W 9192   9.173  30.474   2.900
47882W        W 9193   7.242  19.538   4.677
47883W        W 9194  23.521  43.345   1.703
47884W        W 9195  29.630  35.931  14.821
47885W        W 9196  15.767  18.122   0.930
47886W        W 9197  35.000  35.930   2.751
47887W        W 9198  34.386   9.276   2.409
47888W        W 9199  19.751  40.037   9.497
47889W        W 9200  43.512  11.173  14.338
47890W        W 9201  13.323  38.929  10.584
47891W        W 9202  29.587  42.427  12.064
47892W        W 9203   0.336   0.771   0.746
47893W        W 9204  34.586  31.022   0.399
47894W        W 9205   1.732   7.693   5.290
47895W        W 9206  43.464  18.650  10.580
47896W        W 9207  38.940   3.450   2.855
47897W        W 9208   1.959  43.334  10.567
47898W        W 9209  24.024  42.914  13.437
47899W        W 9210  20.151  26.606   2.862
47900W        W 9211  22.204   4.397   0.960
47901W        W 9212  33.994   7.249  11.435
47902W        W 9213  12.628  15.630  11.557
47903W        W 9214  32.899  35.981  11.583
47904W        W 9215  40.979  34.460   1.898
47905W        W 9216  21.253  25.125  14.926
47906W        W 9217  26.056  39.938   2.754
47907W        W 9218  20.052  12.830  12.972
47908W        W 9219  27.464  34.955  12.353
47909W        W 9220  25.607  31.587  11.115
47910W        W 9221  44.431  37.366   2.750
47911W        W 9222  44.795  32.057  13.970
47912W        W 9223  26.668  31.637  12.072
47913W        W 9224  11.326  32.498  10.888
47914W        W 9225   2.945   4.228  14.861
47915W        W 9226  38.891   5.350  12.467
47916W        W 9227  38.030  32.045   2.186
47917W        W 9228  31.550  14.669   0.314
47918W        W 9229  30.483  19.726   3.638
47919W        W 9230  24.517  11.790  12.565
47920W        W 9231   2.459  40.972  14.308
47921W        W 9232  11.219   9.149   0.798
47922W        W 9233   0.966  20.565   0.923
47923W        W 9234  36.857  18.767   0.438
47924W        W 9235  37.013   3.776  13.964
47925W        W 9236   5.819  13.701  11.073
47926W        W 9237  39.974  43.007   1.930
47927W        W 9238  34.984  10.714  12.439
47928W        W 9239  19.177  33.992  14.298
47929W        W 9240  19.259  43.438   4.309
47930W        W 9241  43.800  32.991   3.738
47931W        W 9242  14.311  30.501  12.051
47932W        W 9243  41.811  23.209   1.804
47933W        W 9244  30.497  42.386   3.672
47934W        W 9245   4.917   1.458  12.933
47935W        W 9246  21.676  19.242  11.477
47936W        W 9247  44.821  26.066  11.378
47937W        W 9248  43.402  26.078  14.848
47938W        W 9249  19.587  10.333  11.095
47939W        W 9250  23.072  33.540  10.468
47940W        W 9251  34.914  38.525  14.859
47941W        W 9252  38.850  30.108   4.708
47942W        W 9253  36.442   7.711   2.344
47943W        W 9254  34.446  33.921   0.766
47944W        W 9255  40.365  39.547   0.386
47945W        W 9256  25.486  15.698   2.820
47946W        W 9257   2.388  13.775  14.508
47947W        W 9258  23.096  10.177  12.073
47948W        W 9259  10.241  12.362  14.456
47949W        W 9260  27.537  42.800   0.481
47950W        W 9261  12.360  32.095  12.576
47951W        W 9262   1.880  27.123   2.673
47952W        W 9263  26.682  42.966   4.820
47953W        W 9264  28.582   0.839   3.263
47954W        W 9265  19.148   6.840   0.339
47955W        W 9266   6.252  12.270  11.510
47956W        W 9267   4.384  35.106  14.361
47957W        W 9268  30.979  20.608  13.493
47958W        W 9269   5.219  20.763   2.726
47959W        W 9270  38.453   1.933  12.981
47960W        W 9271  25.684  16.633  14.463
47961W        W 9272   9.674  35.555  12.050
47962W        W 9273  35.372   8.832  14.903
47963W        W 9274  33.904  37.894  10.586
47964W        W 9275  35.510  28.679  12.356
47965W        W 9276   0.254  33.064   0.247
47966W        W 9277  12.665   8.273   0.899
47967W        W 9278  42.506  24.190  14.862
47968W        W 9279  10.370   8.739  11.483
47969W        W 9280   9.781   5.902  11.479
47970W        W 9281  23.716   9.234   1.754
47971W        W 9282   0.943  24.499   0.753
47972W        W 9283  41.984  43.366  12.945
47973W        W 9284  36.043  17.717  10.531
47974W        W 9285   9.263   4.703  11.457
47975W        W 9286  28.041  26.460   3.665
47976W        W 9287  17.601  36.429  12.914
47977W        W 9288  25.141  16.091   2.901
47978W        W 9289  23.648  33.623   3.688
47979W        W 9290  26.482  43.835  10.149
47980W        W 9291   9.731  20.611   2.205
47981W        W 9292  36.537  34.495   1.437
47982W        W 9293  41.339  37.474   9.928
47983W        W 9294  39.989  42.283  10.963
47984W        W 9295  39.327  41.894   3.681
47985W        W 9296  17.259  24.644   3.275
47986W        W 9297  32.046  22.716   0.471
47987W        W 9298  32.121  37.998  13.340
47988W        W 9299  21.712  12.845   3.763
47989W        W 9300   8.234  31.927   4.171
47990W        W 9301  13.774   6.776  10.539
47991W        W 9302  34.607  38.451   0.362
47992W        W 9303  10.254   2.815  10.416
47993W        W 9304  19.702  38.337   1.844
47994W        W 9305  26.657  40.368   2.410
47995W        W 9306  38.441   0.936   2.706
47996W        W 9307  27.960  44.945  14.953
47997W        W 9308  11.682  22.065  14.879
47998W        W 9309  17.137  26.194   0.305
47999W        W 9310   8.822  27.504  14.759
48000W        W 9311  33.568  11.787  13.868
48001W        W 9312   9.169  34.885   0.354
48002W        W 9313   2.782  29.119   0.809
48003W        W 9314  10.215  33.914  13.427
48004W        W 9315  44.834  31.007  14.440
48005W        W 9316  19.217  16.230   1.257
48006W        W 9317  23.613  29.149   0.734
48007W        W 9318   1.915  37.491  14.514
48008W        W 9319  22.110   3.429  13.875
48009W        W 9320  13.346  19.112  10.895
48010W        W 9321  38.058  23.659   0.837
48011W        W 9322  31.970  42.387   1.716
48012W        W 9323  37.934  35.370   0.247
48013W        W 9324  32.449  22.035   1.353
48014W        W 9325   5.902  14.620   3.267
48015W        W 9326   6.721  15.729  14.372
48016W        W 9327  39.451   2.328   3.226
48017W        W 9328  44.387  12.148   1.743
48018W        W 9329  20.734   8.816   4.740
48019W        W 9330  29.512  43.922   4.233
48020W        W 9331  30.007  28.086   0.358
48021W        W 9332  37.403  14.298  14.930
48022W        W 9333   7.733   6.211   0.401
48023W        W 9334  17.118  28.446   1.282
48024W        W 9335  38.523  11.822   2.265
48025W        W 9336  43.424  38.996   9.922
48026W        W 9337  11.696  21.070   5.141
48027W        W 9338  15.142  26.066   1.865
48028W        W 9339  15.091  33.425  14.852
48029W        W 9340  25.182  24.151  13.383
48030W        W 9341  34.369  24.501   3.659
48031W        W 9342   6.721  41.887   2.379
48032W        W 9343  37.420  38.493  10.633
48033W        W 9344  14.807  13.347  11.050
48034W        W 9345   3.356   2.339   2.285
48035W        W 9346  18.707  44.369   5.118
48036W        W 9347  29.440  15.088   1.387
48037W        W 9348  27.057  30.046  10.467
48038W        W 9349  35.467  15.801   3.283
48039W        W 9350   2.957  19.680  11.391
48040W        W 9351   5.882  28.176   1.236
48041W        W 9352   9.673  17.636   9.924
48042W        W 9353  40.050  14.098  12.850
48043W        W 9354   5.227  17.675   3.683
48044W        W 9355  22.250  10.249  13.882
48045W        W 9356  11.841  23.684   4.156
48046W        W 9357   0.265  37.369   1.284
48047W        W 9358  24.103  18.757   2.219
48048W        W 9359  24.194  36.859  14.923
48049W        W 9360  44.967  29.568   0.433
48050W        W 9361  41.360  13.225  14.959
48051W        W 9362  29.039  43.834  13.972
48052W        W 9363   0.949  10.239  13.802
48053W        W 9364   4.726  32.916  14.329
48054W        W 9365  20.587   6.726  13.002
48055W        W 9366   2.254  15.753  11.887
48056W        W 9367  18.655   1.837   3.287
48057W        W 9368  38.038  14.645  14.808
48058W        W 9369  42.821  24.169  12.947
48059W        W 9370  33.486  33.072   4.267
48060W        W 9371   0.402  44.364   2.663
48061W        W 9372   6.251  17.576   3.637
48062W        W 9373  15.705   5.285  11.415
48063W        W 9374  43.933   8.276  12.481
48064W        W 9375  14.734  37.954   1.377
48065W        W 9376   2.759   9.235  10.409
48066W        W 9377  24.537  37.410  11.898
48067W        W 9378  13.724  30.971   3.295
48068W        W 9379  25.123  19.229   0.258
48069W        W 9380  42.898  34.105  14.905
48070W        W 9381   7.701  34.035   4.759
48071W        W 9382  32.894  33.436   0.390
48072W        W 9383   2.247  12.124  14.945
48073W        W 9384  36.877  44.345   1.775
48074W        W 9385   0.788  20.567   3.707
48075W        W 9386   7.269  44.388   4.150
48076W        W 9387  28.129  44.960  14.348
48077W        W 9388  35.518  42.317  11.885
48078W        W 9389  32.062   3.267   3.211
48079W        W 9390  36.068  12.195   2.385
48080W        W 9391   4.412   2.377  13.028
48081W        W 9392  36.365  37.383   2.702
48082W        W 9393  25.623  37.435   3.868
48083W        W 9394  22.063  25.196  12.555
48084W        W 9395  30.472  19.739   4.203
48085W        W 9396  23.132   9.192  13.814
48086W        W 9397  26.623   9.213  12.355
48087W        W 9398  10.332  18.140   2.377
48088W        W 9399  44.307  21.263  11.445
48089W        W 9400  19.761  13.693  14.956
48090W        W 9401  28.673  20.238   0.448
48091W        W 9402  10.742  33.036  14.935
48092W        W 9403   6.359   7.863   2.733
48093W        W 9404   2.238  42.837  13.488
48094W        W 9405  14.792  30.473   3.816
48095W        W 9406  44.407  18.209  11.117
48096W        W 9407  36.472  41.868  14.981
48097W        W 9408  20.075  17.594  12.926
48098W        W 9409   2.764   3.312   4.159
48099W        W 9410  13.636  11.729  13.534
48100W        W 9411  36.505  23.724   5.229
48101W        W 9412  39.510  17.683  13.470
48102W        W 9413  44.989  13.725   2.840
48103W        W 9414   3.361  18.163   4.762
48104W        W 9415  34.045  28.607   3.768
48105W        W 9416  34.868   6.371  10.561
48106W        W 9417  11.808  30.536  12.091
48107W        W 9418  37.844  41.840  12.504
48108W        W 9419  33.002  43.808  10.519
48109W        W 9420  21.601  13.678  11.876
48110W        W 9421  44.905   6.411   0.952
48111W        W 9422   9.701  35.909  11.944
48112W        W 9423  34.073  38.493   3.309
48113W        W 9424  43.020  13.274  12.474
48114W        W 9425  20.166  30.090   0.740
48115W        W 9426  43.889  36.943  12.485
48116W        W 9427  21.076  26.077  14.776
48117W        W 9428  25.137   4.364  12.887
48118W        W 9429  30.019   1.438   4.620
48119W        W 9430  34.028  42.335  14.912
48120W        W 9431  31.491  10.157  14.893
48121W        W 9432  37.864  40.835  14.000
48122W        W 9433   4.426  37.036  14.892
48123W        W 9434  20.712  24.079  14.300
48124W        W 9435  39.449  23.691   3.788
48125W        W 9436  21.668  26.060  12.570
48126W        W 9437  19.707  41.039   0.753
48127W        W 9438  14.611  16.203  12.052
48128W        W 9439  43.837   2.348   0.942
48129W        W 9440  22.722  29.444  14.300
48130W        W 9441  17.653  42.777  12.037
48131W        W 9442  30.452   0.475   4.225
48132W        W 9443  28.098  17.746   4.217
48133W        W 9444  27.069  31.003  10.606
48134W        W 9445  20.678   8.894   1.216
48135W        W 9446  22.729  44.801   2.289
48136W        W 9447  26.182  10.856  14.971
48137W        W 9448  18.640  28.947  14.438
48138W        W 9449  23.651  18.248  13.376
48139W        W 9450   0.455  34.548   1.767
48140W        W 9451  29.949   2.429   3.188
48141W        W 9452  15.756  13.291   0.943
48142W        W 9453   6.315  43.803  12.520
48143W        W 9454  26.971  43.919  12.480
48144W        W 9455   9.743  37.381   1.740
48145W        W 9456  19.241  39.033  13.023
48146W        W 9457   3.743   1.793  10.621
48147W        W 9458  25.208  36.063  11.040
48148W        W 9459  20.150   8.736  10.431
48149W        W 9460  31.641  11.746   0.854
48150W        W 9461  33.616  21.512  12.562
48151W        W 9462  29.122  21.629   2.251
48152W        W 9463  29.110  25.597   3.361
48153W        W 9464  43.978  24.068   3.232
48154W        W 9465  25.182  13.744  10.929
48155W        W 9466  42.411  31.943   1.333
48156W        W 9467   0.973   5.243   0.855
48157W        W 9468  14.153   2.949   2.884
48158W        W 9469   9.821  43.402  10.467
48159W        W 9470  22.539  40.864  12.964
48160W        W 9471  33.492  39.958  11.428
48161W        W 9472  11.676  29.142   0.250
48162W        W 9473   0.469  14.262   4.833
48163W        W 9474  11.259  23.160  14.288
48164W        W 9475   2.376  15.177   1.835
48165W        W 9476   8.293  20.247   4.708
48166W        W 9477  14.803  16.703   4.270
48167W        W 9478  37.502  17.623   0.868
48168W        W 9479  15.787  13.610  10.937
48169W        W 9480  32.630  33.413   3.177
48170W        W 9481  41.841  15.691  10.448
48171W        W 9482  19.762  19.068   2.320
48172W        W 9483  36.531   3.390   2.305
48173W        W 9484  26.467  37.843   2.279
48174W        W 9485   8.399  28.632  14.782
48175W        W 9486  38.416   0.421   4.155
48176W        W 9487   5.238  27.514  13.798
48177W        W 9488  38.557  33.484  12.423
48178W        W 9489   0.760  12.319   4.197
48179W        W 9490  15.143  10.216  10.509
48180W        W 9491  26.624   8.362  11.394
48181W        W 9492  31.601  13.310   3.308
48182W        W 9493  37.577  41.493   1.935
48183W        W 9494   3.374  18.267   0.956
48184W        W 9495  37.494  27.567   1.254
48185W        W 9496  43.459  44.915   3.774
48186W        W 9497  20.641  11.256  14.931
48187W        W 9498  17.238  41.330  14.852
48188W        W 9499  37.386   7.912  12.504
48189W        W 9500  30.934   9.161   2.665
48190W        W 9501  25.618  37.921  11.042
48191W        W 9502  11.162   4.423  10.894
48192W        W 9503  34.013  20.590  10.617
48193W        W 9504  39.834  31.007  12.963
48194W        W 9505  36.479   9.283  13.015
48195W        W 9506  44.404   7.332   1.741
48196W        W 9507  40.976   1.283  10.412
48197W        W 9508  43.874  20.223   1.712
48198W        W 9509  26.467  40.047  14.315
48199W        W 9510  21.047   0.276  10.069
48200W        W 9511  23.510  39.350   3.771
48201W        W 9512  11.737  17.241   2.270
48202W        W 9513  23.051  41.903   0.875
48203W        W 9514  43.320  18.255  12.398
48204W        W 9515  20.539  27.141  14.487
48205W        W 9516  33.459  12.314  11.054
48206W        W 9517  23.491  32.039   3.194
48207W        W 9518  32.951  15.283   1.743
48208W        W 9519  22.609   4.900  13.847
48209W        W 9520   2.840   2.257  12.470
48210W        W 9521   9.385   0.933  11.127
48211W        W 9522  29.094  27.128   1.878
48212W        W 9523  14.832  33.891   2.323
48213W        W 9524  39.909   5.402   2.784
48214W        W 9525  37.344  27.998   4.213
48215W        W 9526   3.454  20.236   3.172
48216W        W 9527  14.818  15.172  14.872
48217W        W 9528  18.635   8.857  13.503
48218W        W 9529  40.545  33.586  11.535
48219W        W 9530  26.041  16.715   3.321
48220W        W 9531  25.982   2.748   2.903
48221W        W 9532  26.056   2.403   1.350
48222W        W 9533  18.057  12.832   1.232
48223W        W 9534   3.227  17.123  12.024
48224W        W 9535  20.705  24.569   4.627
48225W        W 9536  34.421  15.280  12.992
48226W        W 9537  27.959  30.075  11.015
48227W        W 9538  43.999   8.344   3.852
48228W        W 9539  30.436  36.883   3.834
48229W        W 9540   0.775   7.695   4.275
48230W        W 9541  36.892   1.292   3.774
48231W        W 9542  37.085  11.810   3.159
48232W        W 9543  20.573  12.166  11.463
48233W        W 9544  20.119   1.941   4.768
48234W        W 9545   0.308  11.272   3.308
48235W        W 9546  26.075  31.081   5.216
48236W        W 9547  29.429  43.783  10.498
48237W        W 9548  36.359   0.325  14.335
48238W        W 9549  15.246  11.752  10.430
48239W        W 9550  41.035   6.349  14.772
48240W        W 9551   5.213  27.030   2.389
48241W        W 9552   4.278   0.274  14.922
48242W        W 9553  38.028  13.767   4.143
48243W        W 9554   5.397  33.435  10.417
48244W        W 9555  25.126  39.930   3.759
48245W        W 9556  31.607  33.024  11.457
48246W        W 9557   7.353   5.221   2.862
48247W        W 9558  30.016  38.054   0.404
48248W        W 9559  36.586  19.218   3.235
48249W        W 9560  15.177  43.994  11.034
48250W        W 9561  14.806  11.132  11.373
48251W        W 9562   8.886   8.777   3.694
48252W        W 9563  20.135  39.046   3.202
48253W        W 9564   9.754   9.356  12.985
48254W        W 9565  38.958  15.765  13.005
48255W        W 9566  25.672  13.279   3.279
48256W        W 9567  36.396  37.853   0.407
48257W        W 9568  17.273  24.046  14.286
48258W        W 9569  31.928  20.693   4.334
48259W        W 9570  31.575   3.346  12.973
48260W        W 9571  18.682  21.584   4.817
48261W        W 9572  11.702  27.587   3.386
48262W        W 9573   0.362   0.948   3.194
48263W        W 9574  44.278  10.378  13.381
48264W        W 9575   4.837  37.484  10.592
48265W        W 9576   8.713  36.463   3.821
48266W        W 9577  15.660  42.797  13.000
48267W        W 9578   3.301  35.585  13.837
48268W        W 9579  11.644   5.377  11.953
48269W        W 9580  33.086  20.750   1.265
48270W        W 9581  33.587  32.080   4.744
48271W        W 9582  33.980  38.870   5.162
48272W        W 9583  38.034  24.211  10.612
48273W        W 9584  19.555  16.660  11.498
48274W        W 9585  25.642  11.810  12.464
48275W        W 9586   6.311  20.726   4.222
48276W        W 9587  28.594  10.834   1.254
48277W        W 9588  30.922  21.117   0.369
48278W        W 9589   2.229  44.339   4.168
48279W        W 9590  33.542  21.712  12.898
48280W        W 9591   5.884  13.714   3.183
48281W        W 9592   4.905  31.908   5.092
48282W        W 9593  37.935  16.704   2.747
48283W        W 9594  12.303  34.888  12.949
48284W        W 9595  14.262  39.882  11.573
48285W        W 9596  14.308  43.892  14.825
48286W        W 9597  22.176  12.118  14.789
48287W        W 9598  44.777  32.402   1.833
48288W        W 9599  33.417  20.118  11.926
48289W        W 9600  33.879   3.824   0.381
48290W        W 9601  21.222  23.564   0.846
48291W        W 9602  35.866  22.541   0.957
48292W        W 9603  10.285   7.188   3.816
48293W        W 9604   1.830  18.577  10.585
48294W        W 9605  44.878  21.668   1.697
48295W        W 9606  35.427  44.279   4.649
48296W        W 9607  29.587  44.844   2.249
48297W        W 9608   0.301  23.680   4.608
48298W        W 9609   8.895  22.143   3.832
48299W        W 9610   0.302   0.387  14.003
48300W        W 9611  13.292  38.406  12.095
48301W        W 9612  17.723   3.771   1.918
48302W        W 9613   4.931  16.793  13.857
48303W        W 9614  24.040  20.037   3.829
48304W        W 9615  24.606  43.781  14.318
48305W        W 9616  24.997  10.293   2.377
48306W        W 9617  20.126  41.839   0.762
48307W        W 9618  25.681  29.045  10.616
48308W        W 9619  14.134  10.639  11.096
48309W        W 9620  17.658   7.296  13.049
48310W        W 9621  26.130  25.038   5.104
48311W        W 9622  39.508  25.985   2.278
48312W        W 9623  17.743  33.970  11.935
48313W        W 9624  43.833  33.422  14.449
48314W        W 9625  41.371  27.097  12.869
48315W        W 9626  11.772  15.245   2.409
48316W        W 9627  18.126  14.796  14.396
48317W        W 9628   0.408  17.241  14.930
48318W        W 9629  20.145  29.940  12.853
48319W        W 9630  28.058  31.052   0.854
48320W        W 9631  17.234  29.670  12.961
48321W        W 9632  41.854  19.073   3.362
48322W        W 9633   2.264  32.569  14.801
48323W        W 9634  11.833  42.905   0.260
48324W        W 9635  41.823  39.974  10.488
48325W        W 9636   9.305  30.568  13.942
48326W        W 9637  40.442   7.816   1.880
48327W        W 9638  13.331  10.325  12.426
48328W        W 9639  44.352  14.823  10.914
48329W        W 9640  25.581   1.272  12.469
48330W        W 9641  11.841   2.845   4.750
48331W        W 9642  39.556   7.768   4.213
48332W        W 9643  40.514  36.978   3.800
48333W        W 9644   9.657  32.044  12.870
48334W        W 9645   9.742   2.296   2.754
48335W        W 9646  10.271  34.888  13.355
48336W        W 9647  35.542   0.904   3.193
48337W        W 9648  17.684   6.732   2.196
48338W        W 9649  17.605  20.196  11.886
48339W        W 9650  13.174  30.954   0.868
48340W        W 9651  18.646  40.383   2.196
48341W        W 9652  26.951  14.290   0.343
48342W        W 9653  28.109  10.716  14.498
48343W        W 9654  17.644  17.199  14.391
48344W        W 9655  13.629  16.609   0.371
48345W        W 9656  13.602  24.720  11.513
48346W        W 9657  20.619   1.401  14.404
48347W        W 9658  10.379  15.299  14.845
48348W        W 9659  23.654  12.356  13.909
48349W        W 9660  13.343  44.426  12.911
48350W        W 9661  43.973  43.288  10.520
48351W        W 9662  43.933  29.555   4.184
48352W        W 9663  42.395  23.161  14.771
48353W        W 9664  31.917  15.693   2.708
48354W        W 9665  35.860  43.898  10.541
48355W        W 9666  41.874  43.793   3.661
48356W        W 9667   5.291   7.294  11.585
48357W        W 9668  24.543  39.479  11.992
48358W        W 9669  25.042   1.885  10.549
48359W        W 9670  23.062  32.532   4.635
48360W        W 9671   7.381  43.931   0.434
48361W        W 9672  35.442  39.887  12.077
48362W        W 9673  33.994  11.637   4.135
48363W        W 9674  33.970  18.253  10.525
48364W        W 9675  21.580  29.930   2.321
48365W        W 9676  39.959  35.974   3.162
48366W        W 9677  28.478  24.185  11.110
48367W        W 9678  11.686   9.884  13.507
48368W        W 9679  12.273  26.067   4.738
48369W        W 9680   4.344  11.266   2.322
48370W        W 9681  40.965  41.971   0.257
48371W        W 9682  33.430  32.450   5.603
48372W        W 9683  35.421   2.917  11.383
48373W        W 9684   5.419  29.963   0.451
48374W        W 9685  36.532  17.222  12.900
48375W        W 9686  40.342  25.478   0.322
48376W        W 9687  32.446  28.138   3.171
48377W        W 9688  31.531   4.404   4.214
48378W        W 9689  16.077  39.372   3.708
48379W        W 9690  10.660   1.955   0.283
48380W        W 9691   7.868   2.359  11.035
48381W        W 9692  32.945  19.076  14.322
48382W        W 9693  17.583  23.559  11.041
48383W        W 9694  35.983  24.708   2.665
48384W        W 9695  19.069  21.140   4.117
48385W        W 9696  21.666  42.928   0.923
48386W        W 9697   9.276   3.435   0.906
48387W        W 9698  27.577  40.493  11.064
48388W        W 9699  14.827  14.185   0.416
48389W        W 9700  43.007   7.407  12.981
48390W        W 9701  19.072  16.155  13.441
48391W        W 9702  40.931  42.446   4.335
48392W        W 9703  10.233  11.356   3.200
48393W        W 9704  12.358   6.722   1.391
48394W        W 9705  13.264  28.473  12.032
48395W        W 9706   4.733  17.642   2.412
48396W        W 9707  41.878  37.569  14.385
48397W        W 9708  40.043  32.449  10.632
48398W        W 9709  29.952  11.309   3.670
48399W        W 9710  14.791  37.554  11.874
48400W        W 9711  31.524  23.556  14.467
48401W        W 9712  10.359  21.730  11.011
48402W        W 9713  35.038   6.908  10.439
48403W        W 9714  33.989  40.852  12.943
48404W        W 9715  22.636  27.661   4.816
48405W        W 9716   7.383   1.299   0.806
48406W        W 9717  43.924  12.634   3.342
48407W        W 9718   3.763  43.773  14.514
48408W        W 9719   5.220  29.425   2.414
48409W        W 9720  39.987   2.227   4.734
48410W        W 9721  15.753   4.830   1.925
48411W        W 9722   0.422  34.392   0.757
48412W        W 9723  16.661  43.310  14.508
48413W        W 9724  12.780  33.997  14.377
48414W        W 9725  16.176   4.778   3.376
48415W        W 9726  17.606  37.071  14.855
48416W        W 9727   7.728  12.131  12.945
48417W        W 9728   4.427  43.996   1.856
48418W        W 9729   8.268  30.933  14.373
48419W        W 9730   2.831  14.340   4.235
48420W        W 9731  34.092  14.152   0.320
48421W        W 9732  32.890  38.349   2.251
48422W        W 9733  31.647  20.698  14.310
48423W        W 9734  33.964  32.956   1.389
48424W        W 9735  29.533  20.632   3.824
48425W        W 9736  10.858  17.706  10.474
48426W        W 9737   9.153   1.245  12.366
48427W        W 9738  30.938  19.734  10.057
48428W        W 9739  30.956  12.220   1.452
48429W        W 9740  22.712  38.464   2.789
48430W        W 9741  11.358   4.446   1.834
48431W        W 9742  12.317  39.048  11.863
48432W        W 9743  15.660  40.018   3.216
48433W        W 9744  37.036  41.366   2.197
48434W        W 9745   6.852  26.516   0.934
48435W        W 9746  12.627  26.963   9.999
48436W        W 9747  31.979  12.665   4.215
48437W        W 9748  30.050  11.664   1.867
48438W        W 9749  13.725  20.524  14.901
48439W        W 9750   0.487  16.716  14.819
48440W        W 9751  22.240  39.346  14.366
48441W        W 9752  24.181  41.393  11.989
48442W        W 9753   8.891  43.406   3.662
48443W        W 9754   4.440   1.931  12.398
48444W        W 9755  42.512  31.469  13.802
48445W        W 9756  21.045  44.836   4.602
48446W        W 9757  36.849  14.279   4.120
48447W        W 9758  23.574   4.396   4.735
48448W        W 9759  17.672  11.769   3.790
48449W        W 9760   1.900  23.121   4.800
48450W        W 9761   6.742   7.184  11.871
48451W        W 9762   2.949  11.343   1.738
48452W        W 9763  16.787   3.271  12.946
48453W        W 9764  18.577   1.753  13.880
48454W        W 9765  32.582   1.357  13.836
48455W        W 9766  16.306   0.284  10.607
48456W        W 9767   7.347  40.929   4.817
48457W        W 9768   9.220   9.737   0.306
48458W        W 9769  30.073   8.661   4.638
48459W        W 9770  32.469  14.300  13.537
48460W        W 9771  24.611  41.500  12.505
48461W        W 9772  29.552  18.622   1.829
48462W        W 9773  27.617   2.754   0.879
48463W        W 9774  37.496  44.806  13.437
48464W        W 9775  44.851  26.138  10.921
48465W        W 9776  26.529  15.323  14.868
48466W        W 9777   1.346  39.915  12.491
48467W        W 9778  33.052   6.888  14.329
48468W        W 9779  37.430  33.080  12.396
48469W        W 9780  13.673   7.408  13.384
48470W        W 9781   6.184  36.914  10.445
48471W        W 9782  32.067  18.729   0.444
48472W        W 9783  18.747   4.323  11.533
48473W        W 9784  20.044  41.461  11.898
48474W        W 9785   9.838  18.755  13.482
48475W        W 9786  38.938  18.136  13.522
48476W        W 9787  37.404   7.256  14.291
48477W        W 9788  22.023  17.582  13.998
48478W        W 9789   9.386  12.727   3.352
48479W        W 9790  37.930  35.580   1.288
48480W        W 9791  36.358  16.203  13.992
48481W        W 9792  38.069  12.755  11.046
48482W        W 9793   4.935   0.873   0.813
48483W        W 9794  17.567  33.918  11.025
48484W        W 9795  28.595   2.871  13.394
48485W        W 9796   7.241  22.105  11.127
48486W        W 9797  24.524   5.821  11.974
48487W        W 9798  11.286   4.211   0.395
48488W        W 9799  21.661  43.938   3.147
48489W        W 9800  40.845  23.000  13.362
48490W        W 9801  16.689  38.469  14.923
48491W        W 9802  35.024   9.841   3.145
48492W        W 9803  24.486  28.678  10.429
48493W        W 9804   9.702  21.524  14.302
48494W        W 9805  44.867  37.421  10.520
48495W        W 9806  18.129  26.142   0.284
48496W        W 9807  34.053  20.737  11.527
48497W        W 9808  18.717   2.264  14.504
48498W        W 9809  12.211  39.528  13.374
48499W        W 9810  30.059  18.764   3.722
48500W        W 9811  24.641  42.894   3.641
48501W        W 9812  20.205   2.320  10.450
48502W        W 9813  30.120  16.079   2.312
48503W        W 9814   5.717  28.946  13.424
48504W        W 9815  39.059  24.579   0.880
48505W        W 9816   6.193  21.104  10.496
48506W        W 9817  38.370   3.451  10.417
48507W        W 9818  10.776   7.183  11.473
48508W        W 9819  36.393  35.393   2.238
48509W        W 9820  28.153  36.862   0.289
48510W        W 9821  36.037  27.974  12.371
48511W        W 9822   9.218  26.519  10.098
48512W        W 9823  44.302  18.717  14.460
48513W        W 9824  26.006  12.727  12.905
48514W        W 9825  17.623  31.102  10.515
48515W        W 9826  30.092  34.908   4.336
48516W        W 9827  35.444  10.317  13.845
48517W        W 9828  21.528  33.963  10.923
48518W        W 9829  11.307  27.600  14.501
48519W        W 9830  42.991  31.915   3.764
48520W        W 9831   7.859   0.767   3.274
48521W        W 9832   2.796  39.946  10.941
48522W        W 9833  33.599  27.101  13.825
48523W        W 9834  11.278  38.941   0.922
48524W        W 9835  24.142  20.205  14.497
48525W        W 9836  31.095  31.936  14.933
48526W        W 9837   9.304  42.469  11.883
48527W        W 9838  19.759  29.956  12.341
48528W        W 9839  34.865  19.113   2.300
48529W        W 9840  15.593   8.806  14.470
48530W        W 9841  40.511  35.030  12.512
48531W        W 9842  40.365  24.670  12.574
48532W        W 9843  28.982  25.472   2.740
48533W        W 9844  30.577   8.682  12.936
48534W        W 9845  20.570  30.484  13.056
48535W        W 9846  44.438  19.160   1.402
48536W        W 9847  10.137  10.687  11.956
48537W        W 9848  41.811  44.816   4.126
48538W        W 9849  36.887  40.822  12.887
48539W        W 9850  19.720  28.451  10.644
48540W        W 9851  22.561  30.151  12.441
48541W        W 9852  19.602   9.251   0.242
48542W        W 9853  39.508  40.808   0.902
48543W        W 9854   5.774  10.185  13.413
48544W        W 9855  41.846  12.689  10.645
48545W        W 9856  10.162  40.938  11.417
48546W        W 9857  23.501  30.124   3.855
48547W        W 9858  11.356   8.331  13.893
48548W        W 9859   0.952  32.081  10.530
48549W        W 9860  28.605   0.815  10.457
48550W        W 9861  29.465  35.059   4.315
48551W        W 9862   0.771  24.077  11.469
48552W        W 9863  29.465  32.000  10.600
48553W        W 9864  23.076  31.402  12.951
48554W        W 9865  26.965  12.315   2.249
48555W        W 9866  20.533  13.312   0.748
48556W        W 9867  32.634   8.805  12.498
48557W        W 9868  32.141  31.504  11.913
48558W        W 9869  43.386  32.572   0.448
48559W        W 9870   2.349  32.556  10.624
48560W        W 9871   1.935   7.908   0.845
48561W        W 9872  17.647   9.731  11.536
48562W        W 9873  18.683  10.187  14.429
48563W        W 9874  35.873  15.803   0.885
48564W        W 9875  44.471  12.207  13.036
48565W        W 9876  41.398  27.167   4.196
48566W        W 9877   5.732  10.191   0.372
48567W        W 9878  23.689  28.060   0.778
48568W        W 9879  31.025  21.637  10.585
48569W        W 9880   5.219   2.313  14.446
48570W        W 9881  23.007  37.490   0.397
48571W        W 9882  18.632  40.037  10.566
48572W        W 9883   4.227  32.110  13.064
48573W        W 9884  38.459  10.307   2.209
48574W        W 9885  19.257  17.616   2.823
48575W        W 9886  15.207  17.636   3.661
48576W        W 9887  34.914   6.360   3.218
48577W        W 9888  37.414  37.426   5.218
48578W        W 9889  19.652  12.823   5.291
48579W        W 9890  40.815  12.136   4.806
48580W        W 9891  14.192  30.983  12.829
48581W        W 9892  14.129  12.834   2.865
48582W        W 9893  29.458  40.966  14.932
48583W        W 9894   1.836  20.656  13.952
48584W        W 9895  15.643  18.713   4.138
48585W        W 9896  14.242  33.063   0.287
48586W        W 9897   1.762  13.683   3.672
48587W        W 9898  29.644  42.902   4.257
48588W        W 9899  37.845  12.848  12.471
48589W        W 9900  40.438  21.253   0.477
48590W        W 9901  11.728  14.336   5.200
48591W        W 9902  28.107  18.228  12.994
48592W        W 9903  37.469   5.400   0.281
48593W        W 9904   4.749  42.310   0.830
48594W        W 9905  37.486  38.003   1.450
48595W        W 9906  40.439  16.597  11.976
48596W        W 9907  34.966  28.024   2.818
48597W        W 9908  27.625  32.952   1.393
48598W        W 9909  19.171  10.745   1.312
48599W        W 9910  36.014  21.250   2.352
48600W        W 9911   8.380  35.859  11.416
48601W        W 9912  24.521   4.278  14.936
48602W        W 9913  39.487  17.676  12.037
48603W        W 9914   1.775  30.549  11.126
48604W        W 9915   4.712  21.244  12.388
48605W        W 9916   7.346  13.246  14.479
48606W        W 9917   2.963  28.145   3.762
48607W        W 9918  11.141  33.575   2.277
48608W        W 9919  44.342  37.835   0.432
48609W        W 9920   3.841  10.378   0.417
48610W        W 9921  10.217  35.493   4.820
48611W        W 9922  34.037   6.410  12.470
48612W        W 9923   8.394  19.588   4.756
48613W        W 9924   3.817   2.249   3.742
48614W        W 9925   4.894  33.384   1.920
48615W        W 9926  32.602  40.818   4.630
48616W        W 9927   0.872   3.863   4.724
48617W        W 9928  16.218  17.281   2.399
48618W        W 9929   8.218  39.357   1.763
48619W        W 9930  18.671  43.424  12.872
48620W        W 9931  41.528  10.361  12.459
48621W        W 9932  36.943  33.465  14.462
48622W        W 9933  22.702  40.329   2.211
48623W        W 9934  23.001   4.847   2.275
48624W        W 9935  23.109  27.944   0.941
48625W        W 9936   4.880   8.876   0.317
48626W        W 9937   1.400   9.359  10.594
48627W        W 9938   2.234   1.798   9.932
48628W        W 9939  16.284  14.776  14.845
48629W        W 9940  16.238  36.900   3.684
48630W        W 9941   1.419   0.779   4.277
48631W        W 9942  29.088  36.390  12.864
48632W        W 9943  32.394  30.941   1.804
48633W        W 9944  28.619   6.821   0.742
48634W        W 9945  17.222  16.686   0.425
48635W        W 9946   2.953  15.772  10.605
48636W        W 9947  43.465  21.143   4.296
48637W        W 9948  33.586  20.207   0.797
48638W        W 9949   3.765  28.157   1.831
48639W        W 9950  14.339  23.676  14.311
48640W        W 9951  40.944  11.675   3.162
48641W        W 9952  10.744  12.128   0.352
48642W        W 9953  21.121   7.353   0.794
48643W        W 9954  44.835  36.059   4.258
48644W        W 9955  38.911  34.380  10.559
48645W        W 9956  17.563  20.557  10.900
48646W        W 9957   9.212  15.151   4.605
48647W        W 9958  23.011   3.852   1.274
48648W        W 9959  10.228  36.366   0.423
48649W        W 9960  18.243  22.596   2.687
48650W        W 9961   1.773  28.010  14.460
48651W        W 9962  17.072  27.176  13.511
48652W        W 9963  19.196  32.142   0.929
48653W        W 9964  41.345   6.375  11.449
48654W        W 9965  31.507  22.155   2.250
48655W        W 9966   1.966  40.407   0.339
48656W        W 9967  24.158   1.975  14.762
48657W        W 9968  44.994   2.411   3.658
48658W        W 9969  11.757  10.651   1.312
48659W        W 9970  44.411  41.890   3.792
48660W        W 9971  39.836  43.952  12.941
48661W        W 9972  32.121  37.546  11.587
48662W        W 9973  19.089  40.436  11.047
48663W        W 9974  22.129   9.658  14.281
48664W        W 9975  17.640   9.189  13.874
48665W        W 9976  11.142  21.083   4.685
48666W        W 9977  44.505  39.453  13.533
48667W        W 9978  14.276  30.949   3.248
48668W        W 9979   1.296   4.430   0.420
48669W        W 9980   5.896  15.162   1.723
48670W        W 9981  37.516   6.322  13.351
48671W        W 9982  34.401  37.346  10.464
48672W        W 9983  32.890  33.054   1.717
48673W        W 9984  27.027   4.929  12.073
48674W        W 9985  30.056  37.501   4.204
48675W        W 9986  22.585  12.281  14.020
48676W        W 9987  38.444   2.266   0.296
48677W        W 9988  36.587  43.312  12.849
48678W        W 9989  12.194  34.417  11.988
48679W        W 9990   4.879  22.722   4.783
48680W        W 9991   3.901  12.675   4.200
48681W        W 9992   0.760  27.512   1.863
48682W        W 9993   1.941  42.785  11.518
48683W        W 9994  43.440   0.813  13.378
48684W        W 9995  13.707  34.915   1.247
48685W        W 9996   9.841  44.777  11.602
48686W        W 9997   6.315  17.132  14.477
48687W        W 9998  42.304   0.296   4.776
48688W        W 9999  18.705  41.447  10.506
48689W        W10000  18.683  32.987   3.704
48690W        W10001  16.194  31.629  14.343
48691W        W10002  40.449   9.882   0.829
48692W        W10003   4.381   4.828  12.441
48693W        W10004  26.084  31.973  14.369
48694W        W10005  18.262  17.264  12.071
48695W        W10006  41.813  41.309   0.334
48696W        W10007   1.301  26.687   2.207
48697W        W10008  36.557  28.522  10.148
48698W        W10009  29.128  42.452   4.794
48699W        W10010  37.381   6.272  11.099
48700W        W10011  40.482  43.969  12.522
48701W        W10012  19.746  19.254   2.892
48702W        W10013  24.065  28.527  11.474
48703W        W10014  29.657  30.507   4.825
48704W        W10015   3.416  27.558  12.432
48705W        W10016   3.246  19.560   2.662
48706W        W10017   1.961  40.874   2.200
48707W        W10018  32.928   7.193  12.558
48708W        W10019  11.729  21.195  12.087
48709W        W10020   3.353   8.199  10.927
48710W        W10021  30.605   7.764  11.018
48711W        W10022  32.973   8.235   2.876
48712W        W10023  15.321  34.887   4.753
48713W        W10024  28.499  15.095   3.268
48714W        W10025   5.829  30.138   2.226
48715W        W10026   6.193  43.502   1.834
48716W        W10027  15.775  29.664  13.857
48717W        W10028   7.183   2.414  12.955
48718W        W10029   5.359  30.991  13.970
48719W        W10030   2.304   1.285  12.526
48720W        W10031  19.278  29.920  13.355
48721W        W10032  12.333  15.771  12.543
48722W        W10033   4.426  25.007   2.877
48723W        W10034  10.645  25.472  14.964
48724W        W10035  19.554  17.213   2.367
48725W        W10036  25.500  29.996   1.343
48726W        W10037  30.648  28.650  12.569
48727W        W10038  16.695  11.673  14.937
48728W        W10039  36.874   7.862   3.272
48729W        W10040  39.909  34.917  10.564
48730W        W10041   8.177  44.005   4.296
48731W        W10042  35.031  34.511  11.992
48732W        W10043  21.262  34.910   5.126
48733W        W10044  40.393  17.074  12.555
48734W        W10045  41.432   9.207  11.122
48735W        W10046  32.131  17.277  13.358
48736W        W10047  20.209  37.878  12.890
48737W        W10048  22.135  30.095  14.811
48738W        W10049  23.169  40.039   5.153
48739W        W10050  28.540  40.028  11.102
48740W        W10051  26.690  34.591  12.976
48741W        W10052  34.994  39.430   5.791
48742W        W10053   6.881  41.952   3.263
48743W        W10054   7.323  30.652  13.979
48744W        W10055  24.620  12.284   3.154
48745W        W10056  41.831  36.954  10.951
48746W        W10057  16.736  19.168  11.090
48747W        W10058  22.726  11.745  12.459
48748W        W10059  43.983  24.054   3.800
48749W        W10060  38.918  32.555   4.162
48750W        W10061  23.219  12.139   2.864
48751W        W10062   5.386  19.768   0.347
48752W        W10063  21.613  16.625   5.653
48753W        W10064  19.271  16.793  13.376
48754W        W10065  38.414  31.538  14.396
48755W        W10066   6.219  26.185   4.318
48756W        W10067   2.293  42.029   2.404
48757W        W10068   8.671  11.363   1.827
48758W        W10069  15.730  12.334  13.858
48759W        W10070   4.235  42.778   5.239
48760W        W10071  28.625  42.810   4.830
48761W        W10072  26.668   0.470   3.223
48762W        W10073  22.081  17.120  11.485
48763W        W10074  18.596  22.123  13.908
48764W        W10075   3.393  40.459   4.251
48765W        W10076  17.690  24.716   4.310
48766W        W10077  15.673  25.509   1.714
48767W        W10078  33.093  10.258   2.291
48768W        W10079  42.474  24.223   3.836
48769W        W10080  12.690  43.452  10.559
48770W        W10081   8.281  27.518   3.348
48771W        W10082  38.452  10.333  13.472
48772W        W10083  18.711  24.099  12.349
48773W        W10084  11.680   5.828  14.370
48774W        W10085  24.202  40.830  14.847
48775W        W10086  12.637  20.557   4.334
48776W        W10087  20.139  10.237  13.434
48777W        W10088  22.642  41.427   4.133
48778W        W10089  38.380  24.577   4.813
48779W        W10090  33.452   3.757  14.441
48780W        W10091  10.365  16.288  13.484
48781W        W10092  11.236  44.784  10.498
48782W        W10093  34.064  16.687   2.785
48783W        W10094  32.431  20.656   2.177
48784W        W10095  12.166  31.094   0.461
48785W        W10096  21.674  18.239   9.998
48786W        W10097   3.912  42.005   1.263
48787W        W10098  17.628  24.093   4.716
48788W        W10099  25.193  12.258   2.211
48789W        W10100  43.909   7.907   1.248
48790W        W10101  33.500   1.261  12.031
48791W        W10102  16.172   8.270  13.851
48792W        W10103   3.355   4.930   1.833
48793W        W10104  10.722  31.004   4.236
48794W        W10105  23.546  24.511  13.059
48795W        W10106  17.680   1.808   3.147
48796W        W10107  28.677  23.008  11.116
48797W        W10108  39.433  30.919   2.876
48798W        W10109  24.106   3.426  12.972
48799W        W10110  27.078   2.381  14.854
48800W        W10111  29.541  22.091  12.019
48801W        W10112   1.348  12.629   2.339
48802W        W10113  19.046  14.721  12.340
48803W        W10114  18.225   6.820   0.794
48804W        W10115   9.646  30.534  11.603
48805W        W10116  31.442  15.781  14.288
48806W        W10117  28.445   2.410   3.180
48807W        W10118  12.779   5.359  14.480
48808W        W10119  16.292  13.752  12.963
48809W        W10120  12.801  11.737   1.761
48810W        W10121  16.766   8.282   0.334
48811W        W10122  21.716  44.004   2.819
48812W        W10123  15.232   8.866   3.831
48813W        W10124   5.240   8.899   1.404
48814W        W10125  11.359  33.576  13.010
48815W        W10126  43.481  35.997   0.448
48816W        W10127   5.849  30.033  14.932
48817W        W10128  30.985   9.225  14.435
48818W        W10129   6.260  22.243   0.877
48819W        W10130  31.972  10.819  12.483
48820W        W10131  35.026  29.521  14.891
48821W        W10132  44.331  33.882   3.288
48822W        W10133   4.887   7.757  14.301
48823W        W10134   4.244  19.676   2.724
48824W        W10135   7.225  29.982  12.347
48825W        W10136  35.986  21.635  12.089
48826W        W10137  38.455  31.091  12.019
48827W        W10138   1.429  22.672  14.789
48828W        W10139  22.072  28.473   4.651
48829W        W10140  20.266  18.773  13.022
48830W        W10141  12.146   2.361  11.503
48831W        W10142  22.160   4.922  14.009
48832W        W10143  34.982   3.239   5.255
48833W        W10144  35.100  10.854  14.388
48834W        W10145  11.715   9.347  14.411
48835W        W10146  43.389  38.494   1.823
48836W        W10147  35.902  12.132   4.286
48837W        W10148  35.464  37.022   3.648
48838W        W10149   6.848  35.922   3.693
48839W        W10150  35.975  31.026  11.563
48840W        W10151  32.930   3.887  13.844
48841W        W10152   6.223   0.897   0.405
48842W        W10153  11.749  13.277  13.360
48843W        W10154  16.779  35.417  14.830
48844W        W10155  18.697   9.872  11.929
48845W        W10156  22.025   0.858  10.977
48846W        W10157  42.881  28.984  14.291
48847W        W10158  11.798  40.433  12.470
48848W        W10159  15.233  17.096   2.806
48849W        W10160   7.210  37.935  11.053
48850W        W10161  40.437   6.744  13.026
48851W        W10162  14.273  27.531  14.882
48852W        W10163  42.339  31.490  12.049
48853W        W10164   0.762   8.901  10.432
48854W        W10165   6.918  43.010   3.197
48855W        W10166  10.203  16.267   1.215
48856W        W10167   4.716  21.204   3.286
48857W        W10168  18.673  42.418   2.900
48858W        W10169  36.354  20.107   2.221
48859W        W10170  33.028  32.985  12.033
48860W        W10171   3.786  25.472  12.966
48861W        W10172  16.226   4.899   0.927
48862W        W10173  15.611   3.250  14.789
48863W        W10174  34.592   4.733  11.034
48864W        W10175  16.083  17.243  12.887
48865W        W10176  32.900   4.320   3.814
48866W        W10177  23.666   9.783   0.291
48867W        W10178  36.017  12.140  14.894
48868W        W10179  36.472  36.056  12.932
48869W        W10180  32.394  43.943  10.600
48870W        W10181   7.251  39.900  14.877
48871W        W10182  40.372  33.602   2.686
48872W        W10183  20.180  13.198   4.838
48873W        W10184   9.685  44.983  13.462
48874W        W10185  38.523  19.199  11.876
48875W        W10186  32.019  12.152  13.325
48876W        W10187  13.326  30.433  12.914
48877W        W10188  31.980  26.161  12.403
48878W        W10189   9.688  44.393  10.412
48879W        W10190  28.986   5.760  14.760
48880W        W10191  15.312   9.387   4.740
48881W        W10192   3.897  37.959   2.341
48882W        W10193  24.113  19.041   0.297
48883W        W10194  27.029  32.508  13.908
48884W        W10195  44.461  19.212   1.721
48885W        W10196  17.261  37.970   1.785
48886W        W10197  14.807  22.047  13.480
48887W        W10198  14.701  12.349   2.791
48888W        W10199  22.057  20.095   1.306
48889W        W10200  17.104   0.954  13.050
48890W        W10201  26.199   1.368  12.032
48891W        W10202  34.545  39.823  13.508
48892W        W10203  31.561  30.607   0.315
48893W        W10204   1.865   0.383   2.314
48894W        W10205   0.749  30.637  14.476
48895W        W10206   9.324  19.743  14.809
48896W        W10207  31.572   6.275  10.942
48897W        W10208  12.636   6.289  10.921
48898W        W10209  21.031  35.097   0.434
48899W        W10210  23.599  19.599  14.857
48900W        W10211  20.213   3.278  12.523
48901W        W10212  14.694  38.467   1.878
48902W        W10213  26.635   7.858  13.811
48903W        W10214  41.894   5.796   0.912
48904W        W10215  41.308  16.693   2.255
48905W        W10216  40.367  23.190  11.596
48906W        W10217  28.985  10.193  11.011
48907W        W10218  14.121  14.159  10.526
48908W        W10219  10.235  30.921  13.440
48909W        W10220  24.078  25.683  10.414
48910W        W10221  20.729  20.650   3.309
48911W        W10222  11.256  40.530  12.078
48912W        W10223  20.164  33.464  10.139
48913W        W10224   6.701  28.443  12.548
48914W        W10225  14.760  30.534  13.820
48915W        W10226  23.633   7.257  12.824
48916W        W10227  30.163   5.250   1.835
48917W        W10228  26.500  24.619   0.795
48918W        W10229  19.192  43.963   1.778
48919W        W10230   8.849  34.562  14.983
48920W        W10231  40.797  19.718  11.861
48921W        W10232   2.885  37.901   3.195
48922W        W10233  36.556  25.696  12.942
48923W        W10234   3.894  21.052   3.635
48924W        W10235  20.708   9.761  13.533
48925W        W10236  37.450  18.662  13.820
48926W        W10237   1.874  12.151  14.339
48927W        W10238  20.247   2.743   0.938
48928W        W10239   2.961  16.636   4.805
48929W        W10240  18.156  42.453   0.910
48930W        W10241  20.044   7.758  14.951
48931W        W10242  32.582  44.830  13.964
48932W        W10243  14.246  35.367  13.830
48933W        W10244  30.949  27.586  10.577
48934W        W10245  19.078   7.277   1.769
48935W        W10246  17.258  34.916  13.016
48936W        W10247  25.000   1.314  10.990
48937W        W10248  25.979  13.132   4.312
48938W        W10249  10.863  31.004   2.807
48939W        W10250  42.297  28.931   0.920
48940W        W10251  14.171  17.660   1.363
48941W        W10252  11.668  25.196  10.932
48942W        W10253  16.181  23.560   3.741
48943W        W10254  34.405  24.013  12.064
48944W        W10255  25.573  12.317   2.692
48945W        W10256   8.870  33.506   3.150
48946W        W10257  13.732  33.055   4.262
48947W        W10258  33.395  17.679   3.642
48948W        W10259  33.425  27.655  12.970
48949W        W10260   4.755  20.206   1.830
48950W        W10261  16.146  43.883  10.893
48951W        W10262  32.605  36.456  11.384
48952W        W10263  12.638   4.257   4.682
48953W        W10264   6.745  33.894  14.918
48954W        W10265  22.091   6.781  10.508
48955W        W10266  33.532  13.625  10.598
48956W        W10267  34.872  35.974  12.520
48957W        W10268  37.402   0.376   1.763
48958W        W10269  14.591  35.893  14.343
48959W        W10270  31.643  23.190  10.407
48960W        W10271  16.580  29.158   1.395
48961W        W10272  13.228  16.798   3.256
48962W        W10273   7.759  23.674  11.560
48963W        W10274  42.295  24.547   0.303
48964W        W10275  28.090  27.481   2.773
48965W        W10276  35.416  18.130  13.831
48966W        W10277  13.176  19.159   0.952
48967W        W10278  43.825  17.766  11.981
48968W        W10279  37.504  14.789   0.270
48969W        W10280  17.593   1.412  14.431
48970W        W10281   8.804   9.733   3.336
48971W        W10282  10.252  31.412  10.011
48972W        W10283  20.200  31.127  10.521
48973W        W10284  19.138  23.010  14.769
48974W        W10285  16.794  32.543   4.687
48975W        W10286  25.219  13.208   3.657
48976W        W10287  34.590  21.726   2.221
48977W        W10288   5.854  11.751  10.944
48978W        W10289  25.020  38.415  14.464
48979W        W10290  40.305  31.924   2.739
48980W        W10291  31.483  27.454   1.843
48981W        W10292  17.793  37.839  10.480
48982W        W10293  22.607  32.886   3.741
48983W        W10294   7.753  26.685   5.248
48984W        W10295  44.262  35.990  12.090
48985W        W10296  37.497  38.024  11.943
48986W        W10297  14.203   8.286  11.866
48987W        W10298  31.647  41.470  11.013
48988W        W10299   5.268  26.607  11.603
48989W        W10300  12.141  23.691  14.764
48990W        W10301  36.943   7.765   4.830
48991W        W10302  30.467  24.142  12.094
48992W        W10303  32.950  24.130   3.385
48993W        W10304  29.608   9.384   5.784
48994W        W10305   6.793  18.053   9.645
48995W        W10306  20.750  28.470   2.216
48996W        W10307  37.484  10.758  13.316
48997W        W10308  40.540  31.612  10.119
48998W        W10309  21.084  33.563  10.611
48999W        W10310  17.102  37.489  14.354
49000W        W10311   9.308  27.110  11.114
49001W        W10312  44.886  28.633  12.355
49002W        W10313   1.430  29.961   0.281
49003W        W10314  33.059  15.583  12.479
49004W        W10315  16.805  24.184  11.544
49005W        W10316  22.703  10.175   2.834
49006W        W10317  19.547  27.103  13.970
49007W        W10318  20.662  16.795   1.812
49008W        W10319  31.946   1.914   0.959
49009W        W10320   1.860  39.340  14.989
49010W        W10321  33.489   1.237  12.397
49011W        W10322  42.516  14.334  11.510
49012W        W10323  31.534  12.146   1.275
49013W        W10324   3.899  29.461  11.489
49014W        W10325  32.089   3.341   2.664
49015W        W10326  13.787  20.526  14.456
49016W        W10327  26.991  12.296  14.771
49017W        W10328  28.019  22.227   0.878
49018W        W10329  33.960  42.793   4.651
49019W        W10330   1.438   0.442  12.502
49020W        W10331  10.229  10.852  14.953
49021W        W10332   5.714   6.410  14.823
49022W        W10333  44.437  37.375   0.417
49023W        W10334  13.617   5.877   1.236
49024W        W10335  35.059  10.757  13.540
49025W        W10336  20.187  31.996  13.900
49026W        W10337   2.412  25.192  10.900
49027W        W10338  35.015  44.469  14.400
49028W        W10339  19.056  37.352   1.723
49029W        W10340   8.693  29.143  11.391
49030W        W10341  42.420  33.909   2.219
49031W        W10342   8.829  27.055   4.716
49032W        W10343  41.402  15.808  13.460
49033W        W10344  20.184   8.292  14.368
49034W        W10345  12.676  33.420   3.773
49035W        W10346   7.907   5.388  10.518
49036W        W10347  30.609  26.629  13.819
49037W        W10348  31.920  40.903   2.354
49038W        W10349   6.312  20.569   1.387
49039W        W10350  31.956  28.630  12.542
49040W        W10351  20.549  41.495  10.498
49041W        W10352   5.204  33.388   4.205
49042W        W10353  24.600  28.443  13.491
49043W        W10354  33.111  28.099   0.727
49044W        W10355  41.511  23.586   2.208
49045W        W10356  19.748   7.399  12.082
49046W        W10357   8.829  19.159   4.653
49047W        W10358   7.665   2.310   1.318
49048W        W10359  12.829   7.904  11.012
49049W        W10360  24.008  19.218   1.317
49050W        W10361  19.156  39.055  13.325
49051W        W10362  23.155  39.329   0.401
49052W        W10363  34.075  37.042   0.750
49053W        W10364   1.447  25.188   3.800
49054W        W10365  31.068  10.656  12.526
49055W        W10366  26.095  37.043   2.347
49056W        W10367   6.806  27.680  14.467
49057W        W10368  25.470   7.376   4.627
49058W        W10369  14.736  32.092   0.809
49059W        W10370  18.121  14.244   0.921
49060W        W10371  32.008   5.703   0.952
49061W        W10372  11.706  17.166  12.393
49062W        W10373  17.748  19.691   1.273
49063W        W10374  20.703  15.158   0.251
49064W        W10375   5.238  22.037   4.758
49065W        W10376  10.375  18.611   2.285
49066W        W10377  19.766  25.977   3.639
49067W        W10378  18.226  32.407  14.390
49068W        W10379  37.839  15.763   3.269
49069W        W10380  29.025  23.094  14.275
49070W        W10381   4.318  15.715  10.938
49071W        W10382  41.369   4.268   0.827
49072W        W10383  11.305  24.211  13.538
49073W        W10384  34.896  44.853   0.431
49074W        W10385  44.783   6.341  13.908
49075W        W10386  12.166  25.674  13.456
49076W        W10387  31.613  16.072  13.048
49077W        W10388   9.321  44.330   4.764
49078W        W10389  25.481   7.908   1.877
49079W        W10390  35.439  11.156  12.385
49080W        W10391  30.439   5.822  14.826
49081W        W10392  32.106  22.243  11.871
49082W        W10393   1.860   5.841   3.721
49083W        W10394  33.599  16.728   1.800
49084W        W10395   2.427   8.186  11.975
49085W        W10396  32.986  32.040  12.994
49086W        W10397  14.762  39.443   2.759
49087W        W10398  40.926  34.446   4.319
49088W        W10399  13.694  39.862   2.767
49089W        W10400  11.266  18.619  12.862
49090W        W10401  20.113  12.281   2.256
49091W        W10402  34.386  13.166   1.837
49092W        W10403  21.636  10.813  10.455
49093W        W10404  38.542   5.813   3.155
49094W        W10405  20.685  14.762  11.535
49095W        W10406  43.980  30.441  11.098
49096W        W10407   3.335   5.813  10.617
49097W        W10408  29.518  34.613  12.361
49098W        W10409  39.459   3.759  13.448
49099W        W10410   5.237  30.033   4.812
49100W        W10411   8.199  39.339   3.320
49101W        W10412  37.992  29.592  14.277
49102W        W10413  32.449  24.508  10.633
49103W        W10414  27.087   0.830  12.847
49104W        W10415  13.690  11.689   2.782
49105W        W10416   9.182  24.054   0.327
49106W        W10417  28.486  40.407  14.857
49107W        W10418   3.759  20.759  11.606
49108W        W10419  32.970  37.979  11.901
49109W        W10420  31.955  16.748   4.211
49110W        W10421  39.489   7.710  12.385
49111W        W10422  18.715  33.566   0.954
49112W        W10423  16.668  30.023   2.787
49113W        W10424  40.318  39.479  10.424
49114W        W10425  40.956   3.346   5.241
49115W        W10426  32.433  42.316  14.885
49116W        W10427   6.220  18.109   2.357
49117W        W10428  32.401  26.113   1.747
49118W        W10429   4.288  18.094   2.722
49119W        W10430  34.941  21.758   3.147
49120W        W10431  25.506  10.834  14.477
49121W        W10432  10.373  38.031   3.841
49122W        W10433   3.305  13.782   2.289
49123W        W10434   3.739  38.521  10.409
49124W        W10435  23.205  13.684   4.703
49125W        W10436  32.429  34.517  10.964
49126W        W10437  21.259  18.791   4.734
49127W        W10438  24.616   0.372   2.350
49128W        W10439  39.906   4.265   1.344
49129W        W10440  31.625  16.789   4.664
49130W        W10441  40.041  44.297  11.997
49131W        W10442  30.080  19.205   4.295
49132W        W10443   7.730  31.955  11.492
49133W        W10444  15.609  15.176   1.339
49134W        W10445  16.802  16.756  13.025
49135W        W10446   4.938  15.597   2.336
49136W        W10447  17.688   5.899  12.442
49137W        W10448  33.391  43.007  14.292
49138W        W10449  37.473  17.567  10.986
49139W        W10450   8.357  10.833   4.285
49140W        W10451  12.697  43.415  14.391
49141W        W10452  43.361   1.756  10.464
49142W        W10453  29.060  42.332  11.022
49143W        W10454  12.626  13.618   2.192
49144W        W10455  39.492  19.257  13.853
49145W        W10456  10.856  29.056   4.713
49146W        W10457  10.846  18.287   4.177
49147W        W10458  44.392  19.609  11.876
49148W        W10459  43.327   4.726  14.432
49149W        W10460  23.712  43.959   1.810
49150W        W10461  17.125  24.571   2.278
49151W        W10462  12.116  15.691   1.776
49152W        W10463  29.577  43.877  12.088
49153W        W10464  35.534  41.448  11.105
49154W        W10465  22.685  41.787  12.057
49155W        W10466  33.089  32.938   4.748
49156W        W10467   6.793   1.317  11.040
49157W        W10468  18.257   9.350  12.968
49158W        W10469  42.815   7.839   5.241
49159W        W10470  24.077  17.302  11.497
49160W        W10471  30.066  17.069   3.731
49161W        W10472  22.022   4.915   4.330
49162W        W10473  31.022  36.395   0.757
49163W        W10474  44.408  19.697   5.297
49164W        W10475  37.910  42.819   1.418
49165W        W10476  20.715  26.672  10.898
49166W        W10477  39.968   5.249   0.388
49167W        W10478  43.369   2.845  11.403
49168W        W10479  42.334  25.185   3.838
49169W        W10480  12.190  39.327  14.283
49170W        W10481  32.987  41.469  10.900
49171W        W10482   0.823  40.803  13.430
49172W        W10483   3.446  33.955  12.896
49173W        W10484   1.285   9.375   3.759
49174W        W10485  16.280  21.608  11.876
49175W        W10486  22.225   4.355   4.176
49176W        W10487  10.143  21.220   2.343
49177W        W10488  36.023  41.910   3.215
49178W        W10489   9.317  33.466   4.597
49179W        W10490  36.021  41.971  12.872
49180W        W10491  41.333  31.081   0.409
49181W        W10492   6.758  23.584   1.700
49182W        W10493   8.763  40.435   2.271
49183W        W10494  13.324  37.009  10.511
49184W        W10495  28.678  27.952  14.385
49185W        W10496  20.684  31.477   0.349
49186W        W10497  36.874  30.480  12.341
49187W        W10498  33.958  23.502  11.061
49188W        W10499   1.958  37.976  14.932
49189W        W10500  39.964  11.629   1.432
49190W        W10501  39.049   1.783   1.414
49191W        W10502  33.554  33.936  14.764
49192W        W10503  40.307  30.083  14.959
49193W        W10504  43.967  42.868  13.498
49194W        W10505  13.225  32.913  14.332
49195W        W10506  34.001   4.417   3.220
49196W        W10507  14.747  27.573   2.801
49197W        W10508  44.821  41.971  10.493
49198W        W10509  16.625  23.100  11.943
49199W        W10510  26.648  13.674   2.372
49200W        W10511  27.010  34.086   4.828
49201W        W10512  30.459  11.675   2.387
49202W        W10513  17.707  26.149  10.591
49203W        W10514  33.553  32.116  13.437
49204W        W10515   9.729  19.750  10.593
49205W        W10516  25.568  39.919  12.464
49206W        W10517   0.924  39.913   3.173
49207W        W10518  43.768   9.359   2.663
49208W        W10519  29.927  10.253  11.990
49209W        W10520  41.349  11.163  14.496
49210W        W10521  42.934  10.777   3.345
49211W        W10522  30.009  26.999   1.867
49212W        W10523  25.967  30.104   0.374
49213W        W10524  17.100  22.186   1.390
49214W        W10525  17.605  25.644   0.281
49215W        W10526  18.689   1.370   2.849
49216W        W10527  28.010  12.207   9.990
49217W        W10528  25.604  10.878   3.669
49218W        W10529  21.157  41.441  10.583
49219W        W10530  30.550  29.530   4.719
49220W        W10531  27.966  39.012   1.270
49221W        W10532   2.931  33.092  13.802
49222W        W10533   6.422  43.311   4.714
49223W        W10534  35.461   5.765   2.409
49224W        W10535  26.533  36.561   4.810
49225W        W10536  43.432  37.427  13.025
49226W        W10537  37.864   5.914   3.232
49227W        W10538  18.143  16.263  12.840
49228W        W10539  20.593  25.026   0.749
49229W        W10540   2.838  44.408   0.808
49230W        W10541  28.092  34.037  13.309
49231W        W10542   1.271   8.329  14.411
49232W        W10543   7.707  18.239  12.854
49233W        W10544  37.068  14.297   1.825
49234W        W10545  32.941  12.743  14.997
49235W        W10546  11.750  14.740  13.450
49236W        W10547  43.875   8.688   2.689
49237W        W10548   9.844   8.741   3.235
49238W        W10549  25.631   9.356   3.356
49239W        W10550  16.597   6.252  14.940
49240W        W10551   7.793  29.151   1.849
49241W        W10552  34.933  18.586  12.574
49242W        W10553  15.196  43.285   3.205
49243W        W10554  34.390   8.207   1.378
49244W        W10555  20.208   9.777   2.404
49245W        W10556  37.553   3.803   4.639
49246W        W10557   6.199  38.863  10.075
49247W        W10558  33.562  12.310   3.173
49248W        W10559  12.127  17.087   1.873
49249W        W10560   0.268  25.492  11.389
49250W        W10561  17.637  39.440  14.363
49251W        W10562  18.771  10.807  12.838
49252W        W10563  20.217  16.567  12.901
49253W        W10564  11.775  11.760  14.924
49254W        W10565  29.132  28.528  12.959
49255W        W10566   1.834  28.652  14.799
49256W        W10567   4.431  31.624   3.308
49257W        W10568  41.351   2.863  11.590
49258W        W10569  27.084  43.372   3.186
49259W        W10570   2.780   8.755   5.243
49260W        W10571   1.464   6.282  10.896
49261W        W10572   5.909  18.579   2.743
49262W        W10573  32.589  44.381  14.458
49263W        W10574  32.996  33.614  12.517
49264W        W10575  23.575  22.725   5.157
49265W        W10576  10.228  41.391   3.286
49266W        W10577  31.955  15.706   2.290
49267W        W10578  35.951   1.780   3.380
49268W        W10579  27.629  31.112   0.918
49269W        W10580   7.865  40.400   3.863
49270W        W10581  18.075  24.230   0.337
49271W        W10582  19.245  18.614   0.382
49272W        W10583  28.541  22.210  11.542
49273W        W10584  22.670  16.570   2.852
49274W        W10585  27.134   6.823   3.154
49275W        W10586  37.567  10.742   2.270
49276W        W10587   6.245  15.812  11.001
49277W        W10588  44.438   5.340   4.217
49278W        W10589  33.935  37.051  14.380
49279W        W10590  42.442   0.806  10.618
49280W        W10591  16.095  24.991   4.781
49281W        W10592  44.338  26.137   2.894
49282W        W10593  38.923   6.837   1.245
49283W        W10594  38.826  41.833  12.038
49284W        W10595   9.824   5.785  13.529
49285W        W10596  44.468  22.702   4.241
49286W        W10597  39.839  40.932  13.513
49287W        W10598  27.524  15.819   2.777
49288W        W10599  39.539   9.766  10.984
49289W        W10600  13.166   0.459   0.844
49290W        W10601  13.835  14.743  10.575
49291W        W10602  22.074  19.765   5.188
49292W        W10603  12.335  12.687   4.159
49293W        W10604  28.651  25.578   3.224
49294W        W10605  26.597  35.977  14.912
49295W        W10606  44.907  14.792   1.429
49296W        W10607  16.123  15.137   4.810
49297W        W10608  10.678   7.778   1.370
49298W        W10609   7.721  31.456   1.410
49299W        W10610  16.240  23.551   2.224
49300W        W10611  42.345  43.308   0.821
49301W        W10612  16.752  10.255  10.930
49302W        W10613  36.022  27.128   2.698
49303W        W10614  21.559  35.896   9.951
49304W        W10615  38.351  39.558   0.274
49305W        W10616  16.627   6.333  12.455
49306W        W10617  43.987   4.406  11.448
49307W        W10618  26.195  28.558   0.838
49308W        W10619   0.763   6.412   4.196
49309W        W10620  10.253  14.188  12.053
49310W        W10621  31.950   4.719  14.769
49311W        W10622  22.681   1.838   0.409
49312W        W10623  35.891  24.583  14.391
49313W        W10624  31.620   5.269   5.120
49314W        W10625   3.354  36.433   3.315
49315W        W10626  14.333  35.084  12.015
49316W        W10627  40.455  39.000  13.485
49317W        W10628  26.102  38.542  12.575
49318W        W10629  36.000  27.993  13.937
49319W        W10630  25.666  21.702   4.707
49320W        W10631  14.323  10.179   2.305
49321W        W10632  17.296  32.126  11.032
49322W        W10633  22.501  30.601  12.837
49323W        W10634   9.370  22.246   2.748
49324W        W10635  37.531  31.127  10.524
49325W        W10636  35.574   6.782   0.426
49326W        W10637  16.215   2.344   3.740
49327W        W10638  29.622  42.776   3.809
49328W        W10639   8.707  21.234   3.342
49329W        W10640  27.025  31.404  14.904
49330W        W10641  44.476  13.750  12.497
49331W        W10642   3.952  20.062  13.547
49332W        W10643   0.745  32.978  10.931
49333W        W10644  31.437  36.935   4.616
49334W        W10645  17.690  17.140  13.410
49335W        W10646  15.102  42.438   2.813
49336W        W10647  11.171   4.885   0.810
49337W        W10648  21.214   8.698  11.956
49338W        W10649  11.705  32.501   2.818
49339W        W10650  24.610  15.191  11.899
49340W        W10651   3.302  34.070  13.816
49341W        W10652   9.260  24.121  14.812
49342W        W10653  34.035  32.939   3.756
49343W        W10654  16.648  31.112   4.750
49344W        W10655  11.658  42.884  12.515
49345W        W10656  31.533  37.516   5.238
49346W        W10657  33.395   2.326  14.292
49347W        W10658  23.539  17.565   5.206
49348W        W10659  13.233  24.637   0.432
49349W        W10660  32.390  29.112   2.276
49350W        W10661  27.552  25.591  11.435
49351W        W10662   2.932  38.483   0.398
49352W        W10663  40.947  33.009   3.819
49353W        W10664  31.959  23.645  12.578
49354W        W10665  30.625   8.317   4.224
49355W        W10666  41.494  20.243  14.867
49356W        W10667  11.311  10.176   2.336
49357W        W10668   5.824   9.310  13.835
49358W        W10669   9.161  32.925   0.362
49359W        W10670  41.958   3.299  13.799
49360W        W10671  27.103  26.599  13.463
49361W        W10672  20.663  35.922  11.004
49362W        W10673  28.486  36.048   0.908
49363W        W10674  36.960  10.844   2.409
49364W        W10675  43.468  10.213  10.141
49365W        W10676  23.162  10.692   1.416
49366W        W10677   9.778  32.920   2.291
49367W        W10678  22.517  23.089   0.939
49368W        W10679  42.966  39.836   4.679
49369W        W10680   1.384  33.947   1.335
49370W        W10681   3.331  42.023   2.391
49371W        W10682  37.371  16.297   1.859
49372W        W10683  18.629  42.451  14.031
49373W        W10684   1.965  29.507   2.721
49374W        W10685  27.621  18.562  10.462
49375W        W10686  34.376  30.654  14.453
49376W        W10687  11.242  16.279   3.715
49377W        W10688  43.765   3.314  13.330
49378W        W10689  34.981   9.874  11.088
49379W        W10690  38.454  24.222   1.717
49380W        W10691  41.303  17.603   1.903
49381W        W10692  41.827  43.871   1.921
49382W        W10693  20.226   9.645  12.342
49383W        W10694  35.473  24.107  14.780
49384W        W10695   4.205   2.262   3.797
49385W        W10696   5.204  30.020  14.509
49386W        W10697  41.038  17.229   0.483
49387W        W10698  17.210  43.901   2.221
49388W        W10699  20.537  22.190   0.806
49389W        W10700  35.867  20.051  14.847
49390W        W10701  38.010   0.876  14.335
49391W        W10702  24.618   8.669  10.456
49392W        W10703   2.784  33.130   1.278
49393W        W10704   9.839  41.437  12.835
49394W        W10705  27.020  33.903  11.433
49395W        W10706  29.971  17.303   4.813
49396W        W10707  42.301  31.951  13.502
49397W        W10708   3.418   6.789   2.354
49398W        W10709  38.026  29.111  14.973
49399W        W10710  10.767  31.411   2.292
49400W        W10711  28.677  12.713  12.510
49401W        W10712  11.810  31.013   2.686
49402W        W10713   8.683  29.068   2.180
49403W        W10714  28.029   4.445   0.479
49404W        W10715   5.336   9.214  11.397
49405W        W10716  34.925  16.130   2.291
49406W        W10717  44.318  37.067   3.683
49407W        W10718  30.975  13.746  14.921
49408W        W10719   1.872  35.490  11.390
49409W        W10720  18.137  27.590  14.004
49410W        W10721  20.605  31.056   0.373
49411W        W10722  26.632  23.694  12.939
49412W        W10723  11.258  22.200   0.382
49413W        W10724   3.259  26.182   2.696
49414W        W10725  23.175  28.541  14.835
49415W        W10726  26.997  42.495  14.488
49416W        W10727   4.389  22.614  13.382
49417W        W10728  23.500  23.611  11.050
49418W        W10729  21.129  17.267   3.639
49419W        W10730  12.841  33.417   2.335
49420W        W10731   9.828  22.663  14.882
49421W        W10732  10.188  21.069   2.698
49422W        W10733  34.544  43.435   2.306
49423W        W10734  41.819  23.211   2.715
49424W        W10735  26.692  18.138   0.431
49425W        W10736  23.003  40.353  14.339
49426W        W10737   3.298  31.992   2.765
49427W        W10738  30.072  17.781   2.783
49428W        W10739  38.405  20.654   3.202
49429W        W10740  35.957  21.079   3.333
49430W        W10741  14.597  28.132  11.996
49431W        W10742  18.707   8.670  14.883
49432W        W10743  33.455  19.271  14.449
49433W        W10744  14.744  15.268  14.504
49434W        W10745  26.544   9.173  12.868
49435W        W10746  39.933  40.367  11.591
49436W        W10747   0.493  40.318  14.511
49437W        W10748   2.889   6.412   3.652
49438W        W10749  43.500  12.814   1.365
49439W        W10750  13.636  17.149   2.794
49440W        W10751  30.154  23.585   0.266
49441W        W10752  16.627  31.557   3.311
49442W        W10753  11.341   9.391  13.816
49443W        W10754  22.513  25.165  11.005
49444W        W10755  22.692  36.096   2.340
49445W        W10756   0.489  11.271  13.034
49446W        W10757  15.605  10.779  11.478
49447W        W10758  44.339  36.952  12.939
49448W        W10759  40.310   6.695  11.424
49449W        W10760  29.659   2.885   1.789
49450W        W10761  44.499  27.530  10.086
49451W        W10762  40.052  31.532  14.915
49452W        W10763  16.752  35.483   0.334
49453W        W10764   9.165   2.242   4.114
49454W        W10765  44.273  11.814   1.714
49455W        W10766  20.143  44.294  13.896
49456W        W10767  11.233   5.761   4.763
49457W        W10768  12.799  40.342   0.940
49458W        W10769  28.622  23.618  14.950
49459W        W10770  44.348   7.830   4.306
49460W        W10771  20.057   9.653   0.918
49461W        W10772  42.986  12.293   3.240
49462W        W10773  16.708  15.661  12.019
49463W        W10774  42.788  31.143  12.089
49464W        W10775  27.659   9.844   3.756
49465W        W10776  24.478   5.331   0.843
49466W        W10777  18.791  38.025   4.233
49467W        W10778  14.228  36.565  14.937
49468W        W10779  23.615  37.347   4.724
49469W        W10780  20.060  43.282   1.923
49470W        W10781  26.987  19.068  13.796
49471W        W10782  33.908  32.459   2.840
49472W        W10783  16.277   9.234  10.998
49473W        W10784  36.442  26.986   4.720
49474W        W10785  17.800  24.047   2.856
49475W        W10786   3.245   0.785  14.386
49476W        W10787  42.404  22.029  14.770
49477W        W10788  15.178  26.200   5.322
49478W        W10789  37.957  19.114   3.785
49479W        W10790  27.483  38.417   2.224
49480W        W10791   8.396  31.640   2.759
49481W        W10792  23.004  20.102  10.568
49482W        W10793  30.453  36.943  12.023
49483W        W10794   7.353  30.114  11.435
49484W        W10795  32.588  40.428  11.000
49485W        W10796  18.174  41.034   2.387
49486W        W10797  19.060  18.583   0.857
49487W        W10798  30.164   5.368   5.090
49488W        W10799  41.924   1.302   3.733
49489W        W10800  37.943   8.205   1.721
49490W        W10801  44.403  37.949  14.443
49491W        W10802  30.075  25.511  14.403
49492W        W10803   0.423  30.154  10.448
49493W        W10804  40.971   8.768   4.691
49494W        W10805  37.555  12.688   0.321
49495W        W10806   4.709  11.318   3.786
49496W        W10807  17.291  28.636   0.865
49497W        W10808  37.494  35.993   4.124
49498W        W10809   4.714  28.968  11.063
49499W        W10810  22.661  22.733   0.249
49500W        W10811  44.451  26.960   1.927
49501W        W10812  19.629  21.171  14.899
49502W        W10813  22.713  13.775   0.469
49503W        W10814  10.776  33.501   4.725
49504W        W10815  24.108  37.398  10.622
49505W        W10816   1.949  11.788  13.030
49506W        W10817  34.553  13.203  12.889
49507W        W10818  36.448  26.076  13.000
49508W        W10819   8.291  20.141  13.336
49509W        W10820  19.643  32.602  13.002
49510W        W10821  22.207   0.946   2.391
49511W        W10822  18.621  40.822   9.547
49512W        W10823  19.208   4.853  12.488
49513W        W10824   1.284   6.799  13.319
49514W        W10825  33.979  32.978   3.308
49515W        W10826  10.865  39.520  12.029
49516W        W10827  10.679   7.760  11.464
49517W        W10828  31.958  25.007   2.800
49518W        W10829  41.387  26.581   1.722
49519W        W10830  27.022  14.300   2.257
49520W        W10831  29.133  40.412   4.254
49521W        W10832  22.057   7.394  11.389
49522W        W10833  43.943   1.439  14.929
49523W        W10834  21.262  41.332   3.259
49524W        W10835   2.826  12.699   1.794
49525W        W10836  40.917  10.209  11.506
49526W        W10837  26.001   2.950  11.515
49527W        W10838  26.522  42.889  14.947
49528W        W10839   3.439  44.304   0.788
49529W        W10840  18.599  38.335  11.119
49530W        W10841   4.317  27.649  10.553
49531W        W10842  39.496   6.287   3.347
49532W        W10843  20.746   5.420   0.794
49533W        W10844  30.091  36.501   4.631
49534W        W10845  14.127  39.889   4.340
49535W        W10846  43.914  29.016  13.504
49536W        W10847  23.126  21.756   1.739
49537W        W10848  10.206  16.749   4.282
49538W        W10849  25.581  40.394   4.685
49539W        W10850   1.788  26.205   3.643
49540W        W10851  35.023  22.583  11.952
49541W        W10852   2.831   8.714  13.509
49542W        W10853   7.246   0.749   3.685
49543W        W10854  26.699  25.571  13.854
49544W        W10855  24.664  37.078   4.690
49545W        W10856  36.476  44.366   0.371
49546W        W10857  32.896   0.795   1.839
49547W        W10858   3.362   1.314  11.387
49548W        W10859  40.520  37.508  10.562
49549W        W10860  14.755   0.912   1.825
49550W        W10861  13.644   6.401   2.806
49551W        W10862  35.104  31.507   4.255
49552W        W10863   2.932  43.995  12.829
49553W        W10864  43.017  12.820   1.233
49554W        W10865  34.066  37.951  12.056
49555W        W10866  12.807  37.900  11.940
49556W        W10867  44.826  15.622  13.057
49557W        W10868  20.209  40.052   3.695
49558W        W10869  13.605  19.676   1.420
49559W        W10870  30.919  20.228   0.415
49560W        W10871   6.265   5.328   0.765
49561W        W10872  25.095  24.658  14.483
49562W        W10873  24.188   5.438  11.517
49563W        W10874  43.805  10.674  12.901
49564W        W10875  17.067  41.530  10.055
49565W        W10876  24.600  37.481  12.544
49566W        W10877   4.401  30.996  10.962
49567W        W10878   8.688  14.724  14.023
49568W        W10879  13.211  28.679  11.039
49569W        W10880  38.462  41.322   4.651
49570W        W10881  25.508  42.308  11.582
49571W        W10882  19.665  23.190  14.877
49572W        W10883  40.904   6.270  11.864
49573W        W10884  20.649  35.484   3.727
49574W        W10885  11.837   1.253   1.412
49575W        W10886  21.128  39.318   3.239
49576W        W10887   9.694  26.597   0.459
49577W        W10888  44.364  44.803  12.035
49578W        W10889  16.295  32.023  13.310
49579W        W10890  11.343  25.676  10.890
49580W        W10891   8.751   1.284   2.725
49581W        W10892   8.791  31.132  14.894
49582W        W10893  11.342  22.061  14.780
49583W        W10894  25.159  35.597  13.336
49584W        W10895  41.879  38.503   4.253
49585W        W10896  43.970  23.038  10.431
49586W        W10897  36.863   9.273  13.835
49587W        W10898   1.305  44.424  14.494
49588W        W10899   5.771  14.323   1.716
49589W        W10900   3.861  11.756  13.477
49590W        W10901  41.032  13.623  12.827
49591W        W10902  35.037  29.092  10.572
49592W        W10903   8.279  28.130   0.946
49593W        W10904  14.827   5.751   3.194
49594W        W10905  13.789  14.834   1.724
49595W        W10906  31.966  36.553  12.067
49596W        W10907  22.210  35.951   0.419
49597W        W10908  15.655  39.994  14.770
49598W        W10909  28.969   4.232   3.316
49599W        W10910  30.582  20.038   0.779
49600W        W10911   9.287  34.061   3.859
49601W        W10912  33.592  19.062   0.728
49602W        W10913  27.992  38.450  11.480
49603W        W10914  19.171   6.716   2.352
49604W        W10915  41.428  23.535   0.824
49605W        W10916   1.841   1.844  11.092
49606W        W10917  29.045   0.922   1.386
49607W        W10918   9.216  35.024  10.407
49608W        W10919  17.167  33.885  12.542
49609W        W10920  29.070   9.795   0.863
49610W        W10921   5.805  23.224   0.955
49611W        W10922   3.218  38.020  14.397
49612W        W10923  23.498  12.655  12.055
49613W        W10924  15.658  22.510  13.956
49614W        W10925  25.984  12.195   0.300
49615W        W10926  30.056  31.068   3.819
49616W        W10927  33.934   5.330   0.340
49617W        W10928  26.141  18.642  13.959
49618W        W10929  40.031  36.930  13.507
49619W        W10930  22.129  42.836  10.104
49620W        W10931  37.912  20.094   1.259
49621W        W10932  26.104  26.537  11.115
49622W        W10933   6.893  28.033  13.872
49623W        W10934   3.358  11.658   2.702
49624W        W10935   6.323  41.336   0.727
49625W        W10936   1.746  39.037  14.282
49626W        W10937  10.232  12.785   1.381
49627W        W10938   8.750  43.416  13.010
49628W        W10939  15.232  43.503   0.902
49629W        W10940   9.780  32.478   4.268
49630W        W10941  22.150  18.241  14.303
49631W        W10942  20.254  22.658  14.275
49632W        W10943   3.891   0.978  13.844
49633W        W10944  14.154  44.462   0.357
49634W        W10945  43.934  36.881   0.279
49635W        W10946  32.459  10.236  13.387
49636W        W10947  41.000  23.635  12.038
49637W        W10948  34.992  36.407   3.147
49638W        W10949  23.126  30.982  14.764
49639W        W10950  36.068  26.542   4.739
49640W        W10951  38.024  43.312   4.792
49641W        W10952  34.369  30.513   1.768
49642W        W10953   6.388  38.874  10.631
49643W        W10954  18.170  17.606   3.811
49644W        W10955   3.287   6.317  12.974
49645W        W10956  28.172  36.940  11.105
49646W        W10957  14.629  33.008   1.776
49647W        W10958  11.857  36.082   0.775
49648W        W10959  16.573  31.440   1.257
49649W        W10960   6.242  25.163   0.873
49650W        W10961   4.399  22.040   0.953
49651W        W10962  35.527  20.573  13.959
49652W        W10963  41.986   6.310   4.686
49653W        W10964   9.242  43.885  13.356
49654W        W10965  19.262  28.667  11.411
49655W        W10966  15.702   8.756  13.374
49656W        W10967   4.755  33.122  11.376
49657W        W10968  10.366  38.028   9.930
49658W        W10969  38.938  36.386  10.417
49659W        W10970  40.034   3.782   2.868
49660W        W10971   2.763  36.845  13.435
49661W        W10972  30.609  28.593  14.434
49662W        W10973  42.517  18.164   4.122
49663W        W10974  19.571  17.231  11.953
49664W        W10975  41.927   3.295   1.424
49665W        W10976  21.689  19.093  12.093
49666W        W10977  31.555   7.247   4.775
49667W        W10978   5.323  31.007  13.379
49668W        W10979  32.979  23.150   3.220
49669W        W10980  38.340  20.106   4.348
49670W        W10981  14.754  13.827  12.390
49671W        W10982  34.600  16.086   0.822
49672W        W10983  30.069  28.091   2.792
49673W        W10984  23.212  15.095  13.378
49674W        W10985   1.818   6.293   2.791
49675W        W10986   3.412  31.911  11.476
49676W        W10987  29.620   2.337   1.391
49677W        W10988   1.336  22.719  13.416
49678W        W10989  38.044  22.701   3.234
49679W        W10990  38.491  28.468  10.989
49680W        W10991  44.341  10.876  10.460
49681W        W10992  38.947   5.751   0.307
49682W        W10993  11.235   6.789  13.955
49683W        W10994  18.594   3.866  13.537
49684W        W10995   6.216  42.915   9.979
49685W        W10996   9.375  30.095  12.498
49686W        W10997  13.687  36.848   4.333
49687W        W10998  37.021  15.742  10.547
49688W        W10999  40.046  32.111   2.316
49689W        W11000  43.321  14.260  12.834
49690W        W11001   9.280  39.808  11.997
49691W        W11002  10.360   8.777   1.371
49692W        W11003  10.160   7.890  14.817
49693W        W11004  42.494  19.659  13.378
49694W        W11005  36.381   6.879   4.342
49695W        W11006  39.870  33.418   9.999
49696W        W11007  43.994   6.280   4.232
49697W        W11008   5.812  15.619  12.080
49698W        W11009  37.356  21.194  12.479
49699W        W11010  41.875  19.259  11.595
49700W        W11011  15.763  43.879  14.456
49701W        W11012  11.153  21.145  14.908
49702W        W11013  28.156  35.590   5.193
49703W        W11014  29.035  22.584  13.384
49704W        W11015  38.825  39.819  14.332
49705W        W11016   8.656  43.445   4.252
49706W        W11017   7.860  24.095   0.949
49707W        W11018  10.236  23.631  11.544
49708W        W11019  12.149  31.626  12.471
49709W        W11020  15.726  22.596   3.359
49710W        W11021  21.066  35.094   1.332
49711W        W11022  31.440   8.329   2.874
49712W        W11023  17.194  11.373   1.778
49713W        W11024  42.971  37.083   4.302
49714W        W11025   3.855  35.557  11.594
49715W        W11026  36.540  41.315   4.698
49716W        W11027  33.925  14.702   1.846
49717W        W11028  12.161  27.108   3.742
49718W        W11029  20.704  32.595  13.011
49719W        W11030  12.795  36.540  10.899
49720W        W11031  16.258  22.501  13.972
49721W        W11032   9.820  31.637  11.110
49722W        W11033  31.930  13.296  12.454
49723W        W11034  21.609   5.776  12.408
49724W        W11035  43.919  25.049  13.871
49725W        W11036  13.249  26.475  10.961
49726W        W11037  27.185  15.786  10.596
49727W        W11038   7.729  42.918  12.019
49728W        W11039   8.896  10.320  12.355
49729W        W11040   1.324  39.420  14.914
49730W        W11041  20.266  32.424   3.283
49731W        W11042  19.619  18.143  13.908
49732W        W11043  14.745  17.230  10.429
49733W        W11044  37.453  19.202   3.341
49734W        W11045  30.503  30.422  10.529
49735W        W11046  35.062   2.862  14.436
49736W        W11047   5.720  40.019   1.394
49737W        W11048  26.207  20.129  11.886
49738W        W11049  26.190  15.209  13.450
49739W        W11050  34.994   1.428   4.794
49740W        W11051  20.212  15.207  12.502
49741W        W11052  36.554  11.252  12.023
49742W        W11053  44.927  18.119   4.676
49743W        W11054  15.265  21.185   4.270
49744W        W11055  22.550  30.451   3.158
49745W        W11056  20.057  15.157  12.841
49746W        W11057  27.195  29.968  14.029
49747W        W11058  41.992  34.985   4.725
49748W        W11059   3.426  19.768   2.389
49749W        W11060  34.040   9.701   0.871
49750W        W11061  10.764  41.955  12.033
49751W        W11062  11.263  37.059   2.702
49752W        W11063  18.118  15.629  14.992
49753W        W11064  22.057  27.041  14.959
49754W        W11065  10.820   2.434   0.380
49755W        W11066  23.194  39.916  13.004
49756W        W11067  41.389  27.518   2.898
49757W        W11068  29.497  24.020   4.780
49758W        W11069   8.363  31.047   0.358
49759W        W11070   7.415  40.969   1.799
49760W        W11071  28.147   8.860  12.830
49761W        W11072  28.617  26.680   1.892
49762W        W11073  34.987  39.463   1.820
49763W        W11074  31.408   0.338  10.539
49764W        W11075  29.657  17.620  11.416
49765W        W11076  40.988   8.263   3.734
49766W        W11077  36.401   5.782  11.404
49767W        W11078   5.195   1.857   3.213
49768W        W11079   5.260  43.434  13.024
49769W        W11080  27.510  37.846   0.907
49770W        W11081  17.680  40.853  14.369
49771W        W11082  36.999  27.074  12.016
49772W        W11083   9.678  32.022  10.579
49773W        W11084  13.312   7.339   2.408
49774W        W11085  17.148  16.286   0.847
49775W        W11086   4.330  39.954   2.690
49776W        W11087  17.281  43.009   1.792
49777W        W11088  31.911   1.258  12.383
49778W        W11089  40.520  37.460  12.866
49779W        W11090  35.044  29.627   4.634
49780W        W11091  40.916  32.452   1.328
49781W        W11092  33.111  28.046  10.908
49782W        W11093  36.842  29.015   4.166
49783W        W11094  16.707  14.118  11.471
49784W        W11095  15.817   0.767  14.973
49785W        W11096   7.861  14.669   3.197
49786W        W11097  39.452  30.133  12.456
49787W        W11098   6.913  10.329  14.859
49788W        W11099  13.279  22.140  11.913
49789W        W11100  20.675  18.070   0.761
49790W        W11101  42.441  34.050   0.948
49791W        W11102  32.120  39.354   3.704
49792W        W11103  16.236  38.040  12.350
49793W        W11104  35.586  13.646  13.447
49794W        W11105  37.001  25.620   0.289
49795W        W11106  30.020   9.217   5.700
49796W        W11107  25.532  36.960   3.209
49797W        W11108  19.280  42.490   2.394
49798W        W11109  14.202  30.436  10.408
49799W        W11110  20.542   6.860   0.760
49800W        W11111  10.335  41.380   1.386
49801W        W11112  39.447  31.958   2.837
49802W        W11113  33.623  34.864  12.848
49803W        W11114  39.549   3.275  14.995
49804W        W11115  40.979  30.467   1.442
49805W        W11116   3.418  28.156   4.804
49806W        W11117  40.305  22.189   2.833
49807W        W11118  38.372  43.441  14.765
49808W        W11119   7.850  25.010   4.719
49809W        W11120  29.099  15.636   2.883
49810W        W11121   5.308  14.326  14.385
49811W        W11122  29.990  32.457   0.466
49812W        W11123   1.358  11.132  14.378
49813W        W11124  28.455  37.984   1.906
49814W        W11125  22.133  34.577  11.029
49815W        W11126  12.713  32.586  14.356
49816W        W11127  23.580  16.641   4.774
49817W        W11128  32.009  33.009   0.774
49818W        W11129  14.739  43.293  14.935
49819W        W11130  28.102  37.542  12.970
49820W        W11131   1.347   2.950   2.287
49821W        W11132  23.617  42.998   4.290
49822W        W11133  36.895  32.417  10.159
49823W        W11134  17.598  21.254  14.999
49824W        W11135   6.352  33.010  13.001
49825W        W11136  40.977  37.968   3.647
49826W        W11137  11.721  15.661  12.969
49827W        W11138  25.020  29.960  13.463
49828W        W11139  27.618  16.765   0.377
49829W        W11140  12.210  29.102  14.860
49830W        W11141  37.581   5.365  14.443
49831W        W11142  43.941  43.976   3.293
49832W        W11143  44.284  16.186  14.459
49833W        W11144  11.281  38.543   4.336
49834W        W11145  16.115  33.995  12.556
49835W        W11146   4.207  39.916  11.429
49836W        W11147  12.206   2.383  13.992
49837W        W11148   7.195   3.765  12.435
49838W        W11149  36.033  38.495  12.893
49839W        W11150  36.084   7.700  12.850
49840W        W11151  11.221  34.529   0.441
49841W        W11152  31.897  30.132  10.465
49842W        W11153  37.067  12.649  11.422
49843W        W11154  32.897  43.824  12.558
49844W        W11155   4.881  22.725  10.958
49845W        W11156  32.925   6.691   3.678
49846W        W11157  12.688  25.062  11.928
49847W        W11158   6.872  20.075   0.781
49848W        W11159  28.979   4.705   4.837
49849W        W11160  20.084  30.150  11.587
49850W        W11161   5.770   3.241   2.291
49851W        W11162  22.103  33.103  11.938
49852W        W11163  32.474  43.970  11.866
49853W        W11164  21.752  29.441  13.314
49854W        W11165  36.591   8.768   1.868
49855W        W11166  16.115  12.318   1.309
49856W        W11167  34.547  12.612  14.992
49857W        W11168  39.535   0.796   4.151
49858W        W11169  29.087  34.424   1.228
49859W        W11170  24.511   8.842  13.397
49860W        W11171   7.361  21.636   1.401
49861W        W11172   9.716  23.168  13.344
49862W        W11173  27.675  36.099  12.536
49863W        W11174  44.342  36.974  10.138
49864W        W11175  11.812  39.020  13.948
49865W        W11176  23.181  14.633  13.791
49866W        W11177  32.437  14.231  11.498
49867W        W11178   9.225  44.797  13.372
49868W        W11179  20.243  40.032   1.426
49869W        W11180  12.361  17.064   2.303
49870W        W11181  37.435  25.109  10.935
49871W        W11182  39.365  37.055  14.408
49872W        W11183  16.787  20.641  11.117
49873W        W11184  31.616  40.332   3.322
49874W        W11185  41.411  10.865  14.375
49875W        W11186  16.655  32.897   4.627
49876W        W11187  44.392  11.247  13.011
49877W        W11188   8.240  36.411  13.487
49878W        W11189  24.202  26.702   4.253
49879W        W11190   7.861   6.327   0.739
49880W        W11191  39.969  27.968   3.235
49881W        W11192   5.847   1.787   0.347
49882W        W11193  34.107  28.127   1.438
49883W        W11194  29.568  18.253  12.049
49884W        W11195   3.416  29.046   0.873
49885W        W11196   3.728   5.815  13.970
49886W        W11197  16.803  18.084  12.854
49887W        W11198  17.796  13.288  13.984
49888W        W11199   7.349   1.286  13.354
49889W        W11200  11.710  37.532  10.048
49890W        W11201  16.174  26.984   3.177
49891W        W11202  44.352   6.718  14.412
49892W        W11203  21.678  37.856   3.199
49893W        W11204   7.241  37.563  12.005
49894W        W11205  12.744  31.449   0.762
49895W        W11206  35.942  17.786  11.887
49896W        W11207  32.456  17.637   4.288
49897W        W11208   3.740   3.821  14.894
49898W        W11209   9.663   8.336   0.390
49899W        W11210  20.212  29.454   1.220
49900W        W11211  28.094  33.009  11.499
49901W        W11212  22.566  44.837  13.852
49902W        W11213  11.229  23.222  10.476
49903W        W11214  44.765  26.536  12.861
49904W        W11215  29.483  40.346   2.226
49905W        W11216  18.712  41.362  10.037
49906W        W11217  23.187  38.561  11.601
49907W        W11218  22.163  17.654   4.173
49908W        W11219  17.137  31.516  13.440
49909W        W11220  43.470  14.263   3.226
49910W        W11221  24.078   1.919   5.132
49911W        W11222  29.011  27.042  10.502
49912W        W11223  39.372  15.623   0.464
49913W        W11224  22.250  37.013   1.417
49914W        W11225   6.310  31.914   2.408
49915W        W11226   9.763  32.980  12.423
49916W        W11227  39.965  14.257  11.088
49917W        W11228   7.761   4.712   2.404
49918W        W11229  18.783   9.377   4.231
49919W        W11230   1.824  16.641   0.911
49920W        W11231   0.867   7.827  11.565
49921W        W11232  33.063  23.125  14.474
49922W        W11233   8.870  20.725  13.439
49923W        W11234  38.878  41.904  13.480
49924W        W11235   8.813   7.883  11.534
49925W        W11236   6.345  32.948  13.914
49926W        W11237  19.780  15.224   1.804
49927W        W11238  42.952  24.636  11.514
49928W        W11239  24.216   1.765  14.424
49929W        W11240  18.632   9.726  12.964
49930W        W11241  42.874   6.733  14.007
49931W        W11242   6.825   4.783   0.728
49932W        W11243  38.821  30.000   1.925
49933W        W11244  19.682   9.335   3.731
49934W        W11245  12.130  11.730  12.039
49935W        W11246  10.357  17.214  12.517
49936W        W11247  17.105   9.829  13.931
49937W        W11248   3.847   5.202  11.029
49938W        W11249  12.811  21.243   1.794
49939W        W11250  30.593  43.835  13.943
49940W        W11251  17.129  30.498  11.051
49941W        W11252  40.530  11.838   1.331
49942W        W11253   1.752  25.001   1.797
49943W        W11254   1.362  19.695   1.705
49944W        W11255  36.505   4.827   4.152
49945W        W11256  28.442  38.402   1.885
49946W        W11257  35.858  14.174  11.980
49947W        W11258  39.489  18.107   2.273
49948W        W11259  32.085  17.233   0.304
49949W        W11260  24.208  19.069   4.187
49950W        W11261  11.239  27.983  13.369
49951W        W11262  24.008   1.265   4.740
49952W        W11263  23.628  23.186  10.479
49953W        W11264  40.884  29.525   2.356
49954W        W11265  43.290  28.513   2.760
49955W        W11266   4.904   7.907   2.725
49956W        W11267   2.294  14.272  10.452
49957W        W11268   1.339  40.372  14.798
49958W        W11269   6.712  16.802  12.373
49959W        W11270  41.322   4.344  14.795
49960W        W11271   4.874  20.192   2.725
49961W        W11272  43.462  38.951  12.515
49962W        W11273  42.471  40.833  11.876
49963W        W11274   9.328  34.952   1.694
49964W        W11275  44.971  13.138  11.942
49965W        W11276  15.639  44.330   3.849
49966W        W11277  21.210  20.670   2.783
49967W        W11278  17.783   1.790  14.409
49968W        W11279   9.374  22.733   0.840
49969W        W11280  41.960  35.067   0.277
49970W        W11281  15.255  31.505   3.273
49971W        W11282  36.442  35.927   0.457
49972W        W11283   9.359  44.276   2.285
49973W        W11284  24.196  20.224   1.302
49974W        W11285   4.845  25.555   1.799
49975W        W11286  10.646   0.259   0.914
49976W        W11287   8.871  15.102  13.332
49977W        W11288   3.325  23.506  13.492
49978W        W11289  25.710   4.730  13.060
49979W        W11290  39.494  25.470  10.909
49980W        W11291  33.072   1.744  14.513
49981W        W11292  20.627   8.316  13.839
49982W        W11293   2.331  26.657   3.295
49983W        W11294  33.391  28.022   0.265
49984W        W11295  32.527   1.850  10.407
49985W        W11296  18.143  28.184  10.479
49986W        W11297  36.894  24.560  12.992
49987W        W11298  18.100  12.331  12.453
49988W        W11299  28.439  41.410   3.160
49989W        W11300  39.907  20.099  14.351
49990W        W11301  31.406  24.208  14.451
49991W        W11302  38.415   2.322   3.719
49992W        W11303  42.813  25.679   4.317
49993W        W11304  43.506   3.932  10.434
49994W        W11305  14.190  44.001  12.990
49995W        W11306   0.799  23.200   4.122
49996W        W11307  23.695  33.025  14.350
49997W        W11308  27.641  15.228  12.852
49998W        W11309   4.916  44.010  10.572
49999W        W11310  41.391  10.720   2.409
50000W        W11311  22.655  44.769  11.375
50001W        W11312   8.229  30.515  12.554
50002W        W11313   1.957   2.834   1.412
50003W        W11314  38.900  28.446  14.955
50004W        W11315  10.828  18.706  11.924
50005W        W11316   1.804   2.370  10.917
50006W        W11317   3.926   5.401  11.568
50007W        W11318   0.755   4.713  10.630
50008W        W11319   8.832   5.714  11.949
50009W        W11320  32.104  18.230  12.377
50010W        W11321  41.959  35.913   1.338
50011W        W11322  36.495  34.374  11.027
50012W        W11323  29.668  31.071   2.358
50013W        W11324  38.471  14.742  12.907
50014W        W11325  30.516  18.787  12.829
50015W        W11326   2.391  29.658  12.538
50016W        W11327  30.598  41.854  12.938
50017W        W11328   5.764  43.767   4.206
50018W        W11329  29.153   4.349   0.919
50019W        W11330   7.205   4.327   1.380
50020W        W11331  17.655  38.885  13.486
50021W        W11332  20.537  13.166   4.786
50022W        W11333  27.486  40.933  11.976
50023W        W11334  16.634  35.032   3.848
50024W        W11335  29.649  21.749   0.246
50025W        W11336  11.771  21.243  14.422
50026W        W11337  28.006  36.463   0.891
50027W        W11338  36.017  35.001  14.944
50028W        W11339   2.432  36.371  10.537
50029W        W11340  10.773   3.451  14.431
50030W        W11341  42.905  25.488   5.098
50031W        W11342  17.580   6.314   4.234
50032W        W11343  20.124   4.823   1.847
50033W        W11344   0.801   2.915  12.386
50034W        W11345  43.343   0.439  10.466
50035W        W11346   6.824  36.854  10.478
50036W        W11347  37.358   2.468   2.693
50037W        W11348  21.697  23.731  11.871
50038W        W11349  42.376  26.192  12.041
50039W        W11350   0.345  11.268  10.984
50040W        W11351  21.165  33.105  10.990
50041W        W11352  20.196  22.119   2.238
50042W        W11353  25.513  26.626   0.937
50043W        W11354  33.906  40.415   1.905
50044W        W11355   0.864  41.812   1.434
50045W        W11356  20.105  31.524   1.776
50046W        W11357  15.748  31.577  10.917
50047W        W11358  10.184  44.798  12.364
50048W        W11359   5.331  41.809  14.917
50049W        W11360  27.473  44.396   0.466
50050W        W11361  33.934  27.134  13.914
50051W        W11362   5.267  21.059   4.809
50052W        W11363  13.171  14.280  14.840
50053W        W11364   4.865  33.021  12.966
50054W        W11365  14.700  43.427  14.013
50055W        W11366  13.247  27.965  11.108
50056W        W11367  29.119  11.225   4.254
50057W        W11368  35.865  19.078  11.927
50058W        W11369  32.967  30.147  11.446
50059W        W11370  30.995  32.477   1.451
50060W        W11371  32.093  38.329  14.809
50061W        W11372   2.427  39.389  11.520
50062W        W11373  14.130  17.098   2.792
50063W        W11374  10.705  36.062   1.381
50064W        W11375  42.419  20.225  12.517
50065W        W11376  16.631  32.403   0.373
50066W        W11377  13.683  42.000   0.764
50067W        W11378  25.632   5.858   4.245
50068W        W11379  34.008  39.819   2.859
50069W        W11380  27.532  13.602  14.885
50070W        W11381  36.905  42.450   3.347
50071W        W11382  11.237  35.941  14.781
50072W        W11383  23.049  25.094  12.440
50073W        W11384  16.773  25.523   0.308
50074W        W11385  29.016  24.989  12.037
50075W        W11386  44.348  21.213   4.184
50076W        W11387  17.647  18.235   0.340
50077W        W11388  12.647  31.972  10.934
50078W        W11389   6.281  43.465  13.916
50079W        W11390  29.490   7.763  13.403
50080W        W11391   0.760   2.463  11.014
50081W        W11392  12.829  23.190  11.504
50082W        W11393   3.326   5.701  14.334
50083W        W11394  44.285  44.292  12.957
50084W        W11395  34.439  16.223  13.992
50085W        W11396  12.228  15.760  13.372
50086W        W11397   7.358  25.155  11.867
50087W        W11398  30.536  39.005  13.521
50088W        W11399   7.723   4.302  10.529
50089W        W11400  31.908  10.374  13.840
50090W        W11401  16.686   7.200   1.793
50091W        W11402  12.199  18.153   3.661
50092W        W11403  35.953   2.457  11.101
50093W        W11404  32.965  31.502  13.896
50094W        W11405  21.129  27.191  14.973
50095W        W11406  31.495   0.385   0.787
50096W        W11407  44.896   6.906  12.367
50097W        W11408  19.221  42.291   4.153
50098W        W11409  10.724  15.170   3.176
50099W        W11410  41.023   0.862   1.723
50100W        W11411  17.564  44.438   4.615
50101W        W11412  24.058  42.920  14.347
50102W        W11413  31.152  35.097   1.442
50103W        W11414   7.267  25.586   4.806
50104W        W11415  21.030   4.828  11.544
50105W        W11416  16.633  27.500   1.361
50106W        W11417  16.646  12.653   2.789
50107W        W11418   7.349   3.328   9.996
50108W        W11419  26.205   1.323  13.471
50109W        W11420   4.751  19.280   0.850
50110W        W11421   2.819  11.798   2.777
50111W        W11422  41.468   7.848  10.941
50112W        W11423  16.211  40.017   0.732
50113W        W11424  14.185  22.048   3.760
50114W        W11425  33.621  29.921   1.262
50115W        W11426  15.657  32.393  14.429
50116W        W11427  31.451  12.656  14.793
50117W        W11428  12.277  18.668  13.920
50118W        W11429  11.192  37.440   0.372
50119W        W11430  33.091  10.138  13.055
50120W        W11431  24.011  29.445  10.979
50121W        W11432  26.957  39.475  12.382
50122W        W11433  31.123  15.221  14.018
50123W        W11434   5.314  26.125  14.886
50124W        W11435   2.317  35.854   1.277
50125W        W11436   0.972  25.116   0.901
50126W        W11437  28.632  35.955   4.152
50127W        W11438  21.521  24.210  11.949
50128W        W11439  22.093  22.675   1.806
50129W        W11440  26.615  25.186   3.741
50130W        W11441   2.369  41.523   2.833
50131W        W11442  25.528  32.466   0.798
50132W        W11443  35.884  28.030   1.715
50133W        W11444  39.518  29.964   2.305
50134W        W11445  12.209  31.012   0.800
50135W        W11446   9.782   6.916   2.891
50136W        W11447   7.180  41.469  11.444
50137W        W11448  14.590  19.220  13.009
50138W        W11449  33.095  21.625   2.417
50139W        W11450  28.646   1.760  13.430
50140W        W11451  32.028  32.991  12.944
50141W        W11452  37.852  28.496   0.324
50142W        W11453  23.022  12.182   1.361
50143W        W11454  28.634   0.356   2.728
50144W        W11455  37.062  15.090   1.736
50145W        W11456  30.657  40.519   1.849
50146W        W11457  35.008  10.263  12.524
50147W        W11458  42.490  24.003   0.247
50148W        W11459  15.139  44.948   2.320
50149W        W11460   4.408  43.417   4.283
50150W        W11461  39.047  24.974  13.882
50151W        W11462  17.714  33.460   4.752
50152W        W11463  24.981  24.175   4.686
50153W        W11464  38.561  16.596   0.964
50154W        W11465   1.844  44.008  13.980
50155W        W11466  41.923  10.654   4.354
50156W        W11467   4.360  36.452  11.023
50157W        W11468  17.664   9.366   0.820
50158W        W11469   1.938  37.526  13.947
50159W        W11470  11.801  16.309   3.382
50160W        W11471  43.315  42.349   1.820
50161W        W11472  33.607  36.448  10.599
50162W        W11473  14.656  24.147   2.292
50163W        W11474  42.906  20.719   1.416
50164W        W11475  19.687  18.063  12.845
50165W        W11476  12.823   8.313  12.893
50166W        W11477  24.992  11.728  12.021
50167W        W11478  23.629  33.430  12.986
50168W        W11479   7.209  39.008  11.864
50169W        W11480  39.356  19.081   0.341
50170W        W11481  11.170  17.087   3.219
50171W        W11482  24.052  21.656   4.738
50172W        W11483  41.823   6.196   5.253
50173W        W11484   4.859  34.885  11.000
50174W        W11485  30.030   8.873  12.074
50175W        W11486  16.139  12.220   0.749
50176W        W11487  37.987  33.576   0.408
50177W        W11488   4.343  13.846  10.520
50178W        W11489  40.369  42.922  10.441
50179W        W11490  12.707  29.970   2.339
50180W        W11491   7.851  17.117  14.974
50181W        W11492  24.989   3.231   1.347
50182W        W11493  37.969  27.662   2.698
50183W        W11494  16.106  12.127   3.691
50184W        W11495  24.696   1.355   3.648
50185W        W11496  18.748  44.285  11.598
50186W        W11497  16.121  18.062  13.800
50187W        W11498   5.355   8.812   0.423
50188W        W11499  27.066   0.418  10.614
50189W        W11500  40.967  10.262   4.644
50190W        W11501  23.182  42.840   1.833
50191W        W11502  21.695   1.435  11.026
50192W        W11503  30.016  19.195  11.485
50193W        W11504   2.874   4.929  10.919
50194W        W11505  32.126  23.634   2.216
50195W        W11506  23.554  37.454   1.828
50196W        W11507  28.557  34.918   2.881
50197W        W11508  14.738  38.530  13.007
50198W        W11509  41.460  24.707  13.990
50199W        W11510   0.884  38.047   4.155
50200W        W11511   0.746  43.018   0.293
50201W        W11512  36.993  16.661   3.285
50202W        W11513  44.951  32.892   3.851
50203W        W11514  15.712  20.579  12.390
50204W        W11515  24.047  39.434  14.507
50205W        W11516   3.410  24.497   3.269
50206W        W11517  10.352  28.978   1.243
50207W        W11518   8.869  19.242   3.805
50208W        W11519  30.112  18.754   4.827
50209W        W11520   0.966  16.178  10.451
50210W        W11521   4.903  25.986   2.847
50211W        W11522  31.447  27.044  11.469
50212W        W11523  31.942  42.366   2.775
50213W        W11524   1.405   6.783   0.919
50214W        W11525  19.767   4.450  11.918
50215W        W11526  10.790  12.283   4.754
50216W        W11527  19.177  43.780  12.951
50217W        W11528   5.373  22.250   2.848
50218W        W11529  24.075  23.084  13.363
50219W        W11530  26.615  28.945   3.687
50220W        W11531  23.672   7.898   4.600
50221W        W11532   4.826  37.000  11.549
50222W        W11533  42.344   9.161   2.259
50223W        W11534  19.065  35.559   0.866
50224W        W11535   4.383  23.029   4.307
50225W        W11536  32.931  38.828   2.224
50226W        W11537   1.977  17.558   0.249
50227W        W11538  24.635  24.083  13.350
50228W        W11539  38.904  29.032  10.921
50229W        W11540  19.145   6.189  14.821
50230W        W11541  19.554   2.856   1.846
50231W        W11542   8.315   4.715  10.117
50232W        W11543  13.634   8.781   4.647
50233W        W11544  42.919   9.681   3.382
50234W        W11545  23.011  24.211   3.676
50235W        W11546  29.133  25.482   1.354
50236W        W11547   8.176  29.430  12.404
50237W        W11548  17.167  19.679   1.853
50238W        W11549  19.730  15.626   1.220
50239W        W11550  22.723  41.409   0.796
50240W        W11551  32.934  20.633   2.338
50241W        W11552  42.917  18.133   0.747
50242W        W11553  21.145   2.450  12.073
50243W        W11554  37.568  31.118   0.879
50244W        W11555  15.114  15.290   2.867
50245W        W11556  38.374  13.809  14.967
50246W        W11557  35.873  25.544   0.966
50247W        W11558   5.895  25.072  13.387
50248W        W11559   3.827   6.905  10.947
50249W        W11560  30.560   0.944  12.518
50250W        W11561  43.281  40.024  14.472
50251W        W11562  21.647   4.265   3.233
50252W        W11563  38.059   4.321   1.827
50253W        W11564  27.017  26.093   3.366
50254W        W11565  21.600   0.300  11.964
50255W        W11566  13.608  14.748  14.325
50256W        W11567   7.238  20.194  13.022
50257W        W11568  24.077  13.143   2.749
50258W        W11569   5.386  19.252   1.277
50259W        W11570  31.154  26.017   4.181
50260W        W11571  21.076  23.656  10.152
50261W        W11572   2.930   4.902   1.245
50262W        W11573   8.735   1.785   1.352
50263W        W11574  39.996  29.169   0.386
50264W        W11575  14.831  25.153   5.101
50265W        W11576  38.395  40.986  12.906
50266W        W11577  41.905  25.141  14.979
50267W        W11578  17.685  40.037  13.809
50268W        W11579  30.509  12.288   0.963
50269W        W11580  14.650  19.754   4.675
50270W        W11581   9.160  27.629   2.764
50271W        W11582  28.468  19.766   0.303
50272W        W11583  40.889  44.450  11.905
50273W        W11584  30.157  42.974   4.189
50274W        W11585  13.160  33.969   3.755
50275W        W11586   5.792  27.095  13.512
50276W        W11587  29.533  19.533  14.981
50277W        W11588  43.310   2.389   1.300
50278W        W11589  37.543   4.388  12.849
50279W        W11590  37.428  11.369   0.275
50280W        W11591   3.910  18.657  11.936
50281W        W11592   0.958   0.912   3.851
50282W        W11593   4.730  34.544  10.986
50283W        W11594   7.305  41.990   1.795
50284W        W11595  24.565  38.418   0.317
50285W        W11596  12.172   8.837   2.197
50286W        W11597  44.779  40.945   3.165
50287W        W11598  17.669  14.296  11.502
50288W        W11599  35.468   5.413   3.742
50289W        W11600  42.471   6.318   4.268
50290W        W11601  43.965  35.394   4.296
50291W        W11602  44.473  41.480   0.287
50292W        W11603  29.591  39.554   4.712
50293W        W11604  37.081  40.533  13.805
50294W        W11605  37.958  36.575   0.318
50295W        W11606  43.318  20.680  10.996
50296W        W11607  40.877  32.066  10.916
50297W        W11608   8.856  15.209  10.556
50298W        W11609  43.021  18.280   2.780
50299W        W11610  14.139  32.925  14.375
50300W        W11611  11.369  25.082   9.922
50301W        W11612  34.892  12.702   5.115
50302W        W11613  18.657   5.413  14.939
50303W        W11614   9.337  30.441  11.973
50304W        W11615  20.748  35.408   3.327
50305W        W11616   2.959  34.010   0.957
50306W        W11617  44.854   9.836   4.309
50307W        W11618  31.534  28.677  13.842
50308W        W11619  21.637   0.296   3.848
50309W        W11620   7.353  33.965   0.480
50310W        W11621  36.852   8.211   3.809
50311W        W11622  36.470  42.335   3.700
50312W        W11623  40.516  29.941   2.322
50313W        W11624  13.184  16.634  13.847
50314W        W11625  41.367  18.096  13.328
50315W        W11626  13.127   6.383   0.280
50316W        W11627  27.520  12.328   3.784
50317W        W11628   6.877  41.991   0.954
50318W        W11629  18.570   2.465  10.428
50319W        W11630   6.751  20.639  11.437
50320W        W11631  25.563  17.774   3.646
50321W        W11632  12.715  42.433  13.923
50322W        W11633  24.102  35.948  13.049
50323W        W11634  27.078  20.709   9.475
50324W        W11635  24.624  29.562   1.721
50325W        W11636  39.851  34.427   2.366
50326W        W11637  36.439  24.134  13.861
50327W        W11638   6.777  16.646  12.941
50328W        W11639  30.913  31.521   1.899
50329W        W11640  31.993  29.084  11.390
50330W        W11641  26.005   3.378   3.839
50331W        W11642   1.961   3.238   3.837
50332W        W11643  22.193  24.614   0.292
50333W        W11644   8.374   7.755  11.987
50334W        W11645  39.022  19.771  11.879
50335W        W11646  38.492  37.966   4.711
50336W        W11647  43.471  28.081  11.528
50337W        W11648  15.213  42.404   0.898
50338W        W11649   7.173  17.084  11.400
50339W        W11650   8.661  15.286  11.044
50340W        W11651   5.221   5.404   1.777
50341W        W11652  24.093  41.972  11.379
50342W        W11653  28.488  10.268   0.352
50343W        W11654  36.005  18.278  12.407
50344W        W11655   8.345  19.622  11.108
50345W        W11656  37.967  20.167  12.555
50346W        W11657  41.877  27.456  12.577
50347W        W11658  28.089  28.594   1.730
50348W        W11659   4.415  11.781  13.806
50349W        W11660  26.040  40.825  13.929
50350W        W11661   0.459  20.573  14.392
50351W        W11662  42.818  29.039   3.308
50352W        W11663  44.005  26.013   1.285
50353W        W11664   6.328  19.696  11.879
50354W        W11665  36.413   4.416  10.424
50355W        W11666  28.631   9.320   2.396
50356W        W11667  23.211  12.681   1.423
50357W        W11668  25.636  25.545   0.776
50358W        W11669  15.263  20.604   0.936
50359W        W11670   7.809  23.132   4.698
50360W        W11671   8.166  23.510  11.917
50361W        W11672   6.768   5.883   4.286
50362W        W11673   2.338  12.255  14.410
50363W        W11674  37.966  11.856  13.812
50364W        W11675  22.132  22.179  13.006
50365W        W11676   3.901  17.800  12.902
50366W        W11677   6.419  24.581  13.440
50367W        W11678  39.859  36.372   1.825
50368W        W11679  44.853  33.946   3.864
50369W        W11680  28.083  40.802  12.096
50370W        W11681  27.168  40.353   1.755
50371W        W11682  40.962  33.034  12.086
50372W        W11683  40.966  24.224  10.619
50373W        W11684   2.454  16.132  11.418
50374W        W11685  13.159   7.776  14.335
50375W        W11686  10.299  27.661   1.783
50376W        W11687  32.994  26.002  11.412
50377W        W11688  36.472  31.032   1.749
50378W        W11689  22.035  41.527  14.959
50379W        W11690   4.889  13.605   2.179
50380W        W11691   3.757  15.650   2.294
50381W        W11692  13.784   4.781  14.009
50382W        W11693  26.959  21.563  12.873
50383W        W11694  16.797   0.295  12.547
50384W        W11695  27.050  30.091  11.096
50385W        W11696  14.646  42.014   1.755
50386W        W11697  35.969  41.407  11.894
50387W        W11698   9.377  27.523  14.406
50388W        W11699  27.169  39.023   1.700
50389W        W11700  11.203  36.551  13.450
50390W        W11701  10.360  38.920  10.013
50391W        W11702   5.749  13.681  14.842
50392W        W11703  20.138  20.176  12.935
50393W        W11704   5.765   7.685   1.383
50394W        W11705   2.883  11.853  13.349
50395W        W11706  42.945  12.837  11.566
50396W        W11707  14.148  43.285   1.319
50397W        W11708   9.315  16.093  10.441
50398W        W11709  39.989   9.215  12.929
50399W        W11710  33.623  42.418  13.932
50400W        W11711  36.461  18.783  12.982
50401W        W11712  10.660   4.395   2.677
50402W        W11713   8.803  38.392  14.294
50403W        W11714  41.458  17.631  13.403
50404W        W11715  39.471  33.103   3.157
50405W        W11716  23.681   3.305   0.366
50406W        W11717   6.906  37.565   4.750
50407W        W11718  26.547  14.237   3.382
50408W        W11719  19.118   7.248  10.490
50409W        W11720  40.364  32.027  13.915
50410W        W11721  40.491  15.585   4.709
50411W        W11722   0.429  34.990   4.781
50412W        W11723   7.239  35.592   0.467
50413W        W11724  33.917  34.068   0.248
50414W        W11725  23.065   2.367   4.232
50415W        W11726  12.656  13.801   4.733
50416W        W11727   8.794  12.295  11.073
50417W        W11728   4.264  39.361   2.881
50418W        W11729  44.858   8.835  10.444
50419W        W11730  24.018  10.771   2.282
50420W        W11731  29.998  40.891  12.965
50421W        W11732  20.238   0.448   0.795
50422W        W11733  42.352  34.524  14.968
50423W        W11734  41.431   6.377   0.301
50424W        W11735   5.196  12.307   0.897
50425W        W11736  24.056  40.317  10.448
50426W        W11737  29.644  41.373  13.982
50427W        W11738   3.833   6.740  12.031
50428W        W11739   9.215  36.038  11.391
50429W        W11740   5.757  30.074  10.966
50430W        W11741  34.501  38.905   3.790
50431W        W11742  41.375  26.637  13.457
50432W        W11743  20.761  29.654   4.155
50433W        W11744  26.123   2.909   2.198
50434W        W11745  36.932  20.577  10.527
50435W        W11746  17.603   6.230   2.828
50436W        W11747  29.552  12.150  10.638
50437W        W11748  18.257   2.435   4.316
50438W        W11749  29.547   5.199   3.859
50439W        W11750   9.829  35.413  13.473
50440W        W11751  32.439  17.742  10.903
50441W        W11752  25.110  44.328  12.519
50442W        W11753  38.032  15.301   3.324
50443W        W11754  31.470  44.771   2.687
50444W        W11755  39.024  27.473   4.131
50445W        W11756  30.442   3.734  10.583
50446W        W11757   7.845  32.413   3.702
50447W        W11758  11.751  34.459  11.024
50448W        W11759  33.117  29.172  14.865
50449W        W11760  24.660  41.496  10.498
50450W        W11761   4.432  26.630   3.741
50451W        W11762  36.955   2.409   2.747
50452W        W11763  28.578  24.190   2.817
50453W        W11764   5.251  41.794  13.999
50454W        W11765  18.666  36.515  13.047
50455W        W11766  16.638  11.795  14.001
50456W        W11767  26.493  14.790  10.582
50457W        W11768  29.981  29.518   2.776
50458W        W11769  28.632  33.518  10.895
50459W        W11770  12.788   2.325  12.499
50460W        W11771  20.643  43.458   4.741
50461W        W11772  12.139  33.581  14.854
50462W        W11773  16.139  13.338   4.617
50463W        W11774  30.934  44.861   1.740
50464W        W11775  10.690  17.586  11.073
50465W        W11776  17.101  24.989  12.842
50466W        W11777   6.382   6.795   3.204
50467W        W11778  24.211   2.803   1.277
50468W        W11779   0.403  25.988   3.317
50469W        W11780   0.817  39.890  10.634
50470W        W11781  21.602  29.429   5.144
50471W        W11782  19.647  39.412   2.696
50472W        W11783  27.099  25.996  12.926
50473W        W11784  40.897  23.187   2.734
50474W        W11785  10.221  34.879  11.511
50475W        W11786  38.998  22.163  14.981
50476W        W11787   5.288   1.392   0.842
50477W        W11788   3.430   3.814  13.998
50478W        W11789  17.126   9.383  12.356
50479W        W11790  36.991  35.530   4.830
50480W        W11791  28.596  33.979   3.668
50481W        W11792  12.148   7.819  12.548
50482W        W11793  13.324  28.550   4.762
50483W        W11794  39.956  12.722  13.927
50484W        W11795  18.784  16.294  13.972
50485W        W11796  28.476  13.228  13.398
50486W        W11797  33.471   2.297   4.784
50487W        W11798  23.999  32.607   1.438
50488W        W11799  24.702   7.233   2.702
50489W        W11800  13.650  27.629   4.259
50490W        W11801   1.876   5.396  12.862
50491W        W11802  36.358  18.053  14.835
50492W        W11803   5.885   8.396   0.341
50493W        W11804  11.172  19.632  12.974
50494W        W11805  41.978  36.380  11.090
50495W        W11806   0.811  18.183  13.393
50496W        W11807  36.073  30.580   1.278
50497W        W11808  14.735   8.672  13.969
50498W        W11809  28.153  40.354   4.737
50499W        W11810  15.180  29.076  12.844
50500W        W11811  42.420   3.823  10.525
50501W        W11812  12.821   6.201  12.496
50502W        W11813  35.978  20.589  12.404
50503W        W11814  38.340  42.293   1.872
50504W        W11815   3.261   8.174   3.728
50505W        W11816  29.137  10.875  10.516
50506W        W11817  13.710  43.469  10.633
50507W        W11818   9.704  26.489   2.393
50508W        W11819  33.887  38.566   5.726
50509W        W11820  31.036  39.471   4.753
50510W        W11821  41.033  33.442  14.449
50511W        W11822  31.450   1.352   1.368
50512W        W11823   4.267   9.189   2.859
50513W        W11824  29.507  24.159   1.803
50514W        W11825   3.739  10.775   0.430
50515W        W11826  15.585   4.220   3.318
50516W        W11827   1.922  28.076   4.267
50517W        W11828  13.755  30.911  10.448
50518W        W11829   8.406  40.907   1.225
50519W        W11830  31.927   8.692  13.539
50520W        W11831   2.903   7.262  12.406
50521W        W11832  39.947  15.094   0.405
50522W        W11833  26.058  19.677  10.135
50523W        W11834   8.853  33.599  11.910
50524W        W11835  39.987  12.336   3.238
50525W        W11836  22.056  12.341   3.220
50526W        W11837  31.631   5.875  11.929
50527W        W11838  15.638  14.121   0.459
50528W        W11839  17.712  28.654   2.197
50529W        W11840   0.493  18.696  14.348
50530W        W11841  17.168  15.820  14.982
50531W        W11842  25.563  35.950   3.314
50532W        W11843  27.474   3.780  14.880
50533W        W11844  44.320  10.349  10.099
50534W        W11845  35.104  31.441  12.927
50535W        W11846  38.383  17.307   0.301
50536W        W11847  23.110  23.140  10.536
50537W        W11848   0.409  41.901   4.688
50538W        W11849  20.698  44.938  14.982
50539W        W11850  17.115   9.713  14.821
50540W        W11851  38.964  20.601   4.698
50541W        W11852  23.712  44.480   4.837
50542W        W11853  29.974  10.712  12.401
50543W        W11854  22.713   8.373   1.754
50544W        W11855  41.395  34.550   3.210
50545W        W11856  38.044  36.064  11.373
50546W        W11857  20.675   8.316   4.127
50547W        W11858  10.186   3.325   2.269
50548W        W11859  31.535  13.837  13.016
50549W        W11860  33.957  18.190  12.835
50550W        W11861  36.546  37.530   1.853
50551W        W11862  17.650  24.161  12.045
50552W        W11863  27.672   9.192   4.271
50553W        W11864  37.530  32.481   5.800
50554W        W11865  41.424  44.381  10.098
50555W        W11866   3.333  35.489  11.483
50556W        W11867  40.478  18.081  13.413
50557W        W11868  42.433  13.681   4.781
50558W        W11869  42.810  18.289   2.275
50559W        W11870  16.585  12.849   0.417
50560W        W11871   5.368  32.911   1.748
50561W        W11872  20.672  22.635   2.766
50562W        W11873  37.023  28.115  12.830
50563W        W11874   4.766  19.180  14.424
50564W        W11875  43.431  32.599   3.762
50565W        W11876   8.262  43.345   4.687
50566W        W11877  13.343   1.258   3.858
50567W        W11878  41.312  38.954  12.879
50568W        W11879  26.998  40.937   3.191
50569W        W11880   9.342   3.435   3.698
50570W        W11881  23.025  24.147   0.316
50571W        W11882  23.056  31.420  11.002
50572W        W11883  39.544   9.310  13.803
50573W        W11884  33.533  15.082  11.086
50574W        W11885  37.047   1.371   2.685
50575W        W11886  28.009  28.647  12.045
50576W        W11887   8.842  34.514   0.743
50577W        W11888  30.923  32.075   2.774
50578W        W11889   1.825  22.733  11.570
50579W        W11890   4.298  32.600   2.692
50580W        W11891  35.014  10.298   0.472
50581W        W11892  15.730  43.273   2.195
50582W        W11893  27.484   5.219   0.365
50583W        W11894   8.219  32.541  14.977
50584W        W11895  35.487   4.377   2.686
50585W        W11896  10.290   3.727   2.232
50586W        W11897  12.727  43.295   2.326
50587W        W11898   6.197  35.952   3.196
50588W        W11899  20.097   7.386  11.037
50589W        W11900   6.350  10.774   2.198
50590W        W11901  19.557  20.195   0.282
50591W        W11902  28.122  21.545   3.766
50592W        W11903  14.224  41.930  11.902
50593W        W11904  41.534   5.315  10.452
50594W        W11905  25.992  42.928   2.388
50595W        W11906  22.234  20.583   2.351
50596W        W11907  37.571   0.415   2.191
50597W        W11908  32.544  10.679  12.357
50598W        W11909  40.455  44.396   5.234
50599W        W11910  18.785  26.595  14.304
50600W        W11911   5.433   8.861  12.387
50601W        W11912  23.653  24.131  14.279
50602W        W11913  43.311  34.368   4.606
50603W        W11914  29.114  32.454  12.062
50604W        W11915  43.953  38.865  10.552
50605W        W11916   6.774   1.802  13.442
50606W        W11917  38.953  38.419  10.487
50607W        W11918  21.559   2.232  12.443
50608W        W11919  16.738  41.918   2.773
50609W        W11920   3.410   5.315   1.910
50610W        W11921  24.531  16.071   4.225
50611W        W11922  43.337  27.996  10.001
50612W        W11923   3.803   3.823  13.928
50613W        W11924  18.071  23.129   1.783
50614W        W11925  16.601  27.181  13.807
50615W        W11926  12.683  26.576  11.479
50616W        W11927  18.674   9.829  14.914
50617W        W11928  11.145  25.620   0.827
50618W        W11929   2.917  43.334   3.870
50619W        W11930  14.608  23.675  12.561
50620W        W11931   7.212  13.148  13.391
50621W        W11932  33.416   5.877   3.785
50622W        W11933  21.234  16.083  13.919
50623W        W11934   1.302  29.120  11.506
50624W        W11935   3.414  27.108   3.790
50625W        W11936   9.712  23.040  13.868
50626W        W11937  32.917  19.680  10.547
50627W        W11938  11.705  12.179  10.615
50628W        W11939   9.177  14.287   2.303
50629W        W11940  34.063  31.955  12.520
50630W        W11941  35.461  27.943   2.669
50631W        W11942  39.463  21.703   3.185
50632W        W11943   1.835  29.520   0.378
50633W        W11944  20.256  28.106  11.052
50634W        W11945  27.583  40.855   2.332
50635W        W11946   3.876  41.524   2.285
50636W        W11947   1.831   8.726   1.913
50637W        W11948   1.320  41.293   2.670
50638W        W11949   4.734  14.603  13.060
50639W        W11950   8.345  17.695  13.378
50640W        W11951  16.598  10.324  11.377
50641W        W11952  12.765  26.960  10.411
50642W        W11953  26.095   0.983   4.665
50643W        W11954   9.211  39.421  11.387
50644W        W11955  14.662  38.459   2.792
50645W        W11956  23.018  25.643  11.580
50646W        W11957  27.944  38.465   9.979
50647W        W11958  10.290  22.189  12.534
50648W        W11959  31.977   3.333   0.782
50649W        W11960   9.179   4.252  12.393
50650W        W11961  23.509  39.938  10.889
50651W        W11962  31.100  24.070  13.503
50652W        W11963  29.511  17.106   0.453
50653W        W11964  43.516  27.970   0.252
50654W        W11965  13.606  30.606   1.725
50655W        W11966  42.798   2.346  14.376
50656W        W11967  18.602  41.522   2.333
50657W        W11968  24.652  40.979   2.856
50658W        W11969  39.324  41.399   4.324
50659W        W11970  30.568   4.940  13.003
50660W        W11971  37.020  22.632  14.963
50661W        W11972  16.670  44.270  13.337
50662W        W11973  18.184  32.947   1.747
50663W        W11974   6.822  20.228   9.998
50664W        W11975  13.795   1.824   2.676
50665W        W11976   4.945  42.868   2.319
50666W        W11977  17.588  29.567   0.408
50667W        W11978  33.561   1.747   4.682
50668W        W11979  22.689  30.578   3.666
50669W        W11980  26.484   3.272   2.301
50670W        W11981  37.450  32.986  10.075
50671W        W11982  20.751  31.574   0.804
50672W        W11983  32.923   4.412   2.889
50673W        W11984   8.821  35.052  10.532
50674W        W11985  25.202  39.393   1.877
50675W        W11986   9.887  44.461  14.347
50676W        W11987   5.280  28.125   3.640
50677W        W11988  16.571  16.662   2.676
50678W        W11989   1.426  28.966   2.178
50679W        W11990  15.114  34.868   3.255
50680W        W11991  11.694  23.612   0.360
50681W        W11992   8.366   2.765   2.764
50682W        W11993  12.250  30.098   3.263
50683W        W11994  20.220  14.651   2.724
50684W        W11995  21.712  42.852   2.743
50685W        W11996   4.767  37.451  12.916
50686W        W11997  24.213  18.560   3.742
50687W        W11998  23.045   3.711  13.408
50688W        W11999  20.657  16.169  11.073
50689W        W12000   8.406   0.296   3.283
50690W        W12001  33.914  34.117  12.375
50691W        W12002  14.298  24.080   2.743
50692W        W12003  39.534  29.478  11.888
50693W        W12004   8.688  37.084  11.956
50694W        W12005   0.316  41.814   2.376
50695W        W12006   6.199  26.081  11.374
50696W        W12007  28.464  17.567   1.827
50697W        W12008  33.482  10.259  10.942
50698W        W12009  20.544  13.732  12.026
50699W        W12010   4.268  35.970  12.093
50700W        W12011   5.870  29.530   4.183
50701W        W12012  42.401   2.749   2.208
50702W        W12013  14.179  17.712   2.761
50703W        W12014   5.901   1.911   1.215
50704W        W12015   4.397  34.475  13.362
50705W        W12016  33.456  29.471  10.954
50706W        W12017   5.778   5.298   2.712
50707W        W12018  18.114  31.403  11.520
50708W        W12019  43.980   6.235   1.245
50709W        W12020  43.922  12.810  11.953
50710W        W12021  31.982  41.790   3.375
50711W        W12022  11.663  35.924   3.323
50712W        W12023  26.599  22.253   0.366
50713W        W12024   4.281  13.827   2.684
50714W        W12025  14.137  27.011   3.720
50715W        W12026  33.063  38.524  14.900
50716W        W12027  12.260  17.303   1.266
50717W        W12028  32.108   1.768  10.487
50718W        W12029   4.236  11.336  13.450
50719W        W12030  19.047  18.720   4.350
50720W        W12031  22.214   6.360   1.274
50721W        W12032   1.400  37.902  10.992
50722W        W12033   8.240  40.980   1.906
50723W        W12034  28.001  32.951  14.468
50724W        W12035  38.439  26.508   1.825
50725W        W12036  41.795  32.510   0.730
50726W        W12037   6.379   6.876   2.741
50727W        W12038  14.776  17.153   3.796
50728W        W12039  39.984  36.950   1.234
50729W        W12040  32.395  22.645   3.380
50730W        W12041   4.341  25.057   4.751
50731W        W12042  29.923  35.528   3.386
50732W        W12043  35.048  26.068  12.996
50733W        W12044  33.988  32.606   3.280
50734W        W12045   9.651  36.020  10.956
50735W        W12046  42.340  42.422  13.409
50736W        W12047  22.597  14.127  10.116
50737W        W12048  24.715  10.728  11.044
50738W        W12049  40.335  39.917   4.776
50739W        W12050  37.381  26.136  13.511
50740W        W12051   3.804  12.292  11.583
50741W        W12052  36.527  15.578  14.006
50742W        W12053  16.128  27.565   0.738
50743W        W12054  27.566  13.684   2.230
50744W        W12055   9.707  23.499   4.632
50745W        W12056  29.158  37.454   3.306
50746W        W12057  24.202   3.899   2.855
50747W        W12058  36.347   6.248  12.918
50748W        W12059  24.051  20.759   1.881
50749W        W12060  14.767  42.946   5.259
50750W        W12061  39.814  11.183   3.230
50751W        W12062  19.670  24.665   3.774
50752W        W12063   5.203   7.722   3.755
50753W        W12064  11.841  36.945   3.153
50754W        W12065   8.367  38.840   1.373
50755W        W12066  20.162  38.070   2.664
50756W        W12067  24.039  16.253  12.909
50757W        W12068  29.600  10.193   2.767
50758W        W12069  40.543   7.785  12.575
50759W        W12070  32.139  13.127   4.275
50760W        W12071   9.663  42.016   4.221
50761W        W12072  40.415  42.982  11.578
50762W        W12073  21.094  33.072  11.524
50763W        W12074  26.065   8.722   0.727
50764W        W12075  42.423  28.597   4.766
50765W        W12076  24.135   7.669  14.433
50766W        W12077  34.103  15.635   1.418
50767W        W12078  29.540   9.312  11.463
50768W        W12079  40.342  24.052  14.962
50769W        W12080  39.826  40.982  10.531
50770W        W12081  40.873  10.360  10.024
50771W        W12082  26.463  31.082   4.810
50772W        W12083  19.076   6.351  12.024
50773W        W12084  21.125  32.117   0.245
50774W        W12085  41.872  21.609  12.403
50775W        W12086  21.727  30.019  14.409
50776W        W12087   0.357  30.162   3.193
50777W        W12088  42.952  14.690  14.391
50778W        W12089  21.045   4.798  14.982
50779W        W12090  12.742  23.505   4.736
50780W        W12091  14.228  21.201   2.280
50781W        W12092  37.533  19.634   4.279
50782W        W12093  22.661  39.932  14.944
50783W        W12094  30.642  23.657   3.851
50784W        W12095  16.679  39.885   0.279
50785W        W12096  23.223  25.521   2.754
50786W        W12097   2.912  12.210  12.420
50787W        W12098  43.291   3.305  11.930
50788W        W12099  37.845   3.836  10.555
50789W        W12100  25.496  10.284  12.044
50790W        W12101  11.227  22.539  14.816
50791W        W12102  40.805  41.009  11.010
50792W        W12103  17.155  42.867   0.740
50793W        W12104  33.582  37.486  11.377
50794W        W12105  28.122  18.286  14.414
50795W        W12106  40.440  30.564   4.303
50796W        W12107  44.925  12.805  13.807
50797W        W12108  36.933  30.457  11.460
50798W        W12109  40.470   4.416   0.259
50799W        W12110  16.676  33.426   1.381
50800W        W12111   4.710  41.917  13.542
50801W        W12112  19.160  28.104  10.492
50802W        W12113  22.089  20.187   5.280
50803W        W12114   1.377   6.287   0.277
50804W        W12115  38.925  23.724   4.726
50805W        W12116  34.040  33.010   1.926
50806W        W12117  22.664  20.126  13.450
50807W        W12118  36.908  15.245   0.913
50808W        W12119  18.752  16.110   3.767
50809W        W12120  42.981  34.932  11.489
50810W        W12121   3.919   4.373  13.831
50811W        W12122  28.049  40.307   1.870
50812W        W12123  35.371  10.197   2.416
50813W        W12124   7.681  15.269  11.500
50814W        W12125  10.864  29.449  14.309
50815W        W12126  25.174  42.954   4.135
50816W        W12127   3.819  34.031  12.440
50817W        W12128  22.572  20.152   4.836
50818W        W12129  10.730   6.729  11.003
50819W        W12130  44.407   8.226  13.841
50820W        W12131   8.838  39.409   2.350
50821W        W12132  40.003  15.291   1.800
50822W        W12133  19.702   9.775   4.785
50823W        W12134  17.274  25.007   2.727
50824W        W12135  29.087  33.528   3.271
50825W        W12136  14.320  16.282   1.451
50826W        W12137  12.851  32.936  14.507
50827W        W12138  19.755  17.647   1.709
50828W        W12139  17.760  43.806  13.444
50829W        W12140  35.489  32.108   1.392
50830W        W12141  12.615  37.896   4.736
50831W        W12142  25.203  30.955  12.065
50832W        W12143  24.638  42.485  14.903
50833W        W12144  26.971  12.204  12.540
50834W        W12145  28.123  40.985   4.341
50835W        W12146   1.756  27.599   1.411
50836W        W12147  20.595  19.587  11.129
50837W        W12148   1.923   3.384  13.966
50838W        W12149   7.887  35.050  11.504
50839W        W12150   9.196  22.613  10.597
50840W        W12151  20.590   6.334   0.897
50841W        W12152   3.842  12.278   3.376
50842W        W12153   2.821  21.256   0.246
50843W        W12154  21.192  27.539  14.011
50844W        W12155   4.401   4.882   4.320
50845W        W12156  19.712  36.456  10.618
50846W        W12157  42.284  21.704  14.326
50847W        W12158   0.800  38.490   0.770
50848W        W12159  38.361   4.393   1.917
50849W        W12160  41.814  33.914   4.622
50850W        W12161  14.738  43.784  10.441
50851W        W12162  22.724   2.740   2.286
50852W        W12163  35.492  27.606  10.493
50853W        W12164  31.011   4.813  12.860
50854W        W12165  42.795  18.160  13.837
50855W        W12166   7.795  38.383  11.123
50856W        W12167  24.519  24.548  10.521
50857W        W12168  28.022  26.980  12.500
50858W        W12169  23.715  13.819   0.435
50859W        W12170  10.275  34.403   1.363
50860W        W12171  33.607  29.602  12.954
50861W        W12172  20.053  16.780  14.333
50862W        W12173  26.987  41.966   0.329
50863W        W12174  30.915  22.704  13.939
50864W        W12175  29.442  24.591  13.010
50865W        W12176  25.637  33.622   4.718
50866W        W12177  31.964   1.474   2.256
50867W        W12178  28.555  28.157   3.236
50868W        W12179  28.007  14.776  10.059
50869W        W12180  36.884  43.445  12.453
50870W        W12181  37.527   7.188   3.334
50871W        W12182  33.616  32.895  11.031
50872W        W12183  24.580  28.661  13.049
50873W        W12184  41.875  10.177   5.182
50874W        W12185   5.847  27.457  12.361
50875W        W12186   6.368  33.504  11.460
50876W        W12187  28.035  25.062  12.891
50877W        W12188  43.385  27.997  10.984
50878W        W12189  33.961  38.337   4.629
50879W        W12190  20.678  43.403  14.947
50880W        W12191  20.622  21.263  10.040
50881W        W12192  20.651  12.853  11.020
50882W        W12193  17.271  32.086  12.087
50883W        W12194   1.955  37.940  13.982
50884W        W12195   9.370  23.205  14.785
50885W        W12196  14.741  41.351   1.860
50886W        W12197  39.540  35.562   3.264
50887W        W12198  20.613  16.574  10.573
50888W        W12199  24.993  43.941   4.327
50889W        W12200  16.197  33.504   3.710
50890W        W12201  30.974  43.293   3.827
50891W        W12202  25.213  24.975   3.740
50892W        W12203   4.306  33.940   2.809
50893W        W12204  16.211   1.879  14.953
50894W        W12205  24.630  41.375   2.270
50895W        W12206  19.565  23.603  11.530
50896W        W12207  39.828  39.025  14.995
50897W        W12208  30.976   9.757  13.392
50898W        W12209  24.066  13.657  13.976
50899W        W12210  40.482  12.284   0.832
50900W        W12211  32.107  41.422   0.435
50901W        W12212  35.030  35.035   1.821
50902W        W12213  11.635  37.499   3.365
50903W        W12214  11.721  37.953   3.688
50904W        W12215   0.318  21.113  12.930
50905W        W12216  15.185   2.439  13.030
50906W        W12217  24.693  12.728  11.056
50907W        W12218  31.919  12.850  12.516
50908W        W12219  30.005  24.166  12.825
50909W        W12220  27.659  14.663  12.343
50910W        W12221   4.819  13.292  13.854
50911W        W12222  21.242   5.333  14.985
50912W        W12223  39.525  18.596  13.856
50913W        W12224  43.984  14.662  10.629
50914W        W12225  41.822  21.718  13.438
50915W        W12226  27.168  42.290  10.589
50916W        W12227  13.271  27.969  12.575
50917W        W12228  30.619  24.973   1.397
50918W        W12229   6.796  21.030  10.994
50919W        W12230  27.448  24.103  12.972
50920W        W12231  34.535   6.266   4.148
50921W        W12232  22.066  32.929   4.782
50922W        W12233   9.376  15.213   0.778
50923W        W12234  35.024   7.670   0.420
50924W        W12235  22.131  33.590   9.968
50925W        W12236  18.171  37.539  14.955
50926W        W12237  27.112  23.178   0.353
50927W        W12238  21.079  24.634  14.430
50928W        W12239  20.627  14.774   0.420
50929W        W12240  43.009  33.613  12.908
50930W        W12241   4.207  10.191  11.012
50931W        W12242  36.961  22.589   4.602
50932W        W12243  13.600   0.903   2.796
50933W        W12244   1.733  39.347  13.007
50934W        W12245  14.709  30.589  10.513
50935W        W12246  31.046  42.289  11.917
50936W        W12247  10.315  27.107  11.549
50937W        W12248  31.028  18.700   3.195
50938W        W12249   2.869  38.070   1.400
50939W        W12250  21.216  40.544  13.540
50940W        W12251  38.535  18.096   3.164
50941W        W12252  42.431  15.632  11.085
50942W        W12253  38.527   9.760   2.700
50943W        W12254  24.486  30.010   1.733
50944W        W12255  32.932  34.448   1.397
50945W        W12256  20.638  44.776  12.024
50946W        W12257  36.075  10.226   0.886
50947W        W12258  12.779   9.176   1.915
50948W        W12259  30.418  37.383   4.176
50949W        W12260  12.746  21.245  12.505
50950W        W12261  35.001  39.507  13.997
50951W        W12262  19.633  11.274   4.661
50952W        W12263  19.273  38.889   4.289
50953W        W12264  41.311  33.560  10.586
50954W        W12265  36.384  35.045  14.456
50955W        W12266  36.924  33.894   3.192
50956W        W12267  43.446  42.894   0.368
50957W        W12268   9.222   7.848   3.329
50958W        W12269  30.612  13.770   2.732
50959W        W12270  40.980   7.765   1.726
50960W        W12271  31.048   1.323  13.523
50961W        W12272   0.754  25.101   5.119
50962W        W12273  36.919  33.578   4.338
50963W        W12274   9.699   1.797   0.451
50964W        W12275  30.653   1.841   1.826
50965W        W12276  32.547  22.650   2.416
50966W        W12277  14.697  20.224   2.260
50967W        W12278  27.603  27.495  12.945
50968W        W12279  22.544  11.778   4.339
50969W        W12280  24.695  35.538  13.902
50970W        W12281  28.589  44.433   3.759
50971W        W12282  32.099   2.406   0.261
50972W        W12283  32.953  29.129   1.827
50973W        W12284  35.062  33.436   1.933
50974W        W12285   0.354  39.852  11.507
50975W        W12286   8.241  42.016  13.025
50976W        W12287  33.961   7.310  12.067
50977W        W12288   9.748  17.589   3.647
50978W        W12289  17.787  23.123  11.381
50979W        W12290  18.629   4.712   0.830
50980W        W12291  37.573  12.340  12.506
50981W        W12292  44.477  38.833   1.739
50982W        W12293  18.623  34.581  11.584
50983W        W12294  41.008   8.400  10.553
50984W        W12295  27.071   8.733  14.788
50985W        W12296  34.906  12.732   0.826
50986W        W12297  10.801  35.421   2.736
50987W        W12298   1.786  14.216   3.756
50988W        W12299  20.550  31.064   0.938
50989W        W12300   2.276  11.736  12.558
50990W        W12301  27.456  40.456  13.307
50991W        W12302   8.403   9.759  14.916
50992W        W12303  38.411  24.520   2.753
50993W        W12304  16.158  36.536   2.408
50994W        W12305   2.935  44.831   4.286
50995W        W12306  15.229   5.348  10.573
50996W        W12307   3.282  28.081  11.395
50997W        W12308  10.277  26.132   0.766
50998W        W12309  41.502  23.704  11.441
50999W        W12310  31.084  32.590   1.908
51000W        W12311  10.717  34.925  13.000
51001W        W12312   6.208  23.732  14.870
51002W        W12313  30.438  19.569  12.019
51003W        W12314  15.710   1.902   3.332
51004W        W12315  24.979  12.663   1.707
51005W        W12316   9.351   6.856   3.723
51006W        W12317   2.727  44.336  10.945
51007W        W12318  34.463  36.414   0.464
51008W        W12319   1.471  41.917  14.007
51009W        W12320  21.200  19.698  12.016
51010W        W12321  27.947  11.161  10.136
51011W        W12322  30.413  27.174  13.371
51012W        W12323  26.198  27.973  11.081
51013W        W12324  14.235  37.505  11.926
51014W        W12325   3.442  42.889  14.991
51015W        W12326  15.708   1.411  11.075
51016W        W12327  34.569   3.388  14.855
51017W        W12328  20.602  21.041   2.881
51018W        W12329  28.540   0.802   4.305
51019W        W12330  10.347  44.362  11.477
51020W        W12331  10.173  41.347  11.077
51021W        W12332  34.536  40.464  10.983
51022W        W12333  17.785   1.977  11.418
51023W        W12334  33.385  38.922   3.354
51024W        W12335  39.888  41.335   3.368
51025W        W12336  25.047  38.552   3.847
51026W        W12337  41.492  43.995   3.693
51027W        W12338   4.217   1.793   4.322
51028W        W12339  32.518  19.098   0.944
51029W        W12340   1.804   5.707   4.733
51030W        W12341  43.370  13.243  13.525
51031W        W12342  19.195  13.838  10.601
51032W        W12343  33.050  27.084   3.151
51033W        W12344  31.626  16.568   2.819
51034W        W12345   5.428  12.711  11.608
51035W        W12346   1.733   4.347  13.823
51036W        W12347  30.553  34.993  12.395
51037W        W12348  41.420   4.743  12.855
51038W        W12349  13.258  37.542  13.797
51039W        W12350  18.611   6.227  12.054
51040W        W12351  39.001  19.218  10.477
51041W        W12352  37.537  17.577   4.207
51042W        W12353   3.403  43.332   3.650
51043W        W12354  28.081   6.392   1.895
51044W        W12355  24.977  23.669   3.366
51045W        W12356   9.736   2.239  11.413
51046W        W12357  28.473   7.845   3.660
51047W        W12358  42.963   1.929   4.762
51048W        W12359  25.152  15.196   4.743
51049W        W12360  41.917  41.536   9.981
51050W        W12361   0.910  26.517   3.754
51051W        W12362   7.823   0.778  11.491
51052W        W12363  26.007  41.479  10.460
51053W        W12364  25.713  17.184   0.366
51054W        W12365  41.875   1.870  10.130
51055W        W12366  14.784  10.817  12.340
51056W        W12367   6.791   6.285  10.407
51057W        W12368  12.829  21.547   4.211
51058W        W12369   0.844  11.723   4.739
51059W        W12370  41.029  30.521  10.443
51060W        W12371  44.419  27.530   0.401
51061W        W12372  37.998  39.433  10.116
51062W        W12373  37.564  43.456   4.231
51063W        W12374  29.555   3.437   2.309
51064W        W12375  32.885  43.921  11.984
51065W        W12376  18.712  34.955  14.292
51066W        W12377  26.178  38.914  13.315
51067W        W12378  39.509  40.404  10.595
51068W        W12379  27.176  42.969  14.368
51069W        W12380   1.254  43.942   3.787
51070W        W12381   8.817  11.220   3.726
51071W        W12382  23.541   1.860  10.996
51072W        W12383  25.657   2.245   1.751
51073W        W12384  38.421  41.357   2.667
51074W        W12385  24.213  26.134   0.276
51075W        W12386  25.569  44.444   5.251
51076W        W12387   8.835  33.581   1.864
51077W        W12388  39.337  44.826   2.287
51078W        W12389  33.031  24.506  13.461
51079W        W12390  18.279  32.951   3.822
51080W        W12391  21.672   8.811   1.757
51081W        W12392  21.236  16.202   4.811
51082W        W12393   5.733   5.853   0.404
51083W        W12394   5.933  25.089   0.324
51084W        W12395   3.874  44.294   4.678
51085W        W12396  36.503  10.230   4.685
51086W        W12397   2.919  19.055  14.343
51087W        W12398  42.367  11.308  13.974
51088W        W12399  27.155  33.904  14.885
51089W        W12400  13.157  35.916  14.024
51090W        W12401  26.517  37.406   0.740
51091W        W12402  43.864  37.038   3.170
51092W        W12403  22.673  31.106  12.989
51093W        W12404   3.801   5.756  13.006
51094W        W12405  33.939  29.578   1.428
51095W        W12406  35.996  19.152   3.245
51096W        W12407  43.492   1.322  10.901
51097W        W12408  13.694  27.092  13.503
51098W        W12409   0.400   4.293  13.935
51099W        W12410  11.670  18.130   1.799
51100W        W12411  21.123  20.548  10.935
51101W        W12412  26.571   7.717   1.398
51102W        W12413  11.783  41.000   3.638
51103W        W12414  20.062  30.577   2.855
51104W        W12415  12.628  27.171   3.198
51105W        W12416  34.907  28.121   0.816
51106W        W12417  34.960   3.460  11.382
51107W        W12418  14.203   1.254  11.544
51108W        W12419  37.541  15.309   0.771
51109W        W12420  34.117  33.421   1.316
51110W        W12421  19.148  21.618   0.365
51111W        W12422  37.978   0.471  10.553
51112W        W12423   5.322  30.115  12.033
51113W        W12424  44.285   5.864   4.672
51114W        W12425   5.894  33.490  13.367
51115W        W12426  40.341   6.855  14.462
51116W        W12427  21.183  21.573  14.304
51117W        W12428  34.549  41.891   2.896
51118W        W12429  31.508  28.492  12.859
51119W        W12430  16.291  35.585   2.362
51120W        W12431   7.902  21.630   4.798
51121W        W12432  10.251  19.545  11.869
51122W        W12433  38.505  11.178   0.845
51123W        W12434  29.150  23.666   2.214
51124W        W12435  44.782  43.452   3.154
51125W        W12436  39.020  36.489   2.763
51126W        W12437  20.188  16.114  12.837
51127W        W12438  22.552  39.046   1.836
51128W        W12439  39.344  16.751   1.809
51129W        W12440  11.304  20.524   3.328
51130W        W12441  44.282  13.169  13.815
51131W        W12442  23.231  33.901  10.623
51132W        W12443  30.434  44.366   1.268
51133W        W12444  39.387  18.072  10.629
51134W        W12445  37.441   9.808   4.656
51135W        W12446  37.017  31.569  12.576
51136W        W12447   5.299   2.463   0.818
51137W        W12448  41.856  42.813  14.460
51138W        W12449  32.115  44.380  11.384
51139W        W12450   4.882  27.130  10.518
51140W        W12451   3.388  11.635  14.288
51141W        W12452  26.154  21.636  14.405
51142W        W12453  37.897  22.610  11.577
51143W        W12454  41.935   6.243  10.960
51144W        W12455  11.312  15.801  11.577
51145W        W12456  32.996  19.217  11.962
51146W        W12457  23.570  32.527  14.935
51147W        W12458  31.055  43.011   4.236
51148W        W12459  13.802  21.743   4.214
51149W        W12460  21.739  11.366   2.821
51150W        W12461  12.731  43.861  11.603
51151W        W12462  14.262  44.761   4.314
51152W        W12463  24.703  39.920  10.416
51153W        W12464   9.291  35.961   3.639
51154W        W12465  22.720  40.903  13.965
51155W        W12466   9.737  15.287   2.810
51156W        W12467  27.011   2.861   2.691
51157W        W12468  31.531  38.487  10.546
51158W        W12469  40.410  37.959  10.046
51159W        W12470   4.448  14.111   0.776
51160W        W12471  30.432   0.379   1.835
51161W        W12472  23.631  44.944  10.502
51162W        W12473  43.415  18.192   3.265
51163W        W12474  22.518   4.435  11.439
51164W        W12475  44.978  20.184  14.915
51165W        W12476  23.173  33.995  12.553
51166W        W12477   9.692  17.201  14.380
51167W        W12478  15.679  11.826   4.177
51168W        W12479  44.866  31.476  14.430
51169W        W12480   8.289   1.784   4.732
51170W        W12481  34.026  19.039  11.543
51171W        W12482  18.153   9.298   1.837
51172W        W12483  12.141  15.808  10.538
51173W        W12484  22.223  27.168  13.964
51174W        W12485   9.289  11.160  11.598
51175W        W12486  36.869  36.044   2.705
51176W        W12487   3.762  39.832   4.630
51177W        W12488  10.654  33.976   3.230
51178W        W12489   2.360  36.407   4.158
51179W        W12490  40.336  22.156  13.060
51180W        W12491   2.356  40.317   1.889
51181W        W12492  33.404  26.208   4.237
51182W        W12493  40.381  28.110  12.403
51183W        W12494  33.403  36.388  11.421
51184W        W12495  11.806   6.285  13.332
51185W        W12496  12.613  14.111  10.520
51186W        W12497  17.651   4.942   9.967
51187W        W12498  17.298   4.286   0.291
51188W        W12499  34.971  21.718  14.337
51189W        W12500  37.843  24.077   4.153
51190W        W12501  26.188   8.379  10.133
51191W        W12502  41.497  36.367  13.805
51192W        W12503  39.945  30.543   1.388
51193W        W12504  34.541  33.914   4.616
51194W        W12505  16.188   3.432  12.011
51195W        W12506  28.577  11.841  12.927
51196W        W12507   9.304   8.201   1.239
51197W        W12508  32.431  15.250   2.727
51198W        W12509  40.847  13.844   1.417
51199W        W12510  36.946  31.909   1.754
51200W        W12511  37.423   0.488  11.939
51201W        W12512  27.074  10.322  13.825
51202W        W12513  24.196  17.113  14.306
51203W        W12514  12.177  30.453  13.874
51204W        W12515  34.547  44.328   2.359
51205W        W12516  15.664  21.633  14.977
51206W        W12517  43.284  14.794   4.604
51207W        W12518   9.852  27.458  12.011
51208W        W12519  28.133   1.465  12.472
51209W        W12520  26.519  26.097   0.317
51210W        W12521  19.258  29.943  10.547
51211W        W12522   9.663  36.372  13.383
51212W        W12523  30.162  35.852   3.819
51213W        W12524   3.870  10.150  12.866
51214W        W12525  27.111   2.267   4.646
51215W        W12526  37.994  36.954  14.980
51216W        W12527   9.343  17.683   2.829
51217W        W12528   5.379  19.145  13.544
51218W        W12529  18.687  16.314   0.890
51219W        W12530  23.989  33.515   3.350
51220W        W12531  27.543  32.453   4.606
51221W        W12532   4.746  28.940  14.819
51222W        W12533  40.865  22.730   3.284
51223W        W12534  12.121   4.232   2.203
51224W        W12535  39.369  16.142   0.286
51225W        W12536  17.787  40.853   0.328
51226W        W12537  18.238  41.042   0.958
51227W        W12538  17.620  18.622   4.253
51228W        W12539  24.479   8.802   4.155
51229W        W12540  43.825  43.812   2.378
51230W        W12541  44.907  10.203   2.361
51231W        W12542   2.306  40.025   1.379
51232W        W12543  28.003  33.581   1.905
51233W        W12544  37.835  35.870  10.046
51234W        W12545  18.166  11.323  14.031
51235W        W12546  24.024  26.009  14.332
51236W        W12547  11.666   7.814   2.721
51237W        W12548  20.668  33.099   0.452
51238W        W12549  27.983  38.065  10.618
51239W        W12550   8.677  35.524   4.123
51240W        W12551  16.093  11.706  10.077
51241W        W12552   8.366  19.647  14.762
51242W        W12553  28.139  21.097  10.968
51243W        W12554  24.713  35.399   0.930
51244W        W12555   9.756  21.129  10.598
51245W        W12556  41.882  41.829   4.735
51246W        W12557  21.083   7.407  14.786
51247W        W12558  44.317   5.702  13.508
51248W        W12559  24.197   5.388  14.429
51249W        W12560   6.210  24.598  10.901
51250W        W12561  37.412  13.792  11.892
51251W        W12562  30.564  36.572   5.270
51252W        W12563   3.881  31.921   3.373
51253W        W12564  10.166  42.408   2.251
51254W        W12565  13.750  42.996   3.362
51255W        W12566  12.140  20.052  14.968
51256W        W12567  18.669  31.625   1.861
51257W        W12568  33.926  42.462  10.571
51258W        W12569  44.473   5.304  12.836
51259W        W12570  24.099  24.626   4.802
51260W        W12571   8.355  41.918   0.934
51261W        W12572  26.470  16.122   3.848
51262W        W12573  23.524  22.179   3.213
51263W        W12574  18.761  17.175   4.597
51264W        W12575  24.008   7.200   3.264
51265W        W12576  31.901  18.191   2.739
51266W        W12577  23.508  34.956  11.941
51267W        W12578  21.619  43.276  14.828
51268W        W12579  28.000  28.133   0.334
51269W        W12580  17.719  17.152  12.031
51270W        W12581  16.740  20.553   4.782
51271W        W12582  11.307  42.865   4.249
51272W        W12583   0.944  21.637   0.284
51273W        W12584  26.000  35.861  14.991
51274W        W12585  21.235   0.817   2.865
51275W        W12586  37.353  19.648  10.964
51276W        W12587  40.427  39.959  14.283
51277W        W12588  40.804  33.448  12.940
51278W        W12589  40.001  29.663  11.882
51279W        W12590  34.973  34.438   4.219
51280W        W12591  43.341  21.086   3.750
51281W        W12592   4.748  20.644  14.871
51282W        W12593  22.193  10.656  12.556
51283W        W12594   7.177   4.273   0.390
51284W        W12595   2.803  23.022   4.351
51285W        W12596   7.327   5.933   3.750
51286W        W12597  19.280  32.957  10.607
51287W        W12598  11.302  44.428   3.656
51288W        W12599   8.293  41.796  11.374
51289W        W12600  28.658  10.241   4.277
51290W        W12601   1.822  38.840  10.626
51291W        W12602  15.256  37.373  12.563
51292W        W12603  41.921   3.451  14.298
51293W        W12604   9.867   4.843   3.669
51294W        W12605  22.730  13.246  13.440
51295W        W12606  18.707  10.315  14.911
51296W        W12607  23.730  18.623   5.300
51297W        W12608  24.061  23.151   3.763
51298W        W12609   4.743  32.044  14.814
51299W        W12610  36.515   0.960  12.897
51300W        W12611   7.802  22.685   2.720
51301W        W12612  43.981  42.333  11.491
51302W        W12613   4.782  22.058   3.825
51303W        W12614  32.942  27.445   0.411
51304W        W12615  36.528  27.089  14.843
51305W        W12616  21.732  37.400  11.055
51306W        W12617  37.390  22.010  10.098
51307W        W12618   1.976  11.153   0.756
51308W        W12619  10.758  37.840  13.481
51309W        W12620  16.155  28.521   4.203
51310W        W12621  13.247  19.749  14.771
51311W        W12622  33.542  31.996   1.400
51312W        W12623  25.512  44.952   3.800
51313W        W12624  43.946  41.857   0.463
51314W        W12625  20.643  25.619  11.035
51315W        W12626  31.064  31.534   2.306
51316W        W12627   8.257  15.206   0.764
51317W        W12628  39.962   5.400   3.864
51318W        W12629  18.639  29.085  12.980
51319W        W12630   3.239  37.382  14.878
51320W        W12631  22.015  10.768   3.335
51321W        W12632  25.572  31.094  13.336
51322W        W12633  17.241  39.936   3.222
51323W        W12634   0.796  10.808   1.871
51324W        W12635  15.774  21.113  13.528
51325W        W12636   8.727  16.656   0.435
51326W        W12637  20.695  26.032   4.172
51327W        W12638  11.829  15.173   1.884
51328W        W12639  29.146  24.153   3.834
51329W        W12640   4.715  40.412   4.775
51330W        W12641  15.168   7.815   0.828
51331W        W12642   0.949  34.495   5.322
51332W        W12643  18.545  42.410  12.952
51333W        W12644   0.887   7.803  14.834
51334W        W12645  22.156  11.660  14.293
51335W        W12646  38.560  42.474  11.553
51336W        W12647  40.435  42.843   1.848
51337W        W12648  42.419   4.914  12.498
51338W        W12649  13.678   3.917   3.183
51339W        W12650   6.697  11.798   3.748
51340W        W12651  12.827  38.469   3.643
51341W        W12652  24.118  14.262   2.722
51342W        W12653  38.521  35.922   1.244
51343W        W12654   5.890  40.969  14.389
51344W        W12655  12.714  14.832  10.592
51345W        W12656  31.563  20.548   1.763
51346W        W12657  22.170   4.209   0.378
51347W        W12658   2.360   2.957  12.339
51348W        W12659   3.789  23.704  14.949
51349W        W12660  43.767   8.875   3.242
51350W        W12661  41.791  36.512  12.499
51351W        W12662   0.815   3.350  11.127
51352W        W12663  19.703  33.077  13.979
51353W        W12664  11.148  28.085   0.387
51354W        W12665  23.234   7.777  14.382
51355W        W12666   9.366  42.031  11.102
51356W        W12667  28.560  14.827   2.762
51357W        W12668  26.025  12.631  13.996
51358W        W12669  42.884  30.587   3.765
51359W        W12670  19.235  16.159   1.880
51360W        W12671  11.334  30.462   3.217
51361W        W12672  32.569  40.801  12.825
51362W        W12673  30.635  44.782  12.094
51363W        W12674   2.257  13.247  14.911
51364W        W12675  32.097   4.870  14.449
51365W        W12676   8.370  38.867  12.464
51366W        W12677  22.086  36.495   0.874
51367W        W12678  25.121  25.557   1.360
51368W        W12679   0.329  18.662  11.870
51369W        W12680  34.054  16.292   0.356
51370W        W12681  30.492  37.922  14.295
51371W        W12682  44.757   4.725  10.945
51372W        W12683  17.609   8.675   4.799
51373W        W12684   3.390   8.752   4.689
51374W        W12685   7.362   8.384   1.745
51375W        W12686  25.074  28.962  10.409
51376W        W12687   8.738  44.408   4.219
51377W        W12688  15.099  20.260  10.611
51378W        W12689   1.435  15.776  13.917
51379W        W12690  24.007  13.316   5.230
51380W        W12691  18.606   5.420  10.938
51381W        W12692   8.763  10.660  10.468
51382W        W12693  29.664  14.330   3.366
51383W        W12694  41.867   0.751   1.888
51384W        W12695  42.486  34.398   4.128
51385W        W12696   8.243  26.495   4.339
51386W        W12697   2.323  44.269   2.682
51387W        W12698  37.528  18.294   3.283
51388W        W12699  14.184  37.553  12.371
51389W        W12700  31.962   7.263  13.397
51390W        W12701   0.324  13.643   3.812
51391W        W12702   5.722   6.393   3.155
51392W        W12703  14.659  26.016  13.354
51393W        W12704  18.564  27.524  11.409
51394W        W12705  38.000  20.630   0.910
51395W        W12706  36.878  19.249  13.322
51396W        W12707   2.230  24.629   4.196
51397W        W12708  23.540  40.848   4.307
51398W        W12709  18.113  21.112   3.780
51399W        W12710   5.728  23.078   1.368
51400W        W12711  15.154  30.641  14.938
51401W        W12712  28.660  29.153   2.329
51402W        W12713  19.717   3.255   4.677
51403W        W12714  21.626   9.808  11.051
51404W        W12715  31.582  15.611   1.865
51405W        W12716   9.849   4.786  13.945
51406W        W12717  29.145  17.169   1.907
51407W        W12718  28.034  24.993  11.558
51408W        W12719  44.954   1.903  11.575
51409W        W12720  20.618  22.064   3.319
51410W        W12721  36.878   8.750  11.980
51411W        W12722  28.453  21.539  14.870
51412W        W12723  39.541  12.291  13.502
51413W        W12724  28.666  32.590   0.865
51414W        W12725  38.863  33.466   2.847
51415W        W12726  23.232  44.377  11.612
51416W        W12727   7.731  20.056   1.825
51417W        W12728  34.571  14.729  11.085
51418W        W12729   6.249  27.139  11.910
51419W        W12730  20.572  23.517   2.899
51420W        W12731  29.497  38.373  11.968
51421W        W12732  29.473  23.209  13.995
51422W        W12733   6.183  39.358  13.805
51423W        W12734   4.437  36.384   0.751
51424W        W12735  11.792  19.677   1.852
51425W        W12736   4.793  26.671   4.295
51426W        W12737  16.777  36.526   4.611
51427W        W12738  26.639   0.754   2.684
51428W        W12739  17.156   7.799  11.115
51429W        W12740  30.033  22.235   2.798
51430W        W12741  35.881  35.542   2.798
51431W        W12742  13.199   3.337   9.971
51432W        W12743  25.525  41.499   2.295
51433W        W12744  18.218  38.876  14.305
51434W        W12745   8.293  24.020   3.386
51435W        W12746   5.778  34.587  13.045
51436W        W12747  44.269  30.543  14.900
51437W        W12748  10.320  40.877   4.257
51438W        W12749  17.580  31.962  14.412
51439W        W12750  41.919   2.953  11.894
51440W        W12751  13.216  16.182   3.354
51441W        W12752  34.064   7.336   0.379
51442W        W12753  28.176  21.650  11.927
51443W        W12754   0.447  23.205  12.068
51444W        W12755  36.926  42.788  10.967
51445W        W12756  41.008  26.488  10.559
51446W        W12757  32.449  14.291  13.022
51447W        W12758  24.540  35.406   0.284
51448W        W12759  33.979  18.626  11.868
51449W        W12760  44.412  18.727   5.123
51450W        W12761  37.947  35.988  13.017
51451W        W12762  39.038  38.959   1.766
51452W        W12763  20.671   1.438  10.908
51453W        W12764  35.895  43.947  14.335
51454W        W12765   7.295  31.470   2.320
51455W        W12766   2.423  11.175  13.920
51456W        W12767   4.806  18.084   3.262
51457W        W12768  30.579  39.347   0.328
51458W        W12769   9.883   2.380  13.030
51459W        W12770  39.369  19.594  13.540
51460W        W12771   6.909   8.232   1.781
51461W        W12772  41.918  34.428  10.972
51462W        W12773  20.189  31.993  12.530
51463W        W12774   7.799  38.469   3.357
51464W        W12775  18.203  44.503  14.444
51465W        W12776  42.801  24.060   2.381
51466W        W12777   0.325   7.874  12.865
51467W        W12778  14.806  32.013  10.058
51468W        W12779   0.839   1.833  11.947
51469W        W12780  20.270  25.610   2.817
51470W        W12781  18.249  22.655   3.160
51471W        W12782  11.350  16.178  13.462
51472W        W12783  26.461  25.089   4.270
51473W        W12784   6.902  27.997  14.478
51474W        W12785  35.508   3.933  13.368
51475W        W12786  42.334  25.710   2.232
51476W        W12787  13.632  12.796  12.914
51477W        W12788  25.503  20.715   3.173
51478W        W12789  24.699  29.656   3.774
51479W        W12790  30.021  42.513   2.713
51480W        W12791  40.549   3.825  10.451
51481W        W12792  36.374  39.835   2.815
51482W        W12793  31.462   3.908   3.861
51483W        W12794  33.029  33.901  14.296
51484W        W12795   2.898  22.235   2.830
51485W        W12796  36.419   9.820  11.007
51486W        W12797  37.338  39.933  12.565
51487W        W12798  27.620  36.884  14.322
51488W        W12799  22.056  14.284   2.819
51489W        W12800   0.478   4.814  12.487
51490W        W12801   2.814  34.433   2.685
51491W        W12802  24.213  10.848  12.486
51492W        W12803  17.077  31.459   2.706
51493W        W12804   9.243  20.649  11.119
51494W        W12805   9.270  11.735  13.541
51495W        W12806  23.998   7.736   4.166
51496W        W12807  36.541  23.113  12.555
51497W        W12808   4.257   7.670  10.450
51498W        W12809  38.885  33.502   2.220
51499W        W12810  25.111  17.614   4.274
51500W        W12811  31.029  36.001   1.291
51501W        W12812  26.479   9.267   2.756
51502W        W12813  25.175  42.986   4.617
51503W        W12814   8.316  30.646   3.323
51504W        W12815  18.725   0.312  11.984
51505W        W12816  20.675  14.254  12.435
51506W        W12817  39.810  38.930  10.949
51507W        W12818  24.506  43.476   3.208
51508W        W12819  38.341  36.954  11.091
51509W        W12820  17.604   3.395  13.886
51510W        W12821   6.896   6.424   3.738
51511W        W12822  14.324   7.374   1.754
51512W        W12823   9.381  15.580   3.183
51513W        W12824  25.046  25.499  12.076
51514W        W12825  32.911  27.519  12.435
51515W        W12826   6.206   1.894   4.176
51516W        W12827  13.758   5.193   3.279
51517W        W12828  19.534  38.015   3.699
51518W        W12829  10.765  24.546  12.030
51519W        W12830  38.417  22.171   0.380
51520W        W12831  16.567   7.205   1.275
51521W        W12832  26.104  40.842   3.221
51522W        W12833  18.558  18.216  11.433
51523W        W12834  29.005  22.744  13.014
51524W        W12835   0.357  36.506   1.909
51525W        W12836   5.792  40.012  14.428
51526W        W12837  26.069   3.310   0.789
51527W        W12838   4.420  36.858   1.297
51528W        W12839   3.365  30.118  14.790
51529W        W12840   1.927   2.385  13.032
51530W        W12841  31.644  32.407   0.959
51531W        W12842  32.081  21.563   2.821
51532W        W12843  44.445  40.955   0.736
51533W        W12844  37.055  25.613  14.843
51534W        W12845  17.137   0.397  10.477
51535W        W12846   5.351   5.312   0.917
51536W        W12847  10.774  37.533  12.469
51537W        W12848   3.955   4.735  13.823
51538W        W12849  21.173   0.761  12.377
51539W        W12850  10.293  43.348   1.356
51540W        W12851  25.009  34.414   2.798
51541W        W12852  21.061  36.003   4.137
51542W        W12853  23.709  33.919   3.182
51543W        W12854  16.205   6.234   9.629
51544W        W12855  30.516  28.526   1.918
51545W        W12856  32.965  20.626   2.891
51546W        W12857  23.087  24.537  12.938
51547W        W12858  20.629  33.985  14.864
51548W        W12859  37.991  10.858   3.263
51549W        W12860  28.466   6.913  12.911
51550W        W12861  24.604   5.858  13.479
51551W        W12862   0.253  20.732  11.977
51552W        W12863   5.918   2.886  12.001
51553W        W12864   1.916  41.009   0.424
51554W        W12865  44.325  34.910   1.746
51555W        W12866  10.633  11.667  10.979
51556W        W12867  43.272  29.635   0.313
51557W        W12868  24.587  23.121   4.308
51558W        W12869  25.609  12.855   0.763
51559W        W12870  35.856  14.822   4.174
51560W        W12871  11.127  10.673  10.436
51561W        W12872  43.406   7.315   3.196
51562W        W12873  41.908  36.878   2.317
51563W        W12874  37.488  16.250   2.671
51564W        W12875  36.469  14.330  10.006
51565W        W12876  22.672   4.299   3.734
51566W        W12877  24.706  31.483   5.093
51567W        W12878  19.683   9.675   1.718
51568W        W12879  10.737  14.664  10.489
51569W        W12880  20.701  40.421   2.326
51570W        W12881  24.985  16.776  10.576
51571W        W12882  40.939  27.649   0.819
51572W        W12883  26.127  18.688   2.359
51573W        W12884  27.564   1.920   3.658
51574W        W12885  44.294  32.431  13.330
51575W        W12886  24.692   9.352  11.058
51576W        W12887  19.077  40.973  14.804
51577W        W12888  35.033  38.826   9.524
51578W        W12889   8.334  32.979   4.784
51579W        W12890  15.225  14.286   0.429
51580W        W12891  15.699  44.427   4.733
51581W        W12892  38.858   5.927   4.755
51582W        W12893   4.308  41.004  11.896
51583W        W12894   7.761  31.041   2.664
51584W        W12895  32.591  16.147  10.522
51585W        W12896  20.245   3.308  14.967
51586W        W12897   5.248  28.547  13.521
51587W        W12898  12.852  14.178  13.504
51588W        W12899  44.824  33.551   4.795
51589W        W12900  19.181  31.632   2.751
51590W        W12901  38.333  40.474   4.760
51591W        W12902   7.666  27.006  12.859
51592W        W12903   4.382   1.782   1.217
51593W        W12904  27.652  18.150   2.179
51594W        W12905  33.561   3.955   4.802
51595W        W12906  35.967  19.546   0.828
51596W        W12907  10.357   9.672  12.951
51597W        W12908  29.008  19.236   1.345
51598W        W12909  11.755  39.476   4.144
51599W        W12910  41.989  44.879   0.245
51600W        W12911  21.173  32.987  11.991
51601W        W12912   2.408   3.866  12.938
51602W        W12913  33.042  42.961   2.215
51603W        W12914  32.637  19.198   2.764
51604W        W12915  13.618  15.710   3.663
51605W        W12916  26.518  36.910  13.525
51606W        W12917  22.136  23.161  14.427
51607W        W12918   8.332  26.953   1.766
51608W        W12919  32.963  35.459   1.417
51609W        W12920  25.132  40.461   4.640
51610W        W12921   6.211  35.400   0.960
51611W        W12922  16.695  13.235   2.245
51612W        W12923  27.449   7.796  11.592
51613W        W12924  13.193  15.243   3.789
51614W        W12925  18.757  40.047  13.826
51615W        W12926  19.165  10.165  11.890
51616W        W12927  37.444  21.118   0.258
51617W        W12928   5.259  40.480   3.321
51618W        W12929  22.565   9.838   4.662
51619W        W12930  33.946  43.934  13.057
51620W        W12931  30.013  31.461   3.829
51621W        W12932  31.496  32.626   2.358
51622W        W12933  16.165  26.580   0.379
51623W        W12934  11.802   0.773   1.705
51624W        W12935  27.671  11.226   0.751
51625W        W12936  25.468   5.289   2.389
51626W        W12937  25.507  36.059  13.877
51627W        W12938   8.787  38.430   0.319
51628W        W12939   5.724  28.172  14.834
51629W        W12940  31.543  26.126   0.459
51630W        W12941  15.290  25.105  12.864
51631W        W12942  44.857  17.271   0.782
51632W        W12943  18.613   3.792   2.672
51633W        W12944  10.312  22.619  14.766
51634W        W12945  17.067   3.389  14.957
51635W        W12946  14.712  18.119  11.863
51636W        W12947  26.646  23.638  12.547
51637W        W12948  34.505  18.163   1.397
51638W        W12949  20.533  25.555  10.594
51639W        W12950  13.756   0.323  14.457
51640W        W12951  33.914  13.625  10.966
51641W        W12952  21.234  27.966   1.419
51642W        W12953  13.817  34.865   4.770
51643W        W12954  15.752  44.890   3.246
51644W        W12955  44.768   2.334   4.758
51645W        W12956  42.778   0.851   4.758
51646W        W12957  34.103  37.880   3.817
51647W        W12958  44.505  44.774  14.979
51648W        W12959  44.301  41.485   1.392
51649W        W12960   8.395  20.089   2.883
51650W        W12961  20.121  43.481   2.349
51651W        W12962  10.280  40.471  11.475
51652W        W12963  33.490  37.518   5.170
51653W        W12964  12.262  41.801   1.935
51654W        W12965   3.880   7.796  13.509
51655W        W12966  17.643  23.178  10.435
51656W        W12967  22.688  12.202  13.520
51657W        W12968  42.934  29.097   0.403
51658W        W12969  41.413  24.109   0.396
51659W        W12970   5.925  11.347  14.405
51660W        W12971   9.835  10.179   3.764
51661W        W12972  20.104   4.261  10.475
51662W        W12973  36.931  29.026   5.299
51663W        W12974  26.494  23.589  14.424
51664W        W12975  22.503  21.558   1.382
51665W        W12976  44.310  18.788   4.624
51666W        W12977   2.404  18.632   3.383
51667W        W12978  10.644  34.382  10.427
51668W        W12979  13.279  13.141  13.900
51669W        W12980  16.608  38.389   2.770
51670W        W12981   6.697  29.945  10.969
51671W        W12982  10.162  30.536   3.368
51672W        W12983  39.885  38.831  14.469
51673W        W12984   3.795  44.325   4.205
51674W        W12985  22.091  30.955  11.933
51675W        W12986  21.519  41.891  14.780
51676W        W12987   3.257  20.173  12.368
51677W        W12988  20.755  39.458   2.193
51678W        W12989  20.119  28.128   1.299
51679W        W12990  35.406  43.430   3.282
51680W        W12991  40.512  40.044   1.356
51681W        W12992  17.764  27.492  11.555
51682W        W12993  39.049   3.928  14.995
51683W        W12994  26.186   1.839  12.929
51684W        W12995  16.588   1.301  11.585
51685W        W12996  44.009  44.387  10.598
51686W        W12997  15.744  18.555  14.023
51687W        W12998  11.365   7.717  13.854
51688W        W12999  34.017  28.162   0.350
51689W        W13000  25.493  37.436   1.921
51690W        W13001  10.643   2.239  14.783
51691W        W13002  33.436  37.904  10.510
51692W        W13003  31.458  17.766   3.642
51693W        W13004  40.036  30.042   1.794
51694W        W13005  22.238  34.927  11.083
51695W        W13006   2.269   3.250  11.105
51696W        W13007  11.727  17.150  13.964
51697W        W13008  21.076  25.175  10.993
51698W        W13009   9.308  36.489   3.764
51699W        W13010  22.241  38.956  11.892
51700W        W13011  42.885  18.616  11.857
51701W        W13012  23.728   4.358  10.561
51702W        W13013  43.281  34.893   3.323
51703W        W13014   1.242  21.129  12.882
51704W        W13015  27.954  35.962   1.723
51705W        W13016  27.125  19.113  12.979
51706W        W13017  34.040  12.712   2.824
51707W        W13018   9.248  43.877  12.385
51708W        W13019  39.927   6.771   2.825
51709W        W13020  16.807  34.897   2.298
51710W        W13021   4.823  22.508   5.294
51711W        W13022  39.994  21.175  12.008
51712W        W13023   1.435  20.108   2.344
51713W        W13024  39.490  22.597  10.958
51714W        W13025  19.672  32.568   4.189
51715W        W13026   0.823  38.466  13.537
51716W        W13027  38.876  10.162  12.089
51717W        W13028   5.353  22.740   2.750
51718W        W13029  34.073  39.554   4.799
51719W        W13030  13.678  27.686   0.362
51720W        W13031   7.813  33.576   0.388
51721W        W13032  19.156  34.383  10.606
51722W        W13033  32.628   2.847  10.906
51723W        W13034   6.366  30.950  11.899
51724W        W13035  10.233  29.658  11.483
51725W        W13036  32.079  40.007  14.450
51726W        W13037   7.690  18.769  13.045
51727W        W13038  42.951  24.021   0.362
51728W        W13039  35.046  43.021   4.767
51729W        W13040  20.619  29.482   1.923
51730W        W13041  11.141  19.680  12.396
51731W        W13042   5.324  20.131   4.664
51732W        W13043  26.013  41.503  14.857
51733W        W13044  44.338  37.523  11.486
51734W        W13045  36.038  28.572   4.785
51735W        W13046   5.372  19.690   4.820
51736W        W13047  44.862   7.360  12.440
51737W        W13048  32.476  25.567  14.816
51738W        W13049  14.282  22.724  10.569
51739W        W13050  38.495  12.748   1.324
51740W        W13051   8.324  21.131   0.300
51741W        W13052  37.353  16.689   3.155
51742W        W13053  32.899  14.131   4.305
51743W        W13054  19.716  43.997  10.630
51744W        W13055  40.438  28.587  14.314
51745W        W13056   2.958   8.815   3.866
51746W        W13057  21.516  23.706  13.464
51747W        W13058   4.239  37.373   1.420
51748W        W13059  21.165  36.972  10.981
51749W        W13060  14.592  37.562   4.746
51750W        W13061  27.632  40.017  13.447
51751W        W13062   5.332  37.967   0.383
51752W        W13063  37.962  12.631  14.463
51753W        W13064   3.892  18.195  12.857
51754W        W13065  33.075   9.751  12.056
51755W        W13066  19.671   4.762  13.357
51756W        W13067  37.892  10.720  12.007
51757W        W13068   3.765   0.388   2.790
51758W        W13069   8.739  39.913   2.832
51759W        W13070   1.274  19.739  12.977
51760W        W13071  17.681  33.032   0.320
51761W        W13072  21.568   9.646  13.394
51762W        W13073  27.140   1.358   2.189
51763W        W13074  34.942  44.932   4.297
51764W        W13075  32.987  40.328  13.831
51765W        W13076   0.491   1.785   1.227
51766W        W13077  22.246  34.613  11.496
51767W        W13078  31.011  29.980   2.180
51768W        W13079  28.084   2.950  10.930
51769W        W13080  35.104  29.046   4.826
51770W        W13081  11.771   5.717   4.337
51771W        W13082  27.940  20.522   0.450
51772W        W13083  21.695   6.697  14.773
51773W        W13084  30.119   4.806  13.396
51774W        W13085   6.232  36.437   3.755
51775W        W13086  32.551  14.127   1.868
51776W        W13087  32.573  37.370  11.895
51777W        W13088  13.665  39.382  13.316
51778W        W13089   3.893   3.759  14.469
51779W        W13090  17.304   1.828  11.600
51780W        W13091  12.635  36.905  12.856
51781W        W13092  24.547  33.068   1.269
51782W        W13093  15.199  31.442  10.495
51783W        W13094   4.275  18.599   4.230
51784W        W13095  36.911   9.237  14.859
51785W        W13096  21.042  29.433  10.131
51786W        W13097   3.947  35.380   4.302
51787W        W13098  29.169  13.680  10.617
51788W        W13099  31.497  21.247   2.746
51789W        W13100  10.214  39.355   4.647
51790W        W13101  36.932   2.908  12.489
51791W        W13102   3.894  16.234   1.737
51792W        W13103  20.051  26.130   3.860
51793W        W13104  40.511  30.516   2.341
51794W        W13105  33.091  29.130   3.642
51795W        W13106   1.973  32.931  12.407
51796W        W13107  23.007  40.839   2.204
51797W        W13108  22.134  34.094   2.382
51798W        W13109  24.502  31.432  14.432
51799W        W13110  43.847  18.095   3.299
51800W        W13111  41.433   8.270   0.361
51801W        W13112  18.065  33.443   4.626
51802W        W13113  36.921  35.463  13.822
51803W        W13114  22.220  34.492  14.401
51804W        W13115  40.481   1.930  12.575
51805W        W13116   8.768   9.643  12.954
51806W        W13117  20.691  17.700   3.301
51807W        W13118   7.800  23.239  14.440
51808W        W13119  30.458  11.824   4.343
51809W        W13120  25.498   8.304   4.149
51810W        W13121  33.496  36.460  14.006
51811W        W13122  17.666  27.970  13.547
51812W        W13123  26.116  39.409  11.902
51813W        W13124  11.170  16.243  11.039
51814W        W13125  21.682  21.612   1.261
51815W        W13126  26.018  21.027   4.336
51816W        W13127   6.696  15.651  14.017
51817W        W13128  39.945  38.955  12.405
51818W        W13129  19.631  12.760   0.286
51819W        W13130  37.957  29.593  13.005
51820W        W13131  21.093  32.400  11.391
51821W        W13132  32.991  17.166   2.276
51822W        W13133  37.394  25.091   1.760
51823W        W13134  20.602  11.275   3.343
51824W        W13135  19.571   5.217   0.397
51825W        W13136  40.357  29.645   2.302
51826W        W13137  36.512   3.856   1.416
51827W        W13138   5.729  27.030  11.558
51828W        W13139  38.420  41.789   1.716
51829W        W13140  39.844  33.078   4.234
51830W        W13141  38.056  25.168  10.050
51831W        W13142  32.473   6.338   1.228
51832W        W13143   8.760   9.217   1.422
51833W        W13144   0.312  43.892  10.464
51834W        W13145  17.158   7.275  10.513
51835W        W13146  11.366  10.352   3.648
51836W        W13147   9.850  28.474  12.028
51837W        W13148  35.037  13.154  13.830
51838W        W13149   5.257   5.848  12.950
51839W        W13150  19.740  16.224   0.408
51840W        W13151  35.413  12.288  13.313
51841W        W13152  33.966  25.022   3.736
51842W        W13153  33.533  22.237  10.524
51843W        W13154  15.731  12.256  11.933
51844W        W13155  38.837  27.037  12.350
51845W        W13156   9.828   0.351   2.408
51846W        W13157  35.363  23.145  14.806
51847W        W13158  13.316  10.663   3.732
51848W        W13159   7.899   2.280   5.213
51849W        W13160  22.028  17.725  14.891
51850W        W13161  44.845  34.906  11.386
51851W        W13162   4.819  38.366  11.386
51852W        W13163   6.698  39.018   0.939
51853W        W13164  23.510  28.964   2.239
51854W        W13165  26.636  40.409  14.782
51855W        W13166  26.055   2.289  10.622
51856W        W13167  25.533  12.699   3.163
51857W        W13168   0.791  13.833  12.832
51858W        W13169   2.333   9.648   4.205
51859W        W13170  43.841   4.238   1.923
51860W        W13171  23.705  42.819  14.483
51861W        W13172  42.906  33.026  10.428
51862W        W13173   1.337  15.173  14.817
51863W        W13174  16.750  19.256  14.386
51864W        W13175  20.525   8.215   0.263
51865W        W13176  44.800   0.874   0.251
51866W        W13177   5.828  33.517  12.901
51867W        W13178  22.251  29.045  14.907
51868W        W13179   1.359  13.190   2.351
51869W        W13180   9.791  39.895  12.860
51870W        W13181  39.444  30.604  14.812
51871W        W13182  34.434   9.719  13.324
51872W        W13183  43.359  42.899  12.556
51873W        W13184  10.141  15.213   0.427
51874W        W13185  34.106  35.456  10.595
51875W        W13186   7.748  16.084  13.442
51876W        W13187  12.839  37.358  12.047
51877W        W13188  38.972  15.318   0.315
51878W        W13189  13.339   6.768  12.972
51879W        W13190  25.571  31.151  10.970
51880W        W13191  32.609  34.428   0.301
51881W        W13192  15.165  26.111  14.887
51882W        W13193  21.071  11.233  11.430
51883W        W13194  19.162  31.055  14.928
51884W        W13195  32.600   3.227  10.543
51885W        W13196  44.978  31.590  13.989
51886W        W13197  30.637  33.569  14.771
51887W        W13198  23.012  16.137  14.303
51888W        W13199   4.208  28.095   4.297
51889W        W13200   1.261  15.589   3.346
51890W        W13201  28.472  42.840  12.577
51891W        W13202   0.805  11.210   2.774
51892W        W13203  24.041  27.538   9.946
51893W        W13204  23.705  23.541  13.529
51894W        W13205   2.902  43.444  13.440
51895W        W13206  20.740  36.094   3.719
51896W        W13207  13.745  37.077   0.764
51897W        W13208  44.396  30.947   5.149
51898W        W13209  10.204   4.831  10.479
51899W        W13210  41.972  15.757   4.279
51900W        W13211  38.450  41.027   1.702
51901W        W13212  33.941  25.016   1.322
51902W        W13213  32.096   9.245  14.793
51903W        W13214   2.309  16.169   0.299
51904W        W13215  42.399   7.231   4.248
51905W        W13216  11.642  20.654  12.453
51906W        W13217  10.314   3.352  11.884
51907W        W13218  23.992  14.776   3.772
51908W        W13219  21.726  27.181  14.910
51909W        W13220  19.640   8.699  14.495
51910W        W13221   6.844  23.500  11.899
51911W        W13222  16.634  42.863   1.792
51912W        W13223   2.866  43.936   2.411
51913W        W13224   6.780   8.309  12.075
51914W        W13225  28.679  36.362   4.205
51915W        W13226   7.680   5.251  12.092
51916W        W13227  42.874   9.775   1.243
51917W        W13228  38.852   0.804  12.549
51918W        W13229  37.547   2.469   0.330
51919W        W13230  38.415  30.457   0.280
51920W        W13231  19.614  24.509   4.812
51921W        W13232  11.676   7.743   2.244
51922W        W13233  13.746  30.917  13.919
51923W        W13234   1.782  13.605  12.086
51924W        W13235  22.105  26.619   0.738
51925W        W13236  44.834  27.958   0.862
51926W        W13237  20.124  39.441  14.818
51927W        W13238  28.445  20.084   1.896
51928W        W13239  27.169  37.830  11.434
51929W        W13240  10.757   1.438  10.449
51930W        W13241  29.513  30.056   2.192
51931W        W13242  19.232  19.725   1.232
51932W        W13243  16.266  39.943  10.624
51933W        W13244  41.506  26.653   0.906
51934W        W13245  16.779  36.474   0.947
51935W        W13246   4.371   1.447   4.155
51936W        W13247  20.552  41.881   2.333
51937W        W13248  40.370   7.718  13.040
51938W        W13249  17.591   0.845  12.346
51939W        W13250  20.563  37.897   4.765
51940W        W13251  13.621   3.216  12.915
51941W        W13252  27.009   8.846  10.432
51942W        W13253  19.721  25.544   3.161
51943W        W13254   0.834  36.897   3.228
51944W        W13255   1.884  34.973   3.315
51945W        W13256   5.930  10.647   1.343
51946W        W13257  13.203  10.199  14.303
51947W        W13258  25.605  38.332  11.927
51948W        W13259   3.831  38.030   3.840
51949W        W13260  13.222  28.539   2.187
51950W        W13261  28.978  40.386  10.492
51951W        W13262  32.899  43.792   2.389
51952W        W13263  24.625  28.484   2.249
51953W        W13264   2.406  14.738   4.600
51954W        W13265  25.500  21.230  12.352
51955W        W13266  12.354   3.279   5.122
51956W        W13267  29.976  35.100   1.920
51957W        W13268  12.268  33.511   1.726
51958W        W13269  27.149   6.756  10.620
51959W        W13270  26.660  33.601   1.368
51960W        W13271   4.385   6.737   4.738
51961W        W13272  36.580  23.138   0.351
51962W        W13273  37.046  31.122   3.263
51963W        W13274  26.969  41.916   3.686
51964W        W13275  26.090  43.816   4.133
51965W        W13276  40.344  41.523  10.429
51966W        W13277  24.522  23.635   2.198
51967W        W13278  31.432  42.470  14.771
51968W        W13279   2.273  24.655  11.549
51969W        W13280  42.968  39.950  11.559
51970W        W13281  38.377   5.932   0.753
51971W        W13282   9.737  21.151   0.901
51972W        W13283  32.580  44.959  13.411
51973W        W13284  44.830  40.481  12.540
51974W        W13285   8.742   2.749   4.780
51975W        W13286   6.223   5.708  11.438
51976W        W13287  14.112  12.194   4.748
51977W        W13288  33.462   2.952  14.279
51978W        W13289  22.212  43.338  14.308
51979W        W13290  14.759  16.288   0.863
51980W        W13291  44.331   3.834   1.815
51981W        W13292  27.070  26.951   0.938
51982W        W13293   7.386  20.109  14.287
51983W        W13294  42.508  43.827  10.548
51984W        W13295  36.030  41.362   2.209
51985W        W13296  21.721  25.971   3.157
51986W        W13297  14.337  33.012   3.247
51987W        W13298  38.850  14.232  10.126
51988W        W13299  23.110  43.459   4.114
51989W        W13300   5.857   0.847   1.923
51990W        W13301   8.654  10.316   1.263
51991W        W13302  22.157   4.273  10.577
51992W        W13303  12.148  23.528   4.693
51993W        W13304  13.243  33.616   2.732
51994W        W13305  12.355  19.560  11.943
51995W        W13306  31.518  33.132  12.975
51996W        W13307  22.686  13.741  14.378
51997W        W13308  10.712  14.790   3.670
51998W        W13309  30.026  37.058  10.586
51999W        W13310  43.413  34.613  12.488
52000W        W13311  36.994  29.669   0.335
52001W        W13312  28.531  27.650  11.868
52002W        W13313  17.268   0.267  11.056
52003W        W13314   0.878  37.491  14.404
52004W        W13315   5.818  28.132   4.353
52005W        W13316   9.711   9.868   2.790
52006W        W13317  26.044  10.302   3.367
52007W        W13318  38.550  22.133   0.879
52008W        W13319  29.033   2.373   2.201
52009W        W13320  28.500  11.701   2.212
52010W        W13321  16.085  42.833  12.943
52011W        W13322  31.624  16.135   2.258
52012W        W13323  16.072  34.003   3.668
52013W        W13324   5.772  41.349   2.375
52014W        W13325  33.505   5.694   0.386
52015W        W13326  12.243  22.196   3.146
52016W        W13327  20.654  44.947   2.749
52017W        W13328  33.981  12.743   4.321
52018W        W13329  40.425  23.187   1.811
52019W        W13330  34.995  27.603   0.478
52020W        W13331  38.996   8.310  13.009
52021W        W13332  34.116  32.912  11.400
52022W        W13333  34.381  20.088  12.979
52023W        W13334  14.779  18.086  14.912
52024W        W13335  10.268  12.263   2.276
52025W        W13336  33.550  11.264  14.464
52026W        W13337  42.292  21.118   2.225
52027W        W13338  32.492  40.922   1.824
52028W        W13339  18.152  18.178  13.921
52029W        W13340  44.470   4.796  12.842
52030W        W13341   9.856  31.063   2.750
52031W        W13342  32.543  30.465   5.309
52032W        W13343  19.557  40.032   9.954
52033W        W13344  33.524  35.428  12.022
52034W        W13345  38.901  40.533   5.296
52035W        W13346   2.886  34.372  12.372
52036W        W13347  31.943  42.302  11.447
52037W        W13348  27.008   6.343   3.352
52038W        W13349   3.369  31.135   3.859
52039W        W13350   0.771  36.426  12.504
52040W        W13351  24.154  12.827   3.722
52041W        W13352  38.507  23.608   1.337
52042W        W13353  31.508   9.679  14.307
52043W        W13354  10.853  44.332  10.414
52044W        W13355  25.526  22.044  12.968
52045W        W13356  39.386  18.285  13.368
52046W        W13357  32.451  31.037  14.409
52047W        W13358   5.793  20.547   2.900
52048W        W13359  14.325  32.112  11.394
52049W        W13360  32.015  28.976  13.518
52050W        W13361   9.815  27.092   0.428
52051W        W13362  39.931   5.827   2.888
52052W        W13363  33.064  13.343   1.413
52053W        W13364  24.111  11.131  14.434
52054W        W13365  27.194  16.694  14.470
52055W        W13366   4.368  13.303   0.333
52056W        W13367  39.435   8.891  14.296
52057W        W13368  40.012  29.976  11.480
52058W        W13369  24.679  11.631  11.394
52059W        W13370   0.432   1.815   0.246
52060W        W13371  31.423  43.883   4.355
52061W        W13372  26.632  10.647  11.070
52062W        W13373  15.162  32.529  13.526
52063W        W13374  17.598  26.082   2.839
52064W        W13375  18.068  20.572   0.885
52065W        W13376   7.273  35.486  13.975
52066W        W13377  10.782  11.196   0.290
52067W        W13378  14.733  24.028   5.158
52068W        W13379  44.898  37.575  12.470
52069W        W13380  26.149  16.151  10.558
52070W        W13381  27.511  11.810   3.738
52071W        W13382  33.100  41.321  10.529
52072W        W13383  17.701  25.556  11.425
52073W        W13384   6.342  38.401  11.042
52074W        W13385  22.714  26.051   1.846
52075W        W13386  40.532   5.904  11.862
52076W        W13387  16.101  39.388  12.058
52077W        W13388  30.529   2.260   0.311
52078W        W13389  21.259  22.616   5.305
52079W        W13390  25.031  17.110  14.813
52080W        W13391   4.351   8.400   1.766
52081W        W13392  10.677  33.556  13.390
52082W        W13393  35.008  29.948  14.424
52083W        W13394  32.595  19.624  14.778
52084W        W13395  10.189   8.194  12.976
52085W        W13396  13.793   7.866  12.478
52086W        W13397  16.075  39.498   2.858
52087W        W13398  21.079   6.262  10.447
52088W        W13399  38.515  25.680   0.771
52089W        W13400  25.549  30.442   1.330
52090W        W13401  41.380  20.045  12.429
52091W        W13402  23.526  21.197  14.303
52092W        W13403  43.874  29.974   2.718
52093W        W13404   5.704   0.313  11.012
52094W        W13405  27.966  15.735   2.214
52095W        W13406   0.819   8.306  10.504
52096W        W13407  10.287  23.172   3.680
52097W        W13408  28.647  33.047  12.949
52098W        W13409   3.938   2.377  13.994
52099W        W13410  43.979  12.361   1.352
52100W        W13411  37.442  37.987   1.696
52101W        W13412  39.898  12.230   0.876
52102W        W13413  32.536  23.230  13.896
52103W        W13414  17.307  35.063   1.796
52104W        W13415   3.886  36.034  10.076
52105W        W13416  33.038  36.418  13.396
52106W        W13417  22.118  24.995  13.448
52107W        W13418  32.592  21.248  12.986
52108W        W13419  11.817  25.484  12.544
52109W        W13420   7.670  25.664   4.768
52110W        W13421  24.165  38.457  13.431
52111W        W13422  25.134  40.814   2.882
52112W        W13423  27.081  26.556   3.343
52113W        W13424  31.978  10.876   2.405
52114W        W13425  10.279  21.215   1.450
52115W        W13426  10.266  24.560  12.888
52116W        W13427  21.597   0.890  11.893
52117W        W13428  33.478  33.499  14.867
52118W        W13429  33.508  29.539  11.471
52119W        W13430  36.016  41.491   0.913
52120W        W13431  35.498  21.032  11.979
52121W        W13432  12.134  12.263  13.512
52122W        W13433  31.049  14.712   3.372
52123W        W13434  18.566  30.457  11.457
52124W        W13435   1.393  14.150   0.376
52125W        W13436  22.603  35.380   3.710
52126W        W13437  35.423  16.732  12.868
52127W        W13438   7.272  44.349   3.270
52128W        W13439  39.904   4.792   4.718
52129W        W13440  26.702  39.423   1.362
52130W        W13441  34.462   4.769  12.527
52131W        W13442  18.188  42.405   4.273
52132W        W13443  41.807   9.228   3.849
52133W        W13444  30.128  27.563   0.846
52134W        W13445  33.022  38.521  13.416
52135W        W13446  34.596  37.012   2.902
52136W        W13447  19.258  35.552  11.113
52137W        W13448  21.168  36.438  11.995
52138W        W13449  29.132  44.813  11.581
52139W        W13450  14.202  29.483  13.951
52140W        W13451  18.720   6.329  13.534
52141W        W13452  10.318  16.727   0.852
52142W        W13453  20.045  10.841   2.352
52143W        W13454   3.760  28.462  11.023
52144W        W13455  34.615  15.591  11.123
52145W        W13456  23.553  30.009   2.214
52146W        W13457  24.625   8.223  11.109
52147W        W13458   0.374  31.947   1.720
52148W        W13459  12.621  13.128  14.878
52149W        W13460  44.782  18.148   3.294
52150W        W13461  12.225  24.708  14.326
52151W        W13462  11.154  20.191   3.703
52152W        W13463  36.058  20.573  13.985
52153W        W13464  28.441  38.381   2.827
52154W        W13465   7.876  30.954   3.314
52155W        W13466  33.063   4.762   3.749
52156W        W13467  10.829   5.375  10.990
52157W        W13468  42.496  12.315   1.733
52158W        W13469  41.508   2.781  14.937
52159W        W13470  33.119  10.309  14.027
52160W        W13471  22.574  12.354  12.971
52161W        W13472   6.345   9.163  10.002
52162W        W13473  23.058   7.267   4.354
52163W        W13474  13.180  40.027   2.789
52164W        W13475  15.184  27.116  10.435
52165W        W13476   6.799  14.696   5.201
52166W        W13477   4.758   8.376   2.209
52167W        W13478  43.342  31.148   2.349
52168W        W13479  13.784  44.264  12.951
52169W        W13480  28.504  19.662  12.499
52170W        W13481  12.297  16.654  11.377
52171W        W13482  16.794   8.853  11.048
52172W        W13483   2.807  10.355   3.687
52173W        W13484  35.559  10.376  11.609
52174W        W13485  27.016  28.967   3.260
52175W        W13486   5.237  31.478   0.377
52176W        W13487  36.029  14.107  14.909
52177W        W13488  40.910  29.951  14.786
52178W        W13489  33.104   4.417   1.868
52179W        W13490  30.146  15.790  14.296
52180W        W13491  34.926   3.888  10.497
52181W        W13492  35.571  42.471   0.905
52182W        W13493   7.674  23.216   3.827
52183W        W13494   4.768   5.271  11.914
52184W        W13495  26.584   6.910  14.801
52185W        W13496  12.242  33.905   0.928
52186W        W13497  35.438  27.683   3.245
52187W        W13498  13.747  32.894   3.682
52188W        W13499  29.091   8.209   1.447
52189W        W13500   2.937  36.939   4.647
52190W        W13501  29.044  10.167   0.925
52191W        W13502  35.489   2.243   3.715
52192W        W13503   5.816  44.897   1.875
52193W        W13504  31.452  15.196   4.677
52194W        W13505  37.083  34.091   2.686
52195W        W13506  42.440  35.466   3.827
52196W        W13507  27.166   6.768   0.936
52197W        W13508  42.417  32.100  12.375
52198W        W13509   2.795  17.782  14.990
52199W        W13510   3.352  39.004  13.976
52200W        W13511  30.598  24.576   2.835
52201W        W13512  13.268  38.924   0.302
52202W        W13513  15.298  22.652  13.045
52203W        W13514  23.986  26.074  11.497
52204W        W13515  23.724   0.927  10.959
52205W        W13516  11.218  18.666   3.784
52206W        W13517  44.900  11.207  12.858
52207W        W13518  41.039   4.891  12.362
52208W        W13519  14.248  12.663   1.298
52209W        W13520   8.237  21.240   4.809
52210W        W13521  34.575  29.580  11.052
52211W        W13522   4.304   8.294   1.449
52212W        W13523  34.464  20.161  14.907
52213W        W13524   3.312   0.470  13.919
52214W        W13525  28.471  29.443   4.797
52215W        W13526  30.035   2.750   3.648
52216W        W13527   6.223  33.410   0.480
52217W        W13528  34.897   0.814   3.782
52218W        W13529   9.857   5.702  11.946
52219W        W13530  19.249  20.229   0.938
52220W        W13531  37.044  34.448  10.602
52221W        W13532  40.527  41.886  14.002
52222W        W13533  43.476  28.148   3.638
52223W        W13534  14.780  20.652  10.636
52224W        W13535  19.275  22.674  11.547
52225W        W13536  40.502  13.774   2.854
52226W        W13537  25.982  44.433   1.815
52227W        W13538  18.103  12.740  13.364
52228W        W13539  41.976  15.696  14.876
52229W        W13540   4.357  39.356   0.247
52230W        W13541  42.962  11.280  13.849
52231W        W13542  21.619  44.347   2.261
52232W        W13543  16.081  29.519  14.280
52233W        W13544  27.977  18.629   1.215
52234W        W13545  43.469  39.473   1.379
52235W        W13546  11.826  26.140   0.878
52236W        W13547  20.127  33.451  10.504
52237W        W13548  39.006  21.584   2.298
52238W        W13549  21.047   3.769  11.994
52239W        W13550   1.885  44.485  12.861
52240W        W13551   3.267   1.877   2.810
52241W        W13552  14.759   5.718  14.790
52242W        W13553  23.497   3.762  12.426
52243W        W13554  22.016  41.370  13.357
52244W        W13555  14.341  10.749  10.403
52245W        W13556  32.090  12.809  14.023
52246W        W13557  43.778  16.275  12.917
52247W        W13558  31.433   0.960   3.232
52248W        W13559  40.388   8.658  11.594
52249W        W13560   8.692  31.130   1.380
52250W        W13561  22.245  13.306  13.469
52251W        W13562  29.660  35.865  10.082
52252W        W13563  37.537  15.226   0.478
52253W        W13564  25.486  13.764   4.658
52254W        W13565   7.890  29.977   0.763
52255W        W13566  21.087  13.659  13.991
52256W        W13567   2.737  13.656  11.009
52257W        W13568   8.283  42.303  13.326
52258W        W13569  40.844  24.619   2.802
52259W        W13570  41.820  12.217  12.473
52260W        W13571  11.661  38.545   3.864
52261W        W13572  43.277   1.760   4.261
52262W        W13573   8.806  33.130   2.829
52263W        W13574  44.766   8.835  14.839
52264W        W13575   2.443  30.003   3.716
52265W        W13576  38.838  37.977   3.711
52266W        W13577  36.984  23.723  12.088
52267W        W13578  11.719  23.183  14.803
52268W        W13579  32.615  42.509  10.434
52269W        W13580  36.964   7.703   0.956
52270W        W13581  44.325  18.688  13.039
52271W        W13582  29.517   4.356  14.955
52272W        W13583  14.166  38.061  13.938
52273W        W13584   8.864  24.682   2.701
52274W        W13585   4.317  33.518   1.321
52275W        W13586  40.933   5.212  12.976
52276W        W13587   0.898  31.960  12.025
52277W        W13588  31.452   7.299  13.477
52278W        W13589  39.036   9.886   2.724
52279W        W13590  41.014  38.438  12.407
52280W        W13591   8.355  23.603  14.897
52281W        W13592  33.380   1.314  10.431
52282W        W13593  21.541  21.068  10.527
52283W        W13594   6.861  13.745   1.367
52284W        W13595   3.764  11.208  11.080
52285W        W13596  34.102  31.954   1.770
52286W        W13597  36.531  10.655   4.188
52287W        W13598  19.184  42.846   0.464
52288W        W13599  16.738  15.181  12.855
52289W        W13600   3.720  21.548  10.514
52290W        W13601  36.962  40.838  14.388
52291W        W13602  37.891  30.587  12.946
52292W        W13603  35.880  38.461   2.717
52293W        W13604  27.047  32.934  14.869
52294W        W13605  28.489  34.988   4.605
52295W        W13606  38.932  29.479   3.257
52296W        W13607  38.062   8.331  10.996
52297W        W13608   9.277  35.390   3.303
52298W        W13609  27.461  25.468   3.731
52299W        W13610  36.557  23.224  11.587
52300W        W13611  23.694  42.006  13.449
52301W        W13612  19.702   8.773   2.236
52302W        W13613   4.411  35.471   3.657
52303W        W13614  40.929  18.651  14.481
52304W        W13615  43.892  35.582   4.642
52305W        W13616  21.664  23.196   2.780
52306W        W13617  41.402  40.543   3.169
52307W        W13618   8.692   4.395   2.682
52308W        W13619  38.342   9.379   1.930
52309W        W13620   6.352  14.700  14.908
52310W        W13621   8.676  23.204   0.424
52311W        W13622  15.104  41.427   1.712
52312W        W13623  13.266  24.565   0.855
52313W        W13624  35.580  39.375  14.841
52314W        W13625  36.966  17.732  11.016
52315W        W13626  11.769  19.039   4.233
52316W        W13627  18.263   3.413   3.771
52317W        W13628  23.239  34.552  10.991
52318W        W13629  32.125  44.785   3.299
52319W        W13630  22.566   5.295  14.998
52320W        W13631  39.426  12.791  13.821
52321W        W13632  28.652  11.196   4.135
52322W        W13633  39.940  22.076  14.993
52323W        W13634  25.964  36.841  14.997
52324W        W13635   3.930  32.074  14.770
52325W        W13636  36.586  13.311   0.968
52326W        W13637  44.753  33.591  11.546
52327W        W13638   9.331  41.307   0.470
52328W        W13639  27.635  19.665  12.526
52329W        W13640  18.707   6.280  14.853
52330W        W13641   5.705  43.444   1.788
52331W        W13642  28.478  42.393   0.288
52332W        W13643  26.650   3.874  12.094
52333W        W13644  22.210  37.546   1.933
52334W        W13645  25.015  13.737  14.760
52335W        W13646  29.968  13.327  11.055
52336W        W13647  26.617  15.258   2.200
52337W        W13648   6.233  37.946  13.940
52338W        W13649  18.246  15.779   3.750
52339W        W13650   4.342   8.764   1.273
52340W        W13651   0.942  33.058  11.477
52341W        W13652  19.198  17.653  10.525
52342W        W13653  24.717  22.652  10.555
52343W        W13654  33.986  27.069   4.653
52344W        W13655  20.621  26.594   4.221
52345W        W13656  43.881  35.910   4.764
52346W        W13657  29.979  11.714   4.705
52347W        W13658  40.864   7.386  10.980
52348W        W13659  40.367  28.502   4.116
52349W        W13660  15.149  30.578  11.963
52350W        W13661  42.031  11.354   0.934
52351W        W13662  44.443  28.959  10.636
52352W        W13663   8.320   3.944   2.245
52353W        W13664  24.543  42.386  12.074
52354W        W13665  37.047  43.319  11.964
52355W        W13666  31.915  16.104   0.469
52356W        W13667   2.232   5.823  14.883
52357W        W13668  10.280  34.958  11.103
52358W        W13669  20.673  42.966   3.203
52359W        W13670  43.012  33.475  11.379
52360W        W13671  19.270  19.577  14.993
52361W        W13672  29.434   5.312   2.756
52362W        W13673   4.431   7.299   4.631
52363W        W13674  35.992  37.859   2.844
52364W        W13675  42.015  24.651  11.127
52365W        W13676  43.966  21.656   2.330
52366W        W13677   6.906  38.532  12.848
52367W        W13678  19.604  19.715  13.811
52368W        W13679  19.692   1.244  13.361
52369W        W13680  28.158   3.256  10.020
52370W        W13681   7.231  20.734   1.440
52371W        W13682   4.706   9.267  13.319
52372W        W13683  38.826  35.974   1.764
52373W        W13684  21.024  15.763   0.476
52374W        W13685   6.823   5.887  10.419
52375W        W13686  28.531   4.934  13.851
52376W        W13687  14.756  37.887  13.976
52377W        W13688  39.824  21.649   4.601
52378W        W13689  16.162   6.239  10.074
52379W        W13690  35.860  21.083   1.797
52380W        W13691  12.686  24.005   4.155
52381W        W13692   7.353  29.086  11.946
52382W        W13693   0.810  12.155   1.265
52383W        W13694  37.927  14.816   2.770
52384W        W13695  13.702   2.232  13.445
52385W        W13696  24.195   0.262   2.401
52386W        W13697   9.707  29.062   4.307
52387W        W13698  34.869  38.404  10.535
52388W        W13699  35.560   8.327   1.726
52389W        W13700  15.705  18.053  12.576
52390W        W13701  31.149  39.443   3.802
52391W        W13702  26.081  29.486   2.686
52392W        W13703   7.271  34.000  12.088
52393W        W13704  29.149   9.301  12.966
52394W        W13705  26.983  31.057   0.792
52395W        W13706  41.426  22.240  11.586
52396W        W13707  20.129  42.805   5.251
52397W        W13708  25.630   5.223  14.456
52398W        W13709  35.016  11.814  11.895
52399W        W13710   3.374  40.488  10.417
52400W        W13711  30.633  34.889  14.319
52401W        W13712  27.558  29.446   3.301
52402W        W13713   5.372  27.653  11.505
52403W        W13714  10.690  28.018   4.136
52404W        W13715  30.581  11.225   4.308
52405W        W13716  32.537  44.921   4.707
52406W        W13717   9.808  29.465   0.793
52407W        W13718  32.007  27.575   0.285
52408W        W13719  27.079  27.019  13.806
52409W        W13720  12.832  41.845  13.376
52410W        W13721  14.788  37.909  13.342
52411W        W13722  21.070  32.981   1.263
52412W        W13723   0.409  40.305   2.699
52413W        W13724  22.050  22.008   4.251
52414W        W13725  43.962  22.021   4.190
52415W        W13726  14.185  32.466  12.496
52416W        W13727   0.331   8.812   4.128
52417W        W13728   6.896  22.615  10.566
52418W        W13729  44.501   2.339  14.783
52419W        W13730  12.168  40.966  11.931
52420W        W13731  21.167  22.026   1.768
52421W        W13732  23.224   3.877  12.917
52422W        W13733  12.161  12.646  11.551
52423W        W13734  43.994   7.743  14.767
52424W        W13735  22.717   0.408   1.338
52425W        W13736  28.500  29.448   2.315
52426W        W13737  19.071  28.610  11.116
52427W        W13738   2.285  14.634   1.221
52428W        W13739  28.937  41.505   0.347
52429W        W13740  14.323  41.383   2.234
52430W        W13741  25.125  37.021   2.296
52431W        W13742  37.979  10.355   3.346
52432W        W13743  29.513  13.220  13.040
52433W        W13744   4.423   9.381   0.326
52434W        W13745   2.345  28.623   4.696
52435W        W13746  18.560  35.888  13.881
52436W        W13747  32.569  23.640  14.332
52437W        W13748  12.200  33.993  11.426
52438W        W13749  41.412  13.805  10.963
52439W        W13750   4.438   6.418   1.367
52440W        W13751  21.605   5.904  10.969
52441W        W13752  18.759   7.412   3.794
52442W        W13753   5.267  18.587  14.403
52443W        W13754  31.454  21.201   3.692
52444W        W13755  27.491  43.415   0.757
52445W        W13756  18.762   7.362  14.768
52446W        W13757  22.639   8.330  11.857
52447W        W13758  34.965  10.184  12.896
52448W        W13759  30.117  40.409  13.513
52449W        W13760  26.485  33.963   0.798
52450W        W13761   8.224  21.701  12.916
52451W        W13762  31.492  42.851  10.471
52452W        W13763   9.194  40.904   1.215
52453W        W13764   9.177  24.658  11.541
52454W        W13765  17.746  42.288  12.921
52455W        W13766  35.911  31.487   2.822
52456W        W13767  20.670  40.352  14.297
52457W        W13768   5.219  15.782  14.768
52458W        W13769  31.951  28.955  12.360
52459W        W13770  15.170   8.694   4.115
52460W        W13771  37.383  39.002   4.794
52461W        W13772  31.458  12.702  12.530
52462W        W13773  32.061  18.784  11.895
52463W        W13774  35.019  33.491   0.464
52464W        W13775  15.151   0.879  14.411
52465W        W13776  38.060  44.395  11.549
52466W        W13777  21.731  27.943   5.166
52467W        W13778  24.150   5.808   0.737
52468W        W13779  44.366  15.142   4.148
52469W        W13780  18.587  30.156   2.278
52470W        W13781  43.962  35.540   0.737
52471W        W13782  10.139   7.299   2.820
52472W        W13783  10.167  43.326  14.366
52473W        W13784   8.315  40.442   4.221
52474W        W13785  20.120  20.093   4.250
52475W        W13786  22.096   6.281   4.690
52476W        W13787  27.468  14.812   1.850
52477W        W13788  35.376  41.491  14.008
52478W        W13789  33.094  22.521  12.904
52479W        W13790  37.346  43.353   2.276
52480W        W13791  17.111  12.776   0.927
52481W        W13792  14.710  23.081   5.720
52482W        W13793  10.245  33.092  13.973
52483W        W13794  43.845   5.400  10.901
52484W        W13795  44.802   9.748  12.435
52485W        W13796  24.712  18.630  11.887
52486W        W13797  14.337  39.919  14.760
52487W        W13798  44.010   7.372  11.031
52488W        W13799  38.497  41.317  13.499
52489W        W13800  18.578  42.960  12.382
52490W        W13801  36.993  32.140   3.768
52491W        W13802  34.906  15.691  11.404
52492W        W13803  29.607   0.852  11.547
52493W        W13804  27.957   7.245   3.287
52494W        W13805   1.391   5.318  13.873
52495W        W13806  21.537   7.860   1.816
52496W        W13807  30.050  24.543  10.913
52497W        W13808  44.493  24.602   1.237
52498W        W13809   7.259  31.963  13.961
52499W        W13810   1.340  32.591   2.331
52500W        W13811  43.307  35.427  13.839
52501W        W13812   5.281  44.433   2.213
52502W        W13813  11.820  14.156   2.371
52503W        W13814  18.647  27.181   3.712
52504W        W13815  12.214   7.876  14.457
52505W        W13816  18.171   9.761  12.520
52506W        W13817   7.384   2.870   4.787
52507W        W13818   5.806  12.339   1.392
52508W        W13819  24.020  14.590   4.245
52509W        W13820  41.321  17.719   3.717
52510W        W13821  24.720  29.006  14.809
52511W        W13822  12.316   4.205   4.163
52512W        W13823  33.123   3.218  12.538
52513W        W13824  43.320  17.624   0.433
52514W        W13825   8.322   1.249  10.899
52515W        W13826  25.663  24.567   3.662
52516W        W13827  26.080  27.491   1.836
52517W        W13828   1.779  18.103  11.009
52518W        W13829  21.263  14.245   1.274
52519W        W13830   5.241  28.028   0.900
52520W        W13831  16.182  14.245   3.297
52521W        W13832  28.994  12.261  12.068
52522W        W13833  38.951   4.942   2.740
52523W        W13834  41.451  32.504   1.921
52524W        W13835  17.220  18.611   2.850
52525W        W13836   0.962   9.708  14.902
52526W        W13837  13.139  26.982   2.402
52527W        W13838  34.561  42.516   0.846
52528W        W13839  18.743  23.033   4.135
52529W        W13840  36.867  21.591  11.453
52530W        W13841  30.070   1.386  11.501
52531W        W13842  22.175  17.084   4.825
52532W        W13843  20.227   3.744  12.823
52533W        W13844  17.692  15.152  11.607
52534W        W13845  13.829  21.238  13.023
52535W        W13846   7.704  16.130   1.802
52536W        W13847  38.983  10.364   3.152
52537W        W13848  28.085   7.851  14.896
52538W        W13849   2.328   5.396  13.046
52539W        W13850  29.924  27.072   4.324
52540W        W13851  31.992  23.529  14.322
52541W        W13852   0.330  16.730   3.717
52542W        W13853  42.514   1.854   1.918
52543W        W13854  16.189  31.103   1.266
52544W        W13855  30.421   1.810  13.004
52545W        W13856  41.966  39.539  13.006
52546W        W13857   0.431  39.507   2.280
52547W        W13858   4.855  38.425   3.782
52548W        W13859  17.594  24.209  11.404
52549W        W13860   7.864  38.448   0.817
52550W        W13861  32.063   2.257   4.286
52551W        W13862  29.980  22.139   4.693
52552W        W13863  12.852   5.710  11.083
52553W        W13864  43.483   6.217  11.070
52554W        W13865  41.898  13.793  11.884
52555W        W13866   9.190   8.769   2.216
52556W        W13867  28.990   7.710   1.447
52557W        W13868  30.635  33.596  12.542
52558W        W13869   7.257   6.744   0.342
52559W        W13870  10.308   0.833  14.445
52560W        W13871  40.371   1.464   4.834
52561W        W13872   4.354  16.749  12.856
52562W        W13873  24.224  40.316  11.542
52563W        W13874  18.697   8.203  14.384
52564W        W13875  31.469   4.252   5.103
52565W        W13876  30.041  33.420  14.829
52566W        W13877  39.479  35.952  12.528
52567W        W13878  41.527  29.967   4.625
52568W        W13879  28.487  12.350   2.336
52569W        W13880  11.214  21.082   3.864
52570W        W13881  33.995  35.915   3.214
52571W        W13882  30.505  31.541  11.957
52572W        W13883   6.822  30.910   2.783
52573W        W13884  34.389  41.361   4.277
52574W        W13885  10.838  34.084   3.679
52575W        W13886  25.968   0.845   2.192
52576W        W13887  24.654  30.487   3.233
52577W        W13888   7.894  27.114  10.487
52578W        W13889  20.702   3.755   3.682
52579W        W13890  34.410  13.218  14.413
52580W        W13891  15.595  43.468  14.764
52581W        W13892   3.936  24.668  14.808
52582W        W13893  38.514  19.171  11.593
52583W        W13894   9.861  12.327  12.938
52584W        W13895  22.531  26.566   4.228
52585W        W13896   2.879  18.179   0.814
52586W        W13897  44.912  30.028   3.677
52587W        W13898   1.934  28.938   4.636
52588W        W13899   0.252  35.031  11.983
52589W        W13900  11.833   9.256  13.945
52590W        W13901   0.353  24.175  11.440
52591W        W13902  11.666  44.856   0.411
52592W        W13903  26.501  12.731   2.235
52593W        W13904  33.036  29.579  10.965
52594W        W13905   1.467  23.234  13.978
52595W        W13906   1.288  33.520  10.948
52596W        W13907  14.285  17.621   2.401
52597W        W13908  24.696  37.354   1.869
52598W        W13909  27.552  24.534  11.979
52599W        W13910  16.728  40.797  13.036
52600W        W13911  11.252  23.522   9.440
52601W        W13912  39.815  25.181   0.913
52602W        W13913  38.566  30.945   0.957
52603W        W13914  18.120  23.511   0.935
52604W        W13915  42.318  43.462   1.920
52605W        W13916  37.513  21.079  14.762
52606W        W13917  37.875  25.115  10.464
52607W        W13918  33.536   7.366   0.336
52608W        W13919  22.230   5.808   0.863
52609W        W13920  31.577  18.262  12.510
52610W        W13921  14.143   1.823   5.627
52611W        W13922  21.185  20.041   3.145
52612W        W13923  19.613   0.269  12.535
52613W        W13924  16.634  29.147  11.873
52614W        W13925  17.790  41.984  12.086
52615W        W13926   8.252  33.518   3.773
52616W        W13927   5.741  22.171   2.819
52617W        W13928  22.617  18.602  13.856
52618W        W13929  36.061  33.879  14.901
52619W        W13930  27.067   6.743   3.648
52620W        W13931  42.996  32.561  14.824
52621W        W13932  35.455  28.477  11.921
52622W        W13933  21.187  17.272  10.502
52623W        W13934   8.821  25.166  13.346
52624W        W13935   0.862  30.142   4.711
52625W        W13936  26.157   0.337   3.831
52626W        W13937  22.243  24.552  11.949
52627W        W13938  22.528  43.986  13.458
52628W        W13939  36.993  11.154   0.400
52629W        W13940   4.846  11.713  13.006
52630W        W13941  23.505  25.024   3.299
52631W        W13942  25.974  28.183  13.856
52632W        W13943  17.562  21.024   0.334
52633W        W13944  17.592  39.406   2.684
52634W        W13945  10.149  37.843  12.037
52635W        W13946   5.296  21.553   2.255
52636W        W13947  30.449  30.610  10.958
52637W        W13948  21.515  31.458   3.160
52638W        W13949  27.029  19.771  13.012
52639W        W13950  30.642  25.973  13.954
52640W        W13951  27.105  30.601  11.975
52641W        W13952  40.331   0.780  13.993
52642W        W13953  30.030   7.846  14.515
52643W        W13954  39.388   5.783   0.441
52644W        W13955   2.338   1.851   0.457
52645W        W13956  34.023  27.568  14.473
52646W        W13957  17.063  26.074   3.818
52647W        W13958   6.787  30.966   2.347
52648W        W13959  26.665  39.390   1.738
52649W        W13960  21.605  38.826   5.145
52650W        W13961   2.961  17.658   2.274
52651W        W13962  37.340  37.900   9.566
52652W        W13963   9.223  40.303   0.264
52653W        W13964   6.754  36.043  13.795
52654W        W13965  25.550   0.448  12.532
52655W        W13966  43.465   3.807   0.781
52656W        W13967  44.894  16.790  14.964
52657W        W13968  30.089  33.437  11.462
52658W        W13969   4.212  23.116  12.451
52659W        W13970   4.767  13.321  14.404
52660W        W13971  40.819  30.621  11.503
52661W        W13972  24.013  26.561   4.634
52662W        W13973  43.421  24.992   1.815
52663W        W13974   8.850  30.986  14.286
52664W        W13975   7.276  37.861  14.498
52665W        W13976  19.226  23.538  13.432
52666W        W13977  40.516  26.973   0.967
52667W        W13978  41.912  41.020  10.578
52668W        W13979  30.127  23.735  12.050
52669W        W13980   3.838  26.175  10.934
52670W        W13981  43.868  25.970   3.148
52671W        W13982  41.978  28.043  13.028
52672W        W13983  25.661   9.777   0.393
52673W        W13984  25.160  21.729  13.424
52674W        W13985  18.248  23.087   0.373
52675W        W13986  10.755  31.426   1.451
52676W        W13987  10.787  43.885  13.894
52677W        W13988  28.673  38.478   2.342
52678W        W13989  12.166  38.972   1.379
52679W        W13990  43.287  30.448   2.810
52680W        W13991  12.830  28.983   3.703
52681W        W13992  24.146   4.266  11.459
52682W        W13993  22.131  14.640  11.086
52683W        W13994  15.783  23.062  13.954
52684W        W13995  25.652   9.878  10.501
52685W        W13996  25.510  11.741  11.025
52686W        W13997   5.199  20.573  14.446
52687W        W13998  27.568  31.615   4.238
52688W        W13999  38.917  42.828  12.453
52689W        W14000   8.693  16.710   3.222
52690W        W14001  44.346  31.641  11.386
52691W        W14002  18.642  19.159  10.570
52692W        W14003  24.617   8.854   5.294
52693W        W14004  24.561  13.137   4.756
52694W        W14005  44.946  42.005  11.605
52695W        W14006  18.225  11.864   1.871
52696W        W14007  36.005  10.678   2.687
52697W        W14008  41.971  17.288  14.016
52698W        W14009  30.933  36.006  10.443
52699W        W14010  26.067  14.831   2.346
52700W        W14011  14.686  17.150   3.355
52701W        W14012  15.306  22.022  14.399
52702W        W14013  36.043  37.836   1.361
52703W        W14014  21.531  11.766  13.405
52704W        W14015  27.101  28.140  12.502
52705W        W14016   5.788  41.376  12.939
52706W        W14017  18.180  16.603   9.967
52707W        W14018  12.120  17.793  12.901
52708W        W14019   9.716  24.543  13.804
52709W        W14020  28.499  40.947  11.387
52710W        W14021  32.046  16.602   4.637
52711W        W14022  11.250  20.571  14.420
52712W        W14023   6.752  12.186  12.867
52713W        W14024  28.612  20.758  13.853
52714W        W14025  27.545  11.309  10.469
52715W        W14026  44.366  20.247  11.004
52716W        W14027  35.020  41.915   4.772
52717W        W14028  19.553  34.047   2.692
52718W        W14029  12.308  32.969   4.309
52719W        W14030  12.239  16.708   4.676
52720W        W14031  18.092  39.453   1.382
52721W        W14032  42.993  32.488  11.472
52722W        W14033   0.989  42.351   4.259
52723W        W14034   6.862   0.293  12.983
52724W        W14035  32.057  23.596  11.067
52725W        W14036  10.256  42.944   0.893
52726W        W14037  21.589  42.846   3.831
52727W        W14038  29.499  34.051   1.743
52728W        W14039  16.696  10.299  11.931
52729W        W14040  29.042  21.605  14.990
52730W        W14041   5.375  20.749   2.228
52731W        W14042  44.929  20.525   4.351
52732W        W14043  31.521  39.922  11.110
52733W        W14044  19.777  16.710  12.455
52734W        W14045  34.031   6.303  11.973
52735W        W14046  33.463  28.978   3.321
52736W        W14047  37.027  33.452   2.877
52737W        W14048  29.034   5.802  14.419
52738W        W14049  18.724  35.547  13.354
52739W        W14050   5.905  22.027   2.406
52740W        W14051  41.800  42.411  10.580
52741W        W14052  22.235  21.186   3.287
52742W        W14053   8.691  25.492   2.816
52743W        W14054  11.178  42.478   0.734
52744W        W14055   8.875  36.065   2.374
52745W        W14056   3.371   8.673   2.807
52746W        W14057  36.075  28.641   3.772
52747W        W14058  35.966   8.869  10.908
52748W        W14059  17.694  41.384   1.404
52749W        W14060  26.696  30.414  14.433
52750W        W14061  36.346  11.678  11.508
52751W        W14062   8.389   9.672   0.817
52752W        W14063  18.165  27.135  10.514
52753W        W14064  33.050  21.610  10.512
52754W        W14065  13.635  37.871  11.048
52755W        W14066  25.508  19.586   3.269
52756W        W14067  21.738  17.245   3.229
52757W        W14068  34.419  28.627  11.943
52758W        W14069  42.363  26.120  13.939
52759W        W14070  17.637  35.510   2.710
52760W        W14071   0.358  24.030   2.328
52761W        W14072  29.116  29.122  12.992
52762W        W14073  21.716   2.302   4.742
52763W        W14074  18.201  11.165  11.491
52764W        W14075  14.733   0.896   4.663
52765W        W14076  15.739   9.864  13.852
52766W        W14077  19.701  15.300  12.394
52767W        W14078   2.854  14.819   0.787
52768W        W14079  33.027  18.700  12.975
52769W        W14080  35.535   7.830  12.450
52770W        W14081  36.544  10.692  12.965
52771W        W14082   9.170   9.335  10.467
52772W        W14083  28.628  29.960   2.219
52773W        W14084  14.622  10.871  14.782
52774W        W14085  33.540   2.418  14.982
52775W        W14086  21.033  14.696  14.769
52776W        W14087  42.402  38.941  14.859
52777W        W14088  40.911  31.051  12.494
52778W        W14089  40.836   3.803  11.877
52779W        W14090   0.465   8.746  13.991
52780W        W14091  34.931  34.008  13.062
52781W        W14092  41.295  35.382  12.001
52782W        W14093  44.990  30.090   3.182
52783W        W14094  26.530   8.271  10.084
52784W        W14095   5.718  42.363  10.643
52785W        W14096  21.134  13.264   1.303
52786W        W14097  23.530  35.412  10.486
52787W        W14098  14.116  13.634  14.400
52788W        W14099  37.378  10.862  13.810
52789W        W14100   0.266  19.253   2.326
52790W        W14101  26.012   0.758   1.336
52791W        W14102   3.389  26.203  11.121
52792W        W14103   3.955  30.032   3.177
52793W        W14104  22.240  16.138  11.938
52794W        W14105  16.783  16.745   4.600
52795W        W14106  32.946  36.918   0.735
52796W        W14107  20.589  17.766   4.642
52797W        W14108   4.711  44.372   3.176
52798W        W14109   3.825   3.875   0.308
52799W        W14110  37.027  41.513   1.846
52800W        W14111  15.760  33.880  13.966
52801W        W14112  41.361  16.145   1.219
52802W        W14113  41.352  14.267   0.874
52803W        W14114   5.286  34.559   0.379
52804W        W14115  25.660   7.215  14.982
52805W        W14116  12.141  30.995  13.489
52806W        W14117  19.665   1.260  14.990
52807W        W14118   7.912  32.400   2.843
52808W        W14119  17.106  41.380   1.796
52809W        W14120  22.648  37.374  14.939
52810W        W14121  37.356   9.690  12.843
52811W        W14122  18.642  32.461   0.890
52812W        W14123   2.742  42.384   2.694
52813W        W14124  35.908   1.373  14.452
52814W        W14125  17.728  25.038  11.942
52815W        W14126   5.875  34.448   1.832
52816W        W14127  34.496  23.239  11.066
52817W        W14128  31.982  23.521   1.695
52818W        W14129   3.336  28.134   1.926
52819W        W14130  15.753   8.769   2.678
52820W        W14131  18.638  27.672   4.675
52821W        W14132  32.055   4.896   4.694
52822W        W14133  10.182   4.419   1.440
52823W        W14134  17.708  40.496  14.780
52824W        W14135  36.866   2.788  13.896
52825W        W14136  10.139  27.033  11.955
52826W        W14137  36.095  34.523  11.904
52827W        W14138  12.683  27.033   2.701
52828W        W14139  12.299  23.551   2.784
52829W        W14140  25.103  13.762   2.841
52830W        W14141   2.414  31.897   4.820
52831W        W14142  29.921  19.594  13.325
52832W        W14143   3.845  20.664  13.972
52833W        W14144  25.963  23.014  13.946
52834W        W14145   3.397   7.360   4.689
52835W        W14146   6.330  41.386   3.843
52836W        W14147  19.238  17.201  13.432
52837W        W14148  26.551  40.485   4.755
52838W        W14149  44.397   9.800  14.933
52839W        W14150  12.319  44.358   3.666
52840W        W14151  36.475   3.864  13.914
52841W        W14152  28.518  27.530  12.898
52842W        W14153  42.364  42.798   4.831
52843W        W14154  33.579   8.393  11.495
52844W        W14155   9.345   8.375  13.534
52845W        W14156  16.720  14.697  13.344
52846W        W14157  24.024  33.882  12.382
52847W        W14158   6.266  41.982  14.311
52848W        W14159   4.233  30.643   0.467
52849W        W14160  11.622  37.046  14.824
52850W        W14161   5.205   5.232   2.903
52851W        W14162  33.885  22.646   3.378
52852W        W14163  15.651  21.750   4.128
52853W        W14164  14.304   3.768   1.425
52854W        W14165   5.301   3.414  11.402
52855W        W14166  22.559   4.916   3.321
52856W        W14167  36.585   9.802   4.341
52857W        W14168  26.189  21.722  13.355
52858W        W14169  16.131  30.642   3.669
52859W        W14170  37.429  34.559   0.461
52860W        W14171  21.059  21.201  13.983
52861W        W14172  38.051  42.281   3.635
52862W        W14173  23.589  31.449   4.337
52863W        W14174  28.569  18.712  14.961
52864W        W14175  29.015   9.322  14.502
52865W        W14176  19.281  29.128   3.314
52866W        W14177  41.948  34.889   2.757
52867W        W14178  25.711  13.614  10.548
52868W        W14179  31.040  44.874   0.952
52869W        W14180  12.840  43.392  11.915
52870W        W14181  15.192  12.750  11.065
52871W        W14182   1.950  18.126   2.274
52872W        W14183  40.334  18.264   0.482
52873W        W14184  23.155  31.957  11.451
52874W        W14185  25.133  10.363   3.287
52875W        W14186  26.642  40.536  12.356
52876W        W14187  16.636  36.571   3.783
52877W        W14188   0.809   9.186   3.684
52878W        W14189  14.752  32.445   3.658
52879W        W14190  38.919  36.363   0.845
52880W        W14191   8.304   9.289  13.835
52881W        W14192  35.953  28.524  10.485
52882W        W14193   8.703  37.446   5.240
52883W        W14194  17.774  23.061   2.244
52884W        W14195  44.829  20.576  14.418
52885W        W14196  37.003  24.640   4.741
52886W        W14197  44.417  23.615   0.405
52887W        W14198  26.975  35.036  11.050
52888W        W14199  44.459  23.001  11.939
52889W        W14200   2.438   4.224   4.251
52890W        W14201  37.841  33.546   3.785
52891W        W14202  23.217  22.678  10.911
52892W        W14203  30.132   8.226  13.454
52893W        W14204  29.070   4.404  12.072
52894W        W14205   0.308  32.099  12.520
52895W        W14206   8.277  28.080   4.642
52896W        W14207  20.222  25.989  10.531
52897W        W14208  41.871   8.891  11.440
52898W        W14209  33.402  18.554   3.836
52899W        W14210  32.091  24.071  12.430
52900W        W14211  25.661  38.438  12.512
52901W        W14212  23.059  12.657   3.861
52902W        W14213  41.791  30.524  12.472
52903W        W14214  15.311  18.625  13.971
52904W        W14215  16.208  35.020   2.312
52905W        W14216  14.152  23.492   2.870
52906W        W14217  26.460   0.832  10.501
52907W        W14218  16.224  10.338   2.219
52908W        W14219   4.237  24.039  13.446
52909W        W14220   0.434  24.202  13.356
52910W        W14221   9.268  43.840   2.237
52911W        W14222  25.492   9.381  12.086
52912W        W14223  29.576  10.226  10.086
52913W        W14224  25.151  27.583  13.816
52914W        W14225   0.775  18.233   0.261
52915W        W14226   2.790  14.233  10.954
52916W        W14227  24.055   5.335  11.968
52917W        W14228   6.811  13.660  11.913
52918W        W14229   1.805  14.727   2.768
52919W        W14230  22.741   1.338  12.978
52920W        W14231  22.996  42.896   0.852
52921W        W14232  34.092   8.245  10.983
52922W        W14233  18.091   3.711  12.357
52923W        W14234  29.921  34.100   3.798
52924W        W14235   2.465  22.633  13.879
52925W        W14236   7.810  43.370  11.005
52926W        W14237  28.178   7.260  13.815
52927W        W14238  15.643  28.992  10.605
52928W        W14239   7.885  38.999   4.235
52929W        W14240  11.622  25.059  12.512
52930W        W14241  20.114   9.652  11.560
52931W        W14242  41.379  44.452   3.656
52932W        W14243  38.350  35.583   0.746
52933W        W14244  41.801  22.016  10.436
52934W        W14245  10.638  15.144   3.870
52935W        W14246  19.541  35.496   4.833
52936W        W14247  19.168  33.466  11.546
52937W        W14248   3.909  21.710   1.354
52938W        W14249  41.389   4.803   0.880
52939W        W14250  30.971   0.340  14.777
52940W        W14251  22.526  11.361  11.015
52941W        W14252  16.308  38.411  14.405
52942W        W14253   7.749  14.335  12.991
52943W        W14254  35.990  43.010   3.331
52944W        W14255  19.151  18.104   1.767
52945W        W14256  13.784  37.975   1.853
52946W        W14257   8.173  40.864  13.878
52947W        W14258  14.212  36.477   0.865
52948W        W14259   8.750  20.574   1.424
52949W        W14260  37.066  34.413  12.859
52950W        W14261  23.712  37.428   4.119
52951W        W14262  25.215  42.352  14.996
52952W        W14263  22.655  16.205   0.330
52953W        W14264   7.738  13.146   3.209
52954W        W14265  16.782  42.504  14.438
52955W        W14266  11.639  14.303   1.729
52956W        W14267  11.230  32.117   3.173
52957W        W14268  22.116   5.393  13.950
52958W        W14269  39.467   4.742   1.241
52959W        W14270  41.442  26.137   2.265
52960W        W14271  26.959  27.557  10.573
52961W        W14272  43.873  22.546   2.316
52962W        W14273   9.851  25.495  11.573
52963W        W14274  23.027   6.790  12.400
52964W        W14275  35.910  28.939  14.387
52965W        W14276  37.048  34.489  12.360
52966W        W14277  24.083  18.245  11.923
52967W        W14278  38.423  35.916   2.398
52968W        W14279  40.043  29.142   3.638
52969W        W14280   8.269  31.589  10.891
52970W        W14281  12.156  12.740  14.031
52971W        W14282  41.866  30.996  11.046
52972W        W14283  39.426  14.102  12.460
52973W        W14284   1.902  42.438   1.395
52974W        W14285  21.746  21.521   4.124
52975W        W14286  44.352  44.959  10.483
52976W        W14287   4.936  41.331  11.950
52977W        W14288  14.760  28.019   1.215
52978W        W14289  28.466  34.472  12.859
52979W        W14290  31.081  25.084   5.191
52980W        W14291  37.579  27.637   0.428
52981W        W14292  13.750   8.813  13.938
52982W        W14293  38.872  43.018  13.485
52983W        W14294  15.638  28.640  11.441
52984W        W14295  25.480   5.258   0.960
52985W        W14296   1.810  20.158   4.733
52986W        W14297  31.012  37.007   0.815
52987W        W14298  44.484  41.476   4.232
52988W        W14299  19.164  17.792   2.333
52989W        W14300  13.836  27.032   2.415
52990W        W14301  17.265  17.583  13.371
52991W        W14302  34.595   4.903  12.027
52992W        W14303  11.290  26.081   4.760
52993W        W14304  22.613  32.567  11.381
52994W        W14305  43.970   3.355  10.540
52995W        W14306  23.670  27.638   2.289
52996W        W14307  12.804   6.275  13.871
52997W        W14308  28.026  19.213   0.764
52998W        W14309  27.138  18.667  11.403
52999W        W14310   0.977  18.140   9.995
53000W        W14311  41.803  20.672   1.762
53001W        W14312  42.430  31.016  10.962
53002W        W14313  27.146  23.698  10.955
53003W        W14314  27.603   2.444   1.282
53004W        W14315  42.033   3.303  12.580
53005W        W14316  21.053   9.368   2.785
53006W        W14317  30.951  36.958   3.693
53007W        W14318  12.616  34.892   2.671
53008W        W14319  42.999  10.641   3.652
53009W        W14320  10.704  24.700  11.424
53010W        W14321  34.439  19.734   4.334
53011W        W14322   6.240  43.476   0.422
53012W        W14323   3.841  17.650   0.361
53013W        W14324  44.956  34.998  10.935
53014W        W14325  36.439   6.399   2.192
53015W        W14326  19.271  13.222   1.861
53016W        W14327  30.921  40.958   3.713
53017W        W14328  40.339  11.693   1.924
53018W        W14329  34.984  25.056  10.512
53019W        W14330  18.274   1.876   4.118
53020W        W14331  28.640  10.670   0.359
53021W        W14332  41.292  40.947   3.289
53022W        W14333  13.640  33.938  13.056
53023W        W14334  36.915  38.925  14.498
53024W        W14335  11.206  39.823  10.456
53025W        W14336  21.147  33.990  12.045
53026W        W14337  38.403  44.391   4.167
53027W        W14338  14.645   5.284  14.937
53028W        W14339  10.266   7.345  12.866
53029W        W14340  19.182  20.596  13.353
53030W        W14341  33.876   1.435   4.646
53031W        W14342  17.744  26.189   2.414
53032W        W14343   3.260   1.277  12.553
53033W        W14344   6.190  28.535   1.743
53034W        W14345   1.781   9.707  13.897
53035W        W14346  41.801  15.706  12.504
53036W        W14347  19.126  32.038  12.854
53037W        W14348  10.671  20.692  12.457
53038W        W14349   9.763  36.004  11.523
53039W        W14350  16.216   8.230   1.882
53040W        W14351  42.891  29.545   1.301
53041W        W14352   1.958  22.520  10.516
53042W        W14353  32.103  18.790  10.501
53043W        W14354  22.641  40.429   0.727
53044W        W14355   5.914  13.706   1.404
53045W        W14356  16.578  11.198  10.032
53046W        W14357  20.675  34.040  12.511
53047W        W14358  17.106  39.029  14.937
53048W        W14359  25.634  27.667  11.579
53049W        W14360  15.769  29.921  14.940
53050W        W14361   3.781   1.376  14.296
53051W        W14362  34.396   1.389  13.511
53052W        W14363  28.041  44.768  10.121
53053W        W14364  24.616  23.731   3.240
53054W        W14365  18.109  43.477   0.378
53055W        W14366   1.814   9.378  14.501
53056W        W14367  20.712  15.125  13.335
53057W        W14368  24.130  25.065   2.880
53058W        W14369  32.423   9.216   0.275
53059W        W14370   0.796  18.182   0.727
53060W        W14371  44.790   4.776  13.861
53061W        W14372  27.569  44.396  13.983
53062W        W14373  31.541   4.724  13.489
53063W        W14374  34.893  17.691   3.750
53064W        W14375   4.380  31.981  14.013
53065W        W14376  38.941  17.156  11.572
53066W        W14377  39.481  44.939  12.436
53067W        W14378   4.939  28.680   0.922
53068W        W14379  14.319   1.881   1.249
53069W        W14380   0.321  37.933  10.633
53070W        W14381   2.936  17.719   4.777
53071W        W14382  36.450  26.458  11.041
53072W        W14383  34.892  32.606   3.185
53073W        W14384  24.127  43.856  14.983
53074W        W14385  32.412  25.191   2.667
53075W        W14386  34.388  44.850   4.604
53076W        W14387  41.449   5.194  12.027
53077W        W14388  32.496  23.562   3.827
53078W        W14389  19.704  39.375   1.274
53079W        W14390  14.203  25.699  14.951
53080W        W14391   5.299  13.613  12.580
53081W        W14392  13.231  17.633  14.865
53082W        W14393  10.285  15.694   1.826
53083W        W14394   2.448  25.682   1.237
53084W        W14395  34.002  29.004   9.636
53085W        W14396  36.991  33.622   3.294
53086W        W14397   6.189  37.461   2.244
53087W        W14398  11.261  13.338  11.066
53088W        W14399  34.470  43.354   4.641
53089W        W14400  34.093  32.424  12.992
53090W        W14401  11.131   6.301   0.852
53091W        W14402  25.596   8.259   0.815
53092W        W14403  40.452  23.046  12.910
53093W        W14404  14.303  25.998   2.394
53094W        W14405  23.664  27.031   3.262
53095W        W14406  16.212  21.112  11.896
53096W        W14407  21.132  43.909   0.385
53097W        W14408  37.480  12.830   0.779
53098W        W14409  29.508   2.907  11.088
53099W        W14410  26.974  38.929  10.899
53100W        W14411   1.950  24.594  11.396
53101W        W14412   4.317   4.745   0.762
53102W        W14413  10.306  27.011   1.818
53103W        W14414   7.909  29.446  13.399
53104W        W14415   4.802  18.576   0.791
53105W        W14416  41.324   5.782  10.436
53106W        W14417  19.769  36.857  14.384
53107W        W14418   2.288  21.131   9.956
53108W        W14419  30.603  11.796  13.357
53109W        W14420  30.163  10.384  14.298
53110W        W14421  39.415  13.768   4.683
53111W        W14422  18.276  19.533   2.662
53112W        W14423  28.439   6.698   0.436
53113W        W14424  19.742  20.148  10.969
53114W        W14425   9.386  36.366   0.348
53115W        W14426  23.053  15.628   0.429
53116W        W14427  19.262   7.787  13.532
53117W        W14428  42.458  38.820  13.911
53118W        W14429  24.166  41.395   4.198
53119W        W14430   6.853  39.530   3.853
53120W        W14431  12.360  41.925   2.710
53121W        W14432  27.539  22.215   0.261
53122W        W14433  19.746   7.706   2.404
53123W        W14434  39.459  34.551   3.739
53124W        W14435   6.915   2.395  14.958
53125W        W14436  18.728  14.810   1.828
53126W        W14437  35.034  34.545   0.750
53127W        W14438  24.486  38.002   9.514
53128W        W14439  43.778  31.047   0.416
53129W        W14440  29.080  21.166  12.850
53130W        W14441  21.585  37.980   2.195
53131W        W14442  25.057  19.279  13.060
53132W        W14443  34.879   9.238   0.306
53133W        W14444  39.535   2.836  11.930
53134W        W14445  25.216  11.292  12.955
53135W        W14446  32.890  39.338  12.483
53136W        W14447  14.722   5.785  14.477
53137W        W14448  11.771  30.630   3.232
53138W        W14449  39.808  25.206  11.496
53139W        W14450   2.254   4.431   0.395
53140W        W14451  32.482  29.942   2.738
53141W        W14452  38.062   4.812   0.250
53142W        W14453  11.794  41.536   2.730
53143W        W14454   0.476  40.054  14.837
53144W        W14455  16.704   9.272  11.431
53145W        W14456  18.684  23.205  13.432
53146W        W14457  23.539  28.969  14.470
53147W        W14458  30.508   8.828  14.801
53148W        W14459  11.192  12.286  13.431
53149W        W14460  25.093  10.776  14.008
53150W        W14461  11.707  18.665   3.261
53151W        W14462  33.497   6.823  12.835
53152W        W14463   7.316  39.822  13.860
53153W        W14464  19.094  41.298   2.880
53154W        W14465   7.889  21.600   3.183
53155W        W14466  24.203  21.545   2.881
53156W        W14467  19.591   0.370   4.237
53157W        W14468  19.151  13.309  11.437
53158W        W14469  43.774  18.263   2.808
53159W        W14470  11.718   6.706   0.807
53160W        W14471  18.569  29.664   1.259
53161W        W14472   2.764  14.603  14.991
53162W        W14473  23.984  29.058   0.407
53163W        W14474  12.726  14.330   0.852
53164W        W14475  40.034  41.431  10.590
53165W        W14476  11.710  18.645   4.754
53166W        W14477  35.583   0.344  13.055
53167W        W14478   8.729  41.835  13.877
53168W        W14479   4.330  32.508  13.373
53169W        W14480   3.453  43.848   2.732
53170W        W14481   2.270  31.034  12.002
53171W        W14482   4.924  34.496  14.274
53172W        W14483  29.512  39.487   3.826
53173W        W14484  42.826  43.010   3.348
53174W        W14485   7.229  20.689   3.238
53175W        W14486  27.613  33.110   0.273
53176W        W14487  26.097   1.862  13.440
53177W        W14488  16.568  34.106  10.465
53178W        W14489  15.654  19.556  13.917
53179W        W14490  17.124  35.059   0.827
53180W        W14491  28.021  37.356   4.789
53181W        W14492  24.536  39.374   3.763
53182W        W14493  11.679  27.635  11.008
53183W        W14494  35.975   7.910  12.031
53184W        W14495  10.296  13.304  11.454
53185W        W14496   4.733  25.155   0.870
53186W        W14497   7.892  13.614  11.124
53187W        W14498  12.756  44.006  12.074
53188W        W14499   4.235   8.666  11.586
53189W        W14500  30.952  12.677  10.576
53190W        W14501  40.954  42.516  14.921
53191W        W14502  16.638   6.757  10.596
53192W        W14503  13.843  41.888  11.911
53193W        W14504  36.541  16.218  14.892
53194W        W14505  10.807  25.608  13.948
53195W        W14506  31.042  28.935  10.982
53196W        W14507   3.778  40.846   1.773
53197W        W14508  20.057   0.903   0.448
53198W        W14509  34.462  34.373  13.993
53199W        W14510  35.087  17.647   3.238
53200W        W14511   8.808  23.986  14.806
53201W        W14512  42.788  35.470   3.686
53202W        W14513  18.566  39.829   2.719
53203W        W14514  18.548  25.649  11.941
53204W        W14515   9.185  10.310   0.767
53205W        W14516  41.917  12.757  12.451
53206W        W14517   5.232   3.814  14.458
53207W        W14518  31.064  36.984   4.673
53208W        W14519   1.765   6.404   2.371
53209W        W14520  39.853  19.110   0.886
53210W        W14521  17.635  10.209  11.939
53211W        W14522  33.421   1.878  12.949
53212W        W14523  15.670   2.378   0.912
53213W        W14524  26.612  20.134  10.533
53214W        W14525  32.586  42.298   4.258
53215W        W14526  42.358  36.369  12.348
53216W        W14527  30.054  14.165   0.727
53217W        W14528  19.106  14.333   0.379
53218W        W14529  21.220  33.383   1.303
53219W        W14530  26.643   6.704   3.336
53220W        W14531  31.575  36.986   0.294
53221W        W14532   3.372  16.215  10.985
53222W        W14533   8.851  11.258   0.312
53223W        W14534  39.558   2.348   0.294
53224W        W14535  24.024  28.584  13.488
53225W        W14536   1.976   0.900   4.745
53226W        W14537  29.607   7.390  13.473
53227W        W14538  38.056  14.621  11.963
53228W        W14539   6.378  40.849  13.352
53229W        W14540  33.047   1.865  13.935
53230W        W14541  44.903  22.202  14.464
53231W        W14542  31.573   3.234  11.116
53232W        W14543  18.158  12.266   3.747
53233W        W14544   5.716  39.514   1.769
53234W        W14545  35.527  31.960   2.194
53235W        W14546  40.838  34.583   2.223
53236W        W14547   9.864  17.670   4.715
53237W        W14548  17.291   6.264  14.306
53238W        W14549  16.173  16.287   0.927
53239W        W14550  12.667  17.696  14.377
53240W        W14551   1.890   7.838   1.441
53241W        W14552  23.047  27.553  13.526
53242W        W14553  20.033   5.211   4.731
53243W        W14554  17.632  31.948   1.859
53244W        W14555  11.189  21.111   2.277
53245W        W14556  19.741  21.212  11.895
53246W        W14557  14.216  33.462   1.829
53247W        W14558   6.803  28.657  11.048
53248W        W14559  27.465  21.263   2.259
53249W        W14560  14.618  17.095  14.375
53250W        W14561  28.471   7.707   2.708
53251W        W14562  25.135  29.557  13.996
53252W        W14563  27.073  15.682   0.962
53253W        W14564   2.400  17.116   4.660
53254W        W14565   9.179  19.619   0.955
53255W        W14566  16.121  21.605   3.177
53256W        W14567  13.163  32.065   3.151
53257W        W14568  25.170   8.345  14.386
53258W        W14569   5.209   5.930   1.852
53259W        W14570  26.530  25.495   1.791
53260W        W14571  13.207  15.317   3.311
53261W        W14572   3.934  16.221   3.380
53262W        W14573  39.317   9.820   4.288
53263W        W14574  29.972  19.552   0.749
53264W        W14575  32.446   3.249   0.767
53265W        W14576  35.367  36.851   2.829
53266W        W14577   7.398   1.425   1.811
53267W        W14578  11.170  26.088   0.776
53268W        W14579  14.191  44.983  12.388
53269W        W14580  14.235  16.588   3.301
53270W        W14581  33.509  34.964   3.212
53271W        W14582  37.965  41.959   4.141
53272W        W14583  10.846  16.783  12.994
53273W        W14584  29.154  24.082  12.559
53274W        W14585  43.389  25.676  12.927
53275W        W14586   2.804  28.042  12.884
53276W        W14587  20.196   4.422   3.267
53277W        W14588  29.953  32.973   1.853
53278W        W14589  10.735  38.514   4.652
53279W        W14590  16.280  34.015   1.234
53280W        W14591  15.169  14.278  10.896
53281W        W14592  32.511  32.949  11.871
53282W        W14593  10.226  37.550   0.311
53283W        W14594   4.785  22.649   1.323
53284W        W14595  10.213  40.446  11.936
53285W        W14596  23.536   3.867   1.232
53286W        W14597  12.695  19.626   3.229
53287W        W14598  34.949  20.037  10.417
53288W        W14599  26.052  36.382   2.273
53289W        W14600  14.109  12.278  12.066
53290W        W14601  13.834  30.464   0.943
53291W        W14602  13.191  34.884   1.317
53292W        W14603  43.405  41.342  14.485
53293W        W14604  38.005   8.887   1.779
53294W        W14605  40.815  35.032   4.160
53295W        W14606  35.566   5.919   2.716
53296W        W14607  24.009   2.379   2.226
53297W        W14608  37.986  35.057  11.500
53298W        W14609   3.743   0.784   0.455
53299W        W14610   3.450  22.064  12.361
53300W        W14611   8.289  28.089  12.971
53301W        W14612  10.839  18.219  12.360
53302W        W14613  37.341  40.911   4.181
53303W        W14614  16.158  12.803  10.454
53304W        W14615  39.925  19.759  13.503
53305W        W14616   2.774  10.182  13.870
53306W        W14617   1.758  37.560  10.583
53307W        W14618  25.492  36.566   3.378
53308W        W14619   2.933  40.542  14.413
53309W        W14620  30.162  27.151  11.898
53310W        W14621  13.679   1.315  14.449
53311W        W14622  34.043  30.049  13.819
53312W        W14623   4.816  38.528   1.793
53313W        W14624  23.514  37.450   0.300
53314W        W14625  39.906  39.963  13.424
53315W        W14626  24.503  18.622  11.454
53316W        W14627  35.067  13.654  13.981
53317W        W14628  11.176  25.482   5.775
53318W        W14629  36.963  37.005   0.353
53319W        W14630   1.412   4.436   4.689
53320W        W14631   2.309  28.980  11.969
53321W        W14632   1.826  17.111  11.474
53322W        W14633  26.117   1.946   2.812
53323W        W14634  34.559  16.722  12.397
53324W        W14635   9.149  31.533   2.902
53325W        W14636  21.020  28.442  12.345
53326W        W14637  25.044  41.377  10.512
53327W        W14638  16.748  30.993   3.653
53328W        W14639  31.154  41.014   3.179
53329W        W14640  29.920   5.756   2.327
53330W        W14641  18.548  10.308  11.445
53331W        W14642  42.464  25.663  13.468
53332W        W14643  38.368   7.904  14.478
53333W        W14644  26.639  14.639   1.903
53334W        W14645  21.085  32.035   3.870
53335W        W14646  32.918  19.775   3.276
53336W        W14647  10.668  41.828   4.207
53337W        W14648  17.128  41.863   1.351
53338W        W14649  31.946  12.650  12.052
53339W        W14650  12.323  12.244  12.023
53340W        W14651  30.960  41.857  14.866
53341W        W14652   8.309  15.786  12.051
53342W        W14653  22.622  29.614   1.240
53343W        W14654   0.924   2.945  10.447
53344W        W14655  26.485  26.997   4.260
53345W        W14656  21.147  12.322  10.441
53346W        W14657  27.665  20.731  13.422
53347W        W14658  44.423  40.396  11.865
53348W        W14659  10.238   3.394   2.855
53349W        W14660  41.364  21.741   0.863
53350W        W14661  23.219  24.611  10.520
53351W        W14662  31.027  43.472   4.117
53352W        W14663  20.582   1.279  13.407
53353W        W14664  15.290   9.882   1.838
53354W        W14665   8.731  15.118  12.369
53355W        W14666  27.559  35.451  14.411
53356W        W14667  18.706  31.068   4.162
53357W        W14668  22.081   0.356  13.536
53358W        W14669   3.224  16.628  14.875
53359W        W14670  15.170   0.308  11.992
53360W        W14671   4.829   3.283   4.198
53361W        W14672  20.692  21.109  13.333
53362W        W14673  18.111  13.283  13.414
53363W        W14674   9.234  37.013   2.899
53364W        W14675   6.840  13.185  14.970
53365W        W14676  21.109   9.663   4.127
53366W        W14677  19.104  25.080  12.928
53367W        W14678   8.394  40.018  13.365
53368W        W14679  12.785  31.430   1.882
53369W        W14680  28.090   5.720   3.310
53370W        W14681  39.516  21.688   0.837
53371W        W14682   4.909  31.540   0.867
53372W        W14683  25.215  44.995   1.280
53373W        W14684  27.117  29.028  11.884
53374W        W14685  32.481  27.056  10.409
53375W        W14686  39.837  18.762   0.269
53376W        W14687  36.985  42.510  12.555
53377W        W14688  39.486  17.666   2.402
53378W        W14689  31.446   3.737  11.108
53379W        W14690   6.891  25.025   1.724
53380W        W14691   6.363  13.683   2.360
53381W        W14692  44.418  38.364  12.961
53382W        W14693  31.615  33.978   2.198
53383W        W14694   4.412  20.118   0.871
53384W        W14695   6.737  12.630   2.404
53385W        W14696   0.265  42.302  12.963
53386W        W14697  31.931  13.627  14.422
53387W        W14698  29.948   7.725   1.242
53388W        W14699  12.678   8.676   1.867
53389W        W14700  44.494  38.359   2.201
53390W        W14701  44.939   0.762   4.286
53391W        W14702   8.212  28.610  13.882
53392W        W14703  26.519  40.974  12.928
53393W        W14704  13.751  33.508  13.814
53394W        W14705  40.423   6.398   3.689
53395W        W14706  39.460  43.279   0.960
53396W        W14707  35.047  27.057   0.395
53397W        W14708  31.619  10.821  14.774
53398W        W14709  29.619  14.626  12.352
53399W        W14710  41.531  20.222  11.469
53400W        W14711   9.648  19.210  13.326
53401W        W14712  31.936  16.616  10.488
53402W        W14713  11.319  22.021  12.546
53403W        W14714  11.253  44.870  14.844
53404W        W14715  32.393  43.380   4.679
53405W        W14716  33.431  28.681   1.845
53406W        W14717  26.501  42.993   1.808
53407W        W14718  22.675  18.169  14.494
53408W        W14719   5.833  37.480  13.810
53409W        W14720  21.747   7.777  12.446
53410W        W14721  32.044  19.267  11.423
53411W        W14722  24.216   5.304  12.867
53412W        W14723  22.218   3.754   4.703
53413W        W14724  36.486   0.890   1.293
53414W        W14725  21.172  27.062   2.740
53415W        W14726  12.626  22.568  11.045
53416W        W14727  21.070  40.945   2.713
53417W        W14728  11.699   6.423   1.316
53418W        W14729  22.506  34.385  11.562
53419W        W14730  18.274  34.073   0.397
53420W        W14731  36.506  25.155  11.960
53421W        W14732  35.925  10.174   4.164
53422W        W14733   8.894  16.158  14.317
53423W        W14734  21.718  28.527   3.768
53424W        W14735  31.971  31.929   0.286
53425W        W14736  34.866  10.233  14.413
53426W        W14737   4.294  36.363  12.024
53427W        W14738  32.038  32.923  12.377
53428W        W14739  11.720  33.047  13.051
53429W        W14740  26.666  41.847   1.889
53430W        W14741  16.763   5.393   0.463
53431W        W14742  39.477   4.845   4.659
53432W        W14743  35.490  14.661  11.420
53433W        W14744   3.854   5.793  11.425
53434W        W14745   2.443  25.039   2.769
53435W        W14746  27.954   1.274  12.928
53436W        W14747  42.366  34.481  10.553
53437W        W14748  36.999   1.802  14.407
53438W        W14749  12.624   2.731   2.820
53439W        W14750   9.221  42.785   0.289
53440W        W14751  20.185  44.335   1.244
53441W        W14752  20.204  30.626   0.926
53442W        W14753  36.071  34.539  13.801
53443W        W14754  19.160  20.537   0.478
53444W        W14755  23.492  19.258  12.860
53445W        W14756  10.314  26.531  11.466
53446W        W14757  40.312  38.965   0.363
53447W        W14758  41.941  38.018  14.396
53448W        W14759  31.959  24.133  11.066
53449W        W14760  30.140  33.550  13.794
53450W        W14761   8.769  33.015   0.303
53451W        W14762   5.842  43.956  13.393
53452W        W14763  11.234  16.657  12.977
53453W        W14764  10.354  35.074   4.315
53454W        W14765  21.044   7.872   1.842
53455W        W14766  13.304  23.631  13.942
53456W        W14767   3.378  34.894  11.106
53457W        W14768  33.558  11.201  13.813
53458W        W14769  43.315  42.013  10.493
53459W        W14770  25.619  29.173   0.463
53460W        W14771  21.519  40.995   0.793
53461W        W14772  20.739  26.070   1.378
53462W        W14773  15.814  12.221   1.419
53463W        W14774  27.100   4.340   0.838
53464W        W14775  24.129  44.394   5.226
53465W        W14776   0.424  14.650   3.292
53466W        W14777  35.501   2.911   0.449
53467W        W14778   3.348  22.233  11.058
53468W        W14779  39.344  20.168  13.035
53469W        W14780  19.094  17.067  12.010
53470W        W14781  37.414  42.494  13.384
53471W        W14782  31.003  35.071   1.935
53472W        W14783  26.137  30.912  10.523
53473W        W14784  37.043  10.741   4.754
53474W        W14785  42.879  33.444   0.878
53475W        W14786  29.634  15.637  13.920
53476W        W14787  26.617  18.610   1.301
53477W        W14788  41.958  14.202  13.874
53478W        W14789  42.322  17.748  11.129
53479W        W14790  24.555   4.813  11.480
53480W        W14791  42.834   9.840   4.762
53481W        W14792  43.817  16.167  10.941
53482W        W14793  21.190  28.111  10.959
53483W        W14794  43.917  34.451  13.465
53484W        W14795  16.241  26.069   3.334
53485W        W14796  30.970   7.804   1.334
53486W        W14797   6.685  23.065  11.508
53487W        W14798  26.546  41.801   3.838
53488W        W14799   3.899  34.509   1.851
53489W        W14800  24.069   2.759  12.400
53490W        W14801  36.582  17.065   4.803
53491W        W14802  42.302  27.157  13.853
53492W        W14803  26.165   8.349   2.841
53493W        W14804  11.345  35.481  12.455
53494W        W14805   5.407  31.574  13.836
53495W        W14806  22.515   1.477   3.380
53496W        W14807  14.791   8.659   3.185
53497W        W14808   4.846   1.931   2.684
53498W        W14809  37.905  38.908   1.744
53499W        W14810  22.024   0.289  12.061
53500W        W14811  43.344  32.545  12.049
53501W        W14812  43.792  35.419   2.789
53502W        W14813   8.308  29.992  13.825
53503W        W14814  24.123  19.744   1.801
53504W        W14815  22.723   7.388   2.298
53505W        W14816  37.393  32.566   3.254
53506W        W14817  14.733  18.070   3.844
53507W        W14818   1.846   6.239  11.533
53508W        W14819   2.367  38.546  11.980
53509W        W14820  24.597  26.661   5.221
53510W        W14821  31.571   3.309  12.458
53511W        W14822  14.626  42.855  10.036
53512W        W14823  39.395  32.898   0.439
53513W        W14824  15.145   1.905   0.775
53514W        W14825  14.170  27.986   3.225
53515W        W14826  38.042   7.265  13.405
53516W        W14827   8.769  20.253   0.292
53517W        W14828  12.852  21.146   4.261
53518W        W14829  43.955  14.195   1.418
53519W        W14830  17.258  29.067  14.848
53520W        W14831  38.364  38.534   1.325
53521W        W14832  15.169   7.784  14.805
53522W        W14833   4.339  16.636   1.445
53523W        W14834  20.175   2.767  11.540
53524W        W14835  29.508  12.773  13.882
53525W        W14836  36.985   4.883   4.232
53526W        W14837  16.223  44.438   4.675
53527W        W14838  21.117  13.734   3.634
53528W        W14839  40.429  27.463   3.845
53529W        W14840  11.320  38.569   2.891
53530W        W14841  11.314  32.906   0.895
53531W        W14842  38.973  15.633  10.888
53532W        W14843  25.518  38.938  10.505
53533W        W14844   9.653  28.511  13.971
53534W        W14845  43.974  33.591  12.956
53535W        W14846  44.299  42.032   0.750
53536W        W14847  12.342  34.480  13.456
53537W        W14848  22.057  15.315  10.913
53538W        W14849  13.610   7.244   3.663
53539W        W14850  29.049  26.667   3.868
53540W        W14851  26.488  30.936  11.604
53541W        W14852  22.584   1.338  13.326
53542W        W14853   2.735   3.907  10.619
53543W        W14854  10.318  26.158   1.712
53544W        W14855  22.190  19.063  11.382
53545W        W14856  19.142  10.298  11.401
53546W        W14857  31.975   9.366   2.664
53547W        W14858   1.342   2.300  10.433
53548W        W14859  36.352  26.135   3.199
53549W        W14860  15.588   7.692  14.301
53550W        W14861  44.820   0.852   0.835
53551W        W14862  15.180   3.811   0.869
53552W        W14863   2.898  25.152   2.891
53553W        W14864  22.030  18.089   9.455
53554W        W14865  42.005  26.044  11.603
53555W        W14866  21.134  42.448   1.264
53556W        W14867   1.825  12.743  14.027
53557W        W14868  42.371  21.191  12.869
53558W        W14869  26.679  34.032   1.894
53559W        W14870  23.106  30.931   2.754
53560W        W14871  21.713  39.003   1.315
53561W        W14872   0.832   1.442   1.210
53562W        W14873   7.845  24.661   2.872
53563W        W14874  20.048  24.556   0.932
53564W        W14875  20.082  34.008   0.479
53565W        W14876  32.599  33.122  11.494
53566W        W14877  38.971  15.264  11.558
53567W        W14878  17.297  11.818  12.000
53568W        W14879  26.591   7.381  11.932
53569W        W14880  22.703   4.336  12.467
53570W        W14881  42.321   9.724  12.045
53571W        W14882  41.319  34.069  12.556
53572W        W14883  41.519  12.119   3.771
53573W        W14884  23.624  29.106   1.210
53574W        W14885  30.655  39.006  11.091
53575W        W14886  23.041  40.033   1.803
53576W        W14887  25.004  13.306  11.907
53577W        W14888  17.672  15.271  14.844
53578W        W14889   5.336  33.045  14.984
53579W        W14890  38.533   9.171  10.621
53580W        W14891  25.539  23.622   5.178
53581W        W14892  17.730  20.119  13.056
53582W        W14893  43.013  20.067  10.589
53583W        W14894  21.646  16.598  12.970
53584W        W14895  36.858  39.055  13.543
53585W        W14896  25.130  42.951   2.204
53586W        W14897   0.819  39.940  11.392
53587W        W14898  24.628  21.163  11.404
53588W        W14899  26.471  18.224   2.364
53589W        W14900  12.310  14.110   2.853
53590W        W14901  44.794  38.901   0.249
53591W        W14902  14.202  40.499  11.890
53592W        W14903   1.834  17.696  12.036
53593W        W14904  29.457  36.468  13.453
53594W        W14905  16.304  27.978  13.046
53595W        W14906  39.899   1.762  13.012
53596W        W14907  12.149  10.161   2.729
53597W        W14908  44.832  37.991  13.884
53598W        W14909  32.930  10.782   0.420
53599W        W14910  34.972  43.936  11.523
53600W        W14911  38.489  17.797   3.223
53601W        W14912  20.219   6.205  13.814
53602W        W14913  40.538  24.125  12.504
53603W        W14914   6.312  14.132  13.972
53604W        W14915  36.047  36.062   2.854
53605W        W14916  16.216  27.095  12.565
53606W        W14917   5.703   3.751   3.695
53607W        W14918  36.861  33.931  13.015
53608W        W14919   1.963   8.270  11.463
53609W        W14920  37.408  23.694   1.408
53610W        W14921   3.771  36.997   0.852
53611W        W14922  23.600  14.306  14.466
53612W        W14923  31.485  19.040   1.766
53613W        W14924  24.720   4.739  13.832
53614W        W14925  27.468  24.030   3.776
53615W        W14926  44.266  20.582   1.362
53616W        W14927   0.388  10.876   3.767
53617W        W14928   3.373  28.062  12.339
53618W        W14929   9.168  31.944   0.875
53619W        W14930  12.312  25.489   9.497
53620W        W14931  40.020  17.725  12.949
53621W        W14932  21.605  11.234  11.396
53622W        W14933  20.737  43.397   2.309
53623W        W14934  21.611  43.394   4.275
53624W        W14935   8.807  23.686  15.000
53625W        W14936  18.102  19.741   4.697
53626W        W14937   9.756   4.854   2.760
53627W        W14938  40.844  29.106   0.914
53628W        W14939  25.665   7.765  11.450
53629W        W14940   3.752  37.869  12.404
53630W        W14941  19.690  17.724  14.469
53631W        W14942  32.436  18.241   3.766
53632W        W14943  33.045   8.177   1.913
53633W        W14944   0.760  32.530   2.845
53634W        W14945   2.953  37.068   4.138
53635W        W14946  40.421  39.898  10.051
53636W        W14947  28.556   0.826  10.968
53637W        W14948  37.483  12.315  11.091
53638W        W14949  27.481  33.512   4.210
53639W        W14950  20.567  24.220  10.567
53640W        W14951   2.944  21.665   0.407
53641W        W14952  36.926  15.694   2.341
53642W        W14953  14.780   6.216   3.378
53643W        W14954  21.741  24.131  14.031
53644W        W14955   2.806  21.125  13.452
53645W        W14956  39.905  35.052   3.734
53646W        W14957  12.346  35.033   4.764
53647W        W14958  42.439  27.178   3.294
53648W        W14959  23.707  26.140  13.848
53649W        W14960  38.366  12.803  12.396
53650W        W14961  31.110  26.561   2.410
53651W        W14962   4.909  40.858  11.476
53652W        W14963   7.286   7.336  14.400
53653W        W14964  22.642  30.018  13.048
53654W        W14965  31.558  14.320   1.255
53655W        W14966   2.720  27.490  13.062
53656W        W14967  35.519  42.785   4.607
53657W        W14968  11.287   7.202   4.183
53658W        W14969  19.645  43.020   4.694
53659W        W14970  25.566  36.563   2.808
53660W        W14971  20.117  29.650  11.373
53661W        W14972   2.277  37.534  13.319
53662W        W14973  30.024  41.888  14.965
53663W        W14974  26.018   1.306   1.220
53664W        W14975  36.372  26.046  13.380
53665W        W14976  24.649  11.246  14.287
53666W        W14977  41.000  22.681   2.210
53667W        W14978  41.920  42.367  14.004
53668W        W14979  38.012  20.141   2.285
53669W        W14980   4.712   3.241   3.210
53670W        W14981  42.927  15.161   2.846
53671W        W14982  18.608  22.121   0.965
53672W        W14983  19.705  10.835  10.899
53673W        W14984  28.510  31.555  14.459
53674W        W14985  16.719  11.155   1.425
53675W        W14986  30.451   7.342  12.831
53676W        W14987   5.920  13.672  12.535
53677W        W14988  19.685   2.336   1.906
53678W        W14989  36.844  42.501  12.094
53679W        W14990  42.411   6.884   4.139
53680W        W14991   5.706  36.509   2.381
53681W        W14992   2.731  32.443  14.348
53682W        W14993  44.439  33.069  13.910
53683W        W14994  33.594  18.658  12.346
53684W        W14995  39.554  35.430   1.416
53685W        W14996   6.684  15.768  11.086
53686W        W14997  36.451  11.139  10.023
53687W        W14998  29.002  14.612  13.051
53688W        W14999  36.843  32.091   2.857
53689W        W15000  41.851   8.683   2.826
53690W        W15001   1.966  29.037  13.446
53691W        W15002  11.844  21.159   4.817
53692W        W15003  21.112  11.729  13.950
53693W        W15004  18.067   1.388  12.927
53694W        W15005  16.087  40.489   0.251
53695W        W15006  18.758  13.203  12.476
53696W        W15007  29.967  35.083  12.451
53697W        W15008   4.884   9.153   4.674
53698W        W15009  38.482  19.548   4.609
53699W        W15010   7.311  42.460   1.745
53700W        W15011  26.642   3.338   1.742
53701W        W15012  25.052   1.295   3.637
53702W        W15013  17.701  16.570  13.800
53703W        W15014  23.181  42.984  14.849
53704W        W15015  15.313   8.306  10.561
53705W        W15016  14.302   8.386   1.394
53706W        W15017  38.892  10.668   3.263
53707W        W15018   9.866  10.269   1.408
53708W        W15019   4.294  19.636  14.887
53709W        W15020  37.001  39.026  13.964
53710W        W15021  28.486   6.903   1.321
53711W        W15022  19.194  35.933  11.967
53712W        W15023  35.413  24.483   1.431
53713W        W15024  41.807   7.201  12.573
53714W        W15025   5.786  40.424   0.345
53715W        W15026  40.349  43.886   1.403
53716W        W15027   0.385  35.603   2.723
53717W        W15028  37.850  41.043   4.301
53718W        W15029  43.456  28.116  12.031
53719W        W15030   0.842  38.989  11.939
53720W        W15031  13.750  10.811  11.436
53721W        W15032  29.160  37.934   3.272
53722W        W15033   6.362  12.692   0.270
53723W        W15034   6.358  23.238  14.941
53724W        W15035   5.926   6.398  13.843
53725W        W15036  26.523  43.907  14.919
53726W        W15037   9.650  41.422   0.768
53727W        W15038  13.252  29.456  14.380
53728W        W15039  16.624  39.401   1.794
53729W        W15040  20.237   5.720  12.378
53730W        W15041   1.295   4.906   3.707
53731W        W15042   2.281  12.188  14.021
53732W        W15043   4.396   7.868   2.231
53733W        W15044  11.689   7.855  11.407
53734W        W15045   3.793  16.308  11.557
53735W        W15046  29.148   4.871  13.061
53736W        W15047  40.857  20.128   1.321
53737W        W15048  15.214  34.044  12.880
53738W        W15049   8.837   8.192   2.783
53739W        W15050  11.267  40.901  10.521
53740W        W15051   9.196   0.956   1.773
53741W        W15052  29.563  20.262  12.863
53742W        W15053  33.954   7.232  12.560
53743W        W15054  39.933  12.816   0.734
53744W        W15055  35.554   3.886   4.808
53745W        W15056  13.235  27.988   3.824
53746W        W15057   4.352  17.602   2.416
53747W        W15058  39.952  37.499  11.096
53748W        W15059  32.450  31.454   1.806
53749W        W15060  15.680  31.463  13.487
53750W        W15061   6.798  32.557   4.250
53751W        W15062  38.359  11.752  13.053
53752W        W15063  35.858  31.445   2.310
53753W        W15064   6.239  26.635   2.826
53754W        W15065  28.017  29.017  12.488
53755W        W15066  33.085  23.568  11.013
53756W        W15067   8.383  36.513  12.982
53757W        W15068  18.608  42.332  14.400
53758W        W15069  12.291  27.115   4.280
53759W        W15070  25.623   3.386  14.327
53760W        W15071  42.813  30.640  13.907
53761W        W15072  39.875  43.447   1.770
53762W        W15073  28.625  44.376   0.411
53763W        W15074  44.363  34.991   2.853
53764W        W15075   5.211   4.292   2.285
53765W        W15076  40.503  10.367  12.570
53766W        W15077   6.244  12.628  12.467
53767W        W15078  24.023   5.208  12.424
53768W        W15079  34.409  13.743  12.057
53769W        W15080  44.854  17.782   1.329
53770W        W15081  22.610  15.114  10.418
53771W        W15082  12.741   8.771  13.799
53772W        W15083  37.840  28.977  10.451
53773W        W15084  37.552  34.907  10.592
53774W        W15085  22.151   1.761   3.258
53775W        W15086  20.523  39.993  13.441
53776W        W15087  30.631   1.342   4.675
53777W        W15088  24.491  31.967   0.805
53778W        W15089  22.197  16.314   2.749
53779W        W15090  24.185  40.349   3.326
53780W        W15091  27.172   9.238   1.217
53781W        W15092  24.710   4.896   1.408
53782W        W15093  43.382  22.631  14.362
53783W        W15094   2.885  29.171   1.232
53784W        W15095  41.408  12.335  14.815
53785W        W15096  14.180  40.930   4.156
53786W        W15097  17.564  19.143  14.410
53787W        W15098  32.027  40.460   0.843
53788W        W15099  34.525  18.198   2.666
53789W        W15100   2.763  39.330  10.543
53790W        W15101  30.641  27.115   3.352
53791W        W15102  21.117  26.584  10.410
53792W        W15103  23.524  24.042  12.500
53793W        W15104   1.754   8.680  13.513
53794W        W15105  40.399  25.681  11.120
53795W        W15106   8.240  12.269   1.880
53796W        W15107  22.627  41.043   1.285
53797W        W15108  17.759  27.032   0.776
53798W        W15109  30.004  44.814   1.905
53799W        W15110  38.020  15.274   1.924
53800W        W15111  32.887   7.702  11.488
53801W        W15112   1.927   7.886  11.459
53802W        W15113  20.594  31.573  11.070
53803W        W15114  30.933   7.248   0.949
53804W        W15115  30.962  41.788   3.863
53805W        W15116  17.650  24.612   2.273
53806W        W15117   4.812  31.951  12.856
53807W        W15118  41.923   1.334  14.802
53808W        W15119  40.967   5.333   4.304
53809W        W15120  18.282  24.034  11.892
53810W        W15121  28.942  33.995   2.225
53811W        W15122  33.954  34.473  13.358
53812W        W15123  25.992  34.518   4.269
53813W        W15124  32.552  24.050   3.244
53814W        W15125   4.423   5.719   2.833
53815W        W15126   1.862  42.008   3.842
53816W        W15127   6.226  32.128  10.432
53817W        W15128  22.062  35.472   2.771
53818W        W15129   8.258  20.547  14.812
53819W        W15130  23.619  32.928   0.846
53820W        W15131  26.976  17.145  13.443
53821W        W15132  25.969  19.254  13.807
53822W        W15133  44.377  24.057   2.899
53823W        W15134  16.190   7.276  13.491
53824W        W15135  17.603  29.008   4.123
53825W        W15136  39.831  44.444   3.175
53826W        W15137  35.396  43.961   1.363
53827W        W15138  15.211  18.172   0.903
53828W        W15139  37.032  38.337   3.812
53829W        W15140  25.965  11.331  14.469
53830W        W15141  23.016  35.472  13.930
53831W        W15142   0.864  24.225   0.837
53832W        W15143  14.166  20.542   0.366
53833W        W15144  34.554  12.331  13.327
53834W        W15145  26.083  30.473   9.920
53835W        W15146   9.374   7.237  12.568
53836W        W15147  37.530  34.369  13.832
53837W        W15148  26.053  15.648  12.034
53838W        W15149  36.539  30.930  14.366
53839W        W15150  19.061  36.583   3.644
53840W        W15151  37.521   2.275  12.854
53841W        W15152  23.000  40.430   3.342
53842W        W15153   1.471  26.468   0.305
53843W        W15154  24.510  18.117   0.948
53844W        W15155  22.181  32.945   3.738
53845W        W15156  28.525   5.300   4.711
53846W        W15157  40.521   6.183   1.278
53847W        W15158  23.208  28.496   0.307
53848W        W15159  10.718  23.051  10.624
53849W        W15160  36.476   4.755  13.496
53850W        W15161  21.719   7.686  10.603
53851W        W15162  39.985  23.604   3.357
53852W        W15163  38.471  13.615  14.290
53853W        W15164  10.704  15.319  14.881
53854W        W15165  31.489  42.830  11.871
53855W        W15166  31.926  22.195  14.398
53856W        W15167  17.798  21.584  12.033
53857W        W15168   0.932  15.740  12.423
53858W        W15169  40.027  24.071   0.313
53859W        W15170   8.203  24.529  10.450
53860W        W15171  16.745  19.638   2.348
53861W        W15172  15.776  17.764  14.494
53862W        W15173  17.133  44.004   4.618
53863W        W15174   4.817   5.198  14.321
53864W        W15175  28.561  36.048   1.774
53865W        W15176   5.372  17.268   5.207
53866W        W15177  44.444  31.117   0.740
53867W        W15178   7.372  42.513  12.527
53868W        W15179   1.447  25.509   4.734
53869W        W15180  26.175  18.274   9.949
53870W        W15181  18.229  33.538   3.301
53871W        W15182  37.417  15.609   1.398
53872W        W15183   5.895   8.736   0.291
53873W        W15184  44.916  29.926  14.025
53874W        W15185  21.157  42.345   0.740
53875W        W15186  28.632  31.997  14.888
53876W        W15187  38.870   8.849  10.470
53877W        W15188   8.223  11.693  13.455
53878W        W15189  12.755  29.075  13.495
53879W        W15190  24.103  19.081   3.651
53880W        W15191  31.111   2.853   2.795
53881W        W15192  33.043  15.723   2.335
53882W        W15193  28.648   1.954   1.907
53883W        W15194   4.769  36.042  12.552
53884W        W15195  41.038  12.662   3.336
53885W        W15196  32.492   5.787  12.480
53886W        W15197  16.627  11.274   3.185
53887W        W15198  17.217   8.403  11.543
53888W        W15199  13.631  18.604  11.504
53889W        W15200  32.116  23.499  10.036
53890W        W15201  19.591  31.416  11.509
53891W        W15202   5.824  43.396  10.950
53892W        W15203  13.122  25.027   2.704
53893W        W15204  37.026  42.955   0.297
53894W        W15205  43.871   9.382  12.556
53895W        W15206   7.716  26.992  11.530
53896W        W15207  25.693  23.597  14.840
53897W        W15208  27.106  21.116   1.780
53898W        W15209  31.136   3.932  11.439
53899W        W15210  23.651  35.476  12.038
53900W        W15211  28.126  35.948  11.122
53901W        W15212  32.962  32.448  10.515
53902W        W15213   8.279   3.767  11.540
53903W        W15214   6.356  15.665   1.272
53904W        W15215   5.294   5.385   4.637
53905W        W15216  33.024  25.504  10.630
53906W        W15217  35.095  19.644   0.398
53907W        W15218  16.569  15.645   2.302
53908W        W15219   7.712  41.473   1.694
53909W        W15220  11.764   0.859   4.645
53910W        W15221  19.571  24.053   4.322
53911W        W15222  26.511  36.395  10.532
53912W        W15223  30.509   2.329  11.416
53913W        W15224  32.978  43.297   3.821
53914W        W15225   8.841  37.063  13.350
53915W        W15226  13.156  27.171  12.537
53916W        W15227   1.955  23.611  14.931
53917W        W15228   2.887  28.024   1.311
53918W        W15229  12.825   8.226   2.354
53919W        W15230  19.556  14.335   3.232
53920W        W15231   0.865  10.207  14.908
53921W        W15232  36.992  33.915  14.360
53922W        W15233   4.286   9.334  12.495
53923W        W15234  18.224   6.862   3.816
53924W        W15235  28.481   0.491  12.436
53925W        W15236  12.834  20.650  10.570
53926W        W15237  16.745  27.631  12.920
53927W        W15238   4.347  10.656  10.445
53928W        W15239  20.087  10.285  12.014
53929W        W15240  43.291   9.785  14.911
53930W        W15241  42.346  28.055  11.005
53931W        W15242  34.522  28.051  13.343
53932W        W15243   7.728  36.086  10.001
53933W        W15244  38.992  21.642  14.397
53934W        W15245   7.311  11.206  12.896
53935W        W15246  20.045  26.965   2.247
53936W        W15247  32.045  36.085   1.720
53937W        W15248  42.409  24.981  13.364
53938W        W15249  25.587  41.846   4.127
53939W        W15250  38.967  41.985  10.907
53940W        W15251   0.310  27.549   3.649
53941W        W15252  21.552  13.747  12.913
53942W        W15253  32.000  41.353  12.526
53943W        W15254  22.743   5.798   4.144
53944W        W15255  13.751   8.879   2.841
53945W        W15256  39.829  26.642  11.990
53946W        W15257   0.975   5.273   3.669
53947W        W15258   5.219  12.333  13.504
53948W        W15259  33.611  34.046   2.262
53949W        W15260  35.922  42.988  13.883
53950W        W15261  10.182  35.060   2.683
53951W        W15262   2.757  10.153  10.481
53952W        W15263  14.269  22.070   9.983
53953W        W15264   4.881   4.912  11.452
53954W        W15265  34.498  11.633  13.946
53955W        W15266   4.234  31.554  12.948
53956W        W15267  40.412   1.811   2.318
53957W        W15268  17.193  22.545   2.738
53958W        W15269  29.442  37.955   1.748
53959W        W15270  34.107  41.858   2.189
53960W        W15271  17.070   4.931   3.677
53961W        W15272  22.601  32.972   0.304
53962W        W15273   1.323  17.275  10.485
53963W        W15274   7.287  24.496  13.992
53964W        W15275  31.439  36.446   1.806
53965W        W15276   5.208  29.170   4.635
53966W        W15277  19.642  23.069   1.897
53967W        W15278  42.915  35.360  14.932
53968W        W15279   3.363  32.395  10.951
53969W        W15280  42.907  27.179   2.871
53970W        W15281  35.895  14.163   4.635
53971W        W15282  13.163  12.753   4.277
53972W        W15283  10.723  14.181  14.382
53973W        W15284   8.223   4.409   2.816
53974W        W15285   3.323  38.854  10.533
53975W        W15286   7.765  17.261   1.335
53976W        W15287   3.940  16.195   9.648
53977W        W15288  11.339   0.919  12.446
53978W        W15289  37.003   4.405  10.536
53979W        W15290  40.523  26.209  13.988
53980W        W15291  39.549  15.233   4.781
53981W        W15292  27.033   4.382  10.603
53982W        W15293  40.506  12.797  12.914
53983W        W15294  18.120  10.309  14.805
53984W        W15295  24.138   3.414   4.198
53985W        W15296  23.728  17.303  14.932
53986W        W15297  43.893  13.810  12.537
53987W        W15298   4.362  18.705  12.844
53988W        W15299   9.167  35.014  12.012
53989W        W15300   6.774  44.468   3.798
53990W        W15301  40.892  22.578   4.834
53991W        W15302  44.319  44.476   0.461
53992W        W15303  19.607  36.946  11.857
53993W        W15304  42.489  13.262   3.862
53994W        W15305  22.712  32.619   3.199
53995W        W15306  39.387  38.388   3.352
53996W        W15307  39.526  20.084  11.986
53997W        W15308  31.513  37.840   2.736
53998W        W15309  33.500  19.203  11.077
53999W        W15310  17.782  41.889   1.389
54000W        W15311  38.413  36.454   4.761
54001W        W15312  42.360  18.720   4.326
54002W        W15313  27.462  36.469  12.423
54003W        W15314  19.175  17.207  12.910
54004W        W15315  36.096   9.297  10.475
54005W        W15316  17.730  40.508   2.737
54006W        W15317  19.079  29.523  14.792
54007W        W15318  10.274   1.350  11.955
54008W        W15319  42.383  29.639   0.807
54009W        W15320  16.714  37.874  13.451
54010W        W15321  17.238  12.285   5.160
54011W        W15322  23.696   9.354  12.548
54012W        W15323   8.806  19.242  11.942
54013W        W15324  34.393  31.140  13.390
54014W        W15325  15.595  33.125  14.293
54015W        W15326  30.617  44.268  12.925
54016W        W15327  20.729  15.177   4.300
54017W        W15328  19.776   0.385  14.490
54018W        W15329   5.689  41.407  14.306
54019W        W15330  31.046   2.346   1.870
54020W        W15331  18.251  37.912  12.994
54021W        W15332  34.486   6.259   1.215
54022W        W15333   2.743  43.487   3.384
54023W        W15334  16.655  10.802  14.471
54024W        W15335  11.248  23.225  12.541
54025W        W15336  20.203  41.308   0.853
54026W        W15337  41.326  43.788   0.878
54027W        W15338  10.663  29.062   3.837
54028W        W15339  35.564   3.300  11.962
54029W        W15340  26.664   0.744   1.329
54030W        W15341   7.378  41.973   4.736
54031W        W15342  17.232  34.409  11.476
54032W        W15343  41.999  10.233  10.947
54033W        W15344  32.557  18.661   2.409
54034W        W15345  14.750   2.340  12.397
54035W        W15346   0.417  33.389  12.886
54036W        W15347  22.688  39.812  11.899
54037W        W15348  26.570  31.568   2.824
54038W        W15349  37.470  44.992   0.392
54039W        W15350  21.206  15.208   2.352
54040W        W15351  39.004  16.179  14.773
54041W        W15352   9.352   7.261  11.472
54042W        W15353   7.240   0.831   4.324
54043W        W15354  37.444  32.138  13.342
54044W        W15355   3.916  25.515   1.794
54045W        W15356  32.525  12.754  14.911
54046W        W15357  36.567  43.792   4.186
54047W        W15358  23.139  33.435   4.757
54048W        W15359  22.080   5.273   4.787
54049W        W15360  21.679  20.100   3.153
54050W        W15361  18.687  30.119   3.652
54051W        W15362  24.566   4.224   4.208
54052W        W15363  16.790  29.501   1.234
54053W        W15364   7.833  36.052  10.456
54054W        W15365   3.836  17.270   4.315
54055W        W15366  30.053  32.571   3.202
54056W        W15367  25.025  33.527  10.440
54057W        W15368  19.181  39.831   1.795
54058W        W15369  23.106  23.001   2.894
54059W        W15370  22.561  34.449   4.267
54060W        W15371  19.112   9.805   0.256
54061W        W15372  31.062  21.679  12.878
54062W        W15373  20.145  28.440   0.438
54063W        W15374  24.210  27.030  10.493
54064W        W15375   5.689  22.738   2.896
54065W        W15376  40.455   8.378  12.051
54066W        W15377  44.321   0.770   1.400
54067W        W15378  41.847  25.100  13.520
54068W        W15379   5.431  17.142  14.276
54069W        W15380  17.092  35.359  10.536
54070W        W15381   2.289  14.227  13.033
54071W        W15382  35.381   5.785  13.930
54072W        W15383  26.961  19.759  11.085
54073W        W15384  33.401  21.670   3.167
54074W        W15385  30.536  16.741   2.824
54075W        W15386  35.065  32.936  11.025
54076W        W15387   0.317   7.405   3.812
54077W        W15388  27.996   5.347  13.827
54078W        W15389  44.423  42.904  13.412
54079W        W15390   1.743  34.106   3.683
54080W        W15391   8.312  37.424  14.277
54081W        W15392  27.123  24.149   3.870
54082W        W15393  25.087   6.710   2.733
54083W        W15394  40.336  35.437  13.461
54084W        W15395  36.870  22.096  13.308
54085W        W15396  40.308  18.052  10.046
54086W        W15397  44.303  14.760   0.335
54087W        W15398  37.449  42.896  10.004
54088W        W15399  26.952   3.917   0.274
54089W        W15400  28.660  29.970  11.475
54090W        W15401  37.991  28.510   4.246
54091W        W15402  13.120   8.809   1.847
54092W        W15403  41.399  32.491  13.390
54093W        W15404  39.458  19.084   3.243
54094W        W15405  44.489  32.403   3.239
54095W        W15406  26.167   1.741   0.889
54096W        W15407  40.470  37.038   0.943
54097W        W15408  34.996  20.681   0.462
54098W        W15409  17.141  31.582  13.818
54099W        W15410  41.527  31.414  13.925
54100W        W15411  40.889  43.875  14.497
54101W        W15412  14.659  25.986  13.864
54102W        W15413   0.285  18.227   0.253
54103W        W15414  15.126   5.768  11.587
54104W        W15415  29.650  12.632  14.967
54105W        W15416  11.718  30.958   4.759
54106W        W15417  31.590  11.318   1.859
54107W        W15418  18.574  11.828  13.026
54108W        W15419  33.527  33.014  11.901
54109W        W15420   9.778  37.887   2.829
54110W        W15421  40.478  19.270  14.281
54111W        W15422  35.042  11.745   0.251
54112W        W15423  25.054  15.638  12.026
54113W        W15424  42.948  31.133   4.286
54114W        W15425  23.068  37.413  11.577
54115W        W15426  30.121  42.415  14.851
54116W        W15427  32.952  41.027   3.658
54117W        W15428  35.456  15.646  11.922
54118W        W15429  11.261  13.771   0.413
54119W        W15430  37.418   8.278   3.729
54120W        W15431  42.354  19.104  12.894
54121W        W15432  23.218  27.194  14.310
54122W        W15433  11.681  11.221   2.707
54123W        W15434  16.700  36.870  11.605
54124W        W15435   9.393  31.988  13.358
54125W        W15436  22.740  34.974   5.094
54126W        W15437  38.371   0.864   3.686
54127W        W15438   9.664   0.815   3.636
54128W        W15439   3.821  43.979   4.215
54129W        W15440  32.006   0.328  10.421
54130W        W15441  41.507  28.956  10.600
54131W        W15442   6.417  34.928  10.564
54132W        W15443  24.714  34.012  10.017
54133W        W15444   1.396   2.272   4.234
54134W        W15445  39.328  44.364  14.389
54135W        W15446  20.195  36.008   1.397
54136W        W15447  20.188  12.162   4.771
54137W        W15448  40.425   6.687   3.186
54138W        W15449  42.890  22.600  11.556
54139W        W15450  13.801  35.428  12.883
54140W        W15451  12.204  31.968   1.258
54141W        W15452  31.445  17.264   1.706
54142W        W15453  43.355   1.882   2.307
54143W        W15454   5.692  27.161  10.487
54144W        W15455  38.535  26.649   2.396
54145W        W15456   9.264  42.017  14.499
54146W        W15457  25.552  16.607  11.883
54147W        W15458   0.417   3.402  12.863
54148W        W15459   0.449  36.954  10.581
54149W        W15460  42.958  28.108   3.657
54150W        W15461  24.981  39.470   4.741
54151W        W15462   8.689  19.174   3.317
54152W        W15463  29.073  30.523   1.840
54153W        W15464  21.673   9.800   1.785
54154W        W15465   8.259   3.761  14.449
54155W        W15466   9.840  28.596  10.406
54156W        W15467  40.939  36.510  11.898
54157W        W15468  41.864  14.770  14.938
54158W        W15469  23.140   0.987  11.117
54159W        W15470  33.599   2.433   4.255
54160W        W15471  44.279   9.392   1.832
54161W        W15472  42.366   3.712   2.891
54162W        W15473  18.602  27.539  13.450
54163W        W15474  30.956  17.268  12.397
54164W        W15475  19.043  23.212   0.342
54165W        W15476  23.640  44.504  13.937
54166W        W15477  23.007   3.898   0.418
54167W        W15478  11.295  35.004  14.804
54168W        W15479  35.480   2.456   3.279
54169W        W15480  40.819  34.426   3.776
54170W        W15481   2.415  16.768  13.037
54171W        W15482   0.975  20.237   2.278
54172W        W15483  25.686  39.896  14.460
54173W        W15484  10.254  32.623   4.160
54174W        W15485  13.825  32.947  12.944
54175W        W15486  31.497  33.997  10.995
54176W        W15487  23.688  25.206   4.773
54177W        W15488   1.756  26.478  12.372
54178W        W15489  44.838   5.810  13.920
54179W        W15490  35.905  43.964  13.977
54180W        W15491  19.696   8.355   3.280
54181W        W15492  41.874  29.648   4.656
54182W        W15493  36.914  37.411  14.780
54183W        W15494  25.471  12.732  11.000
54184W        W15495  21.573   6.719  14.352
54185W        W15496  44.799  18.207   1.277
54186W        W15497  23.164   5.244  10.933
54187W        W15498  12.705  14.772  11.857
54188W        W15499  25.614  36.511  14.931
54189W        W15500  17.157  27.487  10.578
54190W        W15501  34.977  29.998   4.817
54191W        W15502  15.263  21.687   0.898
54192W        W15503   1.858  26.596   3.787
54193W        W15504  20.073  12.759  12.555
54194W        W15505   1.974  14.590   0.366
54195W        W15506  20.585   2.430   2.391
54196W        W15507  35.546   5.395  14.365
54197W        W15508  31.995  40.403  14.927
54198W        W15509  31.488  23.498   1.875
54199W        W15510   4.272   0.417   0.766
54200W        W15511  35.375  12.634   0.788
54201W        W15512  24.671  14.131   1.233
54202W        W15513  39.454  12.618  14.917
54203W        W15514   7.865  21.035  11.571
54204W        W15515  10.202  14.702   0.845
54205W        W15516   6.799  18.605   1.365
54206W        W15517  27.573   2.822  13.898
54207W        W15518  21.172  39.832   0.344
54208W        W15519   5.278  11.303  10.899
54209W        W15520  14.214  36.464   3.350
54210W        W15521  25.620  23.721  10.485
54211W        W15522  24.567  31.531   1.357
54212W        W15523  39.911   4.820   3.658
54213W        W15524  14.653  25.513   4.711
54214W        W15525  43.382  39.808  12.383
54215W        W15526  36.967  19.637   3.209
54216W        W15527  20.089   4.243  14.294
54217W        W15528  31.407   8.275  14.022
54218W        W15529  31.070  44.886   1.436
54219W        W15530  15.761  31.578   3.709
54220W        W15531  29.981  12.641   4.153
54221W        W15532   3.283  29.642  14.417
54222W        W15533  42.942  32.569   2.388
54223W        W15534  11.848  43.359   0.367
54224W        W15535  22.190  28.003   2.693
54225W        W15536  18.590  30.485  10.010
54226W        W15537  25.591   7.246   4.235
54227W        W15538  43.856  40.832  12.874
54228W        W15539  34.582   5.804   3.851
54229W        W15540   5.788  35.364  11.967
54230W        W15541   0.797  10.875   1.236
54231W        W15542   5.339  10.303  12.416
54232W        W15543   0.385   1.311  12.997
54233W        W15544  23.571  15.722  13.482
54234W        W15545  13.217  27.689  13.844
54235W        W15546  39.547  33.401  11.877
54236W        W15547  29.504  21.177   1.816
54237W        W15548  33.127  38.834   3.182
54238W        W15549   2.307  28.032  12.917
54239W        W15550   7.745  18.229  12.534
54240W        W15551  36.432  10.163  14.839
54241W        W15552  27.568  34.041  13.949
54242W        W15553  41.361  13.260   4.335
54243W        W15554  32.604  30.092   0.375
54244W        W15555   8.662  20.643  12.552
54245W        W15556  43.358  32.508   4.634
54246W        W15557  40.531  44.407  11.496
54247W        W15558  21.669  27.047  10.606
54248W        W15559   8.282  13.238  11.964
54249W        W15560   7.339  13.712   0.886
54250W        W15561  36.358  27.951   1.279
54251W        W15562  23.711  22.607   1.415
54252W        W15563  42.916  22.215  12.010
54253W        W15564   9.738  43.361   3.364
54254W        W15565  41.009  43.948   2.896
54255W        W15566  44.803  10.342   3.263
54256W        W15567  30.557  24.494  13.062
54257W        W15568  21.049  30.008  13.997
54258W        W15569  20.647  32.399  10.457
54259W        W15570   9.730  11.357   2.228
54260W        W15571  27.473  37.035   0.843
54261W        W15572  22.647  10.877  12.882
54262W        W15573  20.526  12.651   4.839
54263W        W15574   9.172  44.346   3.376
54264W        W15575  37.347   4.833  12.355
54265W        W15576  14.302  21.165   1.385
54266W        W15577   2.235  39.461  11.856
54267W        W15578  33.382  27.186  11.383
54268W        W15579  23.994  30.654  14.490
54269W        W15580  36.509  24.159   3.823
54270W        W15581  38.515  40.387  11.592
54271W        W15582  24.986  39.978   4.341
54272W        W15583   6.368  19.089   2.885
54273W        W15584  33.528  28.976   0.362
54274W        W15585  38.373  32.032  10.067
54275W        W15586  19.065  20.541  14.475
54276W        W15587  31.130  25.695  11.001
54277W        W15588  41.432  43.375   1.762
54278W        W15589  37.907  42.509  10.976
54279W        W15590  28.979  37.431   1.756
54280W        W15591  29.091  15.645  14.951
54281W        W15592  42.501  30.434  11.940
54282W        W15593   8.258  40.952  14.473
54283W        W15594  25.684  40.522  13.518
54284W        W15595  25.516  41.376  12.040
54285W        W15596  29.061   4.256  13.825
54286W        W15597  23.652   4.917  13.543
54287W        W15598  26.182  33.483  13.432
54288W        W15599  42.960   3.802   0.409
54289W        W15600  15.284   4.441   4.224
54290W        W15601  19.761  12.626  12.345
54291W        W15602  35.560   1.449  10.889
54292W        W15603   7.397  18.641  10.465
54293W        W15604  39.846  44.340   4.719
54294W        W15605  32.579  35.920   4.219
54295W        W15606  33.424  14.639   1.781
54296W        W15607  43.326  34.471   3.207
54297W        W15608  13.156  14.793   3.162
54298W        W15609  18.622  13.828  13.543
54299W        W15610  13.225  37.548   2.224
54300W        W15611  31.474   1.330  12.898
54301W        W15612  11.797  27.662  12.916
54302W        W15613  25.496  37.903  13.826
54303W        W15614  37.016  30.575   2.256
54304W        W15615  14.177  26.188   1.352
54305W        W15616  34.977  30.075  10.569
54306W        W15617  40.512  44.892  10.592
54307W        W15618  26.144  31.555   1.776
54308W        W15619  27.577  10.638   3.730
54309W        W15620  27.988  22.722   1.238
54310W        W15621  38.548  44.972  14.858
54311W        W15622  22.550  16.145  10.427
54312W        W15623  12.297  23.052  12.506
54313W        W15624  30.457  13.741  11.970
54314W        W15625  34.087  41.902   3.765
54315W        W15626  34.391  11.144   1.392
54316W        W15627  34.463  44.993  12.403
54317W        W15628  20.593  41.909   0.289
54318W        W15629  11.275  18.171  14.313
54319W        W15630  10.821  31.921  14.492
54320W        W15631  20.125  18.175  11.099
54321W        W15632   9.368  27.008   2.276
54322W        W15633  25.579  33.959  11.554
54323W        W15634  30.109   9.667  12.473
54324W        W15635   6.884  40.398  12.975
54325W        W15636  44.444  12.662   4.319
54326W        W15637   9.705  39.409  14.303
54327W        W15638  44.794   8.812   0.429
54328W        W15639   0.317  28.965  10.645
54329W        W15640  12.321  34.468   4.826
54330W        W15641  35.078  38.892  12.565
54331W        W15642  41.859  38.835  12.830
54332W        W15643  31.631  28.532   4.247
54333W        W15644  40.447  16.653  10.618
54334W        W15645  35.974  19.616  12.555
54335W        W15646   7.247  30.119  11.871
54336W        W15647  27.536  15.630   0.266
54337W        W15648  30.472  40.501  14.800
54338W        W15649   6.881  40.822   0.804
54339W        W15650  19.272  30.063  11.093
54340W        W15651  32.991  22.575  10.561
54341W        W15652  21.545  33.915  12.922
54342W        W15653  43.388   5.874  14.295
54343W        W15654  14.726  35.947  13.008
54344W        W15655  21.220  17.297   4.182
54345W        W15656  15.277  27.660   4.236
54346W        W15657  41.881  22.728  12.894
54347W        W15658  38.466  26.651  14.278
54348W        W15659   2.389  34.604  11.391
54349W        W15660  16.158  37.084  14.911
54350W        W15661  40.972  23.567  13.844
54351W        W15662  14.110  17.617  14.381
54352W        W15663  29.999  13.229  11.939
54353W        W15664  35.578  21.642  14.932
54354W        W15665  44.475  10.271   5.110
54355W        W15666  11.736   1.924   0.763
54356W        W15667   7.242  12.230  13.474
54357W        W15668  13.703  44.939  14.767
54358W        W15669  42.342  33.885  13.458
54359W        W15670  30.591  26.568   4.293
54360W        W15671  44.260  32.564   1.793
54361W        W15672  38.536  11.263  10.913
54362W        W15673  24.659  11.683   0.956
54363W        W15674  32.119  26.617  12.527
54364W        W15675  17.692  22.246  14.436
54365W        W15676  41.966  37.449  10.959
54366W        W15677  28.587  36.385  13.841
54367W        W15678  24.228  11.295   0.820
54368W        W15679  34.099  23.628   2.317
54369W        W15680  23.685  40.539  11.969
54370W        W15681  42.420   9.395  10.487
54371W        W15682  34.895   9.805  10.475
54372W        W15683   1.958  37.466  12.557
54373W        W15684   2.812   5.855  14.407
54374W        W15685  27.459   6.801   2.717
54375W        W15686  14.157  40.342   0.437
54376W        W15687   9.831   1.483   0.483
54377W        W15688  37.067  31.131   0.448
54378W        W15689  41.041  25.640   4.620
54379W        W15690  37.036  37.394   4.270
54380W        W15691  33.877   1.254  11.068
54381W        W15692  34.485   0.916  14.461
54382W        W15693  16.212  44.855  11.390
54383W        W15694  24.688  34.921  14.374
54384W        W15695  18.246  18.101  12.876
54385W        W15696  11.260  32.462  14.901
54386W        W15697  13.218  39.049  14.934
54387W        W15698   6.773  14.209   9.954
54388W        W15699  35.067   4.345  13.527
54389W        W15700  31.918  39.009  11.985
54390W        W15701  19.043   6.736   1.926
54391W        W15702  28.508   4.914  12.490
54392W        W15703   5.364  42.521  12.957
54393W        W15704   7.234  21.238   4.145
54394W        W15705  41.829  38.056   3.790
54395W        W15706   8.301  41.377   4.727
54396W        W15707  42.329  11.676   1.213
54397W        W15708  40.484   9.804   4.225
54398W        W15709   8.400  26.090  11.491
54399W        W15710  21.188  17.063   9.548
54400W        W15711   1.864  11.629   2.193
54401W        W15712   2.833   2.872   1.311
54402W        W15713  35.362  39.410   3.326
54403W        W15714  29.030  11.255   0.478
54404W        W15715   0.964  14.734   1.724
54405W        W15716  10.266  25.676   3.771
54406W        W15717  35.517  23.014   0.281
54407W        W15718  30.080  31.642   4.819
54408W        W15719  22.189  16.308   1.891
54409W        W15720  44.788  18.594  13.036
54410W        W15721  30.951  33.416  12.034
54411W        W15722   8.785  17.710   0.314
54412W        W15723  26.463   5.368   4.767
54413W        W15724  29.006  15.756  13.974
54414W        W15725  22.652  43.946  12.464
54415W        W15726  17.629  35.079   4.219
54416W        W15727  37.064  32.521   5.273
54417W        W15728  42.403  26.527   2.676
54418W        W15729  14.216   0.471   0.484
54419W        W15730   9.707  26.202   0.318
54420W        W15731   4.733  26.991   2.713
54421W        W15732  14.116  36.361   1.397
54422W        W15733   2.237  43.479   3.327
54423W        W15734  19.699  32.613  11.494
54424W        W15735  16.740  26.049   3.317
54425W        W15736  34.465   9.213   3.762
54426W        W15737  20.693  25.106   4.274
54427W        W15738   2.332  43.429   4.291
54428W        W15739  24.512  12.671  13.421
54429W        W15740  36.546  38.550   0.787
54430W        W15741   8.309  25.705  10.485
54431W        W15742  17.791  22.053   0.847
54432W        W15743  16.779  23.997  13.900
54433W        W15744   2.325  24.065  14.472
54434W        W15745  25.072  13.794  13.424
54435W        W15746  34.009  30.444   9.983
54436W        W15747  44.767  29.075   0.452
54437W        W15748  41.787   6.193  13.913
54438W        W15749  32.456  15.296   4.727
54439W        W15750  15.655  37.852   1.743
54440W        W15751  29.977   8.668  14.484
54441W        W15752   5.261   7.747  12.989
54442W        W15753  31.562   2.941   3.811
54443W        W15754  20.190  21.255  10.579
54444W        W15755   2.766  35.597  12.417
54445W        W15756  26.110  24.118  13.409
54446W        W15757   4.237   7.887   1.393
54447W        W15758  31.603  20.108  10.524
54448W        W15759   4.867  31.587  10.474
54449W        W15760  19.280  13.682   2.290
54450W        W15761  24.689  43.776  12.473
54451W        W15762  17.126  19.146   2.679
54452W        W15763  32.540  25.572   2.283
54453W        W15764  30.099  24.605   3.746
54454W        W15765  17.782  21.588   3.235
54455W        W15766  10.815  28.000  10.008
54456W        W15767  41.535  37.917  11.120
54457W        W15768  16.670  41.447   0.334
54458W        W15769  24.978   3.764   1.414
54459W        W15770  17.252  16.772  13.381
54460W        W15771  21.576  24.495   2.282
54461W        W15772   5.414  33.074   3.258
54462W        W15773  15.675  24.071  11.963
54463W        W15774  19.698  37.833   1.301
54464W        W15775  22.024  42.378   1.243
54465W        W15776  29.111   6.879   2.212
54466W        W15777  41.819  25.669   0.943
54467W        W15778   2.738  14.282  12.471
54468W        W15779  12.695  18.070  13.845
54469W        W15780   0.299  39.320   4.609
54470W        W15781   3.767  12.722   9.975
54471W        W15782  13.305  37.429  13.379
54472W        W15783  24.696  38.022   4.224
54473W        W15784  41.850  18.265   2.220
54474W        W15785  29.623  32.512   0.883
54475W        W15786   5.720   0.304  13.373
54476W        W15787   9.779  33.126  14.294
54477W        W15788   3.408  42.432   4.221
54478W        W15789   8.834   6.770  13.360
54479W        W15790   2.890  24.643  10.508
54480W        W15791   4.817  21.222   0.789
54481W        W15792   4.255  26.673  13.055
54482W        W15793  12.168  16.257  13.026
54483W        W15794  34.091  17.762   4.289
54484W        W15795   7.752  43.484  13.470
54485W        W15796   5.328  15.605  10.974
54486W        W15797  22.225  41.412  10.407
54487W        W15798   5.317  33.968   4.651
54488W        W15799  23.206  40.511  11.397
54489W        W15800  42.807  19.225  14.285
54490W        W15801   1.898  25.469  13.517
54491W        W15802  39.051  25.655   2.402
54492W        W15803  16.093  37.979  13.979
54493W        W15804  27.617  30.960  11.031
54494W        W15805  33.404  10.675  14.979
54495W        W15806  36.996  37.916   3.812
54496W        W15807  20.081  28.543  13.796
54497W        W15808   2.862  35.889   3.818
54498W        W15809  28.051  42.306   1.839
54499W        W15810  35.519  33.610   1.230
54500W        W15811  30.952  23.152  14.904
54501W        W15812  21.749  40.520  14.375
54502W        W15813  31.960  41.519  14.975
54503W        W15814  25.181  18.244  13.008
54504W        W15815  37.379  18.262  13.472
54505W        W15816  15.616  12.286   3.269
54506W        W15817  32.428   7.716  12.860
54507W        W15818  17.273   8.692   1.340
54508W        W15819  33.596  12.642   0.452
54509W        W15820  15.608  24.672   0.423
54510W        W15821  17.142  34.885  11.925
54511W        W15822   8.368  35.576   2.888
54512W        W15823  20.688  34.882  11.867
54513W        W15824  39.983  27.040  14.459
54514W        W15825  22.527  10.855  10.408
54515W        W15826  31.566  11.292  11.387
54516W        W15827   1.397  40.869  11.418
54517W        W15828   0.491  41.418   2.222
54518W        W15829  16.262  23.552  12.952
54519W        W15830  39.816  27.058   2.835
54520W        W15831  37.880  20.244  13.379
54521W        W15832  32.587  21.702  11.917
54522W        W15833  21.757  34.111   3.335
54523W        W15834  10.206  42.493  10.505
54524W        W15835   6.808  33.948   1.860
54525W        W15836   9.260   1.754   4.321
54526W        W15837  31.896  18.563  13.480
54527W        W15838  27.040  42.887  11.055
54528W        W15839  22.523   6.275   0.393
54529W        W15840  31.554  14.314   3.844
54530W        W15841   7.871   6.797  14.883
54531W        W15842  38.568   9.354   4.213
54532W        W15843  35.903  16.158  12.984
54533W        W15844  17.300  30.001   4.190
54534W        W15845   9.674   0.971  12.468
54535W        W15846  42.407  33.026  10.641
54536W        W15847  25.065  36.515  10.634
54537W        W15848  42.812  26.535   4.141
54538W        W15849  24.220  26.702  14.773
54539W        W15850  20.571   6.424   3.272
54540W        W15851  18.135  31.415   1.867
54541W        W15852  35.947  13.142  11.586
54542W        W15853  31.617  26.186   2.740
54543W        W15854  27.997  12.772   4.228
54544W        W15855  28.009  28.104  10.943
54545W        W15856  30.525  28.448   2.258
54546W        W15857  40.860  36.944   0.907
54547W        W15858  39.822  38.376  13.453
54548W        W15859  30.099  31.115   3.212
54549W        W15860  42.361  23.056   4.796
54550W        W15861  13.191  11.835   4.183
54551W        W15862  24.658   3.922   3.696
54552W        W15863  30.004  35.092   0.939
54553W        W15864  26.159  23.025   3.853
54554W        W15865  43.301  13.656  13.329
54555W        W15866  20.708   6.899   0.482
54556W        W15867   8.717  17.221  14.016
54557W        W15868  31.101  36.457  12.092
54558W        W15869  30.568  12.298  13.449
54559W        W15870  40.823  41.456   4.194
54560W        W15871  31.983  32.471   0.953
54561W        W15872  33.117  24.571  14.405
54562W        W15873  32.010   6.916  11.596
54563W        W15874  32.985  38.875  14.988
54564W        W15875  24.698  28.474  11.011
54565W        W15876  19.535  31.621  12.511
54566W        W15877   3.348  35.518   0.839
54567W        W15878  21.665  15.707  12.906
54568W        W15879  14.626  12.819   1.929
54569W        W15880  21.526  30.419  12.957
54570W        W15881  16.616   2.745  12.833
54571W        W15882  40.903  32.463  12.460
54572W        W15883  34.059   2.419   4.193
54573W        W15884  26.687  14.602   5.121
54574W        W15885  27.536  35.909   0.322
54575W        W15886  43.464  12.243  10.464
54576W        W15887   9.372  36.451   2.745
54577W        W15888  30.913   4.261   0.362
54578W        W15889  22.527   6.335   1.742
54579W        W15890  16.748  43.366   4.189
54580W        W15891  10.675  31.932   2.353
54581W        W15892  35.022  29.614  13.435
54582W        W15893  21.170  16.587   1.380
54583W        W15894  42.797   9.206   3.707
54584W        W15895  21.611  39.360  14.351
54585W        W15896   2.356  14.733   4.310
54586W        W15897   8.213   5.831  11.418
54587W        W15898  24.111  24.592   0.474
54588W        W15899  15.735  36.950   4.345
54589W        W15900  18.076  36.846   3.335
54590W        W15901   8.166   0.795  10.482
54591W        W15902  44.919  17.230  11.024
54592W        W15903  21.175  17.268   1.366
54593W        W15904   8.787   5.389   1.863
54594W        W15905   2.940  41.830   4.828
54595W        W15906  32.894  44.871  14.914
54596W        W15907  29.429  34.563   3.714
54597W        W15908  25.969  21.511  11.924
54598W        W15909  16.609  34.020  12.881
54599W        W15910  32.981   9.725  10.637
54600W        W15911  18.604  19.556   0.297
54601W        W15912  31.033   9.248  10.952
54602W        W15913  34.446  41.827  10.477
54603W        W15914   9.783  24.998  11.546
54604W        W15915  21.742  25.713  12.046
54605W        W15916   1.813  43.479   3.371
54606W        W15917  34.398  20.671  11.444
54607W        W15918  33.075  18.123   4.179
54608W        W15919   3.726  10.795   1.871
54609W        W15920   6.834  26.698  14.513
54610W        W15921  13.222  37.925   3.233
54611W        W15922  25.506   6.908  10.912
54612W        W15923  12.840  10.781  13.042
54613W        W15924  21.186  11.283   4.644
54614W        W15925  29.107  19.758  11.481
54615W        W15926  35.470   1.240  12.028
54616W        W15927  42.860  28.107  14.024
54617W        W15928  39.476  11.865   3.216
54618W        W15929  41.330  32.137  10.632
54619W        W15930  18.147   5.369  11.603
54620W        W15931  24.709   6.213  13.827
54621W        W15932  27.500  30.537   2.807
54622W        W15933  33.877  11.179  13.050
54623W        W15934  22.612  22.695   5.241
54624W        W15935  38.880   9.374   0.424
54625W        W15936  39.950  43.462  11.085
54626W        W15937  40.972  24.046   1.273
54627W        W15938   2.756  42.331   3.274
54628W        W15939  28.526  32.912   1.707
54629W        W15940   9.648  18.733   1.316
54630W        W15941   9.370  29.071   2.903
54631W        W15942  25.996  19.610   5.237
54632W        W15943   9.742  16.781  14.001
54633W        W15944  29.950  25.630   2.748
54634W        W15945  27.031  39.040   4.242
54635W        W15946  28.664  33.093  14.342
54636W        W15947  24.685  32.391   0.821
54637W        W15948   0.892   4.323  12.878
54638W        W15949  19.146  15.814   0.877
54639W        W15950  43.302  33.073  12.488
54640W        W15951  41.937  34.098  11.449
54641W        W15952  28.534   8.213  12.969
54642W        W15953   2.787  21.644  11.072
54643W        W15954  10.632   7.692   3.189
54644W        W15955  37.877  12.148   3.705
54645W        W15956   2.944   8.176   4.707
54646W        W15957  39.022  11.748   0.413
54647W        W15958  34.540  35.089   2.312
54648W        W15959  33.501  41.358   1.376
54649W        W15960  16.777  25.680   4.729
54650W        W15961  36.387  18.626  13.528
54651W        W15962  43.394  35.011   3.767
54652W        W15963  32.971  41.851  14.926
54653W        W15964  40.378  21.583  11.597
54654W        W15965   8.262  10.662  13.897
54655W        W15966  28.461  17.260   3.678
54656W        W15967  34.613  39.560  10.946
54657W        W15968   1.299  24.673  11.019
54658W        W15969   1.861  27.489  14.896
54659W        W15970  21.064  31.944   0.875
54660W        W15971  42.983  15.717   1.231
54661W        W15972  44.303   2.373  10.430
54662W        W15973   2.827  30.454   3.827
54663W        W15974   1.409  42.024   4.348
54664W        W15975  41.989  27.454   0.902
54665W        W15976  30.432  15.141   2.861
54666W        W15977  42.918   7.205   4.809
54667W        W15978  10.790   2.863   2.755
54668W        W15979  36.974  27.538   1.289
54669W        W15980  39.319   8.755  13.042
54670W        W15981   8.730  44.493  13.448
54671W        W15982  38.058  16.270   1.732
54672W        W15983  38.331  32.568   2.718
54673W        W15984  19.162  13.822   0.848
54674W        W15985  17.688  21.058  12.393
54675W        W15986  28.059   7.386  11.439
54676W        W15987  43.947  36.032  11.525
54677W        W15988  20.720  21.143  11.895
54678W        W15989   0.469  22.584   1.360
54679W        W15990  38.847  42.448  12.513
54680W        W15991   2.305  19.097   4.167
54681W        W15992  44.929   1.373  11.535
54682W        W15993   8.301   8.761  12.368
54683W        W15994  16.254  20.663  13.871
54684W        W15995  36.918  30.127  11.091
54685W        W15996  38.852   1.374   3.688
54686W        W15997   2.292  35.909   3.866
54687W        W15998  12.678  21.746  12.568
54688W        W15999  13.715  23.124  10.486
54689W        W16000   2.748  13.650   3.147
54690W        W16001  36.447  26.102  14.794
54691W        W16002  44.865  40.799   0.469
54692W        W16003   8.227  29.562   0.784
54693W        W16004  12.253  30.989  13.814
54694W        W16005  44.445   4.406  13.522
54695W        W16006   5.821  31.432  11.518
54696W        W16007  23.575   3.744   0.446
54697W        W16008  25.134  36.362   1.228
54698W        W16009  38.537  24.118  11.582
54699W        W16010   9.726  12.622   4.707
54700W        W16011  15.618   8.744  14.866
54701W        W16012   5.326  22.216   0.733
54702W        W16013  11.653   6.221  10.580
54703W        W16014  25.219   6.858  11.037
54704W        W16015  40.345  21.699  14.372
54705W        W16016  30.973  17.205  10.424
54706W        W16017   4.779  42.990  10.973
54707W        W16018  25.611  18.764  13.827
54708W        W16019   1.799  17.263  11.102
54709W        W16020  30.626  19.555   2.288
54710W        W16021  14.642  11.297  14.023
54711W        W16022  44.367  30.490   5.206
54712W        W16023  37.508  35.509   4.620
54713W        W16024   5.285  41.510  14.847
54714W        W16025  22.609  32.455  13.795
54715W        W16026  32.440  10.833  14.778
54716W        W16027   2.307  29.062  14.769
54717W        W16028   1.422  42.394  11.557
54718W        W16029  30.978  14.798  11.893
54719W        W16030  26.522  39.001  14.959
54720W        W16031  13.634  22.164   1.817
54721W        W16032  30.519  39.319  14.924
54722W        W16033   0.382  34.911   3.827
54723W        W16034  20.167  24.495  13.816
54724W        W16035  11.150  38.450  10.425
54725W        W16036  39.520   8.833   3.841
54726W        W16037  16.294  42.458   0.860
54727W        W16038  10.306  14.155   3.353
54728W        W16039  42.890  12.649   1.763
54729W        W16040  20.107  33.620   3.761
54730W        W16041  28.092  34.529  11.401
54731W        W16042  24.154  26.668  13.541
54732W        W16043   7.344   7.398  13.456
54733W        W16044  34.957  27.958  12.090
54734W        W16045  13.337  21.086  11.870
54735W        W16046   4.779  27.024   4.352
54736W        W16047   9.376  14.794   0.361
54737W        W16048   5.380   4.217  13.547
54738W        W16049   7.744   8.255  12.440
54739W        W16050  39.408  42.780   0.787
54740W        W16051  30.589  34.613  14.994
54741W        W16052  16.740  17.562   3.307
54742W        W16053  18.619  15.083   2.852
54743W        W16054  29.112  16.300  13.540
54744W        W16055  33.547  42.923   4.824
54745W        W16056  19.215  40.452   0.925
54746W        W16057   6.376  15.245   5.716
54747W        W16058  37.519  31.978   5.259
54748W        W16059   7.360  29.450   4.323
54749W        W16060   6.194   4.261   1.418
54750W        W16061  28.675   4.925   4.601
54751W        W16062  24.081  41.382   3.309
54752W        W16063   6.834  34.510  14.773
54753W        W16064   0.892  21.529  14.821
54754W        W16065  43.390  17.204   2.766
54755W        W16066  32.921   7.270   2.837
54756W        W16067  14.213  37.375  14.826
54757W        W16068  28.541  43.870  13.808
54758W        W16069  19.741  11.678  14.321
54759W        W16070  18.742   5.799   1.705
54760W        W16071  29.976  12.775   0.393
54761W        W16072  30.054  20.187  13.319
54762W        W16073  34.989  21.212   1.724
54763W        W16074   5.703  12.234  11.480
54764W        W16075  41.963  34.571   1.861
54765W        W16076  30.454  21.241   2.235
54766W        W16077   2.404   3.880   3.791
54767W        W16078  11.368  29.988  14.359
54768W        W16079  18.635  26.104   2.234
54769W        W16080  19.052  31.534  12.022
54770W        W16081   9.740  31.018  11.478
54771W        W16082  22.713  10.169   1.273
54772W        W16083  12.172   7.181   1.779
54773W        W16084  31.615  10.843   2.192
54774W        W16085  22.102   1.476   0.283
54775W        W16086  15.604  44.766   4.830
54776W        W16087  42.918  32.537  13.484
54777W        W16088  25.003  10.340  10.428
54778W        W16089   3.920  11.707  10.030
54779W        W16090  13.173  26.136  14.364
54780W        W16091   6.676   9.159  11.988
54781W        W16092  27.564  10.229   4.173
54782W        W16093  13.794  40.446  13.002
54783W        W16094   7.896  35.439   1.903
54784W        W16095  26.082   0.827  13.791
54785W        W16096  17.256  15.688  12.037
54786W        W16097  11.149  34.496   1.442
54787W        W16098  31.110  17.731  14.919
54788W        W16099  36.061  18.210   1.825
54789W        W16100  41.492  24.612  11.862
54790W        W16101  15.329  25.595  12.096
54791W        W16102  31.573  33.911  13.538
54792W        W16103  18.268  32.545   1.444
54793W        W16104  12.710  40.471   4.287
54794W        W16105   3.802  14.697  11.989
54795W        W16106  42.525  44.929   4.226
54796W        W16107  24.203  43.820  11.493
54797W        W16108  42.502  37.504   4.776
54798W        W16109   0.948  32.618   1.340
54799W        W16110  36.032  32.447  12.393
54800W        W16111   8.375  38.338  13.456
54801W        W16112  43.344   4.793  13.535
54802W        W16113  30.089   9.821  10.980
54803W        W16114  39.353  29.066   1.895
54804W        W16115  16.244  30.414  12.474
54805W        W16116  22.138  27.651  11.902
54806W        W16117  25.156  43.330  14.468
54807W        W16118   3.742  11.180   3.845
54808W        W16119  17.132  24.671   9.518
54809W        W16120  39.048   5.753  10.009
54810W        W16121   1.274  22.069  11.003
54811W        W16122  10.689  23.125  11.551
54812W        W16123  24.702  19.576   1.354
54813W        W16124  31.532  42.940   0.852
54814W        W16125  17.097   5.392   3.187
54815W        W16126  38.995  24.086  15.000
54816W        W16127  22.611   2.389   3.215
54817W        W16128  36.538   8.174   4.644
54818W        W16129   4.701  40.898  14.286
54819W        W16130   3.808  13.346  11.465
54820W        W16131  26.519  28.140  11.045
54821W        W16132  16.678  21.187  10.902
54822W        W16133  38.988  35.029  13.946
54823W        W16134   2.947   1.369   4.338
54824W        W16135  16.783   5.233   3.629
54825W        W16136  21.049  30.543  14.282
54826W        W16137   8.877  31.019   0.251
54827W        W16138  43.916  30.944   2.814
54828W        W16139  25.002  18.286   4.669
54829W        W16140  12.707  44.410  10.508
54830W        W16141   6.817  31.507   3.776
54831W        W16142  32.017   1.752  14.509
54832W        W16143   0.368  12.278   0.744
54833W        W16144  34.116  34.902   4.821
54834W        W16145   9.689  31.062  13.498
54835W        W16146  15.238  21.662  11.879
54836W        W16147  34.118  41.356   3.666
54837W        W16148   8.298  21.687  12.492
54838W        W16149  11.741   7.763  14.894
54839W        W16150  21.726   8.901  13.854
54840W        W16151  16.187   5.755  10.444
54841W        W16152  40.884  17.133   4.831
54842W        W16153  27.037  37.002   4.251
54843W        W16154  18.167   8.249  11.558
54844W        W16155  39.390   6.796  14.887
54845W        W16156  43.394  41.328  12.884
54846W        W16157  16.125   7.327   2.769
54847W        W16158  28.647  11.786   3.374
54848W        W16159  15.818  37.939  12.567
54849W        W16160  13.783  26.060   0.880
54850W        W16161   2.951  20.050  14.275
54851W        W16162  24.051   8.671   0.392
54852W        W16163  22.659  30.432  12.568
54853W        W16164  22.733   9.678  13.431
54854W        W16165  30.617   3.857   4.823
54855W        W16166   6.676  33.500   2.709
54856W        W16167  29.529   7.200   1.372
54857W        W16168  38.401  21.650  14.438
54858W        W16169  44.870  25.001  10.584
54859W        W16170   3.319  18.189   2.677
54860W        W16171  25.166  30.073  11.882
54861W        W16172  42.777  29.069  12.005
54862W        W16173  11.200  26.609  13.408
54863W        W16174   6.787  43.959  11.908
54864W        W16175   4.822   1.288  10.978
54865W        W16176  35.516  17.275  13.006
54866W        W16177  26.550  30.595  13.439
54867W        W16178  14.692  18.052   0.863
54868W        W16179  22.542  44.937   0.255
54869W        W16180  10.197   8.326   3.862
54870W        W16181  27.583  31.410   3.732
54871W        W16182  12.345  14.265  14.405
54872W        W16183   1.243  21.036   0.922
54873W        W16184  14.793  15.199   3.714
54874W        W16185  13.605  19.756  12.507
54875W        W16186  24.085  44.756  11.377
54876W        W16187  36.546  27.158  10.471
54877W        W16188  10.727  31.138  12.985
54878W        W16189  12.648  17.616   3.793
54879W        W16190  25.664  21.063  11.931
54880W        W16191  25.019  12.185   2.860
54881W        W16192  24.643  12.119   1.218
54882W        W16193  32.632  37.387  11.496
54883W        W16194  17.110  12.758   4.661
54884W        W16195  10.653  42.506  11.421
54885W        W16196   1.949  10.823   4.145
54886W        W16197  15.272   7.837  11.472
54887W        W16198  15.309  25.051  14.387
54888W        W16199  35.097  14.319  14.979
54889W        W16200  34.923  32.425  12.438
54890W        W16201  26.699  44.002   2.901
54891W        W16202   3.859  15.664  13.370
54892W        W16203   4.752  12.716   9.939
54893W        W16204  25.485  40.968  13.818
54894W        W16205   7.808  19.679   3.249
54895W        W16206  18.147   6.263  11.125
54896W        W16207   1.818  16.762  13.467
54897W        W16208  22.535  16.181   4.767
54898W        W16209   9.224   5.789   2.341
54899W        W16210  42.495  11.813   1.923
54900W        W16211  36.011  21.153  12.440
54901W        W16212  37.931  33.061   0.752
54902W        W16213   4.392  21.058   3.380
54903W        W16214  26.182  27.176  13.007
54904W        W16215   7.815  37.844  14.895
54905W        W16216  40.335  11.626  10.557
54906W        W16217  36.014  42.335   0.404
54907W        W16218   1.432  13.321   3.231
54908W        W16219  41.872  15.612  13.874
54909W        W16220  16.279  15.251  14.877
54910W        W16221  29.437  31.936   4.117
54911W        W16222  33.521   8.215   1.365
54912W        W16223  11.361   4.787  13.484
54913W        W16224  32.939  28.061  12.016
54914W        W16225  32.496   6.822  11.917
54915W        W16226  22.029  11.750   0.727
54916W        W16227  33.616  37.908  13.320
54917W        W16228   1.244   4.841  14.764
54918W        W16229  16.318  12.770  13.010
54919W        W16230  36.096  18.210  13.896
54920W        W16231   3.369  21.752   4.597
54921W        W16232  38.517  16.222   4.133
54922W        W16233   4.382  26.167   2.845
54923W        W16234  39.469   1.854   2.889
54924W        W16235  22.033  15.683   0.765
54925W        W16236   0.345   1.254   4.681
54926W        W16237  25.126  10.855   4.806
54927W        W16238  36.846  34.080   0.784
54928W        W16239  40.050  35.891  11.516
54929W        W16240  38.052   7.337  12.542
54930W        W16241  30.525  16.142   0.847
54931W        W16242  35.422  12.844   3.218
54932W        W16243  41.323  42.799   1.905
54933W        W16244  20.565  41.926  13.524
54934W        W16245   7.880   4.317   0.407
54935W        W16246  29.927   9.219  13.351
54936W        W16247   1.881  28.449  12.482
54937W        W16248   0.792  21.184   3.166
54938W        W16249  43.505   0.861  14.404
54939W        W16250  17.666  20.702   0.882
54940W        W16251  12.155  22.599  13.373
54941W        W16252   4.842   1.752   0.290
54942W        W16253  18.134  15.287   2.371
54943W        W16254  36.537  17.694  10.517
54944W        W16255  31.029  39.484  10.928
54945W        W16256  28.984  29.606  12.869
54946W        W16257   4.773  17.603  10.599
54947W        W16258  19.574  26.106  12.041
54948W        W16259   7.803  25.079  12.921
54949W        W16260  24.664  14.618  12.888
54950W        W16261  42.884  18.077  14.874
54951W        W16262  12.188  29.953  11.595
54952W        W16263  36.000  26.129  11.496
54953W        W16264  26.001   8.793   2.303
54954W        W16265  40.395  33.601   4.781
54955W        W16266  12.315   7.668  13.473
54956W        W16267  25.547  31.531   0.942
54957W        W16268  41.881  18.050  13.797
54958W        W16269  24.082  23.668   0.292
54959W        W16270  11.167  21.116  12.480
54960W        W16271  14.231  13.304  13.903
54961W        W16272  33.625  38.528  14.365
54962W        W16273  42.024  24.998   2.844
54963W        W16274  20.763  18.605  13.013
54964W        W16275  21.142   8.298   0.442
54965W        W16276   4.905  14.211  10.584
54966W        W16277   4.336  29.625  11.603
54967W        W16278  28.511  38.974   3.151
54968W        W16279  11.242   5.898   4.313
54969W        W16280   6.353  11.797  10.476
54970W        W16281  25.628   6.208  14.945
54971W        W16282  26.100  15.707  14.869
54972W        W16283  33.014  33.529  11.432
54973W        W16284  23.516  30.157  11.599
54974W        W16285   4.747  21.670   9.966
54975W        W16286  11.147  37.352   2.894
54976W        W16287  21.684   5.392  10.991
54977W        W16288  32.139  22.154   4.731
54978W        W16289  25.516  19.616   0.913
54979W        W16290  29.618  35.596  13.976
54980W        W16291  32.009   1.479   3.682
54981W        W16292  26.084  27.961  10.004
54982W        W16293   5.370   0.955   0.310
54983W        W16294  16.283  10.264  11.096
54984W        W16295  13.764  21.610  13.920
54985W        W16296  13.352   4.825   2.241
54986W        W16297  28.487  15.770  11.125
54987W        W16298  34.117  23.615   0.276
54988W        W16299  36.396   1.321   1.775
54989W        W16300  34.515  24.554  14.841
54990W        W16301  10.746  30.543   4.828
54991W        W16302  19.203  39.919   9.981
54992W        W16303  33.082  40.487  13.490
54993W        W16304  32.957   0.755  11.550
54994W        W16305  25.646  28.472  10.515
54995W        W16306  34.946  41.891   0.414
54996W        W16307   2.934   0.892  10.574
54997W        W16308  13.603  41.459   1.755
54998W        W16309  29.613  41.404   1.213
54999W        W16310  36.542  10.836   0.469
55000W        W16311  18.111   5.836   4.765
55001W        W16312  24.025  22.627   1.299
55002W        W16313   9.151  21.654  11.876
55003W        W16314   7.891  44.423   4.354
55004W        W16315  19.608  28.513   1.289
55005W        W16316  31.510  38.941   3.652
55006W        W16317   7.201  39.900   2.822
55007W        W16318  39.460   1.812   1.320
55008W        W16319  12.773  26.078   4.317
55009W        W16320  20.037  18.748   0.938
55010W        W16321  34.892  21.022   3.171
55011W        W16322  41.503  31.090   4.656
55012W        W16323  14.807   6.428  14.771
55013W        W16324  24.658  33.414   2.845
55014W        W16325  24.996   5.842   3.655
55015W        W16326  22.545  20.132   1.411
55016W        W16327  11.217  15.699   2.399
55017W        W16328  24.630   9.252   4.212
55018W        W16329  26.122  41.801   1.711
55019W        W16330  12.697  44.331   0.319
55020W        W16331  33.446   5.369   2.290
55021W        W16332  36.491   3.365   3.804
55022W        W16333   1.970  34.996   3.757
55023W        W16334  24.988   9.817   1.808
55024W        W16335  19.631   1.425   1.237
55025W        W16336  28.990  39.031   1.710
55026W        W16337  16.592  18.634  13.977
55027W        W16338  35.908  32.931  12.369
55028W        W16339  12.122  29.643   1.442
55029W        W16340  31.539  35.372  11.374
55030W        W16341  44.829  35.882   0.796
55031W        W16342  39.472  28.181   3.191
55032W        W16343  10.632  21.193  10.525
55033W        W16344  42.360   5.873  10.606
55034W        W16345  32.008  20.625   1.922
55035W        W16346  25.216  20.184  13.934
55036W        W16347   9.765  35.597   0.839
55037W        W16348   6.883   5.787  12.405
55038W        W16349  43.353  40.853  12.393
55039W        W16350  13.672  36.539   4.354
55040W        W16351  38.987  25.486  13.893
55041W        W16352  43.437   5.761   2.241
55042W        W16353  31.622  38.017  12.539
55043W        W16354  39.898  17.062   3.870
55044W        W16355  36.514   4.745   2.708
55045W        W16356  22.501  32.941   4.774
55046W        W16357  33.990  41.847   4.205
55047W        W16358  33.551  32.635  10.896
55048W        W16359  26.981  33.093   2.366
55049W        W16360  10.207   3.765   2.812
55050W        W16361  16.683   3.369   3.290
55051W        W16362  24.984  41.362  11.515
55052W        W16363   2.727  14.718   2.772
55053W        W16364  21.632  20.272  15.000
55054W        W16365   3.390  11.237  14.020
55055W        W16366  22.051  43.301   1.733
55056W        W16367   5.769  37.953   4.210
55057W        W16368   3.722  10.784  11.425
55058W        W16369   6.818   3.837  10.532
55059W        W16370  28.943  42.974   0.314
55060W        W16371  31.472  43.318   1.770
55061W        W16372  21.160  39.384   1.882
55062W        W16373  29.483  35.087  13.396
55063W        W16374   5.230  21.223   0.838
55064W        W16375  34.869  14.097   1.694
55065W        W16376   7.827  11.210  11.021
55066W        W16377  32.128  28.646   1.446
55067W        W16378  34.458  14.683   4.797
55068W        W16379  35.886  17.723  11.409
55069W        W16380  43.504  26.105  13.861
55070W        W16381  40.515  14.814  14.839
55071W        W16382   6.232  32.133   4.729
55072W        W16383  30.605  17.791  10.593
55073W        W16384  37.910  28.072  10.627
55074W        W16385  13.754  29.923  14.487
55075W        W16386  16.225  12.158  12.443
55076W        W16387  36.589   1.932   3.303
55077W        W16388  14.202   9.287   3.217
55078W        W16389  37.351   7.292  10.589
55079W        W16390  24.987  13.810  13.843
55080W        W16391  39.884  29.959   4.232
55081W        W16392  15.214  25.100  13.477
55082W        W16393   5.690  28.004  12.070
55083W        W16394  23.505  28.096   4.775
55084W        W16395  36.965  33.982  11.585
55085W        W16396   5.777  33.088   1.435
55086W        W16397  33.541   8.806   2.341
55087W        W16398  27.187  13.289  12.962
55088W        W16399  12.708  18.104   3.762
55089W        W16400  26.085  21.650   2.860
55090W        W16401   3.818  36.405   1.761
55091W        W16402   3.451   5.813   2.199
55092W        W16403   1.838  28.547   4.289
55093W        W16404  16.629   2.246   1.829
55094W        W16405  16.582  24.677   3.279
55095W        W16406   0.269  38.855   2.195
55096W        W16407  12.353  33.962  12.868
55097W        W16408  10.655   6.702  14.031
55098W        W16409   9.775  29.509   2.822
55099W        W16410   7.691  32.952   2.714
55100W        W16411  31.957  13.145   3.784
55101W        W16412  41.855  29.931  11.582
55102W        W16413  32.457   5.246   2.289
55103W        W16414  20.231   7.221   2.282
55104W        W16415   1.874  10.860  12.452
55105W        W16416  42.354  21.214   4.645
55106W        W16417  12.695  11.725  12.431
55107W        W16418  15.578  19.613  11.057
55108W        W16419  27.146  14.786  12.982
55109W        W16420  27.024  16.738   3.326
55110W        W16421  12.829  30.556  14.797
55111W        W16422  38.031  39.383  10.526
55112W        W16423  38.554  14.096  13.402
55113W        W16424  44.882  13.117  13.925
55114W        W16425  40.844  33.452   0.868
55115W        W16426  41.411   7.731  11.526
55116W        W16427  39.876  27.962  13.808
55117W        W16428   2.425  34.536  12.826
55118W        W16429  34.863  32.937  11.916
55119W        W16430   1.833  39.443  11.916
55120W        W16431  12.649  34.946  12.439
55121W        W16432  13.119  17.701  11.079
55122W        W16433   7.734   4.842  14.834
55123W        W16434  11.685  28.136   4.763
55124W        W16435  33.502  28.128   5.310
55125W        W16436  22.685  15.316  13.974
55126W        W16437  23.504   6.731  13.906
55127W        W16438   3.855   7.748  11.455
55128W        W16439  25.105  16.800   3.712
55129W        W16440  25.206  19.070  11.402
55130W        W16441  24.051  31.524  10.573
55131W        W16442  38.538  34.513  11.507
55132W        W16443  19.175  34.583  14.814
55133W        W16444  18.280  11.140   0.445
55134W        W16445   4.735   0.382  10.921
55135W        W16446   6.736  43.380  12.010
55136W        W16447  16.251  27.038   0.326
55137W        W16448   7.340  21.060  13.350
55138W        W16449  15.724  30.622  12.405
55139W        W16450   5.413   8.786  14.808
55140W        W16451  16.078   8.211  12.421
55141W        W16452   3.839   8.280   4.654
55142W        W16453  36.547   9.158  11.561
55143W        W16454   1.262   7.681   0.834
55144W        W16455   2.374  11.776  10.035
55145W        W16456  43.855   1.916  10.909
55146W        W16457   7.864  31.930  12.992
55147W        W16458  23.660   3.894   3.262
55148W        W16459  19.219  12.241   1.276
55149W        W16460  13.205   8.721  11.385
55150W        W16461  37.964  18.712   3.351
55151W        W16462  27.197  31.991   1.773
55152W        W16463  16.208  37.929   2.185
55153W        W16464  18.722  20.095   1.724
55154W        W16465  23.146  14.176  10.927
55155W        W16466  43.356   2.409   3.215
55156W        W16467  38.944  14.798  13.898
55157W        W16468  27.015  31.592   4.140
55158W        W16469  19.717  21.104   1.432
55159W        W16470   6.246   8.762   4.630
55160W        W16471  42.829  11.187  12.557
55161W        W16472  43.826  39.480  13.825
55162W        W16473   6.273  27.113   3.666
55163W        W16474   1.315   2.298   0.376
55164W        W16475  34.063  28.076   2.258
55165W        W16476  33.386   7.830   4.123
55166W        W16477  19.249  35.491   1.404
55167W        W16478  33.966  15.590   3.192
55168W        W16479  43.449  31.929   0.271
55169W        W16480  36.992   5.814   4.260
55170W        W16481  19.608  44.777   2.294
55171W        W16482   2.739  14.693   2.379
55172W        W16483  44.431  30.415   3.668
55173W        W16484   3.905  17.614   4.598
55174W        W16485  38.524  26.476  12.568
55175W        W16486  28.469   3.749   0.291
55176W        W16487  36.473  26.655   0.440
55177W        W16488  33.575  16.115  11.380
55178W        W16489  34.998   6.294  14.373
55179W        W16490  38.403   9.717   4.292
55180W        W16491  37.994  38.503  11.931
55181W        W16492   5.375  29.513  12.406
55182W        W16493   7.213  20.079   2.735
55183W        W16494  23.211   9.774  10.958
55184W        W16495  40.544  36.059  10.534
55185W        W16496  22.062  18.184   5.109
55186W        W16497  42.288  18.651  14.829
55187W        W16498  11.813  42.349  10.158
55188W        W16499  44.837   3.868   2.279
55189W        W16500  14.662  39.051  12.008
55190W        W16501   9.873  20.754   1.356
55191W        W16502  44.312  24.140   1.301
55192W        W16503  14.658   4.287   1.807
55193W        W16504  33.479  23.183   2.356
55194W        W16505  36.367  38.377   3.651
55195W        W16506   5.904   0.494   4.221
55196W        W16507  36.358  43.454   0.324
55197W        W16508  37.872   0.913  14.917
55198W        W16509  14.218  13.767   3.757
55199W        W16510  34.500  29.612  14.769
55200W        W16511  15.107   3.732  10.460
55201W        W16512  39.459  33.875  11.025
55202W        W16513   4.817  18.770  13.438
55203W        W16514  40.965   7.758  11.536
55204W        W16515  23.232  22.708  11.460
55205W        W16516  22.152   0.807   3.350
55206W        W16517   9.774   9.246   4.821
55207W        W16518  33.109  37.044   3.359
55208W        W16519  20.750  17.728   0.357
55209W        W16520  35.982  11.770   1.902
55210W        W16521  37.553   9.157   4.801
55211W        W16522  14.287  13.348  11.100
55212W        W16523  42.452  34.461   1.829
55213W        W16524  25.614  36.589  12.941
55214W        W16525  36.874  23.034  13.870
55215W        W16526  30.076  19.122   0.334
55216W        W16527   5.893  14.161   0.337
55217W        W16528  27.164  43.367   2.336
55218W        W16529  40.417   5.405   0.266
55219W        W16530  13.278  36.458   1.859
55220W        W16531  28.490  36.083  14.781
55221W        W16532  30.623   2.950   1.357
55222W        W16533  43.427  15.140   1.801
55223W        W16534  35.922  21.653  12.895
55224W        W16535  10.382  37.965  14.982
55225W        W16536  11.195  28.119  13.995
55226W        W16537   3.916  28.962  10.450
55227W        W16538  42.975   4.750  11.422
55228W        W16539  27.990  40.909  13.485
55229W        W16540  16.805  19.178   3.785
55230W        W16541  16.188   5.697  14.976
55231W        W16542  41.007  16.295   3.231
55232W        W16543   6.406  41.296   2.196
55233W        W16544   0.919  15.626  11.379
55234W        W16545  27.598   8.173  14.879
55235W        W16546  21.036  40.381  10.449
55236W        W16547  40.036  22.535  13.413
55237W        W16548  21.172  15.612  14.986
55238W        W16549  42.438  34.394   2.300
55239W        W16550  33.999  20.127  13.801
55240W        W16551  25.063   7.400   5.258
55241W        W16552  32.954  14.234  14.779
55242W        W16553  10.685   5.726   3.655
55243W        W16554   5.818  11.342   4.142
55244W        W16555   8.872  22.710   0.325
55245W        W16556  32.557  13.224  10.571
55246W        W16557  31.463  14.106   3.373
55247W        W16558  22.685  39.396  11.470
55248W        W16559  34.022  23.555   1.240
55249W        W16560  14.726  11.626  12.428
55250W        W16561  28.086  31.036  11.982
55251W        W16562  39.448  10.367   3.834
55252W        W16563  43.309  38.856  14.890
55253W        W16564   4.817  31.904   1.739
55254W        W16565  37.844  33.443   4.149
55255W        W16566  18.188   4.751  12.025
55256W        W16567  40.019  35.956  13.419
55257W        W16568  19.113  40.873   0.330
55258W        W16569  24.096  43.453  13.322
55259W        W16570  34.481  36.482  13.790
55260W        W16571   6.720  18.644  11.479
55261W        W16572  21.232  27.154   1.404
55262W        W16573  28.485  38.854  11.581
55263W        W16574  10.823  19.654   3.179
55264W        W16575  18.618  41.986  11.413
55265W        W16576   3.837   1.476   4.229
55266W        W16577  24.094   5.374  10.406
55267W        W16578  30.553   3.267  10.511
55268W        W16579  25.141  33.941  10.574
55269W        W16580  42.488  35.586  13.308
55270W        W16581   9.212   0.870   3.824
55271W        W16582  19.591  10.287   4.688
55272W        W16583  38.944  19.583   3.242
55273W        W16584  28.630  38.326   4.307
55274W        W16585  24.107  17.157  13.502
55275W        W16586  20.757  11.772   3.309
55276W        W16587  23.068  12.694  14.943
55277W        W16588   9.358  44.830   3.299
55278W        W16589  13.836  22.078  14.849
55279W        W16590  16.574  15.671  13.939
55280W        W16591  26.205  40.452   1.717
55281W        W16592   3.924  37.462  10.974
55282W        W16593  10.657  21.036  11.388
55283W        W16594  18.769  41.384   3.344
55284W        W16595   4.327  18.566  10.904
55285W        W16596   6.769  26.188  10.983
55286W        W16597  32.609  36.988  14.006
55287W        W16598  17.768   3.913  13.014
55288W        W16599  15.764  42.416  11.371
55289W        W16600   6.729  25.651  11.910
55290W        W16601  21.089  23.707  13.403
55291W        W16602   6.699  19.684   0.430
55292W        W16603  36.905   9.845   0.894
55293W        W16604  29.558  21.712   3.634
55294W        W16605   4.886  22.567   3.793
55295W        W16606  15.596  29.028  12.408
55296W        W16607  35.412  15.083   3.829
55297W        W16608  40.520  27.534   3.212
55298W        W16609  12.746  31.961   0.431
55299W        W16610   7.305  25.013   1.797
55300W        W16611  35.997   6.891  14.943
55301W        W16612  19.639  36.013   0.310
55302W        W16613  43.424  21.694  13.839
55303W        W16614   0.366  15.766  12.990
55304W        W16615   2.816  33.102  11.542
55305W        W16616  35.570  26.598  14.349
55306W        W16617  19.672  35.603   0.789
55307W        W16618   1.816  28.948   2.338
55308W        W16619  34.526  34.580  12.066
55309W        W16620  15.125  25.560  13.546
55310W        W16621  35.079  34.020  11.513
55311W        W16622  42.022  42.319  12.003
55312W        W16623  40.522  35.571   4.622
55313W        W16624  44.473  27.563   1.281
55314W        W16625   4.918  34.882  13.438
55315W        W16626  12.678  37.423   4.713
55316W        W16627  35.431   7.333  14.378
55317W        W16628  22.022  26.113   1.333
55318W        W16629  38.421  14.239   3.262
55319W        W16630  29.074  30.042   0.438
55320W        W16631  11.210  17.100  14.329
55321W        W16632  25.498   2.340  13.881
55322W        W16633   2.944   8.318  11.064
55323W        W16634   9.217  16.726  14.310
55324W        W16635  43.911   9.815  13.959
55325W        W16636  14.110  12.618  10.525
55326W        W16637  43.772  10.794  13.835
55327W        W16638  40.956  25.712  12.948
55328W        W16639  41.459  31.434   4.215
55329W        W16640  44.772  38.348   0.762
55330W        W16641  20.112  21.216  12.828
55331W        W16642  23.220  12.167   3.353
55332W        W16643   1.772  11.816  13.432
55333W        W16644  24.090  11.814   0.367
55334W        W16645  15.719  19.612  10.054
55335W        W16646   8.216   3.924  12.536
55336W        W16647  25.051  23.027  11.974
55337W        W16648  14.652   9.334   0.885
55338W        W16649  24.048  20.117   4.635
55339W        W16650  12.723  19.565   4.137
55340W        W16651   6.865  36.995  11.909
55341W        W16652  36.987  10.777  10.470
55342W        W16653   4.939  39.990   2.779
55343W        W16654  23.185   3.376  14.485
55344W        W16655   3.277  29.667   4.768
55345W        W16656  14.305  37.410   1.323
55346W        W16657  43.990  25.689  13.027
55347W        W16658  26.169   4.701  14.327
55348W        W16659   7.674   9.218   4.835
55349W        W16660  24.575  23.587   4.156
55350W        W16661  42.877  39.479  13.539
55351W        W16662   4.848  23.095  12.559
55352W        W16663   3.716  18.679   4.756
55353W        W16664  20.270  26.987   3.352
55354W        W16665  36.522   5.272   0.389
55355W        W16666  44.497  12.644  12.469
55356W        W16667   2.281  13.782  13.412
55357W        W16668   9.345  37.582   4.718
55358W        W16669  36.986  10.237  14.468
55359W        W16670  31.517  37.550  13.965
55360W        W16671   4.295  21.246   0.748
55361W        W16672  23.131  18.118  13.366
55362W        W16673  31.090   2.339  12.437
55363W        W16674  23.222  30.925   1.241
55364W        W16675  41.012  20.253   4.755
55365W        W16676   2.466  14.308  13.907
55366W        W16677  21.517  33.381   1.341
55367W        W16678  38.057  35.550  10.478
55368W        W16679  39.450  18.605  10.903
55369W        W16680  30.490  37.579  13.343
55370W        W16681   9.833   2.351  13.891
55371W        W16682  14.677  37.437   0.902
55372W        W16683  38.001  19.749  14.005
55373W        W16684  20.054  34.091  11.505
55374W        W16685  26.158  36.870   1.897
55375W        W16686  12.791   8.796  14.505
55376W        W16687  44.422   7.774  14.287
55377W        W16688  44.505  32.938  14.294
55378W        W16689   3.270  16.601  13.820
55379W        W16690  14.138  30.059   3.803
55380W        W16691  11.740  34.383   1.792
55381W        W16692  13.109  42.834  11.982
55382W        W16693  12.675  18.265  11.119
55383W        W16694  13.768  21.735  14.433
55384W        W16695  25.566  12.695  11.973
55385W        W16696  29.566   1.784  14.464
55386W        W16697  18.548  26.054  14.412
55387W        W16698  34.089  34.893  13.979
55388W        W16699  15.145   1.414  14.916
55389W        W16700   4.442   6.851  10.447
55390W        W16701   8.189  15.184  11.932
55391W        W16702  20.048  39.432   0.476
55392W        W16703  24.120  12.813   1.404
55393W        W16704  37.955  28.107   3.155
55394W        W16705  41.811   9.163   2.687
55395W        W16706  12.124  27.504   2.740
55396W        W16707  31.526  34.892  14.887
55397W        W16708  42.458   2.957   1.404
55398W        W16709  44.457   7.269   3.282
55399W        W16710  39.965  23.218  14.876
55400W        W16711   4.272  29.089   2.671
55401W        W16712   7.822  21.585   1.415
55402W        W16713  13.629  41.519   4.303
55403W        W16714  28.025  32.431  14.845
55404W        W16715  11.766  30.623   1.920
55405W        W16716  12.249  27.080  10.554
55406W        W16717  23.536  24.690   4.603
55407W        W16718  33.555  44.784   1.849
55408W        W16719  41.799  33.072  11.547
55409W        W16720  43.448  25.538   0.906
55410W        W16721   0.350   1.906  11.530
55411W        W16722  39.483  31.029   2.314
55412W        W16723  34.876   3.237   1.285
55413W        W16724   0.470  27.447  12.853
55414W        W16725  19.764  10.770   0.320
55415W        W16726  10.715   2.295   3.218
55416W        W16727  15.204  44.359   0.424
55417W        W16728  27.974  33.075  12.478
55418W        W16729  23.208  23.070   3.323
55419W        W16730   2.285  18.068  12.029
55420W        W16731   0.888  31.923  13.917
55421W        W16732  23.684  26.461  12.942
55422W        W16733  33.504  19.545   5.139
55423W        W16734  25.579  29.669  13.895
55424W        W16735   3.324  20.167   2.280
55425W        W16736  18.754  31.619  14.334
55426W        W16737  27.159  27.949   1.713
55427W        W16738  20.615  41.039  12.384
55428W        W16739  42.966  27.942   3.254
55429W        W16740   1.972  20.744  13.327
55430W        W16741   9.721  38.836  11.385
55431W        W16742  13.648   2.329  14.800
55432W        W16743  31.618   6.284  11.381
55433W        W16744   1.239  26.635   3.352
55434W        W16745  29.580  43.358   3.223
55435W        W16746  27.637  26.971   1.874
55436W        W16747  28.063   8.674  10.959
55437W        W16748  33.880  32.945  14.760
55438W        W16749  21.091  11.812   0.401
55439W        W16750   9.384  31.448   0.346
55440W        W16751  22.512  32.889  11.904
55441W        W16752  33.392  35.482   2.390
55442W        W16753   1.754   3.727  13.436
55443W        W16754  33.929  19.778  12.908
55444W        W16755   8.210   3.372  12.038
55445W        W16756  23.556  12.834   4.821
55446W        W16757  41.940  15.317   3.698
55447W        W16758   4.839  13.783   0.735
55448W        W16759  21.042  35.490  11.409
55449W        W16760  42.780  29.517   4.601
55450W        W16761  31.501   6.393  12.043
55451W        W16762   7.910  24.203  12.451
55452W        W16763   3.254  16.690   2.410
55453W        W16764   2.463  23.540  12.492
55454W        W16765  40.343  13.199  12.843
55455W        W16766  18.227   5.223   1.448
55456W        W16767  40.963  14.252   3.638
55457W        W16768  25.001  27.139  14.851
55458W        W16769   9.701  24.190  13.369
55459W        W16770   6.796   6.316   1.734
55460W        W16771  15.181  21.545  13.320
55461W        W16772  12.819  11.785  10.517
55462W        W16773  11.313  27.538  11.482
55463W        W16774   3.928   3.387  14.409
55464W        W16775   2.846  41.796  11.375
55465W        W16776   2.387  28.528  10.408
55466W        W16777  37.020  41.534  14.782
55467W        W16778   8.299  29.065  11.106
55468W        W16779  10.229  26.162   2.200
55469W        W16780  17.253   3.347  12.413
55470W        W16781   5.707  12.691  11.975
55471W        W16782  24.517   6.408  10.922
55472W        W16783  29.995  40.817  11.096
55473W        W16784  20.111  16.796  11.877
55474W        W16785  44.468  42.786   3.302
55475W        W16786  29.062   9.374  10.592
55476W        W16787   8.338  27.603   0.896
55477W        W16788  34.389  28.959   0.893
55478W        W16789  34.489   8.841   2.187
55479W        W16790   1.268   7.398  12.453
55480W        W16791  13.621  15.650  13.896
55481W        W16792  27.557  32.936  10.520
55482W        W16793  40.878  28.443   0.447
55483W        W16794   2.347  40.018  10.979
55484W        W16795  44.415  30.450  13.857
55485W        W16796  35.458  44.286  11.031
55486W        W16797   2.920  16.127  14.816
55487W        W16798  11.208  18.750  13.886
55488W        W16799  20.548  37.458  13.397
55489W        W16800  15.281  27.997  11.609
55490W        W16801  38.819   7.734  13.426
55491W        W16802  21.547   1.838   2.362
55492W        W16803  22.599  28.544  14.847
55493W        W16804  43.312   9.300  11.996
55494W        W16805  37.432  25.081  14.846
55495W        W16806   3.940  41.913   1.920
55496W        W16807  22.683  25.487  14.512
55497W        W16808  16.256  29.538  14.953
55498W        W16809  30.928  21.130   1.767
55499W        W16810  29.152  11.675  14.404
55500W        W16811  30.427  22.184   3.179
55501W        W16812   1.812  20.609  11.611
55502W        W16813  22.601  40.906   0.873
55503W        W16814  24.169   2.382  12.900
55504W        W16815  39.061  20.744   2.377
55505W        W16816  26.660   0.846   3.146
55506W        W16817  20.545   9.271  11.872
55507W        W16818  18.551  30.927   2.861
55508W        W16819  40.348  36.452  10.467
55509W        W16820  25.987  41.994  14.855
55510W        W16821  23.693   0.956  10.580
55511W        W16822  39.467  13.124  12.394
55512W        W16823  26.627  22.030   2.275
55513W        W16824  42.781   9.268   1.237
55514W        W16825   8.361  17.732  14.492
55515W        W16826  29.451  41.418   4.345
55516W        W16827  40.539  14.196   5.224
55517W        W16828  34.109   5.703  13.874
55518W        W16829  27.534  22.525   0.357
55519W        W16830   3.865  19.698   1.760
55520W        W16831  33.501  28.485   3.797
55521W        W16832  20.166   7.213   3.199
55522W        W16833   7.687  11.134   3.727
55523W        W16834   4.943  32.602   2.882
55524W        W16835  36.863  35.883   1.892
55525W        W16836  12.210  37.864   4.225
55526W        W16837   4.837  25.975   1.792
55527W        W16838   4.934  16.304  11.590
55528W        W16839   2.804  27.982   1.866
55529W        W16840  38.366  11.241  12.380
55530W        W16841   8.310  37.512   0.867
55531W        W16842  21.731   3.878  11.855
55532W        W16843  32.981   4.917  13.932
55533W        W16844  32.969  17.572   0.370
55534W        W16845  31.525  31.985   3.722
55535W        W16846  23.997  28.466  10.564
55536W        W16847  16.272  33.009  12.027
55537W        W16848  38.425  34.087  13.342
55538W        W16849   2.303  17.263   4.330
55539W        W16850   0.397   6.381  13.032
55540W        W16851  22.210   6.781  12.427
55541W        W16852  39.376  11.662  11.583
55542W        W16853  20.159  44.926  11.894
55543W        W16854   3.814  25.563  10.596
55544W        W16855  44.335  17.062   4.338
55545W        W16856  15.642  16.083  13.922
55546W        W16857  30.494  23.723  13.814
55547W        W16858  31.517  30.021  10.549
55548W        W16859  17.705  30.000   3.722
55549W        W16860  44.913  27.140   3.205
55550W        W16861  24.603  37.075  14.802
55551W        W16862  37.396  14.702   3.306
55552W        W16863  26.564  15.139   0.254
55553W        W16864   5.380  12.321   1.269
55554W        W16865  44.864  36.891  12.424
55555W        W16866  30.650  14.320  14.383
55556W        W16867  37.346  32.411   4.254
55557W        W16868   2.287   6.278  12.396
55558W        W16869  13.690   0.793   0.248
55559W        W16870   3.330  13.240   3.315
55560W        W16871  39.056  11.732   0.854
55561W        W16872  42.425   7.798  12.022
55562W        W16873  10.673  27.001  11.469
55563W        W16874  29.643   3.410   2.782
55564W        W16875  32.101  25.996   1.246
55565W        W16876  32.525   1.825   1.894
55566W        W16877   0.982  21.529  12.566
55567W        W16878  30.072  18.069  14.027
55568W        W16879  44.808  43.343   1.349
55569W        W16880  10.790  10.195  10.530
55570W        W16881  43.338  13.257   4.329
55571W        W16882  33.994   4.863   4.168
55572W        W16883  19.137  10.336   0.748
55573W        W16884   0.759  38.407   1.718
55574W        W16885  37.582   1.812   1.389
55575W        W16886  38.548  33.421  11.444
55576W        W16887   9.743  26.503   1.764
55577W        W16888  40.493  23.134   1.420
55578W        W16889  14.602  23.714  12.053
55579W        W16890  42.891  30.118   0.300
55580W        W16891  30.573   0.845  12.861
55581W        W16892  31.571  23.193  14.508
55582W        W16893   2.371  11.778   5.205
55583W        W16894  13.184  29.011  10.990
55584W        W16895   4.766   5.837  13.441
55585W        W16896  13.827  32.028  11.878
55586W        W16897  28.623  14.281   1.314
55587W        W16898   2.459  16.105  12.525
55588W        W16899   2.859  38.997  11.124
55589W        W16900   9.164  32.105   2.225
55590W        W16901  18.256  21.123   3.204
55591W        W16902   1.922   5.257  11.094
55592W        W16903   0.472  19.064  14.958
55593W        W16904  16.667  17.275  12.572
55594W        W16905   7.241  38.521  11.374
55595W        W16906   5.217  14.254  12.028
55596W        W16907  18.255  10.170   0.739
55597W        W16908  21.673  30.010   5.591
55598W        W16909  22.680   7.329   0.823
55599W        W16910  23.220  43.936   3.812
55600W        W16911   0.926  35.941  13.836
55601W        W16912  28.585  40.366   0.957
55602W        W16913  27.624  25.644  11.124
55603W        W16914  33.431  41.001  13.482
55604W        W16915  41.369  14.219  12.445
55605W        W16916  21.073  17.791  13.060
55606W        W16917  19.655  22.616  11.498
55607W        W16918  26.965  18.644  13.528
55608W        W16919  37.951   3.291  13.453
55609W        W16920  34.374  25.072   3.636
55610W        W16921   2.227  15.671  11.392
55611W        W16922  43.487  27.594  12.844
55612W        W16923  32.101  21.180   0.759
55613W        W16924   2.896   3.359   1.221
55614W        W16925  12.202   0.874  11.086
55615W        W16926   6.767  33.886  11.446
55616W        W16927  32.613  18.625  11.372
55617W        W16928  33.394  35.552   0.349
55618W        W16929  21.661  14.687   1.364
55619W        W16930  13.615  33.496  10.535
55620W        W16931  42.870  29.424  12.990
55621W        W16932  15.300  21.104  10.127
55622W        W16933  34.566  23.198   0.269
55623W        W16934  10.767  23.055   1.832
55624W        W16935  22.746  42.831   2.667
55625W        W16936  42.314  24.085   3.191
55626W        W16937  42.834   9.252  12.938
55627W        W16938  38.001  18.642   2.767
55628W        W16939   5.431  43.919   1.269
55629W        W16940   8.884  37.366  14.002
55630W        W16941   6.865   1.406   2.763
55631W        W16942  28.003  31.128  10.629
55632W        W16943  14.110   9.732  11.869
55633W        W16944  26.152   0.405  10.478
55634W        W16945  12.839  16.099   3.312
55635W        W16946   8.881   7.345   1.319
55636W        W16947   9.672  40.472   2.833
55637W        W16948  35.402  38.519  13.419
55638W        W16949  43.406  40.315   4.718
55639W        W16950   2.278   0.313  10.606
55640W        W16951   6.829  14.126  11.997
55641W        W16952  13.208  37.490   0.432
55642W        W16953  44.759  43.272   1.878
55643W        W16954  21.617  28.503   1.448
55644W        W16955   7.720  30.065  12.893
55645W        W16956  44.753  20.597  10.448
55646W        W16957  12.250   1.409   2.758
55647W        W16958   4.227   3.921  14.482
55648W        W16959   9.203  31.904  11.396
55649W        W16960  15.245  38.872  10.412
55650W        W16961  39.920  13.845   1.237
55651W        W16962  20.694  36.018  13.018
55652W        W16963  19.097  15.726  11.456
55653W        W16964  29.462  31.150  11.068
55654W        W16965  24.482   7.304   3.686
55655W        W16966  36.938  26.700   1.786
55656W        W16967   2.329   9.762   4.766
55657W        W16968  26.061  17.567  12.456
55658W        W16969  34.944  22.221   4.672
55659W        W16970   7.788  18.270   0.306
55660W        W16971  11.853   6.227  12.993
55661W        W16972  42.282   9.761   4.222
55662W        W16973  41.485  13.603  12.048
55663W        W16974   1.831  19.203   4.133
55664W        W16975  12.119   1.942   0.322
55665W        W16976   4.740   6.382   2.733
55666W        W16977   3.839  40.356   2.834
55667W        W16978  10.311  11.236   2.184
55668W        W16979   7.362  35.107   2.753
55669W        W16980  43.001  41.374   1.305
55670W        W16981  15.616  26.652  14.284
55671W        W16982  24.984  34.451  12.548
55672W        W16983  27.607  41.842  14.941
55673W        W16984  34.956   3.304  12.539
55674W        W16985  26.162   9.155  11.562
55675W        W16986  20.205   7.831   1.410
55676W        W16987  31.578  35.555   4.646
55677W        W16988   3.445  25.468   3.225
55678W        W16989  44.000  32.954   3.170
55679W        W16990   5.302  26.107   1.234
55680W        W16991  30.434   6.262  13.983
55681W        W16992  18.561  12.743   3.644
55682W        W16993  27.521   3.397   2.259
55683W        W16994  25.082  20.105   1.759
55684W        W16995  24.119  39.852   2.301
55685W        W16996  28.517  21.660   2.709
55686W        W16997   2.840   6.827   0.953
55687W        W16998   1.920  25.962   3.283
55688W        W16999   6.305  37.475  13.891
55689W        W17000  16.171  31.910   0.429
55690W        W17001  39.434  24.518   0.244
55691W        W17002  17.156  40.908  11.879
55692W        W17003   2.738  25.090  11.887
55693W        W17004   7.790  35.526   0.244
55694W        W17005  33.996  33.962  10.455
55695W        W17006  23.196  15.166   0.382
55696W        W17007  40.521   1.242  11.961
55697W        W17008  29.173  24.120   1.930
55698W        W17009   8.882   5.791   2.395
55699W        W17010  31.555   5.299   9.554
55700W        W17011  15.324  28.990   4.744
55701W        W17012   2.839  10.256  12.433
55702W        W17013  40.414  39.922   3.816
55703W        W17014  17.089   3.834   2.179
55704W        W17015  23.161  21.226  12.054
55705W        W17016   3.711  26.504   2.892
55706W        W17017   2.270  11.680   0.356
55707W        W17018  20.638  23.493  10.623
55708W        W17019  34.507  32.602  10.471
55709W        W17020   4.843  15.672  12.361
55710W        W17021  24.672  32.047   1.922
55711W        W17022  11.641  39.429  14.880
55712W        W17023  19.216  10.195  10.559
55713W        W17024  40.448  43.854  10.570
55714W        W17025   5.378  33.495   2.220
55715W        W17026  31.109  16.117  11.979
55716W        W17027  36.941  32.596  13.999
55717W        W17028  23.505  26.501  10.450
55718W        W17029  19.155  14.238   2.745
55719W        W17030   3.229  14.595  14.013
55720W        W17031   7.898  19.238   1.797
55721W        W17032  34.998  22.232  13.396
55722W        W17033  32.434   1.463   4.211
55723W        W17034  18.090  38.037  10.482
55724W        W17035  38.930   3.446   4.137
55725W        W17036  27.536   1.877   4.770
55726W        W17037   4.336  43.482   1.427
55727W        W17038   9.855  28.568  11.421
55728W        W17039  22.554  13.334  11.548
55729W        W17040   5.420  28.518  12.409
55730W        W17041  19.610  33.016  11.021
55731W        W17042  33.485  24.208   2.787
55732W        W17043  34.434  33.432  13.487
55733W        W17044  42.881  34.913   2.806
55734W        W17045  35.878  27.094   0.753
55735W        W17046  11.765  10.861  14.974
55736W        W17047  39.050   1.364  14.953
55737W        W17048  25.213   3.811  14.314
55738W        W17049  10.222  27.960  14.812
55739W        W17050  11.805  11.339  14.370
55740W        W17051   7.391   2.799  10.428
55741W        W17052  29.570   6.229   1.866
55742W        W17053  19.253  44.846   4.119
55743W        W17054  35.526  23.028   4.666
55744W        W17055  31.530  38.452  14.344
55745W        W17056  24.480  34.383  12.496
55746W        W17057  24.094  41.825   3.243
55747W        W17058  18.089  36.024   2.737
55748W        W17059  21.059  19.671   1.301
55749W        W17060   9.164  11.364  12.512
55750W        W17061   1.407  44.927   3.243
55751W        W17062  14.834  39.000  10.534
55752W        W17063  12.787  14.302   1.926
55753W        W17064   7.335  11.787  12.071
55754W        W17065   9.306  16.260   5.686
55755W        W17066  39.023  12.129   0.334
55756W        W17067  33.916   7.836   3.278
55757W        W17068  23.656  32.967   0.246
55758W        W17069  19.252  38.403  11.409
55759W        W17070   3.896   4.281   0.470
55760W        W17071  29.989  25.156   4.226
55761W        W17072  24.229  33.903  13.947
55762W        W17073  41.364  27.643   4.177
55763W        W17074  24.669  38.015  12.514
55764W        W17075  14.638  14.251   3.772
55765W        W17076   9.203   3.804  10.495
55766W        W17077  43.941   8.263  13.448
55767W        W17078   1.765  32.391  13.933
55768W        W17079   7.701  16.750  13.837
55769W        W17080  19.768  34.383   1.337
55770W        W17081  37.429  16.775   9.958
55771W        W17082  32.886  12.171  10.898
55772W        W17083  15.206  29.134   2.742
55773W        W17084  40.043   2.339  12.939
55774W        W17085   1.800  30.467  12.444
55775W        W17086  12.339  36.535   1.213
55776W        W17087  18.133  22.077  12.927
55777W        W17088  25.648  42.290   2.370
55778W        W17089   4.219  41.365  14.512
55779W        W17090  25.515   1.238  14.946
55780W        W17091  22.143  22.050   4.665
55781W        W17092  33.401  37.002  12.555
55782W        W17093  37.419   3.305  11.004
55783W        W17094  44.889  23.094  13.827
55784W        W17095  34.922  30.060  11.057
55785W        W17096  35.063  23.581  14.893
55786W        W17097  40.987  38.481  11.928
55787W        W17098  31.133   2.768  14.325
55788W        W17099  40.988  13.729   2.317
55789W        W17100  38.053  35.970  13.931
55790W        W17101  42.868  24.214   4.742
55791W        W17102  14.140  35.077   4.165
55792W        W17103  16.617  35.997   0.923
55793W        W17104   0.251   8.658   1.440
55794W        W17105  28.066  41.491  11.864
55795W        W17106   0.861  14.261  12.535
55796W        W17107  20.207   1.329  12.062
55797W        W17108  43.314  24.039   4.299
55798W        W17109  24.172  19.560  11.859
55799W        W17110  27.166  43.495   3.658
55800W        W17111   4.336  39.950  11.899
55801W        W17112  20.683  36.879   4.810
55802W        W17113  30.538  31.034   4.650
55803W        W17114  36.076   4.349   3.208
55804W        W17115  36.408  28.656   2.296
55805W        W17116   1.321  34.045   4.131
55806W        W17117  35.364  41.971   4.753
55807W        W17118  11.738   6.321  11.001
55808W        W17119  23.073  44.815   1.816
55809W        W17120  11.315  13.309   3.649
55810W        W17121  33.109  40.303   4.628
55811W        W17122  32.903  10.651  13.028
55812W        W17123  34.535  40.538   1.276
55813W        W17124  11.263  29.175  13.352
55814W        W17125   7.194  10.263  11.026
55815W        W17126   9.734   2.340  12.360
55816W        W17127  38.542  25.610  10.960
55817W        W17128  18.773   0.357   1.824
55818W        W17129  29.483  31.151   1.776
55819W        W17130  14.708  12.690  11.068
55820W        W17131  37.579   3.767  14.400
55821W        W17132  24.109  39.811   4.717
55822W        W17133   2.912  24.146   2.875
55823W        W17134  18.052  21.599   1.873
55824W        W17135  37.554  29.106  11.561
55825W        W17136   8.167  19.248   1.360
55826W        W17137   1.882  40.947   3.309
55827W        W17138  13.846  20.553   0.339
55828W        W17139   5.821  17.072   0.464
55829W        W17140  36.862   9.202   3.684
55830W        W17141  32.539  37.939   4.218
55831W        W17142  33.055  38.509   3.742
55832W        W17143  36.558  37.410  13.539
55833W        W17144   9.189  24.694   1.850
55834W        W17145  26.105  44.388  11.906
55835W        W17146  20.166   7.280   3.715
55836W        W17147  32.592   5.845  11.537
55837W        W17148   7.365  33.442   4.638
55838W        W17149  14.126   7.727   3.194
55839W        W17150   5.329  28.497   1.794
55840W        W17151  21.608   6.899  11.032
55841W        W17152   4.723  13.288  10.999
55842W        W17153  12.772   2.749   2.272
55843W        W17154  19.160  25.080   0.349
55844W        W17155   3.714   7.374   3.630
55845W        W17156  15.127  36.491   1.812
55846W        W17157  43.835   3.414  12.854
55847W        W17158  12.713  12.341   2.843
55848W        W17159  15.770  42.451  13.886
55849W        W17160  21.556  13.723   1.439
55850W        W17161  32.613  30.545   3.185
55851W        W17162  14.248  18.052   3.180
55852W        W17163  12.246  31.940  14.799
55853W        W17164  17.723  35.919  13.475
55854W        W17165  32.916   6.186   2.812
55855W        W17166  12.209  12.212   3.665
55856W        W17167  22.561  33.392  13.475
55857W        W17168  32.502  37.358   2.239
55858W        W17169  20.051  29.496  13.893
55859W        W17170  33.896  39.885  14.432
55860W        W17171  21.195  41.400  14.888
55861W        W17172  41.864  29.451  10.577
55862W        W17173  10.173  24.553   4.710
55863W        W17174  21.138  35.943  11.540
55864W        W17175  25.664  32.911   3.660
55865W        W17176  26.207  31.086  11.014
55866W        W17177   9.252  43.983  11.439
55867W        W17178  14.822  39.037  14.784
55868W        W17179   1.390  20.175  12.859
55869W        W17180  39.375   5.833   0.776
55870W        W17181   0.247  44.772   3.792
55871W        W17182  17.767  25.573  14.414
55872W        W17183  37.022   8.758   2.809
55873W        W17184  17.180   0.956   2.706
55874W        W17185   0.881  38.872  13.940
55875W        W17186   8.236  44.464  14.329
55876W        W17187  20.159  30.021   4.807
55877W        W17188  33.897  17.708  13.391
55878W        W17189  18.175  25.020  13.047
55879W        W17190  22.141  30.096   3.694
55880W        W17191  27.996   5.367  12.863
55881W        W17192   9.878   3.855  12.924
55882W        W17193  18.603   1.899   4.677
55883W        W17194  21.049  39.810  12.345
55884W        W17195  31.896  43.311  13.791
55885W        W17196  44.845  39.392   3.230
55886W        W17197  11.171  35.381  10.640
55887W        W17198  16.652   5.396  12.851
55888W        W17199  26.009  15.713   4.737
55889W        W17200  38.979  11.755   3.690
55890W        W17201  37.368  24.081   2.295
55891W        W17202   1.259  14.714  11.454
55892W        W17203  11.246   5.784  12.969
55893W        W17204  31.059  44.986  11.598
55894W        W17205  37.443  11.323   9.955
55895W        W17206  13.705  20.073   3.383
55896W        W17207  15.755  40.463   1.737
55897W        W17208  14.806  36.502  14.017
55898W        W17209  33.077  30.513   2.410
55899W        W17210   7.696  29.654   0.346
55900W        W17211  34.923   4.795  12.044
55901W        W17212  26.185  30.105  13.529
55902W        W17213   2.929  35.474  12.009
55903W        W17214   0.486  34.028   2.725
55904W        W17215  41.422  25.127  11.954
55905W        W17216  14.652  21.698   3.264
55906W        W17217   6.747  22.174  12.889
55907W        W17218  30.612  29.956   0.384
55908W        W17219  42.283  21.687  12.831
55909W        W17220   7.733  25.015   9.996
55910W        W17221   5.434  21.681  14.405
55911W        W17222  19.705   0.926   3.278
55912W        W17223  13.265  33.610  10.936
55913W        W17224  39.341   9.746  13.840
55914W        W17225  18.286  17.120  11.471
55915W        W17226   5.892   1.253   2.841
55916W        W17227  33.974  13.200   3.712
55917W        W17228  38.906   7.185  10.094
55918W        W17229   2.249  17.725  13.945
55919W        W17230  34.106  17.612   2.679
55920W        W17231  41.424  37.870  14.509
55921W        W17232  36.567  24.588  10.531
55922W        W17233  27.942  13.687   1.396
55923W        W17234  40.929  32.497   0.966
55924W        W17235  31.954   1.458   3.212
55925W        W17236  16.318   9.335   4.718
55926W        W17237  43.359   0.445   2.374
55927W        W17238  11.228  34.422  10.987
55928W        W17239  30.040  33.462  14.390
55929W        W17240  23.507  32.453   2.268
55930W        W17241   4.843  24.554   0.856
55931W        W17242  33.450  33.083  11.565
55932W        W17243  23.627  13.777   1.278
55933W        W17244  12.301  14.715  10.995
55934W        W17245  41.795  17.154   2.274
55935W        W17246  37.484   8.773  12.913
55936W        W17247   9.693  34.557   3.311
55937W        W17248   8.362  29.156   4.631
55938W        W17249  28.464  25.622  10.552
55939W        W17250   3.251  40.032  12.013
55940W        W17251  16.700  11.789   5.169
55941W        W17252  13.801  31.502   3.799
55942W        W17253  37.924  30.983  12.960
55943W        W17254  31.028  23.993  14.334
55944W        W17255  43.971  10.782   1.334
55945W        W17256  10.776   8.877  10.943
55946W        W17257  22.061  11.851   4.757
55947W        W17258  30.051  28.953   0.464
55948W        W17259   5.819  37.396   4.801
55949W        W17260  12.646   1.743  12.882
55950W        W17261  29.985  41.313  14.438
55951W        W17262  20.710  36.854   4.152
55952W        W17263  43.811   4.277  14.786
55953W        W17264  18.769  36.974   0.855
55954W        W17265  34.986   1.768   1.806
55955W        W17266  15.665  40.487  13.366
55956W        W17267  22.599  25.194   0.731
55957W        W17268  21.066  10.761  13.841
55958W        W17269  19.567  13.627   1.269
55959W        W17270  21.160  11.316  12.069
55960W        W17271  14.826  43.963   3.269
55961W        W17272  44.885   0.894   1.411
55962W        W17273  40.927  12.277   2.862
55963W        W17274  11.774  17.086  13.415
55964W        W17275  24.506   2.406   2.393
55965W        W17276  29.596  44.831  14.421
55966W        W17277  37.892  41.959   2.300
55967W        W17278  40.436  15.612  11.945
55968W        W17279   2.791  31.000   4.267
55969W        W17280  23.628  37.527   0.818
55970W        W17281  18.292  24.603   3.337
55971W        W17282  14.665  23.576  11.534
55972W        W17283   9.681  30.071  13.880
55973W        W17284  31.094  30.440  13.379
55974W        W17285   4.744  23.572   4.705
55975W        W17286  40.888  16.178  14.770
55976W        W17287  18.260  43.426  12.933
55977W        W17288   6.879  12.751   4.777
55978W        W17289  27.002  31.619  10.416
55979W        W17290  29.135  18.090  10.518
55980W        W17291  33.470   7.807   1.747
55981W        W17292  24.191  18.262  14.334
55982W        W17293  22.519  21.750  12.881
55983W        W17294  22.696  11.185   4.605
55984W        W17295   6.844  28.099  14.795
55985W        W17296  16.717  26.545  12.087
55986W        W17297   2.853  23.561  12.859
55987W        W17298  28.967   7.280   1.270
55988W        W17299  16.264  12.746   1.786
55989W        W17300  13.120   9.691   1.863
55990W        W17301  41.342  22.221  14.313
55991W        W17302  30.457   6.355   2.775
55992W        W17303   2.302   8.671   2.832
55993W        W17304  17.061  16.094  12.559
55994W        W17305  19.195   5.746  13.379
55995W        W17306  18.554  16.100   2.415
55996W        W17307  15.102   8.856   4.628
55997W        W17308  39.491  13.292  14.797
55998W        W17309  29.664  23.608  10.064
55999W        W17310  29.478  19.637   2.246
56000W        W17311  44.267  33.930   2.781
56001W        W17312  18.258   7.844   0.255
56002W        W17313  41.033  13.674  12.537
56003W        W17314   2.900  20.184   1.367
56004W        W17315  35.584   3.805  12.364
56005W        W17316  27.473   1.790   3.150
56006W        W17317  35.443   3.869  11.551
56007W        W17318  24.672  20.109   3.856
56008W        W17319  43.979  18.694  10.611
56009W        W17320   0.984  30.986  13.488
56010W        W17321  18.637   6.827  13.378
56011W        W17322  12.707  24.619  12.565
56012W        W17323  10.188  10.251   1.352
56013W        W17324  34.410   4.871   3.712
56014W        W17325  18.137  23.116  12.838
56015W        W17326  34.587  21.585  10.601
56016W        W17327  14.197  19.242  10.436
56017W        W17328  19.098  25.981   3.694
56018W        W17329  26.498   4.360  13.860
56019W        W17330  24.668   7.823   2.223
56020W        W17331  13.251  34.900  14.018
56021W        W17332  13.616   9.836   2.243
56022W        W17333  28.183  29.172  14.408
56023W        W17334  42.014  15.109  14.438
56024W        W17335   3.825  25.689  14.860
56025W        W17336  42.902   6.391  11.407
56026W        W17337  11.293   1.462   2.309
56027W        W17338   5.812   7.867   4.330
56028W        W17339  11.186  37.367   4.234
56029W        W17340   5.695  36.991   3.242
56030W        W17341  12.812  14.257   3.309
56031W        W17342  14.644  26.025   4.280
56032W        W17343  16.661  41.837  10.573
56033W        W17344  21.527  26.640  11.018
56034W        W17345  31.031  39.869   0.821
56035W        W17346  22.503  36.083  12.445
56036W        W17347  40.322  16.149  10.560
56037W        W17348  12.196  15.704  11.474
56038W        W17349  26.644  10.167   3.335
56039W        W17350  35.091  42.970   0.959
56040W        W17351  42.031  11.361  14.278
56041W        W17352   7.711  37.366   5.170
56042W        W17353  41.411  40.846  13.873
56043W        W17354   4.331  31.990  11.124
56044W        W17355  32.497  21.628  13.448
56045W        W17356  41.337  16.264  10.411
56046W        W17357  37.388  41.357   2.702
56047W        W17358  39.060   8.200   3.164
56048W        W17359   5.875  41.861  12.553
56049W        W17360  26.492  17.771   3.164
56050W        W17361  40.313   4.919  10.445
56051W        W17362  16.580  28.595   3.721
56052W        W17363   3.865  41.354   3.266
56053W        W17364  39.402  43.510  14.024
56054W        W17365   9.315  24.177  12.050
56055W        W17366   1.317  10.275   0.472
56056W        W17367   8.224  27.511  11.082
56057W        W17368  26.099  29.495  14.378
56058W        W17369   1.459  19.739  13.898
56059W        W17370  28.092  32.101  10.422
56060W        W17371  40.472  19.121   1.330
56061W        W17372  27.051  13.761   4.752
56062W        W17373   7.896   3.753  12.062
56063W        W17374  30.971  13.112  14.837
56064W        W17375  35.400   4.874  13.993
56065W        W17376  33.932  36.059   3.801
56066W        W17377  31.507   0.415   0.367
56067W        W17378  15.227  12.767   0.395
56068W        W17379  10.186  12.690   3.839
56069W        W17380  34.911   6.766   3.863
56070W        W17381  20.606  27.604  11.874
56071W        W17382  13.638   5.914  13.947
56072W        W17383  35.004  23.153   0.349
56073W        W17384   5.813  22.600   4.817
56074W        W17385  12.614  30.915  14.981
56075W        W17386  23.563  21.668   2.761
56076W        W17387  41.835  27.046   1.439
56077W        W17388  23.172  15.658  14.457
56078W        W17389  38.901  15.273   1.930
56079W        W17390  11.692  20.754  10.460
56080W        W17391  33.496  12.138  13.806
56081W        W17392  11.349  23.608  11.866
56082W        W17393  38.463   4.227  12.858
56083W        W17394   9.822  18.277   4.300
56084W        W17395  10.374  12.742  13.521
56085W        W17396  43.940  35.497   2.206
56086W        W17397  22.625  34.402  12.016
56087W        W17398  17.268  32.138   5.274
56088W        W17399  32.001   9.798  14.841
56089W        W17400  19.052  11.625  14.001
56090W        W17401  35.009  27.601  11.092
56091W        W17402  15.305  10.179  11.976
56092W        W17403  12.673  21.739  10.422
56093W        W17404  44.306   1.958  14.359
56094W        W17405  12.241  42.321  11.123
56095W        W17406  23.157   9.210  14.329
56096W        W17407  32.518  39.462   1.337
56097W        W17408  22.673  38.857   1.382
56098W        W17409  36.994  16.292   2.288
56099W        W17410  41.977  26.064   3.175
56100W        W17411   4.865  23.733  13.869
56101W        W17412  39.983  18.767   1.726
56102W        W17413  14.150   5.387   4.224
56103W        W17414   6.322  15.712   2.380
56104W        W17415  26.144  11.758   1.293
56105W        W17416   6.707  41.976  10.608
56106W        W17417  17.245  15.100   3.177
56107W        W17418  35.396  43.325   0.918
56108W        W17419  17.254  24.669  10.061
56109W        W17420   9.211  44.334  12.839
56110W        W17421  44.479  42.502   2.375
56111W        W17422  27.968   5.395  14.836
56112W        W17423  10.223   0.888   2.201
56113W        W17424  29.441  36.056   1.780
56114W        W17425  28.945   9.770   2.409
56115W        W17426  34.489   0.296   1.849
56116W        W17427   7.744  11.813  10.063
56117W        W17428   6.399   8.660  13.966
56118W        W17429  10.772  39.968   3.689
56119W        W17430  39.861  15.208   2.755
56120W        W17431   5.413  22.091   4.250
56121W        W17432  21.704   4.850  13.952
56122W        W17433  41.472   5.769   3.261
56123W        W17434   2.331  43.008  10.896
56124W        W17435  14.143  26.579   2.377
56125W        W17436   1.370   4.313  10.941
56126W        W17437  12.338  12.194  12.928
56127W        W17438  26.184  17.262  13.451
56128W        W17439  18.124  30.030  12.026
56129W        W17440   4.942  23.229  10.970
56130W        W17441  22.089   9.787   0.450
56131W        W17442  32.064  10.692  14.878
56132W        W17443  43.343  40.829   4.703
56133W        W17444   3.395  10.344   2.734
56134W        W17445  30.438  36.030   3.754
56135W        W17446  37.526  44.332  10.538
56136W        W17447  43.945   5.916   1.358
56137W        W17448  41.412  21.700  12.355
56138W        W17449   9.156   7.859  10.916
56139W        W17450  18.222   3.840   4.604
56140W        W17451  30.145  41.816  12.462
56141W        W17452  27.036  32.978  13.544
56142W        W17453  16.213  21.735  10.409
56143W        W17454  22.623  37.927  13.970
56144W        W17455   1.389  18.104   1.783
56145W        W17456  26.464   8.172   1.310
56146W        W17457  30.112   1.973  13.011
56147W        W17458  22.211  15.751  11.025
56148W        W17459   6.391  35.050   3.202
56149W        W17460   2.827  12.632   0.800
56150W        W17461  15.228  33.926   3.670
56151W        W17462   4.832  18.249   2.822
56152W        W17463  27.676   8.279  14.372
56153W        W17464  14.756  44.300   3.376
56154W        W17465   1.936  18.744  13.313
56155W        W17466   8.164   3.313  10.553
56156W        W17467  35.545  10.252  10.433
56157W        W17468  31.041   9.293   3.165
56158W        W17469   1.347   3.774   1.361
56159W        W17470   2.796  42.865   4.625
56160W        W17471   0.980   1.244  11.914
56161W        W17472  22.651  16.797   4.309
56162W        W17473  30.494  35.071  10.573
56163W        W17474  20.651  30.035   9.990
56164W        W17475  28.508  22.740  14.812
56165W        W17476  28.982  42.994  10.588
56166W        W17477  14.274  32.106   0.882
56167W        W17478   1.893  39.059  14.904
56168W        W17479  33.039  40.027   2.262
56169W        W17480  33.492  14.622  11.397
56170W        W17481  30.910  26.609   2.669
56171W        W17482  20.165  27.052   4.814
56172W        W17483  39.503  43.795  11.443
56173W        W17484  34.610  15.259   4.642
56174W        W17485  18.108  10.666  11.936
56175W        W17486  38.850   1.294   4.704
56176W        W17487  24.981   3.297  10.903
56177W        W17488  30.573  13.248  13.932
56178W        W17489  20.096  24.070  12.972
56179W        W17490  19.542   7.367  11.058
56180W        W17491  38.878  25.582   0.784
56181W        W17492  37.496  28.668  11.515
56182W        W17493  43.454  10.753   0.444
56183W        W17494  41.376  25.188   3.366
56184W        W17495   3.839  11.261   2.266
56185W        W17496  36.399  38.027   5.208
56186W        W17497  20.109  40.962   4.288
56187W        W17498   5.804  26.003  10.472
56188W        W17499  29.437  42.990  13.032
56189W        W17500   2.888   8.771  14.276
56190W        W17501  25.583  27.596   0.766
56191W        W17502  26.124  15.228   3.662
56192W        W17503  40.860  32.902  10.950
56193W        W17504  32.544  32.941   0.777
56194W        W17505  26.987  30.132   1.784
56195W        W17506  44.308   4.262   1.825
56196W        W17507  28.499  22.176   1.699
56197W        W17508  16.600  19.776   3.304
56198W        W17509  25.559  21.636  14.000
56199W        W17510  15.673  33.923  12.503
56200W        W17511  34.440  30.455  12.064
56201W        W17512   1.889  30.588   2.716
56202W        W17513  29.480   8.819  13.337
56203W        W17514  39.914   8.860   4.671
56204W        W17515  14.302  29.427  10.529
56205W        W17516  40.972  39.011   3.770
56206W        W17517  18.566  33.053  13.827
56207W        W17518  44.260  39.897   4.329
56208W        W17519   6.347  13.838  13.961
56209W        W17520   0.289  17.197   1.211
56210W        W17521  16.621  23.035   3.824
56211W        W17522  17.133  39.906   4.200
56212W        W17523  23.204  36.936  13.460
56213W        W17524   7.809  29.586   1.834
56214W        W17525  21.585  42.486   1.425
56215W        W17526   3.296   7.695   1.329
56216W        W17527  34.064  31.506  14.490
56217W        W17528   3.824  39.423  12.941
56218W        W17529   5.211  18.648   3.709
56219W        W17530  14.132   2.454   2.233
56220W        W17531  28.009   4.714  14.305
56221W        W17532  29.163  33.009  14.809
56222W        W17533  30.124  21.180   0.437
56223W        W17534  39.934   7.856  14.958
56224W        W17535  38.977  19.267  14.421
56225W        W17536   8.779  25.075  11.041
56226W        W17537  42.966  23.602   3.272
56227W        W17538  10.692  16.666   4.212
56228W        W17539  16.813  20.101  14.279
56229W        W17540  17.287  28.158  12.992
56230W        W17541  17.671  28.010  11.441
56231W        W17542   3.329  44.843  12.903
56232W        W17543  30.111   8.406  11.067
56233W        W17544  40.957   3.395   0.819
56234W        W17545  38.514   5.351  12.538
56235W        W17546  21.106  28.153  12.400
56236W        W17547  12.810   5.726  11.954
56237W        W17548  13.202   2.919   2.267
56238W        W17549  42.974  17.793   4.766
56239W        W17550   7.797  19.039  11.582
56240W        W17551  27.665  31.561   1.353
56241W        W17552  23.599  23.617  13.896
56242W        W17553  16.663  27.154  12.966
56243W        W17554  27.491  26.124  13.837
56244W        W17555  26.552  27.484   2.703
56245W        W17556  14.314  25.962  11.126
56246W        W17557  22.093  29.156   5.137
56247W        W17558  21.121   5.212  10.463
56248W        W17559  28.048  22.628  10.931
56249W        W17560   4.325  17.567  13.052
56250W        W17561  14.665   4.418  11.987
56251W        W17562  33.023   9.312   2.863
56252W        W17563  27.184  28.080   4.763
56253W        W17564  26.613  22.571   1.854
56254W        W17565   7.751  33.120   2.231
56255W        W17566  20.093  11.157   3.286
56256W        W17567  23.116  39.389   3.384
56257W        W17568  23.056   7.867   2.294
56258W        W17569  40.434  38.957  14.988
56259W        W17570  10.789  44.948   1.268
56260W        W17571   6.314  25.203  13.974
56261W        W17572  10.235   6.363   4.762
56262W        W17573  39.421  44.953   1.385
56263W        W17574   4.847   2.885  13.387
56264W        W17575  36.586  37.942   4.669
56265W        W17576  31.061  35.858  12.879
56266W        W17577  27.137   2.916  13.402
56267W        W17578  35.108  27.607  14.877
56268W        W17579  11.240  26.998   0.414
56269W        W17580  12.300  20.554   1.856
56270W        W17581  12.736   3.231   1.432
56271W        W17582  27.547  39.475   2.368
56272W        W17583  42.409  30.649  11.044
56273W        W17584   6.689  24.585   1.258
56274W        W17585   4.310  35.386   0.266
56275W        W17586   8.223   2.890   1.758
56276W        W17587  38.974  28.034   4.836
56277W        W17588  18.155  20.656  14.811
56278W        W17589  43.824  14.627  14.966
56279W        W17590  13.104  15.786  12.571
56280W        W17591  33.922  10.834  11.928
56281W        W17592  10.683   2.867  13.937
56282W        W17593  41.918   9.749   3.336
56283W        W17594  32.489  25.484  12.851
56284W        W17595  43.318   8.827  10.915
56285W        W17596  22.023  32.530  14.315
56286W        W17597   9.264  10.716  10.467
56287W        W17598  42.937  36.978  10.540
56288W        W17599   5.915  20.128   3.776
56289W        W17600   1.456  35.406  14.778
56290W        W17601  34.469  20.561   2.188
56291W        W17602  41.359   1.260  12.479
56292W        W17603   5.376  36.947   0.789
56293W        W17604   5.777  36.535   4.739
56294W        W17605  15.643   7.296   3.818
56295W        W17606  18.572  22.504  10.498
56296W        W17607  19.717  39.935   2.898
56297W        W17608  42.434  18.061  11.892
56298W        W17609  16.179  27.962   0.929
56299W        W17610  20.152  18.679   2.697
56300W        W17611  17.720  32.124   2.308
56301W        W17612   7.248   2.801   2.355
56302W        W17613  17.621  34.947   2.366
56303W        W17614  10.719  29.490   1.226
56304W        W17615  33.473  14.594  13.890
56305W        W17616  34.917  28.485  14.857
56306W        W17617  11.337  42.482  14.026
56307W        W17618  32.546  13.757  11.970
56308W        W17619  42.782  12.185  10.510
56309W        W17620  14.111   6.305  13.011
56310W        W17621  12.267   6.775  12.091
56311W        W17622  31.474   1.461   2.179
56312W        W17623   4.329  31.901   1.785
56313W        W17624  27.459  22.683  14.869
56314W        W17625  42.802  16.607  12.406
56315W        W17626  43.434  33.048  13.539
56316W        W17627  31.011  40.462   1.851
56317W        W17628  18.055  23.635  10.095
56318W        W17629  11.704  21.725  10.893
56319W        W17630  34.959   1.241  13.407
56320W        W17631  18.110  36.877   4.333
56321W        W17632  33.483  19.114  14.875
56322W        W17633  37.939  40.866   1.245
56323W        W17634  14.632  16.801   4.661
56324W        W17635  22.066  11.733   2.265
56325W        W17636  44.809   0.409   4.753
56326W        W17637   6.223  40.857   3.269
56327W        W17638  20.580  38.015   0.765
56328W        W17639  39.322  27.539   2.302
56329W        W17640  35.410  17.260   3.704
56330W        W17641  41.897  30.531  11.481
56331W        W17642  10.348  19.149  14.877
56332W        W17643  35.529  29.543   3.742
56333W        W17644  37.056  36.519  14.917
56334W        W17645  34.897  43.858   3.734
56335W        W17646  34.867  37.956   0.438
56336W        W17647  23.019   7.752  11.111
56337W        W17648   6.299   8.809  10.994
56338W        W17649  26.550  38.523  11.375
56339W        W17650  43.302   8.848   3.187
56340W        W17651   5.365  23.612   0.253
56341W        W17652  29.974  35.064  10.525
56342W        W17653  30.140   2.816  12.914
56343W        W17654  39.847  39.956   1.246
56344W        W17655  23.045   6.808   4.607
56345W        W17656  28.948  38.009   1.757
56346W        W17657   3.269  17.795   2.295
56347W        W17658   6.753   4.334  13.390
56348W        W17659  10.849  39.865   2.878
56349W        W17660  20.213  36.542  14.009
56350W        W17661  31.455  14.187  14.818
56351W        W17662  36.570   0.492   4.185
56352W        W17663  17.643  35.076  12.550
56353W        W17664  26.109  38.382  11.594
56354W        W17665  26.125  41.927  11.536
56355W        W17666   9.238   8.231  11.493
56356W        W17667  25.569  36.392  12.357
56357W        W17668  21.245  39.465  14.909
56358W        W17669  16.303  35.590   0.866
56359W        W17670  41.915   6.257  13.012
56360W        W17671  18.572  26.644   1.696
56361W        W17672  22.162   4.751   1.402
56362W        W17673  36.372  43.457   3.769
56363W        W17674  34.982   2.757   0.765
56364W        W17675  40.539  35.546   1.428
56365W        W17676  29.044   6.781  12.427
56366W        W17677  28.471  24.560   1.283
56367W        W17678  20.050  33.483   4.145
56368W        W17679  26.652  14.213  12.549
56369W        W17680  37.462  19.234  10.437
56370W        W17681  29.502  18.546  10.946
56371W        W17682  11.821  32.129   3.817
56372W        W17683  26.987  40.998   1.421
56373W        W17684  28.462  19.127   3.813
56374W        W17685  39.034  37.035  14.931
56375W        W17686  20.573  32.093  14.844
56376W        W17687  24.662  25.969   3.827
56377W        W17688  41.530  40.548   4.145
56378W        W17689  44.976  23.183  12.382
56379W        W17690  18.101  43.939  10.546
56380W        W17691  24.623  35.539  10.951
56381W        W17692  23.493   9.283  12.897
56382W        W17693  38.343  36.875  10.641
56383W        W17694  34.468  27.066   4.617
56384W        W17695  27.069  25.077  10.632
56385W        W17696  24.547  37.903   0.300
56386W        W17697  37.493   2.737  11.914
56387W        W17698   8.361  41.440   1.441
56388W        W17699  20.602  12.651  12.430
56389W        W17700   4.220   3.299   2.254
56390W        W17701  21.118  10.187   0.413
56391W        W17702  16.756   3.373   1.221
56392W        W17703  37.014  22.051   3.860
56393W        W17704  12.652  13.604   1.222
56394W        W17705  25.045  30.997  14.925
56395W        W17706  16.616   8.662   0.345
56396W        W17707  13.770  11.679  14.507
56397W        W17708  25.640  41.491   3.680
56398W        W17709   1.438  43.947  14.857
56399W        W17710  34.097  14.116   1.748
56400W        W17711   5.271   2.377  14.916
56401W        W17712  32.520  10.717  11.571
56402W        W17713  38.058  26.171   0.783
56403W        W17714   9.880  27.073  10.435
56404W        W17715  10.382  39.386  13.014
56405W        W17716  34.588  15.787   0.475
56406W        W17717  35.106   6.293  12.069
56407W        W17718  43.960   5.784   3.149
56408W        W17719  42.404  12.207   2.761
56409W        W17720  37.389  30.611   1.289
56410W        W17721  42.814  24.218  11.442
56411W        W17722   1.756  40.427   4.224
56412W        W17723  34.393  27.659   2.829
56413W        W17724  17.727  41.357  14.354
56414W        W17725  29.612  14.297  10.913
56415W        W17726  26.509  18.716   9.983
56416W        W17727  40.938  20.097  11.939
56417W        W17728  18.109  10.210   1.749
56418W        W17729  10.328  33.544  13.870
56419W        W17730  20.626  16.646  13.320
56420W        W17731  35.507  12.647   3.675
56421W        W17732   5.252  26.197  14.340
56422W        W17733  12.178   4.437   1.282
56423W        W17734  28.162  17.280   0.902
56424W        W17735  44.433  11.820  14.337
56425W        W17736  24.190  41.328   2.680
56426W        W17737  37.515  33.904  11.520
56427W        W17738  18.564  30.036   4.814
56428W        W17739  17.305  14.330  13.437
56429W        W17740   4.280  32.090   3.750
56430W        W17741  32.463  25.061  10.976
56431W        W17742  10.834  26.099   3.360
56432W        W17743  30.541  40.848   2.751
56433W        W17744  31.014  19.710  11.071
56434W        W17745   3.884  19.149   4.318
56435W        W17746  23.635  19.660  10.483
56436W        W17747  14.153  14.126   3.808
56437W        W17748  21.574  35.511   0.453
56438W        W17749  43.946  18.170  14.984
56439W        W17750   7.776   1.473  13.313
56440W        W17751  21.159  40.045   1.236
56441W        W17752   6.830  29.459   0.427
56442W        W17753   4.389  20.122  13.902
56443W        W17754  16.774  20.162  12.993
56444W        W17755  32.429  22.683   0.936
56445W        W17756  36.034  25.696   1.696
56446W        W17757  29.511   0.455  13.429
56447W        W17758   5.398  24.689  10.903
56448W        W17759  25.478  22.528  14.851
56449W        W17760  43.407  41.520  13.922
56450W        W17761  44.772  27.591  14.427
56451W        W17762  40.015  12.838   2.219
56452W        W17763  10.259  21.154  13.318
56453W        W17764   1.969  29.033  11.877
56454W        W17765  10.863  44.304   3.189
56455W        W17766  22.635  18.165  11.388
56456W        W17767  25.703  31.031  11.458
56457W        W17768  32.018   7.207   1.273
56458W        W17769  16.310  20.029   2.254
56459W        W17770  11.859  33.934  13.960
56460W        W17771  44.907  35.562  12.993
56461W        W17772   1.773  21.725  11.583
56462W        W17773   6.798  21.216   4.282
56463W        W17774   9.373  10.825   3.668
56464W        W17775  17.199  35.566  12.977
56465W        W17776   1.845   3.235   0.885
56466W        W17777  24.480   4.793   2.343
56467W        W17778  25.470  23.019  11.600
56468W        W17779  33.113  32.948  13.030
56469W        W17780   8.795  20.556   0.946
56470W        W17781  26.074   8.350   0.801
56471W        W17782   3.273   7.778  13.064
56472W        W17783   0.856  36.984  11.444
56473W        W17784  40.406  17.708   1.412
56474W        W17785   8.844  35.869   3.353
56475W        W17786  17.622  30.555  11.044
56476W        W17787  15.593   2.351  12.907
56477W        W17788  22.739  28.680   2.717
56478W        W17789  35.076  15.715  12.879
56479W        W17790  12.292  17.089   0.466
56480W        W17791  37.082  35.524   0.967
56481W        W17792  42.851  29.937   4.625
56482W        W17793  25.171  18.166  10.560
56483W        W17794  12.288  16.076   1.789
56484W        W17795  12.841  18.202   2.394
56485W        W17796  39.453  34.932  12.024
56486W        W17797  32.908   9.290  11.396
56487W        W17798  36.415  38.860  13.968
56488W        W17799  44.886  13.257  14.769
56489W        W17800  31.428  29.581   0.426
56490W        W17801   3.381  39.373  11.124
56491W        W17802  30.643   6.274   0.420
56492W        W17803  42.480  23.586   4.248
56493W        W17804  17.802   2.299   2.354
56494W        W17805   6.230  16.601  12.441
56495W        W17806  35.482  11.675  11.505
56496W        W17807  12.684  31.407  10.497
56497W        W17808   6.763   0.960  10.993
56498W        W17809  35.542  21.576   1.829
56499W        W17810  39.915  37.906  10.572
56500W        W17811  30.946  28.162  11.877
56501W        W17812   4.855  40.520  13.928
56502W        W17813  21.046   5.697  11.476
56503W        W17814  35.096  40.923   1.383
56504W        W17815  14.754  30.494   1.725
56505W        W17816  18.244  35.553   1.769
56506W        W17817  40.887  35.002   1.317
56507W        W17818   1.391   5.207  14.971
56508W        W17819  44.804  31.090   3.791
56509W        W17820  44.472   5.277   2.222
56510W        W17821   9.203  30.565   1.771
56511W        W17822   5.248  22.108   0.275
56512W        W17823  40.048  38.361  11.976
56513W        W17824   3.758  44.373  12.900
56514W        W17825  32.459   6.696   9.967
56515W        W17826  35.601  29.632   2.723
56516W        W17827   9.646  20.241   1.269
56517W        W17828   4.322  43.413   3.288
56518W        W17829  26.597   7.275   3.283
56519W        W17830  35.587  25.156  14.489
56520W        W17831  19.547  19.721  12.830
56521W        W17832  14.326  14.099  11.038
56522W        W17833  37.510  31.409   2.392
56523W        W17834  42.458  30.929   0.869
56524W        W17835   4.745  43.461  13.451
56525W        W17836   4.698  35.505   4.821
56526W        W17837  17.139   8.886   4.623
56527W        W17838   1.475  22.582   1.441
56528W        W17839   5.711  10.342   2.830
56529W        W17840  10.798  34.550   4.171
56530W        W17841  41.479  20.569   4.142
56531W        W17842   8.184   6.284   2.737
56532W        W17843  38.858  38.326  11.558
56533W        W17844   5.775  36.463  14.763
56534W        W17845  14.111  37.056  11.516
56535W        W17846  39.864  44.419  14.790
56536W        W17847  25.006   3.416   3.161
56537W        W17848  11.318  43.351   1.319
56538W        W17849  33.099  19.121   4.187
56539W        W17850   5.736   8.836  11.496
56540W        W17851  34.066  31.941   0.304
56541W        W17852  44.474  31.648  14.891
56542W        W17853  41.321  34.880   3.363
56543W        W17854   9.158  12.313   4.669
56544W        W17855  32.031  43.787   0.398
56545W        W17856   3.900  12.261   0.387
56546W        W17857  31.110  35.886  13.465
56547W        W17858  18.738   8.655  11.564
56548W        W17859  30.939  41.444   1.428
56549W        W17860  12.848  18.129   2.823
56550W        W17861  30.023  16.298   4.343
56551W        W17862   3.439  36.539   5.091
56552W        W17863  19.703   6.400   4.761
56553W        W17864   7.907   8.161   1.808
56554W        W17865  39.519  20.679   0.830
56555W        W17866  12.614  11.637   1.381
56556W        W17867  32.633  38.494   0.403
56557W        W17868   1.847   0.886  13.495
56558W        W17869   9.871   7.202   3.759
56559W        W17870  22.239  12.649   2.275
56560W        W17871   5.417  12.177  14.875
56561W        W17872  25.664   2.798  10.934
56562W        W17873  21.604  41.525  10.637
56563W        W17874  36.449  10.271   3.743
56564W        W17875  28.512   9.229  13.968
56565W        W17876   3.392   9.199  12.055
56566W        W17877  31.638   6.864   0.378
56567W        W17878  18.664   0.764   1.414
56568W        W17879  38.375  26.630  11.114
56569W        W17880  18.706  43.283   1.707
56570W        W17881  26.094   9.887   0.410
56571W        W17882  13.149   2.824  11.594
56572W        W17883  32.568  30.951  14.895
56573W        W17884  43.310  25.628  11.954
56574W        W17885  14.666  16.592   3.211
56575W        W17886  14.598  25.594   1.325
56576W        W17887  24.085   7.864   4.634
56577W        W17888  37.573  28.601   1.852
56578W        W17889  41.026  41.033  12.449
56579W        W17890  16.805  27.955   1.264
56580W        W17891  25.157   3.905  13.943
56581W        W17892  43.959  19.684   0.880
56582W        W17893  22.137   7.769   2.263
56583W        W17894   7.199  25.696   2.266
56584W        W17895  33.469  39.542   5.209
56585W        W17896  34.975  31.619   5.643
56586W        W17897   2.244   0.751   4.648
56587W        W17898   5.404  35.022  11.071
56588W        W17899  32.079  38.908  12.936
56589W        W17900  14.108  25.054  14.906
56590W        W17901   1.242   8.731   4.767
56591W        W17902   1.285  43.288  11.454
56592W        W17903  15.305  17.568  14.844
56593W        W17904   4.223  32.088   1.277
56594W        W17905  21.093   4.714   1.387
56595W        W17906  31.474  22.248   0.799
56596W        W17907   3.741  14.630  12.969
56597W        W17908   6.349  19.653   5.191
56598W        W17909   9.723  14.295   1.797
56599W        W17910  18.600  27.146  12.877
56600W        W17911  42.985  35.899   4.639
56601W        W17912  13.613  21.094  13.457
56602W        W17913  16.220  30.026   3.774
56603W        W17914  23.658   6.382   4.293
56604W        W17915   3.446  22.581   3.187
56605W        W17916  20.037  44.384   9.942
56606W        W17917  35.466  25.188   4.216
56607W        W17918   4.450  37.462  10.523
56608W        W17919  18.133   5.276   2.691
56609W        W17920  37.063  29.620  12.989
56610W        W17921  28.508  26.703   2.876
56611W        W17922  29.466  36.901   3.816
56612W        W17923  32.066  19.544  14.822
56613W        W17924  27.543  33.877   3.166
56614W        W17925  19.718  23.033   2.381
56615W        W17926  20.548  24.536  12.431
56616W        W17927  25.163  41.006  10.925
56617W        W17928  12.333   8.260   4.764
56618W        W17929  35.560  27.141   3.330
56619W        W17930  35.450  34.478  13.357
56620W        W17931  13.797  20.090  13.883
56621W        W17932  31.404  28.660   2.283
56622W        W17933   0.914  39.477  11.596
56623W        W17934  19.134  42.007  10.109
56624W        W17935  29.110  24.510  14.936
56625W        W17936  15.218   2.351   9.540
56626W        W17937   8.818  11.709  10.539
56627W        W17938   5.357  16.591  14.341
56628W        W17939  34.373  30.098   1.800
56629W        W17940   2.278   0.929   0.756
56630W        W17941   4.804  13.311  11.883
56631W        W17942  37.916  23.582  12.367
56632W        W17943  32.463  15.164   2.355
56633W        W17944  34.918  41.916  10.634
56634W        W17945  29.070  18.601  11.090
56635W        W17946  27.065   9.392   3.762
56636W        W17947  39.380  12.357   0.792
56637W        W17948  37.480  27.553  12.916
56638W        W17949   7.379  29.532  14.342
56639W        W17950  30.096  44.473   1.918
56640W        W17951  25.132  11.170  13.408
56641W        W17952  41.305   4.700   3.331
56642W        W17953  32.395  34.070  11.120
56643W        W17954   5.731  23.587   0.932
56644W        W17955   2.768  41.838   3.854
56645W        W17956   2.890   3.838   3.246
56646W        W17957  19.542  41.799  14.940
56647W        W17958   3.718   2.360   1.761
56648W        W17959  18.728  37.452   5.183
56649W        W17960   6.898  11.749   1.698
56650W        W17961   2.753   5.908   3.325
56651W        W17962  22.998  32.000  12.855
56652W        W17963  14.291   8.380   1.756
56653W        W17964   9.256  15.216   2.251
56654W        W17965  10.226  44.833  13.542
56655W        W17966  17.605   8.797  13.798
56656W        W17967  23.139  13.640   1.839
56657W        W17968  15.165  16.191   2.202
56658W        W17969  40.335  40.336   5.607
56659W        W17970  42.360  33.945  14.808
56660W        W17971  22.200  19.586   2.823
56661W        W17972  41.992  28.629  13.855
56662W        W17973  37.888   9.727   1.382
56663W        W17974  33.075   9.653  14.004
56664W        W17975   9.217  30.639   4.701
56665W        W17976   2.910  23.033  13.335
56666W        W17977  22.087  41.957  13.443
56667W        W17978  18.762   4.710   4.198
56668W        W17979  36.016   5.833  14.437
56669W        W17980  31.001  37.566  11.956
56670W        W17981  32.023  34.948   5.120
56671W        W17982   2.324   1.734   1.737
56672W        W17983  39.813   0.355  10.949
56673W        W17984  42.465   9.671   0.739
56674W        W17985  44.405  21.029  13.950
56675W        W17986  10.384  39.972  11.020
56676W        W17987  20.080  23.522   0.261
56677W        W17988  29.615  17.652  14.362
56678W        W17989  34.518  14.104  13.357
56679W        W17990  14.199  15.771   2.306
56680W        W17991   8.735  12.236   4.262
56681W        W17992  39.885  27.533  12.429
56682W        W17993  12.750  13.321   4.157
56683W        W17994  26.472  29.103   1.245
56684W        W17995  31.541  23.205  11.979
56685W        W17996  41.812  35.486   0.873
56686W        W17997  23.074  27.043   3.646
56687W        W17998  32.429  15.195  14.810
56688W        W17999   3.455  11.219   0.778
56689W        W18000  17.114  27.678   0.298
56690W        W18001  16.172   6.257  14.799
56691W        W18002  44.768  37.065  10.540
56692W        W18003   0.333   0.393  14.795
56693W        W18004  33.053  12.259  12.029
56694W        W18005   6.825  25.570   4.193
56695W        W18006  15.084  35.465   4.184
56696W        W18007  20.570  21.697   3.762
56697W        W18008   0.963  25.555  13.377
56698W        W18009  26.134  29.168   0.462
56699W        W18010   1.314  34.465  12.434
56700W        W18011  18.282  35.893  11.859
56701W        W18012  44.786  34.408   1.268
56702W        W18013  22.523  39.465  14.334
56703W        W18014   1.976  23.059   0.916
56704W        W18015  28.500  30.624  10.595
56705W        W18016  22.053  24.031   0.771
56706W        W18017  23.514  40.509   5.196
56707W        W18018   5.261  35.491  12.510
56708W        W18019   7.274  41.019  13.035
56709W        W18020  26.180   1.466   3.871
56710W        W18021   3.384  11.776   3.808
56711W        W18022  20.267  29.919   3.804
56712W        W18023   3.838  12.731  13.052
56713W        W18024  17.250  12.130   2.719
56714W        W18025  39.970  18.076  14.938
56715W        W18026  42.921  10.146  10.078
56716W        W18027  28.033  22.665   9.977
56717W        W18028   8.205  25.603   4.627
56718W        W18029  30.102  31.614  12.944
56719W        W18030  21.680  41.347   1.766
56720W        W18031   2.778  44.959  12.525
56721W        W18032   9.698  26.526   3.211
56722W        W18033   4.771  33.522   2.233
56723W        W18034  35.541   8.366   2.797
56724W        W18035  32.566  16.791   4.795
56725W        W18036  12.830  43.309  14.914
56726W        W18037   8.654  23.546   2.835
56727W        W18038  26.522   4.233   5.163
56728W        W18039  40.854  43.493  10.502
56729W        W18040  31.544  14.171   0.731
56730W        W18041   0.945   1.438   2.830
56731W        W18042   8.181  37.965   1.721
56732W        W18043   7.357  42.872   0.409
56733W        W18044  11.212  21.254  11.583
56734W        W18045   0.418  27.483  14.508
56735W        W18046  17.159   4.922  12.424
56736W        W18047  18.168  13.789  11.944
56737W        W18048   4.434  10.642  14.852
56738W        W18049   1.279  30.612   0.326
56739W        W18050  37.908   2.874  10.581
56740W        W18051  24.074   9.715   3.376
56741W        W18052  31.484  35.085   4.788
56742W        W18053  30.418   2.438  12.417
56743W        W18054  16.612  34.920   4.708
56744W        W18055  22.730  16.300   2.326
56745W        W18056  35.067  22.587   4.350
56746W        W18057  16.170   3.278   0.844
56747W        W18058  31.633  32.480   1.300
56748W        W18059  36.846  42.887  12.987
56749W        W18060  43.363  20.570  11.495
56750W        W18061  36.472  19.754  11.074
56751W        W18062   3.384   1.781  14.388
56752W        W18063  19.604  33.113  14.406
56753W        W18064  28.562   0.788  13.875
56754W        W18065  18.675  12.753   2.776
56755W        W18066  10.240  37.943  13.861
56756W        W18067  35.483  13.818  12.363
56757W        W18068  13.719   6.334   1.424
56758W        W18069   4.701  38.549   3.193
56759W        W18070  44.380  39.010  13.389
56760W        W18071  36.094  19.547   1.376
56761W        W18072  23.704  27.118  11.882
56762W        W18073   1.731  39.314  13.434
56763W        W18074  33.033  24.548   1.835
56764W        W18075  24.218   4.914   3.278
56765W        W18076  33.450  14.710  14.969
56766W        W18077  20.704  34.453   1.408
56767W        W18078   6.839  29.983  10.478
56768W        W18079  42.295   5.912   4.607
56769W        W18080  30.642   3.811   2.763
56770W        W18081  12.129  43.364   1.750
56771W        W18082  37.847   7.180  10.410
56772W        W18083  21.588  35.567   1.804
56773W        W18084  25.198  20.593  12.089
56774W        W18085  23.502  19.076   0.781
56775W        W18086  31.439  34.912   3.232
56776W        W18087  33.050  41.886   3.869
56777W        W18088   6.779  33.593  12.532
56778W        W18089   7.292  30.596  12.445
56779W        W18090   3.757  17.168  14.454
56780W        W18091   1.284  40.830   4.641
56781W        W18092  28.086  43.406   0.751
56782W        W18093  33.942   5.360  14.886
56783W        W18094  17.127  44.390   2.815
56784W        W18095  37.909  32.006   0.273
56785W        W18096  43.803  22.557  12.427
56786W        W18097  32.631  40.834  10.962
56787W        W18098  20.141  26.476   0.770
56788W        W18099  12.238  27.014   2.213
56789W        W18100  27.617  33.999   4.824
56790W        W18101   0.783  29.521   4.642
56791W        W18102   2.865  30.971  12.040
56792W        W18103  30.609   6.737   3.343
56793W        W18104  36.364  25.672   2.681
56794W        W18105  38.884  16.166   4.733
56795W        W18106   3.257  10.772   2.896
56796W        W18107  23.700  28.634  14.952
56797W        W18108   2.741   8.833   0.856
56798W        W18109  23.531  20.726   2.784
56799W        W18110  42.851  33.977  10.912
56800W        W18111  15.118  14.294  12.339
56801W        W18112  25.997  22.612   4.637
56802W        W18113  14.749  38.979   2.405
56803W        W18114   4.777  30.640   1.744
56804W        W18115  31.446  26.578   2.395
56805W        W18116   5.222  30.531   3.706
56806W        W18117  18.179   8.710   2.312
56807W        W18118   0.292  16.180  14.886
56808W        W18119  10.328  21.695  13.489
56809W        W18120  26.610  18.786   3.654
56810W        W18121  26.553  36.378  11.613
56811W        W18122   3.803   8.317  13.865
56812W        W18123   5.373  32.922  14.348
56813W        W18124  17.243  37.425   1.444
56814W        W18125  18.086   8.253   1.401
56815W        W18126  11.193  29.134  14.492
56816W        W18127  43.829   1.955   4.809
56817W        W18128  37.994  36.411  13.870
56818W        W18129  10.871   4.255   3.252
56819W        W18130  25.538  25.672  13.828
56820W        W18131   7.232  39.375   0.347
56821W        W18132   7.251  13.236  12.508
56822W        W18133  13.715  33.040  12.531
56823W        W18134  37.428  34.874   3.819
56824W        W18135  25.981  21.715  14.830
56825W        W18136  20.601  10.142  11.866
56826W        W18137   5.704  26.981   3.365
56827W        W18138  18.551  29.505  12.907
56828W        W18139   9.853  25.096   1.234
56829W        W18140  14.603  14.325  10.966
56830W        W18141  35.459  37.500   2.883
56831W        W18142  43.812  20.546   0.353
56832W        W18143  32.093   2.929  12.452
56833W        W18144  31.088  42.387   3.785
56834W        W18145  44.809  11.213  13.498
56835W        W18146  32.895  12.124   3.207
56836W        W18147  25.198  34.532   1.322
56837W        W18148   2.331  38.983  10.888
56838W        W18149  31.588  42.802  14.275
56839W        W18150  28.566  27.946   1.443
56840W        W18151  25.094  18.203   4.283
56841W        W18152  40.816  12.824  13.419
56842W        W18153  21.717  28.503  11.590
56843W        W18154   6.861  18.751   2.258
56844W        W18155   9.826   6.770   3.282
56845W        W18156   7.284  37.395  11.506
56846W        W18157  34.998  36.041  14.488
56847W        W18158  16.590  44.973   0.726
56848W        W18159  19.106  27.183   3.359
56849W        W18160  16.303  31.065  12.080
56850W        W18161   0.951  40.523  13.810
56851W        W18162  44.474  27.453  13.910
56852W        W18163  38.072  44.341  13.931
56853W        W18164  33.398  29.026   1.710
56854W        W18165  28.664   7.280   2.699
56855W        W18166  18.649  22.550   1.270
56856W        W18167  28.168  41.376   1.731
56857W        W18168   9.822  11.846   4.342
56858W        W18169  19.761   8.224  14.909
56859W        W18170  40.405  15.285  11.482
56860W        W18171   7.178   4.797  11.595
56861W        W18172  37.455   9.717   0.778
56862W        W18173  16.781  39.021   1.710
56863W        W18174  16.262  29.591  10.597
56864W        W18175  17.737  27.523  11.953
56865W        W18176  23.515   4.892   1.401
56866W        W18177  29.543   4.211  12.372
56867W        W18178  42.411  12.297  10.478
56868W        W18179  23.113  22.039   3.718
56869W        W18180  25.190   8.366   2.391
56870W        W18181  24.988  15.327  11.490
56871W        W18182  40.812  21.690   4.195
56872W        W18183   7.692  38.567   1.229
56873W        W18184   2.345  25.998   3.254
56874W        W18185  14.193  38.830  13.944
56875W        W18186  32.103  14.802   2.327
56876W        W18187  19.043  36.450   2.701
56877W        W18188  37.973  26.699  14.800
56878W        W18189  31.026  33.406  11.571
56879W        W18190  16.674  37.576   0.259
56880W        W18191  24.121  25.656  13.837
56881W        W18192  25.096   7.705  14.431
56882W        W18193  34.008   7.232  14.776
56883W        W18194  29.952   1.330  13.440
56884W        W18195  10.158   1.412  11.008
56885W        W18196  41.867   0.885  11.860
56886W        W18197  25.984  18.785   4.141
56887W        W18198   5.790  21.598   0.281
56888W        W18199   0.812  39.505  12.576
56889W        W18200  14.692  43.414   0.267
56890W        W18201   1.304  22.013  12.412
56891W        W18202  34.026  24.206  12.343
56892W        W18203  19.706  27.565   4.800
56893W        W18204  35.397  40.445   2.752
56894W        W18205   5.697   2.778  12.548
56895W        W18206   8.882  10.140   2.803
56896W        W18207  32.053  16.154   2.376
56897W        W18208  13.802  33.560   2.756
56898W        W18209   4.905  41.925  10.419
56899W        W18210  16.742  13.207   0.404
56900W        W18211   5.288  42.290   0.443
56901W        W18212   6.870  23.150  11.995
56902W        W18213  29.973   3.913  13.525
56903W        W18214   1.444  14.293  13.817
56904W        W18215  40.941  39.538   0.793
56905W        W18216  41.992  18.664   4.629
56906W        W18217  33.107   6.788   0.268
56907W        W18218  21.208  10.175   2.729
56908W        W18219  18.291  35.595  10.469
56909W        W18220  28.514   1.924  12.988
56910W        W18221   2.296  14.272  12.069
56911W        W18222  12.264  27.536  11.039
56912W        W18223  19.695   4.785   1.844
56913W        W18224   9.851  22.022   4.675
56914W        W18225  40.314  29.169  12.532
56915W        W18226  38.828  16.317  13.035
56916W        W18227  29.605  42.996   1.259
56917W        W18228   1.955  14.244  14.456
56918W        W18229   0.909  32.095  13.355
56919W        W18230  38.898  22.133   0.461
56920W        W18231  24.983   4.245   0.733
56921W        W18232  17.600   1.847  13.885
56922W        W18233   9.200  19.603   3.771
56923W        W18234   6.679  10.253   0.943
56924W        W18235  16.244  32.097   4.635
56925W        W18236  43.852  10.260   2.842
56926W        W18237   1.380  16.697   3.355
56927W        W18238  13.737  33.950   4.142
56928W        W18239  13.274   6.212  11.466
56929W        W18240  43.948   4.238  12.094
56930W        W18241   6.831  13.153   1.221
56931W        W18242   4.766   9.765  11.378
56932W        W18243   2.945  25.163   4.217
56933W        W18244  15.123  12.284   3.148
56934W        W18245  14.595  32.412  13.455
56935W        W18246  30.098  15.290   2.206
56936W        W18247  14.124   0.771   3.263
56937W        W18248  44.851  36.009   1.407
56938W        W18249  34.510  34.072   0.480
56939W        W18250  23.121  26.954  11.971
56940W        W18251  41.873  29.466   4.320
56941W        W18252   0.250  18.719  11.008
56942W        W18253   2.268  33.016  14.308
56943W        W18254  16.165  30.634   4.636
56944W        W18255  20.645  18.586   1.791
56945W        W18256  24.671  22.707  13.053
56946W        W18257  26.526  17.090   3.851
56947W        W18258  14.306  27.675   9.922
56948W        W18259   7.743  27.650  11.434
56949W        W18260  28.444  43.510   4.148
56950W        W18261   9.676  27.033   0.951
56951W        W18262  39.542  39.342  13.799
56952W        W18263  41.848  15.106   3.262
56953W        W18264   1.431  41.976   0.334
56954W        W18265  37.002  18.761   2.672
56955W        W18266  26.202   4.287  10.434
56956W        W18267  20.677  40.369  14.862
56957W        W18268  37.040  36.484  11.963
56958W        W18269   7.750   1.299   0.854
56959W        W18270   3.798  15.767  14.843
56960W        W18271  29.576  33.542  14.461
56961W        W18272  35.455   9.883   3.272
56962W        W18273  16.669   3.919  11.407
56963W        W18274  18.067  20.109   1.282
56964W        W18275  38.862  19.578  13.314
56965W        W18276  37.915   7.786   0.780
56966W        W18277  41.836  23.100  12.405
56967W        W18278  23.725  12.220   3.645
56968W        W18279  31.647  26.488  14.462
56969W        W18280  23.205   9.782   3.279
56970W        W18281  32.946  26.076   2.736
56971W        W18282  10.213   3.819  10.406
56972W        W18283  16.141  13.166   2.343
56973W        W18284  13.656  39.484   2.737
56974W        W18285  35.372  21.722  11.963
56975W        W18286  19.236  14.598  14.415
56976W        W18287   5.897  31.516  11.868
56977W        W18288  30.453  35.876  11.942
56978W        W18289  42.462  20.049   3.752
56979W        W18290  15.324  40.524   1.379
56980W        W18291  24.153  34.405  10.101
56981W        W18292  42.388  44.883   3.692
56982W        W18293  19.576  18.237   3.738
56983W        W18294  36.425   3.253  11.574
56984W        W18295  40.520  19.740   0.796
56985W        W18296  39.525  16.245  13.924
56986W        W18297  36.012  16.593  11.606
56987W        W18298  21.251  36.855   0.744
56988W        W18299  26.485  34.606   3.212
56989W        W18300  12.199  40.338  12.989
56990W        W18301   2.902  35.571  11.386
56991W        W18302  22.131  39.484  10.433
56992W        W18303  39.939   6.390   4.717
56993W        W18304  32.142  22.675   3.723
56994W        W18305  20.115  21.743   4.799
56995W        W18306  38.952  26.472  13.833
56996W        W18307  38.524  14.745   1.277
56997W        W18308  24.577   8.849   2.337
56998W        W18309   6.293  23.108   3.194
56999W        W18310  19.226  26.195   4.123
57000W        W18311  23.139  13.155  12.829
57001W        W18312  22.514  31.508  11.483
57002W        W18313  39.043  14.808  14.343
57003W        W18314  14.682  36.866   1.761
57004W        W18315  34.895   0.247   4.778
57005W        W18316  29.600  20.148   2.752
57006W        W18317  25.568  26.701   1.387
57007W        W18318   3.954  42.372   1.860
57008W        W18319   3.832  19.780   2.362
57009W        W18320  43.836  13.130  11.097
57010W        W18321  24.533  20.028  13.488
57011W        W18322  16.744  33.528  14.024
57012W        W18323  21.594  37.918  11.504
57013W        W18324  34.567  11.277  13.792
57014W        W18325   4.288  32.967   4.710
57015W        W18326  35.018  38.375   2.396
57016W        W18327  35.062   1.271   2.352
57017W        W18328  39.472  35.492   2.359
57018W        W18329  33.405  34.899  14.868
57019W        W18330   4.726  34.563  11.567
57020W        W18331  13.222   0.341  14.836
57021W        W18332   1.768  27.987  11.895
57022W        W18333  10.729  11.738  10.118
57023W        W18334  21.124  38.479   1.426
57024W        W18335  19.619  16.219   2.675
57025W        W18336  21.705  39.040  11.950
57026W        W18337  18.095  38.504  11.098
57027W        W18338   1.970  35.916  14.864
57028W        W18339  29.497  10.692  10.427
57029W        W18340  44.392  43.770  12.892
57030W        W18341  19.039  34.056  12.388
57031W        W18342  10.167  43.291   0.757
57032W        W18343  40.989  22.604   4.278
57033W        W18344  26.120   9.741   3.733
57034W        W18345   5.349  17.191   5.707
57035W        W18346   0.304  43.906   2.300
57036W        W18347  11.691  13.761   2.238
57037W        W18348  28.641  38.833   4.323
57038W        W18349  19.136  29.955  14.026
57039W        W18350   8.405  31.131  13.307
57040W        W18351  43.827   6.703  13.946
57041W        W18352  24.672  33.980   2.283
57042W        W18353   3.781  42.321   1.342
57043W        W18354  15.317   1.818   0.375
57044W        W18355   0.288  14.747   4.185
57045W        W18356  11.210  31.606  11.924
57046W        W18357  29.156  34.118   4.203
57047W        W18358  39.025  42.414   2.281
57048W        W18359  39.956   4.286   0.348
57049W        W18360  24.046  15.294  11.068
57050W        W18361  25.986  13.732   2.335
57051W        W18362  29.605  16.570   0.941
57052W        W18363  32.116  18.552  12.920
57053W        W18364  19.668  41.458  12.421
57054W        W18365  25.105  30.049  12.961
57055W        W18366  42.349  15.597   3.647
57056W        W18367   3.726  32.045   1.253
57057W        W18368  11.822  10.692  11.449
57058W        W18369   9.844  30.117   4.294
57059W        W18370  15.280  26.602  13.519
57060W        W18371  13.136  25.114  13.900
57061W        W18372  44.970   8.660   2.850
57062W        W18373  32.076  19.154   0.279
57063W        W18374  40.830  26.491   4.195
57064W        W18375  11.201   6.691  11.569
57065W        W18376  37.471  23.611  12.437
57066W        W18377  29.097  11.701  13.939
57067W        W18378  29.578   8.828   3.795
57068W        W18379   1.940   3.455   9.942
57069W        W18380  10.777  28.451   0.824
57070W        W18381  11.317  16.567   2.360
57071W        W18382  36.424   2.867  13.882
57072W        W18383   9.358  22.133  11.041
57073W        W18384  33.564  42.363  14.772
57074W        W18385  26.029  38.966   3.182
57075W        W18386   1.963   1.787   0.893
57076W        W18387   2.785  27.184  12.537
57077W        W18388   9.801  26.018  14.290
57078W        W18389  37.944  25.174  13.356
57079W        W18390  28.151  25.509   1.231
57080W        W18391   7.413  23.172  11.943
57081W        W18392  41.368  10.779   3.829
57082W        W18393  24.565  19.095  11.534
57083W        W18394  40.498  31.596  13.063
57084W        W18395   8.367  24.126   4.125
57085W        W18396   2.255  23.526   0.845
57086W        W18397  35.465   0.478  12.042
57087W        W18398  12.684   2.911  13.926
57088W        W18399  23.674  35.419  14.834
57089W        W18400  13.200  41.397  10.121
57090W        W18401  12.740  11.227  10.425
57091W        W18402  18.076   1.350  11.111
57092W        W18403  19.663  34.954   5.280
57093W        W18404  31.138   8.328   4.164
57094W        W18405  14.640   9.730  12.077
57095W        W18406  24.163  36.914  10.068
57096W        W18407  12.193   5.768   0.951
57097W        W18408  34.582   6.892  12.901
57098W        W18409  18.242  44.794   0.847
57099W        W18410  36.922  39.492   2.848
57100W        W18411  13.156  12.121   2.756
57101W        W18412  40.800   5.774  13.978
57102W        W18413   8.295   7.296   4.250
57103W        W18414  24.152  38.560   4.770
57104W        W18415  36.018  22.613  13.425
57105W        W18416   4.758  38.868   4.143
57106W        W18417  40.993   1.237   1.774
57107W        W18418  12.767   5.897  11.466
57108W        W18419  40.366  30.946   0.413
57109W        W18420  27.488  27.620   3.198
57110W        W18421  26.550  21.540   2.304
57111W        W18422  41.025  37.998   0.435
57112W        W18423  37.064   2.823   3.148
57113W        W18424   2.949  42.348  12.831
57114W        W18425  41.472  25.610   3.746
57115W        W18426  39.930  31.532  10.067
57116W        W18427  21.608   5.253  12.898
57117W        W18428  27.991  44.348  10.048
57118W        W18429  33.888  43.923   1.857
57119W        W18430  11.743  10.281   5.112
57120W        W18431  16.215  23.100   1.294
57121W        W18432  11.175  13.761   1.253
57122W        W18433  25.469  15.673   1.377
57123W        W18434  33.501  36.492   2.838
57124W        W18435  11.318  22.246   1.765
57125W        W18436  14.278   9.738  14.786
57126W        W18437  36.581  11.837  10.954
57127W        W18438  36.453  20.086   1.246
57128W        W18439  39.822  11.283   0.911
57129W        W18440  26.203  31.943   0.822
57130W        W18441  22.629  14.689  14.480
57131W        W18442  32.601  13.685   2.298
57132W        W18443   9.714  10.362  12.356
57133W        W18444  23.984  44.932   1.797
57134W        W18445  33.927   5.761  10.927
57135W        W18446   6.838  21.540   2.401
57136W        W18447  21.038  21.613   4.190
57137W        W18448  32.506  39.858   1.352
57138W        W18449  35.025  41.943  13.328
57139W        W18450  28.986   2.768   1.322
57140W        W18451  25.070   9.806   1.309
57141W        W18452  43.878  41.537   1.225
57142W        W18453  23.730  22.212   0.423
57143W        W18454  17.729  38.023   2.310
57144W        W18455  41.820  16.604   0.907
57145W        W18456  22.584  12.688   2.299
57146W        W18457  29.501  41.422  10.155
57147W        W18458  23.052  23.523  14.400
57148W        W18459  19.576  42.930   1.704
57149W        W18460  19.235  41.441  13.350
57150W        W18461  14.167  44.001  12.371
57151W        W18462   0.450  29.977  14.487
57152W        W18463  32.890  28.126  11.470
57153W        W18464  23.235  43.358   2.282
57154W        W18465   5.361  38.899  12.438
57155W        W18466  32.133  43.455  11.961
57156W        W18467  30.584  12.172   4.124
57157W        W18468  36.910   8.175  11.435
57158W        W18469  27.634   1.319   2.721
57159W        W18470  21.701  11.221  14.323
57160W        W18471   3.954  13.786   0.799
57161W        W18472  35.398  35.873  10.605
57162W        W18473  11.344  34.449  11.872
57163W        W18474   3.710  22.207  10.963
57164W        W18475  25.547  30.608  14.338
57165W        W18476  32.439   7.710   2.703
57166W        W18477   9.720   0.444   2.692
57167W        W18478  33.547  36.863  10.541
57168W        W18479  12.141  26.550  14.981
57169W        W18480  10.171  26.472  14.820
57170W        W18481   4.394  14.794   1.219
57171W        W18482  16.118   3.297  12.361
57172W        W18483   3.775  34.956   3.760
57173W        W18484  29.492   7.724   3.799
57174W        W18485   4.208  24.071  11.909
57175W        W18486  24.228  39.399   4.122
57176W        W18487  37.969  22.170   0.460
57177W        W18488  31.968  28.129  14.395
57178W        W18489   7.189  37.077  13.992
57179W        W18490   8.768  40.462   4.316
57180W        W18491  36.909  37.468   0.395
57181W        W18492   3.793  44.868   3.249
57182W        W18493  29.661  23.730  13.480
57183W        W18494   2.830  38.447  10.525
57184W        W18495  10.838  24.978   3.237
57185W        W18496   0.869  37.411  11.601
57186W        W18497  32.517  13.239   3.349
57187W        W18498  12.822  14.823  12.556
57188W        W18499  33.528  26.483   3.350
57189W        W18500  16.806  39.973   0.961
57190W        W18501   6.215   5.435  14.992
57191W        W18502  44.404  15.733   1.822
57192W        W18503  11.624  15.677  14.439
57193W        W18504   9.787   0.450   1.914
57194W        W18505  42.946  29.594   3.279
57195W        W18506  16.741  10.771   3.364
57196W        W18507  38.460   6.343  11.105
57197W        W18508  28.082  37.351  11.427
57198W        W18509  14.669  28.644   0.895
57199W        W18510   9.330  43.920  14.988
57200W        W18511  42.022  14.267   5.104
57201W        W18512  44.764  41.422  13.852
57202W        W18513  33.563  43.789  11.074
57203W        W18514   4.857  38.909   2.341
57204W        W18515  23.209  25.059  12.045
57205W        W18516  34.523  20.170  14.281
57206W        W18517  11.773  26.606   4.732
57207W        W18518  14.179  22.705   0.314
57208W        W18519  20.256   5.779  13.835
57209W        W18520  41.966  36.854   3.748
57210W        W18521  26.529  15.691   0.873
57211W        W18522  37.932  27.558  13.843
57212W        W18523  35.051  28.505  10.495
57213W        W18524  12.204   8.298   3.651
57214W        W18525  34.885   8.255   0.750
57215W        W18526  11.660  10.817   0.367
57216W        W18527  40.839  11.312   3.656
57217W        W18528   9.255  13.321   3.761
57218W        W18529  31.583  12.123  12.956
57219W        W18530  25.597  39.990  13.489
57220W        W18531  28.033  16.114   4.832
57221W        W18532  24.990  26.140   4.613
57222W        W18533   4.877  18.169   4.235
57223W        W18534   5.727  34.997  13.983
57224W        W18535  40.878   3.887  13.514
57225W        W18536   5.295  26.005   0.427
57226W        W18537  12.676  19.049   1.415
57227W        W18538  16.663   3.318   4.737
57228W        W18539   8.871  39.424   3.175
57229W        W18540  30.570   1.440  14.900
57230W        W18541  34.969  36.400   2.875
57231W        W18542  24.023  33.978   5.793
57232W        W18543  29.529  16.126  11.470
57233W        W18544  24.690  37.885  14.849
57234W        W18545   8.196  20.648   0.950
57235W        W18546  30.434  20.246  13.361
57236W        W18547  43.469  17.795   4.323
57237W        W18548  27.940  13.688   3.375
57238W        W18549  41.485  25.105  14.998
57239W        W18550  22.705  42.840   1.822
57240W        W18551  40.984  11.708  14.787
57241W        W18552  41.914   3.817   0.281
57242W        W18553  38.992  27.040  11.545
57243W        W18554  34.564  33.405   4.163
57244W        W18555   6.689  21.085  11.468
57245W        W18556   8.709  32.624   3.831
57246W        W18557   2.960  37.837  12.455
57247W        W18558  39.394  18.759  12.573
57248W        W18559  15.693  17.302   2.191
57249W        W18560  21.702  23.159   1.756
57250W        W18561  20.186  42.454   2.850
57251W        W18562  23.120  14.233   0.383
57252W        W18563  40.506  12.612  10.594
57253W        W18564   0.277  37.462   3.667
57254W        W18565  22.164   2.806  11.559
57255W        W18566  41.394  23.666   1.327
57256W        W18567  23.552  32.106  13.002
57257W        W18568  39.064  44.939  10.975
57258W        W18569  38.825  21.063  10.130
57259W        W18570  43.452  32.520   2.893
57260W        W18571  40.800  15.297   3.193
57261W        W18572  33.624  28.157  13.812
57262W        W18573  28.678  10.209  13.475
57263W        W18574   9.195  18.062  11.496
57264W        W18575  35.949   9.353   3.198
57265W        W18576  14.273  34.012   0.822
57266W        W18577  11.743  17.753  13.809
57267W        W18578   4.249  34.030  11.569
57268W        W18579   3.800   8.723  11.444
57269W        W18580   8.882  41.296  12.005
57270W        W18581   3.872  32.515   0.289
57271W        W18582  40.885   1.753  11.027
57272W        W18583  41.301  34.063   4.126
57273W        W18584  28.169  25.107   3.330
57274W        W18585  38.842  31.412  12.436
57275W        W18586  27.040  44.936   1.373
57276W        W18587  27.124  41.878   3.352
57277W        W18588  30.446  10.793  13.852
57278W        W18589   5.197  41.920  10.963
57279W        W18590  21.612  35.553  13.874
57280W        W18591  43.800  18.156   4.305
57281W        W18592  28.531  15.809  14.023
57282W        W18593  17.774  18.121   1.873
57283W        W18594  41.405  42.873  13.947
57284W        W18595  32.950   6.878   3.212
57285W        W18596  38.344  24.112  13.488
57286W        W18597   6.334  14.218   3.684
57287W        W18598  32.507  16.159   4.309
57288W        W18599  37.003  32.622   9.494
57289W        W18600   5.197  38.493   0.765
57290W        W18601  12.670  42.860   1.793
57291W        W18602   8.780  23.003  12.837
57292W        W18603  13.810  31.066   4.715
57293W        W18604  42.857  30.591  12.907
57294W        W18605  25.052   6.361   2.327
57295W        W18606  22.107  33.429   0.351
57296W        W18607  21.733   5.433  13.522
57297W        W18608  32.997   2.311  10.511
57298W        W18609  16.188  26.062  13.453
57299W        W18610  25.044  11.221  10.986
57300W        W18611  36.463   6.719   3.849
57301W        W18612   1.456  39.872  14.476
57302W        W18613  11.777  10.825  10.938
57303W        W18614   2.753  18.158   3.287
57304W        W18615   3.821  42.327   3.323
57305W        W18616  17.173  43.452   2.201
57306W        W18617   6.310  35.926   5.246
57307W        W18618   2.450  23.048   2.417
57308W        W18619   5.321  24.169  10.887
57309W        W18620  16.713  21.679   0.407
57310W        W18621  20.205   9.322  11.029
57311W        W18622  33.031   3.215  14.029
57312W        W18623  40.372  17.160   5.312
57313W        W18624  19.575   9.332  13.995
57314W        W18625   5.249  25.676   1.450
57315W        W18626  11.857  24.114   3.273
57316W        W18627  23.683  10.230   4.261
57317W        W18628  23.666  42.996  10.502
57318W        W18629  44.301  31.945  14.426
57319W        W18630  28.067  15.256   4.291
57320W        W18631  11.833  28.003  10.154
57321W        W18632   1.318  30.571   3.292
57322W        W18633  42.010  23.234   0.406
57323W        W18634  34.393  36.465  14.763
57324W        W18635  34.096  38.430   3.740
57325W        W18636   1.388   1.892   1.815
57326W        W18637  32.074   4.928  12.369
57327W        W18638   1.422  23.596   4.665
57328W        W18639  25.616  14.614  13.835
57329W        W18640   0.453  36.032   3.695
57330W        W18641  42.798  12.698   0.292
57331W        W18642  40.498  25.176   5.130
57332W        W18643  25.522  17.782   3.237
57333W        W18644  44.761  30.058   2.830
57334W        W18645   2.856  10.682   1.277
57335W        W18646  26.638  27.948   5.284
57336W        W18647  10.247   8.672   3.289
57337W        W18648  10.811  33.014  13.057
57338W        W18649  34.873   8.898  10.605
57339W        W18650   9.699  39.408  12.092
57340W        W18651  16.091  36.511  14.455
57341W        W18652  30.033  41.864   2.337
57342W        W18653  35.003   4.378  12.855
57343W        W18654  39.030  21.641   4.181
57344W        W18655  21.095  15.296  13.826
57345W        W18656   4.421  14.219   3.638
57346W        W18657  40.866  26.583  11.483
57347W        W18658  13.281   0.752  11.421
57348W        W18659  21.635  38.515  14.476
57349W        W18660  34.519  23.170  11.866
57350W        W18661  22.021   3.383  10.505
57351W        W18662  41.417  13.615   2.748
57352W        W18663   0.292  35.499  11.582
57353W        W18664  24.691  41.023   1.739
57354W        W18665  10.299   3.954   5.283
57355W        W18666  32.946  16.586   4.825
57356W        W18667  14.198  25.147   0.327
57357W        W18668  14.131  29.452   5.153
57358W        W18669  18.211  13.287  11.096
57359W        W18670  37.020   6.346  14.838
57360W        W18671  20.764  29.162  13.347
57361W        W18672  32.978  16.108   0.740
57362W        W18673  12.191  41.431   4.699
57363W        W18674   0.884   4.341   0.841
57364W        W18675   6.249  27.653   1.388
57365W        W18676  30.003   7.898   2.765
57366W        W18677  22.553  11.623  13.904
57367W        W18678  13.204  33.558   0.248
57368W        W18679   5.389  41.899   1.838
57369W        W18680  11.160  30.959   2.723
57370W        W18681  33.945  24.009  10.962
57371W        W18682  23.140  19.076  14.816
57372W        W18683  38.505   3.269   4.732
57373W        W18684  19.656  21.069  12.502
57374W        W18685  30.436  29.472  10.641
57375W        W18686  25.614  10.666   1.792
57376W        W18687  27.446  26.079  12.388
57377W        W18688   8.762   8.697   1.308
57378W        W18689   4.293  39.538   3.336
57379W        W18690  11.229   5.777   3.283
57380W        W18691  40.928  18.163   2.792
57381W        W18692  39.413   8.215  13.941
57382W        W18693  17.191  12.658   9.513
57383W        W18694   4.232  38.365  14.909
57384W        W18695  31.148  43.792   4.304
57385W        W18696  30.498  20.714   0.895
57386W        W18697  44.278  33.602   5.117
57387W        W18698  10.325   7.910   3.718
57388W        W18699   3.426  40.947  14.466
57389W        W18700  43.396  28.956   1.893
57390W        W18701  36.855  17.717  13.978
57391W        W18702  12.819   0.754  11.531
57392W        W18703   3.776  41.000  14.960
57393W        W18704  21.021  32.623   3.631
57394W        W18705  35.389  36.513  11.413
57395W        W18706  14.824  23.132   2.184
57396W        W18707  17.266  43.477  10.581
57397W        W18708  17.748  32.423   4.235
57398W        W18709  34.904  40.334  11.574
57399W        W18710   4.753  19.611   3.279
57400W        W18711  26.518   2.829   3.708
57401W        W18712   1.448  40.502   3.863
57402W        W18713  37.359   7.320  14.801
57403W        W18714  37.534   3.306  10.093
57404W        W18715  20.741  35.372  14.877
57405W        W18716  13.639   7.308   4.120
57406W        W18717   7.226  13.661  11.560
57407W        W18718   5.902  43.779  14.418
57408W        W18719  32.592  36.941   1.701
57409W        W18720  27.980  30.641  14.335
57410W        W18721  24.105  23.028  11.952
57411W        W18722  33.065  13.788  11.086
57412W        W18723  41.909  23.997   2.866
57413W        W18724  24.646  20.237  14.939
57414W        W18725  41.030  10.280  14.892
57415W        W18726  41.332   6.906   0.318
57416W        W18727  37.453   4.708   0.904
57417W        W18728  17.800   0.324  12.073
57418W        W18729  43.366  40.486  12.510
57419W        W18730   3.378  28.117   4.307
57420W        W18731  12.237  28.989  11.872
57421W        W18732   8.676  37.521   1.352
57422W        W18733   9.365  15.231  10.925
57423W        W18734  13.744  36.526   2.371
57424W        W18735  16.129   1.864  10.612
57425W        W18736  29.611   2.466  11.479
57426W        W18737  12.208  10.267   3.380
57427W        W18738  38.008  41.890   0.327
57428W        W18739   8.772  32.024   9.928
57429W        W18740   2.357   8.165   1.738
57430W        W18741  39.401   3.247   3.835
57431W        W18742  19.681  16.689   4.715
57432W        W18743   8.246  11.683  14.021
57433W        W18744  37.537  40.054   2.835
57434W        W18745  43.800  40.547  11.099
57435W        W18746   0.899  11.184   3.192
57436W        W18747   2.729  12.767  11.975
57437W        W18748  17.564   8.196  12.457
57438W        W18749  19.209  44.914  13.469
57439W        W18750   8.847  33.003   3.278
57440W        W18751  36.040  12.321  11.894
57441W        W18752  37.019  31.557  10.972
57442W        W18753  35.386  33.394   0.888
57443W        W18754   7.415  24.152  10.464
57444W        W18755  14.262   7.286  10.542
57445W        W18756   3.902   1.300   3.813
57446W        W18757   6.842   1.433   1.340
57447W        W18758  35.101   2.815   1.810
57448W        W18759  41.006  14.139   3.381
57449W        W18760  39.983  36.565  11.444
57450W        W18761  21.520  27.533  14.911
57451W        W18762  15.327  33.406   2.337
57452W        W18763  16.623  33.476  11.122
57453W        W18764  12.657   3.336   4.748
57454W        W18765  10.744  29.064   4.202
57455W        W18766   4.814  34.577   3.315
57456W        W18767  36.570   2.880   0.933
57457W        W18768   3.373  30.150   1.918
57458W        W18769  23.996   4.835  12.873
57459W        W18770  26.026  39.868  10.981
57460W        W18771  17.735   4.223  10.459
57461W        W18772  15.236   9.194   3.820
57462W        W18773  38.921  34.573   4.737
57463W        W18774  17.770   5.888   2.227
57464W        W18775  26.517  22.665   4.207
57465W        W18776  36.985  25.652   2.801
57466W        W18777   8.182  20.073   3.214
57467W        W18778   9.662  31.403   4.695
57468W        W18779  25.031  26.155  12.855
57469W        W18780   6.695   6.826  12.962
57470W        W18781  35.446   2.244  11.861
57471W        W18782   8.351  24.990  13.839
57472W        W18783  44.799  24.067   4.138
57473W        W18784  31.126  31.579  14.002
57474W        W18785   7.757  20.043  14.766
57475W        W18786  17.580   8.754   2.815
57476W        W18787   1.311  19.065   4.622
57477W        W18788  20.167  33.941  12.461
57478W        W18789   3.225  19.079  12.406
57479W        W18790  12.651  26.141  11.514
57480W        W18791  27.164  32.413  12.525
57481W        W18792   1.861  43.843   1.708
57482W        W18793  16.567   4.853   5.256
57483W        W18794  42.527  32.036  11.042
57484W        W18795  10.800  28.583  12.924
57485W        W18796   4.836  31.475  11.904
57486W        W18797  26.491  12.733   3.283
57487W        W18798  25.088  40.917  13.419
57488W        W18799   9.234  24.047  13.056
57489W        W18800   0.312  22.112   0.429
57490W        W18801  13.177  32.413  13.435
57491W        W18802   2.731  26.637   0.386
57492W        W18803  43.796   0.303  11.564
57493W        W18804   5.822  20.693  11.990
57494W        W18805  39.997  13.818  11.409
57495W        W18806  43.385  32.474  14.436
57496W        W18807  36.519   7.260   2.824
57497W        W18808  38.351   7.241   2.750
57498W        W18809   3.341  14.596  12.393
57499W        W18810  29.053  41.881   0.732
57500W        W18811  21.559  13.734   2.750
57501W        W18812  19.154   3.413  10.574
57502W        W18813   6.679  18.696  12.069
57503W        W18814  23.045  42.488   0.881
57504W        W18815  37.477   9.884   2.900
57505W        W18816  11.142  20.258   3.320
57506W        W18817  40.479   6.310  11.952
57507W        W18818  16.093  23.675   0.373
57508W        W18819  33.961  38.362   1.308
57509W        W18820   7.902  18.694  13.341
57510W        W18821  17.134  41.954  12.518
57511W        W18822  42.331  39.521   0.876
57512W        W18823  38.522  26.079   2.675
57513W        W18824  23.120  41.890   2.321
57514W        W18825  11.781  35.953   2.682
57515W        W18826  32.556  30.542  11.053
57516W        W18827  15.584  29.035  11.915
57517W        W18828   3.946  36.540   4.822
57518W        W18829  44.771  10.857   2.229
57519W        W18830  23.062   5.344   0.422
57520W        W18831  19.045   2.887  11.517
57521W        W18832  17.063   5.233   2.261
57522W        W18833   9.328  37.423  11.104
57523W        W18834   8.188  35.502  14.916
57524W        W18835  25.699   6.392  11.862
57525W        W18836  27.977  21.173   5.145
57526W        W18837  36.877  34.868   1.428
57527W        W18838   8.674  19.638   4.249
57528W        W18839  15.282  22.577   1.886
57529W        W18840  29.551  29.569  14.918
57530W        W18841  28.645  32.524   2.803
57531W        W18842  29.969  13.836   3.640
57532W        W18843  34.092   8.329   1.242
57533W        W18844  27.962  18.064  12.414
57534W        W18845   4.255  20.600  14.511
57535W        W18846  36.961  10.756  14.978
57536W        W18847  17.699  23.715   3.238
57537W        W18848  20.195   5.274  12.462
57538W        W18849   5.217  26.951  12.927
57539W        W18850  27.030  15.328  14.814
57540W        W18851  40.315   3.784  11.483
57541W        W18852  24.589  35.438  12.385
57542W        W18853  14.744  23.609  10.599
57543W        W18854  11.697  34.931  11.540
57544W        W18855  18.674  41.495  13.913
57545W        W18856   3.360  36.992   4.781
57546W        W18857  35.910  27.498   1.335
57547W        W18858  17.107   2.260   3.649
57548W        W18859  40.851  21.184  12.887
57549W        W18860  20.720  40.992  10.426
57550W        W18861  34.516  30.522   4.710
57551W        W18862  35.555  24.490   3.373
57552W        W18863  42.353  24.692  13.060
57553W        W18864   4.702  27.190  13.921
57554W        W18865  24.216   9.207  11.074
57555W        W18866  10.662  18.135   0.903
57556W        W18867  12.191  33.423  13.488
57557W        W18868  33.429   2.877  10.603
57558W        W18869   4.750   2.736   2.872
57559W        W18870  39.520  33.513  12.982
57560W        W18871  39.488  11.285   0.728
57561W        W18872  10.673  31.415  14.358
57562W        W18873  44.808  24.620   3.202
57563W        W18874  42.947  38.524  11.507
57564W        W18875  30.049   9.307   5.217
57565W        W18876  25.671  35.456   1.769
57566W        W18877  38.003  10.833  14.971
57567W        W18878  23.705  16.613  10.140
57568W        W18879   1.336  30.647   3.637
57569W        W18880  18.123  41.971  12.433
57570W        W18881  38.876   9.153  10.943
57571W        W18882  34.515  31.562   3.774
57572W        W18883  31.048   8.787  13.839
57573W        W18884  16.648  13.842   0.848
57574W        W18885  34.875  33.408  13.366
57575W        W18886  28.635  25.618  14.378
57576W        W18887  33.880  40.406  13.800
57577W        W18888  34.377  44.465  13.018
57578W        W18889  13.712   9.750   3.789
57579W        W18890  34.881  39.846   0.438
57580W        W18891  21.053  28.643   2.360
57581W        W18892  15.789  41.473   2.352
57582W        W18893  15.751  26.463   1.766
57583W        W18894   6.307  22.043  14.916
57584W        W18895   9.183  12.124   1.230
57585W        W18896  28.604  40.037   3.261
57586W        W18897  12.190  39.476   3.374
57587W        W18898  31.442  21.024   2.242
57588W        W18899   8.346  24.720  14.786
57589W        W18900   6.277  19.274  13.973
57590W        W18901  36.375  20.233  13.354
57591W        W18902  12.638  34.416  13.949
57592W        W18903  43.916  24.683   3.165
57593W        W18904   9.861  19.148   3.803
57594W        W18905  12.183  41.358   4.295
57595W        W18906  38.533  32.950  11.448
57596W        W18907  20.257  22.501   3.301
57597W        W18908  36.533  13.168   2.854
57598W        W18909  24.154   5.834   1.794
57599W        W18910  21.707   7.867  13.423
57600W        W18911   9.387   1.408   1.424
57601W        W18912  42.927  12.795   4.630
57602W        W18913   3.319  22.549  11.996
57603W        W18914  13.312  32.444  12.882
57604W        W18915  32.941  38.841  11.605
57605W        W18916   9.658   0.920  11.556
57606W        W18917  32.975  36.866  14.929
57607W        W18918  28.034  29.624  14.804
57608W        W18919  29.130  19.726  10.574
57609W        W18920  31.523   5.256   0.354
57610W        W18921  41.315  28.111  12.576
57611W        W18922  44.396   6.329  13.494
57612W        W18923  14.707   4.747  12.398
57613W        W18924  25.558   9.278  13.402
57614W        W18925  32.451   3.822  14.429
57615W        W18926  44.866   1.427   1.776
57616W        W18927   2.396  18.220  10.415
57617W        W18928  42.494  43.964  11.472
57618W        W18929  21.726  36.973  14.925
57619W        W18930  22.689  29.107  12.938
57620W        W18931  21.163   3.248   1.264
57621W        W18932   6.315   5.301   3.660
57622W        W18933  15.769  14.631   0.816
57623W        W18934  39.374   9.237  13.395
57624W        W18935  44.893  12.334   4.768
57625W        W18936   3.291  19.578  12.571
57626W        W18937  27.525  10.811  11.468
57627W        W18938  16.086  33.423   1.293
57628W        W18939  41.511  38.974  10.489
57629W        W18940  43.958  31.934  14.776
57630W        W18941   3.299   4.893   2.829
57631W        W18942   9.316  44.334  11.570
57632W        W18943  33.383  33.479   4.635
57633W        W18944  10.366   5.366   0.358
57634W        W18945  42.805  21.105  13.470
57635W        W18946  37.969  39.474   1.894
57636W        W18947  33.893   9.277   1.933
57637W        W18948  30.037  22.582  12.070
57638W        W18949  20.710  35.574   0.263
57639W        W18950  21.721  42.907  11.877
57640W        W18951  39.381   0.858  10.888
57641W        W18952  24.553  31.900   1.242
57642W        W18953  40.375   2.839  13.041
57643W        W18954  33.398  41.368   2.267
57644W        W18955  16.135  44.282   2.851
57645W        W18956  23.707  19.136  13.816
57646W        W18957  14.216  30.128  10.490
57647W        W18958  15.738  27.523  10.131
57648W        W18959  26.547  35.957   4.162
57649W        W18960  12.164  34.873  13.390
57650W        W18961   3.221   0.388  11.569
57651W        W18962  34.520  38.935   9.479
57652W        W18963  32.065   4.299  11.397
57653W        W18964  14.616  23.708   2.231
57654W        W18965  44.863  30.143  14.301
57655W        W18966  16.302  17.761  14.279
57656W        W18967   4.435   6.419   1.725
57657W        W18968  13.210  43.469  14.358
57658W        W18969  32.468  17.145   4.732
57659W        W18970  24.689  34.454   0.455
57660W        W18971  16.761   8.287  14.866
57661W        W18972   6.918  11.369   1.319
57662W        W18973  22.620  18.640  11.886
57663W        W18974  13.716  28.076  12.884
57664W        W18975   6.763  39.055   2.873
57665W        W18976  13.324  23.576  10.462
57666W        W18977  30.578  29.920   3.643
57667W        W18978   6.781  43.859  14.957
57668W        W18979   6.324  18.633  14.891
57669W        W18980  20.228  22.236  13.935
57670W        W18981  30.996   4.918  12.543
57671W        W18982  26.122  37.336   5.276
57672W        W18983  17.215  23.199  10.594
57673W        W18984  29.963  40.843   1.390
57674W        W18985  29.636  13.637  11.972
57675W        W18986   9.291   2.420  13.317
57676W        W18987   3.743   4.424   4.606
57677W        W18988  44.293  31.577  12.397
57678W        W18989   0.806  35.885  13.402
57679W        W18990   6.404  19.628  12.381
57680W        W18991  15.795   7.785   4.765
57681W        W18992  18.241  25.105   0.292
57682W        W18993  24.033  35.453  13.496
57683W        W18994  24.073   9.750   0.369
57684W        W18995   4.761  12.158  14.973
57685W        W18996  13.240  21.579  11.987
57686W        W18997  12.284  24.536   1.364
57687W        W18998  25.508  37.513  13.537
57688W        W18999  28.512  30.978   3.297
57689W        W19000  26.561   5.232  13.047
57690W        W19001  41.507  40.926   3.662
57691W        W19002  35.041  38.938   1.213
57692W        W19003  40.836  18.667  12.041
57693W        W19004  11.198  28.496   2.215
57694W        W19005  40.027  38.336  13.940
57695W        W19006  35.986   8.373  11.466
57696W        W19007  38.488  22.066   2.761
57697W        W19008  17.250  37.080   2.242
57698W        W19009  22.569  32.466   1.425
57699W        W19010   0.479  15.282  10.597
57700W        W19011   2.245  38.347  11.018
57701W        W19012  18.280  43.500  13.918
57702W        W19013   2.317   9.341   4.159
57703W        W19014  40.898  30.111  12.354
57704W        W19015  12.350  39.945   2.885
57705W        W19016  35.880  41.857  12.467
57706W        W19017  27.484  16.302   4.773
57707W        W19018  38.928   7.348  12.893
57708W        W19019  32.917  22.023  12.012
57709W        W19020  15.579  44.896   2.673
57710W        W19021  17.765  40.941  12.929
57711W        W19022  26.078  35.881   3.318
57712W        W19023  34.036  18.571  14.027
57713W        W19024  41.852  23.112  10.952
57714W        W19025  13.791  22.534  14.408
57715W        W19026  38.480   8.196   1.430
57716W        W19027  36.089  20.164  12.382
57717W        W19028  15.183   6.395   3.716
57718W        W19029   2.241  42.887  10.017
57719W        W19030  44.802   5.921   4.626
57720W        W19031  17.581  27.130   1.896
57721W        W19032   8.876  25.121   2.826
57722W        W19033   4.893  20.064   0.412
57723W        W19034  43.870  29.497  11.865
57724W        W19035   4.750  17.137   2.387
57725W        W19036  26.022  25.686  10.597
57726W        W19037  40.997   8.718   1.347
57727W        W19038  40.517  18.214  14.385
57728W        W19039  39.497  22.229   4.706
57729W        W19040  17.108   6.383  12.494
57730W        W19041  16.701   5.261   0.732
57731W        W19042  14.723  28.610   4.684
57732W        W19043  20.723  23.181   2.798
57733W        W19044  15.692  41.389  13.386
57734W        W19045  35.956  23.651   0.935
57735W        W19046  31.546   1.852  12.905
57736W        W19047  21.203  29.023   0.776
57737W        W19048  26.966   7.764  11.982
57738W        W19049  36.051  19.725   2.765
57739W        W19050  15.261  22.025  11.490
57740W        W19051   0.914   3.320  12.512
57741W        W19052   5.908  10.812   2.248
57742W        W19053  16.178  18.126   4.189
57743W        W19054   0.858  16.318   3.645
57744W        W19055  36.502  28.933   0.421
57745W        W19056   6.777   7.801  14.805
57746W        W19057  39.831  40.050   4.277
57747W        W19058  20.049  33.050   4.147
57748W        W19059  27.556   7.283   2.319
57749W        W19060  43.503  15.310  11.867
57750W        W19061  29.555  40.485  11.563
57751W        W19062  34.595  10.367  11.020
57752W        W19063  44.272  42.856  12.979
57753W        W19064  24.699   7.361   2.250
57754W        W19065  35.022   6.384   0.324
57755W        W19066   3.407   9.287   0.345
57756W        W19067  10.791  19.123  11.982
57757W        W19068   2.267  16.647  11.893
57758W        W19069  21.592  30.580   1.318
57759W        W19070  22.078   3.796   1.826
57760W        W19071  29.026   0.360   2.261
57761W        W19072  30.528  33.526  13.021
57762W        W19073  31.405  29.665   3.765
57763W        W19074   2.389  27.999  13.874
57764W        W19075   4.290  19.251  14.368
57765W        W19076  26.093  17.211   0.465
57766W        W19077  32.558  28.054  14.899
57767W        W19078  44.339   2.730   2.783
57768W        W19079   1.838  29.966   0.242
57769W        W19080   6.293   4.807  12.051
57770W        W19081  18.655  41.521   2.788
57771W        W19082   9.655  40.035  13.318
57772W        W19083  14.757   6.824  11.446
57773W        W19084   6.267  42.502   3.231
57774W        W19085  40.022  26.083   4.225
57775W        W19086  20.082   4.351   0.333
57776W        W19087  21.171  22.636   0.882
57777W        W19088  44.821  19.179   1.388
57778W        W19089   9.170  35.598   4.722
57779W        W19090  39.529   7.305   4.803
57780W        W19091  41.035  12.334   3.238
57781W        W19092   4.803  37.999  14.881
57782W        W19093  33.941  23.536  14.903
57783W        W19094  24.590  30.947   3.368
57784W        W19095  33.051   7.296   0.890
57785W        W19096  37.049  35.003  12.412
57786W        W19097  44.310  40.353  13.389
57787W        W19098  14.253  21.734   4.135
57788W        W19099  12.730  26.017   2.860
57789W        W19100  14.276  23.730   3.714
57790W        W19101  35.985  15.647   3.234
57791W        W19102  42.917   5.762  14.494
57792W        W19103   4.782   3.810   1.356
57793W        W19104   8.236   1.798   1.893
57794W        W19105  35.562  38.353   2.276
57795W        W19106  25.081  27.510   0.477
57796W        W19107  11.353  25.647  14.385
57797W        W19108  25.536  19.280   5.667
57798W        W19109   3.315  16.783  10.569
57799W        W19110   1.913  42.909   3.798
57800W        W19111  16.611   5.245  12.517
57801W        W19112  22.677  25.584   2.309
57802W        W19113   9.171  38.409  13.517
57803W        W19114  20.260   1.899   2.709
57804W        W19115   8.667  31.519   0.291
57805W        W19116  24.633   4.718   1.828
57806W        W19117   5.773   9.380   3.333
57807W        W19118  20.074  34.071   3.833
57808W        W19119   5.197  33.948  10.900
57809W        W19120   2.283  25.707   4.771
57810W        W19121   4.450  13.235   3.231
57811W        W19122  22.727  27.099  12.504
57812W        W19123  40.425   5.294   3.343
57813W        W19124  38.920  30.074  13.547
57814W        W19125  25.528  37.411  10.099
57815W        W19126  23.048  34.416  12.830
57816W        W19127  12.132  18.736   4.114
57817W        W19128   9.733  38.494   4.756
57818W        W19129  19.235  33.916  11.573
57819W        W19130  38.568  29.576  11.611
57820W        W19131  19.257  38.417  14.463
57821W        W19132   4.941  27.981   5.103
57822W        W19133  12.790   2.737  10.532
57823W        W19134  36.355  25.090  12.371
57824W        W19135  17.168  38.008   0.769
57825W        W19136  13.209  34.090   4.267
57826W        W19137  36.861  38.516   0.400
57827W        W19138  30.969  34.894  10.943
57828W        W19139  35.405   7.811  13.927
57829W        W19140   2.850   1.277   1.813
57830W        W19141   9.226  12.700   1.708
57831W        W19142  44.480  21.604   4.272
57832W        W19143  30.640  33.981   4.214
57833W        W19144  41.831  33.504   3.360
57834W        W19145   6.775  14.715   1.884
57835W        W19146  35.887  40.320  10.155
57836W        W19147  44.260  17.638  13.316
57837W        W19148  13.705  28.517   2.411
57838W        W19149  15.798  20.662   0.733
57839W        W19150   0.312  22.015  11.023
57840W        W19151   0.812  17.568   1.718
57841W        W19152  27.024   8.317  12.455
57842W        W19153  40.977  24.159  12.390
57843W        W19154  30.529  21.673   2.224
57844W        W19155  41.319   2.411   4.354
57845W        W19156  24.999  25.068   3.378
57846W        W19157   1.312   3.725   1.760
57847W        W19158   0.258  18.709  13.384
57848W        W19159  15.819   7.887   1.311
57849W        W19160  15.083  22.244   2.240
57850W        W19161  32.134  28.077   2.818
57851W        W19162  27.633  43.363   3.795
57852W        W19163  23.558  43.904  14.340
57853W        W19164   5.823  11.625  13.363
57854W        W19165  25.604  15.601  12.087
57855W        W19166  40.349  16.665  14.350
57856W        W19167   5.407  13.325  12.399
57857W        W19168  18.777  20.604  14.926
57858W        W19169  31.588  30.568   4.225
57859W        W19170   3.437  24.083  11.550
57860W        W19171  41.831  32.934  11.917
57861W        W19172   4.216  14.248   2.342
57862W        W19173  20.237  18.286  10.617
57863W        W19174   7.780   0.489  13.931
57864W        W19175   4.233   8.380   3.273
57865W        W19176  43.436   2.369  12.508
57866W        W19177  42.904  35.361  14.018
57867W        W19178  10.230   8.323   0.770
57868W        W19179  38.370  44.375  11.420
57869W        W19180  13.639  13.111   4.681
57870W        W19181  36.489  12.759  12.851
57871W        W19182  27.047  16.644   2.680
57872W        W19183  21.203  34.098   3.255
57873W        W19184  36.391  21.051   1.931
57874W        W19185  11.701  14.192   3.350
57875W        W19186  15.318  17.761  12.413
57876W        W19187   0.301   1.798  13.872
57877W        W19188  10.727   7.359  11.016
57878W        W19189  29.430  16.667   4.135
57879W        W19190  42.299  27.606   0.257
57880W        W19191  37.964  18.213   0.323
57881W        W19192  29.082  32.026  14.409
57882W        W19193  15.137   6.295  11.549
57883W        W19194  31.988  19.557   2.880
57884W        W19195  39.824  30.104   3.264
57885W        W19196  31.999  12.137   1.303
57886W        W19197  40.885  39.981   9.650
57887W        W19198  25.540  38.484  13.313
57888W        W19199  25.612  10.879  11.559
57889W        W19200  30.931  29.111  12.437
57890W        W19201  26.194  37.521   2.701
57891W        W19202  25.606  33.435  11.126
57892W        W19203  44.427  33.075   3.678
57893W        W19204  33.520  13.640  10.971
57894W        W19205  12.700  17.219  14.938
57895W        W19206  24.070  20.244  14.002
57896W        W19207  28.938  34.390   4.688
57897W        W19208  11.668  30.536  11.456
57898W        W19209  23.234  18.108  12.976
57899W        W19210   9.359  38.395   4.253
57900W        W19211  43.439  30.089   4.705
57901W        W19212  16.209  22.155  14.421
57902W        W19213  16.664  15.773   3.817
57903W        W19214  36.366   1.358  13.444
57904W        W19215   2.333  27.570   2.352
57905W        W19216  10.767  36.380  12.831
57906W        W19217  11.736   2.287   2.828
57907W        W19218  18.180  18.111   5.269
57908W        W19219  28.181  39.825   1.452
57909W        W19220   8.714  24.615   4.117
57910W        W19221   3.310  43.993  14.355
57911W        W19222  21.552  17.598   2.749
57912W        W19223  21.578  14.805  13.033
57913W        W19224  35.472  27.629   0.428
57914W        W19225  39.917   9.164   1.211
57915W        W19226   7.266  29.137   0.899
57916W        W19227  43.825  43.407   3.182
57917W        W19228  29.541  29.536  12.561
57918W        W19229  23.600  14.624   4.755
57919W        W19230   6.883  28.964  11.992
57920W        W19231  36.845  24.510  11.977
57921W        W19232  29.974  27.579   1.326
57922W        W19233  37.500   5.735   1.740
57923W        W19234  32.573  38.073   2.210
57924W        W19235  40.823  36.999  11.927
57925W        W19236  21.115  21.566  10.133
57926W        W19237  25.701  20.077   3.645
57927W        W19238  13.668  21.134  10.597
57928W        W19239  18.710   5.339   4.134
57929W        W19240  29.484   2.279   0.864
57930W        W19241  12.318  23.175  10.556
57931W        W19242   4.729  22.140   2.667
57932W        W19243  35.990  22.119  11.555
57933W        W19244  26.647  27.951   4.315
57934W        W19245  20.748  34.441  11.933
57935W        W19246  19.223  21.589   2.202
57936W        W19247  32.526  11.739   0.751
57937W        W19248   7.889  10.205   0.260
57938W        W19249  21.561  19.748   9.653
57939W        W19250  33.419   5.802   2.776
57940W        W19251   7.675  29.619  10.434
57941W        W19252  44.353   9.214  10.443
57942W        W19253  32.478   6.205  14.337
57943W        W19254  16.792  30.517  13.873
57944W        W19255  23.032  24.106  11.031
57945W        W19256  40.479  41.864   4.342
57946W        W19257  38.380  33.596   1.390
57947W        W19258   8.340  37.494   4.684
57948W        W19259  43.821   4.293   4.633
57949W        W19260  18.770  19.660  13.484
57950W        W19261  17.212  33.477   4.230
57951W        W19262  27.192  26.088  14.395
57952W        W19263  42.494  30.992  13.340
57953W        W19264   1.836  24.031   1.860
57954W        W19265   0.421   3.785  14.905
57955W        W19266   5.831  22.692  14.398
57956W        W19267  14.674  23.630   3.851
57957W        W19268  10.739   5.829  12.543
57958W        W19269   5.392  21.627  13.865
57959W        W19270  28.604   1.915   3.696
57960W        W19271  37.057  21.231  10.463
57961W        W19272  13.673   9.760  11.871
57962W        W19273  35.861  11.316   3.860
57963W        W19274  44.968  12.679  10.462
57964W        W19275  41.797  39.962  10.926
57965W        W19276  16.132   5.922  13.326
57966W        W19277  22.658  37.080   4.745
57967W        W19278  17.230  36.880   0.276
57968W        W19279  22.690  25.707  10.538
57969W        W19280  41.857  35.010   5.292
57970W        W19281   3.244  12.313   4.785
57971W        W19282  41.963  12.352  10.965
57972W        W19283  14.610  15.715  13.974
57973W        W19284  12.828  22.503   1.319
57974W        W19285  30.963   3.440   4.245
57975W        W19286  15.089  43.475   0.357
57976W        W19287  29.947  23.505   4.351
57977W        W19288  21.221  26.045   1.729
57978W        W19289  21.558   7.839   4.651
57979W        W19290   1.755  18.260   4.819
57980W        W19291  25.564  35.938  13.349
57981W        W19292  25.998  35.010   4.798
57982W        W19293  19.692   5.777  11.955
57983W        W19294  42.920  23.597  12.357
57984W        W19295   9.324  19.139  11.896
57985W        W19296  38.882   4.823  12.952
57986W        W19297   3.365   9.176   3.808
57987W        W19298  14.143  29.627  13.402
57988W        W19299  32.949   8.848   2.732
57989W        W19300  32.391  18.646  14.407
57990W        W19301  19.122  35.032   2.367
57991W        W19302  23.593  20.578   5.731
57992W        W19303  39.991  33.454  12.379
57993W        W19304  36.408  40.004  12.966
57994W        W19305   7.802   4.223  14.964
57995W        W19306  29.143  25.601  14.389
57996W        W19307  38.059  28.653   1.703
57997W        W19308  14.295  37.842  12.009
57998W        W19309  27.098  19.701  13.321
57999W        W19310  13.292  18.573   1.919
58000W        W19311  38.965   2.840   2.375
58001W        W19312  34.606  38.529   2.205
58002W        W19313   1.811  22.150  14.910
58003W        W19314  23.026  13.738   2.290
58004W        W19315  40.334  23.994   1.244
58005W        W19316  13.648  17.578   1.732
58006W        W19317   9.838  30.625  14.493
58007W        W19318  20.070  36.953   1.372
58008W        W19319  33.416   3.885  10.412
58009W        W19320   1.316  42.296   3.658
58010W        W19321   9.175   6.268  10.553
58011W        W19322  24.478  27.091  14.456
58012W        W19323  43.017   0.783  12.551
58013W        W19324  32.084  43.953  10.448
58014W        W19325  21.188  30.625  12.409
58015W        W19326  28.556  38.467   1.259
58016W        W19327  27.056  44.925  12.539
58017W        W19328  33.561  40.366  12.564
58018W        W19329  10.857  28.452  14.275
58019W        W19330  20.565  19.681   0.960
58020W        W19331  19.154   1.741   1.875
58021W        W19332   0.801  24.088  14.980
58022W        W19333  26.480  41.325   3.245
58023W        W19334  41.293  11.738   2.667
58024W        W19335   6.847  34.555  13.509
58025W        W19336  34.579   0.476   0.255
58026W        W19337  11.704  30.530  10.588
58027W        W19338   5.254  43.810  13.950
58028W        W19339  13.131  24.205   2.826
58029W        W19340   1.351  26.174   1.802
58030W        W19341  35.407  21.209  14.019
58031W        W19342   2.307   1.826  11.943
58032W        W19343   8.230  41.359   2.405
58033W        W19344  22.636  18.187  13.454
58034W        W19345  11.656   4.701  14.355
58035W        W19346   4.811  24.632  13.433
58036W        W19347  21.586  13.683   3.177
58037W        W19348  38.883  33.954   2.206
58038W        W19349  21.145  30.161   1.380
58039W        W19350   1.391  24.603  11.541
58040W        W19351  26.193  22.636  12.542
58041W        W19352  36.543  32.438   1.442
58042W        W19353  24.148  28.185  12.835
58043W        W19354  10.214  35.033   1.217
58044W        W19355  13.280  39.480  11.967
58045W        W19356  17.711   1.830  10.906
58046W        W19357   8.294  27.184  10.487
58047W        W19358   1.438  31.037  12.873
58048W        W19359  40.872  35.995  12.009
58049W        W19360  22.084  23.732   0.897
58050W        W19361  33.942  15.630   2.408
58051W        W19362  10.317  17.244  11.979
58052W        W19363  27.586   0.424   1.817
58053W        W19364  25.612   8.843   3.170
58054W        W19365  19.618  17.073  12.559
58055W        W19366   8.283  24.517   3.723
58056W        W19367  17.650  26.657  12.546
58057W        W19368  25.547  10.798  14.871
58058W        W19369  32.478  19.738  11.972
58059W        W19370  44.478  21.124   5.208
58060W        W19371   7.279  42.500  13.953
58061W        W19372  28.164  25.138  10.032
58062W        W19373   1.946  39.539   4.696
58063W        W19374  35.536  37.982   3.782
58064W        W19375  12.301   6.705   2.776
58065W        W19376   0.838  12.698   9.996
58066W        W19377   9.154  24.695   3.784
58067W        W19378   8.675  18.725  14.991
58068W        W19379   1.448  33.524   1.351
58069W        W19380  27.023  19.602  10.546
58070W        W19381   5.390  38.891   2.891
58071W        W19382  40.946  20.134  10.905
58072W        W19383   6.886  34.574  10.464
58073W        W19384  36.003  15.126  14.002
58074W        W19385  21.626  19.688  12.939
58075W        W19386  12.291   9.380   4.820
58076W        W19387  27.979  15.207   3.164
58077W        W19388   6.314  36.584   4.252
58078W        W19389  40.915  23.204  11.521
58079W        W19390  44.826  44.778  11.591
58080W        W19391  29.520   7.357   5.202
58081W        W19392  31.564  21.166  12.090
58082W        W19393   1.934  32.007  10.424
58083W        W19394  28.531  24.528   2.188
58084W        W19395   8.762  30.116  11.023
58085W        W19396  44.840  10.218   0.956
58086W        W19397  42.313  25.670   1.883
58087W        W19398  44.774  23.049  12.006
58088W        W19399  18.664  10.236  12.914
58089W        W19400  15.794   8.884  12.441
58090W        W19401  20.201  18.773   5.106
58091W        W19402   5.270   9.669   3.290
58092W        W19403   8.277   1.301  12.987
58093W        W19404   0.847  43.326  13.022
58094W        W19405  40.843  15.617  14.402
58095W        W19406   4.795  33.418   3.837
58096W        W19407  43.308  25.619  14.375
58097W        W19408  16.698  34.106   4.210
58098W        W19409  41.518   5.716   1.852
58099W        W19410  19.258  28.081   0.245
58100W        W19411  10.788  30.446   2.332
58101W        W19412   1.956   1.733  12.937
58102W        W19413  34.501  31.522  13.907
58103W        W19414  25.051  27.957   2.363
58104W        W19415  12.705   6.336   2.879
58105W        W19416  10.655  28.465   4.262
58106W        W19417  16.698   2.958   4.759
58107W        W19418  10.767  29.569  11.597
58108W        W19419  36.451  42.396  13.019
58109W        W19420  37.958  15.577   1.727
58110W        W19421  22.570   0.829   1.329
58111W        W19422  11.829  41.798   1.315
58112W        W19423  31.545   5.351   4.824
58113W        W19424  39.400  30.955  14.943
58114W        W19425  39.330  30.926  11.491
58115W        W19426  20.104  31.475   3.632
58116W        W19427  26.048   4.882   1.825
58117W        W19428   8.861  36.430   1.392
58118W        W19429  43.500  11.332   4.598
58119W        W19430  41.018  11.240   4.770
58120W        W19431  37.377  31.428   0.444
58121W        W19432  11.364  36.009   1.842
58122W        W19433  21.123  22.207  10.054
58123W        W19434  30.980   7.223  13.036
58124W        W19435   3.456  34.407  10.521
58125W        W19436  34.052  13.659   0.758
58126W        W19437  29.670  16.719   4.686
58127W        W19438  44.377  25.106   3.245
58128W        W19439  27.119  42.470  12.538
58129W        W19440  33.530  31.121   3.758
58130W        W19441  11.128  30.083  10.466
58131W        W19442   0.913  26.591  13.026
58132W        W19443  30.534   1.835  14.336
58133W        W19444  14.262  32.981  10.492
58134W        W19445  25.049  44.834  13.328
58135W        W19446  14.672  12.118  14.393
58136W        W19447  39.062  35.530   0.342
58137W        W19448   0.771   4.707  14.867
58138W        W19449  23.047  35.568   3.838
58139W        W19450  38.934  22.577   3.375
58140W        W19451  20.258  14.185   5.172
58141W        W19452  15.754  17.737  14.013
58142W        W19453  23.604  29.652  11.606
58143W        W19454   8.883   4.766   3.346
58144W        W19455  32.516  30.440  10.445
58145W        W19456  13.619  17.214  11.056
58146W        W19457   6.228  35.994   1.232
58147W        W19458  13.116  19.240   2.770
58148W        W19459  26.501   9.168   1.918
58149W        W19460   8.375  12.316  11.877
58150W        W19461   8.725   7.808   2.188
58151W        W19462  15.255  24.134  14.471
58152W        W19463  10.356  41.510   1.888
58153W        W19464  44.498   5.853  11.975
58154W        W19465  20.535  33.125   0.852
58155W        W19466  41.968  31.106   0.289
58156W        W19467  11.317   3.361  11.108
58157W        W19468  11.772  42.031  12.350
58158W        W19469  22.559   6.716   4.779
58159W        W19470  26.511  43.940  13.946
58160W        W19471  39.349  41.438   1.354
58161W        W19472  20.088  43.891   1.277
58162W        W19473  30.114  18.741   4.343
58163W        W19474  24.576  15.634   1.338
58164W        W19475   0.344  34.005  12.051
58165W        W19476  17.791  20.688  12.457
58166W        W19477  39.915   4.434  12.034
58167W        W19478  31.443  37.541   2.202
58168W        W19479  28.957  38.032  11.068
58169W        W19480  38.555   2.455  13.024
58170W        W19481  14.793   5.339  11.391
58171W        W19482   9.732  27.640   4.775
58172W        W19483  27.941  12.226   1.824
58173W        W19484  40.015  11.208   1.694
58174W        W19485  19.265  15.618  10.607
58175W        W19486  20.673  25.633   3.367
58176W        W19487  25.200  11.689  11.512
58177W        W19488  36.925  41.535  10.504
58178W        W19489  29.980  44.463  11.401
58179W        W19490  41.808  43.779   2.287
58180W        W19491  37.569  15.256   4.606
58181W        W19492   2.430  16.137  13.530
58182W        W19493  44.435   1.882   0.767
58183W        W19494   6.384  17.791  12.379
58184W        W19495  43.844   1.284  13.356
58185W        W19496  44.944   1.296  13.026
58186W        W19497   0.962   1.897   2.855
58187W        W19498  44.504   2.914   0.858
58188W        W19499  38.464  36.559   2.895
58189W        W19500  39.974  12.661   0.327
58190W        W19501  27.573   0.357   4.221
58191W        W19502  11.821  28.503   3.844
58192W        W19503  12.198   0.418   1.294
58193W        W19504  25.557  44.496   4.670
58194W        W19505  26.553  25.023  13.981
58195W        W19506  17.158  24.179  10.443
58196W        W19507   0.381  34.909   3.180
58197W        W19508  29.918   6.832   0.931
58198W        W19509  44.498  44.853  12.514
58199W        W19510   3.222   2.806  14.820
58200W        W19511  24.154   1.246   4.319
58201W        W19512   5.917  11.713  14.877
58202W        W19513  30.137  23.194   0.872
58203W        W19514  10.707  18.586   1.841
58204W        W19515  37.051   9.726   4.718
58205W        W19516  33.950  26.084  11.900
58206W        W19517  34.880  19.587   4.182
58207W        W19518  26.699  40.482  11.855
58208W        W19519  24.671  44.796   2.745
58209W        W19520  23.000  10.311  10.916
58210W        W19521  43.923   4.417   0.871
58211W        W19522   0.901  44.454  13.520
58212W        W19523  14.823  36.457   4.279
58213W        W19524   6.707  11.803  11.866
58214W        W19525  14.794  33.522   2.286
58215W        W19526   0.263   5.399  14.989
58216W        W19527  43.308   9.177   0.433
58217W        W19528  30.109   8.866   9.531
58218W        W19529  14.820  16.721  11.108
58219W        W19530  20.152  13.243  14.439
58220W        W19531  37.538   2.364  11.500
58221W        W19532  19.079  27.184   2.703
58222W        W19533   6.255  21.669  12.043
58223W        W19534  44.401  44.937   1.923
58224W        W19535  13.693   3.833  12.474
58225W        W19536   3.783  17.595  10.495
58226W        W19537  41.825  10.779  12.875
58227W        W19538  24.630  28.639   0.841
58228W        W19539  39.917  35.980   1.395
58229W        W19540  11.778  27.105  14.329
58230W        W19541  31.555  32.589  11.945
58231W        W19542   3.245   4.835   2.369
58232W        W19543   8.326  29.058  13.058
58233W        W19544  15.176   7.353   0.873
58234W        W19545   3.402  17.215  10.440
58235W        W19546  13.841   9.813   1.385
58236W        W19547  22.567   0.934  10.524
58237W        W19548  29.663  27.961  14.276
58238W        W19549   9.332  38.360  11.000
58239W        W19550  43.436   9.242   0.964
58240W        W19551  20.249  16.233  12.496
58241W        W19552  17.099  33.396  10.562
58242W        W19553  15.099  17.684  13.452
58243W        W19554  44.408  32.576   3.738
58244W        W19555   5.241   0.487   3.813
58245W        W19556  43.506  16.660  13.916
58246W        W19557  32.983  32.395   3.712
58247W        W19558  35.049   2.772   4.151
58248W        W19559  37.938   8.699  13.838
58249W        W19560  31.900  11.371   0.780
58250W        W19561  13.297  34.600  10.411
58251W        W19562  10.163  25.507  14.959
58252W        W19563  32.992  23.558   4.272
58253W        W19564  12.180  28.527  11.556
58254W        W19565  23.616   1.289  14.516
58255W        W19566  43.405  24.073   3.799
58256W        W19567  27.186  30.499  10.491
58257W        W19568   1.360  35.526  11.015
58258W        W19569  34.936  28.024  12.916
58259W        W19570  21.546   8.401   2.893
58260W        W19571  20.760  36.907  12.056
58261W        W19572  38.910  40.903  13.371
58262W        W19573  43.276   1.460   2.296
58263W        W19574  44.913  35.852  12.922
58264W        W19575  42.499  19.582   3.226
58265W        W19576   0.271   7.334   2.739
58266W        W19577  16.608  16.595  13.528
58267W        W19578   3.800  35.467   2.684
58268W        W19579  30.911  36.964   3.289
58269W        W19580  19.139  37.084   4.696
58270W        W19581  41.016  41.411  11.993
58271W        W19582  29.984  21.067   3.706
58272W        W19583  35.401  13.742  12.088
58273W        W19584  41.791  30.486   3.198
58274W        W19585   7.375  21.073  11.033
58275W        W19586  42.343  28.061   0.883
58276W        W19587  29.450  18.206  11.410
58277W        W19588   0.467  40.336  14.784
58278W        W19589  29.151   2.296   0.910
58279W        W19590  40.919  28.163   4.186
58280W        W19591  15.686   1.922   4.644
58281W        W19592  41.891   0.838  13.812
58282W        W19593  38.902  36.562  11.973
58283W        W19594  26.590  27.051  14.393
58284W        W19595  37.355  10.852  11.493
58285W        W19596  22.121  44.302   3.285
58286W        W19597  26.008  16.283   2.390
58287W        W19598   7.304  11.140   4.792
58288W        W19599  31.562  35.980  13.541
58289W        W19600  38.051   1.431   2.736
58290W        W19601  21.669   5.849  11.422
58291W        W19602  24.054  23.236   1.756
58292W        W19603  12.310  37.047   0.313
58293W        W19604  13.665  20.141  10.560
58294W        W19605  30.444  23.567  14.407
58295W        W19606  10.197  10.241   3.797
58296W        W19607  10.853  38.987   2.328
58297W        W19608  35.108   1.348  10.638
58298W        W19609  18.777  26.142   2.786
58299W        W19610  10.316   4.941   4.352
58300W        W19611  18.577  28.590  12.418
58301W        W19612  39.969  12.174  10.597
58302W        W19613   4.388  39.975  14.332
58303W        W19614  10.754  10.205   3.307
58304W        W19615  38.508   1.422   0.746
58305W        W19616  40.356   4.300  12.916
58306W        W19617  35.481  12.821  14.463
58307W        W19618   5.271  12.285   3.651
58308W        W19619  17.264  35.852   4.136
58309W        W19620  18.189   2.843   2.218
58310W        W19621  13.714  43.986   4.254
58311W        W19622  32.503  41.962   4.649
58312W        W19623   6.676  16.700  13.393
58313W        W19624  30.520  37.551  12.088
58314W        W19625  24.611  41.529   1.428
58315W        W19626  25.561  24.546   2.349
58316W        W19627  39.060  33.467  13.027
58317W        W19628  22.527   7.225   3.704
58318W        W19629  25.579   8.777  11.599
58319W        W19630  37.054  31.408  13.376
58320W        W19631  44.951   5.361  12.547
58321W        W19632  25.984  14.102  14.922
58322W        W19633   9.756  28.665   0.396
58323W        W19634  33.547  44.778   1.245
58324W        W19635  42.472  23.636   3.636
58325W        W19636  37.873  25.690  11.408
58326W        W19637  20.553  10.200  11.523
58327W        W19638  27.942  36.437   4.113
58328W        W19639  20.583  22.216   2.415
58329W        W19640  21.244  31.603   1.432
58330W        W19641   9.766   8.293  12.397
58331W        W19642  25.608  33.490   1.266
58332W        W19643  34.046  40.868   0.397
58333W        W19644  18.674  28.135  11.598
58334W        W19645  21.099  11.236   2.190
58335W        W19646   9.151  39.490  14.910
58336W        W19647  33.929   1.938   3.818
58337W        W19648   5.261   6.201   1.846
58338W        W19649  13.738  22.652  13.835
58339W        W19650  10.771  15.672  13.536
58340W        W19651  17.274  26.641   4.662
58341W        W19652   7.415  35.008  10.564
58342W        W19653  16.169  13.155   4.224
58343W        W19654  15.203  18.675  13.506
58344W        W19655   4.378  13.272   2.735
58345W        W19656  25.969  15.587   2.195
58346W        W19657  44.412  17.287   5.298
58347W        W19658  22.121  10.869  12.875
58348W        W19659  20.763  16.633   9.500
58349W        W19660  29.050   1.885   2.224
58350W        W19661  37.059  18.790   3.864
58351W        W19662  30.431  31.575  14.513
58352W        W19663   0.942  32.953  10.465
58353W        W19664  23.199  14.798   3.829
58354W        W19665  23.660  11.327   0.280
58355W        W19666   4.414  20.235  12.906
58356W        W19667  37.046  12.751  13.803
58357W        W19668  25.006  33.553  11.569
58358W        W19669  31.045  28.540  11.061
58359W        W19670  39.060   5.415   3.810
58360W        W19671  13.246  16.743  11.514
58361W        W19672   6.358  31.402  13.807
58362W        W19673  35.407   7.811  13.364
58363W        W19674  10.842  26.029  12.396
58364W        W19675  16.795  34.979  14.022
58365W        W19676  17.730  30.545   1.697
58366W        W19677  12.131  22.643  14.405
58367W        W19678   8.756   7.878   0.874
58368W        W19679  36.539  16.194  11.509
58369W        W19680   4.228  32.106   4.730
58370W        W19681  26.045  29.466  13.063
58371W        W19682   9.353  21.216   2.187
58372W        W19683  17.707  38.382  14.839
58373W        W19684  30.504  28.491   1.394
58374W        W19685  23.989  26.689   0.450
58375W        W19686  31.129  44.869   2.899
58376W        W19687  12.681  36.548   1.418
58377W        W19688  11.333  28.986   4.267
58378W        W19689  10.265   9.291   0.375
58379W        W19690   3.866  38.404   0.297
58380W        W19691  26.086  28.948  14.782
58381W        W19692  13.663  37.547   4.278
58382W        W19693  27.996  14.280   4.140
58383W        W19694  33.477  23.180  12.851
58384W        W19695   9.720  40.848  11.587
58385W        W19696   0.909  20.578  13.477
58386W        W19697  18.594  22.503  11.943
58387W        W19698  25.015   3.894   4.597
58388W        W19699  23.228   3.314  11.043
58389W        W19700  35.603  40.378   1.426
58390W        W19701  36.055  23.633  12.430
58391W        W19702  44.287   9.280  13.545
58392W        W19703  44.859  15.118  13.016
58393W        W19704  37.849   4.251  11.489
58394W        W19705  24.545  28.143   0.355
58395W        W19706   1.475  33.026  12.917
58396W        W19707  21.154  42.853  14.903
58397W        W19708  42.477  43.910   0.810
58398W        W19709  23.096  11.679   1.742
58399W        W19710  36.444  37.415  14.969
58400W        W19711  37.441  25.085   2.713
58401W        W19712  36.571  40.374  13.831
58402W        W19713  16.687  26.605   0.951
58403W        W19714  19.043   5.720   0.440
58404W        W19715  12.745  12.747  10.413
58405W        W19716  36.434   4.350  10.941
58406W        W19717  14.649  15.642   3.226
58407W        W19718  20.185  29.156  13.984
58408W        W19719   9.766  13.776   4.298
58409W        W19720  17.222   6.423   2.416
58410W        W19721   2.285  35.528   3.153
58411W        W19722  10.697  20.201   4.838
58412W        W19723   9.823  17.652   2.701
58413W        W19724  36.432  15.660  10.996
58414W        W19725  24.485  42.342   1.445
58415W        W19726  11.635  21.060   3.765
58416W        W19727  29.471   3.772  10.591
58417W        W19728  42.993   9.152   2.860
58418W        W19729  12.330  36.460   4.732
58419W        W19730  36.902  34.596  14.474
58420W        W19731   4.743  35.054  11.470
58421W        W19732  29.991   6.423   0.881
58422W        W19733   7.250  28.680   3.818
58423W        W19734  11.856   3.854  13.539
58424W        W19735  18.673  23.560   4.137
58425W        W19736  43.497  15.776  13.850
58426W        W19737  30.593  41.305  14.388
58427W        W19738  40.336  26.021   1.258
58428W        W19739   2.923   7.839  14.825
58429W        W19740  35.878  24.059  10.891
58430W        W19741  40.986  30.141  11.914
58431W        W19742  43.871   8.749  12.888
58432W        W19743  29.063  31.121   1.914
58433W        W19744  12.703  34.081   4.175
58434W        W19745  24.612  10.169  12.891
58435W        W19746   8.250   8.677  13.834
58436W        W19747  34.093  37.911  13.984
58437W        W19748  18.609   2.442   3.786
58438W        W19749  18.078   1.971   0.918
58439W        W19750  24.024  30.516  11.439
58440W        W19751  34.983  36.358  11.424
58441W        W19752   1.907  31.013   4.773
58442W        W19753  25.693  27.639  12.421
58443W        W19754   4.402  25.093  14.964
58444W        W19755   8.891  42.353  12.474
58445W        W19756   0.337   1.476   3.733
58446W        W19757  28.088  27.611  14.459
58447W        W19758   3.449   1.840  12.852
58448W        W19759   4.785  23.169  11.602
58449W        W19760   5.696   0.285   0.330
58450W        W19761  33.893  32.592   4.131
58451W        W19762  30.462  23.590   0.342
58452W        W19763  31.093  10.634  11.456
58453W        W19764  21.517  24.048   2.779
58454W        W19765   9.696  34.073  12.515
58455W        W19766  23.730   5.758   2.840
58456W        W19767  21.231   0.775   1.267
58457W        W19768  25.501  44.469   1.727
58458W        W19769   1.362   4.288  13.015
58459W        W19770  41.037   3.855  14.770
58460W        W19771  19.718  24.025   0.882
58461W        W19772  15.319  37.448   0.469
58462W        W19773  42.913  35.032  14.315
58463W        W19774  16.259  12.127  10.581
58464W        W19775  16.227  18.581  14.423
58465W        W19776  31.931  39.921   2.327
58466W        W19777  11.272  19.739  13.517
58467W        W19778  36.045  10.375   3.203
58468W        W19779  41.980  12.714  14.383
58469W        W19780  25.994  16.800   0.767
58470W        W19781  43.963   8.770  10.963
58471W        W19782  18.544   1.822   3.710
58472W        W19783  24.122  31.982   0.812
58473W        W19784  22.248  37.087  14.328
58474W        W19785  18.559  30.472   1.725
58475W        W19786  30.101   3.282   3.650
58476W        W19787  24.512  12.129   4.234
58477W        W19788  42.518  40.361   2.197
58478W        W19789  34.952   4.875  12.483
58479W        W19790  44.894  37.427   2.358
58480W        W19791  39.878  37.360  14.872
58481W        W19792   0.313  22.723  14.351
58482W        W19793  34.991  42.968  13.989
58483W        W19794  18.607  11.254   2.391
58484W        W19795  34.947  16.262   0.247
58485W        W19796  14.157  15.302  13.935
58486W        W19797  13.277  36.880  12.982
58487W        W19798  11.779   4.852  13.490
58488W        W19799  15.760  27.091   3.752
58489W        W19800  41.336  25.638  12.357
58490W        W19801   4.941  16.230   0.905
58491W        W19802  43.348  17.218  13.799
58492W        W19803  27.687  37.530   1.383
58493W        W19804   7.414   4.391   3.246
58494W        W19805  23.052   2.913  11.378
58495W        W19806  10.752   9.715   2.825
58496W        W19807   9.178  17.154   0.340
58497W        W19808  13.174   6.832  10.068
58498W        W19809   7.881   5.332   3.357
58499W        W19810  40.531  39.027   3.635
58500W        W19811  24.165  26.077  12.484
58501W        W19812  22.104  10.377  10.562
58502W        W19813   0.824   0.914   4.809
58503W        W19814  37.929   2.395   0.387
58504W        W19815  16.699  43.852  10.604
58505W        W19816  31.050  17.248   3.726
58506W        W19817   9.298   0.950  11.968
58507W        W19818  43.463  15.126  10.632
58508W        W19819  28.625   3.319  13.538
58509W        W19820   6.806  37.450  13.819
58510W        W19821   6.913  29.464  12.958
58511W        W19822   5.744  15.814   0.297
58512W        W19823  31.942  21.667  13.513
58513W        W19824   4.254  20.185   4.211
58514W        W19825  32.001  15.790   3.351
58515W        W19826  29.635  27.651   2.825
58516W        W19827  24.975  41.492   4.350
58517W        W19828  14.274  42.970   1.929
58518W        W19829  30.515   8.178  12.383
58519W        W19830  34.993  40.425   3.364
58520W        W19831  22.645   8.180   0.287
58521W        W19832  29.160  18.250   1.325
58522W        W19833  37.992  21.527   2.356
58523W        W19834  25.560  13.182  13.952
58524W        W19835  35.086  14.623  10.436
58525W        W19836  24.139  39.032  14.376
58526W        W19837  14.627  30.079   2.262
58527W        W19838  11.287   1.910  12.351
58528W        W19839  28.481  35.403  12.869
58529W        W19840   3.732  19.046  10.928
58530W        W19841  26.528  26.060  14.879
58531W        W19842  10.271   7.286  12.356
58532W        W19843  28.624  16.737   2.816
58533W        W19844   6.686  23.099   1.447
58534W        W19845   3.924  42.954  13.958
58535W        W19846  21.038   3.949   2.703
58536W        W19847   6.357  29.550  11.124
58537W        W19848   8.272   1.759  14.770
58538W        W19849  16.640  39.847   4.275
58539W        W19850  35.870  38.453  10.482
58540W        W19851  22.579   3.310  14.400
58541W        W19852   0.968   9.711   1.255
58542W        W19853  41.015  17.300  12.434
58543W        W19854  20.751   5.706   4.804
58544W        W19855  31.898   9.391   4.281
58545W        W19856  44.483   4.927   0.900
58546W        W19857  14.829  42.334  10.516
58547W        W19858  16.672  44.922   1.867
58548W        W19859  39.828  18.668   3.190
58549W        W19860   4.361  44.999   3.780
58550W        W19861  17.691  31.607   0.300
58551W        W19862   6.338  25.183  10.004
58552W        W19863  32.608  25.134   4.195
58553W        W19864   7.181  33.545  11.896
58554W        W19865  24.660  43.413  12.364
58555W        W19866   5.202  29.014  13.440
58556W        W19867  14.256   6.744  12.995
58557W        W19868  40.482   5.435   1.826
58558W        W19869  22.242  17.770  12.984
58559W        W19870  28.568   8.800   2.762
58560W        W19871  36.015  28.680   1.311
58561W        W19872  40.488  29.622   3.667
58562W        W19873  28.549  15.087   1.841
58563W        W19874  15.793  43.477  10.517
58564W        W19875  12.340  40.450   1.725
58565W        W19876   2.233   4.905  14.476
58566W        W19877  40.884   3.325  11.426
58567W        W19878  31.058   7.403   0.476
58568W        W19879  32.070  40.866   1.407
58569W        W19880   7.314  42.364   4.125
58570W        W19881  24.575  17.743  14.003
58571W        W19882  34.878  40.962  13.925
58572W        W19883  23.207  20.739  12.977
58573W        W19884  14.263  27.069  10.986
58574W        W19885   2.406   2.939   1.761
58575W        W19886  43.918  19.706  12.431
58576W        W19887  26.545  23.004   2.880
58577W        W19888   0.817   6.289   0.777
58578W        W19889  23.070  29.150   2.314
58579W        W19890   4.839  33.045  11.074
58580W        W19891   9.352  21.060   1.885
58581W        W19892  41.009  13.112   1.211
58582W        W19893  44.951  31.633  11.876
58583W        W19894  27.147   4.298  13.333
58584W        W19895  13.709   8.808   0.381
58585W        W19896  33.540   9.846  12.056
58586W        W19897  32.887  42.993  10.911
58587W        W19898  21.644  44.865  14.431
58588W        W19899   3.954   6.241   2.187
58589W        W19900   0.966  44.799  12.080
58590W        W19901  35.017  35.381   1.348
58591W        W19902   4.788  44.873  13.438
58592W        W19903  22.239   0.984   2.865
58593W        W19904  41.847   4.763   5.259
58594W        W19905  44.955   1.881  14.415
58595W        W19906  40.010  43.978   3.154
58596W        W19907  43.910  24.559   1.858
58597W        W19908  16.790  37.563   1.372
58598W        W19909   2.417  13.162   1.861
58599W        W19910   7.378  37.535   3.323
58600W        W19911   3.354  41.341  13.985
58601W        W19912  27.141  26.554   4.146
58602W        W19913  42.907  40.424   1.249
58603W        W19914  10.314  40.872  14.363
58604W        W19915  43.516  29.660  13.904
58605W        W19916  15.743  27.975   2.884
58606W        W19917  23.025  17.074   4.239
58607W        W19918   9.290  41.997  13.519
58608W        W19919  32.896  29.660  12.557
58609W        W19920   2.927  42.955   3.838
58610W        W19921  16.738  40.403   4.309
58611W        W19922   2.876  22.242  13.541
58612W        W19923  20.141  44.866   3.746
58613W        W19924  37.358  41.877  12.078
58614W        W19925  12.132  19.770  14.410
58615W        W19926  26.611  24.612  10.941
58616W        W19927  41.793  11.656   2.679
58617W        W19928  14.264  15.739   1.449
58618W        W19929  13.620  42.349   0.401
58619W        W19930  18.735  25.129   5.293
58620W        W19931  43.338  31.611   3.748
58621W        W19932  23.134  29.610  12.873
58622W        W19933  23.606   8.762   2.351
58623W        W19934   9.304  25.588  10.436
58624W        W19935  30.413  33.490  10.949
58625W        W19936   0.910  40.920  14.991
58626W        W19937  40.937  43.845  11.468
58627W        W19938   6.379   8.328  14.353
58628W        W19939   9.815   7.177   2.878
58629W        W19940  31.054   0.344   4.342
58630W        W19941  16.095  28.010  14.834
58631W        W19942  34.541  15.186  10.985
58632W        W19943   5.397  10.838  11.506
58633W        W19944  24.530  25.570   1.704
58634W        W19945  11.142   8.690   4.826
58635W        W19946  41.817  22.242   1.384
58636W        W19947  36.395   0.292  12.963
58637W        W19948   3.780  40.821   3.264
58638W        W19949   1.343  10.689  10.511
58639W        W19950   3.447  35.408  12.064
58640W        W19951  27.462   0.321   2.267
58641W        W19952   6.301  31.486  12.887
58642W        W19953  29.934  33.464   0.341
58643W        W19954  26.151   5.284   1.282
58644W        W19955  17.130   8.858   2.680
58645W        W19956  17.790  29.576   1.928
58646W        W19957  23.170  12.772   0.862
58647W        W19958  30.615   5.314  12.969
58648W        W19959  12.617  40.505   4.712
58649W        W19960  22.020  25.656   2.789
58650W        W19961   9.796  29.471  13.414
58651W        W19962   8.292   1.964   4.292
58652W        W19963  23.998  42.931  13.930
58653W        W19964  26.014  43.811  12.560
58654W        W19965   9.223  11.680   3.811
58655W        W19966  42.977  38.507  13.375
58656W        W19967   8.402  33.508   0.942
58657W        W19968  18.663  34.545  13.987
58658W        W19969  33.384  16.271   3.216
58659W        W19970  18.760  40.475  11.936
58660W        W19971  12.705  40.383  12.060
58661W        W19972  18.280   3.317   0.379
58662W        W19973  16.203  27.478  13.348
58663W        W19974  34.503  42.366   3.853
58664W        W19975  28.164  11.672  11.605
58665W        W19976  42.786  14.829  13.899
58666W        W19977  14.734  16.287  11.528
58667W        W19978  32.590  27.196  13.802
58668W        W19979  19.623  23.036   0.415
58669W        W19980  35.989  10.632  11.937
58670W        W19981   0.469  22.718  13.969
58671W        W19982  40.456  31.494  14.961
58672W        W19983  16.740   6.842   0.913
58673W        W19984  21.116  30.587  15.000
58674W        W19985  34.012   2.427  12.096
58675W        W19986  30.062  30.538   0.277
58676W        W19987   1.971  35.869  12.975
58677W        W19988  28.183  25.015   2.710
58678W        W19989  25.113  37.522  12.994
58679W        W19990  35.490  40.874   3.387
58680W        W19991  24.701  23.580   0.431
58681W        W19992  33.074  28.144  14.473
58682W        W19993  32.106  44.328   1.779
58683W        W19994  12.827  18.639   1.792
58684W        W19995  42.008  18.775  14.886
58685W        W19996  37.343  20.274   1.265
58686W        W19997   1.810  19.558   2.388
58687W        W19998   8.771   8.349   3.375
58688W        W19999  39.472  11.277  10.979
58689W        W20000   2.311  30.614   4.783
58690W        W20001  20.684  34.006  11.022
58691W        W20002   1.754  22.019  13.453
58692W        W20003   5.761  18.059  14.508
58693W        W20004  23.569   6.214  12.581
58694W        W20005  23.080  18.216   3.631
58695W        W20006   7.415  24.666   0.815
58696W        W20007  17.561   5.365  11.947
58697W        W20008  20.551  39.920   0.932
58698W        W20009   2.821  30.558   2.703
58699W        W20010  20.712  36.527  12.462
58700W        W20011  43.445  29.003   3.215
58701W        W20012   9.660  29.046  11.416
58702W        W20013  33.487  23.107  10.916
58703W        W20014  22.036  28.459  13.480
58704W        W20015  16.785  29.078   2.193
58705W        W20016  41.823  17.741  11.509
58706W        W20017  20.563  15.592  13.864
58707W        W20018  36.550  24.045  11.027
58708W        W20019   7.792  20.752   2.684
58709W        W20020  26.473  37.854   0.873
58710W        W20021  22.557  41.807  10.524
58711W        W20022  27.971   9.870   3.150
58712W        W20023  29.657   0.883  12.462
58713W        W20024  25.579  28.639   0.365
58714W        W20025  12.242   1.970  13.965
58715W        W20026   9.167  24.541   0.747
58716W        W20027  35.572  25.682  10.893
58717W        W20028   6.844  23.207   3.670
58718W        W20029  38.341  12.627  14.880
58719W        W20030  38.960  14.327  14.470
58720W        W20031   8.893   1.408   4.174
58721W        W20032   8.299  36.350  12.418
58722W        W20033  41.420  22.691  14.935
58723W        W20034  39.956   1.341   3.175
58724W        W20035  32.550  10.794  10.507
58725W        W20036   6.409  27.166   3.169
58726W        W20037  16.716  14.161   2.840
58727W        W20038   2.778   7.261  11.588
58728W        W20039   1.809  24.104   4.706
58729W        W20040  15.721  27.521  12.495
58730W        W20041  36.365   0.878   4.686
58731W        W20042  27.122  13.345   2.223
58732W        W20043  13.168   8.841   5.189
58733W        W20044   1.944  10.681   1.927
58734W        W20045   8.810   9.275   2.876
58735W        W20046  21.179  42.807  13.342
58736W        W20047  11.804  11.687   0.397
58737W        W20048  17.696   3.785  10.131
58738W        W20049  29.568  31.029  10.564
58739W        W20050  13.673  44.299  14.305
58740W        W20051  41.855  31.900   2.330
58741W        W20052  27.171  21.027  12.987
58742W        W20053  38.961  34.992   2.254
58743W        W20054  14.633  15.193  11.507
58744W        W20055  36.426   8.268   4.137
58745W        W20056  40.878  32.490  12.077
58746W        W20057  23.556  43.417  11.429
58747W        W20058  31.034   7.395  14.377
58748W        W20059  39.868  44.779   4.220
58749W        W20060  16.102  44.436   1.303
58750W        W20061  41.407  34.524   4.778
58751W        W20062  22.570  10.652   3.382
58752W        W20063   9.362  18.269  10.589
58753W        W20064  36.877  14.247   1.377
58754W        W20065  18.076  18.758   0.826
58755W        W20066  13.193  20.714   2.233
58756W        W20067  38.028  21.714   3.329
58757W        W20068  25.166  18.691   3.368
58758W        W20069  38.990  23.240  11.050
58759W        W20070  12.613  15.670  13.029
58760W        W20071  41.393  35.886  14.836
58761W        W20072   4.348  40.543  13.435
58762W        W20073  15.116   0.958  14.028
58763W        W20074  12.327  33.544  11.544
58764W        W20075  31.606  14.729   3.370
58765W        W20076   9.651  11.799   1.822
58766W        W20077  26.682  44.463  10.508
58767W        W20078  37.019  32.489  12.959
58768W        W20079  15.282  20.667  11.022
58769W        W20080   4.730   1.831  14.329
58770W        W20081   4.405  28.459   3.384
58771W        W20082  31.122  10.870   2.801
58772W        W20083   9.717  28.538   3.766
58773W        W20084  42.775  29.032  14.953
58774W        W20085  39.473   9.176  11.504
58775W        W20086  16.595   3.818   0.901
58776W        W20087  17.144  11.348  12.430
58777W        W20088  40.412   9.272   4.811
58778W        W20089  32.481  37.481   4.630
58779W        W20090   0.866  17.151  14.990
58780W        W20091   9.760  30.953   3.238
58781W        W20092  12.720  35.993  14.357
58782W        W20093  44.931  28.496  14.846
58783W        W20094  16.148   5.320  14.456
58784W        W20095  34.963  37.003  13.906
58785W        W20096  35.535   9.818  13.829
58786W        W20097  37.033  18.259   0.764
58787W        W20098  43.453  37.431   0.817
58788W        W20099  44.365  44.394  10.453
58789W        W20100  12.736   4.243   1.349
58790W        W20101  25.621  26.196  12.923
58791W        W20102  19.741  28.120   1.827
58792W        W20103  15.758  16.293   0.254
58793W        W20104   6.281   2.422  11.390
58794W        W20105  26.998  20.041   3.675
58795W        W20106  24.695  14.607   4.620
58796W        W20107   8.259  19.620   2.685
58797W        W20108  38.865  27.078  12.904
58798W        W20109   1.434  44.478   1.386
58799W        W20110  25.589   2.392  14.422
58800W        W20111  37.373   6.351   0.835
58801W        W20112  29.098   3.768   3.155
58802W        W20113  25.176  33.122  11.896
58803W        W20114  39.844  30.982   2.358
58804W        W20115  20.151  23.991   0.787
58805W        W20116   3.252  30.618  13.013
58806W        W20117   3.854  33.521   1.417
58807W        W20118  13.823  16.598  11.078
58808W        W20119  31.490  15.289   3.704
58809W        W20120   3.357  16.633   0.885
58810W        W20121  24.149  24.127   3.152
58811W        W20122  14.156  23.240  12.542
58812W        W20123  15.193  33.995  11.013
58813W        W20124  34.382  28.611  11.544
58814W        W20125  18.783  43.908  11.013
58815W        W20126  14.735  33.553   1.786
58816W        W20127  20.548  41.824   1.421
58817W        W20128  13.666  18.675  12.339
58818W        W20129  32.573  41.352   0.952
58819W        W20130  39.468   0.373   0.874
58820W        W20131   8.729  14.296   3.825
58821W        W20132  27.691   7.275   4.830
58822W        W20133  32.097  41.943   0.765
58823W        W20134  12.849  28.989   1.830
58824W        W20135  41.526  40.971  10.548
58825W        W20136  18.109   3.765  14.881
58826W        W20137  33.984   2.411   1.440
58827W        W20138  21.640  33.444   3.361
58828W        W20139  17.747  36.434  10.996
58829W        W20140  17.652  28.663   4.831
58830W        W20141  41.332   9.207   3.207
58831W        W20142  40.337  21.178  12.530
58832W        W20143  23.014  23.099  12.852
58833W        W20144  28.519  16.629  13.913
58834W        W20145  41.908  38.561  13.331
58835W        W20146   3.851  23.019   4.650
58836W        W20147  21.117  20.067  13.329
58837W        W20148  11.729   0.820  13.367
58838W        W20149   2.321   1.747   0.839
58839W        W20150  38.843  42.329  10.606
58840W        W20151  11.371  30.589   4.822
58841W        W20152   4.403  30.987  12.855
58842W        W20153   6.862  27.048  14.846
58843W        W20154  25.611  18.549   1.853
58844W        W20155  15.086  25.518  12.907
58845W        W20156  24.100  33.878   3.669
58846W        W20157  38.044   6.257  12.065
58847W        W20158   7.408  15.582   0.937
58848W        W20159   5.197   4.879   1.411
58849W        W20160  26.161   3.420   0.315
58850W        W20161  30.162  32.078   0.444
58851W        W20162  12.812  35.362  12.948
58852W        W20163   6.904   6.366  11.599
58853W        W20164  16.136  11.827  10.957
58854W        W20165  13.175  14.174  12.474
58855W        W20166  44.867  36.396   3.295
58856W        W20167  43.403  35.060   4.777
58857W        W20168  29.664  32.045   4.669
58858W        W20169  14.673  32.070   2.340
58859W        W20170   0.371   0.916   1.379
58860W        W20171   4.722  40.040   1.416
58861W        W20172  21.217  42.505  11.096
58862W        W20173   3.898  13.811  13.535
58863W        W20174   7.687  13.726   3.182
58864W        W20175  22.224   5.843   4.137
58865W        W20176  43.907  11.197   0.275
58866W        W20177  12.854  15.182  10.485
58867W        W20178   0.871   3.383   2.710
58868W        W20179  24.214   6.720  14.781
58869W        W20180  24.200  35.091  11.419
58870W        W20181  37.961  10.679   1.747
58871W        W20182  41.446  28.479   1.410
58872W        W20183  40.971  36.484  13.853
58873W        W20184  29.158  23.607   0.931
58874W        W20185   5.924  28.120  13.329
58875W        W20186  37.575   4.391   3.327
58876W        W20187  13.613  27.644  13.842
58877W        W20188   8.798  14.096   4.649
58878W        W20189  34.593   0.923  14.839
58879W        W20190  37.424  38.039   0.913
58880W        W20191  28.664   1.869   2.773
58881W        W20192  30.949  22.181   0.327
58882W        W20193  11.724  21.167   2.400
58883W        W20194  35.105  41.861   1.931
58884W        W20195  12.252   2.360   1.338
58885W        W20196  36.965  33.050  12.458
58886W        W20197  34.882  21.051  11.566
58887W        W20198   6.253  19.739   2.375
58888W        W20199  34.940   8.399  14.761
58889W        W20200  19.194  23.991   1.321
58890W        W20201  42.812   0.960  13.885
58891W        W20202  31.521  23.684   0.811
58892W        W20203  37.981  24.662  13.034
58893W        W20204  17.276  34.574   0.901
58894W        W20205  20.210  38.529   2.761
58895W        W20206  32.527  10.708   4.821
58896W        W20207   7.358  30.614  14.886
58897W        W20208  41.500  17.765   1.403
58898W        W20209  14.705  33.591  11.049
58899W        W20210  15.710  22.672  14.300
58900W        W20211  42.401   4.316   3.667
58901W        W20212  11.128  43.322   0.370
58902W        W20213  28.978  33.932   0.285
58903W        W20214  17.253   5.838  11.514
58904W        W20215  39.370  19.534   1.354
58905W        W20216  14.804  23.681   3.287
58906W        W20217  30.533  11.318  13.495
58907W        W20218  42.512  34.467   1.411
58908W        W20219  11.203  30.437  12.479
58909W        W20220  17.618   8.376   3.714
58910W        W20221   1.888   7.179   0.353
58911W        W20222  41.022  32.434  10.985
58912W        W20223   8.858  13.326  11.062
58913W        W20224   1.893   6.366   1.216
58914W        W20225  14.719  41.888   3.753
58915W        W20226   3.738   9.350   1.761
58916W        W20227  10.837   3.848   0.915
58917W        W20228   2.290  35.468   4.655
58918W        W20229  35.889  31.902   3.265
58919W        W20230  18.654  12.158  11.973
58920W        W20231  21.029  37.032  12.507
58921W        W20232  31.926   2.882  13.357
58922W        W20233   3.869   5.372   0.349
58923W        W20234  18.058  37.533   4.144
58924W        W20235   8.886  17.773   1.271
58925W        W20236  16.722  26.156  12.468
58926W        W20237  21.154  27.596  13.351
58927W        W20238  38.912  29.607   0.263
58928W        W20239  22.723   5.343  13.017
58929W        W20240  22.679  31.437   0.354
58930W        W20241  37.356  13.272  14.862
58931W        W20242  36.532  29.134   0.741
58932W        W20243  27.017  31.464  12.579
58933W        W20244  18.616  19.703   2.247
58934W        W20245  25.032  14.589  14.330
58935W        W20246  31.951   1.363   0.324
58936W        W20247  34.585   4.318  12.343
58937W        W20248  44.918  11.785   2.391
58938W        W20249  15.207  30.124   2.376
58939W        W20250  13.727   6.798   2.384
58940W        W20251  35.471  43.948  14.809
58941W        W20252  15.322   9.320   2.204
58942W        W20253  37.496  11.156   4.721
58943W        W20254  28.085  15.233  10.437
58944W        W20255   0.425  29.522   3.831
58945W        W20256  36.505   5.920   1.870
58946W        W20257  18.216  36.057   4.316
58947W        W20258  33.008  17.297   2.782
58948W        W20259  34.563  30.910   2.400
58949W        W20260  23.664  24.682   0.313
58950W        W20261  14.796  34.614   1.813
58951W        W20262  28.023  26.007   0.848
58952W        W20263  33.944  42.831  11.060
58953W        W20264   3.380   3.222   2.790
58954W        W20265  42.790  13.275   3.777
58955W        W20266   6.197  25.138   1.420
58956W        W20267   9.260   8.402   0.802
58957W        W20268  40.437   8.278   2.752
58958W        W20269  39.868  38.867   5.319
58959W        W20270   9.199  18.691   2.309
58960W        W20271  33.419  42.372   2.291
58961W        W20272  34.978   2.808  10.621
58962W        W20273  25.026  35.090   1.853
58963W        W20274  25.626  43.986   2.232
58964W        W20275  19.253  13.239   3.771
58965W        W20276  32.080  21.213   3.317
58966W        W20277  16.797  13.337   5.154
58967W        W20278  25.494  37.446   2.185
58968W        W20279  32.438  29.482   1.762
58969W        W20280   3.821  44.269  12.097
58970W        W20281  43.467  22.669   1.309
58971W        W20282   3.885  34.942   0.732
58972W        W20283  22.019  32.902  13.854
58973W        W20284  37.921  39.976  11.882
58974W        W20285  26.667  32.574  11.496
58975W        W20286  34.041  29.011  14.354
58976W        W20287  37.036   6.720   0.965
58977W        W20288  21.728  17.139  11.046
58978W        W20289   2.289  44.935  12.523
58979W        W20290  44.807  16.241  11.404
58980W        W20291  40.963  30.636  14.822
58981W        W20292  35.909   4.446  13.052
58982W        W20293  28.946  25.597   1.906
58983W        W20294  23.511   8.216   1.331
58984W        W20295  23.154  39.973   4.654
58985W        W20296  24.194  17.122   3.864
58986W        W20297   9.369  18.095   2.397
58987W        W20298  30.118  32.432  13.061
58988W        W20299  10.652   5.263  13.825
58989W        W20300   1.950  31.061  14.462
58990W        W20301   7.831   1.884   1.784
58991W        W20302  39.468   2.269   1.845
58992W        W20303  40.387   0.280  11.414
58993W        W20304  36.476  11.840  13.395
58994W        W20305  14.588  14.768   1.291
58995W        W20306   4.272  32.407   2.365
58996W        W20307   1.348  32.915   4.637
58997W        W20308   2.366  36.896   2.725
58998W        W20309  20.602  38.936   3.647
58999W        W20310  38.895  25.587  11.421
59000W        W20311  44.872  19.582  10.975
59001W        W20312  42.405  24.504  11.443
59002W        W20313  36.908  12.774  11.078
59003W        W20314  12.200  18.273  12.403
59004W        W20315   4.896  11.226  13.931
59005W        W20316  26.957  42.461  11.599
59006W        W20317  25.701  13.225  14.990
59007W        W20318  16.214  27.534  14.878
59008W        W20319   1.817  25.159   0.395
59009W        W20320   1.930  23.045   0.338
59010W        W20321   2.414  39.852   0.423
59011W        W20322   5.194  34.558  12.840
59012W        W20323  25.576   4.312   3.158
59013W        W20324  16.643  25.494  14.281
59014W        W20325  13.310  34.971  14.938
59015W        W20326  43.865  19.068  12.405
59016W        W20327  34.574  18.164  13.419
59017W        W20328  28.447  21.691   0.280
59018W        W20329  29.078  11.647   0.760
59019W        W20330   1.920   8.891   2.199
59020W        W20331   3.836   1.938   0.391
59021W        W20332   2.429   1.335   0.731
59022W        W20333  14.150   4.361  13.839
59023W        W20334   9.730  12.251   4.338
59024W        W20335   5.319  35.576   1.934
59025W        W20336   2.828   8.765   2.771
59026W        W20337   6.815   5.306  11.000
59027W        W20338  37.043  16.134   0.408
59028W        W20339  34.905  39.354   9.649
59029W        W20340  31.025  16.685  14.368
59030W        W20341  15.166  11.670   3.635
59031W        W20342  32.106  31.507   1.706
59032W        W20343  42.501  44.275   2.787
59033W        W20344   8.862  27.504  13.359
59034W        W20345  35.087  31.952   1.803
59035W        W20346  20.150  34.046   1.409
59036W        W20347  37.455  28.946   1.442
59037W        W20348  29.126  25.190  10.911
59038W        W20349   2.875  11.267   2.178
59039W        W20350  16.096  14.695   1.434
59040W        W20351   8.672  30.590  13.498
59041W        W20352  33.091   1.294  12.424
59042W        W20353   1.457  11.239  10.470
59043W        W20354  35.561  24.182  10.645
59044W        W20355   0.347  38.570  12.935
59045W        W20356  28.533  35.451   0.257
59046W        W20357  26.029  23.513  10.448
59047W        W20358  43.273  29.443  12.463
59048W        W20359  11.852  24.626  11.610
59049W        W20360  33.591  42.374  14.340
59050W        W20361   5.304   9.247  14.379
59051W        W20362  17.601  40.018  11.463
59052W        W20363  26.986  37.565   1.842
59053W        W20364  28.125  25.565  11.047
59054W        W20365   0.324   1.381  13.879
59055W        W20366  19.277  40.055  14.458
59056W        W20367  22.132  41.377   5.088
59057W        W20368  28.123  32.962   1.820
59058W        W20369  30.472   0.819   1.897
59059W        W20370  33.523  44.756  14.454
59060W        W20371  25.050  13.709   0.786
59061W        W20372  16.630   4.875  12.840
59062W        W20373   6.384  22.679   0.455
59063W        W20374   7.247  13.798  12.886
59064W        W20375  11.710  26.545   2.390
59065W        W20376  18.752  36.970   3.351
59066W        W20377  14.674  38.542  11.078
59067W        W20378  31.483   6.366   4.613
59068W        W20379  27.017  16.654   0.961
59069W        W20380   4.286  18.092  12.513
59070W        W20381  11.710  32.435  10.157
59071W        W20382  18.666  14.312   0.962
59072W        W20383  10.878  30.130   0.796
59073W        W20384  33.090  18.544   3.833
59074W        W20385   6.417  26.202   4.742
59075W        W20386  13.806  11.741  12.431
59076W        W20387  25.581  28.634  13.365
59077W        W20388  41.970   9.386   0.246
59078W        W20389   6.718  43.822   0.340
59079W        W20390  20.629  30.064  11.396
59080W        W20391  40.917  19.188   1.886
59081W        W20392  22.608  29.617  13.018
59082W        W20393  14.220  31.027  10.477
59083W        W20394  18.718  36.961  11.982
59084W        W20395   1.884  42.853   3.160
59085W        W20396   8.700  35.970  11.427
59086W        W20397  13.649  31.126   0.421
59087W        W20398  11.678  29.553  10.534
59088W        W20399  23.001  14.285   3.216
59089W        W20400   8.888   8.306  11.991
59090W        W20401   0.878   2.750  14.990
59091W        W20402   8.356  18.598   4.193
59092W        W20403  32.072  21.725  14.972
59093W        W20404  19.707  18.104   1.413
59094W        W20405  43.511  32.058   3.261
59095W        W20406  43.846   9.856  11.505
59096W        W20407  29.975   9.678   4.256
59097W        W20408  39.877   5.302   2.376
59098W        W20409   8.233  43.963   1.749
59099W        W20410   6.890  25.009   0.428
59100W        W20411  29.941  26.005   0.373
59101W        W20412   0.983  18.277   1.239
59102W        W20413   4.446  37.561   1.926
59103W        W20414  34.929  41.385   4.180
59104W        W20415  25.477   2.339  11.515
59105W        W20416   1.382  27.605   2.215
59106W        W20417  40.956  28.533   4.291
59107W        W20418  37.895  41.832   1.768
59108W        W20419   6.685   0.853   0.382
59109W        W20420   3.911  19.086   2.784
59110W        W20421   4.700  11.338  10.559
59111W        W20422  25.028   5.343  12.896
59112W        W20423  10.725  44.829   0.392
59113W        W20424   7.327  36.380   4.265
59114W        W20425  42.015  40.344   3.821
59115W        W20426  32.611  13.292  11.014
59116W        W20427  41.944  15.269  14.905
59117W        W20428  11.256  40.531  12.461
59118W        W20429   7.386  29.150  11.076
59119W        W20430   4.427  10.835   1.242
59120W        W20431  16.792  23.588   1.715
59121W        W20432  41.366  19.773   3.322
59122W        W20433   7.795  38.332   2.223
59123W        W20434  32.592  36.388   3.345
59124W        W20435   7.734  42.294  12.533
59125W        W20436  25.020  12.350   4.615
59126W        W20437  30.007  10.384   1.762
59127W        W20438  21.625  25.191   1.772
59128W        W20439  12.682  30.515   4.344
59129W        W20440  43.798  41.920   4.657
59130W        W20441  22.674  25.513   4.278
59131W        W20442   8.347  41.465  13.380
59132W        W20443   7.785  41.393  11.608
59133W        W20444  20.602  26.599  12.360
59134W        W20445   0.408   0.337  12.525
59135W        W20446  30.635   7.171  12.550
59136W        W20447  16.810  40.325   0.771
59137W        W20448   3.731  38.972  10.638
59138W        W20449  28.495  31.079  11.509
59139W        W20450  40.964   3.822  11.531
59140W        W20451  19.147  24.975   2.185
59141W        W20452  36.089  42.483  10.590
59142W        W20453  35.471  30.010  13.412
59143W        W20454  17.704  41.316   3.736
59144W        W20455  17.192  40.359  11.949
59145W        W20456  41.859  40.485  10.137
59146W        W20457  12.162   2.434  11.994
59147W        W20458  19.759  41.973   4.338
59148W        W20459   2.891  40.018  14.843
59149W        W20460   9.361  38.402   0.471
59150W        W20461  26.107   3.232   3.265
59151W        W20462  18.600  29.082   3.302
59152W        W20463  11.628  34.429   0.741
59153W        W20464  12.131  26.071   0.931
59154W        W20465   6.231  31.028  14.355
59155W        W20466  38.969   1.747  10.446
59156W        W20467  37.553   0.278  14.031
59157W        W20468  11.731  11.308   0.736
59158W        W20469  34.495  27.976  12.560
59159W        W20470  44.792  27.182   2.726
59160W        W20471  44.952  42.400   0.751
59161W        W20472   2.381  36.570   0.384
59162W        W20473  38.038  22.231   2.801
59163W        W20474  16.786  22.651  12.904
59164W        W20475  10.677  36.447   0.805
59165W        W20476   4.436  35.097   2.317
59166W        W20477  42.982   0.284   4.638
59167W        W20478  26.471  44.407  14.949
59168W        W20479  41.481   8.330   4.605
59169W        W20480  13.746  24.082  13.531
59170W        W20481  14.197  15.101   2.216
59171W        W20482   8.835   0.350   0.308
59172W        W20483   0.299  41.038   3.849
59173W        W20484  10.379  28.530  13.833
59174W        W20485  15.328  44.346  13.496
59175W        W20486  29.492   7.338   3.694
59176W        W20487   6.242  38.870   1.828
59177W        W20488  41.962   5.417  12.905
59178W        W20489  42.859  21.726  11.461
59179W        W20490  30.018  28.937  14.416
59180W        W20491  18.738   2.413   3.359
59181W        W20492  27.172   7.672   0.350
59182W        W20493  28.053   3.431   1.342
59183W        W20494  11.197  41.460   0.260
59184W        W20495  28.556  39.913   0.480
59185W        W20496  44.855  39.912  11.383
59186W        W20497   1.772  12.319  10.889
59187W        W20498  37.560   6.912   2.403
59188W        W20499  26.642  20.658   0.294
59189W        W20500  36.532   2.956  11.931
59190W        W20501  31.127   6.393   3.686
59191W        W20502   7.244  37.007   4.649
59192W        W20503  10.816  14.780   1.236
59193W        W20504  30.041  19.185   3.760
59194W        W20505  27.495  19.042  13.876
59195W        W20506  25.666   6.215   1.878
59196W        W20507  39.835  13.609   1.710
59197W        W20508  32.398   8.303   0.467
59198W        W20509  21.693   7.261   0.443
59199W        W20510  41.989  36.091   0.753
59200W        W20511  32.886  16.179   0.317
59201W        W20512  37.429  41.480  10.955
59202W        W20513  27.069  23.066  13.544
59203W        W20514  18.296  18.639   1.821
59204W        W20515  19.210   9.793  11.487
59205W        W20516  20.537  33.567   2.242
59206W        W20517  23.676  28.980  10.991
59207W        W20518  35.956  20.028  10.495
59208W        W20519   3.874  31.471  14.760
59209W        W20520  44.348  10.744   3.850
59210W        W20521  29.049  28.667  10.633
59211W        W20522   5.353  25.130   3.222
59212W        W20523   8.884  11.707   4.200
59213W        W20524  29.638  18.143   3.310
59214W        W20525   9.881  37.863   1.221
59215W        W20526  33.394   5.329  10.890
59216W        W20527  40.856  32.045   3.275
59217W        W20528  15.169  24.630   9.664
59218W        W20529  12.759  29.433   0.371
59219W        W20530  28.186  40.356   0.803
59220W        W20531   6.192  44.305  12.881
59221W        W20532  43.004   8.711  14.364
59222W        W20533  17.116  18.764  14.773
59223W        W20534   4.276  14.715  11.015
59224W        W20535  14.754   2.789  11.601
59225W        W20536  29.956   3.856  10.562
59226W        W20537  16.119  36.468  11.014
59227W        W20538   0.438  18.244   3.365
59228W        W20539  20.103  32.031   5.293
59229W        W20540   1.376   2.465   3.216
59230W        W20541  21.066  15.168   4.725
59231W        W20542   6.372  17.741   3.212
59232W        W20543  30.646  17.291   2.812
59233W        W20544   8.715   7.853   4.690
59234W        W20545  39.889  21.051   3.332
59235W        W20546  19.069   0.746   0.783
59236W        W20547  43.341  31.998  13.483
59237W        W20548  15.707  13.698  10.456
59238W        W20549  42.413  43.952   2.704
59239W        W20550  14.713  20.103   0.438
59240W        W20551  36.443   3.289   1.228
59241W        W20552  38.517  39.810  14.956
59242W        W20553  35.359  29.982   1.777
59243W        W20554  14.713   2.731  14.937
59244W        W20555  10.651  24.991  12.458
59245W        W20556  13.614  34.092  13.372
59246W        W20557  15.104  19.729  12.951
59247W        W20558   3.755  10.332  12.025
59248W        W20559   1.329  18.620   0.820
59249W        W20560  21.618  40.957   1.729
59250W        W20561  35.968  31.422  12.429
59251W        W20562  37.973  35.602   4.791
59252W        W20563   7.843  26.512   1.890
59253W        W20564  25.149  14.252   1.860
59254W        W20565  30.444   3.320   5.304
59255W        W20566  20.680  36.540  10.410
59256W        W20567   3.397  19.652  13.918
59257W        W20568  12.195   5.435   9.933
59258W        W20569  44.891  14.635   2.697
59259W        W20570  29.531   0.926   2.783
59260W        W20571  30.595  25.518  11.590
59261W        W20572   3.439  17.781  14.911
59262W        W20573  42.337  36.885   1.212
59263W        W20574  31.029  20.557   2.254
59264W        W20575  28.075  41.341  13.860
59265W        W20576  11.682  34.116  12.830
59266W        W20577  34.415  34.514  14.948
59267W        W20578  17.250  38.468   4.626
59268W        W20579  24.618   2.877   3.835
59269W        W20580   0.335   5.222   2.816
59270W        W20581  28.658  26.156   3.710
59271W        W20582   8.301  40.827  12.441
59272W        W20583  10.671  40.967  13.370
59273W        W20584  19.155   3.863   3.781
59274W        W20585  13.151  32.581  12.353
59275W        W20586   6.390  15.313  14.837
59276W        W20587  35.919  33.992   2.818
59277W        W20588   2.726   3.842   2.689
59278W        W20589  15.612  43.276   4.623
59279W        W20590  30.083  37.509  10.453
59280W        W20591   5.246  10.736  11.033
59281W        W20592  24.585  36.887  11.962
59282W        W20593  43.919  25.553  12.037
59283W        W20594  43.300  19.074   1.810
59284W        W20595  10.673  37.854  11.594
59285W        W20596  15.589  36.526   2.361
59286W        W20597  28.520  22.746  12.411
59287W        W20598  13.736  16.602   4.176
59288W        W20599  44.814  31.639  11.093
59289W        W20600  33.467  22.528  12.975
59290W        W20601  41.348  25.522   1.450
59291W        W20602  18.690   3.811  11.425
59292W        W20603   9.394  16.691  10.572
59293W        W20604  12.328   2.252   2.791
59294W        W20605  15.088  30.108   2.900
59295W        W20606  26.201  24.041  13.875
59296W        W20607  36.421  14.769  13.825
59297W        W20608   6.868  11.358  12.052
59298W        W20609  15.321  35.376  14.373
59299W        W20610  13.180  32.416  10.596
59300W        W20611  22.101  35.499   1.747
59301W        W20612   4.916  20.132  14.440
59302W        W20613  13.837  32.911  13.946
59303W        W20614  38.855  12.685   3.190
59304W        W20615  25.967  38.964  13.809
59305W        W20616  33.060  40.855   3.183
59306W        W20617  43.320  10.815   2.328
59307W        W20618   3.270  11.183  11.954
59308W        W20619   2.245  15.731   0.930
59309W        W20620  28.096  17.084  14.441
59310W        W20621  44.448   0.482  12.949
59311W        W20622  31.150  42.850   1.264
59312W        W20623  38.860  33.024  13.526
59313W        W20624   4.406  31.137   0.727
59314W        W20625  15.647  44.008   3.805
59315W        W20626   8.385  22.027   4.334
59316W        W20627  27.453  42.947   1.288
59317W        W20628   3.307  33.993   1.839
59318W        W20629  39.810  18.248  13.528
59319W        W20630  30.141  20.223  11.524
59320W        W20631  18.638  34.410  11.011
59321W        W20632  19.220   7.183   4.290
59322W        W20633   2.828  43.990   3.233
59323W        W20634  44.974  34.944  11.904
59324W        W20635  29.436  14.759   1.228
59325W        W20636   0.457  26.661   2.331
59326W        W20637  42.297  36.395  14.861
59327W        W20638  23.559   0.486   3.298
59328W        W20639  11.351  39.428   2.303
59329W        W20640  19.600  12.237   1.321
59330W        W20641  42.968  13.335  13.807
59331W        W20642   3.408  20.565   2.259
59332W        W20643   9.704  19.282  13.950
59333W        W20644  24.505  17.591   4.644
59334W        W20645  11.239  11.791   4.822
59335W        W20646  11.685  26.013   1.333
59336W        W20647   7.195  42.395  13.466
59337W        W20648   2.441  26.186  10.948
59338W        W20649   2.776  28.979   4.339
59339W        W20650  42.967  38.046  13.057
59340W        W20651  28.177  15.147   1.807
59341W        W20652  40.538  21.691   3.193
59342W        W20653  19.560  27.507   2.870
59343W        W20654  20.601  19.229   2.370
59344W        W20655  22.133  18.108  10.637
59345W        W20656  33.913  17.631  13.918
59346W        W20657  14.629  34.421   5.224
59347W        W20658  23.646  15.580  13.041
59348W        W20659  21.584  37.884  13.800
59349W        W20660  17.176  25.117  13.923
59350W        W20661  41.026  34.955  10.587
59351W        W20662  21.683  37.002   1.242
59352W        W20663  12.193  27.576  10.576
59353W        W20664  22.203   3.871   3.375
59354W        W20665  21.067   9.705   0.321
59355W        W20666   4.375  25.584  14.314
59356W        W20667   0.971  39.858   1.811
59357W        W20668  35.003  39.354  13.405
59358W        W20669  21.572   5.371   3.701
59359W        W20670  11.203  17.750   2.800
59360W        W20671   1.827   9.723  10.598
59361W        W20672   8.873  37.038   4.767
59362W        W20673  14.109  34.008   3.323
59363W        W20674  18.113  19.724   1.300
59364W        W20675  25.145  23.990   3.285
59365W        W20676  34.876  16.081   1.433
59366W        W20677   4.885  19.582   1.787
59367W        W20678   2.829  39.328  13.444
59368W        W20679  12.644  20.739  12.371
59369W        W20680  34.947  25.219  11.391
59370W        W20681   8.660  39.988   4.265
59371W        W20682  11.686  20.602   0.776
59372W        W20683  33.588  31.968   4.127
59373W        W20684   8.180  43.354   1.302
59374W        W20685  22.192  35.508  14.853
59375W        W20686   4.422  30.075   0.944
59376W        W20687  17.779  12.633   2.849
59377W        W20688  37.932  28.617   4.755
59378W        W20689  30.557  19.270   4.326
59379W        W20690  27.975  25.536  13.009
59380W        W20691  37.511  10.821  10.639
59381W        W20692  25.183  26.959   4.315
59382W        W20693  41.527  40.491  12.004
59383W        W20694  40.924  22.090  14.007
59384W        W20695  29.149  25.502   2.386
59385W        W20696   8.316  38.440  12.094
59386W        W20697  44.792   2.352   1.424
59387W        W20698  35.855   1.747   4.311
59388W        W20699  27.108  35.601   0.783
59389W        W20700  35.950  35.943  12.997
59390W        W20701   9.875   1.814   4.233
59391W        W20702  24.201  25.650   1.717
59392W        W20703  38.545   9.885   0.468
59393W        W20704   2.272  38.025   4.191
59394W        W20705  36.382  37.832  10.116
59395W        W20706  33.384  43.516   0.337
59396W        W20707  17.674  39.973   4.164
59397W        W20708  41.042   7.742   2.737
59398W        W20709  11.201  35.925  13.935
59399W        W20710  37.949  21.609   4.650
59400W        W20711  21.723  21.232   0.928
59401W        W20712  11.809  44.490  14.365
59402W        W20713  44.987   6.408  12.097
59403W        W20714   7.330  18.252   4.143
59404W        W20715  12.341   2.879  10.411
59405W        W20716  42.973  10.733   1.831
59406W        W20717  13.728  40.355   1.911
59407W        W20718  44.483   8.376   1.802
59408W        W20719  28.992   0.905  13.059
59409W        W20720  20.104  24.613  10.450
59410W        W20721  41.000   9.889   0.895
59411W        W20722  23.219   6.400   4.289
59412W        W20723   4.443  41.429   0.759
59413W        W20724  25.056  21.515   2.680
59414W        W20725  20.105   8.739  11.100
59415W        W20726  18.791  42.301   0.747
59416W        W20727  37.380  24.694  12.404
59417W        W20728  40.986  43.466   2.407
59418W        W20729  18.627  11.190  13.881
59419W        W20730  41.406  21.753   4.271
59420W        W20731  23.652  20.179  14.382
59421W        W20732   6.755  29.606   3.339
59422W        W20733  11.367  22.699   3.231
59423W        W20734  17.132   5.697  14.900
59424W        W20735  33.916  40.035   2.337
59425W        W20736   3.340   8.269  13.491
59426W        W20737   5.425  37.372   2.261
59427W        W20738  39.869  40.544  11.994
59428W        W20739  30.526  36.881   2.259
59429W        W20740  44.765  24.626  13.053
59430W        W20741  22.678   8.278  13.340
59431W        W20742   0.756  21.566   3.339
59432W        W20743  20.684  24.087   2.682
59433W        W20744  23.043  10.222  13.418
59434W        W20745  44.836   8.889  12.882
59435W        W20746  18.570  44.778   0.956
59436W        W20747  14.827   9.326  12.888
59437W        W20748  10.795  21.694  11.471
59438W        W20749  37.975   1.927  12.962
59439W        W20750  16.113  32.625   4.264
59440W        W20751  28.130  40.317  13.023
59441W        W20752   4.237   3.835  10.586
59442W        W20753  20.056  25.697  12.076
59443W        W20754  29.111  22.200   2.305
59444W        W20755  26.203  10.154  11.934
59445W        W20756  15.101  36.983  11.388
59446W        W20757  12.752  33.940   2.335
59447W        W20758  31.563  32.046   2.679
59448W        W20759  43.910  20.679   1.238
59449W        W20760  16.645  17.259   2.376
59450W        W20761  42.963  28.085  10.529
59451W        W20762  38.879  18.192   2.709
59452W        W20763  35.076  35.019  14.008
59453W        W20764   0.464  41.028  10.543
59454W        W20765   4.858  43.927  13.424
59455W        W20766  44.968  28.438   0.385
59456W        W20767  32.426  17.589  12.409
59457W        W20768   6.728  10.210   2.224
59458W        W20769  38.954  39.035   3.692
59459W        W20770   0.317  27.007  10.982
59460W        W20771  20.214  13.694   9.632
59461W        W20772  14.726  20.238  14.368
59462W        W20773  44.811  42.490   3.238
59463W        W20774  39.000  22.610   5.147
59464W        W20775   8.181  15.280  12.978
59465W        W20776  19.742  20.641  14.452
59466W        W20777  37.942  32.627  10.514
59467W        W20778  22.612   5.337  11.573
59468W        W20779   5.838   5.759  14.941
59469W        W20780  40.471  38.872  14.410
59470W        W20781  16.775  38.943   0.262
59471W        W20782  13.642  25.024   0.749
59472W        W20783  38.558  33.540  13.518
59473W        W20784   9.279  23.139   3.345
59474W        W20785  24.506   0.329   0.766
59475W        W20786  12.806  32.516  10.630
59476W        W20787  34.452  11.313  10.577
59477W        W20788  35.008  16.770   3.327
59478W        W20789  22.035   7.676   4.144
59479W        W20790   6.780  29.524  13.945
59480W        W20791   6.397  25.035   3.198
59481W        W20792  21.528  40.532   0.432
59482W        W20793  17.594  13.799   0.243
59483W        W20794  27.172  32.058  15.000
59484W        W20795  11.670  17.595   2.788
59485W        W20796  33.516  44.976  13.798
59486W        W20797  20.606  14.301   0.377
59487W        W20798   9.881  32.133  13.832
59488W        W20799  25.468  14.143   2.319
59489W        W20800  32.926   8.184  12.072
59490W        W20801  42.360  35.503  10.993
59491W        W20802   1.333   9.660  13.060
59492W        W20803  35.958   3.458   3.730
59493W        W20804  12.704  32.484  12.948
59494W        W20805  20.148  18.711   0.473
59495W        W20806  41.418  43.946  14.839
59496W        W20807  41.889  35.465  11.463
59497W        W20808  13.780  23.644   0.903
59498W        W20809  41.002   2.734   0.875
59499W        W20810   4.270  21.558  10.546
59500W        W20811  38.569  37.518  14.314
59501W        W20812  38.348  17.190   1.416
59502W        W20813  26.466  28.531  14.427
59503W        W20814  30.064   4.274   0.436
59504W        W20815  40.861  39.918   3.718
59505W        W20816  25.513  26.057   0.960
59506W        W20817  36.895  36.967  13.369
59507W        W20818  43.467   4.364  11.964
59508W        W20819   8.180  20.156  12.455
59509W        W20820   5.268  19.739  10.965
59510W        W20821  34.565  36.402   4.690
59511W        W20822   9.671  13.173  13.027
59512W        W20823   5.322  10.170  10.432
59513W        W20824  26.172  42.010  10.954
59514W        W20825  37.339  39.824  14.406
59515W        W20826  32.096  39.465   4.349
59516W        W20827  43.383  22.537   2.411
59517W        W20828  11.781  22.228  12.062
59518W        W20829  14.097  29.594   4.128
59519W        W20830  19.139  41.368  11.397
59520W        W20831   3.435  17.793   0.938
59521W        W20832  30.086   9.725   3.690
59522W        W20833  15.703  32.565  13.536
59523W        W20834  26.196  43.284  12.418
59524W        W20835  30.649  44.274   3.216
59525W        W20836  43.956  41.833   1.783
59526W        W20837  43.495  43.299   3.226
59527W        W20838  27.034  18.773  13.006
59528W        W20839  44.388   3.217   4.800
59529W        W20840  31.966  24.519  11.548
59530W        W20841  29.528  13.115  11.507
59531W        W20842  30.551  22.997   2.189
59532W        W20843  30.495  26.180  11.959
59533W        W20844  26.040  32.947   2.697
59534W        W20845  32.931  37.883  13.477
59535W        W20846   4.284  39.823   4.116
59536W        W20847  40.005  28.479  10.563
59537W        W20848   6.868  29.086   0.774
59538W        W20849   8.373  19.701   4.259
59539W        W20850  10.145  17.099  12.999
59540W        W20851  39.964  39.508  11.444
59541W        W20852  20.591  34.000   4.326
59542W        W20853   5.918   5.276   4.629
59543W        W20854  38.542  29.033  12.846
59544W        W20855  37.069  28.535   4.211
59545W        W20856  36.085   9.851   2.292
59546W        W20857  35.068  19.062  14.836
59547W        W20858  34.393  10.688   2.283
59548W        W20859  34.454  40.903  10.644
59549W        W20860   5.317  29.477   1.427
59550W        W20861  14.168  10.149  13.514
59551W        W20862  17.721  36.351  13.351
59552W        W20863  30.514  27.642  10.545
59553W        W20864  30.433  29.164   3.792
59554W        W20865  28.120  37.852   4.742
59555W        W20866  23.076   5.262  13.834
59556W        W20867   0.487  35.106   2.366
59557W        W20868  12.624  40.878   2.181
59558W        W20869  29.055  32.995   1.841
59559W        W20870   4.799  10.214  12.920
59560W        W20871  41.294  23.155  14.323
59561W        W20872  39.840  11.127  13.803
59562W        W20873  10.263  23.169   4.780
59563W        W20874  29.937   1.416   0.894
59564W        W20875  26.627  35.526   1.715
59565W        W20876   0.763  18.095   2.694
59566W        W20877  14.172  16.650  14.393
59567W        W20878  44.358  28.580  11.548
59568W        W20879  13.835  15.102  12.856
59569W        W20880  18.086   2.274   2.384
59570W        W20881  39.046  36.390   3.196
59571W        W20882  42.353  10.280   3.760
59572W        W20883  32.503  26.099   3.346
59573W        W20884  21.623  29.509  14.925
59574W        W20885  36.491  29.080   9.577
59575W        W20886   2.739  14.123  14.792
59576W        W20887  38.915  34.614   2.872
59577W        W20888  21.018  39.329  12.417
59578W        W20889  34.496   6.736   1.840
59579W        W20890  27.626   8.684   3.755
59580W        W20891  11.190  21.683   0.806
59581W        W20892  28.435   2.280  12.485
59582W        W20893   8.173   5.310  14.421
59583W        W20894  21.704   6.845   4.175
59584W        W20895  22.652   3.944  12.945
59585W        W20896  11.190  27.541   1.864
59586W        W20897  25.501  39.395  14.515
59587W        W20898  25.991   1.780   4.221
59588W        W20899  26.623   1.292  12.865
59589W        W20900  44.865  23.581  11.965
59590W        W20901  21.569  28.127  10.007
59591W        W20902  41.339  18.139  11.882
59592W        W20903  35.857  29.029   9.975
59593W        W20904  20.273  27.463  14.985
59594W        W20905  33.900  16.674  13.310
59595W        W20906   4.392  43.303   2.269
59596W        W20907  16.725  44.473  10.897
59597W        W20908  42.457  18.243   2.322
59598W        W20909  30.001  34.435  10.589
59599W        W20910  31.518  39.834  14.498
59600W        W20911  27.956  44.471   4.166
59601W        W20912  37.535   0.849  13.358
59602W        W20913   6.241  20.578   2.208
59603W        W20914  19.598  35.524   3.260
59604W        W20915  23.543  32.998  14.806
59605W        W20916  36.986  30.940  14.419
59606W        W20917  13.138  12.228  12.407
59607W        W20918  34.932  21.567   1.220
59608W        W20919  15.172  13.745  11.487
59609W        W20920  15.158  19.103   4.164
59610W        W20921  27.450  13.250   0.777
59611W        W20922  18.713  12.716   1.887
59612W        W20923   6.868   1.387  12.964
59613W        W20924  10.712  21.246  14.890
59614W        W20925  33.449   2.784  11.599
59615W        W20926  29.631  33.074  11.392
59616W        W20927   9.385   0.474  12.358
59617W        W20928  19.735   0.750  12.931
59618W        W20929  18.142  35.855  14.804
59619W        W20930  19.548  39.896  14.901
59620W        W20931   4.919  37.406  14.758
59621W        W20932   0.869  27.651   3.675
59622W        W20933  15.160  27.160  10.045
59623W        W20934  14.260  14.682   3.702
59624W        W20935  36.962   0.836   4.158
59625W        W20936  30.159  31.948  14.952
59626W        W20937  42.379  43.489   4.170
59627W        W20938  18.272  15.613   4.754
59628W        W20939  37.875  33.469  10.423
59629W        W20940  44.985  24.625   2.782
59630W        W20941  37.893  29.652  12.383
59631W        W20942  17.605  39.454  10.981
59632W        W20943  11.366  22.668   2.820
59633W        W20944  19.638   6.303  11.988
59634W        W20945  21.656  36.978   0.954
59635W        W20946  34.388   1.243   2.689
59636W        W20947  25.024  40.400  13.038
59637W        W20948  37.010  30.568   0.372
59638W        W20949   0.346   2.270  14.776
59639W        W20950   5.366  44.445   4.178
59640W        W20951  23.513   0.917  13.878
59641W        W20952  23.235  33.072  12.874
59642W        W20953  28.151  41.476   1.337
59643W        W20954  37.478  16.659   0.778
59644W        W20955  14.678  17.748  11.079
59645W        W20956  16.201  24.600   0.956
59646W        W20957   8.813  26.119  12.449
59647W        W20958  36.362  21.108  10.050
59648W        W20959   8.710  29.043  12.919
59649W        W20960  10.312  10.828   0.373
59650W        W20961  19.722  28.006  14.406
59651W        W20962  34.925  24.505   2.674
59652W        W20963  32.909  10.750   3.778
59653W        W20964  16.182  11.235   4.230
59654W        W20965   8.295  19.636   0.763
59655W        W20966  26.522  30.972   2.720
59656W        W20967  13.772  22.121  13.448
59657W        W20968   7.715   1.838   4.296
59658W        W20969  30.068  27.654  14.289
59659W        W20970  39.462  33.554   0.312
59660W        W20971  36.940  23.682   2.200
59661W        W20972  22.600  17.668  11.013
59662W        W20973  16.206  31.497  14.978
59663W        W20974  32.094  39.411  11.548
59664W        W20975   8.868  37.003  14.328
59665W        W20976  14.134  15.673  13.447
59666W        W20977  25.639  34.382  14.948
59667W        W20978  37.411  42.809   1.406
59668W        W20979  13.667  29.053   3.816
59669W        W20980  16.243  14.234   1.746
59670W        W20981   0.389   7.325  12.973
59671W        W20982  37.399   4.346   4.705
59672W        W20983  31.966  36.071   2.339
59673W        W20984  19.248  23.620  11.447
59674W        W20985  43.498  16.209   1.303
59675W        W20986  37.010  31.473   2.801
59676W        W20987  40.345  28.093  10.534
59677W        W20988  26.041   3.326  10.480
59678W        W20989   1.786  19.728   0.755
59679W        W20990  38.553  17.127  11.432
59680W        W20991  25.106   7.748  12.489
59681W        W20992  34.557  37.933  14.771
59682W        W20993  16.658  31.462  14.028
59683W        W20994  18.698   5.197   3.701
59684W        W20995  41.309   0.307  10.933
59685W        W20996  11.345  23.119  11.896
59686W        W20997  42.300   9.180  10.933
59687W        W20998  19.239  11.722  10.587
59688W        W20999  12.782  34.054  13.039
59689W        W21000  12.745   7.878   4.133
59690W        W21001  28.967  41.794  11.428
59691W        W21002  29.585  35.868   3.735
59692W        W21003  38.492   4.812  13.432
59693W        W21004  14.696  38.503   0.892
59694W        W21005  34.438  43.009   1.766
59695W        W21006  30.440  26.050   2.798
59696W        W21007  19.050  24.190  13.534
59697W        W21008  40.438  40.043   2.837
59698W        W21009  18.087   4.847   4.271
59699W        W21010  14.675  38.031   2.795
59700W        W21011  43.379  43.296  14.987
59701W        W21012  21.610   5.881   1.875
59702W        W21013  29.162   2.467  12.994
59703W        W21014  15.577   0.799  12.995
59704W        W21015  35.008  30.075  13.895
59705W        W21016  19.219  39.867  12.481
59706W        W21017  35.884   0.469  13.420
59707W        W21018  17.771  25.175   0.870
59708W        W21019  26.104  43.285   2.345
59709W        W21020  26.205  44.376  10.047
59710W        W21021   8.381  32.887   3.814
59711W        W21022  22.232  28.083   4.136
59712W        W21023   4.292  32.464  14.489
59713W        W21024  10.721  35.480  11.377
59714W        W21025  16.761  44.808   2.339
59715W        W21026  21.222  27.115  11.086
59716W        W21027  10.787  32.896   2.418
59717W        W21028  23.683  14.685  10.962
59718W        W21029  10.312  39.873   4.626
59719W        W21030  30.439  10.823  12.975
59720W        W21031   6.215  34.574  12.058
59721W        W21032  19.748  22.513   1.263
59722W        W21033   5.815  20.031  12.092
59723W        W21034  21.121  40.468  13.010
59724W        W21035  39.017  37.348  13.329
59725W        W21036  25.600  26.990  11.044
59726W        W21037  34.484   3.457  13.406
59727W        W21038  22.999  43.881  12.449
59728W        W21039  15.636  36.354  14.440
59729W        W21040  32.930  12.621  10.639
59730W        W21041  42.944  24.030   1.395
59731W        W21042  30.504  38.524  13.003
59732W        W21043  25.192  16.699  13.414
59733W        W21044   5.324  12.839  14.785
59734W        W21045  29.940  29.049  14.869
59735W        W21046   8.803   0.774  14.354
59736W        W21047  38.920  21.614  10.608
59737W        W21048   6.825  15.784   4.764
59738W        W21049  44.459  29.984   0.285
59739W        W21050   1.410  44.392   4.687
59740W        W21051   4.288  14.242   5.082
59741W        W21052   6.314  18.231  11.610
59742W        W21053   4.398  31.476   1.898
59743W        W21054  14.730   9.377  10.479
59744W        W21055  18.623  18.655   2.771
59745W        W21056  37.916  29.617   0.756
59746W        W21057  19.134  10.824   2.381
59747W        W21058  28.491  20.542  12.874
59748W        W21059  30.981  20.220  10.990
59749W        W21060  12.792  22.655   3.847
59750W        W21061  29.168  21.750   1.816
59751W        W21062  29.991  16.745   0.254
59752W        W21063  35.879  36.473   3.362
59753W        W21064  10.337  24.022  13.052
59754W        W21065   1.255  15.659   3.758
59755W        W21066   7.388  36.412   3.278
59756W        W21067  38.961  13.822   0.857
59757W        W21068  40.005  18.165   4.164
59758W        W21069  19.051   9.235  10.984
59759W        W21070  32.994  33.475   0.951
59760W        W21071   8.725   3.225   0.792
59761W        W21072  32.501   1.415   1.877
59762W        W21073  31.420   1.405  11.901
59763W        W21074   7.722  11.793  12.520
59764W        W21075  18.125  28.676  11.569
59765W        W21076  41.345  30.104   2.384
59766W        W21077  40.465  31.995  10.114
59767W        W21078  41.033   7.343  11.529
59768W        W21079  43.497  27.646  11.126
59769W        W21080   1.904  35.108  14.426
59770W        W21081   3.455  27.108   1.354
59771W        W21082  10.847  11.364  10.622
59772W        W21083  43.902  22.165  14.762
59773W        W21084  37.943  44.863  11.033
59774W        W21085  18.736   7.254  14.358
59775W        W21086  21.135  26.458  11.096
59776W        W21087  30.965   1.744  13.960
59777W        W21088  10.761   6.309  14.791
59778W        W21089  15.104  12.248   1.337
59779W        W21090  13.303   8.706  12.853
59780W        W21091  33.001  27.072   1.291
59781W        W21092  10.841  22.612  14.345
59782W        W21093  17.592  41.979   3.294
59783W        W21094  34.582  39.472   0.314
59784W        W21095   6.681  44.484   0.473
59785W        W21096   1.254   7.214  11.933
59786W        W21097  20.597  31.444  12.393
59787W        W21098  32.448  22.681   4.695
59788W        W21099  33.041  17.644  11.871
59789W        W21100  28.640  19.117  12.556
59790W        W21101   7.386  44.946  14.337
59791W        W21102  26.492   1.764   1.750
59792W        W21103  18.082  42.009  12.940
59793W        W21104  12.621   5.396   3.745
59794W        W21105  35.907  22.725   5.194
59795W        W21106   1.736   4.821   1.329
59796W        W21107   5.255  22.625  10.914
59797W        W21108  39.495  19.710  14.875
59798W        W21109  15.087  14.195   4.661
59799W        W21110  19.040  32.109   3.778
59800W        W21111  28.181  40.999  13.063
59801W        W21112  26.094  38.556  12.917
59802W        W21113  25.713  35.073  13.511
59803W        W21114  27.446  30.453   1.721
59804W        W21115  23.022  15.607   4.693
59805W        W21116  30.497  24.598   0.417
59806W        W21117  15.763  33.114  14.807
59807W        W21118   6.216   8.855  10.088
59808W        W21119  41.983  25.534   3.683
59809W        W21120  34.017  33.108  11.931
59810W        W21121  16.647  34.572   0.337
59811W        W21122  27.512   2.337   0.477
59812W        W21123  39.953  17.294   1.708
59813W        W21124  28.584  38.531   0.766
59814W        W21125  15.117  17.580  10.491
59815W        W21126  10.803   1.275   1.278
59816W        W21127  24.600   6.400   4.794
59817W        W21128  10.750  35.908  10.999
59818W        W21129  41.474  26.507  10.507
59819W        W21130  11.629  12.274  13.806
59820W        W21131   8.878  12.798  12.357
59821W        W21132  13.208  21.102   3.802
59822W        W21133  32.506  14.767  13.797
59823W        W21134   2.417  12.196   0.819
59824W        W21135  20.211  28.090  11.981
59825W        W21136   8.272  27.985   1.830
59826W        W21137  23.569  24.064   2.704
59827W        W21138  40.988  11.329  11.089
59828W        W21139  10.194   8.184   1.932
59829W        W21140  19.184  44.003  11.572
59830W        W21141  14.273  43.932   1.270
59831W        W21142  43.848  38.021  11.544
59832W        W21143  34.541  33.932   5.294
59833W        W21144  12.693  16.593   0.444
59834W        W21145  19.678  44.433  10.429
59835W        W21146   2.288  18.118   2.241
59836W        W21147  42.370  29.635  13.389
59837W        W21148  24.157   2.374   4.225
59838W        W21149  19.601   6.405  13.803
59839W        W21150   3.839  23.009  14.475
59840W        W21151  28.146  36.568   1.333
59841W        W21152  20.090  42.887  10.465
59842W        W21153  16.264  41.815  13.885
59843W        W21154  38.958   2.448   3.721
59844W        W21155  40.976  20.672  13.891
59845W        W21156   6.741   0.270  13.908
59846W        W21157  19.215  26.686   1.318
59847W        W21158  32.135  35.897   3.639
59848W        W21159  44.370  12.629  10.579
59849W        W21160   5.731   3.379  13.807
59850W        W21161   2.865  17.181  13.335
59851W        W21162  16.219  33.053  10.987
59852W        W21163   9.767   9.735   2.244
59853W        W21164  35.422  10.731   0.775
59854W        W21165  25.694  42.959   2.212
59855W        W21166  21.204  36.451  10.151
59856W        W21167  18.744  40.038   3.710
59857W        W21168  19.593   3.294   0.924
59858W        W21169  21.608   9.680  10.476
59859W        W21170  36.393  29.949   1.897
59860W        W21171  42.502   0.484  12.871
59861W        W21172   8.740   2.273   4.190
59862W        W21173  28.954  20.640  10.451
59863W        W21174  13.726  28.978  14.818
59864W        W21175  37.380  34.899  12.842
59865W        W21176   1.955  39.397  11.573
59866W        W21177  10.643  43.978  11.875
59867W        W21178   9.720  27.498   4.131
59868W        W21179  44.833  11.808  12.897
59869W        W21180  35.945   4.870   3.717
59870W        W21181  34.865  20.573  13.022
59871W        W21182  26.986   3.726  11.490
59872W        W21183  21.654   6.421  12.557
59873W        W21184  31.920  34.060  11.437
59874W        W21185  17.637   7.722  14.336
59875W        W21186  29.975  33.015  10.950
59876W        W21187  20.737   0.850   2.391
59877W        W21188  15.164   0.828  10.482
59878W        W21189  34.470  17.154   1.783
59879W        W21190   2.758  25.967   4.809
59880W        W21191  22.224  41.923  11.118
59881W        W21192  15.145  37.416   4.132
59882W        W21193  41.373  25.032   3.679
59883W        W21194  37.402  10.271   1.218
59884W        W21195  23.061  14.681   1.894
59885W        W21196  14.290  17.114  13.826
59886W        W21197  35.377  20.542  14.400
59887W        W21198  29.502   7.769  10.556
59888W        W21199  37.375  16.105   0.283
59889W        W21200  39.347   2.398  10.501
59890W        W21201  19.213  27.171   4.128
59891W        W21202  31.122  37.957   3.703
59892W        W21203  37.974   3.785   0.819
59893W        W21204   8.695  13.235  14.503
59894W        W21205  10.359   9.780   3.823
59895W        W21206  25.523  23.578  14.401
59896W        W21207  27.559  29.431   4.303
59897W        W21208  44.296  35.947   4.619
59898W        W21209  36.485  42.393  11.111
59899W        W21210   2.762  27.100  12.031
59900W        W21211  28.055  21.021  11.548
59901W        W21212  35.397  40.023  12.478
59902W        W21213  16.661  28.108  14.420
59903W        W21214   8.305  11.770   4.784
59904W        W21215  44.816  16.704   1.890
59905W        W21216  31.490  44.857   4.129
59906W        W21217  35.398  36.400   1.786
59907W        W21218   2.456  35.091   3.841
59908W        W21219  42.308  21.080  14.357
59909W        W21220  27.006  31.077   1.361
59910W        W21221   7.335  21.098  12.891
59911W        W21222  12.360  43.445   0.762
59912W        W21223  34.902  43.773  10.486
59913W        W21224  25.189  40.457   1.753
59914W        W21225   3.797   7.860  12.071
59915W        W21226  11.790   7.813   4.827
59916W        W21227  21.041  16.723  10.132
59917W        W21228  30.924  31.988   1.810
59918W        W21229  24.021   8.365  13.441
59919W        W21230   0.425   2.743   0.290
59920W        W21231  40.391  42.416   3.339
59921W        W21232  19.614  14.171  12.897
59922W        W21233  42.460  26.166  10.946
59923W        W21234  16.218   6.723   5.293
59924W        W21235  38.915  42.914  13.939
59925W        W21236  25.689  40.926   2.898
59926W        W21237  27.539  38.531  11.917
59927W        W21238  27.621   3.881   2.237
59928W        W21239  27.032   3.766  13.482
59929W        W21240   7.698  37.938   4.209
59930W        W21241  42.450  17.630   2.192
59931W        W21242   9.319   1.895  13.917
59932W        W21243   6.295  29.940  11.546
59933W        W21244  21.165  25.706  14.016
59934W        W21245  27.057  12.217  11.398
59935W        W21246  26.693  33.618  13.483
59936W        W21247  30.977  12.164  12.077
59937W        W21248  41.976  30.484  14.387
59938W        W21249  15.634   3.385   3.317
59939W        W21250  26.129  15.616  10.591
59940W        W21251  42.929   3.265  12.036
59941W        W21252  16.129   7.172   9.921
59942W        W21253  16.609  19.241   0.761
59943W        W21254  24.095  37.925   3.674
59944W        W21255  40.328  38.038   1.243
59945W        W21256  37.888   8.295   4.250
59946W        W21257  20.260   9.239   0.288
59947W        W21258  33.959  23.193   4.116
59948W        W21259  15.224   1.872   3.674
59949W        W21260  22.009  28.966  14.468
59950W        W21261  27.978  40.351   2.732
59951W        W21262  22.029  22.515  14.881
59952W        W21263   3.896  15.151   1.388
59953W        W21264  15.784  28.556  14.481
59954W        W21265  21.650  35.042   2.249
59955W        W21266  41.799   6.703   1.901
59956W        W21267   0.288   1.870   4.239
59957W        W21268  30.652  43.405   4.195
59958W        W21269  42.936  13.323   2.220
59959W        W21270  42.021  20.575  11.532
59960W        W21271  40.976  16.227   2.335
59961W        W21272   4.366  28.998  13.827
59962W        W21273  16.129  23.136   1.888
59963W        W21274  37.895  42.516   5.243
59964W        W21275  38.022  43.789  11.074
59965W        W21276  17.167  38.962   2.868
59966W        W21277   0.282  44.929  13.372
59967W        W21278  28.666   6.335  14.352
59968W        W21279  28.609  24.524  14.918
59969W        W21280  29.129   7.201   0.377
59970W        W21281  30.622  33.581   4.668
59971W        W21282   6.280  29.993  12.975
59972W        W21283   2.238  29.509   2.281
59973W        W21284  27.999  39.462   4.660
59974W        W21285  11.656  43.472   1.257
59975W        W21286  43.414  39.426  13.970
59976W        W21287   6.189  34.989  13.045
59977W        W21288   6.423  42.478  11.386
59978W        W21289  10.246  29.982   4.609
59979W        W21290  30.548  32.494   4.597
59980W        W21291  25.537  10.840  10.423
59981W        W21292   8.361  21.709  10.954
59982W        W21293  43.274  42.426  14.411
59983W        W21294   7.289  38.430   4.241
59984W        W21295  10.329  29.941   0.386
59985W        W21296  34.525  20.062   1.338
59986W        W21297   0.853  29.595   1.366
59987W        W21298  30.431  16.620   1.378
59988W        W21299   3.820  16.740   4.255
59989W        W21300  11.865  15.181   0.942
59990W        W21301  28.498  27.563   2.330
59991W        W21302   2.412  39.902   0.865
59992W        W21303  32.608  29.450   4.342
59993W        W21304   3.440  21.220  10.485
59994W        W21305  10.729  42.870  12.396
59995W        W21306  33.429  22.161  12.368
59996W        W21307   6.296  11.724  12.914
59997W        W21308  23.583   1.378  12.393
59998W        W21309  17.688   9.259   1.432
59999W        W21310  26.562   2.371  14.508
60000W        W21311  23.661  40.910  14.982
60001W        W21312  13.650  18.624   1.289
60002W        W21313   9.645  44.786  14.926
60003W        W21314  41.293  12.631   2.225
60004W        W21315  38.449  13.797  11.923
60005W        W21316  15.685  22.178  12.547
60006W        W21317  43.489  28.589   1.397
60007W        W21318  35.082   3.453   0.946
60008W        W21319  43.480  16.665  13.380
60009W        W21320   8.867  15.225  11.496
60010W        W21321  17.213  25.048   9.949
60011W        W21322  33.054  12.344   2.822
60012W        W21323  12.801  39.498   0.928
60013W        W21324  41.475  23.022  11.559
60014W        W21325  28.110  37.028   1.935
60015W        W21326  24.635  24.554   1.238
60016W        W21327   0.941   5.880  13.414
60017W        W21328  33.041  16.173  14.902
60018W        W21329  27.169  41.893   0.943
60019W        W21330  22.553  42.334  13.927
60020W        W21331  26.172  37.359  13.368
60021W        W21332   1.344  43.897   0.467
60022W        W21333  25.014   7.191  12.375
60023W        W21334  42.336  13.137  13.406
60024W        W21335   3.835  39.894  13.863
60025W        W21336  35.386   7.207  11.511
60026W        W21337  34.594  28.576   9.938
60027W        W21338  12.642   8.351  11.001
60028W        W21339  37.463  16.652   1.241
60029W        W21340  39.396   9.844  12.068
60030W        W21341  36.369  41.037   2.192
60031W        W21342   7.852  44.487   1.799
60032W        W21343   2.449  26.189   2.867
60033W        W21344  13.136  26.624   3.738
60034W        W21345  13.663  40.464  12.027
60035W        W21346  32.433   1.785   5.247
60036W        W21347   6.829  25.539   0.815
60037W        W21348   9.729  39.417  12.424
60038W        W21349  35.896  13.199  12.947
60039W        W21350   6.267  27.602   3.296
60040W        W21351  27.982  20.566  14.440
60041W        W21352  16.151  15.179  12.850
60042W        W21353   2.756  25.064  11.126
60043W        W21354   3.450  43.373   2.210
60044W        W21355  24.576  35.987   0.278
60045W        W21356  32.465   2.236  11.103
60046W        W21357  14.273  40.811  10.976
60047W        W21358   9.850   2.825   4.160
60048W        W21359  20.047  30.556   4.807
60049W        W21360  18.205  25.978  10.950
60050W        W21361   5.356  27.659   4.711
60051W        W21362  41.342  13.732   0.322
60052W        W21363   4.282  40.813   0.799
60053W        W21364  32.985   8.247  13.033
60054W        W21365  16.179   8.231   4.619
60055W        W21366   2.287  39.885  14.287
60056W        W21367  26.526  21.720   2.867
60057W        W21368  24.223  25.499   0.780
60058W        W21369  18.085  19.208   0.883
60059W        W21370  20.541  28.033   2.341
60060W        W21371  28.575  24.612   2.729
60061W        W21372   4.418  28.988   0.411
60062W        W21373  10.761  37.568   4.116
60063W        W21374  36.083   8.661   0.871
60064W        W21375  37.956   9.172   4.759
60065W        W21376  11.623  22.553   0.280
60066W        W21377  22.025  29.488   1.810
60067W        W21378  37.540  32.907   5.244
60068W        W21379  13.749  13.718  13.931
60069W        W21380  31.523  11.312   3.373
60070W        W21381  42.959  18.062  11.988
60071W        W21382  31.137  34.443  10.094
60072W        W21383  23.154  17.736   3.283
60073W        W21384  35.367  20.137  14.472
60074W        W21385  40.481  39.825  11.987
60075W        W21386  36.047  24.522  12.378
60076W        W21387  35.385   7.266   3.310
60077W        W21388  44.470  31.131   3.631
60078W        W21389  28.617  37.866  14.945
60079W        W21390  42.907  16.160  12.984
60080W        W21391  14.629  26.175  11.977
60081W        W21392  30.545  14.744  13.797
60082W        W21393  22.726  21.135   1.369
60083W        W21394  25.087  39.836   2.704
60084W        W21395  32.399   3.333  12.467
60085W        W21396  20.534   7.688  12.497
60086W        W21397  14.589   8.366   1.263
60087W        W21398  33.391   2.951   4.189
60088W        W21399  21.751  13.296  13.965
60089W        W21400  11.178  24.974  12.579
60090W        W21401  35.544  41.799  10.564
60091W        W21402   5.796  43.494   1.239
60092W        W21403   6.889  12.358   2.849
60093W        W21404  33.021  25.200   2.184
60094W        W21405  22.740   4.369  14.823
60095W        W21406   5.300  33.441   3.304
60096W        W21407  25.072  11.763   3.177
60097W        W21408  30.454  15.112  12.863
60098W        W21409  28.582   8.671   3.739
60099W        W21410  22.520  31.459  12.951
60100W        W21411  19.696  41.807  10.086
60101W        W21412   7.316  39.994   1.441
60102W        W21413   1.376  27.497   3.247
60103W        W21414  23.535  18.762  11.603
60104W        W21415  12.222  26.563  10.645
60105W        W21416  22.075  42.300   3.239
60106W        W21417  15.691  44.873   0.802
60107W        W21418  23.190   9.887   1.358
60108W        W21419   9.243  38.828  12.952
60109W        W21420  24.646  24.170  14.976
60110W        W21421   3.260  40.405  11.514
60111W        W21422  11.665  42.437  11.558
60112W        W21423   9.387  22.057  14.772
60113W        W21424   0.767  10.176   5.245
60114W        W21425  11.180  44.352   4.688
60115W        W21426  17.660  19.047   0.411
60116W        W21427  24.664   8.736  11.003
60117W        W21428  34.922  30.486  12.441
60118W        W21429  39.009  29.526   1.905
60119W        W21430  19.737   8.249  11.098
60120W        W21431  22.527  12.802   4.798
60121W        W21432   0.922   9.746  14.020
60122W        W21433  28.540  15.613  12.030
60123W        W21434  32.941   7.173  13.005
60124W        W21435   5.207   1.416  12.051
60125W        W21436   7.902   9.866   0.841
60126W        W21437  35.460  12.149   4.146
60127W        W21438  12.251  33.107   2.783
60128W        W21439  13.165  34.103   3.278
60129W        W21440  23.534   0.861   3.318
60130W        W21441   7.381  21.122   4.749
60131W        W21442  24.040  39.465  13.420
60132W        W21443  13.789  23.022   2.801
60133W        W21444  11.713   5.778  13.950
60134W        W21445  12.207   3.806  12.420
60135W        W21446  15.639  18.254  10.475
60136W        W21447   1.439  39.051  14.438
60137W        W21448  16.226   6.702  14.842
60138W        W21449   4.917   0.846  12.968
60139W        W21450  34.500  27.968  13.001
60140W        W21451   7.290  31.131  10.553
60141W        W21452  41.863   5.412   1.428
60142W        W21453  16.784  40.025  12.568
60143W        W21454   0.846  43.364  13.871
60144W        W21455  37.948  40.408   0.268
60145W        W21456  26.037  17.763  10.481
60146W        W21457  39.843   4.891   4.331
60147W        W21458  24.632  27.079  13.371
60148W        W21459   3.762  29.016   4.297
60149W        W21460   3.274  30.455   1.211
60150W        W21461   2.343  43.786   1.730
60151W        W21462  20.059  32.416   1.889
60152W        W21463   7.733  44.434  14.499
60153W        W21464  22.533  27.563  13.005
60154W        W21465  21.552  26.523   4.658
60155W        W21466  23.602  25.969   3.784
60156W        W21467  41.018  43.870   3.649
60157W        W21468  31.542  12.761  13.838
60158W        W21469  38.839  30.962  13.024
60159W        W21470  38.552   3.942  14.805
60160W        W21471  14.802   2.889   3.300
60161W        W21472  36.465   6.261   4.769
60162W        W21473  33.891  44.451   9.964
60163W        W21474  35.000   8.721  12.089
60164W        W21475  18.693  34.541   2.676
60165W        W21476  15.752  15.594  11.024
60166W        W21477  43.464   5.826   3.345
60167W        W21478  33.447  38.845   2.870
60168W        W21479  23.166  32.518   3.221
60169W        W21480   4.403  39.873   3.206
60170W        W21481  26.994  25.620   4.296
60171W        W21482  37.411  31.009   3.870
60172W        W21483  21.634  31.055   3.774
60173W        W21484  44.770  11.762   4.747
60174W        W21485  37.837   0.818   4.299
60175W        W21486  23.525  39.378  14.986
60176W        W21487  35.944   4.205   1.442
60177W        W21488  22.210  33.506  13.000
60178W        W21489  35.996   3.866   4.792
60179W        W21490  31.532  40.407  10.603
60180W        W21491  22.111  43.302  11.070
60181W        W21492  20.104   9.760   3.206
60182W        W21493  21.138  20.061   3.670
60183W        W21494  25.065   7.295  14.926
60184W        W21495   0.460  19.642   2.895
60185W        W21496  11.238   2.350   4.785
60186W        W21497  30.000  22.204   1.821
60187W        W21498  44.398  21.128  14.332
60188W        W21499   4.351  31.458   2.326
60189W        W21500  42.487  35.977  14.003
60190W        W21501  32.588   1.469  11.077
60191W        W21502  27.028   6.240   0.814
60192W        W21503  13.267  37.389   4.818
60193W        W21504   4.219  17.124  11.531
60194W        W21505   1.749   4.231   1.873
60195W        W21506  43.337   5.296  14.316
60196W        W21507   8.710  42.840  14.454
60197W        W21508  35.853   5.810   4.678
60198W        W21509  38.950  32.416  13.547
60199W        W21510  16.086  28.618   4.600
60200W        W21511  32.010  15.185  11.404
60201W        W21512  10.789  41.791   3.668
60202W        W21513  29.173   9.215  11.422
60203W        W21514  16.798  29.538  11.016
60204W        W21515  10.306  29.085  10.409
60205W        W21516  43.792   2.262  12.917
60206W        W21517  35.103  20.155  13.037
60207W        W21518  11.183  40.364  13.346
60208W        W21519  21.144  17.185   0.260
60209W        W21520  11.724  42.793   1.831
60210W        W21521  18.710  32.105   5.162
60211W        W21522   2.781  39.518  11.097
60212W        W21523  36.384  38.054   5.593
60213W        W21524   4.749  41.977   2.304
60214W        W21525  10.334   6.286   0.399
60215W        W21526  41.327  34.019  13.518
60216W        W21527  36.848  14.108  10.415
60217W        W21528   8.793  36.063   4.762
60218W        W21529  25.125  20.185  11.377
60219W        W21530   3.927  22.197  11.543
60220W        W21531  19.239  13.669   4.248
60221W        W21532  40.477  23.599   4.810
60222W        W21533  28.623  39.835  12.986
60223W        W21534  40.829  42.842  12.049
60224W        W21535  22.040  15.282   2.370
60225W        W21536  10.241  41.343   5.136
60226W        W21537  28.105  30.413  12.990
60227W        W21538  32.019  15.824   0.250
60228W        W21539   2.965  15.789  11.565
60229W        W21540   7.879  18.289   0.895
60230W        W21541  26.021  40.331  14.807
60231W        W21542  11.287  40.425  14.469
60232W        W21543  12.271  18.140   4.686
60233W        W21544  19.053  19.135   1.306
60234W        W21545  29.509  19.702  10.510
60235W        W21546  14.268  14.270   0.435
60236W        W21547  18.211  36.463   1.427
60237W        W21548  15.106  39.886   1.271
60238W        W21549   3.898   3.316  13.432
60239W        W21550   7.326  37.511  14.804
60240W        W21551  37.494  24.142  13.427
60241W        W21552   1.797  14.741   3.221
60242W        W21553   0.944  10.159   3.830
60243W        W21554  26.055  21.746   3.680
60244W        W21555  15.629  41.796   1.794
60245W        W21556  33.462  12.228   3.728
60246W        W21557  37.425  42.307   3.166
60247W        W21558  39.316  35.472  11.504
60248W        W21559  19.557  44.307  13.015
60249W        W21560  35.480   3.752  12.902
60250W        W21561  12.137   4.300  11.468
60251W        W21562   7.813  17.603   0.359
60252W        W21563  35.018   8.352   1.316
60253W        W21564   2.756  12.630  13.368
60254W        W21565  35.415  41.370   1.846
60255W        W21566   0.394  36.049  14.344
60256W        W21567  24.487  28.965   0.450
60257W        W21568   1.309   6.231   2.675
60258W        W21569   0.777   2.363  13.942
60259W        W21570   5.420  44.011  13.346
60260W        W21571  21.749  21.155   0.304
60261W        W21572  28.512   0.413  10.548
60262W        W21573  30.054  39.862   3.636
60263W        W21574  42.335  41.528   0.295
60264W        W21575  30.613  32.066   3.279
60265W        W21576   8.767  33.453  12.882
60266W        W21577  30.112   4.347   2.786
60267W        W21578  26.471  29.590  12.872
60268W        W21579  21.517  28.125   4.122
60269W        W21580  24.218   9.395  10.523
60270W        W21581   1.961  24.691  12.057
60271W        W21582  17.075  12.145  11.493
60272W        W21583  35.951   6.856   4.674
60273W        W21584  27.946  32.579   9.941
60274W        W21585   6.762   3.717  10.956
60275W        W21586  28.574  38.035  13.522
60276W        W21587  13.640  31.422  12.982
60277W        W21588  32.912   9.760   3.814
60278W        W21589  13.302  24.534  14.857
60279W        W21590   8.840  32.085   3.811
60280W        W21591  16.585   3.300   0.727
60281W        W21592   9.840  20.588   4.274
60282W        W21593  26.127  28.011  14.302
60283W        W21594   9.390  16.176  14.951
60284W        W21595  18.613   4.295   2.722
60285W        W21596   9.772  44.766  11.860
60286W        W21597  30.504  13.293   2.822
60287W        W21598   2.246  35.001   5.285
60288W        W21599   4.329  34.101  13.428
60289W        W21600   6.324  33.403  13.512
60290W        W21601  34.881  41.432   2.701
60291W        W21602  18.183  25.147  10.087
60292W        W21603  38.453  21.736   2.893
60293W        W21604  23.164  39.986   2.305
60294W        W21605  13.672  42.808   4.794
60295W        W21606  23.610  27.567   0.839
60296W        W21607  10.803  44.396   9.966
60297W        W21608  34.450  10.654   4.317
60298W        W21609  38.916  31.088   2.818
60299W        W21610  19.232  15.287   0.350
60300W        W21611   7.248  33.114   3.361
60301W        W21612  21.119   1.466   3.285
60302W        W21613  39.908  33.388   2.268
60303W        W21614  34.944  15.167   4.216
60304W        W21615   9.246  32.093  13.054
60305W        W21616  31.505  22.015  10.431
60306W        W21617  32.479   2.913  10.551
60307W        W21618  27.542   5.742   0.845
60308W        W21619  10.659   5.801  14.913
60309W        W21620  40.991  23.627  12.898
60310W        W21621  38.442   7.891   2.287
60311W        W21622   1.348  21.738  10.642
60312W        W21623  31.127   5.808  14.390
60313W        W21624  30.052  27.600  14.876
60314W        W21625  36.067  39.910  11.913
60315W        W21626   8.207  42.491  11.924
60316W        W21627   3.829  15.194   0.893
60317W        W21628  14.757  22.252  12.938
60318W        W21629  30.929  23.143  11.009
60319W        W21630  32.006  10.803   3.376
60320W        W21631  27.521  28.578  11.500
60321W        W21632  39.912  10.661  14.460
60322W        W21633  17.647  14.757  13.955
60323W        W21634  15.258   3.265   0.784
60324W        W21635  38.348  18.203  10.516
60325W        W21636  40.419  36.883   2.221
60326W        W21637  36.029  20.719   0.953
60327W        W21638  42.923  26.517  12.830
60328W        W21639   4.431  13.309  10.950
60329W        W21640   1.323   6.705  12.846
60330W        W21641   8.790  27.195   1.387
60331W        W21642  17.113  30.622   0.365
60332W        W21643  40.531   5.904  11.455
60333W        W21644  17.252  35.908   3.376
60334W        W21645  28.527  32.542   3.698
60335W        W21646  39.330   8.347   2.287
60336W        W21647  40.857   3.349  14.778
60337W        W21648  41.480  12.830  13.465
60338W        W21649  37.475  38.006  14.407
60339W        W21650  33.103  14.593   0.249
60340W        W21651   0.417  13.148   0.429
60341W        W21652  38.424  32.522  13.875
60342W        W21653   8.751  26.029  10.454
60343W        W21654  42.504   2.298  11.008
60344W        W21655   0.449  12.183  14.424
60345W        W21656   3.371  39.815   3.179
60346W        W21657  44.930  21.130  11.026
60347W        W21658   2.744  21.677   3.801
60348W        W21659  35.508   3.250   0.912
60349W        W21660   2.925   0.347  14.426
60350W        W21661  39.338  42.404   2.419
60351W        W21662   6.364  20.627  14.400
60352W        W21663  34.119  44.917   2.199
60353W        W21664  31.458  36.361  10.975
60354W        W21665  30.076   0.776   2.706
60355W        W21666  33.066  28.149   4.636
60356W        W21667  31.022  29.506   3.679
60357W        W21668  31.439  18.735  11.609
60358W        W21669  28.014   7.744  14.024
60359W        W21670   7.186  32.944  12.032
60360W        W21671  31.071  26.679  13.406
60361W        W21672  38.901  30.559  13.794
60362W        W21673  13.646  42.288  11.087
60363W        W21674   5.309   9.195   3.850
60364W        W21675  14.299  16.157   4.165
60365W        W21676  31.553  33.079  13.406
60366W        W21677  23.052   0.743  11.456
60367W        W21678  44.334   5.269   4.805
60368W        W21679   0.302  26.573  11.055
60369W        W21680  22.145   7.860   3.300
60370W        W21681  18.265  42.789   1.883
60371W        W21682  37.958  42.514   3.281
60372W        W21683  22.716   6.867  11.027
60373W        W21684   1.832  17.756  14.488
60374W        W21685  30.953  16.648  14.805
60375W        W21686   8.280  24.146  10.634
60376W        W21687  37.893   2.343  14.319
60377W        W21688   7.312  15.266   0.258
60378W        W21689   0.814   5.819   4.717
60379W        W21690  44.390  15.806  12.351
60380W        W21691  30.474  36.379  12.478
60381W        W21692  10.686  17.064   1.919
60382W        W21693  27.529  36.375  11.439
60383W        W21694  31.595   8.273   3.818
60384W        W21695  16.228  15.729  10.908
60385W        W21696  14.218  10.700  12.851
60386W        W21697  37.951   8.831  14.968
60387W        W21698   8.210  24.707  11.513
60388W        W21699   8.182  44.870  14.863
60389W        W21700  16.280  11.262  11.975
60390W        W21701  26.575  22.020  13.441
60391W        W21702  25.045   4.395   1.400
60392W        W21703  34.491  29.069  14.875
60393W        W21704  28.137  36.580  10.559
60394W        W21705  29.949   4.723   5.206
60395W        W21706  23.117  20.604   0.464
60396W        W21707  39.023  32.607  14.957
60397W        W21708   2.356  40.948  13.478
60398W        W21709  14.306  32.112   3.688
60399W        W21710  27.151  30.985  14.866
60400W        W21711   1.844  44.440  10.965
60401W        W21712  19.271  33.103   0.426
60402W        W21713  40.304  34.959  12.847
60403W        W21714  39.346   4.733   2.812
60404W        W21715  12.718  20.695  14.966
60405W        W21716  30.593  22.531  14.951
60406W        W21717  38.334   9.761  13.521
60407W        W21718  22.122  31.908  12.842
60408W        W21719  11.716  19.272  12.526
60409W        W21720  10.780  34.939  13.458
60410W        W21721  35.451  10.713   2.418
60411W        W21722  10.738  20.109   2.379
60412W        W21723   6.739  27.142   3.203
60413W        W21724  24.619  26.592  11.594
60414W        W21725  16.633  27.105   4.635
60415W        W21726  25.649  26.195   1.389
60416W        W21727  37.498  43.432  12.983
60417W        W21728  29.067  40.539   2.891
60418W        W21729  17.730  18.222  12.008
60419W        W21730  40.920   8.788  13.032
60420W        W21731  21.557   1.836   3.157
60421W        W21732   9.836   3.874  13.945
60422W        W21733  41.989  38.965   4.642
60423W        W21734  43.441  28.186   1.822
60424W        W21735  25.076  22.721  11.069
60425W        W21736   3.838  14.775  13.404
60426W        W21737  36.481  17.709  14.823
60427W        W21738  35.374  16.176  11.520
60428W        W21739  36.986   3.248  11.429
60429W        W21740   3.780  11.662   3.320
60430W        W21741  13.315  15.216  12.402
60431W        W21742  41.812  22.601   2.895
60432W        W21743  39.506  34.556   0.967
60433W        W21744  17.636  17.756   1.223
60434W        W21745  10.375  31.593   4.652
60435W        W21746  12.163   7.386  12.031
60436W        W21747  28.930  20.525   4.299
60437W        W21748  35.007  17.591   0.286
60438W        W21749  24.082  23.614   1.291
60439W        W21750  36.522   6.208   5.089
60440W        W21751  16.276  39.063  14.936
60441W        W21752  28.499  14.225  13.501
60442W        W21753  42.952  43.987  12.366
60443W        W21754   7.253   7.226  10.954
60444W        W21755  29.968  22.715   0.262
60445W        W21756  23.640  16.712   4.339
60446W        W21757   3.277  12.145  12.490
60447W        W21758   0.880  38.905  14.408
60448W        W21759  27.053  20.096   5.618
60449W        W21760  18.696  36.439   0.752
60450W        W21761  26.150   7.903   1.896
60451W        W21762  23.034  43.350   4.610
60452W        W21763  27.078  30.082   4.336
60453W        W21764  44.883  38.945  14.986
60454W        W21765  14.640  31.037   3.315
60455W        W21766  25.047  35.040  13.990
60456W        W21767  18.279  41.860   4.246
60457W        W21768  32.473  16.184   2.854
60458W        W21769  34.017   1.954  11.526
60459W        W21770  21.183  35.600  13.313
60460W        W21771  42.309  37.999   2.767
60461W        W21772  27.568  11.777  14.842
60462W        W21773   2.383   0.849   4.164
60463W        W21774  20.160   2.774  14.771
60464W        W21775  39.374  16.270  11.539
60465W        W21776   9.746  25.576   0.292
60466W        W21777  10.219  10.152   1.760
60467W        W21778  33.974  23.663   4.335
60468W        W21779  25.051  13.799  10.591
60469W        W21780  30.525  44.806  12.999
60470W        W21781  40.314  19.772   2.694
60471W        W21782   3.263  27.053  13.036
60472W        W21783  28.510   1.295   2.355
60473W        W21784   4.238  19.223  13.845
60474W        W21785  37.460  33.887  10.075
60475W        W21786   4.895   8.874   3.193
60476W        W21787   6.899   4.284   3.852
60477W        W21788   9.262  33.553   0.393
60478W        W21789  43.413  22.632   0.351
60479W        W21790  17.802  13.294  14.990
60480W        W21791  33.566  10.762  12.500
60481W        W21792   9.175  35.364  11.121
60482W        W21793  24.176  40.953   3.725
60483W        W21794  14.708  42.406  11.942
60484W        W21795  20.635  15.155   0.851
60485W        W21796  24.994  42.920   0.778
60486W        W21797  42.354  16.697  10.451
60487W        W21798  42.881  17.142  13.960
60488W        W21799  37.425   2.812  13.370
60489W        W21800  11.689  36.083   2.347
60490W        W21801   9.831  19.609   3.187
60491W        W21802  18.681   7.230  13.391
60492W        W21803  37.350  43.863   2.307
60493W        W21804   6.792  42.516   1.343
60494W        W21805  38.917  20.589   1.451
60495W        W21806  33.540   7.244   4.326
60496W        W21807  26.660  18.213   3.809
60497W        W21808   6.194  11.696   3.374
60498W        W21809  24.027   6.222  11.103
60499W        W21810  40.486  29.631   0.446
60500W        W21811  18.551  27.036   3.197
60501W        W21812  32.907  25.201   1.314
60502W        W21813  19.732  16.284   2.179
60503W        W21814   1.740  35.093  13.442
60504W        W21815  27.098  22.544  10.909
60505W        W21816  35.997  15.799  14.382
60506W        W21817  28.526   3.313  14.802
60507W        W21818   4.717   8.708  12.027
60508W        W21819  31.599  19.200  12.064
60509W        W21820  32.920   0.358  14.387
60510W        W21821  44.274   8.808   0.807
60511W        W21822  23.126  27.102  10.047
60512W        W21823   8.319  44.942   4.661
60513W        W21824  25.552   8.677  13.010
60514W        W21825  19.263  33.099  13.310
60515W        W21826  24.509  21.617  13.007
60516W        W21827  29.594  44.399  13.442
60517W        W21828  21.740  19.672   0.439
60518W        W21829  38.939  40.917   2.681
60519W        W21830  18.647   6.253   2.814
60520W        W21831  12.234  26.615  12.895
60521W        W21832   4.424  36.070   0.459
60522W        W21833  24.488  36.477  13.058
60523W        W21834   9.156   3.915   1.900
60524W        W21835  14.337   1.962  12.040
60525W        W21836  12.246  11.243   4.657
60526W        W21837  30.526  21.590  14.387
60527W        W21838   0.462  37.897   3.292
60528W        W21839   9.881  43.331  12.859
60529W        W21840  34.379  37.911  11.398
60530W        W21841  25.182  23.233  11.442
60531W        W21842  37.868  20.569   2.690
60532W        W21843  39.434  27.545   0.453
60533W        W21844   4.851   8.705  14.021
60534W        W21845   1.969  20.114  10.464
60535W        W21846  35.871  22.148  10.971
60536W        W21847   0.285  16.129   4.767
60537W        W21848  14.168  15.218   4.653
60538W        W21849  44.906  28.183   2.681
60539W        W21850  26.993   7.673  12.536
60540W        W21851  34.427  17.083   3.308
60541W        W21852  36.095  18.214  13.049
60542W        W21853   4.301  29.632  12.388
60543W        W21854  29.107  38.049   1.343
60544W        W21855  28.049   9.389   3.805
60545W        W21856   2.472  44.843  10.510
60546W        W21857  39.459   6.267   0.388
60547W        W21858  23.639  41.938   0.906
60548W        W21859   0.903  16.252  14.948
60549W        W21860  44.470  25.113  11.971
60550W        W21861  19.726  17.124  10.437
60551W        W21862  40.857  10.173  12.976
60552W        W21863  14.661  12.792   4.124
60553W        W21864  43.466  34.051  10.920
60554W        W21865   2.897  26.698   1.237
60555W        W21866   2.401  34.593   0.889
60556W        W21867   2.445  33.893   3.189
60557W        W21868   9.372  41.817   1.849
60558W        W21869  12.142  27.105  14.907
60559W        W21870  21.176   2.862  10.941
60560W        W21871  10.875  37.376  14.962
60561W        W21872  29.958  18.099  10.617
60562W        W21873  43.002  24.011  12.497
60563W        W21874  13.753  40.901  11.943
60564W        W21875  34.016  22.017   3.664
60565W        W21876  21.134  10.675   4.762
60566W        W21877  24.715  38.059   2.877
60567W        W21878  11.732  44.780  14.483
60568W        W21879  28.950  14.259   4.734
60569W        W21880   6.238   6.873   3.736
60570W        W21881  18.573  43.876   4.836
60571W        W21882  32.896  36.873   3.640
60572W        W21883  31.919  18.256  13.382
60573W        W21884  32.078  28.654   4.342
60574W        W21885  16.115  33.402   0.249
60575W        W21886  42.999  35.007   0.350
60576W        W21887  42.804  12.735   0.782
60577W        W21888   2.361   4.770  12.865
60578W        W21889   4.364  36.987  14.443
60579W        W21890  33.547   7.871  12.361
60580W        W21891  29.980  30.473   0.818
60581W        W21892   3.713  13.260   4.284
60582W        W21893  34.445  27.524   3.781
60583W        W21894  14.727  11.160   0.242
60584W        W21895  44.265  19.669   0.323
60585W        W21896  27.174  30.486  13.325
60586W        W21897  39.951  43.482  11.877
60587W        W21898   7.274  37.908   0.313
60588W        W21899  32.533  37.955  14.292
60589W        W21900  22.244  41.473   9.984
60590W        W21901  32.465  43.994  11.435
60591W        W21902  38.492  37.938  14.840
60592W        W21903  15.219  32.083   1.900
60593W        W21904   4.205   7.897  11.504
60594W        W21905  18.646  17.716   2.788
60595W        W21906  44.777  26.176   2.253
60596W        W21907  26.167  26.484  12.969
60597W        W21908  22.709  27.059  12.045
60598W        W21909  44.830   7.352  10.934
60599W        W21910  39.043  32.541  13.792
60600W        W21911   0.811   0.368  12.559
60601W        W21912  26.521  27.976  13.384
60602W        W21913  17.623   6.367  13.401
60603W        W21914  20.087  23.067   3.344
60604W        W21915  30.992  38.508   0.742
60605W        W21916  22.611  27.155  12.854
60606W        W21917  38.014  22.623   0.481
60607W        W21918  36.491  22.103   4.660
60608W        W21919  30.984  40.399   4.772
60609W        W21920  18.780  10.337   0.851
60610W        W21921  35.506  32.002  12.057
60611W        W21922  32.974  36.874  11.375
60612W        W21923  27.549  32.031  14.340
60613W        W21924  25.713  29.552  10.408
60614W        W21925  30.646  42.940   0.461
60615W        W21926   8.860   5.248   0.472
60616W        W21927   2.943  35.016   2.194
60617W        W21928   0.356  19.748  14.775
60618W        W21929  12.655   1.751   9.930
60619W        W21930  34.045  35.094   2.376
60620W        W21931  27.944  30.120   1.906
60621W        W21932  40.431  29.144  10.130
60622W        W21933  10.380  31.928  10.541
60623W        W21934  27.995  40.814  10.957
60624W        W21935  22.567  21.695  13.418
60625W        W21936   8.306  25.524   4.244
60626W        W21937  31.979  18.568   3.803
60627W        W21938  21.250   4.255   1.392
60628W        W21939  12.809  37.364  10.994
60629W        W21940  18.288  23.639  11.525
60630W        W21941  12.784   7.767  12.454
60631W        W21942  31.417   2.818   1.902
60632W        W21943   6.740  30.602   0.327
60633W        W21944  33.053  30.115   4.153
60634W        W21945  18.146  31.425  13.984
60635W        W21946  33.498  41.312   4.664
60636W        W21947  25.509   7.325   5.192
60637W        W21948  30.150  21.561  10.555
60638W        W21949   7.291  32.487  13.038
60639W        W21950  38.557  42.781   4.683
60640W        W21951   5.755  36.924  11.082
60641W        W21952   9.186  43.506  13.027
60642W        W21953  18.229  44.469  13.904
60643W        W21954  15.803  24.543  14.425
60644W        W21955  39.451  17.306   4.802
60645W        W21956  11.198   5.735  11.485
60646W        W21957  19.263   7.717   2.787
60647W        W21958   5.330   9.308   2.351
60648W        W21959  39.829  12.682   2.881
60649W        W21960  23.229  36.999   1.806
60650W        W21961  19.069  28.448  14.433
60651W        W21962  31.476  14.708  12.428
60652W        W21963  14.650  35.075   1.934
60653W        W21964  17.656  10.158   4.305
60654W        W21965  29.489  41.908  13.369
60655W        W21966   0.407  27.550  13.964
60656W        W21967  33.959   2.924  11.056
60657W        W21968  40.534  44.436  12.874
60658W        W21969  40.877  12.784  11.015
60659W        W21970  27.579  22.125   4.805
60660W        W21971  19.111  24.994   0.765
60661W        W21972  13.326  36.044  11.515
60662W        W21973   8.180  29.569   3.150
60663W        W21974  15.817  29.923  14.458
60664W        W21975  42.910  11.362  10.965
60665W        W21976   1.931  38.912   4.329
60666W        W21977  19.612  13.238   4.651
60667W        W21978   1.961  19.760  14.876
60668W        W21979  31.043  37.891   1.774
60669W        W21980  29.471  40.412  11.959
60670W        W21981  16.775  15.758   0.869
60671W        W21982  28.522  24.181  10.429
60672W        W21983  37.857  32.524  11.536
60673W        W21984  16.293  11.150   3.725
60674W        W21985   6.899  22.228   3.631
60675W        W21986  41.948  23.094   4.333
60676W        W21987   0.769  18.705   3.645
60677W        W21988  11.350  32.390  14.009
60678W        W21989  40.533  39.850   0.869
60679W        W21990  21.538  38.885  13.795
60680W        W21991  25.042  43.998   0.863
60681W        W21992  12.698  20.266   2.294
60682W        W21993   8.819  35.461   3.774
60683W        W21994   9.853  42.512  10.405
60684W        W21995  34.598  18.775   2.396
60685W        W21996  35.959  24.005   5.287
60686W        W21997   6.846  24.187  12.371
60687W        W21998  36.901   1.845  11.959
60688W        W21999  41.431  20.076   4.296
60689W        W22000  22.220  41.973  12.907
60690W        W22001  41.006  38.542  13.943
60691W        W22002  12.645  21.594   3.239
60692W        W22003  38.845   7.334   0.305
60693W        W22004   2.752   2.816  14.017
60694W        W22005  15.646  21.255  14.880
60695W        W22006  39.530  17.088   3.676
60696W        W22007  23.509   2.419   0.360
60697W        W22008  11.293  14.131  14.884
60698W        W22009  29.447  40.444   9.946
60699W        W22010  18.722  28.537   2.788
60700W        W22011  15.131  41.912   3.799
60701W        W22012  14.178  26.521   1.210
60702W        W22013  26.170  38.562   1.784
60703W        W22014   6.372  29.552  11.966
60704W        W22015   2.248  35.601  13.953
60705W        W22016  32.542   1.806  12.991
60706W        W22017   1.406   7.894  11.453
60707W        W22018  39.343  32.634   2.192
60708W        W22019  18.687   5.701  10.095
60709W        W22020  34.917  22.139   1.899
60710W        W22021  34.979  30.560   3.319
60711W        W22022  24.640   1.324   2.783
60712W        W22023  16.200  10.701  13.999
60713W        W22024  43.442  12.853   2.847
60714W        W22025  16.307  12.223  10.996
60715W        W22026  24.198   8.819   3.368
60716W        W22027   4.782  14.149   9.954
60717W        W22028  36.525   5.393  10.946
60718W        W22029  32.112   4.309   1.928
60719W        W22030  40.429   7.207   2.260
60720W        W22031   9.659  21.679   3.781
60721W        W22032  13.731  37.386   2.897
60722W        W22033   4.794  23.656   3.186
60723W        W22034   9.672  25.589  14.999
60724W        W22035   4.436  27.462   4.669
60725W        W22036   8.689  16.074  13.478
60726W        W22037   6.338  14.696   1.899
60727W        W22038  12.292  18.129   0.297
60728W        W22039  12.169  15.203   2.826
60729W        W22040  10.239  37.438  12.502
60730W        W22041  20.111  43.963  11.102
60731W        W22042  33.975  43.372   0.875
60732W        W22043  37.078  17.199   4.216
60733W        W22044   6.398   9.153   0.407
60734W        W22045   0.871  14.113   3.864
60735W        W22046   6.679  15.101  10.949
60736W        W22047  34.050  30.473   3.741
60737W        W22048  13.612  20.090  12.861
60738W        W22049  11.366  30.581   0.309
60739W        W22050  17.282  36.373  12.523
60740W        W22051  17.306  36.004  12.887
60741W        W22052  41.336  40.856   4.650
60742W        W22053   6.294   3.316  13.895
60743W        W22054  26.559   3.860   3.191
60744W        W22055   5.429  25.494  12.073
60745W        W22056   6.903  36.918   3.383
60746W        W22057  24.510  27.082   2.290
60747W        W22058  13.120  14.176  13.343
60748W        W22059  27.124  32.510   4.835
60749W        W22060  33.409   0.820  10.944
60750W        W22061  13.335  31.107   2.800
60751W        W22062  27.633  38.075  10.579
60752W        W22063  21.635   5.335  13.859
60753W        W22064  26.094  26.156   4.814
60754W        W22065  10.720   6.755   4.778
60755W        W22066  34.933  33.546   3.305
60756W        W22067  38.925   0.917   4.168
60757W        W22068  24.039  37.494  14.976
60758W        W22069  13.804  11.787   4.162
60759W        W22070  30.577  34.041  13.377
60760W        W22071  31.519  21.076   0.455
60761W        W22072   8.167  10.197   2.743
60762W        W22073   8.702  38.479  12.825
60763W        W22074  32.915  39.943  12.454
60764W        W22075   0.410  23.546  10.908
60765W        W22076  21.019  29.966   4.143
60766W        W22077   4.751  28.505  10.562
60767W        W22078  11.651  19.740   0.291
60768W        W22079  16.735  26.178   4.142
60769W        W22080  42.874  20.623  10.485
60770W        W22081  26.133   5.840   3.347
60771W        W22082  41.982  36.036   2.858
60772W        W22083  40.889  38.057   0.907
60773W        W22084  30.998  32.069  10.104
60774W        W22085  41.938  30.472   2.856
60775W        W22086  22.694   1.338   1.322
60776W        W22087   9.385  20.646   1.421
60777W        W22088  29.555   9.757  14.912
60778W        W22089  27.448  15.258   0.733
60779W        W22090  34.569  23.107  12.510
60780W        W22091  26.161  20.580   4.242
60781W        W22092  35.436  24.536   1.913
60782W        W22093  22.017  21.177  14.967
60783W        W22094  34.402  15.666   3.305
60784W        W22095  25.498   7.289   0.304
60785W        W22096  36.400  34.018  13.431
60786W        W22097  23.696  41.017   2.386
60787W        W22098   3.227  41.480  10.464
60788W        W22099   7.184  21.071   3.794
60789W        W22100  14.697  10.365  10.997
60790W        W22101   9.802   7.866  12.883
60791W        W22102  25.487  20.244  12.934
60792W        W22103  44.414  34.369   0.740
60793W        W22104  35.476  33.924   2.366
60794W        W22105  39.367  10.827   4.711
60795W        W22106  26.652  10.749  14.310
60796W        W22107  21.696  40.492   2.696
60797W        W22108   6.383  24.719   3.251
60798W        W22109  42.332  16.670   4.714
60799W        W22110  22.209  19.778   0.764
60800W        W22111  12.343  37.469  10.429
60801W        W22112  27.563  12.616  13.516
60802W        W22113   4.266  33.075  11.118
60803W        W22114   5.229  40.454  12.515
60804W        W22115  44.350  18.111  11.526
60805W        W22116  37.348  30.975   3.180
60806W        W22117  37.448  32.895  10.925
60807W        W22118  41.885  29.642  14.399
60808W        W22119  16.670   0.974  14.816
60809W        W22120  37.015  35.931   3.349
60810W        W22121   0.386  28.053  11.438
60811W        W22122  21.755  15.305  10.404
60812W        W22123  25.013  13.737   4.612
60813W        W22124  28.014  22.232   1.699
60814W        W22125  28.150  13.341  13.952
60815W        W22126   7.213  25.071   3.261
60816W        W22127  36.432  40.428   0.277
60817W        W22128  18.218   0.765  14.802
60818W        W22129  10.364  10.864  11.007
60819W        W22130  34.863  18.611  14.784
60820W        W22131  31.921  33.003   1.928
60821W        W22132  30.617   1.791  13.460
60822W        W22133   5.291  42.997  14.321
60823W        W22134  35.051   5.815  11.586
60824W        W22135  15.794   6.742   1.328
60825W        W22136  17.300  27.511   4.775
60826W        W22137  30.029  35.967  13.997
60827W        W22138   8.272   8.697  11.119
60828W        W22139  23.618   3.437  14.341
60829W        W22140   0.818  27.070  10.930
60830W        W22141   3.330  25.699  12.092
60831W        W22142  32.072   1.413   4.772
60832W        W22143  33.541  23.227  13.309
60833W        W22144  40.476   1.363  13.340
60834W        W22145  23.167  21.157  14.411
60835W        W22146   8.179  44.754   4.317
60836W        W22147   0.771  34.494  14.962
60837W        W22148  24.109   9.226   1.738
60838W        W22149  23.131  23.073   5.105
60839W        W22150  37.957   6.334   0.812
60840W        W22151  32.098  26.967  11.469
60841W        W22152   1.391  31.425  11.427
60842W        W22153  37.840  24.703  11.392
60843W        W22154  14.210   6.186   3.201
60844W        W22155  26.008  10.231   2.229
60845W        W22156   8.186   7.414  12.077
60846W        W22157  11.299  32.049  14.007
60847W        W22158  17.125  26.997   2.391
60848W        W22159   0.864  19.192   3.772
60849W        W22160   3.347  28.953  14.782
60850W        W22161  10.326  31.426   3.835
60851W        W22162  38.347  20.551   1.853
60852W        W22163  16.156  43.433   1.776
60853W        W22164   2.786  25.099   1.214
60854W        W22165   9.283  30.008   4.289
60855W        W22166  38.931  15.714  12.067
60856W        W22167   0.378  24.598   3.794
60857W        W22168  43.448  25.216  14.833
60858W        W22169  19.263  20.630   1.716
60859W        W22170  15.151   5.798  13.356
60860W        W22171  24.070  34.600  12.565
60861W        W22172   3.955  28.033  10.926
60862W        W22173  26.680  40.010   0.347
60863W        W22174  27.550  34.865   3.816
60864W        W22175  13.223   5.839   0.807
60865W        W22176  23.513   6.249  10.907
60866W        W22177  37.943  28.454   2.209
60867W        W22178  19.136  11.735  14.348
60868W        W22179  18.675  40.401   5.270
60869W        W22180  39.362   5.340  11.601
60870W        W22181  22.648  25.533  11.012
60871W        W22182  22.139  17.637   1.223
60872W        W22183  22.116  38.853   0.287
60873W        W22184  10.691   7.208   2.746
60874W        W22185  20.642  10.269  14.769
60875W        W22186   8.182  10.757  14.824
60876W        W22187  35.015  17.061  12.553
60877W        W22188  11.141  28.942  13.869
60878W        W22189  15.266   5.342  12.342
60879W        W22190  25.553  13.704  14.361
60880W        W22191   6.331  29.128   2.196
60881W        W22192  32.569  10.844   1.329
60882W        W22193  22.029  10.255  14.964
60883W        W22194  23.196   1.747   4.240
60884W        W22195  44.782  32.023   5.287
60885W        W22196  44.270  16.755  13.865
60886W        W22197  44.969  41.991  14.497
60887W        W22198   2.757   3.956  14.390
60888W        W22199  11.660  36.502   0.910
60889W        W22200   0.347  13.711  13.322
60890W        W22201  37.534  27.959  13.859
60891W        W22202  13.282  38.837  13.001
60892W        W22203  43.445  37.027   2.248
60893W        W22204  34.941  44.905   2.327
60894W        W22205   5.254  13.171   1.238
60895W        W22206   3.847  43.379   2.189
60896W        W22207   1.390   1.272  13.434
60897W        W22208  36.910  10.738  11.591
60898W        W22209  20.739  27.529   0.890
60899W        W22210  18.748  22.040   0.381
60900W        W22211   1.962   5.761   0.903
60901W        W22212   0.269  39.358  14.843
60902W        W22213  30.578  38.849   0.847
60903W        W22214  15.128  19.125  10.522
60904W        W22215  31.509  23.674  11.579
60905W        W22216  21.678  36.422   4.172
60906W        W22217  27.478  11.723   3.225
60907W        W22218  44.778  29.658   3.207
60908W        W22219  20.550   0.299   3.241
60909W        W22220  17.707  15.748   0.313
60910W        W22221   9.755  25.179  13.881
60911W        W22222  38.445  39.539   1.876
60912W        W22223  17.083  41.929  14.836
60913W        W22224  14.292  14.656  10.610
60914W        W22225   7.388   3.248   0.365
60915W        W22226  39.950  10.367  14.470
60916W        W22227   4.406  26.153  11.921
60917W        W22228   3.345  11.809  10.606
60918W        W22229  35.405  20.215  12.980
60919W        W22230  35.432  29.424   1.310
60920W        W22231   8.406  36.478   4.129
60921W        W22232  19.186  29.668   2.724
60922W        W22233  17.294   1.971   0.400
60923W        W22234   4.409  28.478  12.415
60924W        W22235  30.551   8.287   3.206
60925W        W22236  38.437  10.235  11.464
60926W        W22237   2.336  28.671   3.218
60927W        W22238  25.059  35.529   3.714
60928W        W22239  38.908   4.802   3.639
60929W        W22240   3.359  38.971   4.240
60930W        W22241   1.324   6.342  10.538
60931W        W22242  41.829  39.403  11.468
60932W        W22243  41.523  31.576  13.380
60933W        W22244  43.765  27.463   4.714
60934W        W22245  35.920  19.540  14.397
60935W        W22246  27.551  19.623   3.200
60936W        W22247  10.240  27.107  12.448
60937W        W22248  15.579  14.778  13.031
60938W        W22249  36.035  10.646   1.369
60939W        W22250  34.035  12.742  10.616
60940W        W22251  23.493  27.035  11.571
60941W        W22252  34.035  22.070  10.427
60942W        W22253   7.751  20.552   3.738
60943W        W22254   7.290  42.938  13.904
60944W        W22255  38.951  38.373  12.994
60945W        W22256  41.989  37.581   1.361
60946W        W22257  35.582  11.237   2.733
60947W        W22258  42.964  39.862   0.941
60948W        W22259  41.881  31.466  12.875
60949W        W22260  13.815   1.751   3.679
60950W        W22261  17.567   8.194  13.848
60951W        W22262   8.663  24.021   5.241
60952W        W22263  37.056   1.248  10.497
60953W        W22264  40.824   4.855  12.075
60954W        W22265  43.515   4.729   3.184
60955W        W22266  13.223  37.950   4.715
60956W        W22267  25.482  12.223  11.972
60957W        W22268   8.730  14.262  11.548
60958W        W22269  30.597  31.081  13.919
60959W        W22270  35.364  15.278   2.743
60960W        W22271   7.745  10.781  10.416
60961W        W22272  39.348   7.869  14.016
60962W        W22273  10.648  12.179   2.270
60963W        W22274  34.012   3.737  11.387
60964W        W22275  40.877  41.808   2.372
60965W        W22276   1.424  14.756   2.839
60966W        W22277  44.878  31.986   4.146
60967W        W22278  16.077   8.198   0.804
60968W        W22279  27.624   7.878   3.817
60969W        W22280  10.172  21.531   4.672
60970W        W22281  19.175  40.318   9.496
60971W        W22282  21.616  14.098  13.955
60972W        W22283  21.537   6.373   3.183
60973W        W22284   3.949  30.524   0.754
60974W        W22285  30.916   7.288   2.869
60975W        W22286  25.080  37.508   3.639
60976W        W22287  41.413  21.617   4.644
60977W        W22288  29.971   6.862  14.344
60978W        W22289   4.212  15.247   0.445
60979W        W22290  29.150  39.329  10.986
60980W        W22291   8.824  40.989  12.883
60981W        W22292  21.704  28.063   0.276
60982W        W22293  13.237  35.521  10.889
60983W        W22294  35.992  18.567   5.135
60984W        W22295  40.883  27.624   3.274
60985W        W22296  13.703  21.555  10.498
60986W        W22297  23.657   0.340   4.219
60987W        W22298  23.189   5.868  11.010
60988W        W22299  34.110  39.998  11.011
60989W        W22300  33.106  16.124   4.804
60990W        W22301  16.130  10.789  11.539
60991W        W22302   8.679  10.635   2.319
60992W        W22303  37.343  30.931  11.097
60993W        W22304   3.230  12.694   0.376
60994W        W22305   8.270  28.182   1.436
60995W        W22306  23.529   4.384  14.768
60996W        W22307   5.696  20.686  14.838
60997W        W22308  30.489  29.659   1.398
60998W        W22309  41.437  38.356   1.329
60999W        W22310  39.330   1.884   2.341
61000W        W22311  41.796   0.966  13.057
61001W        W22312  20.734  36.500   0.408
61002W        W22313   6.381  41.360   2.741
61003W        W22314  21.234  22.122   2.371
61004W        W22315   4.343   4.219  12.953
61005W        W22316  26.663  37.887  14.983
61006W        W22317  27.497  40.808   4.720
61007W        W22318  42.885  31.507  11.438
61008W        W22319   4.258  12.701  11.501
61009W        W22320   3.821  25.091   0.855
61010W        W22321  44.765  34.106   4.660
61011W        W22322   3.798   1.450   0.478
61012W        W22323  15.090  41.022  12.410
61013W        W22324  28.078  31.902   0.315
61014W        W22325  24.521   8.213   1.927
61015W        W22326  13.262  16.808   2.353
61016W        W22327  20.087  25.638   3.156
61017W        W22328   4.362  42.018   3.206
61018W        W22329  42.348  14.141   1.381
61019W        W22330  29.036  40.444  14.492
61020W        W22331  19.755   9.386   4.764
61021W        W22332  21.223   3.868  13.461
61022W        W22333   2.770  37.908  11.531
61023W        W22334   2.416   8.271  13.336
61024W        W22335  38.825   3.822   4.762
61025W        W22336  12.224  22.585  10.540
61026W        W22337   7.906  34.611  14.816
61027W        W22338  19.218  33.974  12.024
61028W        W22339  42.005  11.147   1.278
61029W        W22340  32.514  14.182   4.247
61030W        W22341   0.784  35.893   1.888
61031W        W22342  28.532  40.536  12.962
61032W        W22343  38.547  28.110  10.903
61033W        W22344  40.840  18.652  11.405
61034W        W22345   0.822  41.033  11.027
61035W        W22346  39.831  39.388   3.845
61036W        W22347  10.148  25.005   3.718
61037W        W22348  37.015   0.425  14.346
61038W        W22349  31.508  35.595   2.347
61039W        W22350  10.335  26.475  13.485
61040W        W22351  17.642  35.064   1.756
61041W        W22352   4.891   3.911   4.327
61042W        W22353  22.690  19.663  12.566
61043W        W22354  18.654  38.824   0.285
61044W        W22355  30.920  31.544   4.672
61045W        W22356  44.393  24.706  11.891
61046W        W22357  40.825  35.455   4.204
61047W        W22358  22.023  44.973  11.436
61048W        W22359  18.558  35.003   1.888
61049W        W22360  13.155  32.937   0.465
61050W        W22361  15.787  14.217  14.392
61051W        W22362  28.090  35.440   2.740
61052W        W22363  23.563  44.980   2.388
61053W        W22364  18.759   6.325  12.825
61054W        W22365  34.522  30.542  13.814
61055W        W22366  12.227  15.623   4.286
61056W        W22367  17.728  35.934   0.949
61057W        W22368   5.815  19.178   2.221
61058W        W22369  11.852  15.609  10.926
61059W        W22370  24.004  41.991  14.314
61060W        W22371  40.439  26.500  12.891
61061W        W22372   4.897  29.986  13.879
61062W        W22373  29.961   9.212   0.911
61063W        W22374  15.610  29.149   4.148
61064W        W22375   4.880  28.594   4.346
61065W        W22376  20.591  20.613   0.402
61066W        W22377  43.405  12.355   0.949
61067W        W22378  40.993  24.165   4.178
61068W        W22379  26.113   0.760   0.956
61069W        W22380   2.930  16.699  14.028
61070W        W22381  42.995  10.219   4.303
61071W        W22382   7.775   6.411  12.891
61072W        W22383  19.272  44.276   4.279
61073W        W22384  36.026  44.787   2.188
61074W        W22385  17.692  29.541  10.419
61075W        W22386   3.414  34.528   1.783
61076W        W22387  36.576  43.362  14.487
61077W        W22388  38.370  22.183  12.343
61078W        W22389  21.757  22.605   2.338
61079W        W22390   8.798  18.290  12.028
61080W        W22391  31.549  31.063  10.890
61081W        W22392   7.234   5.260   0.416
61082W        W22393  28.581  42.934  14.347
61083W        W22394  32.083  18.606   2.801
61084W        W22395  19.196   3.245   1.842
61085W        W22396   4.214  39.487   2.320
61086W        W22397   5.781  30.460   3.851
61087W        W22398  42.481  25.056  14.006
61088W        W22399  16.633  37.428  14.874
61089W        W22400  25.154   1.977   3.801
61090W        W22401  23.692  25.041  12.823
61091W        W22402  35.977  10.758  14.869
61092W        W22403   6.369   6.353  12.529
61093W        W22404  20.248  40.452  14.478
61094W        W22405   5.740   0.812   0.766
61095W        W22406  23.685  32.527  10.116
61096W        W22407   8.231  37.022  13.398
61097W        W22408   0.274  30.597   3.328
61098W        W22409  32.921   4.718   0.321
61099W        W22410  27.631  15.250  14.948
61100W        W22411  22.195   1.459  11.987
61101W        W22412   9.796  44.471   2.221
61102W        W22413  10.691   7.684  10.583
61103W        W22414  37.929  42.031   3.732
61104W        W22415  10.318  25.491  13.433
61105W        W22416   3.740   9.276  12.968
61106W        W22417  33.385  39.367   0.843
61107W        W22418  10.334   7.408   4.667
61108W        W22419  26.558  25.171   1.777
61109W        W22420   3.330  11.700  12.535
61110W        W22421  34.948  14.607   2.404
61111W        W22422   9.379  42.507   4.777
61112W        W22423   5.204  17.679   1.878
61113W        W22424  40.530  44.326  10.154
61114W        W22425  20.238  29.173  13.347
61115W        W22426   2.353   0.803   2.371
61116W        W22427  44.496   6.868   0.249
61117W        W22428   7.801   5.864  10.534
61118W        W22429  15.658  32.410   3.342
61119W        W22430  19.548  20.620   2.371
61120W        W22431  39.358  15.746  14.351
61121W        W22432  37.030  33.544  13.530
61122W        W22433  43.010   0.753  14.880
61123W        W22434  32.509  34.921   2.738
61124W        W22435  23.151   8.844   3.203
61125W        W22436  22.636  42.340   3.267
61126W        W22437   4.929  44.843  14.502
61127W        W22438   3.882  43.416  13.806
61128W        W22439  36.355  24.177   4.245
61129W        W22440  29.135  37.580   3.671
61130W        W22441  42.811  32.634  11.910
61131W        W22442  18.079  26.989   3.310
61132W        W22443  24.594   4.737  11.128
61133W        W22444  27.456  29.047  11.442
61134W        W22445  20.558  28.103   0.271
61135W        W22446  22.997  25.508   3.837
61136W        W22447  37.863   2.286   3.363
61137W        W22448  24.076  33.530   2.673
61138W        W22449   9.690  23.213  11.500
61139W        W22450  14.730  28.507   2.223
61140W        W22451  34.607  24.634   0.439
61141W        W22452  13.139  41.984  13.521
61142W        W22453   4.911  17.715   3.164
61143W        W22454   5.318  13.779   2.753
61144W        W22455  41.842  44.322   2.865
61145W        W22456  11.683  12.850  13.345
61146W        W22457   4.253   4.339   0.955
61147W        W22458  36.467  34.082   1.845
61148W        W22459   4.751  11.322   1.341
61149W        W22460  24.031  11.167   1.699
61150W        W22461   3.898   2.773  10.612
61151W        W22462  19.142  35.109  12.454
61152W        W22463   5.845  11.708   2.261
61153W        W22464   2.463  23.501  13.382
61154W        W22465  29.503  38.388   3.263
61155W        W22466  28.679  25.701   1.362
61156W        W22467  31.977  38.021  11.084
61157W        W22468  41.442   6.750   4.621
61158W        W22469   4.286  39.003  12.402
61159W        W22470  29.550  18.157  13.946
61160W        W22471   1.801  16.747   0.404
61161W        W22472   3.324  39.513   2.741
61162W        W22473  34.382  12.699   3.262
61163W        W22474  18.749  38.017   1.328
61164W        W22475  21.073   6.219  13.516
61165W        W22476  34.420  30.471  12.470
61166W        W22477  43.912  32.471   0.878
61167W        W22478  15.634  15.322   2.777
61168W        W22479  29.963  34.034   0.357
61169W        W22480  30.462   5.734   1.755
61170W        W22481   1.834  29.568   3.338
61171W        W22482  24.181  13.261   0.476
61172W        W22483  16.214   9.216   0.366
61173W        W22484  30.589  12.619  13.494
61174W        W22485  16.133  15.207  12.526
61175W        W22486  43.285  44.324  10.620
61176W        W22487  19.756   3.375   0.348
61177W        W22488  12.297  19.630  11.058
61178W        W22489  44.818  43.947  11.499
61179W        W22490   5.432   1.916  13.543
61180W        W22491   3.306  41.307  14.943
61181W        W22492  18.095  26.483   1.357
61182W        W22493  15.084  29.945  11.428
61183W        W22494  34.596  41.002   4.350
61184W        W22495  21.604  24.509  11.058
61185W        W22496  33.983  40.517  14.815
61186W        W22497  15.597   2.390  13.929
61187W        W22498  36.909  21.689  14.803
61188W        W22499   4.776  37.887  12.482
61189W        W22500  26.971  27.572  11.534
61190W        W22501  18.636   5.226  12.028
61191W        W22502  18.640  11.304   3.661
61192W        W22503  33.955  20.207  14.422
61193W        W22504  17.636   8.260  12.860
61194W        W22505  23.532   9.321   0.940
61195W        W22506  36.439  29.466   3.644
61196W        W22507  39.502   0.373  14.763
61197W        W22508  32.426  40.026   2.726
61198W        W22509   8.291  26.503   2.395
61199W        W22510  43.021   8.317   1.246
61200W        W22511  35.417  14.695   3.720
61201W        W22512  29.531  24.653  10.415
61202W        W22513  33.881  42.346  14.380
61203W        W22514  25.162  15.760  10.580
61204W        W22515  33.404   0.382  12.025
61205W        W22516  40.039  17.664  14.281
61206W        W22517  36.485  36.451   4.263
61207W        W22518  13.778  14.319   2.834
61208W        W22519  44.964   6.710   4.627
61209W        W22520   3.757  37.469   1.439
61210W        W22521  22.166  31.964   1.723
61211W        W22522  32.981  26.063   3.318
61212W        W22523   3.865  27.450  14.864
61213W        W22524  44.865   4.841   0.473
61214W        W22525  17.620  16.775  11.008
61215W        W22526   2.472  26.541   0.727
61216W        W22527  21.727  18.720  12.891
61217W        W22528  19.216  34.445   0.298
61218W        W22529   6.807  31.934  13.527
61219W        W22530  36.855  13.600  10.531
61220W        W22531  43.863  38.545   1.694
61221W        W22532  14.596   6.817  11.074
61222W        W22533  10.659  41.010   0.734
61223W        W22534  31.438  31.897  13.817
61224W        W22535  13.258   7.190  11.867
61225W        W22536  22.684  42.976   5.180
61226W        W22537  11.661  29.436   4.120
61227W        W22538  19.721   4.216   4.602
61228W        W22539  20.229  16.154   0.365
61229W        W22540   7.777  31.628  10.473
61230W        W22541   8.372  37.950   2.882
61231W        W22542  12.734   6.802   1.371
61232W        W22543  38.967  34.016  12.961
61233W        W22544   9.856  34.574  14.013
61234W        W22545  19.728  27.952   0.396
61235W        W22546  28.059  19.541   5.307
61236W        W22547  36.963  26.671  13.517
61237W        W22548  27.951  40.903   2.206
61238W        W22549  39.973   1.352  10.917
61239W        W22550  18.153  16.719  11.066
61240W        W22551  39.951  25.574  14.026
61241W        W22552  42.987   4.222   1.924
61242W        W22553   0.876  44.996  13.848
61243W        W22554  27.547  13.609   2.832
61244W        W22555  18.661  26.982  11.028
61245W        W22556  34.427  33.984   1.867
61246W        W22557  12.756  39.425  13.334
61247W        W22558  36.589  22.047   0.318
61248W        W22559   5.231   9.856   2.257
61249W        W22560   6.394  22.246  10.486
61250W        W22561   5.910  44.328  12.534
61251W        W22562   1.354  21.236  12.021
61252W        W22563  15.207   4.849   4.156
61253W        W22564   4.314   5.339  13.845
61254W        W22565  24.588  31.570  13.836
61255W        W22566  38.571  44.463  13.456
61256W        W22567  35.399  11.751   1.904
61257W        W22568   2.335  35.886  11.105
61258W        W22569  17.668  40.423   2.216
61259W        W22570   6.386  30.957   0.742
61260W        W22571   8.254  40.981   2.857
61261W        W22572  14.294  23.641   0.759
61262W        W22573  37.085   7.715  10.643
61263W        W22574  17.211   7.293  13.479
61264W        W22575   5.832  21.241   0.755
61265W        W22576  32.037  35.957  11.528
61266W        W22577  22.215  14.277  13.843
61267W        W22578  32.403   5.343  10.137
61268W        W22579  38.568  36.877   5.710
61269W        W22580  23.984  10.230   5.309
61270W        W22581   0.899  20.564  10.423
61271W        W22582  20.191   8.706   4.133
61272W        W22583   7.259   4.290   2.264
61273W        W22584   3.879  19.630   0.918
61274W        W22585  21.215   1.323  14.966
61275W        W22586  28.147  24.489   3.662
61276W        W22587  18.127  43.794   4.603
61277W        W22588  12.297   8.811  12.848
61278W        W22589  26.005  44.416  12.387
61279W        W22590   4.278   2.805  14.317
61280W        W22591   7.735  18.665  11.087
61281W        W22592   7.739  22.524  10.476
61282W        W22593  23.147   8.247  10.570
61283W        W22594  25.708  35.985   1.243
61284W        W22595  13.276  18.649   0.396
61285W        W22596  42.381  17.132  12.935
61286W        W22597  29.547  31.558   4.234
61287W        W22598  24.595  21.112   0.335
61288W        W22599  41.469  28.962  11.955
61289W        W22600  12.138  24.173   1.908
61290W        W22601   7.885  41.431   3.325
61291W        W22602   8.785  30.049   0.950
61292W        W22603  40.361   2.432  12.058
61293W        W22604  22.676  42.914  10.063
61294W        W22605  19.638   7.713  12.033
61295W        W22606  35.532  38.325   0.811
61296W        W22607  42.314   4.834   2.251
61297W        W22608  32.552  29.667   3.263
61298W        W22609   5.423  23.531  12.950
61299W        W22610  37.901  16.106  13.417
61300W        W22611  36.570  12.809   0.859
61301W        W22612  34.488  26.666   3.725
61302W        W22613   9.793  25.648  12.444
61303W        W22614  30.634   5.371   4.682
61304W        W22615  19.097  39.059  12.480
61305W        W22616  42.461   6.878  14.870
61306W        W22617  27.646  30.124   3.228
61307W        W22618  33.460  14.758   4.150
61308W        W22619   3.360  13.169   1.311
61309W        W22620   1.761   9.177  13.534
61310W        W22621  38.357  23.073   0.890
61311W        W22622  29.114  23.147  12.981
61312W        W22623  28.071  22.240  11.427
61313W        W22624   8.799  21.592  14.989
61314W        W22625   5.821  24.215   3.193
61315W        W22626   8.184  37.086   4.118
61316W        W22627   9.651  21.110  14.857
61317W        W22628  17.272  29.424   4.170
61318W        W22629  12.128   0.488   4.777
61319W        W22630  39.506  38.955  12.015
61320W        W22631  10.162  15.816   2.773
61321W        W22632  10.748  17.749   0.753
61322W        W22633  29.442  40.051  12.479
61323W        W22634   2.889   1.871   0.961
61324W        W22635   2.868  29.933   3.380
61325W        W22636   5.903   8.695   2.783
61326W        W22637  30.607  33.878   4.753
61327W        W22638  17.179  14.806  13.522
61328W        W22639  27.049  23.511   0.780
61329W        W22640  29.956   3.266  10.636
61330W        W22641   1.777  34.429   3.281
61331W        W22642   3.234   1.822   3.634
61332W        W22643  31.917  18.734  10.920
61333W        W22644  39.009  41.452   2.808
61334W        W22645   1.457  33.577  13.920
61335W        W22646  34.459   2.287  12.873
61336W        W22647  15.751  34.472  14.857
61337W        W22648  30.929  43.813  10.939
61338W        W22649  36.099   8.308   0.857
61339W        W22650  28.637  18.270   1.764
61340W        W22651  32.950   3.910  11.534
61341W        W22652   3.244  19.738  13.388
61342W        W22653   0.921  16.596   1.332
61343W        W22654  37.058  24.089   0.276
61344W        W22655   6.872  20.727  13.439
61345W        W22656   3.841   4.772   1.419
61346W        W22657  12.811  41.937  11.114
61347W        W22658  34.513   9.754   0.341
61348W        W22659  42.924  12.241  13.321
61349W        W22660   7.176  32.400   2.824
61350W        W22661  39.900  26.203   4.683
61351W        W22662   8.178   6.888   1.739
61352W        W22663   6.329  37.509   0.963
61353W        W22664  14.133   2.771  12.031
61354W        W22665  39.028  19.077  13.529
61355W        W22666  25.082  16.126   3.285
61356W        W22667   5.236  24.497  12.478
61357W        W22668  18.723  42.992   9.998
61358W        W22669   9.719  35.516  10.475
61359W        W22670  33.434  35.948   5.087
61360W        W22671  33.574  38.495  10.942
61361W        W22672  35.410  26.637   4.182
61362W        W22673  41.373  21.245  13.484
61363W        W22674  34.405  38.372   5.156
61364W        W22675  37.974  25.014   1.307
61365W        W22676  40.938   4.806  14.340
61366W        W22677  44.288  41.461  14.293
61367W        W22678  11.794  15.192  12.549
61368W        W22679  22.029  30.555   0.739
61369W        W22680   2.935  24.654   3.859
61370W        W22681  32.100  11.629  10.479
61371W        W22682  17.574  18.259  10.404
61372W        W22683  17.270   4.738   2.738
61373W        W22684  25.208  43.841  14.457
61374W        W22685  38.542   3.337   2.348
61375W        W22686  19.283  18.183  14.304
61376W        W22687  12.792  42.472   1.712
61377W        W22688  15.738   0.964  11.024
61378W        W22689  34.566   5.361  10.441
61379W        W22690  23.647  19.570  12.470
61380W        W22691  15.229  43.443  11.857
61381W        W22692  42.882  21.538  12.490
61382W        W22693   6.206  33.436   3.385
61383W        W22694  32.608   7.841   3.718
61384W        W22695   9.211   4.259  13.505
61385W        W22696  19.055  35.937  13.898
61386W        W22697   9.293  13.619  11.532
61387W        W22698  22.735  14.308  10.461
61388W        W22699  25.175   7.800  13.849
61389W        W22700  17.676  23.993   3.856
61390W        W22701  17.677  14.232   0.341
61391W        W22702  26.140   9.314   2.374
61392W        W22703  41.298  43.467   2.798
61393W        W22704  30.531  34.060  10.559
61394W        W22705  17.092  44.778   1.702
61395W        W22706  33.603   3.916  12.852
61396W        W22707  24.719  21.222  14.946
61397W        W22708  42.473  16.668   0.819
61398W        W22709  10.689  42.799   0.427
61399W        W22710  15.603  37.366  14.332
61400W        W22711  41.387  19.732  13.931
61401W        W22712  36.566  16.094   3.692
61402W        W22713   0.914  18.736   3.272
61403W        W22714   4.385  18.706  14.405
61404W        W22715   2.439  32.595   4.205
61405W        W22716  38.928  43.813  10.619
61406W        W22717  35.362  29.971  13.875
61407W        W22718   1.843  27.510  12.415
61408W        W22719  30.072  11.151   3.292
61409W        W22720   0.873  41.869   2.777
61410W        W22721  39.887  20.749  13.002
61411W        W22722  30.417   5.415  14.963
61412W        W22723  39.900  32.096  12.340
61413W        W22724  33.555   1.899   5.142
61414W        W22725  43.872  19.063  11.926
61415W        W22726  19.104  23.035   0.758
61416W        W22727  24.154  12.213   2.796
61417W        W22728   8.836   5.209  11.892
61418W        W22729   1.271  41.524   4.645
61419W        W22730  13.755   4.945   0.264
61420W        W22731   2.401  18.778  14.994
61421W        W22732   4.918  40.468  13.415
61422W        W22733  19.671  10.364   1.349
61423W        W22734  41.292  18.721  10.965
61424W        W22735  38.060  34.527   4.718
61425W        W22736   8.336   0.896   0.336
61426W        W22737  27.962  28.491   5.159
61427W        W22738   8.254  20.139   1.919
61428W        W22739  32.400  24.063   2.240
61429W        W22740  28.550  14.786  10.514
61430W        W22741  33.060  24.033  13.477
61431W        W22742  35.864  32.983  12.926
61432W        W22743  41.863   2.229   1.789
61433W        W22744  31.491  13.625  12.554
61434W        W22745  33.608   3.383  10.487
61435W        W22746  29.073  40.831   3.700
61436W        W22747  27.492  34.565  13.828
61437W        W22748  39.943   7.340   4.725
61438W        W22749  44.369  16.173   3.300
61439W        W22750  27.040  22.195  13.978
61440W        W22751   5.733   3.821  13.485
61441W        W22752  38.949  13.187   2.188
61442W        W22753  15.768  16.166  12.554
61443W        W22754  23.196   7.870   2.772
61444W        W22755  27.595  29.446   0.410
61445W        W22756  10.864  20.656   3.836
61446W        W22757  34.054   3.220   4.278
61447W        W22758   3.260  10.761   4.642
61448W        W22759  37.060  32.119   4.720
61449W        W22760  18.719  43.783  13.451
61450W        W22761  37.849  19.039  11.030
61451W        W22762  11.344  35.002  14.503
61452W        W22763  21.754  28.595  12.351
61453W        W22764  21.608  29.161   1.753
61454W        W22765  14.127   8.814  13.050
61455W        W22766  39.831   3.791  12.905
61456W        W22767  20.561  22.095  10.637
61457W        W22768  36.576  31.981   1.335
61458W        W22769  13.715  34.487   0.295
61459W        W22770   4.241  10.284  13.354
61460W        W22771  30.495  26.545  12.380
61461W        W22772   7.410  29.482  11.975
61462W        W22773  15.100  22.659   4.354
61463W        W22774  40.026  41.467  14.921
61464W        W22775   5.892  29.474   4.815
61465W        W22776  19.534  21.753   0.360
61466W        W22777  36.065  28.038   3.843
61467W        W22778  21.046  15.785   0.754
61468W        W22779  25.109  44.288   4.170
61469W        W22780  26.699  12.319   0.278
61470W        W22781  12.201  27.040   1.752
61471W        W22782  33.960  43.434   2.805
61472W        W22783   1.905  21.621  14.933
61473W        W22784  19.103  23.077   1.243
61474W        W22785  17.629  30.641   0.820
61475W        W22786  21.251  37.957   0.916
61476W        W22787  24.518  22.160  11.954
61477W        W22788  15.655  31.081   5.102
61478W        W22789  26.589  28.066   2.678
61479W        W22790  21.526  34.385   4.257
61480W        W22791  18.695  10.791   3.229
61481W        W22792  12.162   2.436  14.837
61482W        W22793   5.236   9.730   1.234
61483W        W22794   9.776  18.719  11.440
61484W        W22795  30.576  36.984   3.343
61485W        W22796  19.553  14.794   3.342
61486W        W22797  40.970  23.204   2.195
61487W        W22798  13.195  24.496  14.002
61488W        W22799  26.462  35.863   3.243
61489W        W22800  14.619   7.673  14.364
61490W        W22801  31.964  42.960   4.615
61491W        W22802  44.768  15.241   2.326
61492W        W22803  32.535  19.717  13.315
61493W        W22804  12.804  38.005  12.355
61494W        W22805  23.105  16.208  12.917
61495W        W22806   3.798  14.297   5.086
61496W        W22807  21.113   8.690  12.556
61497W        W22808  26.115  37.996  14.376
61498W        W22809   8.344  15.742  14.420
61499W        W22810   9.312  15.725   2.416
61500W        W22811  32.568  20.173  11.395
61501W        W22812   3.453  27.028   2.356
61502W        W22813  37.435  28.617   3.848
61503W        W22814  18.762  41.449   4.805
61504W        W22815  18.724   7.860  12.395
61505W        W22816  41.508  30.612  11.011
61506W        W22817  41.501  20.627  14.993
61507W        W22818   9.261  34.425  14.504
61508W        W22819  22.699  15.747  11.114
61509W        W22820   4.898  11.862   1.914
61510W        W22821  10.838   3.360  11.058
61511W        W22822  35.601  13.238   3.156
61512W        W22823   7.851  23.590  12.852
61513W        W22824  33.079   0.952  10.623
61514W        W22825  37.582   7.751  14.885
61515W        W22826  42.003  28.948   3.827
61516W        W22827  28.620  14.617  13.544
61517W        W22828  42.799  10.806  13.855
61518W        W22829   3.776  37.839  14.931
61519W        W22830   4.402  41.884   2.181
61520W        W22831  36.392  36.568   4.613
61521W        W22832   7.403  28.154   3.168
61522W        W22833  42.479   8.686  14.880
61523W        W22834  36.520   4.204  12.407
61524W        W22835  34.443  22.720   2.198
61525W        W22836   4.888  41.337   0.944
61526W        W22837  44.416  13.749   3.159
61527W        W22838   9.835   0.801   1.327
61528W        W22839  23.050  10.772  14.345
61529W        W22840  32.117  15.705   3.780
61530W        W22841  21.095  20.604  14.917
61531W        W22842  38.978   9.299  14.309
61532W        W22843  10.262  30.601  11.991
61533W        W22844   0.967  31.483   1.714
61534W        W22845  27.155   3.234  12.895
61535W        W22846  30.964  35.968   2.876
61536W        W22847  35.474  12.252   0.959
61537W        W22848  43.511   2.753   2.300
61538W        W22849  43.836  31.579   2.200
61539W        W22850  16.118  10.722  12.433
61540W        W22851  42.516  39.524   1.745
61541W        W22852   1.896  41.973   3.235
61542W        W22853  27.190  25.592  13.837
61543W        W22854  34.077  34.012   4.720
61544W        W22855  25.653  24.580  11.506
61545W        W22856  38.453  13.318  12.877
61546W        W22857   0.823  21.607   0.726
61547W        W22858  42.982  37.048  14.927
61548W        W22859   4.251  40.386   2.693
61549W        W22860  39.902  18.598  11.893
61550W        W22861  34.476   8.728  14.501
61551W        W22862  34.556  14.310   4.123
61552W        W22863  15.632  21.124   3.382
61553W        W22864  41.006   3.916   3.357
61554W        W22865   8.341  17.601  13.872
61555W        W22866  35.996  12.630  14.777
61556W        W22867  32.110  43.921   3.790
61557W        W22868   1.370  44.386   0.269
61558W        W22869  29.616  22.227  13.957
61559W        W22870  42.469   6.413  13.320
61560W        W22871   9.153  20.652  12.991
61561W        W22872  39.845   2.739  11.896
61562W        W22873  24.133  27.665  14.021
61563W        W22874   1.836   6.832   2.311
61564W        W22875   4.903   1.465   0.342
61565W        W22876  25.048  44.977   2.849
61566W        W22877  34.403  12.713  11.915
61567W        W22878   8.678  20.239   5.114
61568W        W22879  12.297  31.468   2.892
61569W        W22880  25.562   0.858  14.800
61570W        W22881  28.135  39.994  11.061
61571W        W22882  19.625   1.362   1.731
61572W        W22883  17.112  36.848   1.727
61573W        W22884  36.924   8.225   4.603
61574W        W22885  37.552  25.522  12.949
61575W        W22886  43.516  13.249   2.704
61576W        W22887   8.263  19.637  11.447
61577W        W22888  13.221  34.023  14.953
61578W        W22889  11.167  28.455  14.477
61579W        W22890  15.740  16.082   3.737
61580W        W22891  44.908   5.911   0.782
61581W        W22892  22.228  31.494  14.476
61582W        W22893  43.966  21.616   4.663
61583W        W22894   1.422  39.044  10.889
61584W        W22895   6.778  15.174  12.560
61585W        W22896  19.259  41.421   0.871
61586W        W22897  36.910  44.779  12.375
61587W        W22898  34.119  13.834  14.797
61588W        W22899   4.840  39.389   3.165
61589W        W22900  37.377  44.334  11.892
61590W        W22901  14.663  33.114   0.955
61591W        W22902  15.272  31.470   4.223
61592W        W22903  32.928  28.947  13.810
61593W        W22904  21.152   1.425   0.930
61594W        W22905  34.443  36.346   2.416
61595W        W22906   6.371  28.990  11.549
61596W        W22907  31.561  33.604  13.912
61597W        W22908   3.330  16.608  13.509
61598W        W22909  18.597  40.974  12.884
61599W        W22910  24.224  29.111  11.065
61600W        W22911  27.160  23.713  13.833
61601W        W22912  24.707  33.041  12.422
61602W        W22913  14.616  24.224  13.432
61603W        W22914  23.150  19.276   0.865
61604W        W22915  43.366  17.172   4.341
61605W        W22916  24.122  20.639   4.699
61606W        W22917  40.015  15.823  11.496
61607W        W22918  29.975  35.477  11.915
61608W        W22919  20.028  19.121  14.929
61609W        W22920   4.887  12.698  13.015
61610W        W22921  16.194  40.854  12.935
61611W        W22922  25.036  38.878   5.164
61612W        W22923  19.212  42.946   2.852
61613W        W22924   5.366  14.724   1.214
61614W        W22925  39.346  23.035   3.156
61615W        W22926  13.322  25.053   3.265
61616W        W22927   1.937   0.260   0.836
61617W        W22928  15.248   9.654   3.196
61618W        W22929  32.938  44.760  11.049
61619W        W22930  11.791  34.615   4.189
61620W        W22931  29.470  39.488  11.031
61621W        W22932  30.916  18.562   1.933
61622W        W22933  27.968  15.675  11.596
61623W        W22934   6.687   4.738  11.492
61624W        W22935  23.586  32.612   9.477
61625W        W22936  19.052  21.228   5.249
61626W        W22937  36.565  13.185  12.546
61627W        W22938  20.727  25.555  14.995
61628W        W22939  32.477  20.683  13.480
61629W        W22940  43.906  36.377  12.073
61630W        W22941  16.270  28.661  11.059
61631W        W22942  37.404   9.674  12.354
61632W        W22943   8.728  18.092   1.885
61633W        W22944  43.330  24.619   1.409
61634W        W22945  25.000  33.114  10.517
61635W        W22946  30.106  40.918  14.004
61636W        W22947  28.127  24.526  11.429
61637W        W22948  21.681  21.648  12.541
61638W        W22949  41.471  31.548   3.741
61639W        W22950   5.405  14.188  11.022
61640W        W22951  29.512  26.099   4.748
61641W        W22952  11.784  24.228  14.295
61642W        W22953   1.940  32.510  10.635
61643W        W22954  33.622  37.875   0.815
61644W        W22955  21.144   7.263   0.294
61645W        W22956  26.472   3.870   2.251
61646W        W22957  29.152  11.267   1.779
61647W        W22958  34.415  13.175   2.411
61648W        W22959  10.745  28.577   2.364
61649W        W22960  17.175   5.912  14.319
61650W        W22961  33.122  35.477  12.949
61651W        W22962  25.687  21.651  14.843
61652W        W22963  44.291  38.442   9.961
61653W        W22964  42.328  24.051  13.427
61654W        W22965  38.338  40.926  11.032
61655W        W22966  33.008   8.818  11.865
61656W        W22967  40.513  37.086  10.940
61657W        W22968  27.006  40.031   1.307
61658W        W22969  16.222   0.343   1.278
61659W        W22970   8.364  37.870  11.372
61660W        W22971  43.770  19.049   3.701
61661W        W22972  10.250   1.388  13.397
61662W        W22973   7.896  30.949   1.922
61663W        W22974   8.831  11.825  13.062
61664W        W22975  35.594  30.594   0.286
61665W        W22976  23.048   5.818   0.726
61666W        W22977  38.337  28.091   4.766
61667W        W22978  25.632   7.730  14.984
61668W        W22979  28.571   7.275  13.026
61669W        W22980  11.302  43.384  11.078
61670W        W22981  44.781  25.987   3.283
61671W        W22982  42.972  32.586   1.852
61672W        W22983  22.712  36.401  10.579
61673W        W22984  34.371  40.983   0.730
61674W        W22985  38.958  28.648  11.009
61675W        W22986  14.305  29.986   0.414
61676W        W22987  38.858  21.636   4.679
61677W        W22988  27.012  43.405  12.573
61678W        W22989   6.678   7.249   1.807
61679W        W22990  29.052  35.050  12.457
61680W        W22991  37.531  38.062   4.771
61681W        W22992  36.444  10.180   1.405
61682W        W22993  43.985  43.010  12.544
61683W        W22994   5.319  34.077  10.471
61684W        W22995  18.089   6.848  10.917
61685W        W22996  28.661   9.286  10.505
61686W        W22997  23.080   4.941  13.871
61687W        W22998   8.871  41.365  10.490
61688W        W22999   0.484   9.190   2.841
61689W        W23000   1.289  18.198  12.993
61690W        W23001   9.818  14.752  11.987
61691W        W23002  37.561  18.178  13.996
61692W        W23003  41.802  20.755  13.982
61693W        W23004  22.064  18.745  14.971
61694W        W23005   6.289  28.539   3.870
61695W        W23006  34.466  30.422   9.617
61696W        W23007  36.575  42.786  13.540
61697W        W23008  18.618   5.390   0.261
61698W        W23009  11.840   9.858   2.825
61699W        W23010  30.087  38.559  13.966
61700W        W23011   5.799  32.477  13.857
61701W        W23012  37.439  11.205   1.362
61702W        W23013  42.787  20.613   2.278
61703W        W23014  37.976   9.364   3.770
61704W        W23015  34.103  40.049   1.221
61705W        W23016  20.120  43.380  14.902
61706W        W23017   1.266   8.370   1.844
61707W        W23018  13.723  13.148  14.779
61708W        W23019  42.894  36.579   4.826
61709W        W23020  43.279  28.098   0.914
61710W        W23021  17.719  25.161  13.321
61711W        W23022  22.709  34.097   2.674
61712W        W23023  15.747  11.702  13.530
61713W        W23024  14.205  22.110   5.114
61714W        W23025  11.368  34.376  14.785
61715W        W23026  33.892  22.520  11.458
61716W        W23027   1.327  27.634   1.728
61717W        W23028  36.044  29.626   3.779
61718W        W23029  17.076  10.702  13.377
61719W        W23030  32.925  25.048  12.438
61720W        W23031   7.220  26.610  14.835
61721W        W23032  43.484  22.599  13.922
61722W        W23033  14.220  33.954   1.370
61723W        W23034  24.222  18.133  13.975
61724W        W23035  28.050  34.561   2.784
61725W        W23036  36.356  15.778   4.237
61726W        W23037  38.475  27.500   2.750
61727W        W23038  16.685  16.637  11.060
61728W        W23039   3.319  37.356   1.742
61729W        W23040  21.731  44.314  11.875
61730W        W23041  27.627   8.313   2.341
61731W        W23042  17.792  26.643  10.526
61732W        W23043  44.953  28.105  11.860
61733W        W23044  18.745  14.112  14.471
61734W        W23045  10.248  29.556   4.145
61735W        W23046  38.553  30.643  14.360
61736W        W23047  40.420  28.493  10.983
61737W        W23048   4.805   2.248   4.751
61738W        W23049  17.221  11.199  10.508
61739W        W23050   2.353  30.930  11.381
61740W        W23051  32.449  25.615   1.823
61741W        W23052  21.696  14.740   4.633
61742W        W23053  38.033  36.499  13.455
61743W        W23054  39.825  13.615  10.559
61744W        W23055   0.766  22.677   4.244
61745W        W23056  14.115  14.194  12.077
61746W        W23057  34.384   0.806   3.652
61747W        W23058  41.431  11.683  14.802
61748W        W23059  14.186  36.427  10.997
61749W        W23060   7.823  24.725  14.505
61750W        W23061  35.597  13.659   3.217
61751W        W23062  21.722  11.836   4.280
61752W        W23063   9.798  16.747   4.335
61753W        W23064  37.063  30.073  13.438
61754W        W23065   9.230  39.959   3.197
61755W        W23066   3.808  29.982  12.908
61756W        W23067  26.578  23.499   3.207
61757W        W23068   4.219  18.566  11.477
61758W        W23069  26.951  38.071  10.942
61759W        W23070  21.160  34.433  10.457
61760W        W23071   4.857  28.641   1.216
61761W        W23072   3.790  16.729   2.795
61762W        W23073  11.847   2.338  14.006
61763W        W23074  26.951  21.569   1.276
61764W        W23075  43.952   3.341  11.872
61765W        W23076  11.154  22.144  10.556
61766W        W23077  20.152   0.939  10.071
61767W        W23078  16.143  10.212   0.926
61768W        W23079   0.485  31.525  13.411
61769W        W23080  31.581   7.897  12.343
61770W        W23081  13.197  36.429   0.843
61771W        W23082  40.310   3.956  12.839
61772W        W23083  25.208  34.116  11.024
61773W        W23084  23.598  41.299  10.635
61774W        W23085   3.357  28.497  12.499
61775W        W23086   8.755   4.774   0.797
61776W        W23087  37.938  28.616   3.199
61777W        W23088  10.280  33.936  12.359
61778W        W23089  29.961  40.460   3.855
61779W        W23090  23.619  12.718  12.371
61780W        W23091   5.378  33.574   0.333
61781W        W23092  23.706  42.868  13.827
61782W        W23093  36.037  22.554   3.327
61783W        W23094  29.019  40.369   0.766
61784W        W23095  27.977  22.502   3.180
61785W        W23096  37.562  26.679   2.873
61786W        W23097  31.525  31.503  13.949
61787W        W23098   8.719  38.845   3.177
61788W        W23099   2.290  31.585   4.168
61789W        W23100  44.490  34.480  11.856
61790W        W23101   3.829  13.283   2.366
61791W        W23102  37.437  33.473  14.846
61792W        W23103  39.932  26.176   0.938
61793W        W23104  13.284  44.371   1.715
61794W        W23105  39.936  32.435  11.876
61795W        W23106  32.888  14.738  13.805
61796W        W23107  31.576  16.290  13.854
61797W        W23108  41.805  27.639   4.240
61798W        W23109  29.975  31.543  14.314
61799W        W23110  30.652  36.428  10.538
61800W        W23111  10.224  14.654  14.927
61801W        W23112   0.462  38.914  11.464
61802W        W23113   5.814  37.364   2.386
61803W        W23114   8.749  19.535  14.829
61804W        W23115  16.802  31.963   4.608
61805W        W23116  39.856   6.273  12.361
61806W        W23117  18.290  11.352   1.925
61807W        W23118  31.635  28.615  14.338
61808W        W23119   9.392  36.910   1.223
61809W        W23120  31.418   6.716   1.399
61810W        W23121  44.855  38.986   4.202
61811W        W23122   3.307   0.771   1.744
61812W        W23123  35.359   8.311  11.021
61813W        W23124  25.478  28.563  13.876
61814W        W23125  24.135   3.731  14.509
61815W        W23126  28.052  44.485  12.527
61816W        W23127   1.782  34.438   1.449
61817W        W23128  36.557  42.901   0.394
61818W        W23129  21.177  24.706   1.344
61819W        W23130  12.838   6.812  13.052
61820W        W23131  39.983   9.880  11.993
61821W        W23132  20.715   0.985   0.879
61822W        W23133  20.767  16.228   3.780
61823W        W23134  20.729  12.271  11.893
61824W        W23135   8.817  29.545   3.858
61825W        W23136  17.194  32.462  13.032
61826W        W23137  14.331  10.357  12.874
61827W        W23138  44.342  40.522  14.409
61828W        W23139  10.796  21.636  12.400
61829W        W23140  39.809  10.811  14.885
61830W        W23141  44.351   1.391  10.409
61831W        W23142  43.867   8.840  11.607
61832W        W23143  13.813  15.213   3.249
61833W        W23144  36.403  44.981   1.303
61834W        W23145  19.638  40.989   3.204
61835W        W23146  18.779  42.327   4.758
61836W        W23147  41.459  12.725   1.360
61837W        W23148  34.413  22.999  14.410
61838W        W23149   1.771   5.292  13.912
61839W        W23150  27.118  44.898   3.660
61840W        W23151  17.085  28.986  14.291
61841W        W23152   0.283  38.909  13.494
61842W        W23153  20.032  25.474   3.671
61843W        W23154  14.696   2.721   1.809
61844W        W23155  13.617  30.031   2.707
61845W        W23156   6.322  32.417  13.457
61846W        W23157  39.992   8.794   3.767
61847W        W23158  22.535  43.396  12.391
61848W        W23159  21.675  26.052  12.973
61849W        W23160  39.519   2.338   4.711
61850W        W23161  35.893  44.948  10.474
61851W        W23162  33.395  38.062   5.222
61852W        W23163   8.794  11.205  13.978
61853W        W23164  17.593  22.173   0.257
61854W        W23165  14.669  38.502   4.784
61855W        W23166  19.174   3.433   5.234
61856W        W23167   0.468   0.297   4.802
61857W        W23168   5.803  12.803   2.369
61858W        W23169  21.206   4.233  13.811
61859W        W23170   1.835  19.742  12.914
61860W        W23171  44.960  15.822   3.341
61861W        W23172  34.062   9.881  14.850
61862W        W23173   1.408  40.979   2.740
61863W        W23174  42.288   0.895  12.394
61864W        W23175  33.896  33.577  12.974
61865W        W23176   0.323   9.388  12.558
61866W        W23177   7.309  22.033  14.930
61867W        W23178  33.426   6.204   3.264
61868W        W23179   0.449  44.278   4.334
61869W        W23180   4.929  29.079  14.496
61870W        W23181  39.961   1.279  13.350
61871W        W23182  11.707   5.271  13.058
61872W        W23183  30.419  13.692   0.382
61873W        W23184  18.680  34.922  14.812
61874W        W23185  22.199  35.854  11.068
61875W        W23186  32.094  34.008  14.408
61876W        W23187  12.637  26.522  12.571
61877W        W23188  36.385  13.672  14.471
61878W        W23189   3.316  20.065   3.804
61879W        W23190  12.740   1.394  12.565
61880W        W23191  17.226  13.663  12.037
61881W        W23192  22.640  22.566   4.121
61882W        W23193  17.697  17.558  14.482
61883W        W23194  14.330  37.039   1.227
61884W        W23195  10.260  28.139   4.780
61885W        W23196   2.866  14.298  12.958
61886W        W23197   9.716  28.105   1.259
61887W        W23198  27.481  31.556   2.354
61888W        W23199   7.855  19.731   5.236
61889W        W23200   1.281   4.756  12.537
61890W        W23201  43.422  16.184  10.940
61891W        W23202  22.060  39.962   2.719
61892W        W23203   6.309  36.879  11.927
61893W        W23204  39.429   3.914  10.968
61894W        W23205  15.747  23.644  12.015
61895W        W23206  20.237  42.900  10.918
61896W        W23207  32.413  33.973  13.354
61897W        W23208  36.975  40.450   0.398
61898W        W23209  33.028   1.326  11.433
61899W        W23210   1.336  24.985   0.367
61900W        W23211  28.101  21.022   2.762
61901W        W23212  25.620  29.010   0.872
61902W        W23213  42.498  13.643   1.261
61903W        W23214  37.551  14.659   1.312
61904W        W23215   9.173  13.272   4.746
61905W        W23216  14.161   6.241  14.029
61906W        W23217  35.005   0.878  12.919
61907W        W23218  27.174  27.508   3.167
61908W        W23219  26.074  18.709   5.194
61909W        W23220  14.705  16.781   9.544
61910W        W23221  23.200  26.517  12.407
61911W        W23222  19.040  17.273  14.447
61912W        W23223   5.272  33.004   1.404
61913W        W23224  21.087  15.596   2.347
61914W        W23225  42.303   6.249  10.408
61915W        W23226  33.507  33.069   0.829
61916W        W23227  23.168  18.735   1.786
61917W        W23228   8.357  23.060   0.928
61918W        W23229  23.003  28.587   4.738
61919W        W23230   6.218  15.760   0.764
61920W        W23231  14.696  41.820  14.975
61921W        W23232  15.817   1.763  13.480
61922W        W23233  43.907  34.983   4.817
61923W        W23234  14.335  38.518   1.213
61924W        W23235  10.873  31.453   0.788
61925W        W23236  11.186  35.472  11.961
61926W        W23237  21.518   3.330   1.301
61927W        W23238  11.304  42.390  14.865
61928W        W23239  43.971  17.690   4.763
61929W        W23240  13.252  41.469  11.921
61930W        W23241  26.562  36.929   1.384
61931W        W23242   3.427  23.525   1.241
61932W        W23243  21.096  10.819  13.448
61933W        W23244   6.726  31.450   0.752
61934W        W23245  27.084  15.611   4.760
61935W        W23246  29.975  15.216   1.312
61936W        W23247  38.503   5.875   1.254
61937W        W23248  28.603  24.637   4.197
61938W        W23249  10.188  21.150   4.192
61939W        W23250   5.359   5.755  14.364
61940W        W23251  25.167   7.281   0.932
61941W        W23252  34.583  26.082   0.729
61942W        W23253  32.440  19.116  14.334
61943W        W23254  35.969   3.408   2.374
61944W        W23255  43.422  44.300   3.382
61945W        W23256  37.061  42.018   5.212
61946W        W23257  21.047  32.008  10.601
61947W        W23258  10.786  27.692   4.135
61948W        W23259   8.274  28.639  11.025
61949W        W23260  16.280  12.698   2.234
61950W        W23261  27.558  32.452  11.518
61951W        W23262  40.361   2.282   0.329
61952W        W23263  44.341  26.176   1.849
61953W        W23264  41.453   2.962   4.147
61954W        W23265  29.038  18.736   4.128
61955W        W23266  28.481  15.622   3.344
61956W        W23267  15.646   9.300   1.737
61957W        W23268  33.886  25.621  14.341
61958W        W23269  37.036  24.078  13.855
61959W        W23270   9.741  34.955   0.405
61960W        W23271  16.783  38.325  12.491
61961W        W23272   2.333  41.946  14.015
61962W        W23273   3.777   8.806   4.286
61963W        W23274   7.910  14.138  13.483
61964W        W23275  14.256  26.649  14.283
61965W        W23276  44.456  35.907  14.968
61966W        W23277  33.094   9.846   2.677
61967W        W23278  42.783  11.814   0.807
61968W        W23279  28.482  30.046  10.498
61969W        W23280  24.566   4.763   0.246
61970W        W23281   1.467  10.341  12.494
61971W        W23282   5.242   3.379  13.039
61972W        W23283  44.902  27.515   4.279
61973W        W23284  25.178  44.320   4.798
61974W        W23285  11.740  38.444   1.308
61975W        W23286  37.411  10.735   4.714
61976W        W23287  14.605  28.997   1.343
61977W        W23288  44.385  18.164   2.401
61978W        W23289  34.060  27.496   1.360
61979W        W23290  26.511   8.679   1.853
61980W        W23291  44.904  29.957   2.237
61981W        W23292   3.380  23.140  13.960
61982W        W23293  40.033  38.347   9.974
61983W        W23294  44.780   8.768  13.451
61984W        W23295   2.730  15.679  13.049
61985W        W23296  43.804  41.862   1.375
61986W        W23297  31.928  23.085   3.226
61987W        W23298  41.428  17.718  14.315
61988W        W23299  30.951  39.873   2.322
61989W        W23300  38.975   1.375   1.432
61990W        W23301  14.177  25.680   3.365
61991W        W23302  22.120  26.610   1.320
61992W        W23303  18.140  11.184   2.394
61993W        W23304   1.304  34.003  13.497
61994W        W23305  32.534  11.704  14.983
61995W        W23306  17.276  23.228  10.888
61996W        W23307  38.067  19.225   2.789
61997W        W23308  26.620  16.246  12.050
61998W        W23309  27.986  41.423  10.405
61999W        W23310   6.679  33.057   3.818
62000W        W23311  41.476  21.698   0.354
62001W        W23312  30.616  19.163   3.179
62002W        W23313  15.767  39.489  14.459
62003W        W23314  39.026  20.143  12.958
62004W        W23315  35.016  43.314  10.987
62005W        W23316  43.983  34.574   2.850
62006W        W23317   2.366  19.060   2.354
62007W        W23318   7.323  11.240  12.551
62008W        W23319  11.317   1.312  12.903
62009W        W23320   3.340  10.737  14.789
62010W        W23321  29.428  42.918   5.098
62011W        W23322   6.911   5.434   1.761
62012W        W23323  21.756  36.472  11.065
62013W        W23324  33.970   6.758   3.674
62014W        W23325   7.222   9.850   1.343
62015W        W23326   6.720  26.579   3.839
62016W        W23327  21.196   8.197   4.130
62017W        W23328   8.321  31.492  14.808
62018W        W23329  35.547  38.535  14.415
62019W        W23330  13.250  25.593   2.729
62020W        W23331  11.742  16.645   3.245
62021W        W23332  17.278  34.056   3.351
62022W        W23333  31.628  30.429  12.886
62023W        W23334   5.856   8.828  14.932
62024W        W23335  25.484  26.001  12.059
62025W        W23336   1.761  37.983   4.689
62026W        W23337  30.102   4.931   1.234
62027W        W23338  21.616  12.262  10.429
62028W        W23339  30.631  28.630  11.494
62029W        W23340  39.983   8.307  14.405
62030W        W23341  25.000  16.811  14.401
62031W        W23342  44.364   0.953  12.385
62032W        W23343  42.988  43.427  12.480
62033W        W23344  27.489  16.729   4.654
62034W        W23345  41.801  30.425  11.030
62035W        W23346  21.052  35.522   0.899
62036W        W23347  22.139   1.410  14.831
62037W        W23348  20.199  20.572  10.952
62038W        W23349  35.927  28.678   4.206
62039W        W23350  21.655  37.453   3.169
62040W        W23351  21.103  22.224  10.978
62041W        W23352  17.599  14.780   2.396
62042W        W23353   6.292  33.017  10.971
62043W        W23354  12.279  43.434  12.935
62044W        W23355  15.613   1.975   0.338
62045W        W23356  32.548   9.311   3.832
62046W        W23357  40.962   3.292  12.563
62047W        W23358   6.714   3.947  11.558
62048W        W23359  17.279  22.703  13.878
62049W        W23360  37.857  27.141  13.514
62050W        W23361  25.558  38.496   2.768
62051W        W23362  29.982   1.856  14.385
62052W        W23363  35.494  28.948  13.478
62053W        W23364   4.217  41.465  13.793
62054W        W23365  18.731  43.276   4.320
62055W        W23366  42.943   8.254  11.456
62056W        W23367  37.069  25.143   2.252
62057W        W23368  17.591  37.073  11.945
62058W        W23369  29.134  37.530  12.475
62059W        W23370   6.282  36.034  12.016
62060W        W23371   3.922  43.957   0.449
62061W        W23372   2.298  21.037   0.416
62062W        W23373  17.725  18.710  11.015
62063W        W23374  34.942   0.965  14.776
62064W        W23375  39.446  37.955   1.774
62065W        W23376  29.157  14.334  11.961
62066W        W23377  15.130   1.268  11.056
62067W        W23378  18.157  27.477   0.761
62068W        W23379  34.116  11.763   3.341
62069W        W23380  27.011  38.390   2.852
62070W        W23381  10.647  38.071   0.881
62071W        W23382  24.521  10.635  10.622
62072W        W23383  43.346  20.250   2.786
62073W        W23384  36.081  27.545   9.979
62074W        W23385  14.117  26.146   1.729
62075W        W23386  34.542  42.439   1.432
62076W        W23387  24.095  20.762  14.388
62077W        W23388  40.508  41.916  13.402
62078W        W23389  18.216  42.335   1.785
62079W        W23390   0.281  38.359  10.417
62080W        W23391  38.443  20.746  13.052
62081W        W23392  34.945  34.572  13.326
62082W        W23393   6.869   0.935   0.782
62083W        W23394  21.666  37.832  13.455
62084W        W23395  37.043  17.661   2.782
62085W        W23396  43.837  39.954   0.287
62086W        W23397  29.568  27.136   2.710
62087W        W23398  31.091  42.962  10.014
62088W        W23399   4.348  16.741   5.185
62089W        W23400   9.270  39.820  12.991
62090W        W23401  44.436  33.389   1.808
62091W        W23402  33.035  41.839  11.492
62092W        W23403   9.852  38.450  12.393
62093W        W23404  35.974  44.288  11.898
62094W        W23405   1.732  32.105  14.512
62095W        W23406  26.177  43.299   4.138
62096W        W23407   8.810  24.060  13.032
62097W        W23408  39.975  33.093  12.997
62098W        W23409   0.453  17.649   0.935
62099W        W23410  42.401  39.985  14.348
62100W        W23411  19.685  14.724  13.018
62101W        W23412  40.871  18.721   2.748
62102W        W23413   0.440  23.585   1.346
62103W        W23414  19.732   0.305  11.398
62104W        W23415  33.039  37.490  13.012
62105W        W23416  43.473   2.751   3.342
62106W        W23417  13.728  36.897   2.801
62107W        W23418  35.942  14.651  11.571
62108W        W23419  29.081  17.189   2.326
62109W        W23420  27.103  43.356  13.791
62110W        W23421  16.097  23.675  11.424
62111W        W23422  23.613  24.206   1.337
62112W        W23423  34.084  25.121  12.975
62113W        W23424  12.291   4.275   0.782
62114W        W23425   2.427  26.076   0.906
62115W        W23426  40.850  29.120   1.416
62116W        W23427   8.367  27.634  14.337
62117W        W23428  41.485  32.635  14.432
62118W        W23429  29.969  14.810  14.970
62119W        W23430  29.662  13.183   4.185
62120W        W23431  25.678  40.868  10.503
62121W        W23432  37.472  43.780  12.852
62122W        W23433  32.423  12.706  10.444
62123W        W23434  21.743  23.615   3.663
62124W        W23435  17.112  30.063   0.811
62125W        W23436  24.973   1.883   1.777
62126W        W23437   4.715  27.576   2.805
62127W        W23438  28.144   0.901  11.432
62128W        W23439  29.999  26.104   1.282
62129W        W23440  29.625  25.146  11.100
62130W        W23441  10.230  26.165   2.808
62131W        W23442   1.864  39.824   3.840
62132W        W23443  13.628  39.362  14.282
62133W        W23444  13.195  18.275   2.273
62134W        W23445  13.695  28.529  13.412
62135W        W23446  41.307  24.110  13.371
62136W        W23447   4.345   1.916   1.740
62137W        W23448  34.382  44.421  10.641
62138W        W23449  42.937  23.533   1.694
62139W        W23450  28.516  30.514  13.842
62140W        W23451   7.289  17.664  11.408
62141W        W23452  40.045  16.627  11.374
62142W        W23453  32.534  37.032   4.800
62143W        W23454  38.893   6.807   3.189
62144W        W23455  17.702  39.028  11.477
62145W        W23456  34.483   2.454   1.277
62146W        W23457   0.299  31.957  10.978
62147W        W23458  21.700   2.825  12.016
62148W        W23459  14.266  27.951  14.465
62149W        W23460  20.544  41.908  12.874
62150W        W23461  38.431  32.962  14.317
62151W        W23462   1.368  31.608  12.842
62152W        W23463  26.051  32.897   4.219
62153W        W23464  15.723  17.690   2.752
62154W        W23465  19.149  34.013  11.080
62155W        W23466  15.138   4.830  11.574
62156W        W23467  30.598  17.098   4.335
62157W        W23468  19.164  32.886  14.970
62158W        W23469   9.851   4.413   2.314
62159W        W23470  33.062   2.322   0.851
62160W        W23471  29.155   1.808  13.016
62161W        W23472  36.845  18.217  12.096
62162W        W23473  31.475  41.517  10.592
62163W        W23474  13.661   1.860  10.918
62164W        W23475  38.571  15.145  13.322
62165W        W23476  18.717  41.986  10.421
62166W        W23477   6.427  36.043   1.862
62167W        W23478  20.551  31.973  11.531
62168W        W23479  31.027  39.338  10.412
62169W        W23480  22.629   3.221  13.833
62170W        W23481   8.268   2.231   0.889
62171W        W23482  29.645  43.775  13.836
62172W        W23483   2.958   1.265  12.956
62173W        W23484  13.123  10.304  13.064
62174W        W23485  35.544  15.647  12.839
62175W        W23486  29.448  29.141   4.813
62176W        W23487  23.675  26.701  11.436
62177W        W23488  27.137  32.064   9.958
62178W        W23489  25.589  11.193   2.250
62179W        W23490   2.264  33.997   4.796
62180W        W23491  36.478  36.371   3.154
62181W        W23492  20.686  20.617  11.385
62182W        W23493  24.506  26.510  13.504
62183W        W23494   9.228   9.174  14.926
62184W        W23495  29.080   3.324  11.121
62185W        W23496   4.917  35.980  10.052
62186W        W23497  41.515   1.955   0.429
62187W        W23498  37.866  25.647  13.877
62188W        W23499  22.109  37.350  13.530
62189W        W23500   7.822  26.184  14.807
62190W        W23501  35.086  15.695   4.761
62191W        W23502  33.481  25.591  12.017
62192W        W23503  41.961  25.555   3.333
62193W        W23504  34.086  26.604  10.461
62194W        W23505  20.054  41.954  12.008
62195W        W23506  29.972  14.628  14.354
62196W        W23507   7.309  25.640  13.380
62197W        W23508  11.665  39.045  14.823
62198W        W23509  42.857  14.722  12.823
62199W        W23510  33.991  32.050   2.223
62200W        W23511   6.871   4.393  13.019
62201W        W23512  23.706  43.344  11.063
62202W        W23513  35.108  19.575   3.827
62203W        W23514  44.864   4.914  11.468
62204W        W23515  37.025  44.283  12.429
62205W        W23516  10.199  29.638   3.210
62206W        W23517  13.791   9.882   1.714
62207W        W23518  15.806  10.158   3.806
62208W        W23519  17.140  12.349   1.859
62209W        W23520   5.427  42.504  14.916
62210W        W23521  24.170   9.791  14.505
62211W        W23522   9.649  21.220   3.740
62212W        W23523  41.306  31.629   1.332
62213W        W23524   8.865  25.110  14.276
62214W        W23525  36.979  42.397  14.939
62215W        W23526   4.295  18.646  13.982
62216W        W23527  40.472   3.807   2.383
62217W        W23528  40.851  16.079   1.299
62218W        W23529  16.225  12.243   2.684
62219W        W23530   9.293   8.239   4.730
62220W        W23531  33.392  10.830  14.294
62221W        W23532  11.743  42.364   4.249
62222W        W23533  13.346  33.933   2.763
62223W        W23534  27.089  36.514   2.178
62224W        W23535  15.692   1.961   5.712
62225W        W23536  39.379  23.551  11.054
62226W        W23537  14.763  41.026   0.290
62227W        W23538  32.496   8.732   0.752
62228W        W23539  13.290  39.956  14.773
62229W        W23540  24.636   1.874   2.364
62230W        W23541  25.194  13.276   3.345
62231W        W23542  34.438  33.119   2.250
62232W        W23543  31.493  36.438   2.759
62233W        W23544  26.133  23.686  11.420
62234W        W23545  25.180  17.110  10.912
62235W        W23546  32.437   3.828  13.821
62236W        W23547  23.527  22.703  12.389
62237W        W23548   4.934  10.239  13.941
62238W        W23549  40.463  28.568  12.052
62239W        W23550   4.322  15.701  13.866
62240W        W23551  15.659   6.362   2.685
62241W        W23552  40.320  39.401   2.195
62242W        W23553  28.675  38.999   9.987
62243W        W23554   7.308  15.100   1.425
62244W        W23555   8.762   8.366  11.484
62245W        W23556  28.001  44.416   2.341
62246W        W23557  10.708   8.833   4.279
62247W        W23558  11.330  16.785  14.311
62248W        W23559  41.039  41.458  11.378
62249W        W23560  37.885  34.523  13.518
62250W        W23561  33.489   3.761   0.294
62251W        W23562  33.494  16.196  12.446
62252W        W23563  13.817  34.448  13.365
62253W        W23564  38.961   0.807   3.244
62254W        W23565  10.288  13.681   4.128
62255W        W23566  14.771  35.098   4.243
62256W        W23567   7.337  13.218   1.890
62257W        W23568   7.671  17.718   3.165
62258W        W23569  42.869  44.408  14.457
62259W        W23570  32.569   3.246   2.330
62260W        W23571   8.339  16.098   3.832
62261W        W23572   7.219  39.545  13.318
62262W        W23573   5.721   2.966  13.896
62263W        W23574   8.702   5.866   1.274
62264W        W23575  44.010  26.061   4.766
62265W        W23576   4.445   3.886  11.867
62266W        W23577  22.194  27.623   1.430
62267W        W23578  43.997  30.995   1.761
62268W        W23579  33.085  32.012   3.265
62269W        W23580  18.061  39.876  12.896
62270W        W23581  33.078  41.295  13.379
62271W        W23582   6.194  26.576  11.609
62272W        W23583  26.134  31.090   1.932
62273W        W23584  35.546   8.781   3.692
62274W        W23585  33.575  11.848   0.907
62275W        W23586  38.052  29.656   0.351
62276W        W23587  24.030  19.575   0.932
62277W        W23588  25.515  33.041   4.230
62278W        W23589   5.850  23.565  11.601
62279W        W23590  20.687   7.772  10.420
62280W        W23591  19.264  30.472  10.989
62281W        W23592  26.045  20.622   0.256
62282W        W23593  20.637  42.367   0.822
62283W        W23594   6.420  25.650  11.980
62284W        W23595  14.624  20.759  11.569
62285W        W23596  30.118  28.932  11.467
62286W        W23597  38.840  16.111  14.017
62287W        W23598   8.231  44.397   2.809
62288W        W23599  26.508   3.313   5.144
62289W        W23600  15.766  16.805   0.287
62290W        W23601  25.661  14.681  11.513
62291W        W23602  29.427   0.430   1.344
62292W        W23603   4.839  19.547  12.484
62293W        W23604  14.792  12.734   2.841
62294W        W23605  42.420  13.216  10.631
62295W        W23606  31.582  19.197  13.959
62296W        W23607  26.194  44.861  12.057
62297W        W23608  24.208  35.971   4.665
62298W        W23609   4.426  44.431  10.537
62299W        W23610   4.741   4.773  10.014
62300W        W23611  18.705  25.111  10.499
62301W        W23612  27.690  33.606  10.898
62302W        W23613  38.035  38.030   5.164
62303W        W23614   0.931   9.863  14.353
62304W        W23615  31.469  22.076  11.521
62305W        W23616   6.261  11.807  11.563
62306W        W23617  24.044  32.075  10.004
62307W        W23618  25.038  13.829   2.382
62308W        W23619  19.273  13.736   4.735
62309W        W23620  39.361  41.881   0.300
62310W        W23621  40.984  27.153   4.210
62311W        W23622  11.735  11.224  13.454
62312W        W23623  37.434   4.941  11.394
62313W        W23624  34.497  44.447  14.505
62314W        W23625  41.881  42.839   4.689
62315W        W23626   0.891  26.503  11.890
62316W        W23627  13.269  26.021   4.635
62317W        W23628  38.030   0.336   3.774
62318W        W23629  43.419  19.109  14.774
62319W        W23630  34.401  19.170  11.403
62320W        W23631  36.524  39.446  12.366
62321W        W23632  19.726  42.931   1.290
62322W        W23633  35.873  27.197   4.250
62323W        W23634  18.592  16.207  10.447
62324W        W23635   5.932   7.277  14.958
62325W        W23636  19.199  15.185  12.853
62326W        W23637  13.245  18.704  11.515
62327W        W23638   3.432  30.963  13.438
62328W        W23639   5.698  21.721   2.397
62329W        W23640  42.000  22.705   0.945
62330W        W23641  16.760  11.250   2.303
62331W        W23642  42.987  43.332  12.001
62332W        W23643  37.987  29.510  13.947
62333W        W23644  39.043  28.605   3.650
62334W        W23645   8.761  19.074   1.381
62335W        W23646  15.168  43.292  14.407
62336W        W23647  35.556  21.658   1.414
62337W        W23648  38.927   7.793  12.414
62338W        W23649  39.335  38.362   9.926
62339W        W23650  20.167  31.429   4.723
62340W        W23651   0.744  44.830  10.924
62341W        W23652  19.239  39.424   0.965
62342W        W23653  20.608  11.669  11.105
62343W        W23654  39.851  28.143  14.942
62344W        W23655  23.587  22.059   4.734
62345W        W23656  19.752  26.127  10.988
62346W        W23657  19.645  44.862   1.284
62347W        W23658   4.357   7.673   0.743
62348W        W23659  22.035   8.863   1.378
62349W        W23660  30.963  29.124   3.250
62350W        W23661  40.539  42.911   2.374
62351W        W23662   4.393  43.392  11.381
62352W        W23663  15.764  17.257  14.397
62353W        W23664  34.053  13.802  13.031
62354W        W23665  28.934  17.773   1.222
62355W        W23666  17.132  17.061  11.414
62356W        W23667   9.312  21.195   3.382
62357W        W23668  26.648   6.758   3.663
62358W        W23669  38.406  18.128   4.164
62359W        W23670  22.172  12.337   0.338
62360W        W23671  30.569  22.574  13.461
62361W        W23672  17.136  28.038   2.733
62362W        W23673  29.587  38.841   4.752
62363W        W23674   6.891  38.958  13.805
62364W        W23675  18.738  27.479  13.975
62365W        W23676  39.415  26.544   4.321
62366W        W23677  23.509  35.871   4.715
62367W        W23678  38.345  24.720  11.415
62368W        W23679   4.924  37.891   4.235
62369W        W23680  33.041  10.349   4.253
62370W        W23681  17.207  25.620  11.969
62371W        W23682  22.210  12.313  14.409
62372W        W23683  35.515   5.238  11.874
62373W        W23684  17.668   0.786  13.423
62374W        W23685  43.856  22.125   2.828
62375W        W23686  43.316  31.535  14.921
62376W        W23687  26.684   7.840  12.363
62377W        W23688  14.754  16.593   3.644
62378W        W23689   8.225  24.691  12.945
62379W        W23690   9.882  28.632   0.795
62380W        W23691  35.857   1.907  14.835
62381W        W23692   1.855  11.238   2.728
62382W        W23693   3.257   6.783  11.103
62383W        W23694   8.400  28.035  10.527
62384W        W23695  11.841  42.357   0.726
62385W        W23696   8.693  37.914   2.669
62386W        W23697   5.829   2.377  14.779
62387W        W23698  38.492  16.174  14.496
62388W        W23699  31.969  43.298  10.595
62389W        W23700  30.945   8.193  12.918
62390W        W23701  31.607  28.068   4.185
62391W        W23702  14.653   1.848   3.260
62392W        W23703  12.133  24.073  10.594
62393W        W23704  30.929  35.571  11.538
62394W        W23705   3.896  16.181  12.911
62395W        W23706   9.327  28.484  13.041
62396W        W23707   4.223  11.747  10.605
62397W        W23708  17.604  16.080   4.176
62398W        W23709  35.043   3.387   1.845
62399W        W23710   2.441  32.429   0.865
62400W        W23711   2.853  33.078   3.363
62401W        W23712  20.046  12.694   3.337
62402W        W23713  25.136   6.785   0.292
62403W        W23714   6.216   2.867  13.877
62404W        W23715  37.846  42.282   4.313
62405W        W23716  35.899  39.366  13.546
62406W        W23717  26.135  32.956  14.412
62407W        W23718   6.686  12.340  13.385
62408W        W23719  41.863  36.051  11.904
62409W        W23720   4.703   7.336  11.994
62410W        W23721  12.116  31.968   0.824
62411W        W23722  29.972  32.141  10.492
62412W        W23723  26.576  43.354   1.438
62413W        W23724  24.527  22.017  13.978
62414W        W23725  34.903  36.024  11.042
62415W        W23726  19.587   3.284   4.158
62416W        W23727  38.337  14.129  12.091
62417W        W23728   4.907  42.933  14.372
62418W        W23729  10.660  43.346   3.642
62419W        W23730  14.609  34.912  12.568
62420W        W23731  29.079  14.189   4.331
62421W        W23732   5.390  29.646  12.959
62422W        W23733   4.808  30.541   0.368
62423W        W23734  36.872  35.880  12.968
62424W        W23735   6.861  37.365  10.994
62425W        W23736   2.765  22.662  14.006
62426W        W23737  31.003  16.252  13.491
62427W        W23738  36.072  27.496   4.280
62428W        W23739  43.898   1.386  14.431
62429W        W23740  38.502  35.008   4.125
62430W        W23741  17.794  24.171  13.807
62431W        W23742   2.782   2.427  11.477
62432W        W23743   1.389  26.594  12.979
62433W        W23744  10.282  16.648  14.416
62434W        W23745  13.332   4.783   9.974
62435W        W23746   7.270  43.831  11.396
62436W        W23747  25.198  42.024   1.716
62437W        W23748  38.846   7.177   0.740
62438W        W23749  12.630  28.449  10.971
62439W        W23750   5.718  24.182   0.299
62440W        W23751  15.300  15.201   4.268
62441W        W23752  22.125  28.007  11.997
62442W        W23753  41.441   3.910   0.308
62443W        W23754  38.487  12.654   3.385
62444W        W23755  28.091   1.394   1.891
62445W        W23756   3.241  32.031  13.400
62446W        W23757   5.743  26.623  14.389
62447W        W23758   6.741  43.424  10.887
62448W        W23759  44.978  34.406  12.975
62449W        W23760   4.350  39.822  12.463
62450W        W23761  42.503   3.365  13.539
62451W        W23762  19.710   1.476  11.413
62452W        W23763  35.467  14.818  10.582
62453W        W23764  23.536   6.821  10.551
62454W        W23765  21.202  27.485  12.562
62455W        W23766  44.403   6.776  10.637
62456W        W23767  34.116  14.733   0.372
62457W        W23768  27.526  17.738  13.390
62458W        W23769   5.925  27.643   1.230
62459W        W23770  21.648  34.394   1.827
62460W        W23771  20.635  36.045   4.134
62461W        W23772  41.379  37.027  12.876
62462W        W23773  36.547  42.988  10.637
62463W        W23774  13.323  16.227  14.292
62464W        W23775  36.437  22.597  13.387
62465W        W23776  11.155   4.356  14.915
62466W        W23777  25.616  36.555  13.355
62467W        W23778  17.230  13.156  14.995
62468W        W23779  37.544  16.265   0.842
62469W        W23780  32.078  17.584  12.577
62470W        W23781  36.932  19.251  11.956
62471W        W23782  23.599  33.531  13.999
62472W        W23783  31.134  28.558   3.830
62473W        W23784  22.534  24.493   3.797
62474W        W23785  17.193  10.148   3.688
62475W        W23786   1.399  15.721   0.343
62476W        W23787  13.639  22.121   2.796
62477W        W23788  17.698  40.538   1.297
62478W        W23789  43.803  19.716   4.163
62479W        W23790   1.327  39.010  12.562
62480W        W23791  27.999  36.865   0.804
62481W        W23792  20.222  29.959   4.219
62482W        W23793  37.375  38.996   0.283
62483W        W23794  27.662  29.086   2.349
62484W        W23795  26.206   5.237  14.942
62485W        W23796  31.625  39.829  11.428
62486W        W23797  20.692  42.818  11.492
62487W        W23798  12.205   9.708   1.756
62488W        W23799  40.535  10.773  10.521
62489W        W23800  19.717  35.412  11.489
62490W        W23801  20.624  14.672  14.927
62491W        W23802   6.334   4.731  11.601
62492W        W23803   5.846  36.991   1.253
62493W        W23804   4.354  27.102   3.264
62494W        W23805  30.917  41.436   4.197
62495W        W23806  42.450   4.312  11.569
62496W        W23807   2.372  28.522  12.895
62497W        W23808  24.029  14.120  12.412
62498W        W23809  29.561  33.417   2.257
62499W        W23810   8.180  33.955  11.054
62500W        W23811  41.973  17.122   2.734
62501W        W23812  32.132  30.975   4.643
62502W        W23813  11.652  16.085   4.631
62503W        W23814   2.260  18.610   2.177
62504W        W23815  28.972  43.472   2.739
62505W        W23816  24.988   7.731  12.907
62506W        W23817  19.223   8.722  13.437
62507W        W23818  27.038  13.639  13.841
62508W        W23819  42.792  16.225   1.361
62509W        W23820  30.123  24.525   2.685
62510W        W23821  42.992  44.291  10.615
62511W        W23822   5.711  24.594   4.629
62512W        W23823  14.810  30.450  14.316
62513W        W23824  19.104  24.689  12.355
62514W        W23825  40.414   0.263   1.726
62515W        W23826  44.274   9.652  12.917
62516W        W23827  24.512  17.579   3.285
62517W        W23828  14.745  29.159  14.864
62518W        W23829  38.862  38.560   4.641
62519W        W23830  28.047   1.398   2.747
62520W        W23831  43.965   2.925  13.440
62521W        W23832  36.996  43.333   3.808
62522W        W23833   7.810  13.299  10.901
62523W        W23834  16.735   7.874  14.773
62524W        W23835  27.952  40.910   0.965
62525W        W23836  25.135  19.660   2.805
62526W        W23837  20.220  41.359   1.419
62527W        W23838  30.147  42.029   3.739
62528W        W23839  35.968   9.385   1.326
62529W        W23840   5.320   8.269  12.356
62530W        W23841  27.143  24.692   2.217
62531W        W23842  32.911   3.753   0.904
62532W        W23843  26.586  22.532  12.028
62533W        W23844  28.963   5.757   2.788
62534W        W23845  17.571  36.581  11.380
62535W        W23846  32.406  32.951   0.399
62536W        W23847  42.382  19.083  14.380
62537W        W23848   5.699  37.942   1.305
62538W        W23849  17.714  15.753   3.642
62539W        W23850   6.314  19.595  14.796
62540W        W23851  17.280  37.392   3.265
62541W        W23852  41.300  10.156   3.681
62542W        W23853   3.226  40.370   2.678
62543W        W23854  39.514  28.547   4.225
62544W        W23855  39.028  11.817   1.282
62545W        W23856   7.716  17.741   1.435
62546W        W23857  29.933  31.581  12.403
62547W        W23858  23.616  26.599  13.535
62548W        W23859  18.739  26.670  11.520
62549W        W23860   6.813  18.148  11.588
62550W        W23861  38.454  19.687  13.892
62551W        W23862   2.807  12.681  10.616
62552W        W23863  16.736  26.466  14.330
62553W        W23864   2.295  24.029   5.198
62554W        W23865  12.339  28.056   3.644
62555W        W23866  19.688  24.533  13.504
62556W        W23867   2.319  35.594  11.069
62557W        W23868  28.076  37.870  10.012
62558W        W23869  12.686  37.366   3.248
62559W        W23870  21.178  24.675  12.373
62560W        W23871  29.940  18.606  14.322
62561W        W23872  35.937  29.589  10.446
62562W        W23873  40.966  12.616  13.906
62563W        W23874  27.688   9.367   1.238
62564W        W23875  21.164   1.954  12.966
62565W        W23876  32.566  31.921  12.967
62566W        W23877  36.532  37.404   4.607
62567W        W23878  24.530  17.265   4.190
62568W        W23879  43.464  33.385  11.892
62569W        W23880   4.934  41.904   1.896
62570W        W23881  30.440  23.235   4.330
62571W        W23882  11.209  26.207  11.512
62572W        W23883  15.259   3.798  12.448
62573W        W23884   4.778  20.574  10.438
62574W        W23885  19.671   3.943   3.680
62575W        W23886   4.790  22.168  10.127
62576W        W23887  43.485  33.422   0.895
62577W        W23888  17.626  19.734  14.770
62578W        W23889  42.341  28.169   2.350
62579W        W23890  12.246  19.235  10.989
62580W        W23891  40.307  24.566   2.686
62581W        W23892   2.890  19.543  13.441
62582W        W23893  36.054   1.775   1.334
62583W        W23894  17.739   2.729   3.761
62584W        W23895  29.171  19.076   0.873
62585W        W23896  34.102  15.784  11.015
62586W        W23897  22.252   0.357   1.349
62587W        W23898  24.635  41.998  10.900
62588W        W23899  29.028  43.924  11.408
62589W        W23900  22.007  30.549  14.018
62590W        W23901  19.577  13.827  12.078
62591W        W23902  18.753  21.241  14.425
62592W        W23903  27.687   5.908   0.482
62593W        W23904  10.141  10.290  12.972
62594W        W23905  14.268   0.784   2.707
62595W        W23906  38.332   1.903  14.997
62596W        W23907  26.194  42.504   2.804
62597W        W23908  34.082   6.909  13.859
62598W        W23909  37.057  14.152   2.312
62599W        W23910  30.104  30.943  11.062
62600W        W23911   6.259  43.304  10.147
62601W        W23912  38.334  14.105   0.379
62602W        W23913  34.943  13.763   2.326
62603W        W23914  34.057  37.879   4.834
62604W        W23915  22.566   6.848   4.346
62605W        W23916  42.788   0.396  12.404
62606W        W23917  43.865  12.289  13.818
62607W        W23918  12.678  12.759  11.927
62608W        W23919   1.293   3.252   0.865
62609W        W23920   8.249  41.433   4.203
62610W        W23921  29.932  19.548  14.516
62611W        W23922  21.068  42.803   1.212
62612W        W23923  15.792  16.093   0.920
62613W        W23924   0.414  13.188   1.212
62614W        W23925  10.831  35.023  14.288
62615W        W23926  20.122  34.424  11.514
62616W        W23927  41.943  27.192   2.686
62617W        W23928  26.077  17.219   4.800
62618W        W23929  17.187  24.703  11.006
62619W        W23930   0.805  13.207   0.823
62620W        W23931  22.117   6.869   3.281
62621W        W23932   8.735   1.423  13.828
62622W        W23933   0.317  15.641  11.006
62623W        W23934   6.768  11.146   0.360
62624W        W23935  17.786  40.501  13.909
62625W        W23936  18.756  11.844  12.363
62626W        W23937  26.017  22.646  14.305
62627W        W23938  17.583  21.544  11.438
62628W        W23939  30.600  26.527   4.682
62629W        W23940  33.064  33.465  13.393
62630W        W23941   8.303  11.667  10.433
62631W        W23942  18.567  28.014  14.332
62632W        W23943  25.028   0.937  13.977
62633W        W23944  38.449  34.525  12.429
62634W        W23945  17.716  11.822   1.788
62635W        W23946  30.417  25.613   4.234
62636W        W23947  43.279  31.437   1.709
62637W        W23948  39.375   5.702  11.567
62638W        W23949   4.783   1.371   2.751
62639W        W23950  22.032  17.208   0.787
62640W        W23951  10.773  32.128   1.758
62641W        W23952  38.445  26.056  14.341
62642W        W23953  19.598  18.605   9.920
62643W        W23954  37.578  38.972   0.873
62644W        W23955  36.407  32.541   0.383
62645W        W23956  24.518  24.602   2.681
62646W        W23957  34.108  43.516   4.297
62647W        W23958   5.335  33.117   4.714
62648W        W23959  27.100  37.043  11.016
62649W        W23960  10.683  32.007   3.825
62650W        W23961   0.315  18.649   0.812
62651W        W23962  33.093   2.809   4.136
62652W        W23963  24.163  41.335  14.331
62653W        W23964  18.286  39.337   4.641
62654W        W23965  10.384  18.736   3.311
62655W        W23966  27.016   7.347   0.857
62656W        W23967  19.730  32.096   3.180
62657W        W23968  28.102  16.676  10.556
62658W        W23969  35.891  30.908  11.968
62659W        W23970  43.962  26.957   1.429
62660W        W23971  32.088  30.114   2.405
62661W        W23972  21.707  15.619   0.263
62662W        W23973  33.934  36.446   3.684
62663W        W23974   5.230  22.115  12.916
62664W        W23975  34.478  33.551   1.215
62665W        W23976  23.521  41.880   0.250
62666W        W23977   8.222   9.249   3.718
62667W        W23978   9.306  17.741  13.525
62668W        W23979  42.436  37.355  12.032
62669W        W23980  36.401   1.955   4.667
62670W        W23981  26.073  43.819  12.847
62671W        W23982  18.611   7.892   2.179
62672W        W23983  16.738  41.042   3.651
62673W        W23984  27.031  44.788  11.492
62674W        W23985  11.784  28.519   0.840
62675W        W23986  29.956  38.358   0.475
62676W        W23987  15.581  44.962   4.284
62677W        W23988   2.312  21.126   5.166
62678W        W23989  25.596  39.318   1.836
62679W        W23990  37.458  27.513  12.489
62680W        W23991  11.304  21.080   0.416
62681W        W23992  26.044  26.039  12.082
62682W        W23993  40.483  16.789   4.161
62683W        W23994  19.558  11.191   2.278
62684W        W23995  16.596  16.208  11.114
62685W        W23996   4.415  19.159  11.565
62686W        W23997  14.251  16.615  13.386
62687W        W23998  37.355  22.582   3.245
62688W        W23999  14.735  26.954   2.776
62689W        W24000   6.684  27.546   2.838
62690W        W24001   9.726  25.492  12.062
62691W        W24002   9.890  25.576  12.949
62692W        W24003  30.165  16.777   0.740
62693W        W24004  40.326  17.282  13.057
62694W        W24005  32.635  29.619  10.524
62695W        W24006  38.447   5.778  12.365
62696W        W24007  36.894   8.180  12.402
62697W        W24008  37.884  17.614   1.860
62698W        W24009   9.295  34.919   3.148
62699W        W24010  18.546  28.548   3.249
62700W        W24011  17.228  39.037   4.698
62701W        W24012  42.389   2.882   0.736
62702W        W24013   8.316  21.038  11.963
62703W        W24014  10.169  28.516  12.575
62704W        W24015  14.800  36.008  11.079
62705W        W24016  27.501  23.114  13.977
62706W        W24017  25.144  15.749   0.445
62707W        W24018   8.234  40.499   3.728
62708W        W24019  12.352  40.895  13.809
62709W        W24020   1.933  14.625  12.949
62710W        W24021   1.359  28.595  13.844
62711W        W24022  35.015  25.139  12.342
62712W        W24023  43.331  20.171  14.398
62713W        W24024  29.668  19.149  11.416
62714W        W24025  35.985   0.271   3.700
62715W        W24026  32.466  42.793   1.828
62716W        W24027  34.015  37.510   2.772
62717W        W24028  35.476  27.682   0.727
62718W        W24029  43.310   9.158   3.382
62719W        W24030  31.520  35.436  12.542
62720W        W24031  38.336   6.241  13.912
62721W        W24032  12.333  44.966   2.309
62722W        W24033  25.032  35.542   1.225
62723W        W24034  11.200   3.428  12.342
62724W        W24035   0.261  17.214   0.862
62725W        W24036   8.402  24.641   3.184
62726W        W24037  23.163  28.661   9.925
62727W        W24038  35.886   8.690   2.278
62728W        W24039  44.907  24.494   2.313
62729W        W24040   7.755  25.026  11.046
62730W        W24041  38.327  20.749  11.413
62731W        W24042   6.200  27.577  13.023
62732W        W24043  21.258  25.139  12.823
62733W        W24044  41.867  14.158   0.432
62734W        W24045   1.395  14.121   2.825
62735W        W24046  41.348  10.871  14.939
62736W        W24047  40.829  36.035  11.410
62737W        W24048  36.384  29.425  10.621
62738W        W24049  10.316   0.948  13.856
62739W        W24050  18.579   9.339  14.818
62740W        W24051  14.662  17.569  10.444
62741W        W24052   6.377  39.808   0.297
62742W        W24053  44.315   8.191  10.638
62743W        W24054  16.676  31.471   0.965
62744W        W24055  26.192  25.696  12.922
62745W        W24056   6.807  28.933  10.933
62746W        W24057  11.865   9.692  13.875
62747W        W24058   2.382  42.440  14.322
62748W        W24059  20.612  13.794   0.851
62749W        W24060  25.635  20.712   3.666
62750W        W24061  41.481  18.702   1.274
62751W        W24062   9.183  44.816  11.891
62752W        W24063  22.220  30.537  12.913
62753W        W24064  10.140  41.881  14.019
62754W        W24065   6.759   1.267   2.370
62755W        W24066  34.516  27.091   3.776
62756W        W24067  44.984   9.667   2.846
62757W        W24068  22.208  32.993   3.232
62758W        W24069  28.507  30.500  12.412
62759W        W24070  37.044  23.042   3.794
62760W        W24071   0.400  44.383   0.890
62761W        W24072  38.989  33.390   1.240
62762W        W24073  34.562  35.073   1.789
62763W        W24074  28.612   3.880   2.319
62764W        W24075  36.354   7.242  11.900
62765W        W24076  29.018  17.182  12.880
62766W        W24077   5.756  26.539   1.326
62767W        W24078  10.335  10.363  14.904
62768W        W24079  28.021  31.970  11.512
62769W        W24080  22.747   9.721  13.037
62770W        W24081  36.877  36.933  10.452
62771W        W24082   0.394   9.776   1.915
62772W        W24083   5.704  40.906   0.919
62773W        W24084  33.045   1.947   0.281
62774W        W24085  26.162  39.897  10.493
62775W        W24086  36.413  42.358   0.362
62776W        W24087  29.555  41.466  12.026
62777W        W24088  11.310   7.742  12.496
62778W        W24089  31.476  19.691  11.527
62779W        W24090   1.834  13.764  13.822
62780W        W24091   3.710   6.388   4.602
62781W        W24092   4.254   2.850  13.313
62782W        W24093  21.629  42.014   0.431
62783W        W24094  31.446  42.316  13.308
62784W        W24095   4.319  19.609  13.368
62785W        W24096  13.306   8.191   2.354
62786W        W24097  23.136  38.000   4.120
62787W        W24098  26.487  15.722  10.942
62788W        W24099   7.411  18.069  14.356
62789W        W24100  38.536  32.008  13.419
62790W        W24101  11.851  40.888  13.803
62791W        W24102  35.895   7.276  12.348
62792W        W24103  27.981   1.453   3.692
62793W        W24104  18.104  21.589   2.291
62794W        W24105   8.824  17.571  11.898
62795W        W24106  20.759  12.717   3.799
62796W        W24107  43.463   5.809  11.549
62797W        W24108   7.294  24.989   4.740
62798W        W24109  19.573  14.180   0.440
62799W        W24110  40.814  19.534   1.807
62800W        W24111  42.799  28.601  12.568
62801W        W24112  14.197   2.266   1.395
62802W        W24113   5.829  20.062   3.378
62803W        W24114   0.477  33.551  13.364
62804W        W24115   1.903  12.294   2.701
62805W        W24116  24.672  36.466  13.844
62806W        W24117  20.095  38.976   1.219
62807W        W24118  11.219  25.693   1.933
62808W        W24119   9.333  23.491   1.276
62809W        W24120   9.193   0.289  14.947
62810W        W24121   2.410  21.165  11.569
62811W        W24122  31.453  44.296  12.577
62812W        W24123  25.644  23.635   3.707
62813W        W24124  38.968   0.327   4.612
62814W        W24125  38.436  13.196  10.425
62815W        W24126  35.428  31.634   0.452
62816W        W24127  22.057  25.556  13.945
62817W        W24128  17.176  20.095   3.796
62818W        W24129  35.096  21.566   0.451
62819W        W24130  12.846  44.790   2.812
62820W        W24131   4.330   7.799  12.345
62821W        W24132  19.753  15.759   3.231
62822W        W24133  17.108  39.352   3.285
62823W        W24134  40.497  19.083  10.923
62824W        W24135  18.628  15.092   2.303
62825W        W24136  14.172  30.596  14.384
62826W        W24137  10.231  15.702  12.063
62827W        W24138   9.736  43.818  14.354
62828W        W24139  17.170  35.478  11.891
62829W        W24140  12.207  21.697   2.397
62830W        W24141  17.557  19.130  13.888
62831W        W24142  35.077   5.844  12.486
62832W        W24143  32.597  11.184   4.785
62833W        W24144  41.029  43.343   4.353
62834W        W24145  28.516   8.334  11.991
62835W        W24146   2.872  38.387  13.038
62836W        W24147  40.804  14.829   1.772
62837W        W24148  23.574  44.760   0.747
62838W        W24149  23.075  38.515  13.879
62839W        W24150  30.028  30.621  14.377
62840W        W24151   7.171  29.115  12.391
62841W        W24152  19.123   5.751  13.894
62842W        W24153  28.150   0.470   3.257
62843W        W24154  40.383  29.036  11.938
62844W        W24155  33.488  11.373  11.381
62845W        W24156  14.625  21.523  11.985
62846W        W24157  37.894   7.245   3.213
62847W        W24158   5.754   3.721  11.502
62848W        W24159   2.870  43.362  13.979
62849W        W24160  26.540  11.293   3.198
62850W        W24161   7.271  22.526   3.700
62851W        W24162  11.727  39.521   1.392
62852W        W24163  31.093  28.135  11.609
62853W        W24164   2.234  30.463   0.408
62854W        W24165  24.137  17.115  13.024
62855W        W24166  36.972  10.330  13.000
62856W        W24167   3.921  22.741  14.415
62857W        W24168  36.873  22.108  11.009
62858W        W24169  18.785   3.347  13.796
62859W        W24170   7.858  34.950   3.213
62860W        W24171  17.124  43.971   4.130
62861W        W24172  38.563  42.864  14.432
62862W        W24173   7.728  29.104   2.325
62863W        W24174  43.018  40.445   3.816
62864W        W24175  14.623  38.990  10.949
62865W        W24176  30.551  12.310   3.381
62866W        W24177  11.313  29.535  13.477
62867W        W24178  44.863  25.219  13.974
62868W        W24179  19.669  16.239  11.102
62869W        W24180  36.544  41.297   3.840
62870W        W24181  24.483  36.562   3.716
62871W        W24182  38.901  18.278  12.401
62872W        W24183  25.089   7.404  13.358
62873W        W24184   6.309  37.035   3.231
62874W        W24185   7.889  22.735  12.994
62875W        W24186  33.061  32.049  13.953
62876W        W24187  25.621  37.024  11.118
62877W        W24188   5.871  37.560   1.432
62878W        W24189  20.632  27.065   4.617
62879W        W24190  44.339  11.768  10.482
62880W        W24191  15.209  41.963   0.263
62881W        W24192   0.420  20.665   4.659
62882W        W24193  13.642  36.538  10.992
62883W        W24194  14.139  29.091   2.773
62884W        W24195   2.472  37.506   5.142
62885W        W24196   0.945  21.591   1.862
62886W        W24197  25.699   4.769   0.243
62887W        W24198  27.040   4.328   4.254
62888W        W24199   9.282  38.890   4.352
62889W        W24200  35.102  27.568   1.389
62890W        W24201  43.511  37.939   1.278
62891W        W24202  29.587  27.110   4.733
62892W        W24203  20.699   4.934   0.854
62893W        W24204  27.068  35.091   2.400
62894W        W24205   3.733   0.386  11.390
62895W        W24206   1.801  24.044   2.738
62896W        W24207   3.411  39.510  11.578
62897W        W24208  16.663  27.076  11.376
62898W        W24209   8.226  12.757  12.504
62899W        W24210  16.726  33.541   3.333
62900W        W24211  16.280  19.682  13.370
62901W        W24212  34.068  40.453   2.831
62902W        W24213  40.842  17.644  12.379
62903W        W24214  27.548  44.937  13.852
62904W        W24215  11.639   4.731   9.993
62905W        W24216  30.078  22.715   1.895
62906W        W24217  27.574  39.038   2.864
62907W        W24218  26.632  24.076   1.212
62908W        W24219  30.915   4.698  11.118
62909W        W24220  34.001  26.701   2.796
62910W        W24221  11.700  23.691   9.577
62911W        W24222  11.769  22.669  13.517
62912W        W24223  35.399  35.958   1.376
62913W        W24224  44.442  35.361   3.814
62914W        W24225  40.844  37.338   3.742
62915W        W24226  25.676  32.599   1.821
62916W        W24227  14.167  20.212  14.442
62917W        W24228  39.905  19.200  11.927
62918W        W24229  35.562  33.475  13.334
62919W        W24230  11.771  39.948  14.810
62920W        W24231  16.292  33.418  14.889
62921W        W24232   5.396  16.132   0.361
62922W        W24233  11.313  39.512   0.863
62923W        W24234  21.701  22.729   0.366
62924W        W24235   2.433   2.408   4.685
62925W        W24236  12.641  15.118   3.660
62926W        W24237  44.933  14.267  11.985
62927W        W24238  41.973  16.770  14.430
62928W        W24239  41.407  27.063   3.191
62929W        W24240  39.558  14.147  14.478
62930W        W24241  10.278   0.908   0.455
62931W        W24242  11.227  23.145  13.985
62932W        W24243  21.195  44.312   1.362
62933W        W24244   2.930  24.724   2.252
62934W        W24245  38.991  23.092   0.410
62935W        W24246  42.833  25.142  14.968
62936W        W24247  31.068   6.739   2.276
62937W        W24248  15.136  28.997  13.431
62938W        W24249  41.889  29.003   2.734
62939W        W24250  36.579   5.221  14.415
62940W        W24251  21.191  42.016   4.709
62941W        W24252  19.208  31.134  11.966
62942W        W24253  24.211   2.227  12.493
62943W        W24254  33.550   8.818   0.767
62944W        W24255  13.626  18.242  10.567
62945W        W24256   1.822  11.134   4.195
62946W        W24257   6.785  17.583   2.691
62947W        W24258   7.786  33.087  13.432
62948W        W24259  44.471  14.310   9.957
62949W        W24260  30.561  41.896   2.714
62950W        W24261  28.651  30.033  11.040
62951W        W24262  19.673  32.486  10.582
62952W        W24263   4.402  33.961   0.461
62953W        W24264  43.937  36.924  10.636
62954W        W24265  17.668   8.348  10.626
62955W        W24266  40.872   5.253   1.321
62956W        W24267  43.856  32.011  13.866
62957W        W24268  29.459   1.310  13.040
62958W        W24269  14.745  15.232  11.057
62959W        W24270  35.483  30.153   1.287
62960W        W24271  30.061  26.159   3.820
62961W        W24272  44.281  22.637   4.648
62962W        W24273  25.216  30.502  14.917
62963W        W24274  11.174  33.427  13.356
62964W        W24275  24.009  26.979   1.436
62965W        W24276  43.311   2.960  14.374
62966W        W24277  22.739  36.459  10.016
62967W        W24278  35.073   0.763   5.115
62968W        W24279  32.134  37.899   2.882
62969W        W24280  23.620   9.789   1.834
62970W        W24281  22.061   5.297   2.358
62971W        W24282  20.053  31.906   1.314
62972W        W24283  37.083  23.649  14.460
62973W        W24284  42.922  15.673   2.226
62974W        W24285  22.011  19.698   3.772
62975W        W24286  12.624  23.189   4.751
62976W        W24287   3.273   5.207  13.459
62977W        W24288  15.591  13.215   0.255
62978W        W24289  15.609  20.642  13.331
62979W        W24290  14.244  19.285  14.793
62980W        W24291  43.315   3.732   2.783
62981W        W24292  38.564  19.210  10.493
62982W        W24293  22.633  12.129  14.921
62983W        W24294  27.953  33.380  14.284
62984W        W24295  43.913  34.873  14.790
62985W        W24296  17.610  14.649  14.489
62986W        W24297  19.249   9.827   2.901
62987W        W24298   6.678   4.777  10.989
62988W        W24299  23.519  11.134  11.102
62989W        W24300  10.382  18.576  12.551
62990W        W24301  42.882  37.421  12.089
62991W        W24302   2.239  41.027   4.262
62992W        W24303  22.997  44.293   2.807
62993W        W24304  30.008  22.235   2.406
62994W        W24305  30.161   3.936   4.352
62995W        W24306   3.416  32.442  14.886
62996W        W24307  13.229  21.036   2.362
62997W        W24308  31.003   5.799  10.008
62998W        W24309  21.018  41.995   1.896
62999W        W24310   9.701  17.605   1.863
63000W        W24311  44.999   6.343  12.520
63001W        W24312  15.722  24.086   2.199
63002W        W24313  39.529   7.403   2.795
63003W        W24314   6.213   0.873  10.149
63004W        W24315  20.232  43.902   3.252
63005W        W24316  16.214  25.979  14.854
63006W        W24317   2.826  23.988  10.499
63007W        W24318  26.631  25.627   3.650
63008W        W24319  19.255  11.192  12.963
63009W        W24320  19.742  30.156  11.588
63010W        W24321  27.543   9.765  11.480
63011W        W24322  10.364   1.907  14.945
63012W        W24323  26.695  23.148   3.219
63013W        W24324  37.959   7.308   2.289
63014W        W24325   3.432  43.357   1.257
63015W        W24326  12.750  33.101  12.452
63016W        W24327   1.956  10.267   1.269
63017W        W24328  31.069  35.102   2.383
63018W        W24329  40.350   3.754   0.806
63019W        W24330  41.501   6.300   4.245
63020W        W24331  12.200  18.735   2.364
63021W        W24332  11.860  13.818  13.343
63022W        W24333   5.915  25.572  14.001
63023W        W24334  23.592  16.310   4.689
63024W        W24335  17.267   5.704   0.832
63025W        W24336  11.343  12.334  10.515
63026W        W24337  37.912  34.495   1.349
63027W        W24338  12.682   6.306   4.789
63028W        W24339  11.862  44.383  10.921
63029W        W24340  40.457   5.759  14.775
63030W        W24341   4.903  25.218   2.307
63031W        W24342   2.735  31.421   4.282
63032W        W24343  26.521  18.721  14.468
63033W        W24344  32.958  42.924  14.489
63034W        W24345  10.701  10.877   3.273
63035W        W24346  40.374  14.222  12.508
63036W        W24347  26.102  40.957   2.355
63037W        W24348  12.253   4.369  14.905
63038W        W24349  10.811  30.922   0.456
63039W        W24350  16.749  42.932   0.916
63040W        W24351   1.761   8.814   1.424
63041W        W24352  33.884  43.438  13.048
63042W        W24353  43.862  32.617  11.988
63043W        W24354   0.943  32.391   2.311
63044W        W24355  10.137  18.662  10.551
63045W        W24356  12.771  23.041   0.303
63046W        W24357  41.793  30.429  10.626
63047W        W24358  14.591  10.696   1.816
63048W        W24359  12.633   4.714   2.821
63049W        W24360  36.025  15.279   1.305
63050W        W24361   6.736  31.602   3.306
63051W        W24362  33.930   5.925   1.868
63052W        W24363  21.681  39.841   2.828
63053W        W24364  26.618  31.535  14.312
63054W        W24365  29.599  32.021   0.428
63055W        W24366  32.033  18.289   1.804
63056W        W24367  20.587  36.003   0.314
63057W        W24368  17.219  16.651  14.441
63058W        W24369  11.231   6.755  14.360
63059W        W24370  37.397  40.982   2.193
63060W        W24371  11.187  19.736  11.460
63061W        W24372  36.877  36.034  14.875
63062W        W24373  41.021  13.251  11.113
63063W        W24374  30.967   6.796  14.961
63064W        W24375   8.392  23.062  14.487
63065W        W24376  44.832   0.384   1.735
63066W        W24377  17.585  12.803  12.491
63067W        W24378  22.542  35.866  14.013
63068W        W24379  40.954  32.598  14.787
63069W        W24380  25.035   4.707   2.753
63070W        W24381  41.850  33.083  10.520
63071W        W24382  27.490  26.971   4.127
63072W        W24383   4.228  17.749  10.632
63073W        W24384  21.182   8.677   5.093
63074W        W24385   2.358  26.527  11.490
63075W        W24386  40.370  38.470   1.825
63076W        W24387  29.599   9.844   3.320
63077W        W24388   0.944   7.893  13.891
63078W        W24389  12.230  44.393  14.396
63079W        W24390  32.567  38.071  11.605
63080W        W24391   7.197  31.135  14.966
63081W        W24392  12.621  23.635  10.595
63082W        W24393  44.469  35.961  13.983
63083W        W24394   5.377   3.832  11.924
63084W        W24395  25.517  23.157   2.694
63085W        W24396   6.791   3.291  11.610
63086W        W24397  10.303  31.419   0.893
63087W        W24398  32.112  14.731  13.869
63088W        W24399  42.913  43.280  10.973
63089W        W24400  11.228  31.030  11.866
63090W        W24401  34.112  41.330  12.545
63091W        W24402  16.246  33.428   9.952
63092W        W24403  27.484  30.484   4.228
63093W        W24404  37.855  41.440   2.894
63094W        W24405   8.211  35.891  12.412
63095W        W24406  10.724  14.154   1.348
63096W        W24407  33.624  24.679  11.877
63097W        W24408  18.709  40.509  14.926
63098W        W24409  24.113  27.942  11.554
63099W        W24410  33.389  25.104  10.439
63100W        W24411  22.037  30.962  10.573
63101W        W24412  16.661  37.991  11.065
63102W        W24413  22.132  44.390  10.474
63103W        W24414   6.227   7.775  14.802
63104W        W24415  23.719   5.737  13.448
63105W        W24416  20.603  39.019   1.444
63106W        W24417  15.601  37.416  14.848
63107W        W24418  13.616   5.772   0.321
63108W        W24419  34.087  38.462  13.796
63109W        W24420  20.040  12.823  10.592
63110W        W24421  22.742  30.059   1.321
63111W        W24422   0.267  21.030  13.797
63112W        W24423  32.517   4.766   1.440
63113W        W24424  22.190  19.631   4.260
63114W        W24425  18.290   1.765  11.543
63115W        W24426  23.073  42.395   2.375
63116W        W24427  24.515  27.189   1.710
63117W        W24428  32.118  19.579  14.333
63118W        W24429   8.198  11.681   2.383
63119W        W24430  12.674  23.690  13.929
63120W        W24431  43.422  27.959   3.259
63121W        W24432   6.786   3.750  12.440
63122W        W24433  29.934  44.941  10.896
63123W        W24434  29.021  27.145   1.289
63124W        W24435  38.991  19.199  14.774
63125W        W24436  42.858   4.845   1.792
63126W        W24437  36.964   9.367   2.709
63127W        W24438  15.313  15.653   2.363
63128W        W24439  24.593  11.312  13.504
63129W        W24440  31.072  28.521   4.817
63130W        W24441   1.748  27.536  11.423
63131W        W24442  28.653  18.624   2.194
63132W        W24443  40.030  26.609   0.457
63133W        W24444  12.353  11.786   1.255
63134W        W24445  30.508  13.792  13.905
63135W        W24446  17.735  40.037   0.744
63136W        W24447  16.633  24.029  12.431
63137W        W24448  31.608  11.331  12.939
63138W        W24449  24.526  31.100  14.381
63139W        W24450  39.883  44.307  10.411
63140W        W24451  36.433  28.518  11.371
63141W        W24452  21.650  20.617  14.907
63142W        W24453  10.864  26.663   0.323
63143W        W24454   4.938  26.471  13.390
63144W        W24455  25.125  26.008  13.985
63145W        W24456   7.229  18.122   2.254
63146W        W24457   1.819  12.138   1.721
63147W        W24458  34.981  16.102   2.870
63148W        W24459  15.662  14.721   5.627
63149W        W24460  18.675  10.795  13.947
63150W        W24461   8.886  38.356  10.902
63151W        W24462  19.083  27.141  11.971
63152W        W24463  10.854  21.655  11.069
63153W        W24464  16.686  40.548  14.463
63154W        W24465  34.043  21.039  14.321
63155W        W24466  18.127  13.273   0.907
63156W        W24467   9.708  37.953  14.425
63157W        W24468   4.302  35.418  10.615
63158W        W24469   0.901  14.333  14.438
63159W        W24470   2.426  31.086  13.388
63160W        W24471  41.942   1.481  11.535
63161W        W24472  23.621  13.618  10.949
63162W        W24473  26.537  42.287  10.942
63163W        W24474  21.732   2.387   2.739
63164W        W24475  11.675  20.535   4.199
63165W        W24476   6.307  14.724   9.457
63166W        W24477  20.654  43.415  11.891
63167W        W24478  25.478  14.749   0.781
63168W        W24479  10.790   4.410   0.778
63169W        W24480  30.912   2.309   3.178
63170W        W24481  14.650  36.458   1.720
63171W        W24482  11.833  22.068   4.345
63172W        W24483  31.621  30.962  13.382
63173W        W24484  30.036  11.287  13.371
63174W        W24485  28.600  23.234   4.151
63175W        W24486  34.074  16.744   1.333
63176W        W24487  43.773   4.450   2.803
63177W        W24488   9.725  43.343   0.764
63178W        W24489  15.174  18.143   1.751
63179W        W24490  40.547  33.038   3.318
63180W        W24491  10.716  35.107  11.010
63181W        W24492  17.299  43.888  11.945
63182W        W24493  11.765   6.315  14.373
63183W        W24494  14.196  10.852  14.431
63184W        W24495  22.111  22.670  11.046
63185W        W24496  44.844  26.562   1.881
63186W        W24497  30.491   2.757  11.412
63187W        W24498  23.122  29.958  12.919
63188W        W24499  33.384  33.892   0.269
63189W        W24500  41.312  39.498   0.474
63190W        W24501  16.614  23.042  11.522
63191W        W24502  33.954  20.198  10.541
63192W        W24503  12.253  23.072   3.751
63193W        W24504  42.009  36.947  11.595
63194W        W24505  31.646   8.212  11.382
63195W        W24506  38.877   8.869   3.647
63196W        W24507  18.252   8.300  14.371
63197W        W24508  21.609  13.109  12.545
63198W        W24509  14.708  16.250  13.982
63199W        W24510  26.037  32.631  10.137
63200W        W24511  14.598  20.764   4.268
63201W        W24512  21.112  19.261  14.759
63202W        W24513  20.689  16.082  12.516
63203W        W24514  33.036  38.539   1.928
63204W        W24515   5.786  29.038  12.351
63205W        W24516  43.810  28.520   1.367
63206W        W24517  39.524  30.629   0.844
63207W        W24518  43.770  17.770   2.748
63208W        W24519  33.468   9.268  10.926
63209W        W24520  14.105  33.582  12.897
63210W        W24521  25.214  28.015   3.714
63211W        W24522  39.881  24.600   1.443
63212W        W24523  31.901   2.430  14.012
63213W        W24524  18.710   7.791   4.728
63214W        W24525  34.511  24.717   3.341
63215W        W24526   0.417  16.212  12.908
63216W        W24527  40.426  43.344   0.775
63217W        W24528  11.714  18.279   0.880
63218W        W24529  14.613  15.213  12.950
63219W        W24530  26.661  34.419   1.323
63220W        W24531  23.051  35.930  10.640
63221W        W24532  10.641  43.870  10.481
63222W        W24533  30.935  17.236  11.940
63223W        W24534  19.679  13.701  13.406
63224W        W24535  22.156  14.794   0.368
63225W        W24536  33.920   6.889   0.261
63226W        W24537  43.884   6.342   2.410
63227W        W24538  12.849   9.669   3.696
63228W        W24539  29.492  37.338   1.320
63229W        W24540  36.089  26.089  14.439
63230W        W24541  40.845  39.049   2.344
63231W        W24542   1.875  29.042  10.583
63232W        W24543  22.668  43.870   0.757
63233W        W24544   0.873  16.089  13.432
63234W        W24545   3.864  42.778   3.800
63235W        W24546  28.052  13.741   0.340
63236W        W24547  16.239  15.710   3.181
63237W        W24548  44.503  44.990   4.152
63238W        W24549  19.213  23.550  14.837
63239W        W24550  15.103  37.048   4.678
63240W        W24551   9.193  32.509  12.457
63241W        W24552  34.610  44.482   1.243
63242W        W24553  29.628   4.337  13.398
63243W        W24554  15.141  22.654  14.919
63244W        W24555  39.403  19.598  11.039
63245W        W24556  13.659  30.139   4.754
63246W        W24557  28.177  24.635   1.724
63247W        W24558   2.349   7.821   3.263
63248W        W24559  31.426  34.463   3.865
63249W        W24560  25.541  29.919  13.964
63250W        W24561  14.312   2.367   4.614
63251W        W24562  34.003   6.414   0.431
63252W        W24563   3.316   6.203   4.838
63253W        W24564  17.099  18.726   1.877
63254W        W24565   3.728  11.662  14.883
63255W        W24566  28.623  27.975  12.370
63256W        W24567  13.727  33.588  12.427
63257W        W24568  22.082   3.272   1.913
63258W        W24569  38.327  10.842   2.398
63259W        W24570   8.794  28.444   3.252
63260W        W24571   4.751  17.604   0.946
63261W        W24572  32.557  42.954   0.903
63262W        W24573  19.734  30.145   1.373
63263W        W24574   9.245  35.478   0.802
63264W        W24575  43.478  29.164   1.341
63265W        W24576  29.966  32.083  14.427
63266W        W24577  20.247  17.614  13.545
63267W        W24578   7.909   9.325  12.464
63268W        W24579   3.228   3.236   4.161
63269W        W24580  39.892   5.903   4.804
63270W        W24581   4.944  25.596  10.598
63271W        W24582  30.500  15.651   3.370
63272W        W24583  11.193  43.498   4.318
63273W        W24584   6.820   2.320  11.487
63274W        W24585  41.895  27.036  12.085
63275W        W24586  43.404  19.690  11.407
63276W        W24587  35.557  33.569  12.530
63277W        W24588   9.265  35.079   2.392
63278W        W24589  42.840  25.080   1.791
63279W        W24590   8.403  34.994   2.379
63280W        W24591  18.244  16.098  10.592
63281W        W24592  16.314  16.309   0.388
63282W        W24593   9.387  36.493  13.364
63283W        W24594   8.895  33.927  12.461
63284W        W24595  41.983  22.572  10.981
63285W        W24596  23.152  15.598   3.247
63286W        W24597  22.536  30.965  12.411
63287W        W24598  20.174  42.482  10.612
63288W        W24599  26.662  33.398  14.827
63289W        W24600  25.146  40.868   1.434
63290W        W24601  15.683  36.352   4.267
63291W        W24602   8.844  22.636  12.374
63292W        W24603   1.965  27.064  14.296
63293W        W24604  32.042  16.780   2.790
63294W        W24605  16.163   4.330  12.866
63295W        W24606  32.394  43.348  10.939
63296W        W24607   0.892  11.730  14.313
63297W        W24608  12.329  28.110   4.235
63298W        W24609  29.055   6.397   0.321
63299W        W24610  28.449  22.649  14.325
63300W        W24611  19.640  25.022   0.947
63301W        W24612  34.044  40.834   3.656
63302W        W24613  33.621  21.539  13.907
63303W        W24614   4.809   3.407  13.318
63304W        W24615  28.487  17.641   3.751
63305W        W24616  36.513  20.538   4.217
63306W        W24617  32.134   8.753   4.765
63307W        W24618  11.249  42.891   0.837
63308W        W24619  23.008  36.869   4.286
63309W        W24620   5.830  37.961   0.868
63310W        W24621  38.382   8.193  11.564
63311W        W24622  24.645   7.742   2.726
63312W        W24623  38.394  30.646  13.461
63313W        W24624  16.616  13.267  13.919
63314W        W24625   6.698  23.710   2.321
63315W        W24626  19.550  16.798  13.810
63316W        W24627  10.646  14.152   5.302
63317W        W24628  25.638  17.300   0.741
63318W        W24629   7.387  18.585   0.306
63319W        W24630  26.080  28.101  12.478
63320W        W24631  30.971  17.213   2.803
63321W        W24632  29.950  26.088  11.966
63322W        W24633   2.438  24.194   1.340
63323W        W24634  27.589   6.376   1.244
63324W        W24635  12.672  39.552  13.954
63325W        W24636   3.221  35.098   1.878
63326W        W24637   1.759  20.616  11.893
63327W        W24638  14.816   0.391  12.032
63328W        W24639  21.026   9.377  13.408
63329W        W24640   0.775   9.663   2.694
63330W        W24641   9.748   0.903   2.721
63331W        W24642  44.404  41.939  11.050
63332W        W24643  15.615  42.949   0.373
63333W        W24644   8.238  43.300  13.914
63334W        W24645  21.063  29.476  10.506
63335W        W24646   2.936   7.298   1.313
63336W        W24647  44.285   8.657  13.511
63337W        W24648  37.445  22.207  13.056
63338W        W24649  25.090  40.038   5.216
63339W        W24650   7.726  22.617   3.313
63340W        W24651  10.192  12.849  12.885
63341W        W24652  21.093  19.088   1.373
63342W        W24653  38.873  28.449   3.221
63343W        W24654  22.217  17.636   3.651
63344W        W24655  20.737  24.576  10.629
63345W        W24656  19.115  24.509   4.805
63346W        W24657  14.740  41.351   4.834
63347W        W24658  26.047   0.872  14.817
63348W        W24659  38.347  11.807  14.956
63349W        W24660  24.201  28.023   2.741
63350W        W24661  33.478  37.012   4.693
63351W        W24662   5.725  12.161  14.282
63352W        W24663  14.731  32.570   4.159
63353W        W24664  35.046  12.620   1.800
63354W        W24665  31.992  26.193   0.778
63355W        W24666  14.183  31.518  12.902
63356W        W24667  19.148  40.317   2.202
63357W        W24668  25.629   6.726  14.941
63358W        W24669   1.775   3.850  12.544
63359W        W24670  14.293  17.578  11.075
63360W        W24671   1.481  38.346  10.460
63361W        W24672  39.323  18.102   4.728
63362W        W24673  18.601  29.638  12.398
63363W        W24674  16.079  12.319   3.321
63364W        W24675   2.940  22.049  11.117
63365W        W24676  19.636  33.072   0.932
63366W        W24677   1.361   8.743  13.367
63367W        W24678  26.027  43.804  13.824
63368W        W24679  43.985  31.906   3.640
63369W        W24680   0.249  40.911  11.464
63370W        W24681  36.358  19.535   4.745
63371W        W24682   8.693  42.789   1.319
63372W        W24683  15.142  24.227  11.881
63373W        W24684  41.406  23.524  12.088
63374W        W24685  16.622   2.754   3.210
63375W        W24686  30.519  27.491  14.407
63376W        W24687  24.976  39.503   4.159
63377W        W24688  44.799   3.281  14.338
63378W        W24689  42.444  37.360   3.814
63379W        W24690   1.260  23.117   1.718
63380W        W24691  22.059   1.349  12.430
63381W        W24692  39.979  17.101   4.617
63382W        W24693   8.745  29.995   4.818
63383W        W24694  20.612   9.824  12.825
63384W        W24695   6.872  28.557  10.631
63385W        W24696   2.873  44.817  11.552
63386W        W24697  19.115  27.456  13.889
63387W        W24698  40.532  43.456  12.041
63388W        W24699   1.860   5.789  10.991
63389W        W24700  22.227  26.496   1.881
63390W        W24701  11.653  28.612   1.224
63391W        W24702  37.068  31.638   2.249
63392W        W24703  37.930  22.598  13.460
63393W        W24704  33.971  17.584   3.638
63394W        W24705   0.352  30.487  12.093
63395W        W24706  15.278  12.185  10.095
63396W        W24707   6.717  11.749  12.554
63397W        W24708  42.286   4.698   1.244
63398W        W24709  38.049  37.943  11.516
63399W        W24710   6.677  15.329  12.885
63400W        W24711  43.413   1.781  12.932
63401W        W24712  40.004   6.222   4.321
63402W        W24713   4.820   5.742  12.888
63403W        W24714  40.842  21.225   4.154
63404W        W24715   2.227  25.659  13.835
63405W        W24716   1.314   0.370   0.392
63406W        W24717   0.309  40.330   3.339
63407W        W24718  39.553  38.476  13.335
63408W        W24719  42.375  29.148  12.467
63409W        W24720  29.147  37.843  13.849
63410W        W24721  12.291  19.109  12.872
63411W        W24722  13.286   6.358   0.948
63412W        W24723  31.143  16.749   1.727
63413W        W24724  41.830  22.533  11.886
63414W        W24725   4.312   6.896   3.344
63415W        W24726  13.281  26.999  12.868
63416W        W24727  25.034  23.226   2.730
63417W        W24728  12.852   9.667  10.933
63418W        W24729  14.098   8.720   1.233
63419W        W24730  19.248   5.696  11.865
63420W        W24731  12.651   8.243  13.353
63421W        W24732  36.924  43.352   1.447
63422W        W24733  34.416  25.087   0.823
63423W        W24734  24.063  11.796   5.269
63424W        W24735  28.671   8.189  10.568
63425W        W24736   8.229  22.035  12.562
63426W        W24737  13.244   0.471  11.987
63427W        W24738   8.377  38.820  11.481
63428W        W24739  13.186  14.739   1.870
63429W        W24740  40.938  13.334  11.597
63430W        W24741  16.630  30.612  11.454
63431W        W24742   1.413   9.301  14.473
63432W        W24743   0.447  26.635   0.328
63433W        W24744   8.365  40.506  14.932
63434W        W24745   4.805   9.320   2.377
63435W        W24746  43.482  38.967  12.097
63436W        W24747  28.981  19.186   0.409
63437W        W24748  12.794  25.035   2.666
63438W        W24749  41.412   1.859   1.909
63439W        W24750   1.899  25.651   0.746
63440W        W24751   3.359  13.771   0.277
63441W        W24752  22.135   6.194   0.729
63442W        W24753  42.893  42.852  10.431
63443W        W24754  29.498  20.099   4.618
63444W        W24755  39.853  43.923   1.740
63445W        W24756  13.216  24.670   1.330
63446W        W24757  13.748  38.939   0.813
63447W        W24758  28.092  37.066   2.385
63448W        W24759  30.560   4.387   3.283
63449W        W24760  29.482  33.417  12.566
63450W        W24761   8.383  40.988  14.986
63451W        W24762  39.374  24.614   2.218
63452W        W24763   9.394  14.740   1.928
63453W        W24764   1.807  33.109  11.465
63454W        W24765  17.259  44.438  11.437
63455W        W24766   7.884  31.151   4.830
63456W        W24767  27.479   4.436  12.448
63457W        W24768   2.816   9.205   0.430
63458W        W24769   5.822  42.849   0.945
63459W        W24770  13.223   8.836  13.366
63460W        W24771   4.845  36.406  10.903
63461W        W24772   7.743   5.726   1.849
63462W        W24773  43.270  14.209   5.301
63463W        W24774   5.841   4.741  14.954
63464W        W24775  28.579  31.608  14.765
63465W        W24776  42.828  43.312   1.263
63466W        W24777   5.723  14.244  10.498
63467W        W24778  29.981   8.815   0.794
63468W        W24779  31.041  33.572  12.488
63469W        W24780  22.999   6.794   0.731
63470W        W24781  36.977  16.158  11.474
63471W        W24782   5.824  14.144   2.292
63472W        W24783  10.858  34.583   0.307
63473W        W24784  27.133  26.179  12.343
63474W        W24785  23.175  32.482  13.328
63475W        W24786  32.447  28.479  11.566
63476W        W24787  12.711  40.375   2.664
63477W        W24788  34.464  18.777  11.899
63478W        W24789  27.486  30.475  14.475
63479W        W24790  40.352  28.498  14.985
63480W        W24791  15.248  12.835   1.753
63481W        W24792   7.876   3.934   4.628
63482W        W24793  10.813   6.870  12.060
63483W        W24794  18.139   8.781   0.767
63484W        W24795  13.326  24.063   3.226
63485W        W24796  13.746  43.293   0.917
63486W        W24797  43.392  27.537   1.328
63487W        W24798   3.426   7.399  13.818
63488W        W24799  19.198  25.579   0.460
63489W        W24800  20.637  29.977   5.209
63490W        W24801  32.093  44.889   5.292
63491W        W24802   1.260  13.267   2.761
63492W        W24803  28.933  28.053   2.744
63493W        W24804   3.876   6.685  13.367
63494W        W24805   2.902  19.636   4.730
63495W        W24806  42.817  15.759   2.794
63496W        W24807  44.777   3.236   2.323
63497W        W24808  40.438   0.480   3.226
63498W        W24809  15.593  29.526  11.464
63499W        W24810  21.603  33.923   1.882
63500W        W24811  36.850  35.469  11.865
63501W        W24812  43.990   4.831  10.441
63502W        W24813  17.741  38.015  12.880
63503W        W24814   4.729   5.880  14.412
63504W        W24815  13.769  21.564   3.813
63505W        W24816  40.042  34.064  10.639
63506W        W24817   1.785  14.721   0.960
63507W        W24818  15.104   7.343  14.512
63508W        W24819  25.211  29.016  14.855
63509W        W24820   6.752  12.711  12.575
63510W        W24821  14.738  29.501   4.266
63511W        W24822  23.673  33.518   2.187
63512W        W24823  27.025   5.278   3.378
63513W        W24824  34.372   8.208   0.370
63514W        W24825  12.214  39.887   0.937
63515W        W24826  18.160   9.730   0.392
63516W        W24827  25.214  16.097   3.637
63517W        W24828   5.929  14.701   4.793
63518W        W24829  37.525  15.678  12.876
63519W        W24830   5.368  31.403  10.907
63520W        W24831  41.298  29.036   3.854
63521W        W24832  10.183  20.134  14.302
63522W        W24833  42.852  44.905  13.338
63523W        W24834   8.215  22.587  11.404
63524W        W24835  19.622   3.783  12.844
63525W        W24836  22.048   9.866   1.806
63526W        W24837  16.239  10.635  11.027
63527W        W24838   1.753  29.058  14.996
63528W        W24839  21.604  25.200  14.456
63529W        W24840  24.191  25.045  11.391
63530W        W24841   9.266   3.874   3.160
63531W        W24842   8.815  13.240  13.005
63532W        W24843  42.332   3.393   0.339
63533W        W24844   0.769  29.981   1.853
63534W        W24845   2.761  14.658  10.426
63535W        W24846  39.923   2.778   0.880
63536W        W24847  24.175  11.650   4.836
63537W        W24848  18.736   2.725  11.065
63538W        W24849   3.751  14.724   2.854
63539W        W24850  43.883  16.576   4.207
63540W        W24851  41.381  18.699   1.763
63541W        W24852  32.057  18.157   0.475
63542W        W24853  18.242  24.127  14.809
63543W        W24854  30.920   2.450   3.772
63544W        W24855  31.493  11.786  14.287
63545W        W24856  10.303  44.345   2.286
63546W        W24857  25.063  35.926   4.784
63547W        W24858  13.148  17.111   9.924
63548W        W24859  31.618  11.770   1.439
63549W        W24860  36.368  37.335   4.344
63550W        W24861   6.323  44.408  11.061
63551W        W24862  31.013  17.748   2.235
63552W        W24863  38.370   9.805   1.341
63553W        W24864  22.157  42.375  11.373
63554W        W24865  35.093  25.525  12.475
63555W        W24866  30.028  42.467  10.492
63556W        W24867   5.236  11.262   4.347
63557W        W24868  24.560  44.462  11.442
63558W        W24869  24.033  41.880  10.569
63559W        W24870  40.521   2.905  11.555
63560W        W24871  13.293  15.272  13.986
63561W        W24872   3.440  42.960  11.953
63562W        W24873  13.807  23.144  13.419
63563W        W24874  39.920  24.027  13.455
63564W        W24875  34.464  21.076   0.419
63565W        W24876  32.602  21.725   4.338
63566W        W24877   2.379  25.527   3.266
63567W        W24878  17.230  39.398  13.481
63568W        W24879  39.525   8.842   4.760
63569W        W24880  39.487  31.459  11.125
63570W        W24881  27.035  44.481   0.406
63571W        W24882   2.398   6.871   0.966
63572W        W24883  35.945  22.046  14.030
63573W        W24884  34.430  29.012   4.173
63574W        W24885  34.017  12.253  11.492
63575W        W24886  25.075  37.535  11.992
63576W        W24887   2.808   0.896   4.257
63577W        W24888  10.826   6.333   3.353
63578W        W24889   7.846   5.271  14.793
63579W        W24890  29.475  28.505  10.907
63580W        W24891  34.056   4.942  11.505
63581W        W24892  19.174  34.423  11.497
63582W        W24893  20.606  25.070  13.532
63583W        W24894  35.896   2.388  14.482
63584W        W24895   2.899   9.223   3.301
63585W        W24896  43.842  16.093   4.335
63586W        W24897  28.478  18.698  12.546
63587W        W24898  40.345  22.545  13.515
63588W        W24899  44.833  44.270   4.691
63589W        W24900  42.811   4.340   2.764
63590W        W24901  22.501  20.663  14.015
63591W        W24902   5.836  41.995   0.336
63592W        W24903   2.828  31.911  13.459
63593W        W24904  18.655  36.869   0.274
63594W        W24905  32.471   1.797   2.878
63595W        W24906  44.336  26.025  11.407
63596W        W24907  35.389  11.127  13.545
63597W        W24908   4.924  31.524   3.353
63598W        W24909  11.763  28.598   1.923
63599W        W24910  13.695  37.966   4.694
63600W        W24911  13.663   5.272   0.902
63601W        W24912   8.324   2.831  14.837
63602W        W24913  25.483  44.961   2.747
63603W        W24914   2.270  26.168  14.816
63604W        W24915  23.007  26.128  13.400
63605W        W24916  32.110  39.858   2.680
63606W        W24917   1.274   2.928   3.229
63607W        W24918   3.866  37.570   2.682
63608W        W24919  29.119  14.729  11.599
63609W        W24920   7.401  13.664  14.412
63610W        W24921  42.008  26.071  13.858
63611W        W24922  14.155   7.384  11.112
63612W        W24923  35.061  27.649  13.468
63613W        W24924  28.994  13.283   4.313
63614W        W24925   5.302  42.447  12.452
63615W        W24926  20.662  31.127  11.096
63616W        W24927  39.338  11.710   4.172
63617W        W24928   9.792  43.842   4.776
63618W        W24929   9.388  28.539  10.564
63619W        W24930  29.988  10.872  11.536
63620W        W24931   9.261   7.819   2.777
63621W        W24932   2.288  18.647   4.807
63622W        W24933  13.289  24.526   1.912
63623W        W24934  11.645  38.331  11.892
63624W        W24935  28.481   0.371   1.261
63625W        W24936  11.772  33.042  13.372
63626W        W24937   1.834  23.232  12.475
63627W        W24938  19.130   1.969   2.864
63628W        W24939  15.098   2.895   2.723
63629W        W24940  32.508  27.488   4.733
63630W        W24941  39.837  32.960   1.364
63631W        W24942   8.368  10.792  13.545
63632W        W24943  11.770  16.809   4.695
63633W        W24944   4.744  24.640   2.674
63634W        W24945  18.168  18.208  11.393
63635W        W24946  39.996  30.978   1.320
63636W        W24947  14.336  37.016   1.761
63637W        W24948  32.105   6.697  12.374
63638W        W24949  15.774  36.002   5.307
63639W        W24950  37.420  17.118   2.900
63640W        W24951  25.496  19.117  12.461
63641W        W24952  26.617  15.743   2.361
63642W        W24953  33.420  37.955  12.021
63643W        W24954  17.086  29.596  14.844
63644W        W24955  42.778  43.820  10.568
63645W        W24956   9.858  42.996   2.778
63646W        W24957   0.988  17.595  12.891
63647W        W24958  39.872  22.622  14.780
63648W        W24959   0.953  27.003  14.362
63649W        W24960  21.113  15.785   1.795
63650W        W24961   5.910  18.776  13.384
63651W        W24962  34.961  41.345   0.820
63652W        W24963  35.871  30.424   3.697
63653W        W24964  15.673  43.339  11.024
63654W        W24965  43.309  42.032  14.914
63655W        W24966   9.392   9.881  11.575
63656W        W24967  19.536  22.170  10.920
63657W        W24968   5.788  23.017   4.257
63658W        W24969  29.538  30.461  13.962
63659W        W24970  33.587  32.998   3.664
63660W        W24971  13.266   2.415   4.296
63661W        W24972  26.993  21.139  13.537
63662W        W24973  38.332  32.086  13.898
63663W        W24974  31.570  33.935  11.878
63664W        W24975  16.298  16.685   4.287
63665W        W24976  38.966  40.389  10.509
63666W        W24977  11.298  23.066   9.480
63667W        W24978  26.960  19.534   1.274
63668W        W24979   8.656  20.251   0.834
63669W        W24980  25.138  33.474  14.384
63670W        W24981   1.403  27.142  10.484
63671W        W24982  39.555   1.949   0.307
63672W        W24983  29.061  19.577  12.424
63673W        W24984   8.371  13.743   0.743
63674W        W24985  24.687  42.326  12.342
63675W        W24986  24.701   9.225  14.859
63676W        W24987  15.302  30.930   0.825
63677W        W24988  14.107  28.143  11.937
63678W        W24989  29.011  42.956   2.740
63679W        W24990   8.360   8.291  10.622
63680W        W24991  12.316  13.670   0.766
63681W        W24992  15.221  10.783  14.432
63682W        W24993  20.173   4.223   1.930
63683W        W24994  24.693   7.273  11.950
63684W        W24995   3.227  29.111  10.605
63685W        W24996  43.849  36.393  14.031
63686W        W24997  10.153  42.489   1.442
63687W        W24998  33.880  34.976  11.974
63688W        W24999  29.967   2.751   2.876
63689W        W25000   3.783  27.139  11.008
63690W        W25001   2.742  25.216   3.270
63691W        W25002  41.867  43.847  10.515
63692W        W25003  12.663  24.112  12.555
63693W        W25004   9.769   2.288   1.410
63694W        W25005  20.678  21.745   4.656
63695W        W25006  23.613  43.016   4.624
63696W        W25007  14.831  19.614   1.407
63697W        W25008  38.392  14.103  14.404
63698W        W25009  15.207   3.824  13.313
63699W        W25010   7.184   3.250   4.824
63700W        W25011  39.522  12.672  10.960
63701W        W25012  33.104  23.115   4.713
63702W        W25013   7.906  18.272   1.738
63703W        W25014   1.454  18.644   1.707
63704W        W25015  16.659  14.240  11.899
63705W        W25016   4.319  31.457  11.917
63706W        W25017  20.650  32.536   1.399
63707W        W25018  20.626  16.683   4.125
63708W        W25019   4.449  44.323  11.060
63709W        W25020   6.787  14.755   1.249
63710W        W25021  11.311   2.763   3.366
63711W        W25022  38.368  19.621  14.820
63712W        W25023  20.701   6.280  11.479
63713W        W25024  10.733   7.277   4.798
63714W        W25025   0.487  10.683  12.368
63715W        W25026  34.884  16.647   2.262
63716W        W25027  41.468   5.341   3.669
63717W        W25028   8.727  24.638   0.960
63718W        W25029  44.800  30.974  10.978
63719W        W25030   2.423   6.302  12.071
63720W        W25031  22.672   5.411   4.156
63721W        W25032   5.854  44.396  14.486
63722W        W25033  43.364  10.165   2.763
63723W        W25034  39.457   6.219  12.507
63724W        W25035  35.558  40.348  11.463
63725W        W25036  42.820  27.062  12.359
63726W        W25037  19.269   6.719   3.354
63727W        W25038  43.478   7.324  13.837
63728W        W25039  25.051  15.763  13.362
63729W        W25040   9.343  44.892   4.778
63730W        W25041  18.282  13.307  14.988
63731W        W25042  44.276   9.252   4.622
63732W        W25043  10.647  36.426   0.404
63733W        W25044  41.964  31.481   3.722
63734W        W25045  18.558  15.771  12.484
63735W        W25046  34.524  43.798   0.859
63736W        W25047  34.470  17.659   2.303
63737W        W25048   7.802   9.655  14.411
63738W        W25049  19.121  21.071  12.923
63739W        W25050  11.229   2.770   1.757
63740W        W25051  22.149  42.784   4.336
63741W        W25052  22.719  12.757  14.441
63742W        W25053   9.692  11.826   0.439
63743W        W25054   5.716  20.194   5.285
63744W        W25055  44.893  11.310   4.136
63745W        W25056   6.288  34.962   4.141
63746W        W25057  35.986  19.133  11.588
63747W        W25058  13.674  17.713   4.812
63748W        W25059  32.139  33.936  10.962
63749W        W25060   5.883  34.465  13.993
63750W        W25061   5.336  43.515   0.798
63751W        W25062  41.821  11.294   1.757
63752W        W25063  32.048  17.619   4.316
63753W        W25064  22.995  14.255  13.390
63754W        W25065   1.885  12.632  10.912
63755W        W25066  21.719  15.240   4.249
63756W        W25067  44.876   3.306   4.315
63757W        W25068  41.840  15.741   1.700
63758W        W25069  24.720   3.712   0.846
63759W        W25070  16.305   9.231  10.539
63760W        W25071  14.140  42.292   3.713
63761W        W25072   5.697  43.968   2.730
63762W        W25073  20.227  28.579   2.781
63763W        W25074   3.773  33.583  12.066
63764W        W25075  10.161   2.326   3.702
63765W        W25076  31.558  24.672   1.228
63766W        W25077  29.513  24.496   4.646
63767W        W25078   5.280  42.353   0.758
63768W        W25079  15.650  25.187   2.230
63769W        W25080  11.706  27.085   0.312
63770W        W25081  33.556   7.244  11.857
63771W        W25082   0.928  31.955   5.308
63772W        W25083  41.789  19.182   2.359
63773W        W25084  36.472   1.427   0.297
63774W        W25085   5.416   0.345   0.244
63775W        W25086  30.965  16.586   2.765
63776W        W25087   5.302  43.933   3.370
63777W        W25088  43.408  39.922  12.892
63778W        W25089   4.420  10.736  13.982
63779W        W25090  34.583  29.137  11.107
63780W        W25091   6.246  19.577   3.741
63781W        W25092   9.687  22.731  11.857
63782W        W25093   2.807  29.539  12.479
63783W        W25094  10.821   0.751  13.033
63784W        W25095  37.038   4.866   0.750
63785W        W25096   8.370  36.559  14.778
63786W        W25097  23.212  42.853   4.771
63787W        W25098  12.199  19.132   2.841
63788W        W25099   6.724  19.588  12.944
63789W        W25100  18.747  10.355   2.298
63790W        W25101  40.310  25.587   0.905
63791W        W25102  13.753  42.347  13.507
63792W        W25103   1.300  35.014   0.265
63793W        W25104  31.523  16.130  11.055
63794W        W25105  38.066  37.561   3.842
63795W        W25106   4.759  20.660  10.947
63796W        W25107  19.199  30.060   1.696
63797W        W25108  40.443   5.332  14.309
63798W        W25109  19.579  28.974  12.547
63799W        W25110  42.781  15.604   3.710
63800W        W25111   7.704  39.556   4.692
63801W        W25112   4.418  36.446   4.735
63802W        W25113  35.472  42.966   0.344
63803W        W25114  34.406  28.671  12.519
63804W        W25115  16.617   0.370  13.539
63805W        W25116  22.706  24.501  12.415
63806W        W25117  11.290   5.845  14.971
63807W        W25118  22.093  31.923   3.851
63808W        W25119  41.342  41.803  11.529
63809W        W25120  40.356  26.617   5.164
63810W        W25121   6.794   8.252   3.648
63811W        W25122  33.401  31.143   2.391
63812W        W25123  11.210  36.526  12.348
63813W        W25124  20.095   7.764   0.428
63814W        W25125  36.541  22.741   1.922
63815W        W25126  33.523  30.517   4.763
63816W        W25127   0.394  17.246  11.449
63817W        W25128   8.746   5.400  13.467
63818W        W25129  30.604  11.374  13.929
63819W        W25130  14.809  23.525  14.791
63820W        W25131  36.897  41.517  13.038
63821W        W25132  22.244  15.673  12.544
63822W        W25133  33.565   1.855   4.172
63823W        W25134  33.890  32.489  13.887
63824W        W25135  15.631  12.161   3.834
63825W        W25136  40.416  30.146  10.545
63826W        W25137  41.316  15.637   5.285
63827W        W25138  42.963  18.716   2.804
63828W        W25139  15.085  44.776  13.346
63829W        W25140  21.690  22.699   0.966
63830W        W25141  39.855  23.141  12.429
63831W        W25142  30.939  39.004   1.696
63832W        W25143  11.653  17.786  12.986
63833W        W25144   1.372  17.758  12.449
63834W        W25145  36.365  44.921   3.632
63835W        W25146  37.845  11.818  10.418
63836W        W25147  11.313  31.582   4.246
63837W        W25148  44.448   9.812   1.844
63838W        W25149  27.610  22.145  11.539
63839W        W25150   0.848   5.222  13.909
63840W        W25151  14.690  20.056  14.018
63841W        W25152  12.794   7.695   3.662
63842W        W25153  17.249  25.058  12.528
63843W        W25154  38.988  36.437   1.286
63844W        W25155  17.146  29.663   2.267
63845W        W25156  18.192  21.520  13.044
63846W        W25157  43.406   9.695   4.190
63847W        W25158  39.826  16.170  12.909
63848W        W25159  34.486  18.296   3.343
63849W        W25160   0.408  26.993   1.787
63850W        W25161  40.963  14.276  11.411
63851W        W25162  16.638  38.363  13.831
63852W        W25163  21.638   0.841  14.898
63853W        W25164  42.469  29.449  14.957
63854W        W25165  27.498  23.144  12.508
63855W        W25166  32.939   0.413  11.439
63856W        W25167   7.214  30.474   1.443
63857W        W25168  36.864   3.941   3.796
63858W        W25169   0.752  29.426  12.827
63859W        W25170  13.748  42.498  10.542
63860W        W25171  41.937  12.216   3.198
63861W        W25172  25.497  12.783   0.477
63862W        W25173  23.514  37.432  12.518
63863W        W25174  25.477  35.938   5.161
63864W        W25175   0.822  15.133  13.829
63865W        W25176  39.360  10.240  14.385
63866W        W25177  41.852  44.419   4.125
63867W        W25178  21.070  40.947  12.521
63868W        W25179  12.260  36.955  14.808
63869W        W25180  17.706   3.234  14.275
63870W        W25181  24.993  10.194  11.066
63871W        W25182  42.424   3.376   1.838
63872W        W25183  13.748  29.941   4.218
63873W        W25184  24.027  38.507  14.795
63874W        W25185  33.973  16.222   2.826
63875W        W25186  43.873  25.108  12.878
63876W        W25187  23.501  30.949   0.930
63877W        W25188   5.422  28.498   0.926
63878W        W25189  39.954  36.572  10.995
63879W        W25190  41.876  14.338  11.864
63880W        W25191   2.922   9.165   2.284
63881W        W25192   4.447  35.020   4.745
63882W        W25193  41.024   0.901  12.403
63883W        W25194  30.154  23.635   2.707
63884W        W25195  30.538  17.167  13.348
63885W        W25196  40.544  42.888  10.981
63886W        W25197   0.886  23.490   1.921
63887W        W25198  41.474  25.598  10.453
63888W        W25199   1.271  13.163   0.448
63889W        W25200  32.573  44.304  13.454
63890W        W25201  23.067  36.980   2.275
63891W        W25202   5.356  33.511  12.443
63892W        W25203  42.831  26.165   0.350
63893W        W25204  27.505   7.744  11.114
63894W        W25205   3.248  24.227  10.897
63895W        W25206   2.370  41.463   5.161
63896W        W25207  25.088  12.175  12.359
63897W        W25208   0.825  16.210   3.359
63898W        W25209  14.710  27.132  10.159
63899W        W25210  44.827  39.525  13.970
63900W        W25211  25.522  44.446  13.995
63901W        W25212  24.642   6.748   4.172
63902W        W25213  16.082  22.692   4.320
63903W        W25214  20.746  33.573  14.987
63904W        W25215  38.881  40.839   0.796
63905W        W25216  43.775  40.859   1.254
63906W        W25217  14.229   0.375  14.386
63907W        W25218   1.446  29.577   3.769
63908W        W25219  29.529   9.861   4.115
63909W        W25220   5.325  19.056   3.211
63910W        W25221  23.056  15.150   3.353
63911W        W25222   9.219  21.555  14.888
63912W        W25223  18.613  42.961   0.309
63913W        W25224  40.439  33.986  12.924
63914W        W25225  19.237  14.128  12.028
63915W        W25226   6.767  16.233   0.740
63916W        W25227   2.448   4.725   1.732
63917W        W25228  40.547   5.293   4.717
63918W        W25229  32.593  16.294  11.991
63919W        W25230  26.995  26.192   2.236
63920W        W25231  32.975  15.269   3.858
63921W        W25232  18.702  33.036   1.720
63922W        W25233  36.876  16.702  12.015
63923W        W25234   8.340  32.483  12.986
63924W        W25235  24.618   5.753  13.888
63925W        W25236  27.101   4.918  12.837
63926W        W25237  19.215   0.816  13.800
63927W        W25238  14.790  19.718  12.892
63928W        W25239  12.315   7.238   2.730
63929W        W25240  23.685  17.136  13.869
63930W        W25241  43.327   4.914  13.025
63931W        W25242  20.046  42.282   2.381
63932W        W25243  18.683   5.722   3.297
63933W        W25244  27.167  29.128   1.331
63934W        W25245   9.256  39.041  10.129
63935W        W25246  27.546  35.925  10.921
63936W        W25247  36.047  35.926   0.476
63937W        W25248  18.183  20.650   1.278
63938W        W25249   3.916   9.810   0.407
63939W        W25250  32.475  14.630  14.825
63940W        W25251   6.268   7.400   1.428
63941W        W25252  18.131  28.064   0.816
63942W        W25253  39.024  34.972   2.789
63943W        W25254  29.580  36.879  14.805
63944W        W25255  33.960  21.624  10.911
63945W        W25256   4.306  32.541  12.472
63946W        W25257  12.201  24.642  11.527
63947W        W25258  26.143   4.426   9.935
63948W        W25259  22.719  38.430  12.994
63949W        W25260  39.004  25.133   1.757
63950W        W25261  21.673  18.557   3.824
63951W        W25262   5.335  27.527   0.450
63952W        W25263  21.146  25.166   5.243
63953W        W25264  26.151  34.097  10.898
63954W        W25265   6.413  33.602   4.628
63955W        W25266  43.962  10.324  13.015
63956W        W25267  37.073  43.507   5.604
63957W        W25268   2.311  39.048  10.130
63958W        W25269  27.955   7.866   2.335
63959W        W25270   7.374  33.509   0.410
63960W        W25271  24.640   4.286   0.933
63961W        W25272  41.379  19.595   5.295
63962W        W25273  17.185  28.447  12.872
63963W        W25274  30.032  17.745  14.003
63964W        W25275  43.423  24.715  13.898
63965W        W25276  17.195  24.665   0.872
63966W        W25277   5.766  19.110  12.450
63967W        W25278  43.827  28.043   4.133
63968W        W25279  12.262  37.476  13.991
63969W        W25280  23.080  28.585  13.523
63970W        W25281  11.664  14.225  10.582
63971W        W25282  10.248  37.899  14.317
63972W        W25283  36.477  25.162   3.356
63973W        W25284   9.833  31.972  11.890
63974W        W25285   3.374  23.019  14.962
63975W        W25286  14.627   0.419   0.756
63976W        W25287  41.477  31.640  11.403
63977W        W25288  17.648  31.070   3.808
63978W        W25289   5.312  31.032   3.788
63979W        W25290  12.226  12.253   1.863
63980W        W25291  30.930  31.476   3.369
63981W        W25292  44.278  23.686   4.212
63982W        W25293  13.106  30.500  14.880
63983W        W25294  44.937  26.075  14.800
63984W        W25295   2.964  25.106   0.728
63985W        W25296  22.731   3.782   2.718
63986W        W25297   9.763   3.710   1.820
63987W        W25298  26.461  36.568  11.074
63988W        W25299  17.774  33.455  10.414
63989W        W25300  21.603  34.903  13.511
63990W        W25301  29.111  24.560  11.415
63991W        W25302  39.835  43.278  12.548
63992W        W25303  34.940   1.901  13.794
63993W        W25304  38.039  18.637  11.107
63994W        W25305  32.065  35.955  10.923
63995W        W25306  40.029  20.234  12.473
63996W        W25307  38.976  39.962   1.392
63997W        W25308  28.543  33.496   0.389
63998W        W25309  21.590  22.121   0.877
63999W        W25310  19.284  24.650  14.798
64000W        W25311  21.609  20.572  13.423
64001W        W25312  33.125   9.295   1.382
64002W        W25313  30.628  40.036  14.764
64003W        W25314  32.595  12.137  11.867
64004W        W25315  37.899  42.935  12.892
64005W        W25316  22.998  32.449  10.452
64006W        W25317  10.877  24.012  11.442
64007W        W25318  11.215  41.860  12.890
64008W        W25319  12.670   0.282  14.963
64009W        W25320  39.447  20.715  14.806
64010W        W25321  38.071  39.452   1.211
64011W        W25322  36.922  43.973  12.928
64012W        W25323  32.582  12.358  13.869
64013W        W25324  44.820  26.528  12.469
64014W        W25325  37.550  38.384   2.669
64015W        W25326  40.308  29.922   2.891
64016W        W25327  43.901   8.307  11.474
64017W        W25328  37.354  34.102   0.752
64018W        W25329  40.382  34.483   2.815
64019W        W25330  34.411   8.396  13.492
64020W        W25331  37.539  11.198  11.457
64021W        W25332  40.856  36.051   4.607
64022W        W25333  16.781  21.513   3.687
64023W        W25334  36.567  44.379  13.316
64024W        W25335  30.160  42.839   5.195
64025W        W25336   9.672   5.692  13.008
64026W        W25337  39.946  27.118  10.634
64027W        W25338  32.085   7.412   3.375
64028W        W25339   5.370   0.797  13.455
64029W        W25340   8.815   0.385   2.678
64030W        W25341  39.884  29.649  13.934
64031W        W25342   4.750  37.870   1.312
64032W        W25343   2.861  38.012   0.311
64033W        W25344  27.002   0.788   4.192
64034W        W25345   1.880  28.651   0.917
64035W        W25346  22.693  21.614   0.749
64036W        W25347  28.047  43.434   4.224
64037W        W25348  33.622  19.152   4.117
64038W        W25349  44.834  28.599  13.356
64039W        W25350  40.517  23.642  10.627
64040W        W25351   0.387   2.291  14.505
64041W        W25352  20.573  40.053   2.233
64042W        W25353  22.995  38.897  14.878
64043W        W25354   4.827  34.938   4.625
64044W        W25355   8.875  35.361  11.943
64045W        W25356   9.363  19.614  11.405
64046W        W25357  16.100  19.238   1.789
64047W        W25358  17.653  23.557  11.387
64048W        W25359   9.168   4.378   3.656
64049W        W25360  11.791  21.747   2.323
64050W        W25361  12.362  13.770  13.811
64051W        W25362   3.833   7.381   2.252
64052W        W25363  15.164  44.322  14.498
64053W        W25364  14.666  28.587   3.177
64054W        W25365   8.774   9.769   1.350
64055W        W25366   9.261  17.136   4.221
64056W        W25367  35.884  44.853  12.531
64057W        W25368   5.332  22.656   0.894
64058W        W25369  29.635  19.266   1.744
64059W        W25370  14.674  30.027  11.440
64060W        W25371  33.545  15.628  14.434
64061W        W25372   7.873  11.269  11.427
64062W        W25373  30.637  36.582  13.047
64063W        W25374  22.686  39.346   1.863
64064W        W25375  31.903  21.597   0.952
64065W        W25376  37.046  26.468  11.419
64066W        W25377  41.374  20.678  10.622
64067W        W25378   5.384  40.955  11.553
64068W        W25379  43.401  27.053  14.368
64069W        W25380  35.049   5.751   1.435
64070W        W25381  44.407   8.793   2.380
64071W        W25382   4.379  20.223  14.955
64072W        W25383  21.087  14.695  11.963
64073W        W25384   7.744  21.199   9.950
64074W        W25385  23.720   9.817  14.806
64075W        W25386  37.013  32.065   5.636
64076W        W25387  28.024  20.169  13.475
64077W        W25388  36.025  33.085   1.405
64078W        W25389  42.978  11.300   0.280
64079W        W25390  25.561   8.327  14.964
64080W        W25391  20.080  20.574  11.470
64081W        W25392  12.856  19.600   1.721
64082W        W25393   2.349  20.166   4.805
64083W        W25394  12.779  27.062   0.408
64084W        W25395  34.885  22.192   0.757
64085W        W25396  28.479   2.939  10.091
64086W        W25397  44.270  32.069   4.121
64087W        W25398   7.729  28.678  14.374
64088W        W25399   3.219   8.705  12.444
64089W        W25400  37.481  38.514   3.332
64090W        W25401  20.548  30.543   1.866
64091W        W25402   0.477   4.792  14.334
64092W        W25403   5.726  44.355   3.365
64093W        W25404  36.065   9.743   4.771
64094W        W25405  32.446  13.789   3.682
64095W        W25406  35.598  22.596  14.775
64096W        W25407  34.374   0.407   2.368
64097W        W25408  21.108  30.962  11.118
64098W        W25409  13.827  23.045  11.525
64099W        W25410  26.692  43.456   3.267
64100W        W25411  29.035  42.806  13.325
64101W        W25412  31.903  44.906  10.413
64102W        W25413  30.041  29.963   3.184
64103W        W25414  43.805  17.138  12.555
64104W        W25415   3.828  17.642  12.069
64105W        W25416  27.625  19.106   3.180
64106W        W25417  39.555   6.732   2.666
64107W        W25418   8.220  43.820   2.804
64108W        W25419  24.046  13.696  14.957
64109W        W25420  36.377  16.593   2.284
64110W        W25421  14.248  11.651  11.434
64111W        W25422  29.966  42.902   1.847
64112W        W25423   0.883  20.534   1.409
64113W        W25424  14.332  38.018   4.599
64114W        W25425  41.026  21.574  14.993
64115W        W25426  38.461  33.983   4.643
64116W        W25427  43.501   9.311  13.050
64117W        W25428   1.877   6.751  10.893
64118W        W25429   0.826  29.660  14.779
64119W        W25430   2.748  28.966   2.793
64120W        W25431   6.710  11.822   3.329
64121W        W25432  16.765  17.300   9.953
64122W        W25433  40.530  38.958  10.485
64123W        W25434  19.075  24.171   1.759
64124W        W25435  33.443  28.039  14.403
64125W        W25436  24.974  28.135   4.332
64126W        W25437   9.848   3.886   0.810
64127W        W25438  24.562  24.679   1.915
64128W        W25439  17.261  14.623  12.048
64129W        W25440  32.472  24.659   3.652
64130W        W25441  37.895  43.270   2.184
64131W        W25442  17.666   9.686  13.518
64132W        W25443   3.804  27.682  13.972
64133W        W25444   2.754   3.791   0.360
64134W        W25445  34.588  29.460  13.442
64135W        W25446  40.480  38.010   3.274
64136W        W25447  26.073   1.320   0.352
64137W        W25448   3.248  10.638  10.512
64138W        W25449  25.474  30.415  14.949
64139W        W25450  26.565  40.400   0.942
64140W        W25451  39.040   9.371  14.983
64141W        W25452  36.889  33.605  14.870
64142W        W25453   7.396  34.113  12.878
64143W        W25454   5.388  15.650  12.356
64144W        W25455  44.441  20.653  13.429
64145W        W25456  13.280  12.661  14.854
64146W        W25457  19.078  27.626  11.881
64147W        W25458  14.608  22.532   9.922
64148W        W25459  24.556  44.855  12.470
64149W        W25460  21.744  13.799   2.338
64150W        W25461  18.117  11.257   4.251
64151W        W25462  31.142  35.083   2.894
64152W        W25463   7.374  27.143  10.495
64153W        W25464  37.851  42.835  11.406
64154W        W25465  34.559  25.568   3.312
64155W        W25466   9.393   6.328  10.985
64156W        W25467  18.268  26.471   3.700
64157W        W25468   4.915  24.540  13.906
64158W        W25469  38.914   3.875   4.289
64159W        W25470  23.100  21.722   4.698
64160W        W25471  10.294  31.640  11.405
64161W        W25472  34.481   3.857  13.528
64162W        W25473  17.665  30.474   5.231
64163W        W25474  13.245  22.602   1.738
64164W        W25475  31.623  14.327  14.380
64165W        W25476  20.222  28.078  12.866
64166W        W25477  21.162  24.606  11.908
64167W        W25478   7.717  16.312   0.451
64168W        W25479  39.498  10.749   2.384
64169W        W25480  30.003  29.052   1.445
64170W        W25481  44.400  19.621   2.345
64171W        W25482  12.337  41.880  10.554
64172W        W25483  20.107   5.907  11.455
64173W        W25484   0.914  21.726  14.415
64174W        W25485  23.545  13.338   3.771
64175W        W25486   1.426   6.728  12.376
64176W        W25487  19.778  22.525   4.601
64177W        W25488  38.925  23.699  14.298
64178W        W25489  20.625  39.837   1.726
64179W        W25490  15.146  13.737  12.940
64180W        W25491   9.699  38.411   0.451
64181W        W25492  12.153  19.126   0.440
64182W        W25493   4.372  21.179  10.409
64183W        W25494   0.377   3.253  11.067
64184W        W25495   2.431  21.040   1.834
64185W        W25496  17.611  31.101   4.117
64186W        W25497  39.029  13.155   0.812
64187W        W25498  33.618   0.389  12.545
64188W        W25499   2.742  43.392  14.278
64189W        W25500  41.537  25.192  14.296
64190W        W25501  43.000   4.321  12.871
64191W        W25502  38.514  13.347   4.125
64192W        W25503  29.171  16.214   2.398
64193W        W25504  13.287  16.208   4.290
64194W        W25505   2.265  36.485  13.504
64195W        W25506  27.035  24.221  13.812
64196W        W25507   4.364  25.470  13.347
64197W        W25508  32.985   8.238  14.279
64198W        W25509  26.171  40.408   4.172
64199W        W25510  38.836  25.000   3.777
64200W        W25511   3.415   9.689  11.609
64201W        W25512  11.319  10.366   4.184
64202W        W25513  11.248  37.968  10.616
64203W        W25514  33.018  42.857  13.480
64204W        W25515  10.155  30.548  12.932
64205W        W25516  19.708  26.969   4.262
64206W        W25517  35.941  25.081  10.474
64207W        W25518   4.395  36.903   2.832
64208W        W25519  44.836  34.026  12.562
64209W        W25520  36.070  12.615  13.887
64210W        W25521  42.030  31.120   2.210
64211W        W25522  44.852   5.294   2.867
64212W        W25523  42.816  35.381  13.416
64213W        W25524  27.176   4.902   3.298
64214W        W25525  44.295  44.284   1.448
64215W        W25526  23.681  17.155   9.495
64216W        W25527  11.165   0.788   0.922
64217W        W25528  32.109   2.737   1.313
64218W        W25529  44.819  35.060  10.057
64219W        W25530  37.963  43.827  12.344
64220W        W25531  43.382   5.880   2.732
64221W        W25532  29.033  14.252  11.120
64222W        W25533  26.201  33.965  12.067
64223W        W25534  24.199  17.100  10.462
64224W        W25535   3.264  38.955   3.642
64225W        W25536  41.477  38.375  14.945
64226W        W25537  40.494   5.241   2.832
64227W        W25538  25.164  14.273  11.522
64228W        W25539  43.280  17.563   2.190
64229W        W25540  43.929  37.536   4.145
64230W        W25541  30.005  25.579   0.444
64231W        W25542  30.091  23.523   1.741
64232W        W25543   4.347   3.249  14.770
64233W        W25544  34.874  25.535   4.156
64234W        W25545   2.469   0.430   4.176
64235W        W25546  23.658  33.578   1.792
64236W        W25547  39.505  42.346  10.554
64237W        W25548  19.143  13.663  11.865
64238W        W25549  25.522  16.780  11.098
64239W        W25550  12.743   2.722  13.500
64240W        W25551   1.907   3.761   3.183
64241W        W25552   3.333  10.867  12.078
64242W        W25553  25.535  29.928  12.949
64243W        W25554  32.936   4.328  12.385
64244W        W25555  33.047  37.431  10.641
64245W        W25556  38.474   6.923   1.746
64246W        W25557   2.847  17.301  11.910
64247W        W25558  36.866  39.953  12.959
64248W        W25559  25.685  17.242   4.647
64249W        W25560  20.624  38.822   3.300
64250W        W25561  16.318   2.426   3.203
64251W        W25562  17.193  12.765  12.927
64252W        W25563  20.643  20.571  10.462
64253W        W25564  38.063  40.847  14.846
64254W        W25565  43.809  25.198  11.924
64255W        W25566  29.146  17.572  12.460
64256W        W25567  32.903  40.467  11.371
64257W        W25568  31.496  32.026  11.427
64258W        W25569  42.330  38.548  11.395
64259W        W25570  17.285  20.709   1.762
64260W        W25571  22.585   5.438   3.255
64261W        W25572  32.049   8.346   3.257
64262W        W25573   2.454  10.740   2.789
64263W        W25574  31.052   0.912   1.886
64264W        W25575  23.160   3.334  13.937
64265W        W25576  25.617  35.067   4.672
64266W        W25577  26.552  25.590   0.279
64267W        W25578  36.001  22.008   1.769
64268W        W25579   1.267   5.798   0.290
64269W        W25580   0.975  30.541  10.159
64270W        W25581  37.505  11.288  13.798
64271W        W25582  26.958  23.062  11.443
64272W        W25583  41.344  23.682   0.349
64273W        W25584  24.562  35.897   2.858
64274W        W25585  19.093  42.415   0.456
64275W        W25586  12.263  28.128  11.380
64276W        W25587  17.284  39.860   4.795
64277W        W25588  40.799   1.306   4.762
64278W        W25589  24.040  29.052  13.036
64279W        W25590   5.690  16.723  11.538
64280W        W25591  44.772  19.685   3.200
64281W        W25592  35.549  32.477  14.293
64282W        W25593  28.658  35.560   4.658
64283W        W25594   9.768  42.023   3.175
64284W        W25595  29.503  14.654  14.444
64285W        W25596  10.338  34.456   4.664
64286W        W25597  15.656  30.658  14.852
64287W        W25598  13.602  41.534  13.381
64288W        W25599   0.785   9.726  11.546
64289W        W25600  29.511  25.584  11.405
64290W        W25601  10.156  43.327  11.002
64291W        W25602  22.744  41.414  13.018
64292W        W25603  19.739  18.272  12.065
64293W        W25604  40.843  43.348   0.884
64294W        W25605  40.457  31.642   4.644
64295W        W25606  36.432  35.106  12.476
64296W        W25607   1.964   8.406  10.544
64297W        W25608  12.753  30.916  10.644
64298W        W25609  36.898  17.148  11.953
64299W        W25610   5.393  20.090   4.327
64300W        W25611  22.533  29.486   3.240
64301W        W25612  15.095   3.810  11.501
64302W        W25613  37.903  13.269   0.279
64303W        W25614  33.506   0.361  13.987
64304W        W25615  31.573  12.250  10.628
64305W        W25616  26.597  33.059   9.920
64306W        W25617  40.018  12.703  12.536
64307W        W25618  24.157  19.235   2.300
64308W        W25619  18.637  41.844   1.718
64309W        W25620  34.559   4.357  13.858
64310W        W25621  21.527   8.687  10.632
64311W        W25622   7.857   5.800  12.846
64312W        W25623  39.996  12.661  13.519
64313W        W25624  31.065  40.456  11.411
64314W        W25625  11.826  12.821  10.930
64315W        W25626   9.848  10.351  11.113
64316W        W25627  31.579   4.731   4.321
64317W        W25628  21.621  24.714   4.157
64318W        W25629  41.409  28.580  10.531
64319W        W25630  15.329  41.898  11.871
64320W        W25631  25.981  27.035   4.177
64321W        W25632  25.669  21.575   2.302
64322W        W25633  44.464  21.692  11.922
64323W        W25634   7.840  37.430   9.976
64324W        W25635   0.263   2.364   3.730
64325W        W25636   2.731  29.025  12.883
64326W        W25637  21.695  33.579  10.968
64327W        W25638  43.779   5.904   0.352
64328W        W25639   4.732  19.563  11.549
64329W        W25640  20.572   9.692  11.532
64330W        W25641  25.683  23.217  11.003
64331W        W25642  23.162  44.772  10.544
64332W        W25643  14.159   5.344  14.479
64333W        W25644  30.140   5.759  14.807
64334W        W25645  21.701  17.284  10.645
64335W        W25646  30.923  12.317  13.805
64336W        W25647  16.299  25.036   3.767
64337W        W25648  13.341  44.942   2.336
64338W        W25649  33.071   2.763   2.821
64339W        W25650  17.732  33.968  12.472
64340W        W25651  29.536  24.647  12.406
64341W        W25652  11.811  23.592  14.303
64342W        W25653  41.003  39.457  11.911
64343W        W25654  39.353  25.128   3.842
64344W        W25655  18.294  27.950   3.298
64345W        W25656  33.027  14.659  10.465
64346W        W25657  23.146   6.237  13.869
64347W        W25658  35.976  12.797  10.608
64348W        W25659  15.210   2.408  13.500
64349W        W25660   6.322  27.008   1.261
64350W        W25661  40.388  25.965   4.816
64351W        W25662  15.692  39.334   1.261
64352W        W25663  14.834  28.998   0.791
64353W        W25664  40.350  24.611   0.445
64354W        W25665  42.434  36.440  14.512
64355W        W25666  35.473  25.667   3.780
64356W        W25667  40.031  30.942   0.412
64357W        W25668  25.145  35.944  12.983
64358W        W25669   0.761  41.474   4.754
64359W        W25670  29.102  30.949   0.443
64360W        W25671  43.899  25.649  13.967
64361W        W25672  14.330  31.577  14.828
64362W        W25673  28.506  36.076  12.554
64363W        W25674  20.268  31.442   0.910
64364W        W25675  33.072   1.337  13.912
64365W        W25676  42.452  13.708  11.582
64366W        W25677  20.746  12.128  10.465
64367W        W25678  43.821  38.983   0.472
64368W        W25679  44.829  34.102   2.852
64369W        W25680  42.908  29.666   4.277
64370W        W25681  35.944  15.190  12.528
64371W        W25682  27.638  42.030   3.744
64372W        W25683  44.770  18.546   2.757
64373W        W25684   9.868  26.146  11.481
64374W        W25685  13.635  12.340   2.710
64375W        W25686  10.648  24.555  14.827
64376W        W25687   2.239  23.102   4.675
64377W        W25688   3.933   1.763  13.931
64378W        W25689  35.362  22.052  11.949
64379W        W25690  39.314   2.882   4.753
64380W        W25691  10.156  39.487   0.278
64381W        W25692  41.981  30.075   2.275
64382W        W25693  18.572  38.434   9.623
64383W        W25694   4.733   2.828   2.343
64384W        W25695  41.786  41.368   5.113
64385W        W25696  12.333   4.735   2.823
64386W        W25697  20.116  13.229   1.340
64387W        W25698  38.353  44.772   4.718
64388W        W25699  29.425  20.704   0.920
64389W        W25700  18.589  32.451   0.454
64390W        W25701   8.841   3.360  10.641
64391W        W25702  24.174   7.280   1.321
64392W        W25703  12.308  32.409  11.022
64393W        W25704  33.417  40.532   0.770
64394W        W25705  29.630   9.860  11.958
64395W        W25706  12.674  11.865  14.387
64396W        W25707  13.772  43.879  12.931
64397W        W25708  20.555   1.944  14.283
64398W        W25709  17.250  40.501  13.340
64399W        W25710  11.308   2.940  11.882
64400W        W25711  28.490  28.565  10.890
64401W        W25712  22.155  31.429  12.467
64402W        W25713  41.981  27.110  13.382
64403W        W25714  39.972  16.768   0.389
64404W        W25715   7.887  23.626   1.816
64405W        W25716  20.560   7.389   3.193
64406W        W25717  40.798  40.890  13.051
64407W        W25718  43.391  37.969  11.943
64408W        W25719  19.657  10.858  11.472
64409W        W25720  44.809  25.978   0.966
64410W        W25721  35.547  20.223   2.320
64411W        W25722  10.793  37.551  10.530
64412W        W25723  15.243  19.731  14.822
64413W        W25724   1.480   6.245   3.717
64414W        W25725  14.186  20.247  11.959
64415W        W25726  20.743   7.175   2.828
64416W        W25727  11.764  23.138  11.934
64417W        W25728  39.500   8.345   1.402
64418W        W25729  29.521  35.513  11.455
64419W        W25730  25.634   6.890   1.370
64420W        W25731  25.169  32.571  11.998
64421W        W25732  13.615  32.942  14.765
64422W        W25733   4.899  19.127   2.272
64423W        W25734   2.795  35.571   0.775
64424W        W25735  14.339   2.336  12.980
64425W        W25736  29.612  10.224   0.382
64426W        W25737  38.027  44.438   0.402
64427W        W25738  25.031  32.392   0.854
64428W        W25739   2.769   1.376  12.364
64429W        W25740   8.689   4.818  12.391
64430W        W25741  28.114  32.962   2.327
64431W        W25742  21.126   6.304   4.241
64432W        W25743  37.993  23.499  13.507
64433W        W25744  17.219  28.073  10.938
64434W        W25745  40.521  17.060   1.754
64435W        W25746  33.600  24.159  12.452
64436W        W25747  22.153  10.747  11.435
64437W        W25748  36.037  19.735   3.199
64438W        W25749   7.401  23.710   4.791
64439W        W25750   6.693  25.187   2.885
64440W        W25751  30.104  16.738  13.032
64441W        W25752  39.837  33.421   4.672
64442W        W25753  38.548  32.612   3.248
64443W        W25754  29.616  29.587   0.961
64444W        W25755  27.654  40.413  14.424
64445W        W25756  17.150  16.110   1.927
64446W        W25757   3.833  16.670   2.248
64447W        W25758  26.520  11.142  14.025
64448W        W25759  15.754   3.417  13.984
64449W        W25760  38.506  28.998  14.378
64450W        W25761  40.377   9.169   1.217
64451W        W25762   5.352  34.091  14.763
64452W        W25763  32.948  34.443   4.211
64453W        W25764  43.970  15.096   2.732
64454W        W25765  39.824  35.442  12.963
64455W        W25766  20.580  18.071   2.276
64456W        W25767  40.973  43.802  14.004
64457W        W25768  28.499  44.778   1.438
64458W        W25769  36.433  11.646   2.782
64459W        W25770  37.363  12.809   3.827
64460W        W25771  32.978  28.022   3.283
64461W        W25772  43.926  21.735  11.510
64462W        W25773  29.070   3.860   9.983
64463W        W25774  17.279  24.020  14.966
64464W        W25775  42.407  12.834  14.505
64465W        W25776  25.037  22.023   1.861
64466W        W25777  43.939   2.322  12.443
64467W        W25778  16.600   5.783  11.944
64468W        W25779  44.334  27.688   3.707
64469W        W25780  29.646  19.286   4.621
64470W        W25781   8.836   6.736   4.708
64471W        W25782  24.640   3.804   2.382
64472W        W25783  38.562  10.165   1.272
64473W        W25784  16.314  29.430  13.973
64474W        W25785  10.745  27.002   1.298
64475W        W25786   0.450   6.216  13.542
64476W        W25787  15.147  17.280   4.737
64477W        W25788  26.491   5.733  10.950
64478W        W25789  42.472  12.146  14.484
64479W        W25790  39.329  16.775   0.798
64480W        W25791  31.068  26.191   0.459
64481W        W25792  35.025  33.959  12.381
64482W        W25793   9.304  39.525   2.724
64483W        W25794   8.181  19.116   4.203
64484W        W25795  44.332  14.677  14.310
64485W        W25796  33.614  15.774  13.377
64486W        W25797  22.633   6.856  14.984
64487W        W25798  11.859  27.575   4.610
64488W        W25799  40.977   3.271  12.988
64489W        W25800   3.852  44.433  11.401
64490W        W25801  28.480  22.529   3.247
64491W        W25802  42.328   5.856   0.325
64492W        W25803  44.864  37.379   0.914
64493W        W25804  31.574  19.641  13.417
64494W        W25805  11.371  15.167  11.022
64495W        W25806  17.735  13.683  14.808
64496W        W25807  42.422  16.812   0.277
64497W        W25808  34.498  30.528  14.819
64498W        W25809  31.146  41.501  13.544
64499W        W25810  35.040  20.732  10.412
64500W        W25811   5.239  26.517   3.266
64501W        W25812  17.634  23.649  14.868
64502W        W25813  28.975  15.093   0.760
64503W        W25814  28.649  30.125  12.458
64504W        W25815  34.028  37.579  10.410
64505W        W25816  16.238   4.897   5.619
64506W        W25817  24.704   4.372   2.684
64507W        W25818  15.758  17.272   1.268
64508W        W25819   5.429   2.807  14.308
64509W        W25820  40.467  27.191   3.655
64510W        W25821   4.913  33.107   0.882
64511W        W25822  11.623  29.991  13.987
64512W        W25823  39.993  22.128   2.756
64513W        W25824  13.805  43.873  11.113
64514W        W25825  41.511  32.485   2.719
64515W        W25826  30.972  41.502  11.583
64516W        W25827   6.316  15.229  13.395
64517W        W25828   9.336  30.159  14.482
64518W        W25829  18.139   5.928  11.886
64519W        W25830   3.744   6.780   4.131
64520W        W25831  29.469   2.738  13.498
64521W        W25832  25.586  11.167   1.834
64522W        W25833  44.308  43.842   3.780
64523W        W25834   1.429  12.119   4.707
64524W        W25835   4.380  31.539   1.394
64525W        W25836  43.004  44.835   3.658
64526W        W25837   1.870  28.548   1.777
64527W        W25838  29.961   6.727   5.630
64528W        W25839  23.520  28.043   3.870
64529W        W25840  23.991  36.866   1.809
64530W        W25841  37.882   9.797  13.308
64531W        W25842   2.845  36.500   4.667
64532W        W25843   9.798  37.434   4.168
64533W        W25844  12.131   8.683  12.501
64534W        W25845   8.267   6.245  13.792
64535W        W25846  41.320  23.008   1.918
64536W        W25847   6.902  39.408  10.624
64537W        W25848  39.057  38.562   4.125
64538W        W25849  12.759  31.637   4.622
64539W        W25850  10.307  24.687   3.753
64540W        W25851   9.660  10.648  11.995
64541W        W25852  39.547  10.782  11.504
64542W        W25853  42.023  20.715   3.285
64543W        W25854   6.262  32.123  14.811
64544W        W25855  25.035  17.791  11.396
64545W        W25856  37.931  22.196  13.363
64546W        W25857   5.268   4.343   4.774
64547W        W25858   6.880  41.326  13.481
64548W        W25859  36.021  43.485   5.207
64549W        W25860  12.178  24.149   5.581
64550W        W25861  20.768  37.028  11.455
64551W        W25862  33.422   4.918  13.395
64552W        W25863  43.003  31.922   2.270
64553W        W25864  37.581   3.216   0.392
64554W        W25865   7.760  13.174   4.679
64555W        W25866  10.759  28.577   2.818
64556W        W25867   8.806  32.042   4.816
64557W        W25868  28.037  10.840   4.613
64558W        W25869  27.682  24.161  11.586
64559W        W25870  38.557   2.948  13.492
64560W        W25871  26.059  29.066  11.046
64561W        W25872  40.862  27.620  12.075
64562W        W25873  35.489   5.325   2.808
64563W        W25874   1.294  42.982  13.348
64564W        W25875  39.957   8.875   0.260
64565W        W25876   2.377   4.814  13.804
64566W        W25877   8.287  33.961   2.853
64567W        W25878  11.658  18.655  10.910
64568W        W25879  27.045  16.597  13.825
64569W        W25880  30.611  25.576  14.940
64570W        W25881   3.450  37.872  12.535
64571W        W25882  43.845  35.388   1.928
64572W        W25883  18.705  22.241  10.416
64573W        W25884  44.412  20.076   0.400
64574W        W25885  30.018  36.511   1.351
64575W        W25886   1.447  16.608   4.776
64576W        W25887  32.418  43.929   3.150
64577W        W25888   2.921  36.480  14.505
64578W        W25889  24.214   5.284   1.702
64579W        W25890  43.297  28.032  14.863
64580W        W25891  17.694  17.640   2.724
64581W        W25892  37.022  26.653   4.666
64582W        W25893  24.629   0.950  11.468
64583W        W25894   7.361  34.409   4.599
64584W        W25895  29.527   7.773   9.634
64585W        W25896   0.423  34.912   2.819
64586W        W25897   3.721  38.505   0.845
64587W        W25898  27.670  35.981   3.712
64588W        W25899  33.497  25.611   1.935
64589W        W25900  12.311  17.068   3.827
64590W        W25901  25.128  36.870   2.872
64591W        W25902   4.295   7.268  14.762
64592W        W25903  16.779  11.780  10.414
64593W        W25904  26.126  26.965   3.302
64594W        W25905   1.914  32.137  14.876
64595W        W25906  28.122   5.831  12.828
64596W        W25907  38.381  42.956   1.413
64597W        W25908  30.416  14.168  11.445
64598W        W25909  38.539  29.656   0.764
64599W        W25910   4.340  36.856  12.456
64600W        W25911  19.695   0.388   1.759
64601W        W25912  26.703  16.222   1.715
64602W        W25913  17.643  25.547   2.779
64603W        W25914  11.257  29.464   3.813
64604W        W25915   5.756  21.079  12.524
64605W        W25916   8.811   1.799  12.864
64606W        W25917  23.039  16.633   2.874
64607W        W25918  27.133   6.289  13.437
64608W        W25919  20.570   6.901  13.408
64609W        W25920  28.480  39.830  11.373
64610W        W25921   5.791  38.349  13.870
64611W        W25922  33.601  27.637   3.748
64612W        W25923  20.207  27.543  10.621
64613W        W25924  23.663  20.641  11.418
64614W        W25925  34.522  11.758   0.422
64615W        W25926  26.196  21.737  10.114
64616W        W25927  37.034  25.574  12.497
64617W        W25928  44.402  15.796  14.283
64618W        W25929  25.087  30.580  13.037
64619W        W25930  31.026   6.373  11.107
64620W        W25931  38.354  24.066  14.959
64621W        W25932  21.709  29.123  10.506
64622W        W25933   7.746  37.502   4.822
64623W        W25934  39.335  25.506  12.350
64624W        W25935  29.440  12.831   4.120
64625W        W25936  44.002   4.211  14.440
64626W        W25937  40.993  35.966   3.796
64627W        W25938  37.452  20.260  14.960
64628W        W25939  10.743  29.075  13.020
64629W        W25940  15.718   2.900  11.543
64630W        W25941  33.505  11.757  13.059
64631W        W25942  38.426  26.957   0.814
64632W        W25943  16.133  39.364   4.265
64633W        W25944  25.035   2.292   1.735
64634W        W25945  30.036   1.411   4.253
64635W        W25946   3.242  27.176  11.477
64636W        W25947  21.090  31.982  12.072
64637W        W25948  18.222   4.933  10.979
64638W        W25949  31.064  31.975  13.826
64639W        W25950  25.683  23.524   2.672
64640W        W25951  17.775  18.579   3.660
64641W        W25952  43.932   4.243  13.488
64642W        W25953  14.833  17.758   3.241
64643W        W25954  11.136  43.272   2.363
64644W        W25955  39.906   4.432   2.835
64645W        W25956  36.391  27.046   3.734
64646W        W25957  32.068  43.790  14.352
64647W        W25958  19.596  38.924   0.479
64648W        W25959  37.348  31.984   0.816
64649W        W25960   3.364   2.368  14.394
64650W        W25961   5.761  35.566   1.380
64651W        W25962  26.993  40.445  11.895
64652W        W25963  22.023   1.831  11.098
64653W        W25964  27.670   5.707  11.500
64654W        W25965  31.972   0.411   1.751
64655W        W25966  32.529  10.678   2.396
64656W        W25967   0.363  17.716   3.742
64657W        W25968  42.960   5.213   1.736
64658W        W25969   7.692  44.968  14.499
64659W        W25970   2.772  30.585  13.313
64660W        W25971  39.985  28.029   4.127
64661W        W25972   9.721  23.138  14.922
64662W        W25973  33.961  11.257   0.885
64663W        W25974   9.847  44.342  11.864
64664W        W25975  25.657  10.151  14.279
64665W        W25976  41.417  41.960  14.963
64666W        W25977  29.595  21.223  14.946
64667W        W25978   3.725  23.605  13.890
64668W        W25979  43.004  41.966   3.646
64669W        W25980  35.471  34.478   1.232
64670W        W25981  42.886  39.839   1.300
64671W        W25982   7.404  12.205   3.826
64672W        W25983  17.114  44.402   0.359
64673W        W25984  15.267   2.825   0.262
64674W        W25985  20.597  15.581   4.342
64675W        W25986  19.708  10.227  14.478
64676W        W25987  31.943  24.603   4.282
64677W        W25988  22.525   1.875   1.817
64678W        W25989   0.361  24.662  11.566
64679W        W25990  12.823  13.763  12.348
64680W        W25991  40.864  32.500  13.856
64681W        W25992  33.388  39.040  13.030
64682W        W25993  41.405  42.505   4.238
64683W        W25994  32.442  12.186   2.833
64684W        W25995  43.951  39.034   1.748
64685W        W25996  44.402  17.306  14.349
64686W        W25997  18.191   4.698   4.777
64687W        W25998  14.736  29.562   0.747
64688W        W25999  23.206  36.373  10.926
64689W        W26000  12.208   0.369   1.830
64690W        W26001  32.596  26.550  14.429
64691W        W26002   8.333  30.471  10.903
64692W        W26003  30.433  40.359   4.638
64693W        W26004  38.947  33.035  12.006
64694W        W26005  28.570  12.828  13.532
64695W        W26006  23.496  25.185   1.325
64696W        W26007  34.009   5.404  11.402
64697W        W26008  37.527  22.732   5.099
64698W        W26009  37.437  32.070   3.640
64699W        W26010   6.873  25.574  13.864
64700W        W26011  11.276  11.651  11.983
64701W        W26012   2.765  18.257   1.447
64702W        W26013  15.254  28.145   5.130
64703W        W26014  23.734  25.510  12.040
64704W        W26015  40.421  10.794   0.787
64705W        W26016   0.261   4.312   2.735
64706W        W26017  31.623  13.779   2.360
64707W        W26018  16.220  44.884  13.368
64708W        W26019  12.838  41.962   0.318
64709W        W26020  26.990  20.036  12.968
64710W        W26021  42.340  44.299  10.508
64711W        W26022  12.731   3.878   3.156
64712W        W26023  43.386   6.311   4.339
64713W        W26024  20.751  14.810   1.258
64714W        W26025  40.912  19.253  13.967
64715W        W26026  21.030   8.718  14.933
64716W        W26027  21.180  41.031   4.620
64717W        W26028  35.435  10.756   4.299
64718W        W26029  15.746  35.026  13.432
64719W        W26030   2.297  23.662  11.457
64720W        W26031  42.393  34.076   4.704
64721W        W26032  38.508  22.623   0.838
64722W        W26033  32.501   5.193  12.872
64723W        W26034  31.629  19.264  13.522
64724W        W26035  23.625  12.679  11.375
64725W        W26036  26.160   4.450   0.246
64726W        W26037  17.135  15.093  12.506
64727W        W26038  12.336  37.006  13.986
64728W        W26039   1.390  26.107  14.928
64729W        W26040  36.885   4.727   4.744
64730W        W26041  22.530  41.293  12.056
64731W        W26042  42.004  27.603  11.484
64732W        W26043  21.071  15.595  14.441
64733W        W26044   1.305  35.600   4.158
64734W        W26045   0.250   4.859   4.156
64735W        W26046  43.895  37.952   0.825
64736W        W26047  27.478   6.401  14.332
64737W        W26048  25.176   9.265   4.204
64738W        W26049  33.120  11.837  11.965
64739W        W26050  39.430  43.836  13.822
64740W        W26051  13.633  15.252   4.219
64741W        W26052  17.259  22.637  14.292
64742W        W26053  14.795  14.105   1.738
64743W        W26054   7.777   5.773  11.462
64744W        W26055  28.603  20.221  11.594
64745W        W26056  25.536  22.069   3.249
64746W        W26057  36.501   3.780  10.488
64747W        W26058   2.340   7.753   1.391
64748W        W26059  40.414  20.249  14.995
64749W        W26060   7.882  13.743   1.866
64750W        W26061  15.809   5.402  14.484
64751W        W26062  18.111  34.413  14.023
64752W        W26063  11.257  17.646   4.707
64753W        W26064  33.524   7.851  14.990
64754W        W26065  24.006  41.507  11.042
64755W        W26066   4.390  29.569   2.232
64756W        W26067   8.803  44.447  11.000
64757W        W26068  31.412  39.920   3.353
64758W        W26069  24.652  28.524   4.195
64759W        W26070  15.747   4.314  10.622
64760W        W26071  36.005  15.796   4.610
64761W        W26072  33.486  39.486   2.222
64762W        W26073  12.306  17.231  11.974
64763W        W26074  36.983  32.580   2.731
64764W        W26075  33.423  30.937   4.633
64765W        W26076  39.423  39.507   0.946
64766W        W26077  37.890  35.091  12.076
64767W        W26078  27.116  19.144   1.355
64768W        W26079  42.892   2.457  11.592
64769W        W26080  35.004   2.763  12.428
64770W        W26081  27.050  33.597  12.839
64771W        W26082  40.973  10.673   1.383
64772W        W26083  32.951  26.150  14.334
64773W        W26084   3.304  42.389   0.767
64774W        W26085  10.163   5.820  12.071
64775W        W26086   4.311  36.906   3.696
64776W        W26087   0.293   5.418   1.857
64777W        W26088  25.998  24.612   4.114
64778W        W26089  35.934   2.277   2.830
64779W        W26090  28.969  15.648  10.892
64780W        W26091  27.499  37.942  11.463
64781W        W26092  13.823  44.876   4.627
64782W        W26093   8.332   9.213  12.831
64783W        W26094  41.855  44.835  14.293
64784W        W26095   4.340   3.450  13.919
64785W        W26096   6.693  34.395   0.323
64786W        W26097  15.211  40.447   0.435
64787W        W26098  19.554  22.666  14.931
64788W        W26099  29.463  22.689  14.899
64789W        W26100   0.904  41.302   0.287
64790W        W26101  38.381   2.951   0.882
64791W        W26102  14.766   2.764   5.716
64792W        W26103  14.771  38.865   3.808
64793W        W26104   5.906   3.727  10.547
64794W        W26105  27.154  43.794   2.265
64795W        W26106  37.451  41.012  11.393
64796W        W26107  30.593  23.044  13.482
64797W        W26108  34.573  12.747   2.277
64798W        W26109  23.134   1.745  10.488
64799W        W26110   7.748   2.257  10.483
64800W        W26111  42.359  19.660   1.310
64801W        W26112  14.215  36.429  13.526
64802W        W26113  11.146  43.979   1.361
64803W        W26114  30.130  20.695  10.571
64804W        W26115   5.345  11.651  12.486
64805W        W26116   3.280   1.966  13.340
64806W        W26117  39.535  40.984  13.328
64807W        W26118  26.644  18.690  10.523
64808W        W26119  44.786  15.614  11.101
64809W        W26120  11.647  38.039   4.693
64810W        W26121  36.529  10.374  14.505
64811W        W26122  44.326  40.424   9.962
64812W        W26123  35.449  44.850  10.995
64813W        W26124  28.470  10.870   0.799
64814W        W26125  37.922  25.190   2.241
64815W        W26126  13.784  31.131   2.705
64816W        W26127   1.459  37.494   1.417
64817W        W26128  29.101  42.403  12.379
64818W        W26129  31.005  32.406   0.745
64819W        W26130  25.168  39.053  13.542
64820W        W26131  19.761  35.854   4.325
64821W        W26132  42.884  25.020  12.457
64822W        W26133   0.332   8.383  12.414
64823W        W26134  21.547  43.469  14.408
64824W        W26135  11.321  26.563   4.118
64825W        W26136  13.217   6.228  12.027
64826W        W26137  33.530   4.313  10.537
64827W        W26138  20.620  18.268  10.520
64828W        W26139  22.130  17.131   1.315
64829W        W26140  44.498  43.335   3.345
64830W        W26141  44.325   5.376  14.018
64831W        W26142  27.536   6.420  14.762
64832W        W26143  21.538  24.045  10.583
64833W        W26144   3.923  41.349  13.971
64834W        W26145   1.422   9.820  14.787
64835W        W26146  14.675  18.608  14.425
64836W        W26147   6.810   6.205  12.867
64837W        W26148  42.972  15.102   0.344
64838W        W26149  44.479  37.027  14.508
64839W        W26150  15.822  13.343  11.498
64840W        W26151  13.614  21.083   2.415
64841W        W26152   7.246  34.484  14.482
64842W        W26153  44.439  12.222  14.860
64843W        W26154   9.706  36.425   3.147
64844W        W26155  25.010  32.601   2.195
64845W        W26156  14.192  26.632  14.938
64846W        W26157  10.707  11.291  14.452
64847W        W26158  42.849   4.304   1.288
64848W        W26159   7.782  19.285   0.454
64849W        W26160   3.415  36.552   1.446
64850W        W26161  22.196   0.417  12.978
64851W        W26162  33.486  27.131  10.500
64852W        W26163  29.641  43.007   2.827
64853W        W26164  21.134  30.581   3.357
64854W        W26165  37.892  25.513   0.906
64855W        W26166  40.327   5.418  10.553
64856W        W26167  33.510  19.639  11.983
64857W        W26168  42.957  39.810   0.390
64858W        W26169  37.486  26.463   2.185
64859W        W26170  31.117  27.452   1.778
64860W        W26171   7.815  19.120  13.957
64861W        W26172  31.906  29.957   1.307
64862W        W26173   1.368  20.545  11.556
64863W        W26174  20.091  28.111  14.440
64864W        W26175  42.422  36.546   1.369
64865W        W26176  38.858   2.864  13.470
64866W        W26177  16.674   7.243  12.954
64867W        W26178  29.993  15.328  11.102
64868W        W26179  42.905  17.268   0.764
64869W        W26180   7.369  17.147   1.450
64870W        W26181  18.780  14.788   0.785
64871W        W26182  10.769  12.792  14.357
64872W        W26183   6.760  17.783   0.301
64873W        W26184  12.123   3.269   3.655
64874W        W26185  37.496  14.712   2.273
64875W        W26186  34.487   3.426  13.804
64876W        W26187  38.439  10.363  10.439
64877W        W26188  29.169  20.687  11.894
64878W        W26189  22.516  15.666  14.928
64879W        W26190  41.892  20.038   4.777
64880W        W26191  30.459   2.937   0.306
64881W        W26192   9.158   6.887  13.037
64882W        W26193  11.281  22.123   1.427
64883W        W26194  39.915  24.501  11.896
64884W        W26195   9.846   8.678   4.274
64885W        W26196  29.106  40.959  10.543
64886W        W26197   1.417   6.320   1.367
64887W        W26198  25.543  33.098   1.438
64888W        W26199  33.118  19.081   4.824
64889W        W26200  16.187  13.322   3.744
64890W        W26201   3.913  17.080   3.298
64891W        W26202  39.500  23.109  14.004
64892W        W26203   8.275  34.482  14.866
64893W        W26204  34.028  23.032  11.113
64894W        W26205  34.952  41.405  13.929
64895W        W26206  13.723  14.254  13.837
64896W        W26207  12.731  44.790   2.364
64897W        W26208  32.902  13.707   1.340
64898W        W26209   5.249  27.457  11.004
64899W        W26210  32.435  33.890  14.999
64900W        W26211  29.087  11.192  14.328
64901W        W26212   4.257  36.972   4.275
64902W        W26213  12.762  18.556   2.296
64903W        W26214  42.855   1.382  12.898
64904W        W26215  26.999  33.489  10.965
64905W        W26216  25.714   7.204   1.732
64906W        W26217  10.279   3.256  10.124
64907W        W26218  12.250   6.182   0.461
64908W        W26219  18.645  30.114   4.269
64909W        W26220  27.507   4.384   3.189
64910W        W26221  42.443  40.936   0.317
64911W        W26222  22.078  41.792   4.781
64912W        W26223   8.684   9.316  14.456
64913W        W26224  29.088  37.347  14.424
64914W        W26225  11.781  10.329   0.435
64915W        W26226  33.033  41.830   1.413
64916W        W26227  37.488  16.570  11.965
64917W        W26228  20.189  35.983   3.862
64918W        W26229  18.253  28.994  10.638
64919W        W26230   7.388  20.647  13.052
64920W        W26231  42.918  21.694  13.867
64921W        W26232  40.865   0.416   0.380
64922W        W26233  44.340  18.575  10.411
64923W        W26234  43.866  30.088   3.675
64924W        W26235  38.945  18.704   4.180
64925W        W26236  11.821  12.284   2.237
64926W        W26237   5.697  33.961  12.574
64927W        W26238  33.042  11.272   3.657
64928W        W26239   2.449  31.491   3.836
64929W        W26240  21.651   5.793   0.383
64930W        W26241   4.239  27.013   2.728
64931W        W26242   3.262  41.920   4.290
64932W        W26243   2.779  39.847  10.474
64933W        W26244  34.387  24.507  10.615
64934W        W26245  26.577  30.547   4.713
64935W        W26246  12.809  32.941   0.468
64936W        W26247  21.215  14.132  10.057
64937W        W26248  28.091  41.349   3.755
64938W        W26249   1.286   8.328  13.460
64939W        W26250  25.586  20.570  12.880
64940W        W26251  27.540   2.802   4.747
64941W        W26252  10.215  35.969   1.440
64942W        W26253  40.051  41.330   4.210
64943W        W26254  20.255   4.902  11.948
64944W        W26255  24.172   7.398   4.627
64945W        W26256   2.828   9.377  10.976
64946W        W26257  30.657  30.453   1.792
64947W        W26258   0.432  13.301  14.358
64948W        W26259  36.983   1.468   4.771
64949W        W26260  33.972   0.326  12.946
64950W        W26261  37.885  42.808   5.191
64951W        W26262  31.644  38.507  11.426
64952W        W26263  41.892  39.830   0.746
64953W        W26264  39.547   8.735   5.200
64954W        W26265  18.097  31.082  12.009
64955W        W26266  21.145  26.464  13.847
64956W        W26267  19.099  42.429   1.805
64957W        W26268  10.680  10.847  10.966
64958W        W26269  13.833   0.485   4.171
64959W        W26270  39.040  32.524  12.874
64960W        W26271  27.603  14.322  10.531
64961W        W26272  29.604  14.318   4.131
64962W        W26273  12.287  11.828   3.705
64963W        W26274   3.719  35.545   3.238
64964W        W26275  17.784  26.002  13.914
64965W        W26276   3.262   1.271  12.941
64966W        W26277  43.300   6.804   4.634
64967W        W26278  32.474  15.647  10.136
64968W        W26279  35.021  33.010   3.323
64969W        W26280  32.898   8.361   4.274
64970W        W26281  40.406  11.223  12.387
64971W        W26282  14.172  20.179   2.367
64972W        W26283  21.115  18.083   2.864
64973W        W26284  24.660  14.143   3.208
64974W        W26285  34.918   9.381   1.211
64975W        W26286   4.802  17.620   4.630
64976W        W26287  38.913  14.741   4.236
64977W        W26288  16.620  27.992  12.359
64978W        W26289  14.125   7.356   3.146
64979W        W26290  12.331  40.953   2.686
64980W        W26291  31.402  12.153   1.748
64981W        W26292  20.755  19.158   4.645
64982W        W26293  17.106  11.157   2.902
64983W        W26294  21.698  12.653   0.922
64984W        W26295  11.332  22.022   2.261
64985W        W26296  44.502  12.135  11.054
64986W        W26297  44.830   5.384   3.697
64987W        W26298  12.335  12.692  11.978
64988W        W26299  30.413   3.792   1.920
64989W        W26300   6.850  42.030  14.826
64990W        W26301  21.652  12.813  10.600
64991W        W26302  11.301   0.395  13.504
64992W        W26303  28.624  41.295  11.963
64993W        W26304  21.087   7.866  14.967
64994W        W26305  27.152  29.969   1.215
64995W        W26306  35.861  21.616   1.332
64996W        W26307   3.712  31.573   3.160
64997W        W26308  22.698  38.987   2.772
64998W        W26309   8.262  35.533  14.332
64999W        W26310   8.750  33.890   2.301
65000W        W26311  43.420  18.739  13.807
65001W        W26312  39.553  26.150   0.396
65002W        W26313   3.309  16.657   3.169
65003W        W26314  26.038   2.760   1.371
65004W        W26315   4.899  28.016  14.956
65005W        W26316  27.514  20.551   2.837
65006W        W26317  36.879  27.956  10.106
65007W        W26318  26.985  22.738   0.824
65008W        W26319  36.523  30.035   3.203
65009W        W26320  37.951  10.187  10.076
65010W        W26321  14.334  17.244   0.330
65011W        W26322   2.938  30.471  14.318
65012W        W26323  35.988  11.227  14.357
65013W        W26324  26.666  21.041   4.676
65014W        W26325   8.789  44.804   2.297
65015W        W26326  33.020   6.797   2.251
65016W        W26327  22.647   5.265   3.724
65017W        W26328   5.396  35.861  10.581
65018W        W26329  10.639  29.958   4.701
65019W        W26330  24.575  34.406   4.290
65020W        W26331  43.391  16.187   2.887
65021W        W26332  11.340  12.758   1.904
65022W        W26333  18.208  37.436  10.645
65023W        W26334  39.547   9.796  10.476
65024W        W26335   3.733   7.279   4.832
65025W        W26336  34.468  11.183  12.971
65026W        W26337   5.799  40.369  11.385
65027W        W26338   5.720   3.817   3.259
65028W        W26339  43.815  38.989  13.513
65029W        W26340  22.079  22.228   3.382
65030W        W26341   5.903  12.762  12.417
65031W        W26342  19.622  34.067  13.441
65032W        W26343  35.498  12.120  11.418
65033W        W26344  29.599   9.351  10.524
65034W        W26345   3.452  25.499   4.770
65035W        W26346  20.200  13.791   5.175
65036W        W26347  29.012  25.219  12.485
65037W        W26348   6.399  37.918   0.922
65038W        W26349  30.095  21.251  11.031
65039W        W26350  42.024  37.569  13.028
65040W        W26351  24.979  26.560   5.088
65041W        W26352  15.317  29.537   4.623
65042W        W26353  24.156  19.546  14.777
65043W        W26354  16.789  12.809  12.971
65044W        W26355   3.871  25.089  12.083
65045W        W26356   7.267  17.726  14.933
65046W        W26357  39.390  33.384   1.393
65047W        W26358   8.297   2.833  12.996
65048W        W26359   6.201   2.381  12.036
65049W        W26360  29.491  42.493   0.872
65050W        W26361   8.794  26.994   3.257
65051W        W26362  14.143  12.663   3.185
65052W        W26363  40.525  17.627   3.792
65053W        W26364  33.982  34.006  10.937
65054W        W26365  30.081  10.234  13.793
65055W        W26366   5.695  39.383  11.491
65056W        W26367  29.652  33.544   0.437
65057W        W26368  26.642  17.169   0.299
65058W        W26369  30.041   5.334  12.571
65059W        W26370  31.584  16.695  12.840
65060W        W26371  14.815  37.430  12.918
65061W        W26372   8.393   9.376   1.235
65062W        W26373  33.514  11.849  10.921
65063W        W26374  14.645  38.551   2.308
65064W        W26375  23.184   1.732   3.661
65065W        W26376   8.373   6.810   4.796
65066W        W26377   6.429  23.731  13.314
65067W        W26378  17.184   9.738  13.370
65068W        W26379  11.206  20.248  11.877
65069W        W26380  20.106  36.500   2.360
65070W        W26381  29.614  21.066  14.380
65071W        W26382   6.875   3.862  14.920
65072W        W26383  25.493  22.054   4.703
65073W        W26384  22.670   1.846  14.940
65074W        W26385  44.873  18.734   0.323
65075W        W26386  40.439   1.402  11.420
65076W        W26387  38.927  11.232  14.436
65077W        W26388  30.485  43.910   4.639
65078W        W26389  15.790   5.321  13.496
65079W        W26390  37.951   5.754  12.432
65080W        W26391  31.013  18.236  11.015
65081W        W26392   5.213  16.689  14.787
65082W        W26393  11.862  13.798   2.762
65083W        W26394  44.877   8.325   3.693
65084W        W26395  28.968  13.133  12.093
65085W        W26396  16.628   4.819   4.737
65086W        W26397  17.285  40.918  11.001
65087W        W26398  37.932  25.570   0.366
65088W        W26399  40.546  33.995  11.000
65089W        W26400  17.607  18.550  12.394
65090W        W26401  35.552  19.060  13.033
65091W        W26402   5.780  17.764   2.252
65092W        W26403  30.067  37.382  13.040
65093W        W26404  28.567  27.119   2.878
65094W        W26405  17.132  28.170   3.229
65095W        W26406   9.818  14.748   4.324
65096W        W26407  23.493   1.916   0.742
65097W        W26408  27.998   2.342   3.723
65098W        W26409  30.451  18.181  12.847
65099W        W26410  34.511  38.901   2.732
65100W        W26411  39.378  25.195  13.355
65101W        W26412  33.983   4.921  14.424
65102W        W26413   3.287   0.350   0.766
65103W        W26414  17.632  13.654   4.138
65104W        W26415  20.212  31.588   4.137
65105W        W26416  26.996  42.860  12.986
65106W        W26417   1.395  13.642   3.311
65107W        W26418   1.468  29.515  13.909
65108W        W26419  39.402  34.519  10.922
65109W        W26420  19.701  38.419  12.959
65110W        W26421  18.774  43.448   3.218
65111W        W26422  30.511  19.768   2.789
65112W        W26423  34.418  44.392   1.925
65113W        W26424  35.032  28.439  13.868
65114W        W26425  18.711  35.554   1.908
65115W        W26426  32.545  10.169  11.487
65116W        W26427  37.039  44.491  13.872
65117W        W26428  39.396  44.481   1.293
65118W        W26429   4.354  16.284  10.948
65119W        W26430  36.444   4.791  11.413
65120W        W26431  27.066   0.431   3.833
65121W        W26432  26.998  36.487   0.325
65122W        W26433  10.684  26.542  14.309
65123W        W26434   9.670  13.828  11.942
65124W        W26435  39.053  16.116  13.383
65125W        W26436  23.667  26.597  14.956
65126W        W26437  13.295   0.297   0.314
65127W        W26438  18.291  11.293  10.965
65128W        W26439   5.207  30.928  14.368
65129W        W26440  36.987   4.747  12.980
65130W        W26441  31.601  21.102   1.215
65131W        W26442  28.959  33.025  11.530
65132W        W26443   0.489  20.540   4.217
65133W        W26444  13.344  11.811   0.856
65134W        W26445   4.401  16.215  12.412
65135W        W26446  29.134  33.591   0.932
65136W        W26447  21.674  25.161  12.473
65137W        W26448  44.395  11.718  11.953
65138W        W26449  37.861  10.645  10.975
65139W        W26450  30.999  34.050  12.900
65140W        W26451  40.976   1.945   2.860
65141W        W26452   8.822  10.154   2.356
65142W        W26453  19.246   4.244   3.846
65143W        W26454  32.527  11.213   4.232
65144W        W26455  27.481  23.042  14.395
65145W        W26456  22.011   7.220   4.299
65146W        W26457  43.325  34.529   3.775
65147W        W26458  32.103  18.760  11.537
65148W        W26459   8.317  37.949  11.006
65149W        W26460  43.974   6.775   3.314
65150W        W26461  17.717  34.592  14.432
65151W        W26462  40.302  26.466  13.337
65152W        W26463  21.253   6.399   5.199
65153W        W26464  22.518  31.637   3.305
65154W        W26465  22.196   4.760   0.286
65155W        W26466  44.503   3.366   4.244
65156W        W26467  31.125  32.013   0.298
65157W        W26468  39.970  34.516   2.702
65158W        W26469  32.070  23.203   4.784
65159W        W26470   1.906   9.690   0.404
65160W        W26471  13.808   3.314   5.148
65161W        W26472  11.188   9.239   0.444
65162W        W26473   0.301  37.483   0.826
65163W        W26474  39.529  32.969   2.223
65164W        W26475  12.210  20.757  12.853
65165W        W26476  18.772  28.950   3.709
65166W        W26477  39.908  20.119  11.416
65167W        W26478  12.170  14.798   4.180
65168W        W26479  25.219   8.660  10.946
65169W        W26480  28.179  10.803   1.764
65170W        W26481  22.530   0.773  11.490
65171W        W26482  41.976  17.247   3.291
65172W        W26483  19.615  20.554   2.681
65173W        W26484  31.949  17.066  14.846
65174W        W26485  21.168  42.898  13.809
65175W        W26486   9.827  10.747   4.287
65176W        W26487  42.494  15.228  11.411
65177W        W26488  37.375  14.161  10.038
65178W        W26489  21.603  26.178   4.664
65179W        W26490  38.348  36.942  13.900
65180W        W26491  10.213  29.489   3.720
65181W        W26492  39.027  37.053   3.298
65182W        W26493  17.640   4.712  14.475
65183W        W26494  11.865   4.888   4.797
65184W        W26495  38.837   1.300   2.745
65185W        W26496  14.796  39.474  12.083
65186W        W26497   3.251  39.519   4.160
65187W        W26498  32.967  27.542   4.327
65188W        W26499   7.346   2.333  13.425
65189W        W26500  11.214  28.572   0.431
65190W        W26501  11.141   8.164   4.132
65191W        W26502  28.035   5.718   1.875
65192W        W26503  21.652  43.374   1.250
65193W        W26504  30.428  38.513  14.821
65194W        W26505  27.020  34.605   2.696
65195W        W26506   7.681  12.697  11.435
65196W        W26507  10.660  11.205  12.440
65197W        W26508  23.667  19.159  12.394
65198W        W26509  17.612   0.277   4.319
65199W        W26510   0.778  33.596   3.346
65200W        W26511  21.189  37.008   3.802
65201W        W26512  41.927  14.244   3.731
65202W        W26513  18.691  40.541  13.995
65203W        W26514  26.544  19.155   1.890
65204W        W26515  37.386  42.868  13.877
65205W        W26516  37.913  31.469  10.065
65206W        W26517  14.674  32.917  13.926
65207W        W26518  44.859   0.958   3.300
65208W        W26519  29.047  42.010  10.514
65209W        W26520  19.184  42.859  13.868
65210W        W26521  36.086  34.407  14.927
65211W        W26522   6.878  40.462  14.282
65212W        W26523  22.643  39.896   3.818
65213W        W26524   2.318  12.163   2.672
65214W        W26525   8.685  23.572  13.356
65215W        W26526   6.740  43.333  12.848
65216W        W26527  19.270  32.083   3.345
65217W        W26528  24.507  27.016   4.148
65218W        W26529  37.532  39.978   2.224
65219W        W26530  22.057  40.797  11.417
65220W        W26531  28.559  11.270  13.913
65221W        W26532  24.188  22.246   3.816
65222W        W26533  41.788  43.303   1.909
65223W        W26534  39.384  18.591  11.545
65224W        W26535  37.549  13.296  13.845
65225W        W26536   0.380  11.702  10.514
65226W        W26537   5.881  27.538  14.794
65227W        W26538  32.460   0.280   4.255
65228W        W26539  13.699  43.473   0.331
65229W        W26540  25.518  12.640   2.844
65230W        W26541  30.044  32.415  13.893
65231W        W26542  38.888  42.813  12.914
65232W        W26543  19.155  39.983   2.767
65233W        W26544  39.541  27.526   4.228
65234W        W26545  20.676  37.442  10.555
65235W        W26546  39.542   5.759   4.292
65236W        W26547  41.933  25.082   0.265
65237W        W26548  35.487  40.976  13.059
65238W        W26549   5.815  37.948   4.598
65239W        W26550  19.268  40.485  12.487
65240W        W26551  24.217   8.391   2.886
65241W        W26552  22.073  14.758   4.265
65242W        W26553  22.716  21.662  11.949
65243W        W26554  35.101  10.313   0.829
65244W        W26555  26.078   6.919   1.915
65245W        W26556   4.784  35.967   5.158
65246W        W26557  29.545  18.264   4.250
65247W        W26558  23.240  20.615   2.874
65248W        W26559  11.857  36.951  12.549
65249W        W26560   5.776  35.045  11.030
65250W        W26561   0.855  27.649   0.310
65251W        W26562  37.507   3.878  14.907
65252W        W26563  30.517  16.645  12.848
65253W        W26564  42.967  23.613  12.055
65254W        W26565  28.932  38.342   1.852
65255W        W26566  16.269  27.676  11.389
65256W        W26567  23.067   4.873   0.412
65257W        W26568   1.870  20.671   0.963
65258W        W26569  14.609  44.772   3.653
65259W        W26570  24.066  25.705  14.895
65260W        W26571  39.462  38.065   2.238
65261W        W26572  41.425  24.227   1.874
65262W        W26573  42.967  13.312  14.833
65263W        W26574   2.384  44.003   4.355
65264W        W26575  33.890   0.792   1.393
65265W        W26576   0.742  10.225   0.447
65266W        W26577  16.284  29.597   4.155
65267W        W26578   7.834  14.258  10.454
65268W        W26579  18.135   0.919   2.415
65269W        W26580  24.984   0.438   0.290
65270W        W26581   7.337  18.722   5.145
65271W        W26582  42.808  44.351  13.911
65272W        W26583  10.144  10.185   2.192
65273W        W26584  36.933  13.178  14.445
65274W        W26585  19.265  31.957   2.321
65275W        W26586  27.517  40.505  14.814
65276W        W26587  10.703  19.543  10.963
65277W        W26588  35.042  33.601   4.253
65278W        W26589  20.154  31.610   2.402
65279W        W26590  11.246  42.997  13.452
65280W        W26591  15.173  43.916   4.763
65281W        W26592  29.043   5.202   1.798
65282W        W26593   9.244  44.920   2.790
65283W        W26594  43.892  23.571   0.819
65284W        W26595  21.037  17.064   2.839
65285W        W26596  17.598  24.598   9.932
65286W        W26597  43.318  28.187  12.456
65287W        W26598   9.765  23.228   2.793
65288W        W26599   4.409  43.316  14.513
65289W        W26600  23.588  28.185  12.991
65290W        W26601  33.979  17.111   1.402
65291W        W26602  37.518   9.386  12.894
65292W        W26603  17.097  10.814  12.362
65293W        W26604  28.170  44.459   3.284
65294W        W26605  44.478  17.703  14.951
65295W        W26606   3.433  22.146   3.692
65296W        W26607  17.188  13.676   3.735
65297W        W26608  36.999   1.891   0.309
65298W        W26609  43.920  34.993   1.261
65299W        W26610  29.465  12.848   1.287
65300W        W26611   2.321  37.877   4.675
65301W        W26612  42.777  18.544  10.485
65302W        W26613   3.313  38.467  12.904
65303W        W26614   5.927  27.058   1.741
65304W        W26615  21.178  28.470  13.457
65305W        W26616  29.001   7.210  14.457
65306W        W26617  20.220  11.289  13.320
65307W        W26618   6.183  44.867  14.929
65308W        W26619  22.548  41.394  12.352
65309W        W26620  18.698  18.647   3.661
65310W        W26621   6.839  36.496   4.823
65311W        W26622  40.890  33.456  12.428
65312W        W26623   4.314   2.233   2.269
65313W        W26624   1.870  34.548  11.019
65314W        W26625  22.737  32.103  12.397
65315W        W26626  13.789   2.372   4.790
65316W        W26627  23.143  32.564  11.014
65317W        W26628  23.235  27.003  14.853
65318W        W26629  31.150  40.867   2.413
65319W        W26630   7.240  10.296   2.278
65320W        W26631   2.867   9.294  14.908
65321W        W26632  10.139  42.524   3.704
65322W        W26633  44.767  34.546   4.715
65323W        W26634   0.493  10.706  14.810
65324W        W26635   1.310  15.231  14.002
65325W        W26636  38.854  17.155   5.188
65326W        W26637  42.506  30.590  10.592
65327W        W26638  42.971   8.827   3.720
65328W        W26639  19.564   7.882  12.861
65329W        W26640  20.543   4.930  13.337
65330W        W26641   3.843  11.210  12.897
65331W        W26642  18.275  24.074  12.864
65332W        W26643  23.098  29.120  12.956
65333W        W26644  12.308  32.064  10.563
65334W        W26645  13.201  11.238   0.895
65335W        W26646  35.539  20.200  12.012
65336W        W26647  36.054   0.932  14.009
65337W        W26648  34.903  19.215  14.366
65338W        W26649  40.964   1.241   3.363
65339W        W26650  44.351   7.265  14.016
65340W        W26651   1.821  27.630  13.459
65341W        W26652  11.364  13.758   4.785
65342W        W26653  32.568  42.479   1.344
65343W        W26654   0.470  29.461  12.341
65344W        W26655  10.855  37.932   2.276
65345W        W26656  16.683  11.625   9.487
65346W        W26657  40.959  26.483   3.706
65347W        W26658  22.627  16.741  12.516
65348W        W26659  18.228   4.298   1.384
65349W        W26660   6.204  18.141  13.037
65350W        W26661  32.411  28.568  14.275
65351W        W26662   0.329  16.257   0.747
65352W        W26663  28.078  31.473  10.465
65353W        W26664   5.798  22.032  10.579
65354W        W26665  23.169  35.900  11.513
65355W        W26666  43.866  11.372  13.020
65356W        W26667   2.419  10.242  10.075
65357W        W26668  23.637  44.959   1.806
65358W        W26669  33.498   3.231  14.402
65359W        W26670  11.621  26.154  12.355
65360W        W26671   3.827  22.114   0.379
65361W        W26672  16.755   3.355   2.241
65362W        W26673  17.763  31.447  13.937
65363W        W26674  19.190  23.668  10.608
65364W        W26675  41.442  34.088   4.790
65365W        W26676   2.925  41.504   3.670
65366W        W26677   2.341  25.096  11.580
65367W        W26678   4.909  42.474   2.184
65368W        W26679   3.386  35.446  14.442
65369W        W26680  11.771  11.348  12.845
65370W        W26681   9.813  43.851  13.396
65371W        W26682  18.745  15.600   1.382
65372W        W26683  24.580  19.689  14.482
65373W        W26684   3.735  41.495  10.959
65374W        W26685  18.137  19.619  11.377
65375W        W26686  36.428  22.166   2.376
65376W        W26687  25.537  40.348  12.413
65377W        W26688  22.129  34.452   1.934
65378W        W26689   1.330   6.390  14.344
65379W        W26690  33.025  20.549  14.488
65380W        W26691  20.236   4.713   2.332
65381W        W26692   6.251   9.308  11.872
65382W        W26693  34.945   8.856  10.929
65383W        W26694   2.881  24.198  14.305
65384W        W26695  32.609  18.215  11.538
65385W        W26696  43.377  21.249  13.393
65386W        W26697   9.232  36.885   1.727
65387W        W26698  35.524   0.882   4.653
65388W        W26699  14.794  14.631   1.800
65389W        W26700   3.727  28.079   2.211
65390W        W26701  19.229   8.197  14.796
65391W        W26702  26.519  20.064   1.260
65392W        W26703   2.934  27.666   4.331
65393W        W26704  35.864  32.572   2.184
65394W        W26705  35.554   6.821  13.035
65395W        W26706  30.623  38.392   0.856
65396W        W26707  32.918  14.771   3.279
65397W        W26708  10.867  32.476  11.374
65398W        W26709  29.147  21.531  13.462
65399W        W26710   6.427  35.602  14.291
65400W        W26711  31.948  23.092  11.025
65401W        W26712  43.964   5.811  13.401
65402W        W26713  12.222   6.210   4.155
65403W        W26714  10.362   5.249  14.969
65404W        W26715   1.385   0.435   2.860
65405W        W26716  31.098  21.654  11.050
65406W        W26717  31.041  32.457  13.039
65407W        W26718   9.152  38.918   0.418
65408W        W26719  22.074  11.359  13.021
65409W        W26720   8.250  25.601  11.435
65410W        W26721  30.053   7.274  14.435
65411W        W26722  22.662  12.278   4.757
65412W        W26723  44.484   9.350   2.892
65413W        W26724  17.634  24.696   1.704
65414W        W26725  29.169   3.713   1.266
65415W        W26726  15.770   5.718   0.445
65416W        W26727  37.936  29.497  10.099
65417W        W26728  39.002  29.956   5.302
65418W        W26729   9.270  21.529   3.630
65419W        W26730  13.667  28.622  14.953
65420W        W26731  18.670   9.793   3.186
65421W        W26732   4.846  41.907   2.823
65422W        W26733   2.377   9.775   2.816
65423W        W26734  20.198  25.064  14.294
65424W        W26735  27.128   3.796   1.306
65425W        W26736  41.905  19.044   2.809
65426W        W26737  34.389  44.822  11.408
65427W        W26738  10.794  38.928   0.309
65428W        W26739   6.261  37.027   0.866
65429W        W26740  40.915  13.167  14.812
65430W        W26741  25.662  20.104   2.670
65431W        W26742   7.231  43.925  11.126
65432W        W26743  40.817  23.183  12.349
65433W        W26744  24.512  43.322  14.762
65434W        W26745  16.254  15.617   0.809
65435W        W26746   8.865  42.793  12.422
65436W        W26747  30.462  23.155   3.863
65437W        W26748  33.092  34.994  11.079
65438W        W26749  42.861  18.272   3.177
65439W        W26750  17.273  31.564   4.768
65440W        W26751  19.576  42.322   3.642
65441W        W26752  27.156  26.649   5.262
65442W        W26753   7.387  22.052   4.244
65443W        W26754   0.426  42.843  11.435
65444W        W26755   7.226  12.358   2.299
65445W        W26756  40.978  19.261   2.760
65446W        W26757  44.386   2.743  13.967
65447W        W26758  43.973  20.707   3.744
65448W        W26759  26.478  22.151  10.145
65449W        W26760  20.710  22.743   1.909
65450W        W26761  27.154  38.063   3.147
65451W        W26762  18.689  34.072  13.977
65452W        W26763  21.065  31.125   0.272
65453W        W26764   3.248  41.975  10.542
65454W        W26765  34.442  40.033  13.963
65455W        W26766   2.228  43.933  11.522
65456W        W26767   5.724  21.740  13.384
65457W        W26768   8.791   2.817  12.352
65458W        W26769  38.336  29.551   5.191
65459W        W26770  44.961  19.631  12.834
65460W        W26771  21.242  27.162  10.572
65461W        W26772   4.418  38.960  14.348
65462W        W26773   1.376  39.333  11.064
65463W        W26774  19.054  27.450   2.772
65464W        W26775   7.887  11.772   5.317
65465W        W26776  31.540  43.916   0.795
65466W        W26777  20.167  21.018   3.180
65467W        W26778  26.055  25.040  13.393
65468W        W26779  38.540  30.978   0.444
65469W        W26780  14.610  22.144  12.429
65470W        W26781  16.706  44.832  12.048
65471W        W26782   6.316  30.556   5.199
65472W        W26783  31.042  37.070  11.569
65473W        W26784  35.873  35.020  12.065
65474W        W26785  28.529  17.136   4.730
65475W        W26786  23.560   4.756   4.660
65476W        W26787  27.968   1.411  11.472
65477W        W26788  36.438  18.179  14.491
65478W        W26789  33.072  28.972   3.173
65479W        W26790  35.370   3.359   4.186
65480W        W26791  12.282  35.086   1.248
65481W        W26792   8.827  32.393   3.294
65482W        W26793   3.809  42.331  13.513
65483W        W26794  12.658  35.885   1.908
65484W        W26795   6.690  11.725  13.480
65485W        W26796  29.497  37.514  11.611
65486W        W26797   6.799  29.556  12.471
65487W        W26798  37.937  33.555  13.391
65488W        W26799  44.277  41.960   4.322
65489W        W26800   0.352  15.784  10.436
65490W        W26801  43.876  34.486   4.606
65491W        W26802   4.265   3.256  11.049
65492W        W26803   2.266  14.637  12.897
65493W        W26804  17.634  35.421   0.793
65494W        W26805   0.742  10.184  11.949
65495W        W26806   4.758  18.087   3.792
65496W        W26807  12.711   8.212  14.513
65497W        W26808  24.109  31.588  11.611
65498W        W26809  44.855  14.309   0.460
65499W        W26810  17.263   1.390   4.766
65500W        W26811  28.148  43.880   4.599
65501W        W26812   7.236  14.300   4.194
65502W        W26813  22.128  15.716   3.379
65503W        W26814  39.339  13.782  14.473
65504W        W26815   6.278  30.537   1.332
65505W        W26816  34.873  25.689   1.246
65506W        W26817  23.731  26.023  10.576
65507W        W26818   4.304  44.795  14.442
65508W        W26819  38.993  24.676   1.220
65509W        W26820  15.732  21.215   0.773
65510W        W26821  23.073  32.618   0.465
65511W        W26822  27.557  42.319  12.862
65512W        W26823   5.905  14.257  14.903
65513W        W26824  37.957   0.443  13.041
65514W        W26825  26.525   1.919  12.898
65515W        W26826  42.376  38.868  14.513
65516W        W26827   5.196  24.064   3.269
65517W        W26828  30.510  28.567   3.850
65518W        W26829  18.187  11.803  14.421
65519W        W26830  19.140   6.349   0.913
65520W        W26831   5.213  20.212  11.502
65521W        W26832   9.174  42.348   1.398
65522W        W26833  16.170   4.426   2.369
65523W        W26834   3.726  39.493  12.009
65524W        W26835   9.759  29.544   4.291
65525W        W26836  10.671  29.560   4.795
65526W        W26837  33.951  26.206   1.744
65527W        W26838  27.454  37.343   4.726
65528W        W26839  31.544  12.649  14.458
65529W        W26840  13.771  43.347  14.843
65530W        W26841  39.314  24.173  11.095
65531W        W26842  18.136  12.754  12.512
65532W        W26843  25.982  32.027   4.317
65533W        W26844   7.259  22.998  11.389
65534W        W26845   6.783  44.918   3.280
65535W        W26846   4.440  42.371   3.803
65536W        W26847  21.728  33.918  13.521
65537W        W26848   7.831  38.897  10.452
65538W        W26849  29.554  27.530   1.250
65539W        W26850  25.997   5.725   3.847
65540W        W26851  43.911   5.787   2.822
65541W        W26852  32.622  20.105   0.355
65542W        W26853  34.540  10.790   0.799
65543W        W26854  41.379  10.798   0.824
65544W        W26855  31.500  33.081  13.920
65545W        W26856   1.968  18.132   3.732
65546W        W26857  42.013  12.349  13.330
65547W        W26858  33.547  39.505  14.803
65548W        W26859  17.708  12.830   0.907
65549W        W26860   6.835  14.303  10.563
65550W        W26861   0.833  19.047  14.939
65551W        W26862  25.536   9.230   4.348
65552W        W26863  26.587  19.723   3.805
65553W        W26864  35.545  26.697  10.940
65554W        W26865  41.870   1.442   2.875
65555W        W26866   7.810  37.029  14.350
65556W        W26867  15.207   5.435  10.927
65557W        W26868  12.638  40.969  12.479
65558W        W26869   6.845  30.555  12.048
65559W        W26870  43.469  23.658   3.704
65560W        W26871  20.562  17.740  12.457
65561W        W26872  15.205   2.339  14.885
65562W        W26873  18.587   5.865  12.402
65563W        W26874  37.429   5.859   2.232
65564W        W26875  31.025  17.743   0.426
65565W        W26876  27.039  39.405  13.859
65566W        W26877  20.192  16.669   5.161
65567W        W26878  24.116  22.632   0.358
65568W        W26879  34.561  38.899   9.947
65569W        W26880  28.135  10.777  14.817
65570W        W26881  41.390   3.787  11.396
65571W        W26882  32.475  19.716  12.416
65572W        W26883  31.087  28.515   2.713
65573W        W26884   5.769  32.025  10.593
65574W        W26885  32.565  29.461  12.566
65575W        W26886  39.907   0.932   2.850
65576W        W26887   9.230  23.510  12.915
65577W        W26888  31.083  13.332  12.963
65578W        W26889  38.331  12.633  13.422
65579W        W26890  37.885  32.635  12.567
65580W        W26891   4.273  25.196  10.596
65581W        W26892  16.168  15.770  12.578
65582W        W26893  38.997  19.100  13.804
65583W        W26894  36.557   7.688   3.293
65584W        W26895  25.508  29.148  13.509
65585W        W26896  26.027   3.365   4.261
65586W        W26897   4.315  18.614   3.664
65587W        W26898  32.903  23.102   2.213
65588W        W26899  13.341  25.155  13.401
65589W        W26900  39.909  31.961   2.845
65590W        W26901  22.137  42.406   3.720
65591W        W26902  23.060  30.647   2.376
65592W        W26903   6.226  10.766  14.353
65593W        W26904   8.354  24.141   3.791
65594W        W26905   9.246  44.336  10.554
65595W        W26906   0.786   4.765   4.750
65596W        W26907  35.910  20.577   0.408
65597W        W26908  41.965   7.271  13.036
65598W        W26909  26.091  10.794  11.543
65599W        W26910  15.797  11.671  11.037
65600W        W26911  34.605  12.831   4.725
65601W        W26912  37.498  20.705   0.909
65602W        W26913  21.576   7.876   0.728
65603W        W26914   2.244  10.860  14.942
65604W        W26915   7.817  28.523   0.252
65605W        W26916   3.436  37.575  13.799
65606W        W26917  18.725  38.376   5.252
65607W        W26918  40.360  43.996   0.465
65608W        W26919  17.719  21.053   4.188
65609W        W26920  17.275   0.402   2.760
65610W        W26921  13.201   0.760   5.126
65611W        W26922  21.739  32.447   0.862
65612W        W26923  23.203   2.965  12.539
65613W        W26924  33.397  16.205  10.586
65614W        W26925  38.495  35.003  12.345
65615W        W26926  16.709  18.582  11.400
65616W        W26927  10.270  36.468  10.430
65617W        W26928   6.366   3.888  10.641
65618W        W26929   9.219  38.966   4.611
65619W        W26930  30.006  39.943  13.959
65620W        W26931  10.740   9.760   4.299
65621W        W26932  16.232  15.324   1.746
65622W        W26933  30.465  39.398  12.001
65623W        W26934  26.976  37.083  10.530
65624W        W26935   0.843  31.557  14.372
65625W        W26936  31.979  21.558   0.436
65626W        W26937  37.371  29.125  14.015
65627W        W26938  43.802  20.265   4.186
65628W        W26939  39.488   9.870  13.000
65629W        W26940  23.536  22.059   4.314
65630W        W26941  35.099   8.290   1.883
65631W        W26942  26.541  21.699   1.430
65632W        W26943   2.320  26.154  13.867
65633W        W26944  10.861  27.196   4.287
65634W        W26945  30.541  24.087   1.922
65635W        W26946  14.719   6.771   2.670
65636W        W26947  17.250  35.860  10.421
65637W        W26948  20.257   1.338   2.765
65638W        W26949  10.278   3.285   4.828
65639W        W26950   8.195  43.891   3.835
65640W        W26951  43.422   3.369   0.896
65641W        W26952  19.111  15.823  11.061
65642W        W26953  42.806  20.064   1.901
65643W        W26954   8.897  32.501  10.445
65644W        W26955  21.652  11.678   1.706
65645W        W26956  13.687   3.736  14.892
65646W        W26957  32.590   4.806   3.707
65647W        W26958   9.171  29.163  13.519
65648W        W26959   9.150  19.100  13.844
65649W        W26960  37.347  24.644  12.017
65650W        W26961  30.005   2.887  13.925
65651W        W26962   0.435  12.836   3.200
65652W        W26963  21.127  33.418  12.049
65653W        W26964  30.104  34.392   3.172
65654W        W26965  32.111  11.763  14.820
65655W        W26966  44.859  21.235   0.730
65656W        W26967  37.411  23.170  11.408
65657W        W26968  14.591  11.285  12.940
65658W        W26969   7.771   2.268   2.394
65659W        W26970  11.795   4.353   0.298
65660W        W26971   5.219   6.415  11.916
65661W        W26972  38.548   3.732   2.676
65662W        W26973  15.737  26.693  12.038
65663W        W26974  36.003  36.492  13.865
65664W        W26975  11.734  18.555   1.872
65665W        W26976  43.337  10.728  14.294
65666W        W26977  42.417  33.508  13.034
65667W        W26978   4.418   9.684  11.375
65668W        W26979  42.433  37.930  11.037
65669W        W26980  36.902  35.495   3.273
65670W        W26981  27.172  34.050   3.197
65671W        W26982  42.837  43.283   4.766
65672W        W26983  14.644  24.028  12.018
65673W        W26984  39.811  17.110  14.335
65674W        W26985  15.103  23.098  11.857
65675W        W26986  44.915  28.489   4.820
65676W        W26987   4.893  23.657  10.498
65677W        W26988  14.688  22.096  13.859
65678W        W26989  13.624  15.794  10.559
65679W        W26990  43.312  44.316  12.491
65680W        W26991  42.969  32.432   3.866
65681W        W26992  34.941  10.320  13.817
65682W        W26993  23.494  27.471   3.707
65683W        W26994  41.529  42.978  14.818
65684W        W26995  29.471   0.775  11.969
65685W        W26996  43.905  40.805  14.866
65686W        W26997  41.962  29.101  10.907
65687W        W26998  26.121  33.018   4.658
65688W        W26999  12.171   9.188  11.860
65689W        W27000  34.569  25.000  13.005
65690W        W27001   2.310  31.911  12.942
65691W        W27002   3.832  43.308   2.845
65692W        W27003  24.697  43.475   0.300
65693W        W27004  29.597  28.116  11.374
65694W        W27005  14.748  43.348   3.635
65695W        W27006  19.711  15.657   0.923
65696W        W27007  36.915  29.010   9.638
65697W        W27008   2.246   2.316  10.425
65698W        W27009   3.763   1.478  12.986
65699W        W27010   9.782  28.008  10.527
65700W        W27011  25.558  44.006  11.064
65701W        W27012  44.301  39.029   1.245
65702W        W27013   5.368  39.829  14.392
65703W        W27014  39.820  27.978   4.636
65704W        W27015  16.211  12.748  11.931
65705W        W27016  35.883   1.250  11.444
65706W        W27017  12.351  24.996   0.779
65707W        W27018  23.156   6.376   0.747
65708W        W27019  34.937  11.732   0.888
65709W        W27020  33.517  13.673  13.470
65710W        W27021  30.576  26.091   2.327
65711W        W27022  27.468  42.845  11.977
65712W        W27023  23.518  28.484  11.078
65713W        W27024  37.877  27.126  11.061
65714W        W27025  15.244   0.370  13.490
65715W        W27026  43.458  18.099   1.721
65716W        W27027  41.984  18.198  12.487
65717W        W27028  15.649  33.052   0.946
65718W        W27029  32.137   1.951  11.533
65719W        W27030  24.140  41.829  13.811
65720W        W27031  41.967  35.075   2.383
65721W        W27032  39.558  11.658  13.466
65722W        W27033  16.098  19.638   1.318
65723W        W27034  30.980  10.338   2.403
65724W        W27035   4.270  24.650  10.416
65725W        W27036  22.108  18.564  14.027
65726W        W27037  11.310  10.274  12.560
65727W        W27038  29.103  12.682   4.315
65728W        W27039  32.572  11.241  14.834
65729W        W27040  22.589  14.662   4.632
65730W        W27041  33.995  33.480  14.903
65731W        W27042  31.464   4.424   0.261
65732W        W27043  44.765  23.508   4.136
65733W        W27044  21.627  38.378  12.008
65734W        W27045  19.087  11.716  12.014
65735W        W27046   7.277  42.509  10.999
65736W        W27047   0.904  23.675  12.916
65737W        W27048  24.683   5.713   1.782
65738W        W27049  12.857  29.030   4.326
65739W        W27050  21.723  15.178   3.273
65740W        W27051  42.823  37.490   0.413
65741W        W27052   6.894  21.517   4.724
65742W        W27053  41.864  29.464   5.093
65743W        W27054  16.756   9.221   2.261
65744W        W27055  33.125  44.399  14.350
65745W        W27056  17.117  34.506  12.832
65746W        W27057  12.162   0.316   3.830
65747W        W27058  30.577  31.906   1.240
65748W        W27059   4.917  22.074  14.840
65749W        W27060  23.235  43.278  11.881
65750W        W27061   6.812  26.140  12.437
65751W        W27062  16.640   7.341  14.842
65752W        W27063  34.090  33.577   0.849
65753W        W27064  16.246  38.468  12.055
65754W        W27065  13.175  32.606  14.363
65755W        W27066  16.781  14.301   1.313
65756W        W27067  24.662  38.971  10.900
65757W        W27068   0.780  43.970  10.969
65758W        W27069  21.261  20.624   3.848
65759W        W27070  34.552  26.561   4.787
65760W        W27071  44.795  28.160   1.256
65761W        W27072  31.622  38.843  12.852
65762W        W27073  35.903  34.053   1.239
65763W        W27074  13.120   7.796   1.335
65764W        W27075  27.976  43.462  13.933
65765W        W27076  23.549  28.586   0.938
65766W        W27077  20.662  32.926  10.407
65767W        W27078  25.008   0.895  12.011
65768W        W27079   2.297  14.617   2.850
65769W        W27080  17.266  28.969   4.732
65770W        W27081  29.921  10.239   1.243
65771W        W27082  18.675  22.201  12.039
65772W        W27083  19.178   4.374   1.807
65773W        W27084  28.093   0.779   1.745
65774W        W27085  15.614  14.282   5.585
65775W        W27086  40.376  22.025  14.839
65776W        W27087  30.965   3.312   2.250
65777W        W27088  38.949  36.848   1.875
65778W        W27089  26.613  35.916   0.911
65779W        W27090  37.389  24.139   3.342
65780W        W27091  13.644  28.154  12.497
65781W        W27092  20.035  29.548   3.629
65782W        W27093   2.471  29.104   1.314
65783W        W27094   8.381  25.542  14.468
65784W        W27095  19.753  22.110   1.354
65785W        W27096  33.420   8.178  11.088
65786W        W27097  16.181  11.339   1.888
65787W        W27098   1.392  38.495   2.311
65788W        W27099  37.351  36.464  10.626
65789W        W27100   8.223  14.250   4.242
65790W        W27101   4.707  18.050  12.068
65791W        W27102  17.228  40.947  12.358
65792W        W27103  32.043  36.409   3.681
65793W        W27104  21.186  35.061  11.380
65794W        W27105  17.686  36.846  11.032
65795W        W27106  43.359   0.983  10.537
65796W        W27107   7.307  30.583  14.487
65797W        W27108  24.979   6.706   3.821
65798W        W27109  41.925  38.883  14.503
65799W        W27110  42.405  44.491  11.916
65800W        W27111   7.765   6.797   0.397
65801W        W27112  28.967  19.728   1.236
65802W        W27113  19.674   2.406  11.045
65803W        W27114  27.518  16.663  14.462
65804W        W27115  17.284  33.985  11.465
65805W        W27116  34.572  17.672   1.333
65806W        W27117  35.991  19.067  14.792
65807W        W27118   2.934  22.617  12.358
65808W        W27119  38.022  14.262   1.257
65809W        W27120   4.828  39.961  13.339
65810W        W27121   5.209   6.399  14.332
65811W        W27122   7.233  20.212  12.428
65812W        W27123  24.204  40.035  13.953
65813W        W27124   2.721  22.682   1.701
65814W        W27125  17.734  28.468  13.916
65815W        W27126  37.040  26.680  11.962
65816W        W27127  24.691  44.457  14.512
65817W        W27128  40.478  12.727  12.027
65818W        W27129  27.967  30.453   1.886
65819W        W27130  33.960  12.324  13.506
65820W        W27131  29.450  21.041  10.532
65821W        W27132   0.745  31.038   2.858
65822W        W27133  35.992   0.275  14.888
65823W        W27134  17.642  44.363   1.235
65824W        W27135   3.450   5.821   4.170
65825W        W27136  29.155  33.978  13.461
65826W        W27137  14.243  21.610  12.092
65827W        W27138  43.770   0.985   0.791
65828W        W27139  34.388  20.113   2.238
65829W        W27140   1.942  36.992   1.721
65830W        W27141  20.207  21.252  10.040
65831W        W27142  14.671  35.037   0.849
65832W        W27143  37.497  25.520   2.392
65833W        W27144   3.404  30.635   2.743
65834W        W27145   1.904  22.606   0.276
65835W        W27146  28.632  14.102  14.973
65836W        W27147  27.664  21.072   4.689
65837W        W27148  28.147  13.703   4.678
65838W        W27149  17.171  44.384  14.826
65839W        W27150  31.128   8.722   5.085
65840W        W27151   5.379   4.795  13.046
65841W        W27152   8.213  32.890   4.327
65842W        W27153  10.279  42.390   0.827
65843W        W27154  41.028   2.240   0.474
65844W        W27155  19.723  13.289  14.874
65845W        W27156  31.898  24.583   0.443
65846W        W27157  21.188  44.875  11.478
65847W        W27158  23.599   9.172   4.638
65848W        W27159  15.274  42.993   3.817
65849W        W27160  18.781  25.648   2.773
65850W        W27161  21.149  35.424  10.519
65851W        W27162  31.025  15.685  11.422
65852W        W27163  10.317  10.672   4.235
65853W        W27164  26.573  28.127  11.465
65854W        W27165  38.375  42.525   4.230
65855W        W27166   0.260  19.283   0.873
65856W        W27167   9.319  12.117   2.372
65857W        W27168  22.617  38.460   3.724
65858W        W27169  40.409   5.438   2.216
65859W        W27170   9.239   0.323  14.488
65860W        W27171  27.465  30.125  13.823
65861W        W27172   7.780  20.706  11.053
65862W        W27173   6.416  44.011  10.422
65863W        W27174  35.965  42.789  14.284
65864W        W27175  28.647  43.772   3.754
65865W        W27176   7.404  20.098  10.159
65866W        W27177  12.317   5.720  13.791
65867W        W27178  36.559  36.492   3.697
65868W        W27179  44.303  32.630   2.819
65869W        W27180   0.989  15.614   3.322
65870W        W27181  28.995   3.291   0.780
65871W        W27182  21.643  40.318  12.499
65872W        W27183   9.782   1.975   1.350
65873W        W27184   4.833   4.233  12.861
65874W        W27185   8.870  35.545   3.330
65875W        W27186   8.857  42.321  11.970
65876W        W27187  44.782  30.153  12.430
65877W        W27188  34.112  27.567   2.306
65878W        W27189   1.768  39.347   0.849
65879W        W27190  29.110  37.031   1.771
65880W        W27191  35.452  35.435   1.342
65881W        W27192   9.194  33.474  10.916
65882W        W27193   4.212  28.536   4.719
65883W        W27194  34.021  37.441  12.502
65884W        W27195  27.126  10.234  14.808
65885W        W27196  25.481  31.583  13.341
65886W        W27197  25.567   9.864  13.802
65887W        W27198  29.475  35.858  10.939
65888W        W27199  15.620  42.919   1.756
65889W        W27200  35.417   5.835  14.981
65890W        W27201  37.452  35.070   1.429
65891W        W27202  41.502   4.209  11.521
65892W        W27203  22.645  10.836   4.663
65893W        W27204  30.446  26.548   1.447
65894W        W27205  21.245  31.004   2.879
65895W        W27206   9.170  27.973   0.939
65896W        W27207  16.090  12.245   4.128
65897W        W27208  32.446   4.884  14.418
65898W        W27209  18.739  12.812  12.445
65899W        W27210  39.387  38.844   0.863
65900W        W27211  11.148  14.146  12.042
65901W        W27212  23.616  11.715   0.373
65902W        W27213  42.945  20.649   0.249
65903W        W27214  11.178   1.972  10.552
65904W        W27215  31.907  23.492  12.872
65905W        W27216  16.693  11.846   1.757
65906W        W27217  35.391  42.878   2.779
65907W        W27218   8.202  22.038  10.567
65908W        W27219   5.281   8.339   1.249
65909W        W27220  12.138  35.548  10.606
65910W        W27221  33.122  12.124  10.473
65911W        W27222   0.959  28.115   1.297
65912W        W27223  12.708  36.928   2.302
65913W        W27224  19.752  35.468   1.437
65914W        W27225   2.947  37.859  14.445
65915W        W27226  10.221  15.732   4.785
65916W        W27227   8.291  17.082   3.799
65917W        W27228  30.922  22.719   0.399
65918W        W27229  21.627  13.613  10.426
65919W        W27230  37.885  13.252  10.948
65920W        W27231  40.852  25.518   4.128
65921W        W27232  39.346  28.472   1.762
65922W        W27233  23.705   1.852  10.496
65923W        W27234  29.046  44.392   0.278
65924W        W27235  21.196  31.090  12.983
65925W        W27236   3.854  10.267   4.671
65926W        W27237  25.603  19.658   0.439
65927W        W27238  13.827  10.697   0.819
65928W        W27239  42.915  15.761  11.920
65929W        W27240  15.683  14.234   9.619
65930W        W27241  42.281  28.944   1.706
65931W        W27242  34.524  25.123  13.879
65932W        W27243  36.033   2.255  13.910
65933W        W27244  13.281  39.397  10.640
65934W        W27245  16.171  22.124   0.847
65935W        W27246  16.592  13.121   0.945
65936W        W27247  14.699   2.748  12.954
65937W        W27248   0.812  31.582  12.568
65938W        W27249  23.237  12.665   0.370
65939W        W27250  27.965  14.669  12.931
65940W        W27251  18.739  18.281  10.439
65941W        W27252  21.144  14.213   3.324
65942W        W27253  19.763   0.258   2.251
65943W        W27254  11.191  11.638  11.081
65944W        W27255  17.295  41.369  13.885
65945W        W27256   8.320   0.822   3.306
65946W        W27257  21.744  25.193  11.599
65947W        W27258  19.113  19.691   4.796
65948W        W27259   0.344   9.279   4.334
65949W        W27260  20.570  33.890   3.832
65950W        W27261  28.014  33.110   3.369
65951W        W27262  24.028  30.156  12.505
65952W        W27263   8.311  30.631   4.170
65953W        W27264  38.441  30.030   4.628
65954W        W27265  36.364  24.075  12.551
65955W        W27266   7.319  36.477  12.572
65956W        W27267   5.425   9.676  11.476
65957W        W27268  40.413  11.199  10.438
65958W        W27269   9.182   4.829  13.308
65959W        W27270  41.037  32.547   0.393
65960W        W27271   8.181  26.534  13.548
65961W        W27272  18.211  14.201  11.444
65962W        W27273  10.832  34.031  14.862
65963W        W27274  38.379  42.858   4.351
65964W        W27275   1.736  13.685  14.279
65965W        W27276   7.829  15.323   1.341
65966W        W27277  44.450  29.664   1.398
65967W        W27278  29.529  14.269  13.818
65968W        W27279  11.274  27.067   3.277
65969W        W27280  34.595  10.336   3.752
65970W        W27281  35.439  21.080  12.388
65971W        W27282  44.766  25.704   4.303
65972W        W27283   6.324  11.721  13.921
65973W        W27284  43.379  38.525   4.264
65974W        W27285   9.189  34.376  10.414
65975W        W27286  33.485  29.664   3.693
65976W        W27287   7.238  18.600  14.279
65977W        W27288   5.212  10.637   3.736
65978W        W27289   8.755   6.838   1.864
65979W        W27290  34.512   4.788   1.903
65980W        W27291  35.981  20.161   3.259
65981W        W27292  16.721  26.660   2.372
65982W        W27293  42.409   0.971   4.740
65983W        W27294  11.632  18.093  13.002
65984W        W27295  19.194  15.597   0.311
65985W        W27296  18.241  15.645  14.397
65986W        W27297  33.912  26.971   2.702
65987W        W27298  32.445  41.516  12.493
65988W        W27299  23.186  33.449   0.849
65989W        W27300  25.124  20.712  14.343
65990W        W27301   6.405  38.847   1.408
65991W        W27302  38.055  32.490   4.160
65992W        W27303   4.371  42.330   1.308
65993W        W27304   6.705  43.987  10.522
65994W        W27305  26.639  18.108  12.984
65995W        W27306  27.577  26.605  11.900
65996W        W27307  20.533  15.103   1.792
65997W        W27308  12.160  38.503  12.039
65998W        W27309  17.577  24.114  14.804
65999W        W27310  44.282  11.710  10.988
66000W        W27311  31.001  10.353   2.832
66001W        W27312  22.541  28.670  12.068
66002W        W27313  24.489  20.620   1.427
66003W        W27314  33.126  15.691  13.432
66004W        W27315  33.567   2.744  13.400
66005W        W27316  27.612   7.266  14.353
66006W        W27317  43.485  10.194   4.682
66007W        W27318  34.504  29.157   2.801
66008W        W27319  13.259  42.937  13.460
66009W        W27320  22.198  39.910  14.788
66010W        W27321  40.349  24.002  12.064
66011W        W27322  26.004  34.091   0.334
66012W        W27323  26.625  17.640  12.576
66013W        W27324  25.982  33.439   1.420
66014W        W27325  28.580  33.611   2.699
66015W        W27326  29.060  42.917   3.761
66016W        W27327  22.162  11.786  10.445
66017W        W27328   1.446  27.003   3.649
66018W        W27329  19.651   6.355   3.815
66019W        W27330   0.299   9.165   1.398
66020W        W27331  33.951  35.448   3.350
66021W        W27332  14.254  40.536   2.714
66022W        W27333   5.859  27.641   3.207
66023W        W27334   4.915   2.323  12.460
66024W        W27335  33.955  16.167   0.890
66025W        W27336   5.281  34.913  12.841
66026W        W27337  33.123  23.507  11.970
66027W        W27338  40.538  33.080   4.629
66028W        W27339  22.514  34.885   1.750
66029W        W27340  34.875  42.848  13.313
66030W        W27341  14.162  43.415  13.480
66031W        W27342  44.391  20.580   0.903
66032W        W27343  27.466  44.284  12.378
66033W        W27344   2.809  42.932  12.551
66034W        W27345  19.682  30.916   3.746
66035W        W27346  37.852  30.442   1.764
66036W        W27347  20.636  24.221   3.210
66037W        W27348   3.322   5.218   3.729
66038W        W27349  22.667  35.592   4.144
66039W        W27350   4.791  30.915   2.384
66040W        W27351  17.773  31.059  12.493
66041W        W27352  19.684  12.779   1.897
66042W        W27353  38.366   4.761  10.072
66043W        W27354  23.583  14.103  14.803
66044W        W27355  15.188  11.804  11.991
66045W        W27356  42.520   1.950   4.755
66046W        W27357  31.986  27.662   2.357
66047W        W27358  20.041  35.912  12.395
66048W        W27359   5.770  34.889  11.993
66049W        W27360  18.148   1.900   0.281
66050W        W27361  44.323  22.245   1.301
66051W        W27362  16.297  43.515  14.323
66052W        W27363   8.283  29.009   2.241
66053W        W27364  20.665  20.666   4.838
66054W        W27365  33.129  13.773  13.437
66055W        W27366  38.946   3.433  14.327
66056W        W27367  41.924  19.744  14.984
66057W        W27368  20.123  33.111  13.375
66058W        W27369  32.399  11.267   0.252
66059W        W27370  20.538   5.300  10.638
66060W        W27371  39.396  34.095   0.861
66061W        W27372  43.502  10.373  12.396
66062W        W27373  25.576   3.779   2.236
66063W        W27374  44.398  11.304   4.731
66064W        W27375  20.579  43.943  11.952
66065W        W27376  28.138  17.557   0.322
66066W        W27377  18.175   2.349  12.466
66067W        W27378  25.975  36.417  12.439
66068W        W27379   1.306  20.650  10.416
66069W        W27380  30.913  37.840   0.962
66070W        W27381  41.788  36.013  14.389
66071W        W27382  23.699  27.989  13.892
66072W        W27383  43.458   8.684  12.857
66073W        W27384  23.205  11.357   1.262
66074W        W27385  35.381   4.434  10.937
66075W        W27386  19.689  26.513  13.050
66076W        W27387   7.860  12.248  14.928
66077W        W27388  23.230  12.127   4.662
66078W        W27389  19.110  22.054  11.436
66079W        W27390  37.492  44.857  12.017
66080W        W27391  37.864  10.681   0.856
66081W        W27392  34.425   0.257  14.994
66082W        W27393  32.975   3.840  13.390
66083W        W27394  43.798   1.411   3.234
66084W        W27395  28.484  41.814  11.455
66085W        W27396  12.153  17.144  13.955
66086W        W27397  31.976  15.284   4.797
66087W        W27398  33.015  18.659   0.441
66088W        W27399   0.745  10.862  11.434
66089W        W27400  22.087  20.081  13.531
66090W        W27401  24.510  37.559   3.387
66091W        W27402  25.144  29.044  10.105
66092W        W27403  30.625   4.857   1.897
66093W        W27404  17.703  25.169   2.671
66094W        W27405  29.484   6.343  12.454
66095W        W27406  28.178  24.078   2.756
66096W        W27407  38.539   8.290  14.934
66097W        W27408  38.362   7.904  13.008
66098W        W27409  34.596  27.666  11.024
66099W        W27410  27.580  31.075  15.000
66100W        W27411   9.787  29.947  11.980
66101W        W27412  21.653  26.472  14.782
66102W        W27413  39.834  18.650   0.874
66103W        W27414  33.075   1.916  12.389
66104W        W27415  38.426  31.498   3.815
66105W        W27416  15.711  39.022   4.313
66106W        W27417  40.881   9.722  10.955
66107W        W27418  26.652  27.105   2.232
66108W        W27419  39.933  17.695  10.504
66109W        W27420  12.846  41.027   1.716
66110W        W27421   9.318  40.853   0.417
66111W        W27422  21.569  18.107  10.426
66112W        W27423  13.111  39.437   2.744
66113W        W27424   3.404  38.543   0.910
66114W        W27425   7.285   1.469  12.540
66115W        W27426  36.857  23.199  10.638
66116W        W27427  14.785  13.319  12.885
66117W        W27428  14.779   2.899  12.511
66118W        W27429  23.988  35.402   4.147
66119W        W27430  40.525  29.087  11.031
66120W        W27431  35.371   2.278   1.883
66121W        W27432  28.014  17.578   1.891
66122W        W27433  36.384  34.989   3.244
66123W        W27434  11.239   9.263   3.261
66124W        W27435  31.070  14.138   0.803
66125W        W27436  29.538  12.146   4.246
66126W        W27437  19.603  43.943   0.362
66127W        W27438  38.444  44.784  12.542
66128W        W27439   5.305  21.538   0.271
66129W        W27440  26.066  38.962  14.875
66130W        W27441   5.205  19.188   0.952
66131W        W27442  34.950  43.864  12.519
66132W        W27443  44.941  30.021   0.282
66133W        W27444  44.778  34.432  14.451
66134W        W27445   8.769  26.676   2.716
66135W        W27446  42.509   1.860  12.911
66136W        W27447  10.862  19.556  12.371
66137W        W27448  14.670  28.584  12.976
66138W        W27449  41.890   4.914  14.286
66139W        W27450  13.832  32.417  12.912
66140W        W27451  33.624  37.510   4.314
66141W        W27452  34.028   7.708  14.284
66142W        W27453  27.154  26.060   2.899
66143W        W27454   9.811  18.772   3.250
66144W        W27455  15.693  31.498   3.282
66145W        W27456  13.337  18.589   3.167
66146W        W27457  35.866   7.189  12.973
66147W        W27458  38.570   5.417   3.202
66148W        W27459  19.203  33.962   1.405
66149W        W27460   6.411  16.596  13.974
66150W        W27461  41.413  37.992  13.453
66151W        W27462  39.040  22.170   0.766
66152W        W27463  14.252  32.613  13.420
66153W        W27464  21.669  18.089   5.282
66154W        W27465  13.653  13.779  14.912
66155W        W27466  38.872  42.840  10.975
66156W        W27467  27.962  29.129  12.088
66157W        W27468  34.962  27.500   4.202
66158W        W27469  19.165  27.651   2.352
66159W        W27470  23.130  14.769  14.342
66160W        W27471  38.535  17.127   2.374
66161W        W27472  37.387  15.766   2.752
66162W        W27473  44.448  20.185   4.119
66163W        W27474  29.451  25.029   4.259
66164W        W27475  10.216  26.165   1.363
66165W        W27476   3.452   3.304  11.893
66166W        W27477  12.795  37.549  10.626
66167W        W27478  43.513  34.077  14.901
66168W        W27479  31.437  24.618   2.352
66169W        W27480  41.388  37.007   0.411
66170W        W27481  34.394  15.649   4.749
66171W        W27482  21.719  30.511   3.669
66172W        W27483   8.191  22.067   3.367
66173W        W27484  41.343  23.148   1.418
66174W        W27485  40.361   9.757   1.331
66175W        W27486  22.527  38.953   3.147
66176W        W27487  23.544  42.331  14.380
66177W        W27488  15.776   2.302   1.918
66178W        W27489   6.837  35.878   4.137
66179W        W27490  36.094  32.136   3.758
66180W        W27491  18.637  42.515  10.561
66181W        W27492  44.905  44.894   3.829
66182W        W27493  16.696  24.059   2.814
66183W        W27494  37.841  32.103   0.789
66184W        W27495   6.383  13.121  14.492
66185W        W27496  19.220   1.814  11.526
66186W        W27497  41.984  31.112  12.397
66187W        W27498   3.777  22.127  14.309
66188W        W27499   4.284   4.772   1.931
66189W        W27500  22.506  15.182  12.538
66190W        W27501  41.527  19.622   3.834
66191W        W27502  26.551   9.196   4.634
66192W        W27503  11.711   8.822  12.404
66193W        W27504  14.192  16.302   5.131
66194W        W27505  44.397  34.541  13.321
66195W        W27506  24.698   6.400   0.868
66196W        W27507  35.394   5.781  11.460
66197W        W27508  18.113  40.897  10.440
66198W        W27509  29.482   9.365   4.345
66199W        W27510  13.669  44.411  11.447
66200W        W27511   5.203  43.823   3.731
66201W        W27512   1.416  39.872   1.224
66202W        W27513  27.499  31.065   1.354
66203W        W27514  44.324  12.704  12.988
66204W        W27515  34.024   5.346  13.422
66205W        W27516  32.520   2.967  13.446
66206W        W27517   0.814  32.099   3.216
66207W        W27518  17.672  43.428  13.839
66208W        W27519  35.946  14.168  10.421
66209W        W27520  18.294  30.086  12.377
66210W        W27521  19.255  31.923   4.253
66211W        W27522  13.629  33.891   0.274
66212W        W27523  26.961  35.376  13.855
66213W        W27524  22.200   6.704   4.297
66214W        W27525  30.967   1.244   0.338
66215W        W27526  43.981  13.174   1.844
66216W        W27527  17.677  24.562  11.876
66217W        W27528  36.025  24.203  11.454
66218W        W27529   8.178  22.011  11.583
66219W        W27530  22.202  29.117   4.286
66220W        W27531   3.774   9.691   3.250
66221W        W27532  13.132  28.157  12.936
66222W        W27533  16.691  27.655   4.645
66223W        W27534  39.344  15.264   1.309
66224W        W27535   2.325  26.616  14.019
66225W        W27536   1.779   5.710   4.276
66226W        W27537  21.243  11.269  10.600
66227W        W27538   0.744   1.264  10.508
66228W        W27539  40.415  14.629   2.851
66229W        W27540  18.654   8.187   4.787
66230W        W27541  13.184  34.530   0.812
66231W        W27542   9.648  37.025   2.874
66232W        W27543  38.432  33.538  11.058
66233W        W27544  23.537  28.460  11.608
66234W        W27545  11.710  37.461   4.291
66235W        W27546   9.371  34.604   2.310
66236W        W27547  43.913  19.116   2.770
66237W        W27548   5.361   1.341   2.397
66238W        W27549  14.805  38.443   3.327
66239W        W27550  13.804  34.887  13.488
66240W        W27551   8.760  37.555  13.504
66241W        W27552   9.333   3.234   4.216
66242W        W27553  13.810   9.383   1.920
66243W        W27554  35.435  16.733  14.018
66244W        W27555  42.400   2.837  14.418
66245W        W27556  11.362  37.081   1.722
66246W        W27557  41.487  29.467  11.071
66247W        W27558  25.560  40.347   2.352
66248W        W27559  21.652  18.770  13.814
66249W        W27560   3.873  19.582  12.069
66250W        W27561   0.312  10.635  10.889
66251W        W27562  26.636   0.406   3.773
66252W        W27563  26.045  22.520   3.324
66253W        W27564   8.768  30.983   3.344
66254W        W27565  36.371  26.669  10.044
66255W        W27566  12.689  38.962   1.828
66256W        W27567  13.232   1.481   1.886
66257W        W27568  19.677  34.587  12.340
66258W        W27569   0.478  37.035   0.408
66259W        W27570  13.609  32.406   0.729
66260W        W27571  25.559  43.020  10.909
66261W        W27572   9.649  16.731   2.417
66262W        W27573  43.902  29.166   0.311
66263W        W27574  11.252  27.124  11.549
66264W        W27575  35.449   1.888  13.545
66265W        W27576  24.632  27.167   5.586
66266W        W27577  23.225  21.543   2.284
66267W        W27578   1.325  30.414  12.835
66268W        W27579  33.468  36.904  10.134
66269W        W27580  42.965  32.596   3.261
66270W        W27581  42.432   5.833  12.512
66271W        W27582  34.468  35.072  11.917
66272W        W27583  31.006  22.604  10.102
66273W        W27584  15.093  31.138  11.539
66274W        W27585  24.498  30.506   9.995
66275W        W27586  22.172   2.432   0.903
66276W        W27587  30.624  36.422   2.268
66277W        W27588  44.914  10.715  14.910
66278W        W27589  35.425  36.004   3.673
66279W        W27590  30.044  41.434  13.006
66280W        W27591  30.978  44.808  13.841
66281W        W27592  17.144  28.436  13.870
66282W        W27593  13.815  33.032   0.334
66283W        W27594  43.306  40.416   3.730
66284W        W27595  17.076  36.444   1.309
66285W        W27596  21.211  24.557  13.050
66286W        W27597  12.798  13.603  13.358
66287W        W27598  28.161  10.819   4.197
66288W        W27599  44.415   4.808  14.942
66289W        W27600   8.368   3.269   3.678
66290W        W27601   0.775   5.771  10.615
66291W        W27602  35.464  40.479   0.432
66292W        W27603  33.084  12.182   0.464
66293W        W27604   3.905  25.688  11.491
66294W        W27605  11.825  19.232  12.852
66295W        W27606  42.422  23.201   2.815
66296W        W27607  21.703   8.196  12.567
66297W        W27608   7.306   9.877  12.477
66298W        W27609  22.175  43.835  13.985
66299W        W27610  19.621   5.709  12.529
66300W        W27611  20.141  30.649  12.500
66301W        W27612   1.240   4.299   0.908
66302W        W27613  16.182  20.527   3.276
66303W        W27614  13.814  18.259   1.330
66304W        W27615  31.512  24.605   0.417
66305W        W27616  29.636  30.637   5.137
66306W        W27617   8.855   2.403  13.424
66307W        W27618  37.517   8.686  11.474
66308W        W27619  38.525  27.125  10.939
66309W        W27620   4.753  41.946  12.044
66310W        W27621  11.655   0.915   0.769
66311W        W27622  30.544   9.374  10.410
66312W        W27623  22.100  15.807   1.915
66313W        W27624  34.905  18.176  10.974
66314W        W27625  23.150  32.911  12.021
66315W        W27626  37.545  10.740   3.834
66316W        W27627  25.653  35.978   0.835
66317W        W27628  31.536  24.593   3.761
66318W        W27629  42.812  26.203  13.459
66319W        W27630  12.805  20.652  11.526
66320W        W27631  14.271  22.511   2.731
66321W        W27632  32.428   6.224   2.411
66322W        W27633  44.808  15.234   2.901
66323W        W27634   1.851  14.140   2.809
66324W        W27635  15.768   2.434   3.283
66325W        W27636  44.847  25.051   3.800
66326W        W27637  40.804  25.591   0.766
66327W        W27638  10.237   7.299  13.547
66328W        W27639  14.609  26.595   4.214
66329W        W27640  43.925  27.157  11.556
66330W        W27641  19.658   9.261   2.276
66331W        W27642   1.920  18.203  10.458
66332W        W27643  21.654  29.929  14.893
66333W        W27644  13.730  39.934   0.400
66334W        W27645  10.278  40.392   2.874
66335W        W27646  16.599  22.032   1.295
66336W        W27647  22.710  36.571  12.347
66337W        W27648   6.758  33.884  11.116
66338W        W27649  40.988  36.083  13.375
66339W        W27650  43.315   1.870   4.711
66340W        W27651  21.254  17.290  13.927
66341W        W27652  29.137  15.770   4.158
66342W        W27653   4.231  18.723  12.357
66343W        W27654  29.071  20.707  14.888
66344W        W27655   7.355  16.801  13.059
66345W        W27656   1.311  35.896  12.923
66346W        W27657   0.808  44.852  12.924
66347W        W27658   5.353  43.825  10.536
66348W        W27659  37.943  15.809  12.530
66349W        W27660  14.729  25.677  10.101
66350W        W27661  22.011  35.373   0.396
66351W        W27662   2.797  26.111  13.896
66352W        W27663  18.626  31.077   0.763
66353W        W27664  33.608  17.646   3.271
66354W        W27665  24.599  34.461  12.082
66355W        W27666  39.422  39.923  13.496
66356W        W27667  25.181  21.661  11.933
66357W        W27668  31.142  39.899  10.507
66358W        W27669  26.487  31.052   5.684
66359W        W27670  10.816  31.494  13.926
66360W        W27671  41.933  34.590  13.474
66361W        W27672  31.049   6.303   2.753
66362W        W27673  16.727  23.549   4.311
66363W        W27674   8.756   5.344  12.443
66364W        W27675   2.262  14.301   0.434
66365W        W27676  13.603  33.404  14.806
66366W        W27677  37.847  24.569   3.275
66367W        W27678   5.431  21.665   4.192
66368W        W27679  37.990  12.304   0.936
66369W        W27680  13.623   7.847   0.740
66370W        W27681  33.996  38.381  13.459
66371W        W27682  13.172  24.146  13.984
66372W        W27683  42.497  15.189   0.394
66373W        W27684  19.082   0.932  14.377
66374W        W27685  25.519  28.974   5.168
66375W        W27686  37.838  38.327  12.533
66376W        W27687  14.672  18.167   4.616
66377W        W27688  26.540  21.619  12.914
66378W        W27689   4.342  31.999   2.367
66379W        W27690  34.942  44.837   1.702
66380W        W27691  44.997  39.959   2.893
66381W        W27692   4.430   2.346  11.011
66382W        W27693  12.854  24.224   2.726
66383W        W27694  12.630  14.216   2.291
66384W        W27695  10.140  36.002   4.638
66385W        W27696   2.426   1.758   3.679
66386W        W27697  20.152   5.340  13.944
66387W        W27698   6.362  19.269   2.243
66388W        W27699  22.539  27.680  11.382
66389W        W27700   3.721  32.533  14.309
66390W        W27701  14.234  13.650   0.857
66391W        W27702   4.233  36.373  12.523
66392W        W27703   6.297  33.528  12.575
66393W        W27704  35.525  32.605  10.927
66394W        W27705   3.352  30.512  11.105
66395W        W27706  39.909  38.015   3.765
66396W        W27707  16.087   1.468  12.927
66397W        W27708  44.895  14.337  10.428
66398W        W27709  26.494   1.932   3.751
66399W        W27710  11.262  21.067  13.847
66400W        W27711   6.207  13.194   2.690
66401W        W27712   0.343  33.005   3.386
66402W        W27713   7.272  26.488  13.472
66403W        W27714  12.642  16.257  12.356
66404W        W27715  28.597  10.830  10.558
66405W        W27716  19.157  20.250   2.713
66406W        W27717  32.002  25.109  14.371
66407W        W27718  35.009  28.156  13.440
66408W        W27719  39.429  22.626   2.666
66409W        W27720   7.179  27.568  10.550
66410W        W27721  26.020  15.238  10.626
66411W        W27722  12.145  43.464  11.543
66412W        W27723  40.846  23.224  13.858
66413W        W27724  35.399  30.077  11.941
66414W        W27725  23.610  23.659   4.748
66415W        W27726  37.923   5.910   1.888
66416W        W27727   9.254  26.020  11.429
66417W        W27728  26.994   0.316  13.952
66418W        W27729  25.054   7.409   1.831
66419W        W27730  17.136  18.565  12.355
66420W        W27731  29.947  43.383  13.545
66421W        W27732   5.250  26.165  13.327
66422W        W27733  21.085  18.074   3.270
66423W        W27734  10.726  14.807  11.523
66424W        W27735   6.253  26.131  12.360
66425W        W27736  43.945  27.517   0.408
66426W        W27737  35.921   7.384   3.323
66427W        W27738  12.719  40.821   1.284
66428W        W27739  18.126  30.102   4.830
66429W        W27740  29.604  40.866  10.444
66430W        W27741   3.259  28.596  11.392
66431W        W27742   9.690  37.478  11.056
66432W        W27743  43.412  35.981   1.337
66433W        W27744  36.531  29.133  12.847
66434W        W27745   3.263   7.294   1.321
66435W        W27746  23.076   3.362  12.990
66436W        W27747  42.810  37.882   0.895
66437W        W27748  17.748  11.714  13.400
66438W        W27749  10.371  13.649  11.519
66439W        W27750  34.391  37.084  13.878
66440W        W27751  39.895  42.883   0.351
66441W        W27752  31.978   4.317  13.887
66442W        W27753  42.872  32.912   0.429
66443W        W27754  14.234  38.008   5.312
66444W        W27755  38.559  33.037   1.804
66445W        W27756  27.647  37.450   2.834
66446W        W27757  41.310   9.704  12.889
66447W        W27758   3.431   2.298  11.451
66448W        W27759  27.078  13.209   0.295
66449W        W27760  22.530   1.437   3.706
66450W        W27761  29.942  13.280   4.230
66451W        W27762   9.390   1.898  10.916
66452W        W27763   3.387  31.449  10.605
66453W        W27764  15.152   7.267  10.933
66454W        W27765   0.339  11.261  13.946
66455W        W27766  35.423   7.888   4.754
66456W        W27767  28.677   1.238  14.868
66457W        W27768  24.192  20.749   5.159
66458W        W27769  34.051  28.166   0.955
66459W        W27770  19.130   6.375  12.497
66460W        W27771  39.332  22.727  14.389
66461W        W27772  18.556   5.923   4.630
66462W        W27773  23.525  14.817  12.826
66463W        W27774  10.794  29.648  12.967
66464W        W27775   3.324  28.987   3.290
66465W        W27776  41.010  15.128   2.256
66466W        W27777  39.990  25.215  14.860
66467W        W27778  31.117  12.155   2.876
66468W        W27779  42.873  10.281  14.822
66469W        W27780  21.635  14.188   2.709
66470W        W27781  16.575  29.945   1.413
66471W        W27782   0.292  34.440  10.405
66472W        W27783  18.590  23.551   3.803
66473W        W27784  25.964  13.614   1.844
66474W        W27785  29.157  23.615  13.835
66475W        W27786  16.135  24.528  12.406
66476W        W27787  37.948   5.895  14.275
66477W        W27788  34.436  37.464   0.398
66478W        W27789  28.494  32.538  11.052
66479W        W27790   6.284   5.394   1.806
66480W        W27791  19.278  28.080   3.154
66481W        W27792  31.619   4.836  12.981
66482W        W27793  44.961   6.790  12.825
66483W        W27794  39.877  22.651   4.644
66484W        W27795  33.453   2.465   2.706
66485W        W27796  13.127   7.851   2.787
66486W        W27797  37.978  14.689  14.444
66487W        W27798  34.986  35.012   2.767
66488W        W27799  43.392  21.231  12.928
66489W        W27800   2.957  12.732  12.540
66490W        W27801  23.230  10.343   3.255
66491W        W27802  25.684  11.219  14.322
66492W        W27803  28.653  33.452   1.356
66493W        W27804  26.085  39.944  11.383
66494W        W27805  26.076   8.845  13.945
66495W        W27806  33.001  18.653  13.844
66496W        W27807  40.531  11.337  14.477
66497W        W27808  34.080  18.091   4.169
66498W        W27809  19.557  15.210   2.900
66499W        W27810  16.084  37.498  10.603
66500W        W27811  32.518  12.154  11.036
66501W        W27812  32.106  21.037  10.410
66502W        W27813  24.483  34.953  12.572
66503W        W27814  42.951  16.584   4.254
66504W        W27815   2.834  29.080  11.423
66505W        W27816  28.112  11.866   4.293
66506W        W27817   3.228  10.736   4.118
66507W        W27818  27.151  31.524   1.896
66508W        W27819  39.952  29.635   0.841
66509W        W27820  18.594   7.682  11.600
66510W        W27821  33.559  43.799   2.809
66511W        W27822  28.507   3.354   2.798
66512W        W27823  30.438  12.280  11.507
66513W        W27824  38.516   3.459   2.859
66514W        W27825   9.854  18.291  10.044
66515W        W27826   4.820   9.686  13.397
66516W        W27827  28.487   1.960  14.789
66517W        W27828  23.589  16.301   1.696
66518W        W27829  14.622  29.577   1.229
66519W        W27830   1.867  16.110  11.868
66520W        W27831  30.120  16.209   4.725
66521W        W27832   9.717  10.707  11.438
66522W        W27833  13.649  44.339   4.796
66523W        W27834  17.640   5.722   1.846
66524W        W27835  28.465  36.005  11.920
66525W        W27836  16.580  41.502  14.425
66526W        W27837  36.370  26.525   1.754
66527W        W27838  35.052  17.104   0.422
66528W        W27839  17.762  40.948   4.218
66529W        W27840  25.073  22.505  12.833
66530W        W27841  42.002  41.937  12.836
66531W        W27842   7.304  26.022  12.040
66532W        W27843  41.306  28.062  12.044
66533W        W27844   4.819  23.494  11.041
66534W        W27845  31.911   0.809  13.372
66535W        W27846  40.004   1.835   0.248
66536W        W27847   3.820  19.213  11.510
66537W        W27848  38.521   6.786  10.531
66538W        W27849   7.841  27.171  12.523
66539W        W27850   3.396  38.989  13.445
66540W        W27851  38.915  17.139  11.884
66541W        W27852  24.194  12.806  12.559
66542W        W27853  21.713  33.465  12.348
66543W        W27854  16.690  31.915  11.909
66544W        W27855  11.655  10.335   4.633
66545W        W27856   0.305   7.799  13.347
66546W        W27857  34.932   1.834   0.839
66547W        W27858   7.344  32.487  13.892
66548W        W27859  25.659   7.368  11.582
66549W        W27860   1.850  24.133   4.352
66550W        W27861  15.602   0.963   0.949
66551W        W27862   3.249  38.036  10.493
66552W        W27863   8.278  19.549   3.266
66553W        W27864  34.465  43.806   1.786
66554W        W27865   0.925   9.230  12.576
66555W        W27866  27.692  27.010   2.211
66556W        W27867  20.108   8.833   1.928
66557W        W27868  32.946   8.901  11.015
66558W        W27869  16.693  36.421   2.813
66559W        W27870  21.542  23.128   4.304
66560W        W27871  20.078   2.392   1.262
66561W        W27872  13.814  11.183   3.208
66562W        W27873  39.406  38.914  14.986
66563W        W27874  27.563  29.425   3.801
66564W        W27875  17.616   3.936   4.169
66565W        W27876  24.663  38.887   3.724
66566W        W27877  27.093  12.224   0.406
66567W        W27878  15.749  30.939   1.352
66568W        W27879   8.790  18.178   0.952
66569W        W27880  44.789  43.283  12.957
66570W        W27881  37.494  18.249  11.593
66571W        W27882  26.000  10.349  13.492
66572W        W27883   1.425  17.170  13.877
66573W        W27884  39.498  42.380   4.835
66574W        W27885  29.083  20.625  13.953
66575W        W27886  33.977  42.352  10.999
66576W        W27887  21.084  13.289  12.063
66577W        W27888  17.229  41.787  10.590
66578W        W27889  23.047  20.755   1.778
66579W        W27890  30.912  36.880   2.372
66580W        W27891  19.709  21.113  12.936
66581W        W27892   7.319  36.447   2.735
66582W        W27893  19.156  14.746   3.382
66583W        W27894   5.838  30.075  12.557
66584W        W27895  35.871   2.469   0.786
66585W        W27896  38.912   5.873   3.643
66586W        W27897  16.115  27.645   4.298
66587W        W27898  29.066   2.834  11.002
66588W        W27899  41.807  15.801  14.321
66589W        W27900   6.428  25.065  14.442
66590W        W27901  44.849  39.497  14.465
66591W        W27902  34.115  43.509   2.286
66592W        W27903   2.411   6.821   4.237
66593W        W27904  24.678  20.038   1.710
66594W        W27905  11.328  25.681   3.811
66595W        W27906   5.418  36.957  12.473
66596W        W27907  36.886  27.478  10.462
66597W        W27908  15.675  41.825  13.539
66598W        W27909  11.154  37.424  12.543
66599W        W27910  11.362  43.347  14.832
66600W        W27911   3.413  36.487  14.923
66601W        W27912  31.049  34.013  10.937
66602W        W27913  33.888  41.353   0.333
66603W        W27914   5.737  36.457  13.943
66604W        W27915  39.330  20.710  10.554
66605W        W27916  40.393  14.820   1.774
66606W        W27917   0.441  30.554  10.626
66607W        W27918   6.737  20.588  12.504
66608W        W27919  34.444  13.162   3.174
66609W        W27920  17.607  39.059   0.266
66610W        W27921  24.715  15.770   3.651
66611W        W27922  17.675  16.080  11.926
66612W        W27923  29.660  33.519   2.776
66613W        W27924  23.027  34.094   2.407
66614W        W27925  10.167  42.970   2.419
66615W        W27926  42.779  16.650  13.437
66616W        W27927  32.427  13.224  14.821
66617W        W27928  20.614  14.111  11.119
66618W        W27929  37.048  10.272   4.340
66619W        W27930  22.054  37.988  12.923
66620W        W27931   6.410  10.794   2.695
66621W        W27932  29.039   4.273  11.027
66622W        W27933   8.218  17.575  10.008
66623W        W27934   7.355  22.054  11.436
66624W        W27935  21.031  39.011   0.424
66625W        W27936  26.995   1.451  13.882
66626W        W27937  33.412  37.579  10.556
66627W        W27938   7.196  28.570   1.909
66628W        W27939  10.293   5.392  13.879
66629W        W27940  16.187  25.140   2.726
66630W        W27941  13.826   6.301  13.908
66631W        W27942  35.491  31.587  14.415
66632W        W27943  31.415   1.322  12.545
66633W        W27944  44.384  42.362  10.637
66634W        W27945   3.711  40.856  14.467
66635W        W27946  27.954  30.097   4.811
66636W        W27947  38.062  15.125   4.628
66637W        W27948  37.982   5.237   4.122
66638W        W27949  27.479  14.176   1.268
66639W        W27950  25.601   7.722   2.794
66640W        W27951   6.381  40.894   2.320
66641W        W27952   8.814  39.022  12.428
66642W        W27953  10.634   4.808   2.769
66643W        W27954  35.036   2.436  11.049
66644W        W27955   9.231  35.568  14.365
66645W        W27956  18.178  17.177  13.446
66646W        W27957  31.646  40.316  14.427
66647W        W27958   6.403  24.622   1.764
66648W        W27959  23.050  16.160  11.579
66649W        W27960  11.785   9.654  10.607
66650W        W27961  21.596  11.825   1.250
66651W        W27962  31.071  37.054  14.315
66652W        W27963  44.489  13.724   4.837
66653W        W27964  10.152  10.210  12.520
66654W        W27965  42.900  19.195  10.990
66655W        W27966   6.209  24.176   4.681
66656W        W27967  27.108  38.021  14.940
66657W        W27968  20.134  18.160  10.082
66658W        W27969  10.645  34.564   3.814
66659W        W27970   7.862  20.652  11.911
66660W        W27971  35.972  30.924   1.817
66661W        W27972  13.814  13.678   0.384
66662W        W27973  40.339  16.617   0.830
66663W        W27974  30.655   3.440   2.337
66664W        W27975  22.620   9.761  12.386
66665W        W27976  12.313   3.852  10.441
66666W        W27977  18.645  15.598   3.339
66667W        W27978   2.743  36.943  14.770
66668W        W27979   6.228   6.744   1.260
66669W        W27980  21.730  36.553  10.594
66670W        W27981  30.633  40.921   1.720
66671W        W27982  11.219  30.019   0.366
66672W        W27983  28.012  24.712   0.414
66673W        W27984  19.647   8.756  12.462
66674W        W27985  15.684   2.893   1.299
66675W        W27986   1.381  27.124  13.406
66676W        W27987  24.046   4.265  12.408
66677W        W27988  21.603  36.541   2.412
66678W        W27989  41.455  25.107  12.580
66679W        W27990  36.081   9.233   4.116
66680W        W27991  14.256   7.697  14.383
66681W        W27992  41.850   5.270   3.235
66682W        W27993  23.092  32.109   3.741
66683W        W27994   7.907  26.039  12.501
66684W        W27995  16.154  32.622  12.015
66685W        W27996   9.679  33.119   0.769
66686W        W27997  12.638   0.746   0.967
66687W        W27998  13.624   7.411  14.308
66688W        W27999  36.875  35.530  11.571
66689W        W28000   6.285  18.678   5.130
66690W        W28001  22.036  23.541   4.340
66691W        W28002  37.431  21.190   9.984
66692W        W28003  15.147   9.650   0.446
66693W        W28004  17.157   5.724   0.318
66694W        W28005   8.776  42.781  10.547
66695W        W28006  13.824  20.568  13.475
66696W        W28007  37.960   4.210  11.886
66697W        W28008   1.465  13.736   1.743
66698W        W28009  29.997  29.655  14.855
66699W        W28010   2.835  28.550  11.453
66700W        W28011  24.579  25.031  12.510
66701W        W28012  43.276   6.917  12.873
66702W        W28013   8.766  43.769  10.561
66703W        W28014  31.974  17.621   0.379
66704W        W28015   6.865  14.794   3.369
66705W        W28016  34.379   4.294  11.572
66706W        W28017  42.942  34.556  13.990
66707W        W28018  32.925  33.975  11.029
66708W        W28019  33.940  37.854  11.517
66709W        W28020  26.554  23.037   1.909
66710W        W28021  25.553   5.312   2.842
66711W        W28022  14.216   5.855  10.411
66712W        W28023  15.084   6.863  11.995
66713W        W28024  23.013  36.863  12.483
66714W        W28025   0.289   4.305   0.308
66715W        W28026  40.028  31.600   0.895
66716W        W28027  24.980   3.795  12.842
66717W        W28028  31.622  36.934  13.504
66718W        W28029   9.340  10.292  11.910
66719W        W28030   2.396  35.021   0.268
66720W        W28031  22.706  17.242   2.313
66721W        W28032  10.235  12.725   4.764
66722W        W28033  22.037  31.128  13.799
66723W        W28034  24.042   1.913   1.333
66724W        W28035  33.495  24.679   0.905
66725W        W28036  26.613   7.293   2.242
66726W        W28037  18.252  37.359   0.792
66727W        W28038   8.322  25.116   0.293
66728W        W28039   6.210  36.520  14.810
66729W        W28040   8.283  44.989  13.061
66730W        W28041  38.490  43.343  13.518
66731W        W28042  18.678  39.439   5.748
66732W        W28043  30.074  32.508   0.902
66733W        W28044  44.843  39.366   0.455
66734W        W28045  23.665  19.230   4.620
66735W        W28046  29.463   9.385  10.904
66736W        W28047  17.208  31.613  12.996
66737W        W28048  30.922  21.680  13.478
66738W        W28049   0.374  20.230   4.145
66739W        W28050   7.345  23.219  14.872
66740W        W28051  10.867  22.090   3.339
66741W        W28052  37.032   8.693   1.724
66742W        W28053  34.112  13.801   2.853
66743W        W28054  24.099  19.075  10.423
66744W        W28055  25.096  37.562   2.705
66745W        W28056  31.477  25.101  13.997
66746W        W28057   6.845  31.626   1.750
66747W        W28058  23.615   0.759  14.379
66748W        W28059  27.991  25.974   2.401
66749W        W28060  27.110  38.000   2.255
66750W        W28061  15.129  44.396   0.884
66751W        W28062  33.612   5.245   4.803
66752W        W28063   6.693  10.248   1.443
66753W        W28064   7.345  13.172   4.738
66754W        W28065  34.492  10.224  12.370
66755W        W28066  27.680  43.933   3.871
66756W        W28067  19.622  36.356   3.154
66757W        W28068  25.031  31.411   2.775
66758W        W28069  28.089  43.513   2.355
66759W        W28070  17.616  15.593  12.907
66760W        W28071  33.383  24.645   4.338
66761W        W28072  31.118   2.835   0.741
66762W        W28073  23.027  16.797   3.274
66763W        W28074  18.189  26.180  12.370
66764W        W28075   4.448   5.863   1.234
66765W        W28076  44.890  22.691  12.429
66766W        W28077  15.813  10.788   1.234
66767W        W28078  26.127  12.307  11.564
66768W        W28079  33.540  36.076   1.700
66769W        W28080  22.515  36.511   2.231
66770W        W28081  11.684  14.794   1.862
66771W        W28082  15.318  30.555  11.516
66772W        W28083  25.154  35.407  14.884
66773W        W28084  10.730  32.575   0.322
66774W        W28085  22.188  26.199   4.632
66775W        W28086  40.880  36.094   1.263
66776W        W28087  28.006  44.299   1.896
66777W        W28088  29.010  36.570   2.291
66778W        W28089  24.594  10.670   4.113
66779W        W28090   8.669  39.029   1.211
66780W        W28091  23.018  23.079  10.039
66781W        W28092  10.782   8.253   0.900
66782W        W28093   9.720  14.243  12.489
66783W        W28094  14.162  24.632   2.308
66784W        W28095  19.042  35.937   0.957
66785W        W28096  40.951   5.423   2.357
66786W        W28097  25.014  35.995   2.746
66787W        W28098  42.877  32.094   3.345
66788W        W28099  12.783  14.257   4.345
66789W        W28100   5.344  23.504   1.873
66790W        W28101  10.733  42.287  10.439
66791W        W28102   5.839  38.447  12.058
66792W        W28103  34.901  43.365   0.348
66793W        W28104  24.986  40.799  10.554
66794W        W28105   2.765  38.071  13.398
66795W        W28106   5.283  20.158   0.836
66796W        W28107  15.745  29.655   0.764
66797W        W28108  19.206  13.111   0.864
66798W        W28109  25.659  15.631  10.972
66799W        W28110  29.026  10.728  12.352
66800W        W28111  31.414   9.334  12.993
66801W        W28112  28.983  41.490  10.623
66802W        W28113  12.769  41.381  12.966
66803W        W28114  11.676  37.345  11.491
66804W        W28115  22.187   2.960   1.706
66805W        W28116  32.501  44.434   0.876
66806W        W28117  29.047  28.540  13.438
66807W        W28118  15.643   0.252  12.474
66808W        W28119  21.065  27.151   3.179
66809W        W28120  31.643  25.700  13.478
66810W        W28121  23.504  16.090   4.334
66811W        W28122  20.686  10.317  13.811
66812W        W28123  13.616  24.620   1.216
66813W        W28124  19.086  15.737   5.283
66814W        W28125   6.710   1.819   2.778
66815W        W28126  39.965  42.475  11.522
66816W        W28127  12.290   6.247   2.831
66817W        W28128   3.843  44.878   0.891
66818W        W28129   3.781  27.967   2.870
66819W        W28130   8.282  24.679  13.805
66820W        W28131  29.436  10.873   4.145
66821W        W28132  40.845  33.060  12.915
66822W        W28133  17.159  44.308  10.611
66823W        W28134  17.639   7.899   0.862
66824W        W28135  31.639  16.800  14.960
66825W        W28136  30.427  44.296  11.021
66826W        W28137  35.389  14.607  14.376
66827W        W28138  18.054  37.467   2.686
66828W        W28139  39.510  11.347   4.824
66829W        W28140   9.334   2.376  11.488
66830W        W28141  34.452  16.211   0.273
66831W        W28142   8.790  10.738   3.780
66832W        W28143  12.740   8.233  13.907
66833W        W28144  29.512  13.208   0.809
66834W        W28145  13.338  44.476  13.396
66835W        W28146  18.655  14.738  14.955
66836W        W28147  30.659  24.661   1.415
66837W        W28148  19.174  44.502   3.302
66838W        W28149   6.722  39.003   1.422
66839W        W28150  41.310  39.038   0.950
66840W        W28151  35.477   7.813  10.912
66841W        W28152  43.457  18.180   2.271
66842W        W28153  39.470   3.379   4.673
66843W        W28154  44.802   4.345   2.418
66844W        W28155  34.503  30.944   2.773
66845W        W28156  19.080  19.585  13.407
66846W        W28157  29.446  43.997   0.871
66847W        W28158   3.792  26.960  11.919
66848W        W28159  33.403   1.371   3.809
66849W        W28160  35.092  10.762   1.909
66850W        W28161   6.849  31.965  11.042
66851W        W28162  18.757   0.972  13.503
66852W        W28163  24.137   9.793   3.776
66853W        W28164   1.394   0.782  14.440
66854W        W28165  11.639  11.215   3.807
66855W        W28166   2.806  26.596   0.954
66856W        W28167   4.210  26.623  14.458
66857W        W28168  36.849  11.264  13.016
66858W        W28169   2.384  39.466  13.507
66859W        W28170  30.914  17.713   0.873
66860W        W28171  31.480  27.106   3.797
66861W        W28172  43.826   0.471   2.786
66862W        W28173  13.315  21.525   4.129
66863W        W28174  22.617  24.198  13.447
66864W        W28175  28.948  15.202   4.751
66865W        W28176  40.026   1.438  10.474
66866W        W28177  32.971  40.458  11.913
66867W        W28178  44.433  37.960  11.929
66868W        W28179  35.934  11.332   0.872
66869W        W28180   1.277  23.501   2.857
66870W        W28181  10.665  28.047  13.397
66871W        W28182  22.602  14.277   1.725
66872W        W28183  15.300   1.268  12.429
66873W        W28184  35.370  44.374   2.872
66874W        W28185  19.650  44.351   4.187
66875W        W28186  43.301  21.522  10.950
66876W        W28187  17.269  19.722   2.744
66877W        W28188   9.765  39.450   4.333
66878W        W28189  38.417   2.375  13.939
66879W        W28190  22.248  33.946   4.666
66880W        W28191  41.915   8.267  11.078
66881W        W28192  43.408   6.406   0.377
66882W        W28193  28.003  15.748   4.211
66883W        W28194   9.882  21.263  13.319
66884W        W28195  16.256   1.337   1.421
66885W        W28196  21.138  33.536   2.415
66886W        W28197  41.860  34.010  13.871
66887W        W28198  29.942  26.988  13.922
66888W        W28199  30.940  15.632  14.406
66889W        W28200  11.258  18.214  12.885
66890W        W28201  36.950  42.922  10.600
66891W        W28202  44.899   2.234  11.445
66892W        W28203   7.404  44.308  13.997
66893W        W28204   9.841  20.231   3.250
66894W        W28205  36.419  10.219   1.747
66895W        W28206  12.762  43.308  11.414
66896W        W28207  43.806  27.650   3.150
66897W        W28208  38.952  13.141  14.350
66898W        W28209  11.227  17.587  10.633
66899W        W28210   4.385  15.707  10.449
66900W        W28211  41.441   9.237   0.778
66901W        W28212  17.224  16.693  11.059
66902W        W28213  24.721  18.677   1.318
66903W        W28214  19.535  16.609   2.674
66904W        W28215  20.231  42.473   0.307
66905W        W28216  14.304  17.107   0.840
66906W        W28217  31.638  25.601   0.907
66907W        W28218  24.609  44.854   1.268
66908W        W28219  34.924  38.884  10.417
66909W        W28220  12.823  20.530   3.783
66910W        W28221   9.748  20.529   4.663
66911W        W28222  15.210   2.242  12.548
66912W        W28223  31.082  14.245  10.453
66913W        W28224  31.583  16.616  10.408
66914W        W28225   6.823  13.808   0.834
66915W        W28226  29.472  13.310  13.397
66916W        W28227  15.688   6.766   2.889
66917W        W28228  30.028  13.164   1.724
66918W        W28229  43.949  18.683  13.027
66919W        W28230  13.155  36.004  12.953
66920W        W28231  10.765  43.378   0.376
66921W        W28232  31.133   4.206  14.993
66922W        W28233  30.627  18.185  11.511
66923W        W28234   5.296  22.561  12.342
66924W        W28235  10.313   9.711   0.776
66925W        W28236   8.884  18.191   4.654
66926W        W28237  35.021  15.161  12.092
66927W        W28238  23.704  19.237   3.187
66928W        W28239  17.677  28.029   0.460
66929W        W28240  33.602  43.786  12.502
66930W        W28241  30.472  27.509  14.802
66931W        W28242  19.226  30.989   1.798
66932W        W28243  25.709  14.665   4.259
66933W        W28244  37.571  19.732  11.566
66934W        W28245  20.608   5.414   4.289
66935W        W28246   2.326  14.208   4.285
66936W        W28247   9.385  23.228  10.553
66937W        W28248  37.843  44.269   3.365
66938W        W28249   0.808  36.426   1.388
66939W        W28250  11.359  26.058  12.374
66940W        W28251  12.616  16.571   3.636
66941W        W28252  12.855  14.698   2.851
66942W        W28253  33.621   3.357   4.664
66943W        W28254  12.649  12.347   3.338
66944W        W28255  20.564  18.206   2.721
66945W        W28256  42.308  31.461  14.933
66946W        W28257  19.091  34.454   2.223
66947W        W28258  10.716  39.830  11.882
66948W        W28259  37.019  29.960  11.953
66949W        W28260  10.812   1.934  14.401
66950W        W28261  11.130  38.070   3.375
66951W        W28262  30.026  14.298  13.406
66952W        W28263  44.313  11.706   5.157
66953W        W28264  13.348  19.617   5.102
66954W        W28265  20.722   2.384   3.835
66955W        W28266  42.315  19.647  11.463
66956W        W28267  32.398  13.146  11.867
66957W        W28268  11.330  32.452   0.741
66958W        W28269   1.784   9.389   3.687
66959W        W28270   9.717  39.835   1.725
66960W        W28271  37.493  22.654  14.916
66961W        W28272  25.095  16.782  14.839
66962W        W28273  12.148  29.458   0.777
66963W        W28274   8.834  41.885  14.388
66964W        W28275  27.152  11.130   0.435
66965W        W28276  17.194  31.567   3.705
66966W        W28277  25.199  25.611   3.630
66967W        W28278  34.087  24.604   2.332
66968W        W28279   6.336  35.943  12.964
66969W        W28280  41.945   6.901   4.731
66970W        W28281   9.203  32.109   5.212
66971W        W28282  43.979  12.821  11.610
66972W        W28283  24.077  29.620   0.265
66973W        W28284  37.859  25.600   3.186
66974W        W28285  34.050  11.167   3.222
66975W        W28286  42.367   3.790   3.663
66976W        W28287  39.815  25.171   4.633
66977W        W28288  25.216   1.343  10.489
66978W        W28289  19.573  24.009  13.846
66979W        W28290  19.686   9.845  10.642
66980W        W28291   5.792  23.136  14.296
66981W        W28292  22.226  37.893   4.720
66982W        W28293  11.309  16.616  11.118
66983W        W28294  17.076  21.707  12.460
66984W        W28295  32.042  38.369   0.810
66985W        W28296  41.795   1.368  11.063
66986W        W28297   2.773  33.444  13.472
66987W        W28298  38.842  37.385   3.821
66988W        W28299  27.523  43.892   1.323
66989W        W28300   6.729   8.381   4.308
66990W        W28301   2.960  33.901  13.803
66991W        W28302   3.246  22.233   2.720
66992W        W28303  30.148  43.952   0.813
66993W        W28304  10.846  18.729  13.323
66994W        W28305  17.249   6.283  11.418
66995W        W28306   2.326  14.767   3.805
66996W        W28307  11.713  40.328  12.986
66997W        W28308  39.858  25.669   4.761
66998W        W28309   9.226  32.916   3.177
66999W        W28310  17.604  10.798   2.679
67000W        W28311  33.576   2.798   0.748
67001W        W28312  21.173  34.474  12.059
67002W        W28313   6.765  38.386   4.695
67003W        W28314  30.140  28.053  13.411
67004W        W28315   6.421  11.236  12.466
67005W        W28316  17.782  27.489  12.865
67006W        W28317  44.500  28.653   3.222
67007W        W28318  24.536   1.418   3.292
67008W        W28319  13.230   0.746  13.056
67009W        W28320  12.799   8.274  14.939
67010W        W28321  30.959  29.013   2.815
67011W        W28322  15.159  12.781  11.464
67012W        W28323  15.774  17.680  14.939
67013W        W28324  15.222  21.025   2.375
67014W        W28325  32.476  39.367  10.461
67015W        W28326   6.263   9.286  13.447
67016W        W28327  36.892  16.265   1.748
67017W        W28328  35.095  39.406  14.801
67018W        W28329  30.438   8.333   2.326
67019W        W28330  18.168  12.616   3.324
67020W        W28331  30.991  25.129  13.337
67021W        W28332  35.501  16.112   4.633
67022W        W28333   0.878   5.416   0.319
67023W        W28334   3.889  14.301  11.389
67024W        W28335   7.773  19.172   3.337
67025W        W28336  10.188  27.603   0.471
67026W        W28337  10.795  36.551   2.377
67027W        W28338  30.425  43.967   2.891
67028W        W28339  43.955   0.318   3.315
67029W        W28340   2.795  17.631   2.662
67030W        W28341  12.203  15.142   0.423
67031W        W28342  24.657  34.975   2.338
67032W        W28343  14.758  13.635   5.214
67033W        W28344  38.441   1.786   2.413
67034W        W28345  29.620   3.890  12.856
67035W        W28346  22.139  11.776  12.945
67036W        W28347   7.384  42.026  13.025
67037W        W28348  21.217  39.933  12.906
67038W        W28349   3.428  43.901   4.267
67039W        W28350  28.168  35.465   2.243
67040W        W28351  26.092   8.893   2.857
67041W        W28352  21.102  32.561  13.309
67042W        W28353  23.528  29.068  14.009
67043W        W28354  36.541   0.284  10.457
67044W        W28355  42.888  15.241  11.985
67045W        W28356   8.285  29.636   1.244
67046W        W28357  27.607  33.546  12.916
67047W        W28358  42.933  33.100  14.008
67048W        W28359  12.284  35.549   3.208
67049W        W28360  32.543  24.008  12.935
67050W        W28361  43.515  10.677  11.460
67051W        W28362  14.609  34.050   3.702
67052W        W28363  36.404  25.074  14.478
67053W        W28364  38.020  21.664  13.888
67054W        W28365   3.834  18.582  12.959
67055W        W28366   6.900  19.041   3.209
67056W        W28367  16.689  30.555   4.759
67057W        W28368  26.493  32.624  12.489
67058W        W28369  27.516  13.184   3.303
67059W        W28370  43.273  37.015  12.069
67060W        W28371  43.441   6.357  14.785
67061W        W28372  42.891  19.067  12.457
67062W        W28373  36.543  34.070   0.826
67063W        W28374  14.778  24.057  10.457
67064W        W28375  12.655   4.292   3.707
67065W        W28376  38.858  17.108   1.923
67066W        W28377   3.805  35.412   0.298
67067W        W28378   5.750  15.227   2.725
67068W        W28379   3.904  21.046  14.860
67069W        W28380  31.043  34.429  12.518
67070W        W28381  22.549  41.404   3.356
67071W        W28382  11.297   6.258  12.096
67072W        W28383   5.304  23.108  14.322
67073W        W28384  31.515  43.275  10.623
67074W        W28385  37.366  27.518   4.619
67075W        W28386   7.172  30.045   4.708
67076W        W28387  23.621  39.909   3.316
67077W        W28388  37.871  32.116  14.970
67078W        W28389  22.140  33.081   1.820
67079W        W28390   0.343  34.080   2.248
67080W        W28391  22.200   4.352  13.438
67081W        W28392  41.883  25.483  14.939
67082W        W28393  35.984   9.346   2.293
67083W        W28394   9.817   4.844  10.533
67084W        W28395   4.293  35.881  11.059
67085W        W28396  31.610  18.244   1.710
67086W        W28397  19.227  40.965  11.600
67087W        W28398  33.625  42.323  10.475
67088W        W28399  19.573  15.623  12.081
67089W        W28400  43.919   2.266  13.833
67090W        W28401  18.694  41.324   0.769
67091W        W28402  18.762  10.791   1.393
67092W        W28403  12.251  42.301  14.314
67093W        W28404  19.638  29.936  10.469
67094W        W28405  13.198  29.055  13.894
67095W        W28406  20.619  43.988  12.390
67096W        W28407  38.948   3.344  10.522
67097W        W28408  31.985   9.306  12.353
67098W        W28409   6.253   4.846   5.192
67099W        W28410  31.046  33.459  10.895
67100W        W28411  20.695   4.872  11.864
67101W        W28412  16.693  18.585  14.904
67102W        W28413   2.442   3.796   4.309
67103W        W28414  15.135  24.537   0.296
67104W        W28415  39.047  32.413  12.571
67105W        W28416   6.280  20.081   3.816
67106W        W28417  10.236  35.861  13.977
67107W        W28418  35.541  30.157   5.677
67108W        W28419   3.354  28.104  11.867
67109W        W28420   5.731  31.081  10.620
67110W        W28421   9.849  11.822   0.797
67111W        W28422  33.383   3.259  10.980
67112W        W28423   2.804   2.467  10.994
67113W        W28424  30.582   3.814  12.495
67114W        W28425  10.230  18.233   4.155
67115W        W28426  25.709  21.688  10.482
67116W        W28427  10.857  32.051  12.043
67117W        W28428   2.401   4.449   4.779
67118W        W28429  43.325  16.586  12.093
67119W        W28430  34.919  28.107  11.453
67120W        W28431  11.780  21.164   0.958
67121W        W28432  31.049   6.893  12.474
67122W        W28433  33.917  29.067   0.247
67123W        W28434   9.289   1.305   3.233
67124W        W28435  25.110  17.744  14.499
67125W        W28436  13.789  42.857  13.056
67126W        W28437  21.621  32.033  12.368
67127W        W28438  18.201  29.558  10.513
67128W        W28439   6.410  24.103  11.395
67129W        W28440   5.202  37.881   2.379
67130W        W28441   7.281  18.132  12.918
67131W        W28442  36.549  36.997   1.804
67132W        W28443  30.613  40.417   3.706
67133W        W28444   4.710  36.935  12.493
67134W        W28445  17.653   0.476  10.576
67135W        W28446  44.259   2.452  13.366
67136W        W28447   2.941  20.592   0.859
67137W        W28448  17.103   1.404  14.902
67138W        W28449  23.992   2.344  14.437
67139W        W28450  22.007  19.764  10.518
67140W        W28451   7.727  27.015   3.378
67141W        W28452  20.127   1.758   1.410
67142W        W28453  34.528  15.686   1.808
67143W        W28454   5.307   9.333  11.876
67144W        W28455  29.955  11.299  14.878
67145W        W28456  41.508   9.660   0.387
67146W        W28457  36.098  15.750  10.477
67147W        W28458  12.687   2.427   1.450
67148W        W28459  21.613  37.409   1.334
67149W        W28460  11.367  16.642  10.603
67150W        W28461   1.413  38.075  14.479
67151W        W28462  18.051   1.395  13.984
67152W        W28463   9.681   5.262  12.011
67153W        W28464  19.234  18.122   0.271
67154W        W28465   4.898  12.695  11.915
67155W        W28466   1.900  12.768  14.349
67156W        W28467   2.871  19.071   0.850
67157W        W28468  34.052  22.577  13.352
67158W        W28469  14.710  20.664   3.710
67159W        W28470  18.062  29.484  10.925
67160W        W28471  24.496   2.296  13.923
67161W        W28472  26.636  20.175   2.873
67162W        W28473   3.947  17.065   1.926
67163W        W28474  21.591  30.959  14.434
67164W        W28475   5.687  19.132  10.636
67165W        W28476  28.496  19.244  10.639
67166W        W28477   2.459  13.127  11.067
67167W        W28478  42.485  41.904  12.448
67168W        W28479  15.816  12.173   4.600
67169W        W28480  32.464  39.059   0.941
67170W        W28481  44.971   0.833   2.220
67171W        W28482   5.200  31.020  11.861
67172W        W28483  28.633   1.901  11.942
67173W        W28484  27.518  44.305  14.323
67174W        W28485  30.940   1.957   4.707
67175W        W28486  35.882  22.205  14.308
67176W        W28487  35.557  27.676   1.786
67177W        W28488  11.806  38.571  10.106
67178W        W28489  34.119   3.940   4.254
67179W        W28490  39.332  35.058   1.816
67180W        W28491  31.997  40.531  11.993
67181W        W28492  25.095  38.910   1.723
67182W        W28493  36.871  44.354   0.419
67183W        W28494  39.062  18.721  12.063
67184W        W28495  34.502  41.967   4.247
67185W        W28496   9.339  17.174  13.331
67186W        W28497  29.922   3.403   1.291
67187W        W28498   4.896  14.769   2.696
67188W        W28499  31.897  24.168   0.824
67189W        W28500  41.461  12.339   1.408
67190W        W28501  10.147  43.463   2.299
67191W        W28502  39.808  34.411  11.855
67192W        W28503  35.461  11.801  14.421
67193W        W28504  43.924  28.977   2.854
67194W        W28505  12.176  26.091   3.867
67195W        W28506  24.540  23.200  14.892
67196W        W28507  15.735  27.001   4.693
67197W        W28508  39.485   6.252   1.348
67198W        W28509  40.891   2.741  10.558
67199W        W28510  14.818  36.355   0.436
67200W        W28511  10.164   4.436   5.174
67201W        W28512  10.824  13.780  14.343
67202W        W28513  18.129   5.366  14.955
67203W        W28514  21.727  30.636   5.136
67204W        W28515  19.698  31.091   3.257
67205W        W28516  40.386  28.038   2.721
67206W        W28517  13.172   7.879   0.379
67207W        W28518   5.906  32.933  14.817
67208W        W28519  28.537   3.324   3.311
67209W        W28520  31.953  23.154   1.718
67210W        W28521  43.909  35.428  13.990
67211W        W28522  24.596  27.023  12.570
67212W        W28523  43.989  36.567   1.261
67213W        W28524  17.233  43.808  11.081
67214W        W28525  20.688  33.407  13.935
67215W        W28526   2.261  10.349   2.412
67216W        W28527   8.723  15.777  12.471
67217W        W28528  35.887  23.642  13.455
67218W        W28529  41.898  28.568  12.087
67219W        W28530   6.691   0.775  14.010
67220W        W28531  28.032   2.250   1.904
67221W        W28532   1.949   6.340   0.789
67222W        W28533  20.185  30.958  11.526
67223W        W28534  24.190  31.620  14.384
67224W        W28535  37.044  35.523   1.852
67225W        W28536  11.164  44.852  13.467
67226W        W28537  25.627  34.449  10.480
67227W        W28538  29.505  43.899  13.548
67228W        W28539  10.224  37.358   2.340
67229W        W28540  16.263  30.004   1.242
67230W        W28541   6.255   5.885  12.378
67231W        W28542  26.060   3.954  14.002
67232W        W28543   1.785  39.840  10.974
67233W        W28544  40.812  13.812   3.343
67234W        W28545  12.612  41.989  14.317
67235W        W28546  11.367   3.347   1.349
67236W        W28547   4.901  37.073  14.972
67237W        W28548   7.905  28.025   1.348
67238W        W28549  15.096  35.388  13.445
67239W        W28550  29.443  15.619  12.543
67240W        W28551  40.969   3.863  12.393
67241W        W28552  25.693  23.713  11.997
67242W        W28553  29.455   9.160   1.325
67243W        W28554  41.802  34.412  12.909
67244W        W28555  31.914   9.193  13.012
67245W        W28556   3.788   3.366  10.962
67246W        W28557  13.227   6.687   3.282
67247W        W28558  41.800  28.032  11.069
67248W        W28559   4.934  40.325  13.021
67249W        W28560   2.334   4.910  12.375
67250W        W28561  44.401  19.697   2.885
67251W        W28562  27.688  17.151   0.878
67252W        W28563  15.088  19.100  10.932
67253W        W28564  15.269  20.568  11.593
67254W        W28565  32.567   9.748   4.651
67255W        W28566  30.605  14.183  10.977
67256W        W28567  26.457  21.233  11.968
67257W        W28568   5.830  20.698  11.373
67258W        W28569  11.320  24.139  10.985
67259W        W28570   2.788  17.075   2.312
67260W        W28571  43.291  44.881   1.308
67261W        W28572  15.820   7.849  13.801
67262W        W28573  44.377  20.264   1.280
67263W        W28574  12.847   3.373   1.841
67264W        W28575   1.966   2.901   3.821
67265W        W28576   0.450  28.678   4.611
67266W        W28577  21.205  16.754  11.091
67267W        W28578  36.424  42.950   3.851
67268W        W28579  33.573   4.870   3.167
67269W        W28580   6.703  31.541  12.531
67270W        W28581  43.801  10.255  11.061
67271W        W28582  41.356   7.189  14.997
67272W        W28583  12.279   9.242   3.383
67273W        W28584  23.503  29.000  10.129
67274W        W28585  30.130  44.873   4.190
67275W        W28586  28.954  12.237   2.197
67276W        W28587  41.527   4.775  14.299
67277W        W28588  35.906  29.112   2.733
67278W        W28589  27.956  43.929   4.169
67279W        W28590  22.165  37.580  13.847
67280W        W28591  30.534  29.167  13.357
67281W        W28592  33.465  10.219   0.266
67282W        W28593  41.945  39.364   3.166
67283W        W28594  27.077  37.403   2.180
67284W        W28595   4.887   7.223   1.895
67285W        W28596  28.519  22.166  10.900
67286W        W28597  43.978  22.522   4.295
67287W        W28598   5.691  36.583  11.439
67288W        W28599   5.765  26.161  12.006
67289W        W28600   0.868  21.637   4.327
67290W        W28601  40.038  21.262   1.341
67291W        W28602  12.181  12.234   0.440
67292W        W28603  13.616  28.008   2.782
67293W        W28604   0.973  31.449  13.818
67294W        W28605  13.117  32.619  11.067
67295W        W28606  42.917  18.725  13.403
67296W        W28607  44.280  31.429   2.895
67297W        W28608  38.988  28.143  13.854
67298W        W28609  35.488  18.118   0.281
67299W        W28610  25.025   5.898  12.386
67300W        W28611  21.244  15.096  13.351
67301W        W28612  12.329  39.328   4.339
67302W        W28613   4.423  34.571  12.448
67303W        W28614  35.961  25.549   3.658
67304W        W28615  18.109  19.094   2.233
67305W        W28616  39.506  16.154  13.359
67306W        W28617  41.886  28.107   5.240
67307W        W28618   9.722  31.116   3.780
67308W        W28619  21.053  17.737   0.260
67309W        W28620  39.039  21.614   0.951
67310W        W28621  43.821  31.591   2.743
67311W        W28622  42.463  42.029   2.878
67312W        W28623  18.204  32.908  10.588
67313W        W28624   4.785   6.703  14.919
67314W        W28625  26.548  39.870  11.573
67315W        W28626   6.718  31.510  13.051
67316W        W28627   1.238  29.624   3.380
67317W        W28628   1.392   1.443  12.557
67318W        W28629  11.278  38.052   2.812
67319W        W28630  16.218  16.278  12.060
67320W        W28631  35.950  40.322   1.444
67321W        W28632  23.986  27.551  14.851
67322W        W28633  39.981  15.673   3.225
67323W        W28634   7.324  43.444  12.413
67324W        W28635  16.245  22.037   3.791
67325W        W28636  19.545  36.560   1.395
67326W        W28637  42.968   3.815  13.322
67327W        W28638  26.512   6.328   5.129
67328W        W28639   6.859  18.647  14.365
67329W        W28640  28.039  14.591   3.350
67330W        W28641  31.033   5.395   1.820
67331W        W28642  25.562  16.590  11.598
67332W        W28643  21.019  13.334   4.200
67333W        W28644   3.447  30.098  13.938
67334W        W28645   1.878  20.764  11.036
67335W        W28646  30.523  42.441  10.549
67336W        W28647  34.426  24.177  12.341
67337W        W28648  13.678   8.782  12.074
67338W        W28649  32.394  43.398   2.245
67339W        W28650  13.119   6.353  14.908
67340W        W28651   1.339  25.033   2.280
67341W        W28652   3.947   7.816   2.762
67342W        W28653   0.287  19.238   4.265
67343W        W28654   4.414  13.681   3.218
67344W        W28655  28.954  14.125   3.805
67345W        W28656  34.436  43.995  10.937
67346W        W28657  19.144  35.988   2.247
67347W        W28658  10.688   1.451   2.894
67348W        W28659  10.286  39.474   1.800
67349W        W28660   2.421  37.834  13.036
67350W        W28661  17.761   6.207   5.705
67351W        W28662  27.111  25.631  11.109
67352W        W28663  37.458  44.000   2.798
67353W        W28664  32.583  21.097   3.847
67354W        W28665  44.483  37.888   1.415
67355W        W28666  35.919  30.093   1.782
67356W        W28667  25.653  18.598  12.369
67357W        W28668  25.014  39.408  10.998
67358W        W28669  19.238   3.273   3.287
67359W        W28670  44.763  40.385   0.743
67360W        W28671  28.474   8.214  14.889
67361W        W28672   9.251  16.219  14.389
67362W        W28673  12.219  22.712  12.825
67363W        W28674  10.769  18.704  12.985
67364W        W28675  22.198  41.374  14.320
67365W        W28676  12.827  41.918   4.237
67366W        W28677  26.486  33.514   3.146
67367W        W28678  25.175  34.927   0.339
67368W        W28679  31.536  12.837   4.789
67369W        W28680  40.983  27.991  14.317
67370W        W28681  21.699  27.569  14.373
67371W        W28682  33.527  17.244   0.832
67372W        W28683  15.644   3.825  11.441
67373W        W28684  17.165  15.195   1.717
67374W        W28685  20.573  38.419  11.867
67375W        W28686  44.477  32.975   3.279
67376W        W28687   3.724  25.122  13.394
67377W        W28688   2.730  21.249   2.221
67378W        W28689  19.284  44.307   0.393
67379W        W28690  41.449  29.008  14.358
67380W        W28691  18.721  17.118  10.518
67381W        W28692   9.769   8.393   4.232
67382W        W28693  33.436  20.190  13.020
67383W        W28694  11.769  22.042   3.318
67384W        W28695  36.900  18.145   2.882
67385W        W28696   4.699  44.822  11.056
67386W        W28697  25.047  30.484  11.062
67387W        W28698  31.017   1.372   2.742
67388W        W28699  13.676  14.254   0.312
67389W        W28700  30.096   8.172  14.394
67390W        W28701  22.684  27.626   0.309
67391W        W28702  40.005  39.885   0.761
67392W        W28703  43.908  39.437   3.708
67393W        W28704  22.133  24.612   3.759
67394W        W28705  12.214   9.811   3.701
67395W        W28706  20.097  23.137  13.390
67396W        W28707  23.734   7.236   3.366
67397W        W28708  14.208  21.196   4.252
67398W        W28709   1.852  40.826  11.555
67399W        W28710  33.101   6.397  10.461
67400W        W28711   9.298   3.270   5.307
67401W        W28712  30.631  12.800  14.781
67402W        W28713  35.064  18.234   2.817
67403W        W28714  11.127  23.501   0.866
67404W        W28715  31.536  36.373  14.465
67405W        W28716  32.019  19.571   1.251
67406W        W28717  44.989  41.878   2.800
67407W        W28718   0.813   3.399   5.134
67408W        W28719  17.647   9.152  12.925
67409W        W28720  23.735  16.091  11.461
67410W        W28721  38.845   6.407   3.385
67411W        W28722   5.924  14.222   4.316
67412W        W28723  23.539  28.593  13.892
67413W        W28724  16.188   6.828  12.878
67414W        W28725  14.175  40.381  14.813
67415W        W28726  20.141   1.432  12.864
67416W        W28727   4.757   3.235  12.995
67417W        W28728  28.469   4.862  11.091
67418W        W28729  11.653  27.609   0.840
67419W        W28730  34.077  35.951  12.343
67420W        W28731  28.168  11.217   3.278
67421W        W28732  39.841   7.744   0.358
67422W        W28733   8.235  42.922  13.982
67423W        W28734   0.749  23.128  12.054
67424W        W28735  20.703  23.732  12.421
67425W        W28736  19.616  40.987  10.408
67426W        W28737  21.615  31.033  12.958
67427W        W28738   9.701  14.157   0.361
67428W        W28739  13.141   3.276   0.295
67429W        W28740  26.509  15.153   2.892
67430W        W28741  18.276  29.544  11.943
67431W        W28742  27.124   3.284  14.835
67432W        W28743  36.447  41.021  11.045
67433W        W28744  11.344  19.062  14.991
67434W        W28745  26.992  20.054   9.949
67435W        W28746   6.349  10.324  10.553
67436W        W28747   4.367  37.990  12.827
67437W        W28748  24.523  10.212  12.068
67438W        W28749  30.013  19.649  11.858
67439W        W28750  44.390  43.884  13.353
67440W        W28751  21.533  39.983   1.223
67441W        W28752  31.048  20.080   2.761
67442W        W28753  18.596  44.766   2.260
67443W        W28754   7.803  37.833  11.103
67444W        W28755   4.754  33.036  13.317
67445W        W28756  37.406  18.766   0.895
67446W        W28757  39.991  21.171   4.745
67447W        W28758  40.526  39.962   1.725
67448W        W28759  30.057  39.004  10.630
67449W        W28760  34.021  44.480   0.291
67450W        W28761   2.255   0.955  12.499
67451W        W28762  31.428   1.245   4.722
67452W        W28763   6.762  26.126   0.927
67453W        W28764   9.742  11.746  12.910
67454W        W28765  26.049  26.206  12.507
67455W        W28766  25.088  42.478   1.887
67456W        W28767  40.467   0.978  11.567
67457W        W28768  12.315  13.625   3.165
67458W        W28769  27.603  26.008  10.907
67459W        W28770   9.819  35.367   3.346
67460W        W28771  33.465  26.526  12.087
67461W        W28772  36.958   1.468   1.327
67462W        W28773  42.872  13.345   4.728
67463W        W28774  21.718   2.910   2.701
67464W        W28775  20.748  25.636   2.862
67465W        W28776   9.709  16.315   4.634
67466W        W28777   3.725  36.520  14.762
67467W        W28778  22.701   1.830  10.027
67468W        W28779   0.258  28.561  11.129
67469W        W28780  19.717  11.165   1.221
67470W        W28781   9.753   2.779  14.890
67471W        W28782  26.523  43.982   1.735
67472W        W28783   5.875  34.008   3.279
67473W        W28784  42.442  24.212   1.893
67474W        W28785  25.470  36.359  11.026
67475W        W28786  27.569   3.351  13.829
67476W        W28787  38.841  43.799   0.773
67477W        W28788  25.097  44.818  11.515
67478W        W28789  17.223   4.315  13.524
67479W        W28790  40.012  30.963  11.037
67480W        W28791  25.561  24.684  14.938
67481W        W28792  30.574  21.731   2.877
67482W        W28793  30.134  13.838   1.343
67483W        W28794  15.762  43.287   3.297
67484W        W28795   9.852  17.647   4.148
67485W        W28796  41.487  34.416   1.221
67486W        W28797   6.253   6.793  14.349
67487W        W28798  36.977   2.421  10.983
67488W        W28799  30.044   0.988   1.361
67489W        W28800  24.483  23.075  10.591
67490W        W28801  36.423  37.932   3.800
67491W        W28802   3.764  20.158   2.374
67492W        W28803  26.630  43.844  11.532
67493W        W28804   9.230  33.081  13.460
67494W        W28805  15.137  31.580   2.379
67495W        W28806  36.905  28.457   1.237
67496W        W28807  13.787  28.669   0.401
67497W        W28808   0.419  36.943  11.120
67498W        W28809  27.639  14.244   2.898
67499W        W28810  31.018   8.174  12.374
67500W        W28811  41.536  28.463  12.943
67501W        W28812  31.025  11.337  14.921
67502W        W28813  12.624  23.044   2.268
67503W        W28814   6.708  12.746  14.390
67504W        W28815   2.927  30.636   0.293
67505W        W28816  36.035  37.509  14.911
67506W        W28817   1.731   1.933  14.906
67507W        W28818  25.023  18.165   0.467
67508W        W28819  38.954  19.174  12.882
67509W        W28820  16.300   9.268   1.443
67510W        W28821  14.749   8.669  13.323
67511W        W28822  33.412  21.055   0.259
67512W        W28823  25.176   4.314  10.593
67513W        W28824  24.083  37.970   4.674
67514W        W28825  15.806  15.794   1.406
67515W        W28826  34.384  36.554   1.366
67516W        W28827  23.680  16.313  14.465
67517W        W28828  38.071  10.354  13.925
67518W        W28829   2.436  10.680   3.655
67519W        W28830  31.930  31.040  11.443
67520W        W28831  13.734  12.826  14.493
67521W        W28832   2.471   0.924  10.904
67522W        W28833  32.582  17.727  13.014
67523W        W28834  24.572  20.040  14.392
67524W        W28835  29.085  16.126   3.168
67525W        W28836  15.216  16.209  11.095
67526W        W28837  41.485   7.721   3.645
67527W        W28838  12.267  40.365   0.854
67528W        W28839  43.513  25.600   0.290
67529W        W28840  16.710  14.696  11.431
67530W        W28841  20.209   3.273  10.643
67531W        W28842   1.871  37.437  13.063
67532W        W28843  32.044  35.416  10.453
67533W        W28844   2.928  34.411   3.372
67534W        W28845  12.176  25.505  11.555
67535W        W28846   0.781  22.666  11.021
67536W        W28847  31.075  40.438  12.012
67537W        W28848  44.450  26.539  14.969
67538W        W28849  35.931   7.862  10.970
67539W        W28850  33.874  13.303   4.602
67540W        W28851  40.534   7.340  14.432
67541W        W28852   8.181  26.192   0.871
67542W        W28853  14.763   4.370  14.388
67543W        W28854  27.116  44.767   3.385
67544W        W28855  21.095  16.236   0.380
67545W        W28856  31.976  22.518  13.049
67546W        W28857  39.316  19.122   0.960
67547W        W28858  24.640  13.639   3.302
67548W        W28859  20.232  11.168  11.936
67549W        W28860  23.592  33.909   1.312
67550W        W28861  21.729  31.067   4.168
67551W        W28862  29.015  40.032  11.943
67552W        W28863  21.151   1.338   1.327
67553W        W28864  43.489  43.943   4.240
67554W        W28865  34.045  24.541   0.416
67555W        W28866   7.186   4.833  14.296
67556W        W28867  23.103   3.836   3.273
67557W        W28868  14.135  20.028   1.418
67558W        W28869   9.752  36.390   0.419
67559W        W28870   2.927  36.423   3.854
67560W        W28871  40.393  44.873   3.704
67561W        W28872   1.742  35.437   1.866
67562W        W28873   6.191  18.190   1.273
67563W        W28874  30.608  29.451   0.344
67564W        W28875  30.474   5.435  13.477
67565W        W28876  27.522  30.131   1.701
67566W        W28877   1.410   6.198   3.318
67567W        W28878   7.252  22.191  10.628
67568W        W28879   5.328   0.944   4.679
67569W        W28880  32.539   5.392  12.423
67570W        W28881  21.233   3.930   0.427
67571W        W28882  19.560  33.036  11.443
67572W        W28883  25.606  14.721   2.849
67573W        W28884  18.198  27.157  12.555
67574W        W28885   7.268  30.522   3.823
67575W        W28886  24.151  12.221   1.288
67576W        W28887  14.687  19.072  13.935
67577W        W28888  12.289  22.103  12.519
67578W        W28889  42.427  13.600   0.797
67579W        W28890   3.792  42.939  14.765
67580W        W28891  26.477  26.004   1.833
67581W        W28892  38.949   7.751   2.344
67582W        W28893  29.983  12.729   2.280
67583W        W28894   4.353  19.102  13.395
67584W        W28895  22.245  24.566  13.960
67585W        W28896   8.197  20.581   3.301
67586W        W28897  23.240  23.000  13.531
67587W        W28898  22.537  10.254  13.325
67588W        W28899  28.455  12.659   3.821
67589W        W28900   7.416   6.824  12.825
67590W        W28901  10.736  37.029   4.629
67591W        W28902  23.105  43.779   1.928
67592W        W28903  29.449  26.999   3.827
67593W        W28904  29.047  27.063   2.414
67594W        W28905  32.636  16.597   2.247
67595W        W28906  12.626  29.435   0.964
67596W        W28907   6.822   9.178  10.923
67597W        W28908   6.816  39.341   2.354
67598W        W28909  10.813  18.198  14.945
67599W        W28910  32.022  39.848   3.703
67600W        W28911  39.381  40.310  12.436
67601W        W28912  27.660   0.395  13.492
67602W        W28913  18.712  44.437   1.845
67603W        W28914  27.178  42.878  13.361
67604W        W28915  20.273  16.209   1.255
67605W        W28916  33.606   1.455   4.675
67606W        W28917  10.377  41.002   1.785
67607W        W28918  12.201  11.175   3.766
67608W        W28919  25.616  24.532   4.212
67609W        W28920  16.761  19.648   0.450
67610W        W28921  31.966  32.534   3.152
67611W        W28922   0.783  34.100  13.430
67612W        W28923   1.817  37.020  12.358
67613W        W28924  19.193  38.863   2.786
67614W        W28925  37.948  15.796   2.208
67615W        W28926  29.449   1.899  12.366
67616W        W28927   5.329  44.802  13.814
67617W        W28928   7.389   1.796   0.464
67618W        W28929   6.705  18.295   2.231
67619W        W28930  33.917  27.172  12.528
67620W        W28931  28.678  44.383   4.765
67621W        W28932   3.246  11.126   1.287
67622W        W28933   5.288  38.829  11.997
67623W        W28934  12.205   0.979  12.569
67624W        W28935  10.798  32.556  14.925
67625W        W28936  17.115   6.887   4.183
67626W        W28937  27.567  33.978   4.171
67627W        W28938  34.058  44.871  14.871
67628W        W28939  35.055  12.779  11.413
67629W        W28940  40.516  27.626  12.360
67630W        W28941  27.641  22.146  13.913
67631W        W28942   7.708  13.257  14.471
67632W        W28943  33.381   5.787  13.336
67633W        W28944  15.758  38.953  12.085
67634W        W28945  25.469  42.858  10.611
67635W        W28946   8.786  20.177  10.420
67636W        W28947  42.897   3.240  13.861
67637W        W28948  21.262   5.704  14.331
67638W        W28949  24.493  36.012  12.370
67639W        W28950  39.847  23.157  11.543
67640W        W28951  33.874   8.862  13.420
67641W        W28952  22.634  25.157  10.069
67642W        W28953  15.275  14.259  14.924
67643W        W28954   2.250   4.339  13.402
67644W        W28955  37.013  20.588   4.236
67645W        W28956  35.862  18.645   3.701
67646W        W28957  19.098   2.868  14.276
67647W        W28958   0.813  28.090  14.850
67648W        W28959  30.615  35.956  11.376
67649W        W28960   1.290  41.497  12.497
67650W        W28961   6.325   8.163  11.460
67651W        W28962  36.852  26.960  11.390
67652W        W28963  32.480  26.497   0.388
67653W        W28964  31.036  42.983  12.050
67654W        W28965  17.626  25.157   0.350
67655W        W28966  21.114  15.299  12.993
67656W        W28967  11.806  10.655   4.271
67657W        W28968  33.594   0.880  10.535
67658W        W28969  41.829  28.172   1.389
67659W        W28970   0.457  10.322   2.208
67660W        W28971  40.405  26.033   2.313
67661W        W28972  41.927  22.211   0.849
67662W        W28973  12.346  41.879  12.557
67663W        W28974  16.776  33.487   1.775
67664W        W28975  42.989  40.312  10.633
67665W        W28976   1.975  22.608  12.535
67666W        W28977  17.797  22.667   3.315
67667W        W28978  27.613  26.050   4.228
67668W        W28979  27.616  44.305   1.439
67669W        W28980  39.410  21.591   1.862
67670W        W28981  32.553   3.354   2.854
67671W        W28982  10.778  19.151   4.808
67672W        W28983  24.023  23.007  14.411
67673W        W28984  11.316  37.529   0.861
67674W        W28985  22.073   8.402  10.933
67675W        W28986  21.683   3.317  12.826
67676W        W28987  44.811  13.731   3.705
67677W        W28988   8.881   1.887  14.765
67678W        W28989  37.954  39.546  14.029
67679W        W28990  35.904  10.760  14.487
67680W        W28991  13.635   6.836   0.906
67681W        W28992  23.086  41.936   1.879
67682W        W28993  43.512  36.039   3.153
67683W        W28994  44.336   3.251   0.435
67684W        W28995  25.669   2.741  14.500
67685W        W28996  11.666  43.020  13.410
67686W        W28997  21.123  41.404   9.503
67687W        W28998  40.905  26.187   1.748
67688W        W28999  35.426  39.846   2.733
67689W        W29000  22.999  24.524   1.836
67690W        W29001  26.624   8.290  13.529
67691W        W29002  15.691   7.833  12.527
67692W        W29003  22.568   6.232  13.431
67693W        W29004   9.320  24.979  14.767
67694W        W29005  21.550  23.082  11.380
67695W        W29006  41.353  11.350  12.493
67696W        W29007   6.732   2.285   1.395
67697W        W29008  21.628  16.648   4.150
67698W        W29009  40.482  34.102   0.938
67699W        W29010  16.577  13.206  10.438
67700W        W29011  31.415   9.739  14.816
67701W        W29012  22.558  29.955   1.720
67702W        W29013  38.823  44.445  13.858
67703W        W29014  36.956   0.251   3.754
67704W        W29015  28.054  44.305   0.251
67705W        W29016   3.277  35.360   2.232
67706W        W29017  36.874  31.973   4.343
67707W        W29018  32.489  35.552  11.071
67708W        W29019  34.381   5.352   0.961
67709W        W29020   1.352  41.488  11.528
67710W        W29021  22.085  44.808   0.928
67711W        W29022  10.312  17.583   2.398
67712W        W29023  31.405  24.682  12.858
67713W        W29024  44.825  38.541   1.934
67714W        W29025  21.672   3.753   1.854
67715W        W29026   6.740  18.080  13.329
67716W        W29027  27.619   1.403  13.018
67717W        W29028  27.948   4.758   0.245
67718W        W29029   3.888  34.426   5.123
67719W        W29030   5.279  10.350   1.815
67720W        W29031  14.833  38.482  12.088
67721W        W29032   3.805  38.469  14.455
67722W        W29033  27.520  26.585  13.890
67723W        W29034  30.447  10.322  11.857
67724W        W29035  21.145   5.811   2.785
67725W        W29036  12.633  23.503   3.243
67726W        W29037   3.874  16.103  13.980
67727W        W29038  37.087  23.564   3.744
67728W        W29039  12.254  32.411  12.550
67729W        W29040  44.778   4.741  10.506
67730W        W29041  29.480  26.560  13.396
67731W        W29042  42.804  11.352   4.745
67732W        W29043  23.525  12.277   0.806
67733W        W29044  32.402  36.411  13.472
67734W        W29045   1.950  14.773  11.585
67735W        W29046  13.298  43.497  12.895
67736W        W29047   9.367   1.906   9.931
67737W        W29048  26.512  24.694  14.480
67738W        W29049   9.689  35.912  13.378
67739W        W29050  20.120  28.143  10.135
67740W        W29051  42.808  24.536   3.781
67741W        W29052  38.914  21.711   3.178
67742W        W29053   4.770  33.066   3.716
67743W        W29054  13.312  32.036   4.720
67744W        W29055  44.501  26.683   3.335
67745W        W29056  23.103  35.530  14.337
67746W        W29057  36.940  38.406  11.864
67747W        W29058  20.572  12.747  11.515
67748W        W29059  20.246  34.439   0.382
67749W        W29060  41.793  43.395   2.731
67750W        W29061  43.786  19.599   4.739
67751W        W29062  30.991  17.694   2.820
67752W        W29063  39.054  23.220  12.526
67753W        W29064  31.587  10.226   1.811
67754W        W29065  26.967   7.868   3.859
67755W        W29066  30.648  34.029  11.877
67756W        W29067  18.078  27.660   3.759
67757W        W29068  38.933  16.102   0.301
67758W        W29069  42.438  40.357  14.352
67759W        W29070  40.532  36.078  13.791
67760W        W29071   3.229  22.501   1.817
67761W        W29072  14.267  16.164   2.731
67762W        W29073   4.230  21.604  14.851
67763W        W29074   1.782  43.821  13.330
67764W        W29075   8.857   5.375   3.768
67765W        W29076  11.676   6.363  13.967
67766W        W29077  31.981  25.094   1.393
67767W        W29078  15.245  32.129   2.342
67768W        W29079  18.066   8.357  12.378
67769W        W29080  44.883  32.445   0.322
67770W        W29081  17.634  30.931   1.914
67771W        W29082  38.343  23.624   1.870
67772W        W29083  32.054  31.622   1.303
67773W        W29084  21.187  34.506  13.390
67774W        W29085  11.844   4.410  10.456
67775W        W29086  20.218  23.171   2.893
67776W        W29087   3.886  44.852   0.455
67777W        W29088  36.587  14.279   3.197
67778W        W29089  44.757  37.515  12.076
67779W        W29090  27.143  23.240   4.729
67780W        W29091  35.565  22.105  14.904
67781W        W29092  16.076  23.516   1.709
67782W        W29093  28.573  18.773   1.397
67783W        W29094  40.811  39.843   2.837
67784W        W29095  22.242   2.433  13.948
67785W        W29096   2.398  23.615   2.227
67786W        W29097   2.832   3.255  12.481
67787W        W29098  10.240   9.153   2.186
67788W        W29099  13.616  12.290  11.120
67789W        W29100  13.121   2.954  12.447
67790W        W29101   1.274  37.342   0.778
67791W        W29102  38.393  27.520  10.995
67792W        W29103  43.838  31.429  14.027
67793W        W29104  18.665  36.362   4.198
67794W        W29105  35.358  37.927   4.157
67795W        W29106  22.086  14.250   0.787
67796W        W29107  23.525   3.260  13.507
67797W        W29108  10.237  34.514   4.297
67798W        W29109  42.814  39.846  14.286
67799W        W29110  35.905   2.913  10.904
67800W        W29111  24.170   8.300   3.809
67801W        W29112  28.134  23.493   3.387
67802W        W29113  11.291  26.061  11.005
67803W        W29114  11.834  26.697  12.949
67804W        W29115   4.248  34.100   1.244
67805W        W29116  34.576  17.760  12.041
67806W        W29117  39.893  20.711   1.783
67807W        W29118   4.404  18.116  12.022
67808W        W29119  38.926  19.140   1.408
67809W        W29120  21.087  17.652  10.958
67810W        W29121   2.878  28.672  13.412
67811W        W29122  16.187  20.211   4.328
67812W        W29123   2.396  26.627   4.327
67813W        W29124  32.048  30.981   0.939
67814W        W29125  25.693  44.489  12.345
67815W        W29126   0.472  41.825  14.359
67816W        W29127  40.355  17.092   3.630
67817W        W29128  27.983  43.835   1.383
67818W        W29129  14.250  27.974  12.393
67819W        W29130   7.188  44.963  13.019
67820W        W29131   9.182  36.923  10.558
67821W        W29132  27.964   0.958  13.544
67822W        W29133  35.513  24.002   3.686
67823W        W29134  33.601  32.956   4.745
67824W        W29135  39.479  15.242   2.697
67825W        W29136  36.363  16.086   3.354
67826W        W29137  34.072  44.498  10.471
67827W        W29138  21.557  39.525   3.755
67828W        W29139   9.301  23.533   2.757
67829W        W29140  19.087  38.529   5.096
67830W        W29141   5.262  22.166  14.402
67831W        W29142  32.073  32.972  11.557
67832W        W29143  24.487   7.821  11.987
67833W        W29144  22.591  24.154   0.809
67834W        W29145   1.457  19.283   3.849
67835W        W29146  38.859  27.637   2.789
67836W        W29147  36.356  43.961  12.405
67837W        W29148  38.472  14.159  14.952
67838W        W29149  23.176  25.519  13.355
67839W        W29150   4.424   2.732   3.773
67840W        W29151  44.269  31.992  10.459
67841W        W29152  12.707  14.612   4.704
67842W        W29153  10.329  30.094  13.451
67843W        W29154  26.574  16.665  10.554
67844W        W29155  14.251  34.396   1.276
67845W        W29156  17.076  22.546   0.410
67846W        W29157  18.555  40.531   1.891
67847W        W29158  19.096   0.291  10.584
67848W        W29159   2.297  42.470   1.352
67849W        W29160   1.470  15.718  11.054
67850W        W29161   7.340  44.476   0.372
67851W        W29162  24.020   6.315  10.411
67852W        W29163   0.470  30.512  13.816
67853W        W29164   6.343  24.031  14.353
67854W        W29165  42.505  40.018   3.839
67855W        W29166  44.920   0.340   3.337
67856W        W29167  26.543  29.930  11.124
67857W        W29168  28.566   2.354  14.835
67858W        W29169  43.373   5.734   4.788
67859W        W29170   5.243  24.230  14.850
67860W        W29171  38.947  21.182  13.440
67861W        W29172  44.504  21.637   2.234
67862W        W29173  34.560   5.433  13.494
67863W        W29174  15.318   4.442   2.392
67864W        W29175  29.536  40.919  12.532
67865W        W29176  16.574   0.267  13.958
67866W        W29177   8.313  37.558  11.118
67867W        W29178  43.775   4.789  14.345
67868W        W29179  22.132  21.087  14.378
67869W        W29180   8.808  13.687  12.988
67870W        W29181  37.511  34.489   4.823
67871W        W29182  41.044  43.850   1.787
67872W        W29183  17.780  42.940   2.801
67873W        W29184  24.125  33.004  13.548
67874W        W29185  16.630  37.074   3.802
67875W        W29186  16.072  20.118   0.952
67876W        W29187   4.308  13.610   4.642
67877W        W29188  43.990  37.365   3.175
67878W        W29189  41.829   3.272  13.058
67879W        W29190  17.758  25.598  10.635
67880W        W29191  31.551  30.064  12.385
67881W        W29192   3.346  16.173   0.319
67882W        W29193   3.806  14.773  14.010
67883W        W29194  11.234   3.247   4.122
67884W        W29195  27.079  43.461   0.335
67885W        W29196   0.411  17.662   1.926
67886W        W29197  36.379   9.661   0.361
67887W        W29198  13.664   5.810   3.245
67888W        W29199  34.496  43.912   0.323
67889W        W29200  18.653   5.820   0.461
67890W        W29201  27.494  35.521   3.267
67891W        W29202  32.053   2.306   3.176
67892W        W29203  38.491  18.626  13.982
67893W        W29204  42.388   9.829  11.107
67894W        W29205   8.735  14.192   2.411
67895W        W29206  10.703  41.367  12.568
67896W        W29207  30.462  35.071  11.578
67897W        W29208  20.769   3.729  13.541
67898W        W29209  43.877  20.597  14.516
67899W        W29210  28.046  18.649   1.745
67900W        W29211  44.336  25.508   2.898
67901W        W29212  25.079   8.191  14.779
67902W        W29213  23.690  17.783   4.720
67903W        W29214  15.780  12.202  12.452
67904W        W29215  14.677  25.541   0.263
67905W        W29216  15.326  16.683  12.069
67906W        W29217  13.132   0.967   2.353
67907W        W29218  14.759  28.173   2.862
67908W        W29219  24.112  34.390   4.147
67909W        W29220  39.911  41.895  14.441
67910W        W29221  17.644  16.182  11.092
67911W        W29222  15.713  21.189  10.463
67912W        W29223  44.419   2.833  11.094
67913W        W29224  21.582  12.252   1.253
67914W        W29225  18.581  44.448  10.997
67915W        W29226   8.229  27.089  11.507
67916W        W29227  41.810  36.921  12.521
67917W        W29228   9.242  22.619  14.815
67918W        W29229  19.197  35.931  11.066
67919W        W29230  38.325  19.767  10.954
67920W        W29231  24.028  14.594   2.841
67921W        W29232  15.229  22.738  13.806
67922W        W29233  34.894  32.081   0.842
67923W        W29234  13.829  16.227  14.852
67924W        W29235  29.448   8.811   3.160
67925W        W29236  14.614  10.150  12.035
67926W        W29237  18.728   2.769  13.421
67927W        W29238   6.239   7.339  11.078
67928W        W29239   5.849   9.388  11.052
67929W        W29240  29.927   5.730   2.745
67930W        W29241  44.830   7.334   3.330
67931W        W29242  28.044  40.524  13.313
67932W        W29243  43.296  29.009   3.764
67933W        W29244   3.228   4.307   0.397
67934W        W29245  29.625   2.298   4.121
67935W        W29246  28.110  14.236   4.647
67936W        W29247  41.010  29.108   4.670
67937W        W29248  20.695  34.584  14.819
67938W        W29249  39.025  18.679  12.830
67939W        W29250   6.399  31.001   0.273
67940W        W29251  20.769  10.845  14.491
67941W        W29252   0.822  28.451   1.929
67942W        W29253  18.285  21.032   0.762
67943W        W29254   4.377   2.765   2.414
67944W        W29255  27.006   9.395   4.180
67945W        W29256   8.805  44.765  12.458
67946W        W29257  15.798  16.748  14.804
67947W        W29258  13.653  18.239   0.845
67948W        W29259   4.839  34.997   2.211
67949W        W29260  33.498  27.118   4.294
67950W        W29261  27.023   4.760  13.383
67951W        W29262  32.402  34.392   1.776
67952W        W29263  28.122  10.777  13.061
67953W        W29264   7.394  25.528  12.029
67954W        W29265  24.160  12.227   4.180
67955W        W29266  32.398  42.431  11.988
67956W        W29267   2.856  31.998  14.865
67957W        W29268  33.017  20.535   4.723
67958W        W29269  39.470   1.787  14.842
67959W        W29270  31.407  13.348   2.762
67960W        W29271  17.674  32.548   0.279
67961W        W29272  21.546  21.214   4.273
67962W        W29273  14.627   5.210  12.863
67963W        W29274  13.327   2.837  10.155
67964W        W29275   0.440  12.793   0.793
67965W        W29276  20.621  32.084  10.962
67966W        W29277  23.538  42.345  10.609
67967W        W29278   2.468   8.335   0.370
67968W        W29279  21.570  16.703   4.731
67969W        W29280   9.324  16.728   4.697
67970W        W29281  31.568  41.807  14.483
67971W        W29282  40.869   7.384  12.949
67972W        W29283  23.636  41.850  13.987
67973W        W29284  18.281   7.674   3.639
67974W        W29285   7.862  24.581   2.350
67975W        W29286   1.850  44.416  11.479
67976W        W29287  33.973  25.589   0.253
67977W        W29288  20.039  15.578  12.377
67978W        W29289  37.007  39.538  12.544
67979W        W29290  38.504   9.321  12.364
67980W        W29291   4.290  27.950  11.028
67981W        W29292  14.101  16.202  14.983
67982W        W29293  31.125  14.776   0.803
67983W        W29294  36.975  33.486   1.844
67984W        W29295   9.712  36.014  14.303
67985W        W29296  22.710   2.965   3.282
67986W        W29297  18.635   2.447   9.980
67987W        W29298   2.888  37.493  13.923
67988W        W29299  42.415  25.505   4.304
67989W        W29300   1.368  19.068  11.890
67990W        W29301  33.118  27.969  12.393
67991W        W29302   5.295  29.074   0.291
67992W        W29303  14.603  37.448   3.377
67993W        W29304  34.421  36.079   0.275
67994W        W29305  13.747   5.195   2.246
67995W        W29306  39.010   3.791   2.246
67996W        W29307  22.150  25.619   1.719
67997W        W29308  28.936  39.424   2.260
67998W        W29309   9.799  10.210   2.898
67999W        W29310  33.992  42.403  12.845
68000W        W29311  42.306  21.755  14.856
68001W        W29312   9.206  41.027   0.946
68002W        W29313   3.295  19.164   1.325
68003W        W29314  20.604  38.539   0.273
68004W        W29315  26.175  34.911  14.401
68005W        W29316  27.090  25.660   4.667
68006W        W29317   5.226  31.081  14.783
68007W        W29318  12.719  42.966   2.258
68008W        W29319  24.517  19.104  13.451
68009W        W29320  34.026  13.251   4.168
68010W        W29321  22.130  37.992   0.788
68011W        W29322  22.677  23.553   3.784
68012W        W29323  23.572  21.074   0.442
68013W        W29324  41.495   4.943   2.819
68014W        W29325  17.182  35.586   3.819
68015W        W29326  22.154  39.829  13.809
68016W        W29327  12.286  29.936   3.698
68017W        W29328  18.174   5.249   5.754
68018W        W29329  22.251  31.947  14.318
68019W        W29330  14.696   2.720   9.486
68020W        W29331  29.165  30.601   0.258
68021W        W29332  32.471  17.730  14.357
68022W        W29333   7.695   5.723  12.079
68023W        W29334  36.006  33.911  14.472
68024W        W29335  14.168  44.840  13.541
68025W        W29336  32.624   0.365   1.696
68026W        W29337  11.654  12.150   1.356
68027W        W29338  27.126  40.811  14.806
68028W        W29339  36.977  35.873   1.441
68029W        W29340  17.734  29.175   0.416
68030W        W29341  25.678  34.894  13.923
68031W        W29342  10.321   0.840   0.927
68032W        W29343  27.156  35.508   3.640
68033W        W29344   0.303  26.070   4.276
68034W        W29345  10.382   1.973  11.024
68035W        W29346   2.366  23.143   1.278
68036W        W29347  12.733  23.596  13.042
68037W        W29348  35.426  16.645  13.540
68038W        W29349  15.721  36.046   4.343
68039W        W29350  40.817   7.814  12.925
68040W        W29351   9.703  27.671  13.401
68041W        W29352  21.127  27.060  13.013
68042W        W29353  44.495   0.901  13.375
68043W        W29354  21.053  34.968  12.046
68044W        W29355  25.146  42.370  13.487
68045W        W29356   5.851   5.409   3.260
68046W        W29357  41.976  36.901  13.445
68047W        W29358  11.373  42.882   1.749
68048W        W29359  22.506  23.119  12.397
68049W        W29360  25.668   6.740  11.527
68050W        W29361  18.222  25.174   3.641
68051W        W29362  25.183  28.175  13.022
68052W        W29363  38.485  34.599   0.806
68053W        W29364   6.410   4.853   3.269
68054W        W29365  44.300  40.952   1.303
68055W        W29366  41.988  38.415  14.279
68056W        W29367  15.250  15.749  12.341
68057W        W29368  27.022   2.849  10.629
68058W        W29369  14.775  41.534   4.345
68059W        W29370  39.878  28.468  14.957
68060W        W29371  40.455  44.807   3.257
68061W        W29372  25.602   4.368  11.570
68062W        W29373  42.490  12.738   0.254
68063W        W29374  27.485  37.896   1.390
68064W        W29375   9.342  43.415  14.294
68065W        W29376  20.522  37.392  12.994
68066W        W29377   4.422  12.290   3.259
68067W        W29378  18.263  17.688  11.599
68068W        W29379  42.832   0.828  10.491
68069W        W29380  26.567  26.011   2.807
68070W        W29381  26.978   1.481   1.317
68071W        W29382  40.949  31.024   1.855
68072W        W29383  13.282  12.134   4.618
68073W        W29384  24.571   2.907  11.066
68074W        W29385  40.344   1.350   1.350
68075W        W29386  41.829  26.620   1.908
68076W        W29387  18.695  12.696   0.459
68077W        W29388  19.167  32.069  13.805
68078W        W29389  26.174  17.675   0.432
68079W        W29390  24.159  27.515  12.029
68080W        W29391  19.597  39.497  14.322
68081W        W29392  41.007  31.109   4.740
68082W        W29393  11.711  44.458  14.878
68083W        W29394  20.676  37.907   3.738
68084W        W29395  31.524   2.378  14.947
68085W        W29396  35.600  14.816   3.159
68086W        W29397  23.013  13.318  12.096
68087W        W29398  38.007   0.257  12.558
68088W        W29399  30.998  34.885   0.946
68089W        W29400  30.135   4.876   2.202
68090W        W29401  19.080   8.841   0.453
68091W        W29402  20.655  44.259   4.192
68092W        W29403  41.943   2.916  11.439
68093W        W29404  41.361  44.284   3.223
68094W        W29405   9.207  12.745  11.887
68095W        W29406  14.158   1.258  10.464
68096W        W29407  40.973  25.605  13.376
68097W        W29408   7.724  19.559   1.712
68098W        W29409   7.900  37.390  13.361
68099W        W29410   6.185  34.539  10.157
68100W        W29411   0.892  31.966  14.472
68101W        W29412  26.610  13.799   3.214
68102W        W29413   4.261  24.063  14.952
68103W        W29414  24.590  23.629   0.788
68104W        W29415  28.470  13.613   2.414
68105W        W29416   9.654  25.978  13.924
68106W        W29417  12.281   9.718  14.333
68107W        W29418  14.313  44.425  12.973
68108W        W29419  38.456  25.505  13.310
68109W        W29420  27.544  29.171   4.219
68110W        W29421  44.377  27.477   0.726
68111W        W29422  39.343   5.220   0.741
68112W        W29423  20.084  18.214   2.800
68113W        W29424  41.835  43.383   1.324
68114W        W29425  37.036  43.830  12.501
68115W        W29426  25.599  42.955   5.293
68116W        W29427  37.037  14.632  13.002
68117W        W29428  34.509  10.665   4.665
68118W        W29429  33.919  29.568  12.911
68119W        W29430  41.524  14.158  13.032
68120W        W29431  38.353  11.668   1.817
68121W        W29432  38.480  27.526   3.356
68122W        W29433  33.025  12.735   4.782
68123W        W29434  18.614  23.673  11.063
68124W        W29435  15.297  38.038  14.877
68125W        W29436  15.236  26.992  11.472
68126W        W29437  25.660   3.256   4.598
68127W        W29438  36.947  24.656  14.981
68128W        W29439  33.595  19.598  14.907
68129W        W29440  37.369  42.400  13.841
68130W        W29441  27.979   0.321  14.504
68131W        W29442  43.019  16.624   4.724
68132W        W29443  29.033  39.483  12.579
68133W        W29444  32.429  17.652  12.052
68134W        W29445  11.308  16.305   0.427
68135W        W29446   5.412  36.045   0.340
68136W        W29447  44.866  29.556  10.519
68137W        W29448  32.898  17.114  11.857
68138W        W29449   5.779  13.206   2.779
68139W        W29450  31.025   4.710   2.752
68140W        W29451  17.242  19.646  11.870
68141W        W29452   5.305  44.335  11.093
68142W        W29453  30.072  21.210  13.335
68143W        W29454  13.110  33.416  13.497
68144W        W29455  19.641  30.654   1.280
68145W        W29456  16.595   2.896  13.959
68146W        W29457  18.245  28.541   2.885
68147W        W29458  28.034  16.627  12.861
68148W        W29459  43.824  17.619   1.762
68149W        W29460  33.910  18.050   1.902
68150W        W29461  38.513  33.389  14.486
68151W        W29462  10.273  37.401   3.335
68152W        W29463  11.127  27.048  11.864
68153W        W29464   8.882  18.561  14.409
68154W        W29465  29.132  32.457   4.763
68155W        W29466   9.350  13.129   0.329
68156W        W29467  44.259   2.965  12.353
68157W        W29468  18.670  41.441  11.962
68158W        W29469  15.140   9.296   0.442
68159W        W29470  27.058   8.769  13.047
68160W        W29471  16.792  23.504   2.858
68161W        W29472   1.915   0.350  11.908
68162W        W29473  22.551   2.725  10.936
68163W        W29474  44.859  23.215   4.673
68164W        W29475   9.743  24.181  14.348
68165W        W29476  23.525  30.031  11.107
68166W        W29477  22.013   4.267  14.989
68167W        W29478  23.676  34.918   3.362
68168W        W29479  40.895  13.611  11.983
68169W        W29480  34.917  37.420  14.512
68170W        W29481   2.931  20.174   0.848
68171W        W29482   9.207  31.425   0.755
68172W        W29483  33.981   0.415  10.995
68173W        W29484   1.399  33.917  13.940
68174W        W29485  32.515   2.936   3.724
68175W        W29486  29.621  19.099   1.422
68176W        W29487  16.615  11.247  13.360
68177W        W29488   5.197   4.206   0.344
68178W        W29489  28.533  39.862  13.497
68179W        W29490  11.844   4.265   2.369
68180W        W29491   7.293  19.169   5.214
68181W        W29492  43.324  21.723   0.789
68182W        W29493   8.810   7.293  10.611
68183W        W29494  40.530  40.411  13.337
68184W        W29495  29.034  25.076   2.715
68185W        W29496   6.851  23.596  11.434
68186W        W29497  24.503  44.442  12.580
68187W        W29498  15.088   9.698   2.786
68188W        W29499  17.611  18.123  13.062
68189W        W29500  11.665  39.046  12.514
68190W        W29501  19.272  37.012  10.642
68191W        W29502  19.593   3.949  10.931
68192W        W29503   4.442  23.534   1.850
68193W        W29504   5.828  24.669   0.293
68194W        W29505  41.939   6.890  10.458
68195W        W29506  44.835  25.105   3.180
68196W        W29507   3.875  26.052   2.841
68197W        W29508  31.488  39.515   3.168
68198W        W29509  28.934   8.280  10.059
68199W        W29510  44.484  36.560   3.162
68200W        W29511  26.079  40.806  12.019
68201W        W29512  26.629  21.590  10.463
68202W        W29513  42.875  36.923  13.807
68203W        W29514  31.139   7.788  12.840
68204W        W29515   9.842  11.178   2.847
68205W        W29516   4.231  26.699   1.748
68206W        W29517  22.636  27.571  14.817
68207W        W29518   0.822  27.041   2.697
68208W        W29519  44.863  27.978   4.353
68209W        W29520  21.099  14.186  12.578
68210W        W29521   5.332  22.565   0.367
68211W        W29522  33.994  40.320  12.063
68212W        W29523  32.933  36.053   1.382
68213W        W29524  13.608   9.301   0.279
68214W        W29525  18.613  30.442   3.220
68215W        W29526  26.027  31.569   3.654
68216W        W29527  26.141  20.714   2.354
68217W        W29528  42.006  17.766   4.248
68218W        W29529  39.900  36.065  13.938
68219W        W29530  14.323  18.108  10.482
68220W        W29531   8.784  20.240  11.544
68221W        W29532  32.557  37.868   0.331
68222W        W29533  39.467  41.893   4.631
68223W        W29534  10.769   4.769   3.806
68224W        W29535  44.396  10.828   4.175
68225W        W29536  23.089  44.981  13.521
68226W        W29537  16.583  43.977  14.930
68227W        W29538  38.443   7.705   4.305
68228W        W29539  33.883  13.123  12.001
68229W        W29540   3.445  20.068  14.772
68230W        W29541  14.251  14.279  11.441
68231W        W29542  32.894  33.040   0.362
68232W        W29543  13.351  35.392  11.899
68233W        W29544  17.723   5.815  12.842
68234W        W29545  27.074  17.234   4.665
68235W        W29546  42.353  27.601   3.319
68236W        W29547  44.349  34.017   4.342
68237W        W29548  27.049  31.477   9.622
68238W        W29549  22.656  40.812   1.906
68239W        W29550  31.964  14.598  13.517
68240W        W29551   7.749   4.293  11.050
68241W        W29552   0.407  32.068  12.001
68242W        W29553  14.108  35.540  11.611
68243W        W29554   6.917  33.909   0.330
68244W        W29555  40.466   8.269  10.568
68245W        W29556  24.495  33.452  12.462
68246W        W29557  28.480   6.914  14.278
68247W        W29558  34.966   3.865   4.218
68248W        W29559  37.495  25.572  13.423
68249W        W29560  13.711  44.993  13.401
68250W        W29561  18.051   2.816  13.359
68251W        W29562  13.604  12.669  11.609
68252W        W29563   5.796  33.421  10.613
68253W        W29564   1.300  18.632   4.732
68254W        W29565  44.340  33.497  10.036
68255W        W29566  27.524  19.104   1.376
68256W        W29567  43.945  27.626   0.733
68257W        W29568  41.351  32.117   0.795
68258W        W29569  43.779   5.718  14.004
68259W        W29570  42.865  21.238  14.992
68260W        W29571  43.514  40.358  10.518
68261W        W29572  27.135  35.493  14.894
68262W        W29573  14.596  28.056   3.762
68263W        W29574   5.244   9.794   1.788
68264W        W29575  10.312  29.670  12.042
68265W        W29576   2.327   7.875   1.716
68266W        W29577  18.123  12.741   0.751
68267W        W29578  27.678   5.711  12.858
68268W        W29579  37.062  26.086   0.915
68269W        W29580  42.014  20.153  10.579
68270W        W29581  17.130  26.551  12.052
68271W        W29582  43.418   5.707  10.617
68272W        W29583   8.813   6.192  13.018
68273W        W29584   9.292  42.444   0.470
68274W        W29585  17.096  30.607   5.151
68275W        W29586  13.783  32.444  10.642
68276W        W29587  37.432  16.577   4.310
68277W        W29588  31.438   3.337   3.845
68278W        W29589  28.104   7.189   4.664
68279W        W29590  24.115  15.262  13.448
68280W        W29591  39.854   8.830  12.382
68281W        W29592   0.440   2.306  13.012
68282W        W29593  12.138  17.239  11.031
68283W        W29594   4.409  21.670  12.407
68284W        W29595  28.443  43.336   3.205
68285W        W29596   0.808  24.655   4.303
68286W        W29597   7.338   2.770  11.021
68287W        W29598  22.639  33.003  14.834
68288W        W29599   9.771  25.473   3.832
68289W        W29600  22.718  16.703  10.108
68290W        W29601  16.267  42.958  12.397
68291W        W29602  13.734  42.464  12.356
68292W        W29603  11.788   1.820  11.558
68293W        W29604  21.190  37.365  12.509
68294W        W29605   5.427  22.160   3.188
68295W        W29606  42.833  22.214  13.832
68296W        W29607   6.811  28.619  14.472
68297W        W29608  14.292  32.585   1.297
68298W        W29609  39.360  16.211  14.977
68299W        W29610  19.708   6.834   0.794
68300W        W29611  17.615  10.244  10.985
68301W        W29612  17.091  29.019   0.839
68302W        W29613  11.803  41.454  14.986
68303W        W29614  24.684  36.994  11.003
68304W        W29615  18.719  27.001  12.072
68305W        W29616  15.710  32.499  12.059
68306W        W29617   4.817  20.147  12.921
68307W        W29618  34.398  30.136  14.443
68308W        W29619  31.942  44.321  12.372
68309W        W29620  26.166  13.250  12.096
68310W        W29621  14.260  16.229   3.638
68311W        W29622   4.232  27.950  14.774
68312W        W29623  34.507  28.974   0.468
68313W        W29624  38.957  21.682   2.801
68314W        W29625  12.296  22.042  10.954
68315W        W29626  20.126  14.159  13.366
68316W        W29627   2.388  28.948   2.390
68317W        W29628  44.974  20.154   2.840
68318W        W29629  33.101  15.783  11.924
68319W        W29630  21.098  43.859   2.818
68320W        W29631  25.714  41.008  12.395
68321W        W29632   9.379  41.022   4.692
68322W        W29633  17.271  40.853   0.782
68323W        W29634  38.825  44.753   1.812
68324W        W29635  32.419   1.367   1.403
68325W        W29636  29.510  28.571  10.608
68326W        W29637  23.084  14.130  12.870
68327W        W29638   8.191  15.766   1.864
68328W        W29639   5.760  21.699  12.513
68329W        W29640  18.146   1.335   1.347
68330W        W29641  10.789  30.972  13.454
68331W        W29642  17.778  37.438   0.903
68332W        W29643  11.746  16.129   0.727
68333W        W29644  34.605  17.731   4.162
68334W        W29645  16.304  30.441   2.280
68335W        W29646  41.388  22.008   2.793
68336W        W29647   3.359  29.147  12.977
68337W        W29648  38.342  28.645   2.388
68338W        W29649  19.538  12.167  11.925
68339W        W29650  39.501  13.221  12.997
68340W        W29651  39.490   2.269   0.841
68341W        W29652  24.529  24.226   4.159
68342W        W29653  25.665  40.970   0.250
68343W        W29654  28.629  37.022   4.835
68344W        W29655  16.186  43.381   2.812
68345W        W29656   0.293   9.812   1.413
68346W        W29657  15.244  30.472  13.901
68347W        W29658  31.599  29.664  10.645
68348W        W29659  38.014   9.761  11.440
68349W        W29660   9.258   1.913  12.875
68350W        W29661   2.742  40.884   1.243
68351W        W29662  16.316  44.353  14.361
68352W        W29663  14.114  44.906  11.455
68353W        W29664   8.682  23.178  13.854
68354W        W29665  22.008  41.506   3.361
68355W        W29666   6.685  11.227   4.143
68356W        W29667  18.736  18.729   1.340
68357W        W29668  26.564   5.892  13.048
68358W        W29669  16.125   2.461  14.394
68359W        W29670  20.589  33.012   4.234
68360W        W29671  24.481  37.505   0.912
68361W        W29672   2.824  38.470   0.726
68362W        W29673  32.129  33.900  14.907
68363W        W29674  20.536  12.293   2.324
68364W        W29675  10.149  23.667  12.914
68365W        W29676  17.582   3.301  13.407
68366W        W29677  31.975  43.319  14.281
68367W        W29678   5.258   3.711   1.777
68368W        W29679  10.304  42.361  11.579
68369W        W29680   6.202   5.402   2.748
68370W        W29681   3.752  22.641  12.830
68371W        W29682   7.202  16.121   1.372
68372W        W29683  42.422   4.437  14.848
68373W        W29684  22.584   7.174   4.214
68374W        W29685   5.726   4.422  10.963
68375W        W29686  11.804   8.698   4.790
68376W        W29687  38.347   6.694   3.383
68377W        W29688  28.492  34.371   3.330
68378W        W29689  14.095  31.922   2.787
68379W        W29690   2.763   3.298   0.866
68380W        W29691   6.864   5.378   0.303
68381W        W29692  31.084  31.915   1.225
68382W        W29693  42.847   2.255   2.210
68383W        W29694  32.922  26.566  12.004
68384W        W29695  25.074   4.862  14.817
68385W        W29696  33.032  18.586  13.474
68386W        W29697  15.818  10.868   4.336
68387W        W29698  34.401  30.646   5.590
68388W        W29699  29.084   6.215  14.357
68389W        W29700  11.746  26.071   3.368
68390W        W29701  41.490  17.649   2.879
68391W        W29702  42.007  24.021   1.791
68392W        W29703  44.277  15.699  14.031
68393W        W29704  25.582  14.340  14.336
68394W        W29705  23.048  37.363   4.192
68395W        W29706  33.922  31.416   0.871
68396W        W29707  38.871   3.285  11.463
68397W        W29708  33.595   7.703  13.457
68398W        W29709  33.576  30.159   3.780
68399W        W29710  17.713  23.534   1.778
68400W        W29711   4.412  33.090  13.520
68401W        W29712  40.847  22.072   4.142
68402W        W29713  37.574  26.010  11.053
68403W        W29714  29.550   3.819  14.373
68404W        W29715  14.747  25.146  11.472
68405W        W29716  34.444  22.745   4.246
68406W        W29717   9.211  24.055  11.414
68407W        W29718  38.897   9.673  14.283
68408W        W29719  34.460   2.722  11.606
68409W        W29720  33.484  31.498  11.930
68410W        W29721  44.870  41.501  12.954
68411W        W29722  23.528   6.720   3.178
68412W        W29723  19.535   3.727   2.809
68413W        W29724  24.578  25.497  12.995
68414W        W29725  26.622  20.099  14.802
68415W        W29726  25.646  40.319   4.162
68416W        W29727   3.310  32.489   2.697
68417W        W29728   1.744  19.145  13.498
68418W        W29729  18.102  27.187   4.693
68419W        W29730  18.766  23.186   3.683
68420W        W29731  11.246   1.737  12.017
68421W        W29732   6.256  41.941   0.417
68422W        W29733  35.911   4.364  14.003
68423W        W29734  44.288  17.144  10.552
68424W        W29735  16.567  30.987  14.303
68425W        W29736   5.393  34.946   2.747
68426W        W29737  14.668  20.247   1.702
68427W        W29738  44.409  32.410  11.467
68428W        W29739  33.476  42.798  11.918
68429W        W29740   7.876  11.790  14.851
68430W        W29741  38.528  42.504  13.835
68431W        W29742  23.596  11.822   2.297
68432W        W29743  39.908  44.359   2.764
68433W        W29744  42.337   4.814   4.812
68434W        W29745  32.966  10.170  10.918
68435W        W29746  26.172  29.452   4.609
68436W        W29747  19.198  38.937   4.670
68437W        W29748   3.852  15.645   4.278
68438W        W29749  22.673   2.390   4.222
68439W        W29750  28.582   9.379   4.337
68440W        W29751  31.956  15.806   1.889
68441W        W29752  41.969  25.157   3.243
68442W        W29753  12.615  27.101  14.508
68443W        W29754  29.601   9.739  12.881
68444W        W29755  10.193  40.984   4.678
68445W        W29756  12.766  29.006  11.498
68446W        W29757  23.159   0.983  14.923
68447W        W29758   5.921   4.224   2.687
68448W        W29759  36.513  31.540  10.926
68449W        W29760  10.803  29.050   3.372
68450W        W29761  42.485  13.225   3.285
68451W        W29762  16.122  43.369   1.448
68452W        W29763  27.985  16.806  14.484
68453W        W29764  38.443  43.871   2.235
68454W        W29765   5.353  39.462   3.846
68455W        W29766   4.380  39.502  10.412
68456W        W29767  40.920   9.885   4.798
68457W        W29768  32.016   8.244   2.221
68458W        W29769  18.679   5.377  13.844
68459W        W29770  42.470  39.012  11.966
68460W        W29771  34.937  11.843   2.291
68461W        W29772   8.396  18.224   2.673
68462W        W29773  37.840  11.854  14.928
68463W        W29774   2.753  23.183  14.789
68464W        W29775   3.227  22.596   2.185
68465W        W29776   2.935  13.828  11.938
68466W        W29777  40.380  42.470  10.938
68467W        W29778  42.442  24.498  13.911
68468W        W29779  10.656  19.118  12.367
68469W        W29780  14.217  22.743  12.955
68470W        W29781  32.478   0.287   4.678
68471W        W29782  44.382   2.297  11.461
68472W        W29783  10.834  13.703  12.827
68473W        W29784  29.060  31.441  12.045
68474W        W29785  44.835  39.951   4.648
68475W        W29786   7.906  34.564  12.981
68476W        W29787  11.781  18.265  10.156
68477W        W29788   4.315  14.243  11.555
68478W        W29789  38.433   5.310  13.336
68479W        W29790  39.880  25.066  10.410
68480W        W29791  27.118  41.463  14.800
68481W        W29792  30.055  21.101  10.132
68482W        W29793  44.421  11.693  13.456
68483W        W29794  16.112  18.087  13.450
68484W        W29795  29.170  17.108  13.918
68485W        W29796  36.047   5.798  12.966
68486W        W29797  13.599   6.680  13.474
68487W        W29798  29.511  31.146   4.645
68488W        W29799   6.756  22.608   2.320
68489W        W29800  28.118  23.026   3.834
68490W        W29801  12.814  21.710  14.798
68491W        W29802   5.269  36.580   3.796
68492W        W29803   6.832  23.666   1.248
68493W        W29804  28.026  25.113   0.898
68494W        W29805  16.665  27.682  13.902
68495W        W29806   2.868   6.287  14.978
68496W        W29807  30.449  27.010  12.959
68497W        W29808  22.168  32.499  12.831
68498W        W29809  40.976  15.808  12.391
68499W        W29810  37.833  34.520  13.790
68500W        W29811  27.545  28.057  11.610
68501W        W29812  14.100  22.596  14.316
68502W        W29813  19.114  43.502  14.912
68503W        W29814  38.371  19.679   3.781
68504W        W29815  20.579  22.746  14.929
68505W        W29816   8.656  35.985   1.420
68506W        W29817  25.690   2.776  12.039
68507W        W29818  24.212  38.930  12.530
68508W        W29819  19.630  10.700   4.260
68509W        W29820  41.801  18.239   1.842
68510W        W29821  17.586  32.987  11.610
68511W        W29822  28.492  34.889   1.847
68512W        W29823  14.123  13.614  11.010
68513W        W29824  20.250  41.338  14.403
68514W        W29825  24.594  39.533   1.917
68515W        W29826  43.427  21.068  12.568
68516W        W29827  16.643  41.924   1.269
68517W        W29828  36.413  34.372  12.540
68518W        W29829   9.360  14.173   3.693
68519W        W29830  24.679   2.732   3.196
68520W        W29831  34.028  29.472  12.050
68521W        W29832  22.122  31.045   0.851
68522W        W29833  41.372   3.370   2.258
68523W        W29834  10.779  35.501   4.807
68524W        W29835  17.269  33.118   1.698
68525W        W29836  44.288  26.194   4.347
68526W        W29837   4.417   4.886  10.562
68527W        W29838  13.787  12.210  11.540
68528W        W29839  40.468  30.154  13.437
68529W        W29840  16.245  36.521  10.498
68530W        W29841  13.639  31.573  11.933
68531W        W29842  15.748   4.432   3.773
68532W        W29843  35.946   9.159   1.817
68533W        W29844  31.618  13.243  12.485
68534W        W29845   5.882  14.821  13.832
68535W        W29846  31.942  40.900  12.505
68536W        W29847  10.329  41.840  14.775
68537W        W29848   7.845  20.677   0.887
68538W        W29849  19.101   3.415   0.380
68539W        W29850  32.440   2.822   1.793
68540W        W29851  29.071  43.301  10.481
68541W        W29852  16.073  14.318   0.799
68542W        W29853  16.651   8.655   3.680
68543W        W29854  36.905  29.935   4.244
68544W        W29855  27.648   4.265   1.266
68545W        W29856  41.015  20.662  11.903
68546W        W29857  18.261  28.460   0.276
68547W        W29858   2.232   6.202   1.393
68548W        W29859  26.644  37.029   4.755
68549W        W29860   4.909  31.440   1.873
68550W        W29861   5.824  15.815   1.813
68551W        W29862  23.147  16.761  12.565
68552W        W29863  40.866  15.269   1.429
68553W        W29864  14.629   8.776   1.737
68554W        W29865  24.557  13.318  12.851
68555W        W29866   3.402  25.682   1.414
68556W        W29867  32.421  42.780   2.675
68557W        W29868  24.621  36.539   1.245
68558W        W29869  44.309  44.924  13.454
68559W        W29870  37.521  25.095   3.175
68560W        W29871  35.524   0.815  14.835
68561W        W29872  28.099  10.312   3.314
68562W        W29873  32.934  43.965  11.021
68563W        W29874  28.140  20.079   3.347
68564W        W29875  32.471  21.715  11.441
68565W        W29876   6.393  26.993  12.827
68566W        W29877  25.098  43.890   4.758
68567W        W29878  22.614  43.939  13.011
68568W        W29879  15.200  21.716  13.044
68569W        W29880  19.534  41.007   1.393
68570W        W29881  27.599  17.718   1.787
68571W        W29882   4.911   2.349  10.408
68572W        W29883  11.859  12.330  13.500
68573W        W29884  24.049  15.605  13.381
68574W        W29885  37.936   7.803  14.509
68575W        W29886  36.079  41.847   3.670
68576W        W29887  14.800  22.110   3.706
68577W        W29888  15.651  41.421   5.243
68578W        W29889  23.239  28.067  11.594
68579W        W29890  37.853  24.198   2.823
68580W        W29891  20.621  23.040   1.719
68581W        W29892  13.730  20.097   2.712
68582W        W29893  41.851  16.658   4.294
68583W        W29894   7.834   9.294   4.282
68584W        W29895   5.203  20.564   4.679
68585W        W29896   2.806   3.896  14.988
68586W        W29897  40.343  42.955  14.012
68587W        W29898  34.404   3.797   2.750
68588W        W29899  37.483  30.629   2.223
68589W        W29900  35.086  21.625  11.031
68590W        W29901  18.642   4.914   3.202
68591W        W29902  21.737  21.517  11.901
68592W        W29903  15.675  29.040  13.448
68593W        W29904  42.479  14.630   2.686
68594W        W29905  24.567  38.361  12.401
68595W        W29906  13.139   5.798  12.055
68596W        W29907  37.880  29.509   2.854
68597W        W29908  10.761   1.356  13.393
68598W        W29909  34.975   8.698  14.882
68599W        W29910  34.980  32.031  11.434
68600W        W29911  14.824  15.777   4.783
68601W        W29912  15.710   2.444  14.476
68602W        W29913  28.012  10.278  13.829
68603W        W29914  21.755  20.106   1.869
68604W        W29915   8.663  39.502   1.799
68605W        W29916   7.823  27.572   1.883
68606W        W29917  20.599  11.367   4.755
68607W        W29918  31.027  35.430  13.349
68608W        W29919  16.276  14.680   3.264
68609W        W29920  18.570   3.838   1.701
68610W        W29921  26.194  23.066  11.470
68611W        W29922  31.037  10.228  11.865
68612W        W29923  39.064  34.397   3.789
68613W        W29924   0.435  25.156   2.330
68614W        W29925  29.494  34.476   0.439
68615W        W29926  34.445   2.340  11.585
68616W        W29927  18.254  34.050  14.796
68617W        W29928   2.852  34.399  10.445
68618W        W29929   6.186  40.338   1.407
68619W        W29930  33.086  35.878   0.472
68620W        W29931  42.923  25.480  14.391
68621W        W29932  25.711  18.155  14.393
68622W        W29933   0.969  28.617   0.295
68623W        W29934   2.266  36.061  14.967
68624W        W29935  33.122  36.025   0.821
68625W        W29936  10.202  10.832   2.239
68626W        W29937  37.981  13.315   1.283
68627W        W29938  29.139  15.713  13.034
68628W        W29939  34.405   1.479   4.163
68629W        W29940  33.008  20.170  11.565
68630W        W29941  25.989  11.248  13.819
68631W        W29942   6.872   2.395   2.852
68632W        W29943  16.636   3.786   2.892
68633W        W29944   3.836   4.922   0.846
68634W        W29945  12.611  34.499  14.360
68635W        W29946   1.361   5.380  11.924
68636W        W29947  25.566  44.778  14.366
68637W        W29948  43.500  44.392  11.464
68638W        W29949  16.288  39.524  12.983
68639W        W29950  14.684  22.703   5.312
68640W        W29951  32.404  31.091   4.232
68641W        W29952  10.672   5.695   0.294
68642W        W29953   7.729  12.134   1.276
68643W        W29954  19.667  34.978  13.514
68644W        W29955  33.890  32.634  11.113
68645W        W29956  37.395  12.771   1.249
68646W        W29957   5.692  19.608  10.597
68647W        W29958  14.144  39.858  12.920
68648W        W29959  23.490  35.912   0.887
68649W        W29960  21.748  35.933   1.331
68650W        W29961  12.179  26.637   3.657
68651W        W29962  36.859  28.994  10.156
68652W        W29963   3.219  25.563   4.274
68653W        W29964  41.979   5.363  10.988
68654W        W29965  14.279  15.268   1.247
68655W        W29966   1.831   2.839   2.878
68656W        W29967  34.092  38.342   2.261
68657W        W29968  22.081  13.350  14.975
68658W        W29969  36.567  36.971  10.442
68659W        W29970  26.054  39.347  14.423
68660W        W29971   5.402   0.460   2.701
68661W        W29972   6.873  38.845  12.867
68662W        W29973  31.459  18.709  12.919
68663W        W29974   3.403   8.660   1.294
68664W        W29975  44.383  23.054   3.706
68665W        W29976   7.335  34.965   0.896
68666W        W29977  31.523  23.043   4.117
68667W        W29978  39.889   4.354  12.456
68668W        W29979  34.445   7.172  14.364
68669W        W29980  39.875   1.246  11.397
68670W        W29981  17.206  15.763  11.579
68671W        W29982   4.330   7.330  14.507
68672W        W29983  36.468  12.729   1.862
68673W        W29984   0.847   2.759   1.447
68674W        W29985  11.669   5.424   3.176
68675W        W29986   0.479  30.151   2.212
68676W        W29987  18.782  40.015   3.350
68677W        W29988   9.333  16.690  12.040
68678W        W29989  39.821  13.806   0.397
68679W        W29990  13.117  10.279   2.854
68680W        W29991  16.605  42.919   2.204
68681W        W29992  14.614  18.276   4.124
68682W        W29993  36.061  37.579  14.375
68683W        W29994  35.475  35.043  14.375
68684W        W29995  42.443   9.365  14.418
68685W        W29996  34.115  22.632  13.013
68686W        W29997   6.769  25.012  12.866
68687W        W29998  38.398  15.816  12.844
68688W        W29999  14.217  16.586   2.359
68689W        W30000  31.966  41.035   0.823
68690W        W30001  38.325  19.098   2.340
68691W        W30002  20.269  36.411   4.253
68692W        W30003  26.610  26.625  14.406
68693W        W30004  39.432   5.425  10.529
68694W        W30005  21.682  38.329   5.568
68695W        W30006  34.988  28.147  12.574
68696W        W30007  40.547  40.979  10.540
68697W        W30008  39.064  21.131  14.389
68698W        W30009  44.328  41.037  10.502
68699W        W30010  17.195  41.343   2.902
68700W        W30011  17.266  17.562   3.668
68701W        W30012  25.653  32.047   3.656
68702W        W30013  14.255  37.022   0.904
68703W        W30014   4.834  35.520  14.871
68704W        W30015   4.872   0.393   3.753
68705W        W30016  36.976  44.949  12.826
68706W        W30017  39.000  31.920  13.443
68707W        W30018   5.372  13.133   2.664
68708W        W30019  44.436  26.970  12.410
68709W        W30020  28.681  31.911   2.410
68710W        W30021  13.192  16.720   0.913
68711W        W30022  37.514  29.557   0.312
68712W        W30023  32.910  31.527   2.665
68713W        W30024   3.282  42.476  14.299
68714W        W30025  23.685  36.974  13.956
68715W        W30026  20.579  32.117  10.530
68716W        W30027   5.900   2.861   2.681
68717W        W30028  29.575  39.366   2.744
68718W        W30029  28.015  26.167  13.930
68719W        W30030   6.271  20.582  11.086
68720W        W30031  31.579  41.308  11.494
68721W        W30032  28.135  24.724  12.419
68722W        W30033  40.813   8.279   3.172
68723W        W30034   8.295  17.172   5.604
68724W        W30035  35.940   7.791  12.435
68725W        W30036   4.267   4.824   2.800
68726W        W30037  33.471  24.124   0.399
68727W        W30038  15.245  36.024   1.250
68728W        W30039  25.975  21.082   0.284
68729W        W30040  11.190  12.783  14.360
68730W        W30041   7.284  31.009   0.953
68731W        W30042  42.452  13.166  11.506
68732W        W30043  21.260  32.908   4.713
68733W        W30044  24.612  15.293  12.993
68734W        W30045   5.732  26.657  12.564
68735W        W30046   6.366   4.827   1.825
68736W        W30047  22.009  32.494   0.371
68737W        W30048  39.962   9.865   0.877
68738W        W30049   3.802  41.868  11.470
68739W        W30050  10.709  19.721   2.767
68740W        W30051  23.554  42.398   0.472
68741W        W30052  22.150   2.967   0.385
68742W        W30053  11.733  14.627  13.907
68743W        W30054  32.140  19.131  10.892
68744W        W30055  36.573  31.632   1.823
68745W        W30056  43.494  22.538  11.095
68746W        W30057  19.547  18.183   1.815
68747W        W30058  31.547  18.629   2.857
68748W        W30059  39.988  22.067  10.592
68749W        W30060  14.289  36.389  10.600
68750W        W30061  19.742  40.815   2.198
68751W        W30062  13.201   8.321   2.755
68752W        W30063   7.310  37.981  13.520
68753W        W30064  17.293  37.356  11.874
68754W        W30065  12.654  33.943  14.979
68755W        W30066  26.567  14.655   2.354
68756W        W30067   6.898  13.248   3.370
68757W        W30068  42.031  30.471  13.962
68758W        W30069  42.783   0.799  11.597
68759W        W30070  43.914   6.335  11.584
68760W        W30071   2.888  19.674   0.919
68761W        W30072  14.777  21.696  11.012
68762W        W30073  37.461  39.821   3.332
68763W        W30074   3.752  34.006  10.409
68764W        W30075  22.236  43.892   4.799
68765W        W30076   4.768  24.071  14.331
68766W        W30077   7.284  42.788   9.958
68767W        W30078  36.450  20.210   2.895
68768W        W30079  28.129  42.368  12.066
68769W        W30080  22.207   8.751  12.079
68770W        W30081   0.352  44.463   4.821
68771W        W30082   9.745  31.964  12.420
68772W        W30083  39.559  26.519   2.318
68773W        W30084  12.611   3.341  11.077
68774W        W30085   3.748  42.378  11.899
68775W        W30086  26.556  35.507  10.419
68776W        W30087  26.495  22.997  12.018
68777W        W30088  29.165  14.700   2.244
68778W        W30089   2.338  32.070  11.571
68779W        W30090  36.495   6.826   0.313
68780W        W30091  37.534  35.853   1.261
68781W        W30092  16.671  18.746  14.277
68782W        W30093  13.629  23.547   1.367
68783W        W30094   3.345  44.991  11.097
68784W        W30095  34.602  39.900   0.881
68785W        W30096  18.554   3.835   4.608
68786W        W30097  22.066  44.428  13.406
68787W        W30098  39.984   3.896   4.705
68788W        W30099  34.935   1.821  12.362
68789W        W30100  18.253  21.670  12.499
68790W        W30101  34.097  15.683  12.482
68791W        W30102  33.482  25.074   1.445
68792W        W30103  14.334   2.784  10.084
68793W        W30104  35.574   5.283   0.430
68794W        W30105  26.114  17.618   2.812
68795W        W30106  14.124  37.965  14.966
68796W        W30107  29.507  21.578  11.002
68797W        W30108  11.167  39.322  13.326
68798W        W30109   1.469   5.755  13.926
68799W        W30110  14.643   0.981  11.007
68800W        W30111   9.349  36.092  13.412
68801W        W30112  28.456  27.950  14.933
68802W        W30113  28.558  21.059   4.341
68803W        W30114  44.837   9.230  11.399
68804W        W30115   5.830   7.716   3.189
68805W        W30116  10.303  14.178   4.776
68806W        W30117  24.525  22.606  14.999
68807W        W30118  30.541  12.209   0.475
68808W        W30119   6.832  33.880  13.436
68809W        W30120  14.764  11.228   4.772
68810W        W30121  34.615  21.226  10.975
68811W        W30122   8.167  30.485  14.779
68812W        W30123   2.946  18.629  11.506
68813W        W30124  22.160  29.565   9.528
68814W        W30125  22.197   1.928  13.467
68815W        W30126  44.384  10.741  14.788
68816W        W30127  24.038   1.770  10.042
68817W        W30128  29.645  37.553   0.770
68818W        W30129  38.958  30.417   5.122
68819W        W30130   5.400  29.585  14.851
68820W        W30131  41.396  27.130  14.790
68821W        W30132  21.249  11.208  14.885
68822W        W30133  16.667  17.279  13.462
68823W        W30134  41.463   6.863  13.406
68824W        W30135  11.725  32.492  13.822
68825W        W30136  28.156  17.731  10.437
68826W        W30137  26.000  21.123  10.558
68827W        W30138  40.441  15.676   0.374
68828W        W30139  19.696  44.884   1.907
68829W        W30140  25.618  21.609  12.975
68830W        W30141  17.575  30.501   1.236
68831W        W30142  20.270  13.774  11.587
68832W        W30143   6.805   5.215  13.333
68833W        W30144  38.019  30.944   1.436
68834W        W30145  37.388  25.630   4.612
68835W        W30146  10.233  44.474  12.996
68836W        W30147  28.131  25.990   2.869
68837W        W30148  36.350  27.061   0.737
68838W        W30149   7.888  39.992  11.858
68839W        W30150  43.885  43.475  12.077
68840W        W30151  35.549  18.091   4.231
68841W        W30152  10.822  37.555  14.023
68842W        W30153  41.440  38.849   3.242
68843W        W30154  26.953  29.121   4.234
68844W        W30155  26.617  12.623  14.461
68845W        W30156   2.855  34.504  14.437
68846W        W30157  32.439  44.872   0.840
68847W        W30158  18.631  35.989  12.508
68848W        W30159  31.574  18.106   2.666
68849W        W30160   0.275  40.054  10.918
68850W        W30161  40.906  39.995   4.632
68851W        W30162  23.601  41.030   3.755
68852W        W30163  38.539  42.905   2.378
68853W        W30164  31.619  38.974  10.099
68854W        W30165  11.683  18.278   3.175
68855W        W30166  33.098  13.786  13.043
68856W        W30167  31.496  22.681   4.311
68857W        W30168  16.080  21.685   2.187
68858W        W30169   9.842  19.678   4.143
68859W        W30170   7.841   4.336   4.303
68860W        W30171  19.216  43.831   2.742
68861W        W30172  36.910   2.367  14.011
68862W        W30173   8.803  39.457   1.386
68863W        W30174   6.232   5.757   0.477
68864W        W30175  14.806  16.696   1.840
68865W        W30176   3.448  32.064  10.155
68866W        W30177   0.262  32.048  10.549
68867W        W30178  13.259  44.419   1.305
68868W        W30179  36.496  13.233  13.888
68869W        W30180   5.780  41.040   3.235
68870W        W30181  23.641   2.284   3.186
68871W        W30182  27.011   1.395  14.768
68872W        W30183  25.655   7.364   3.674
68873W        W30184  19.578  12.625   3.254
68874W        W30185  32.972  19.694   4.765
68875W        W30186  18.153   5.920   0.329
68876W        W30187   8.263  12.699  11.505
68877W        W30188  30.557  39.064  13.840
68878W        W30189  22.070  43.496   0.814
68879W        W30190  36.053  24.193   1.771
68880W        W30191  37.351  35.584   2.388
68881W        W30192  11.636  14.297   4.214
68882W        W30193  16.693  35.506  13.888
68883W        W30194  39.526  39.893  11.460
68884W        W30195   3.729   7.806  11.097
68885W        W30196  21.753   9.319   0.943
68886W        W30197  16.311  30.930   2.267
68887W        W30198  36.886  25.673  13.981
68888W        W30199  40.969  21.513  12.056
68889W        W30200  37.948  11.754   3.741
68890W        W30201   4.863   0.799  11.448
68891W        W30202  29.532  41.026   3.282
68892W        W30203  33.037  39.425  14.397
68893W        W30204   0.286  40.350   2.380
68894W        W30205  24.579   8.677  14.895
68895W        W30206  28.125   5.931  14.291
68896W        W30207  27.197   2.374  12.065
68897W        W30208  38.964  24.693   3.351
68898W        W30209  34.864  38.392  11.082
68899W        W30210  23.721  15.221  14.879
68900W        W30211  38.370  32.094   3.699
68901W        W30212  33.003   0.459  12.928
68902W        W30213  28.997  42.942   3.343
68903W        W30214  26.534  43.280   4.826
68904W        W30215  10.277  23.503   0.379
68905W        W30216  27.516  12.846  14.514
68906W        W30217  37.507  41.459  12.541
68907W        W30218  26.178   3.906   0.920
68908W        W30219   3.827  40.391  12.394
68909W        W30220  11.853  19.201  14.819
68910W        W30221  29.544  35.037   3.370
68911W        W30222  17.705  16.207   1.291
68912W        W30223  33.555   1.474   4.142
68913W        W30224  38.392  17.795  10.945
68914W        W30225  39.361  42.495  14.471
68915W        W30226  29.599  18.597  10.454
68916W        W30227   4.877  11.696   3.773
68917W        W30228  26.518  43.497  10.891
68918W        W30229  40.025  42.449   2.849
68919W        W30230   9.676  24.691  10.620
68920W        W30231  41.981   7.291   0.814
68921W        W30232  16.196  32.604   1.915
68922W        W30233   7.891  34.579   2.187
68923W        W30234  23.040  16.704  14.986
68924W        W30235  28.097  41.526   3.329
68925W        W30236  41.361   2.426   1.326
68926W        W30237  31.498  30.080   4.114
68927W        W30238  36.456  31.642  14.359
68928W        W30239  17.071  38.975   1.386
68929W        W30240  38.869  11.806  14.301
68930W        W30241  19.754  27.516  11.399
68931W        W30242  32.069  41.892   4.285
68932W        W30243  34.005   2.240   1.792
68933W        W30244  26.482  30.055  11.435
68934W        W30245  30.132   3.327   0.411
68935W        W30246  33.547   2.338  11.590
68936W        W30247  40.415  26.472  12.091
68937W        W30248  13.838  33.109   4.641
68938W        W30249  21.067  40.803   0.834
68939W        W30250  31.041   8.849   1.403
68940W        W30251  44.871   9.197  12.392
68941W        W30252   9.382  20.170  11.982
68942W        W30253  25.196   8.858  11.926
68943W        W30254  36.079  43.361  13.438
68944W        W30255   5.825   7.764   2.775
68945W        W30256  29.453  44.352  11.516
68946W        W30257  13.174  21.584   3.865
68947W        W30258  43.768  38.479   0.398
68948W        W30259  27.032   1.431   1.922
68949W        W30260  44.359  22.554  13.370
68950W        W30261  16.594   1.336  12.504
68951W        W30262  41.311  44.357  13.982
68952W        W30263  17.277   2.958   4.674
68953W        W30264  20.675  35.078   0.964
68954W        W30265  20.195  37.442   2.403
68955W        W30266  36.841  26.649   1.271
68956W        W30267  43.324   1.860  13.452
68957W        W30268   2.775   4.739  13.407
68958W        W30269  19.124  18.234  11.533
68959W        W30270  18.137   7.320  11.422
68960W        W30271  13.705  23.587  13.872
68961W        W30272   3.868   4.270  10.541
68962W        W30273  42.379  36.926  11.007
68963W        W30274   2.374  41.362   2.399
68964W        W30275  12.334   0.413  14.381
68965W        W30276  26.564   3.243   4.257
68966W        W30277  17.615   1.778   1.879
68967W        W30278  37.352  29.609   5.198
68968W        W30279  41.470  42.020   4.786
68969W        W30280   6.417  36.560   1.748
68970W        W30281   3.345   8.683  13.456
68971W        W30282  10.654  10.342  11.951
68972W        W30283  31.997  28.956   2.335
68973W        W30284   6.325  11.363   2.398
68974W        W30285   7.182  11.133   2.903
68975W        W30286  18.241  36.472   3.339
68976W        W30287   0.849  24.684   2.836
68977W        W30288  15.325  41.434  12.521
68978W        W30289  32.951  12.800  12.371
68979W        W30290  25.050  14.334  11.031
68980W        W30291  11.632  43.492  14.013
68981W        W30292  38.986  39.456   0.803
68982W        W30293  43.829  29.950  13.383
68983W        W30294  15.771  31.142  10.513
68984W        W30295  30.543  41.480  11.450
68985W        W30296  15.724   5.327  13.950
68986W        W30297  34.873  10.820   2.308
68987W        W30298  42.902  28.001  13.445
68988W        W30299   3.437  44.500   3.789
68989W        W30300  31.929  30.423  11.479
68990W        W30301  43.326  36.376   0.759
68991W        W30302  12.290  41.832  13.821
68992W        W30303  44.372  43.287  11.481
68993W        W30304  34.014  20.149   4.335
68994W        W30305  41.470  35.092   2.195
68995W        W30306  31.044  13.710   1.388
68996W        W30307   6.359  31.124  11.395
68997W        W30308  21.161   1.945   3.719
68998W        W30309   7.173  40.313   3.273
68999W        W30310   3.833   1.239   1.295
69000W        W30311  22.542   2.837   3.855
69001W        W30312  31.540  42.873  11.464
69002W        W30313  33.954  33.594  12.060
69003W        W30314  37.045  20.525   1.443
69004W        W30315  18.258  38.016   4.323
69005W        W30316  33.948   2.393   3.754
69006W        W30317  13.824  18.176   2.259
69007W        W30318   6.887  33.052  14.884
69008W        W30319  21.548   3.715  11.485
69009W        W30320  35.853   5.277   3.802
69010W        W30321  33.516  21.017  10.952
69011W        W30322  20.088   9.201   1.295
69012W        W30323   1.407  30.603  13.481
69013W        W30324   4.893   5.785  12.422
69014W        W30325  38.861  38.563   1.380
69015W        W30326  41.504  27.631  13.396
69016W        W30327  44.398   9.281  14.010
69017W        W30328  19.244  29.022   0.781
69018W        W30329  34.407  28.662   1.883
69019W        W30330  26.571   7.739   4.698
69020W        W30331  30.513  29.626   2.180
69021W        W30332  31.574  33.024   0.348
69022W        W30333   7.891  41.467  12.909
69023W        W30334  10.865  11.147   1.815
69024W        W30335  17.278  34.428   3.234
69025W        W30336  21.627  32.127  11.392
69026W        W30337  28.662  26.664  13.813
69027W        W30338  21.728  38.453   4.831
69028W        W30339   7.314  27.098  12.447
69029W        W30340  29.457  13.292   5.110
69030W        W30341  37.923  19.251  11.517
69031W        W30342  32.909  24.499  10.607
69032W        W30343  37.348  27.029   0.474
69033W        W30344  17.587   2.402  12.876
69034W        W30345  39.946  20.184  13.932
69035W        W30346   5.352  26.684  13.534
69036W        W30347  13.262  39.989   3.330
69037W        W30348  23.136   6.182   3.187
69038W        W30349  15.093  17.154  12.555
69039W        W30350   8.346  35.413   3.188
69040W        W30351  22.555  29.076   3.198
69041W        W30352   8.783   8.380  13.312
69042W        W30353  10.783  42.333   2.751
69043W        W30354  35.445  39.963  11.382
69044W        W30355  30.012  12.209  13.348
69045W        W30356   9.700  33.067  13.310
69046W        W30357  43.434  14.669  11.006
69047W        W30358   3.459  16.638  12.489
69048W        W30359  26.496  35.093  10.574
69049W        W30360  22.617  26.516  10.930
69050W        W30361  27.962  10.869   3.699
69051W        W30362  34.067  23.523   3.370
69052W        W30363  19.188  32.556   2.353
69053W        W30364  17.771  43.776  11.518
69054W        W30365  30.984  41.028   2.705
69055W        W30366  41.303  21.069  14.484
69056W        W30367  13.690  18.595   2.367
69057W        W30368   3.412  21.152   3.868
69058W        W30369  26.500  20.244  13.533
69059W        W30370  18.072  12.128  14.003
69060W        W30371  19.758  26.490   3.268
69061W        W30372  42.369  26.151  12.482
69062W        W30373  34.455   4.744   0.406
69063W        W30374  21.548  41.988   2.713
69064W        W30375  41.895  23.620   4.692
69065W        W30376  36.495  27.177  12.989
69066W        W30377   2.954  17.682  12.388
69067W        W30378  10.864  30.601  10.428
69068W        W30379  24.038  21.528   9.921
69069W        W30380  13.732  37.071  12.824
69070W        W30381  20.623  37.918  13.931
69071W        W30382  21.191  36.539   1.429
69072W        W30383   2.813  27.048   4.270
69073W        W30384   2.357  33.502   0.924
69074W        W30385  21.148  15.229   5.219
69075W        W30386  10.672   9.716  12.838
69076W        W30387  12.270  24.725   2.796
69077W        W30388  42.952  14.290  10.505
69078W        W30389   3.388  39.991   2.235
69079W        W30390  22.721  29.651   3.785
69080W        W30391  27.040  33.049  10.418
69081W        W30392  44.937   6.294   4.144
69082W        W30393  10.658  30.912   2.279
69083W        W30394  28.543   5.811  14.428
69084W        W30395  37.482   0.482  11.437
69085W        W30396  33.617  41.937  12.856
69086W        W30397   8.704  14.823  11.566
69087W        W30398  32.999  13.313   3.358
69088W        W30399  42.450  25.477   3.740
69089W        W30400  41.373  20.238  13.321
69090W        W30401  18.086   7.398   2.695
69091W        W30402  19.091  22.510   2.733
69092W        W30403  23.039  13.751  12.440
69093W        W30404  43.335  23.565   1.793
69094W        W30405  33.416  39.540  13.871
69095W        W30406  18.132  21.171  13.466
69096W        W30407   9.821  12.202  12.420
69097W        W30408  41.353   8.393  11.923
69098W        W30409  24.169  10.346  10.507
69099W        W30410   3.900  15.098  14.983
69100W        W30411  21.061  31.925   4.833
69101W        W30412  43.461  39.478   0.248
69102W        W30413  43.961  23.987  12.022
69103W        W30414   4.420  22.998  12.897
69104W        W30415  28.533  17.113   1.230
69105W        W30416   3.783  20.752  12.038
69106W        W30417  42.782  29.056  12.857
69107W        W30418  14.197  44.350  13.486
69108W        W30419  33.589  17.222  10.531
69109W        W30420   9.385  12.270  13.842
69110W        W30421   7.183   4.873   1.309
69111W        W30422   7.805  44.444   0.472
69112W        W30423  17.610  42.288   0.393
69113W        W30424  33.949  35.068   2.845
69114W        W30425  14.788  31.945   3.810
69115W        W30426  33.470  29.133   2.419
69116W        W30427  37.374   1.800   4.744
69117W        W30428  35.496   6.279  14.900
69118W        W30429   1.298  24.539   4.238
69119W        W30430   2.855  33.411  11.880
69120W        W30431  10.793  21.127  12.535
69121W        W30432  14.109  19.174   2.772
69122W        W30433  29.946  31.459   3.278
69123W        W30434  10.818  41.945   3.248
69124W        W30435  18.598  13.124   3.241
69125W        W30436   2.779  30.146   3.640
69126W        W30437  44.965  23.593   3.634
69127W        W30438  32.050  44.260  14.876
69128W        W30439   2.285  15.198   2.794
69129W        W30440  36.060  44.463   2.305
69130W        W30441  30.989  18.144   2.348
69131W        W30442  41.481   8.750   1.440
69132W        W30443  37.349  28.091   2.667
69133W        W30444  40.986  11.360  13.344
69134W        W30445   5.856  30.513   0.407
69135W        W30446  14.778  41.466  14.821
69136W        W30447  11.658  13.284   5.100
69137W        W30448   8.230  28.007  14.362
69138W        W30449   4.412   8.685   0.383
69139W        W30450   9.835  23.051  12.492
69140W        W30451  14.295  11.770  12.847
69141W        W30452  24.198   2.411   1.729
69142W        W30453  12.181  15.127   1.406
69143W        W30454   2.444  12.278  13.474
69144W        W30455  14.763  37.072  12.459
69145W        W30456  39.902  21.602   2.833
69146W        W30457  19.759  23.124   1.377
69147W        W30458  24.517  31.556   4.114
69148W        W30459  29.127   5.401  13.505
69149W        W30460  37.081  15.651  11.051
69150W        W30461  20.618   9.644   0.761
69151W        W30462  10.162  32.034  11.537
69152W        W30463  28.497   9.856  10.623
69153W        W30464  21.692  29.592   9.603
69154W        W30465   5.225  35.503  12.090
69155W        W30466  14.702  11.764  11.404
69156W        W30467  31.592  38.023   3.232
69157W        W30468  38.829  24.976   3.208
69158W        W30469   6.743  16.701   0.881
69159W        W30470  18.182   3.711  12.048
69160W        W30471  14.197  27.106  14.298
69161W        W30472  13.782  25.505  10.415
69162W        W30473  16.795  10.239  13.488
69163W        W30474  12.282  23.083  13.413
69164W        W30475   5.383  24.188   2.316
69165W        W30476   1.799  33.449  12.036
69166W        W30477   7.665  15.108  13.919
69167W        W30478   1.923  41.837  10.571
69168W        W30479  14.132  36.396  13.043
69169W        W30480  14.336  38.046  13.327
69170W        W30481  25.202  43.852   1.431
69171W        W30482  44.902  28.990   3.785
69172W        W30483   7.229  27.074   3.272
69173W        W30484  15.761   0.829  12.348
69174W        W30485  17.142  22.639  12.561
69175W        W30486  36.053   9.840  11.084
69176W        W30487   4.320  22.711   1.343
69177W        W30488  43.272   2.956  12.506
69178W        W30489   7.387   1.474  11.426
69179W        W30490  28.545  23.050  10.589
69180W        W30491  30.018  23.210   2.399
69181W        W30492  40.393  36.917  11.971
69182W        W30493   6.258  34.064   2.773
69183W        W30494  36.009   4.744   0.371
69184W        W30495   0.956  44.494   2.379
69185W        W30496  31.007  33.488   0.898
69186W        W30497  28.443  37.396  11.891
69187W        W30498  40.485  32.993  10.042
69188W        W30499  41.801  24.513  11.552
69189W        W30500  20.045  40.394   4.268
69190W        W30501  15.187   0.795  11.103
69191W        W30502  28.596  33.496  13.918
69192W        W30503  24.626  41.502   0.408
69193W        W30504  44.900   9.794  11.604
69194W        W30505   3.274  43.964  12.349
69195W        W30506  32.441  23.091  11.567
69196W        W30507  13.796  25.497   0.830
69197W        W30508  32.901  39.926   1.368
69198W        W30509  36.994   2.849  11.575
69199W        W30510  10.809  16.696  11.935
69200W        W30511  15.107  27.072  13.868
69201W        W30512  23.134  20.138  13.062
69202W        W30513   9.309  11.784   4.312
69203W        W30514   0.316  37.465  10.941
69204W        W30515  17.191  21.151  11.936
69205W        W30516  13.739  10.738   1.754
69206W        W30517  17.135  25.071  14.828
69207W        W30518  11.706  35.016  11.120
69208W        W30519  38.542  33.983   2.671
69209W        W30520  29.610  33.402   1.420
69210W        W30521  37.968  43.493   3.658
69211W        W30522  14.722  16.137  10.515
69212W        W30523   4.722  28.550  11.866
69213W        W30524  42.351  40.857  13.455
69214W        W30525  39.812  31.472   9.442
69215W        W30526  18.691  15.130  11.606
69216W        W30527  35.518  27.059  11.945
69217W        W30528   0.893   7.368  12.955
69218W        W30529   0.250  27.019  13.879
69219W        W30530  35.860  37.448  12.962
69220W        W30531  18.748  40.964   2.375
69221W        W30532  34.509  14.769   4.147
69222W        W30533  10.272  41.384   2.736
69223W        W30534  33.534   5.902   2.277
69224W        W30535   7.692  43.888   2.344
69225W        W30536  29.988  19.712  13.960
69226W        W30537  44.403  25.202   0.377
69227W        W30538  31.588  16.808   3.230
69228W        W30539  13.754  30.007  12.965
69229W        W30540  32.891  31.943  11.386
69230W        W30541   7.207  11.176   2.244
69231W        W30542  24.023  16.259  11.432
69232W        W30543  43.855  32.101   1.864
69233W        W30544  36.092  29.096  12.551
69234W        W30545   9.335  32.407   3.376
69235W        W30546   3.763  18.093  11.077
69236W        W30547   7.178  23.664  11.373
69237W        W30548  15.758  43.327   3.784
69238W        W30549   5.890  38.029   2.344
69239W        W30550  25.116  27.533   0.849
69240W        W30551  17.210  35.973   0.735
69241W        W30552  22.630  23.117   1.335
69242W        W30553  16.803  12.214  12.512
69243W        W30554  35.038  36.967   4.616
69244W        W30555  15.741  43.433  11.492
69245W        W30556  14.719  29.972   1.737
69246W        W30557  15.720   6.732  10.570
69247W        W30558  16.207  21.185   1.217
69248W        W30559  44.776   4.381   3.690
69249W        W30560  40.354  11.768  13.012
69250W        W30561  17.112  23.608   4.119
69251W        W30562   2.804  19.615  14.281
69252W        W30563  11.644  41.941   3.865
69253W        W30564  36.020  27.169  14.021
69254W        W30565  11.839  24.580  14.491
69255W        W30566  39.442  43.875   1.921
69256W        W30567  37.014  34.081   3.833
69257W        W30568  20.591   6.832   4.798
69258W        W30569  31.017   9.225  11.966
69259W        W30570  31.607   4.867  12.556
69260W        W30571  23.049  11.720  13.045
69261W        W30572   9.344   5.386  12.887
69262W        W30573  39.042  38.923  12.923
69263W        W30574  42.391  28.177   2.741
69264W        W30575   3.258   6.764   4.168
69265W        W30576  25.695  40.828  14.967
69266W        W30577  41.466   8.753   2.397
69267W        W30578  21.661  29.995   9.935
69268W        W30579  24.052   4.390  14.428
69269W        W30580  13.230  23.020  10.530
69270W        W30581  40.393  30.948   4.136
69271W        W30582   2.792  32.422   1.786
69272W        W30583   0.396  39.879   2.345
69273W        W30584  13.166  24.579   2.262
69274W        W30585  33.040  29.128   4.761
69275W        W30586  42.940  41.337   2.289
69276W        W30587  39.389  41.867  13.943
69277W        W30588   1.959  22.655   4.113
69278W        W30589  23.031   2.227  11.083
69279W        W30590  41.020  35.562  14.028
69280W        W30591  12.273   2.326  12.548
69281W        W30592  32.017  12.627  11.397
69282W        W30593   2.439   5.414  10.980
69283W        W30594   2.309  23.550   2.838
69284W        W30595  15.605  11.828  10.412
69285W        W30596   5.849  14.611   1.441
69286W        W30597  37.551  15.811  13.796
69287W        W30598  25.052  17.597   0.270
69288W        W30599   5.823  14.121   2.809
69289W        W30600   2.828  37.854  13.038
69290W        W30601  31.518  20.247  13.484
69291W        W30602  14.590  41.374  10.027
69292W        W30603  19.568  42.816   3.840
69293W        W30604  26.625  22.511  13.382
69294W        W30605   5.407   1.443   1.348
69295W        W30606   1.410  25.675  11.993
69296W        W30607  38.501  27.622   4.258
69297W        W30608  28.091  15.663   1.369
69298W        W30609  16.743   6.362   3.856
69299W        W30610   7.753  39.932  14.877
69300W        W30611   7.402   1.793   3.822
69301W        W30612  19.659  23.692   1.409
69302W        W30613  41.421  42.502  13.055
69303W        W30614  44.391  32.632  11.971
69304W        W30615  10.876  34.059  13.893
69305W        W30616  15.729  24.088  14.917
69306W        W30617  34.893  11.355  10.910
69307W        W30618   7.815  34.398   4.265
69308W        W30619  11.185   0.878   0.303
69309W        W30620  33.626   3.911  14.022
69310W        W30621   2.939  10.378   0.817
69311W        W30622  26.686  29.053   2.839
69312W        W30623  25.058  43.901  11.435
69313W        W30624  34.392   5.727   0.830
69314W        W30625  12.702  37.346  14.810
69315W        W30626  32.074   5.426   1.255
69316W        W30627  15.177  33.128   2.211
69317W        W30628   3.305  34.034  11.065
69318W        W30629  15.745  31.983  14.772
69319W        W30630  34.884  15.613   3.337
69320W        W30631  32.062  13.738  13.939
69321W        W30632  35.096  23.514   3.825
69322W        W30633  28.164  25.199  13.815
69323W        W30634  27.140  41.297   3.163
69324W        W30635  20.103  29.059  12.054
69325W        W30636  28.591  38.338  10.950
69326W        W30637  13.690  29.062   1.279
69327W        W30638  39.403  34.884  10.639
69328W        W30639  36.980  11.218  13.993
69329W        W30640  25.478   7.366   1.323
69330W        W30641  31.949  15.229   2.293
69331W        W30642  15.314  12.132  14.838
69332W        W30643  14.701  40.535   4.800
69333W        W30644  14.109  13.740  12.499
69334W        W30645  41.008   6.297   4.607
69335W        W30646  27.941  28.454   2.804
69336W        W30647   5.766  10.696   3.648
69337W        W30648  36.586   8.229  11.375
69338W        W30649  13.245  38.962   1.891
69339W        W30650  35.393  25.158   4.742
69340W        W30651  19.260  37.981  13.396
69341W        W30652  37.838   6.778  11.480
69342W        W30653   6.914   7.686   1.719
69343W        W30654  26.122   4.441  11.602
69344W        W30655  36.584  37.485  12.564
69345W        W30656  13.182   3.368  12.030
69346W        W30657  19.563  36.936  11.437
69347W        W30658  28.125  22.248  12.546
69348W        W30659  16.162   1.845  11.493
69349W        W30660  23.590  32.090  13.858
69350W        W30661  36.863   9.825  12.002
69351W        W30662   1.418  22.582   2.722
69352W        W30663   8.776   8.689  13.916
69353W        W30664  36.538  24.993   3.630
69354W        W30665   3.726  16.652   3.856
69355W        W30666  34.066  16.715   0.855
69356W        W30667  33.109  10.289   3.210
69357W        W30668  20.615  40.993  13.854
69358W        W30669   4.347   4.207  13.822
69359W        W30670   3.221  13.697   2.681
69360W        W30671  18.050  38.943   2.736
69361W        W30672  39.945  16.177   0.428
69362W        W30673  44.833  36.408  12.887
69363W        W30674  13.175  17.713   0.446
69364W        W30675  17.265  32.470   3.348
69365W        W30676  31.443   7.367  11.586
69366W        W30677   0.919  43.321  11.971
69367W        W30678  12.855  32.011   2.342
69368W        W30679  44.485  28.625   1.709
69369W        W30680  10.676   4.371   1.409
69370W        W30681  29.563  36.027  12.503
69371W        W30682  20.262  24.169  10.433
69372W        W30683  29.172   5.394  13.942
69373W        W30684   0.847  13.839  14.904
69374W        W30685  18.731   2.809   2.313
69375W        W30686  37.343  12.269  13.511
69376W        W30687   7.384   4.442   0.933
69377W        W30688  36.099  16.116   3.780
69378W        W30689  26.634  13.261  13.868
69379W        W30690  34.976  40.904   4.819
69380W        W30691  33.967  18.744   4.348
69381W        W30692  36.857  27.648   9.616
69382W        W30693   1.809   7.333   1.888
69383W        W30694  25.125  21.579  12.559
69384W        W30695   3.294  20.185  13.378
69385W        W30696  44.864   1.949   5.302
69386W        W30697  32.592  33.073   1.800
69387W        W30698   2.287  34.923  13.824
69388W        W30699  11.250  34.578  12.468
69389W        W30700  24.574  23.149  14.430
69390W        W30701  28.529   3.457  10.912
69391W        W30702  40.951   8.260  13.943
69392W        W30703  13.656  11.137  12.493
69393W        W30704  42.002  11.310   0.470
69394W        W30705  12.734  17.176   0.466
69395W        W30706  24.569   2.793   1.290
69396W        W30707  21.601   0.833   4.286
69397W        W30708  36.452   8.385   0.286
69398W        W30709  22.079  31.629   0.789
69399W        W30710  38.936  34.056   2.723
69400W        W30711  30.468  27.675   2.686
69401W        W30712   7.236  13.241  13.013
69402W        W30713  30.629  12.127  12.438
69403W        W30714   8.857  40.894  12.469
69404W        W30715  36.585   1.839  10.636
69405W        W30716  13.646  13.271   3.720
69406W        W30717  40.977  14.187   2.682
69407W        W30718  34.011  22.996   2.326
69408W        W30719   0.418  14.220  14.427
69409W        W30720   6.421  16.647   0.475
69410W        W30721  16.104   0.264  12.963
69411W        W30722  37.833  30.615  14.839
69412W        W30723   2.242  41.380  14.492
69413W        W30724  32.917  29.029  12.498
69414W        W30725  36.968  12.635  10.512
69415W        W30726  40.512  15.253  13.827
69416W        W30727  36.585  37.852  11.502
69417W        W30728  23.689  38.517  10.443
69418W        W30729  35.461  21.258   2.181
69419W        W30730  29.467  14.825  13.358
69420W        W30731  21.094  39.041   2.220
69421W        W30732  31.035  18.695  11.384
69422W        W30733  11.329   1.268   0.275
69423W        W30734  20.242  11.660   4.718
69424W        W30735  25.090   2.878   4.607
69425W        W30736  36.460  41.925   1.808
69426W        W30737  19.765  31.098  13.846
69427W        W30738  39.974  43.431   0.834
69428W        W30739   1.855  40.386  12.386
69429W        W30740   6.368  42.802  13.041
69430W        W30741  35.513   1.437  13.035
69431W        W30742   3.903  23.684   1.234
69432W        W30743  18.680  42.963   5.291
69433W        W30744   5.780  37.504   1.919
69434W        W30745   9.390  37.575   0.865
69435W        W30746  22.215  13.318   3.800
69436W        W30747  36.920  43.864   4.174
69437W        W30748   3.264  13.164  14.455
69438W        W30749  17.658  32.067  11.581
69439W        W30750  21.045  24.089  14.781
69440W        W30751  18.593  17.627  12.909
69441W        W30752   9.190  30.484   3.234
69442W        W30753  28.173  14.683   2.863
69443W        W30754  36.867  33.504   0.803
69444W        W30755   3.359  27.683  13.456
69445W        W30756  27.451  16.204  12.934
69446W        W30757  16.591  18.661  12.531
69447W        W30758   1.453  16.619  12.839
69448W        W30759  42.975  26.593   1.437
69449W        W30760   4.210  11.152  11.902
69450W        W30761   4.409  39.458   0.942
69451W        W30762  13.624  27.067  12.384
69452W        W30763   9.879  16.121  14.332
69453W        W30764  17.198  20.048  10.977
69454W        W30765  41.357  36.015   4.122
69455W        W30766  17.765  10.836  10.944
69456W        W30767  30.559  40.965  13.043
69457W        W30768  23.074   9.813  12.477
69458W        W30769   9.873   3.393   1.885
69459W        W30770  12.348  26.494   0.830
69460W        W30771   0.937  27.168  10.631
69461W        W30772  27.576   2.388  12.898
69462W        W30773  28.948  10.288   3.297
69463W        W30774  20.668  14.757   4.761
69464W        W30775   0.931   7.854   4.761
69465W        W30776  27.134  24.058  12.089
69466W        W30777  17.730  35.371  11.114
69467W        W30778  29.982   1.866   1.336
69468W        W30779  30.426  26.154  10.420
69469W        W30780   1.770  14.820  14.859
69470W        W30781   5.883  29.487  14.803
69471W        W30782  19.647  34.946   4.784
69472W        W30783   5.834  30.457  10.614
69473W        W30784  15.611  25.169   0.842
69474W        W30785  44.891  26.611   4.258
69475W        W30786   7.292  19.542  10.894
69476W        W30787   7.729  32.992  12.861
69477W        W30788  16.804   0.829  13.016
69478W        W30789   9.890  23.151  10.619
69479W        W30790  25.678  13.648  13.795
69480W        W30791  44.483  35.585   1.922
69481W        W30792  43.295  36.562  13.478
69482W        W30793   2.859  41.369  11.867
69483W        W30794  29.937  39.040  13.795
69484W        W30795  16.726  11.314   0.921
69485W        W30796   6.868  36.512   1.919
69486W        W30797  33.474  36.925   0.740
69487W        W30798  37.938  15.765  11.015
69488W        W30799  35.906   2.320  11.544
69489W        W30800  38.875  31.582   1.290
69490W        W30801  40.491  21.560  11.942
69491W        W30802  15.691   1.354  10.536
69492W        W30803  34.888  23.038   4.304
69493W        W30804  42.028  14.188   1.299
69494W        W30805  15.301  26.186  13.942
69495W        W30806  10.732  17.783  14.955
69496W        W30807  42.922  13.803  13.512
69497W        W30808  38.371  41.871   3.235
69498W        W30809  30.102  28.176  11.967
69499W        W30810   3.301   2.916   3.858
69500W        W30811  30.923  26.990  10.409
69501W        W30812   0.823  44.282   4.736
69502W        W30813  34.091  23.196   3.715
69503W        W30814   9.341  29.509   3.323
69504W        W30815  14.729  23.204   1.792
69505W        W30816  38.395  10.188   3.246
69506W        W30817  19.146  39.473   4.711
69507W        W30818  12.633  23.694  10.943
69508W        W30819  16.082   9.681  10.912
69509W        W30820   6.278  24.138  12.513
69510W        W30821  44.470   2.402  12.357
69511W        W30822  40.393  27.589   0.347
69512W        W30823  20.169   7.376  13.942
69513W        W30824  36.472  10.354   3.343
69514W        W30825  31.934   2.411   5.183
69515W        W30826  22.666  14.186   0.841
69516W        W30827  40.310  32.568   3.723
69517W        W30828  33.883  28.065   1.835
69518W        W30829  39.017  19.166   3.692
69519W        W30830  39.393  34.449   2.406
69520W        W30831  44.758   7.686  11.962
69521W        W30832  36.415  24.199  14.866
69522W        W30833  12.300   3.751   3.198
69523W        W30834  16.671  43.458  12.515
69524W        W30835   2.758  17.248  14.893
69525W        W30836   9.213  32.103  10.596
69526W        W30837   6.196   5.204  13.324
69527W        W30838  16.157  29.999  13.896
69528W        W30839  38.913  34.955   1.285
69529W        W30840  26.664  34.485   3.632
69530W        W30841   7.705  12.262   2.738
69531W        W30842  34.568  18.210  14.022
69532W        W30843  37.869  40.833  10.083
69533W        W30844   2.924  37.392   4.264
69534W        W30845   1.769  32.532   2.757
69535W        W30846  38.054  42.371   4.758
69536W        W30847  27.690  15.169   1.223
69537W        W30848  31.064  16.744  12.898
69538W        W30849   5.919  13.692  12.062
69539W        W30850  11.224  27.140  12.982
69540W        W30851  16.238   2.850  11.965
69541W        W30852   2.841  10.858  11.544
69542W        W30853  16.228   3.229  13.858
69543W        W30854   3.443  38.559  13.902
69544W        W30855  15.804  22.240   4.808
69545W        W30856  14.708  21.101   0.841
69546W        W30857   4.384  21.065  13.982
69547W        W30858   4.892  32.898  10.148
69548W        W30859  18.687  37.443  11.524
69549W        W30860   6.879  20.246   4.813
69550W        W30861  32.122   5.212  11.083
69551W        W30862  27.035   9.671  11.944
69552W        W30863   9.838  34.960  12.578
69553W        W30864  20.099  11.279   2.399
69554W        W30865   3.457  22.603  10.483
69555W        W30866   9.704  37.482   0.746
69556W        W30867   5.802  11.840  11.897
69557W        W30868  14.766  42.442  11.371
69558W        W30869  18.261  14.591  11.477
69559W        W30870   2.954   3.768   3.819
69560W        W30871  40.940  12.762   4.809
69561W        W30872  43.274   7.398   1.359
69562W        W30873  37.436  23.700  12.856
69563W        W30874  33.967  41.394   1.832
69564W        W30875  27.680  16.706  11.460
69565W        W30876  13.605  31.513  13.919
69566W        W30877  23.000   9.237   4.294
69567W        W30878  10.340   7.280  14.425
69568W        W30879   1.816  28.657  13.513
69569W        W30880  42.813  18.192  14.515
69570W        W30881  12.339  18.626   1.329
69571W        W30882  34.439   2.357  13.427
69572W        W30883  34.101  31.922   1.438
69573W        W30884  21.241  44.871  13.019
69574W        W30885  14.150  43.876   1.896
69575W        W30886   5.263   4.413   1.862
69576W        W30887   2.247   1.453   4.270
69577W        W30888  25.667  13.183  13.420
69578W        W30889  14.215  10.633  11.560
69579W        W30890   2.426  31.940  12.454
69580W        W30891  18.581  23.092   4.612
69581W        W30892  11.763   7.210   9.925
69582W        W30893  34.510   5.815  11.950
69583W        W30894  42.895  16.147   3.820
69584W        W30895  15.645  16.266   2.867
69585W        W30896  39.010  26.593   3.206
69586W        W30897   0.314   9.277   1.827
69587W        W30898  18.749  38.439  13.377
69588W        W30899  18.269  20.745  13.864
69589W        W30900  44.910  13.193   1.799
69590W        W30901  18.117  35.967  14.473
69591W        W30902  26.674   7.818  10.477
69592W        W30903  36.503  40.857  13.903
69593W        W30904  14.824   9.666  12.484
69594W        W30905  17.713  37.079  14.411
69595W        W30906  28.976   3.861  14.903
69596W        W30907  38.063  38.058  14.796
69597W        W30908   0.409  20.235  10.986
69598W        W30909  30.144   0.856   0.282
69599W        W30910   2.812  36.425   1.315
69600W        W30911   1.424   8.661  14.794
69601W        W30912   1.394  22.691   4.661
69602W        W30913   6.264  44.811   1.914
69603W        W30914  22.246  26.691  14.855
69604W        W30915  12.358  19.265  12.569
69605W        W30916   2.884  12.748   1.419
69606W        W30917   7.746  41.530  14.778
69607W        W30918  11.248  29.481  14.906
69608W        W30919  18.101  12.139  11.403
69609W        W30920   3.763   0.781   3.662
69610W        W30921  40.452  22.592  12.044
69611W        W30922  44.436  18.202   1.765
69612W        W30923  18.112  40.045   1.417
69613W        W30924  21.103  10.188   1.784
69614W        W30925  16.797  38.837  14.468
69615W        W30926  32.093  23.084  12.026
69616W        W30927  24.505  28.114   2.667
69617W        W30928  30.066  42.009  13.030
69618W        W30929  23.494  44.395  10.423
69619W        W30930  32.954  20.217   3.204
69620W        W30931  16.214  35.868   1.814
69621W        W30932   1.391  42.825   1.930
69622W        W30933  28.089  41.825  10.949
69623W        W30934  11.856  18.055   0.414
69624W        W30935   5.413  15.770  13.487
69625W        W30936  24.229   4.247   4.338
69626W        W30937  30.907  22.183   3.695
69627W        W30938  18.708  23.579  11.382
69628W        W30939  44.880   8.858   4.718
69629W        W30940  38.874  36.011  13.012
69630W        W30941  14.619  43.322   4.288
69631W        W30942  12.816  26.047  11.882
69632W        W30943   7.859  33.622   2.326
69633W        W30944  16.599  25.043  11.996
69634W        W30945  26.487   4.277   3.751
69635W        W30946  16.688   7.850   1.852
69636W        W30947  11.721  31.532   3.190
69637W        W30948  11.154  42.813  12.001
69638W        W30949  36.905  16.731  14.448
69639W        W30950  41.028  25.503   1.285
69640W        W30951  29.164  21.189   4.319
69641W        W30952  32.045  25.506  14.814
69642W        W30953   7.892  34.932   3.863
69643W        W30954  21.676  14.666  12.556
69644W        W30955  37.340  38.923   2.812
69645W        W30956  27.604   6.778   1.841
69646W        W30957  22.525  15.822   3.831
69647W        W30958   5.692  31.924  12.572
69648W        W30959  22.704  11.335   2.892
69649W        W30960   9.756  44.408   1.751
69650W        W30961   2.834   1.818  12.877
69651W        W30962  32.392  11.741   3.756
69652W        W30963  42.312  27.533   3.648
69653W        W30964  34.913   4.239   1.360
69654W        W30965  26.467  44.804   3.236
69655W        W30966  36.477  30.048  12.553
69656W        W30967  27.949   1.928   0.393
69657W        W30968   7.838  24.487  10.540
69658W        W30969  27.560  40.426  11.905
69659W        W30970   2.873  33.937  13.347
69660W        W30971  42.959  34.021   2.253
69661W        W30972  22.532   7.731  13.431
69662W        W30973  42.844  40.904   3.803
69663W        W30974  23.670  31.413   2.250
69664W        W30975  18.629  20.527  10.416
69665W        W30976  32.596  13.792  13.978
69666W        W30977  24.513  40.052   2.869
69667W        W30978  40.887  35.568   4.627
69668W        W30979  44.961  23.496   1.755
69669W        W30980  16.187  25.063   5.587
69670W        W30981  27.085   6.815   1.742
69671W        W30982  40.916  42.889  12.363
69672W        W30983  23.491  34.035  14.376
69673W        W30984   8.179  37.021  12.078
69674W        W30985   1.254  35.420   1.232
69675W        W30986  25.096   9.861   2.264
69676W        W30987  27.136  29.941  14.927
69677W        W30988  10.783  20.073  13.984
69678W        W30989   0.442   4.321  11.880
69679W        W30990  43.362  43.858   1.825
69680W        W30991  41.853  31.412  11.084
69681W        W30992  24.036  12.361  13.454
69682W        W30993  26.134  21.622   0.324
69683W        W30994  39.044  23.602  11.971
69684W        W30995  28.117  15.240   0.922
69685W        W30996  12.736  20.149   1.805
69686W        W30997   1.420  32.945   3.204
69687W        W30998  26.621  21.246  14.882
69688W        W30999  30.622  39.834   4.627
69689W        W31000   2.828  25.983   0.462
69690W        W31001  42.933  18.637   0.255
69691W        W31002   8.345   7.340  14.996
69692W        W31003   1.472  22.064   0.437
69693W        W31004   5.306  27.124  10.422
69694W        W31005  36.909  37.443  14.467
69695W        W31006  18.279  37.029  10.469
69696W        W31007  42.488  13.753  14.009
69697W        W31008   9.715  17.183  13.313
69698W        W31009  41.409   4.722  11.957
69699W        W31010   2.765  21.670   2.234
69700W        W31011  13.749  24.635  13.369
69701W        W31012   4.756   4.878  13.470
69702W        W31013  20.639  13.612  13.377
69703W        W31014  23.620  20.636   0.481
69704W        W31015   2.868  24.621   4.175
69705W        W31016  26.006  11.151   3.352
69706W        W31017  12.254   7.703  12.985
69707W        W31018   6.783  43.019   4.619
69708W        W31019  44.805   5.755   0.359
69709W        W31020  26.647  19.106  12.516
69710W        W31021  39.432   6.710  10.543
69711W        W31022  11.244  20.675  12.497
69712W        W31023  25.964  37.420  13.879
69713W        W31024  20.618  22.693   4.631
69714W        W31025   2.287   8.674   4.292
69715W        W31026  28.495  42.972   4.185
69716W        W31027  27.977  39.510   4.182
69717W        W31028   4.430  33.966   4.786
69718W        W31029  28.493  11.842   4.758
69719W        W31030  24.630  29.010  14.020
69720W        W31031  11.224  36.934  12.868
69721W        W31032  32.605   0.305   2.775
69722W        W31033  30.090   2.929   0.456
69723W        W31034  19.043  15.110   5.280
69724W        W31035   8.871  38.890   4.229
69725W        W31036   1.895   7.292  14.398
69726W        W31037  10.264  24.186  14.412
69727W        W31038  35.476   6.353   2.272
69728W        W31039  18.559  24.135  13.931
69729W        W31040   5.855  27.001   2.764
69730W        W31041   9.652   2.776   3.675
69731W        W31042   1.892  29.950  11.869
69732W        W31043  41.831   2.376  12.000
69733W        W31044  17.112  19.601   9.939
69734W        W31045  32.572  34.976   1.805
69735W        W31046   4.313  25.666  14.018
69736W        W31047  37.418  14.734   2.666
69737W        W31048  29.667  11.315   3.827
69738W        W31049  40.804   6.786   1.430
69739W        W31050  16.195  22.027   1.934
69740W        W31051  16.272   0.313   4.226
69741W        W31052  38.940  33.559   3.299
69742W        W31053  31.446  14.638   2.669
69743W        W31054  24.572  27.061   9.951
69744W        W31055  32.104  19.047  14.919
69745W        W31056  33.397  11.199  11.880
69746W        W31057  11.799  19.636  14.369
69747W        W31058  21.728  39.330   2.874
69748W        W31059  11.830  25.042  14.404
69749W        W31060  16.586  28.507   2.902
69750W        W31061   4.412   8.729  13.508
69751W        W31062  25.539  22.740  11.373
69752W        W31063   3.919  25.576  13.424
69753W        W31064   3.449  19.642  14.351
69754W        W31065  25.031   9.710   2.825
69755W        W31066  21.625   9.348  10.973
69756W        W31067  36.405  17.237   3.377
69757W        W31068  26.686  11.799  11.379
69758W        W31069  27.626  14.602  14.811
69759W        W31070   6.840  33.583  11.992
69760W        W31071  33.967  27.578   3.688
69761W        W31072   0.926  44.462  10.497
69762W        W31073   0.336  31.133  13.034
69763W        W31074  37.422  34.065   5.575
69764W        W31075  27.572  30.955  12.850
69765W        W31076   3.457   0.771  12.950
69766W        W31077  40.341  39.332   3.222
69767W        W31078  14.740  22.159   5.252
69768W        W31079  34.436  39.447  13.869
69769W        W31080  39.335  10.726  13.794
69770W        W31081   8.859  11.173   0.805
69771W        W31082  21.163  15.140  11.020
69772W        W31083   5.689  24.226  14.799
69773W        W31084   0.490  11.163  11.986
69774W        W31085  16.665   5.403   2.844
69775W        W31086  31.479  13.188  13.861
69776W        W31087  35.456  28.607  13.341
69777W        W31088   5.721   6.795   2.877
69778W        W31089  32.137  35.019  12.989
69779W        W31090  27.074  24.586   1.846
69780W        W31091  18.069  43.884  14.357
69781W        W31092  19.128  29.549   0.910
69782W        W31093  39.934  11.222  13.317
69783W        W31094  37.468  20.704   4.248
69784W        W31095  38.848  21.730  11.994
69785W        W31096  25.485  14.729   0.247
69786W        W31097  20.758  19.141  13.371
69787W        W31098  12.715   0.257   0.838
69788W        W31099  42.887  19.599   1.261
69789W        W31100  30.449   6.890   1.294
69790W        W31101  36.982  36.043  10.100
69791W        W31102  14.226  40.007  13.984
69792W        W31103  15.229  20.228   3.233
69793W        W31104  22.605  30.539   1.933
69794W        W31105   7.713  15.277  12.985
69795W        W31106  37.025  41.892  13.945
69796W        W31107  16.219  30.473   4.170
69797W        W31108  34.019  16.119  10.635
69798W        W31109  30.932  24.075  11.500
69799W        W31110   2.747   8.874   4.247
69800W        W31111  37.919  13.231   4.607
69801W        W31112  35.967  17.801   2.184
69802W        W31113  23.038  35.568  11.898
69803W        W31114  30.489  33.516   2.305
69804W        W31115  14.644  43.350  11.424
69805W        W31116   0.873   1.301   0.364
69806W        W31117  34.574  39.375  14.867
69807W        W31118   6.686   6.896  11.041
69808W        W31119  29.600  17.218   3.700
69809W        W31120  34.552  16.682  14.286
69810W        W31121   7.350  21.611  12.935
69811W        W31122  37.481  25.164   1.227
69812W        W31123  29.617  41.495  12.858
69813W        W31124  29.999  18.086   0.888
69814W        W31125  38.429  33.621   4.324
69815W        W31126  40.848  21.638   3.800
69816W        W31127  25.182  15.278  12.974
69817W        W31128   4.925  39.995   3.725
69818W        W31129  35.979  12.319  10.558
69819W        W31130  41.945  16.228  14.318
69820W        W31131  43.983   7.895   2.852
69821W        W31132  32.946  19.585  14.446
69822W        W31133   7.782  40.934  10.558
69823W        W31134  15.139  14.814   1.392
69824W        W31135  15.131  16.762   2.838
69825W        W31136  17.169  17.265  10.909
69826W        W31137  30.998  41.397   2.671
69827W        W31138  32.612  39.350  14.771
69828W        W31139   2.472  37.069  10.905
69829W        W31140  23.235  18.181  14.319
69830W        W31141  38.014  32.523   1.920
69831W        W31142  10.218  19.285   0.270
69832W        W31143  21.619  33.117  11.860
69833W        W31144  28.118  32.097   3.147
69834W        W31145  39.546   4.911   0.331
69835W        W31146  37.347  14.118  14.293
69836W        W31147   4.369  15.706   3.189
69837W        W31148  25.010  26.658  10.961
69838W        W31149   3.881  26.031   0.243
69839W        W31150  41.307  24.492   1.412
69840W        W31151  26.965  40.957   2.746
69841W        W31152   2.315  14.158   2.310
69842W        W31153  10.243  31.593  14.960
69843W        W31154  13.734   9.676   4.154
69844W        W31155  10.817  24.068   4.169
69845W        W31156  39.386   0.963   0.379
69846W        W31157   3.319  25.070  13.505
69847W        W31158  43.398  33.591   1.785
69848W        W31159  25.986  27.645   3.737
69849W        W31160  34.442   8.672   0.876
69850W        W31161  35.374  18.180   3.255
69851W        W31162  23.658   5.317  10.554
69852W        W31163   4.864  22.179  13.363
69853W        W31164  26.530  12.623  11.526
69854W        W31165  24.166  12.723   4.244
69855W        W31166  12.248  10.716   3.162
69856W        W31167  27.489  17.125  14.431
69857W        W31168  40.411  10.645   0.401
69858W        W31169  44.304  10.359   3.287
69859W        W31170  12.285  32.535  11.428
69860W        W31171   3.812  19.543  14.772
69861W        W31172  25.487  39.820   5.755
69862W        W31173   5.399  29.572   4.349
69863W        W31174  44.001  35.085   1.698
69864W        W31175  22.025  16.252   2.409
69865W        W31176  31.456  13.612  11.485
69866W        W31177  39.970  28.044   0.817
69867W        W31178  39.870   1.900  13.352
69868W        W31179   3.444  29.631   1.907
69869W        W31180  23.690  25.578   0.885
69870W        W31181  37.927  13.844  11.958
69871W        W31182  28.555  18.114  10.903
69872W        W31183  24.027  15.702   4.141
69873W        W31184  20.197  13.803  13.824
69874W        W31185  43.489  21.183  11.104
69875W        W31186  35.987  39.907   1.239
69876W        W31187  31.409  10.358  11.927
69877W        W31188  42.378  17.091   2.303
69878W        W31189  27.658  11.258  12.936
69879W        W31190  44.986   6.809  14.870
69880W        W31191  41.788  27.017  14.997
69881W        W31192  29.095   4.758   3.650
69882W        W31193  30.456   3.294   0.435
69883W        W31194  10.269  18.146  12.942
69884W        W31195  26.075  11.299   2.313
69885W        W31196  36.080  39.051  12.883
69886W        W31197  11.749  14.627  11.587
69887W        W31198  34.513  32.419  14.277
69888W        W31199  27.116  12.811   2.830
69889W        W31200  41.402  26.121  12.532
69890W        W31201   9.861  19.217  11.523
69891W        W31202  33.504   0.301  11.553
69892W        W31203  14.605   6.211   5.093
69893W        W31204  22.538  18.634  14.999
69894W        W31205  33.557  25.508  12.941
69895W        W31206   8.321  41.404  14.317
69896W        W31207  37.849   2.264   1.791
69897W        W31208  30.658   8.780   0.881
69898W        W31209  24.557  15.716  10.612
69899W        W31210  38.887  18.217   0.777
69900W        W31211  33.542  20.065  10.133
69901W        W31212   3.457  30.945  14.388
69902W        W31213   3.227   9.308  10.474
69903W        W31214  30.972  20.544  11.887
69904W        W31215  24.154   0.781   3.649
69905W        W31216   8.341   4.849  12.978
69906W        W31217   5.713   5.763  14.344
69907W        W31218  24.111  18.139   1.883
69908W        W31219  28.094  19.204  12.989
69909W        W31220  12.699  28.476   2.725
69910W        W31221  42.397  12.692   3.362
69911W        W31222  40.950  39.515   3.870
69912W        W31223  42.503   2.966  12.993
69913W        W31224  21.222   0.384   5.246
69914W        W31225  28.115  29.963  12.477
69915W        W31226  22.040  12.661   4.674
69916W        W31227  41.439  34.592   2.256
69917W        W31228  29.934  15.764   1.339
69918W        W31229   0.787  36.356  14.361
69919W        W31230   3.248  36.384  10.585
69920W        W31231  23.720  44.835  11.584
69921W        W31232   8.843  36.855  12.365
69922W        W31233  34.563  19.674  10.632
69923W        W31234   7.840  27.512   0.360
69924W        W31235  12.179   8.405  12.564
69925W        W31236   1.255  43.960   0.793
69926W        W31237  36.983   5.711  14.953
69927W        W31238  20.622  41.442   2.305
69928W        W31239  35.900   6.690  13.466
69929W        W31240  18.244   5.801  11.078
69930W        W31241  21.175   3.730  12.873
69931W        W31242  40.529   1.438  11.031
69932W        W31243  13.690  11.322   4.276
69933W        W31244  11.730   4.841   0.354
69934W        W31245  10.711  24.582   2.220
69935W        W31246  39.844  22.230   2.406
69936W        W31247   1.380  26.022   0.327
69937W        W31248  19.208   5.743  10.997
69938W        W31249  22.611  21.564   1.760
69939W        W31250  36.459  39.920   3.346
69940W        W31251  31.641  33.041   0.951
69941W        W31252  22.623  20.552  14.356
69942W        W31253  22.681   5.209  11.122
69943W        W31254  20.660  22.599   1.327
69944W        W31255   1.388  26.684  11.564
69945W        W31256  35.015  33.062  13.992
69946W        W31257  38.463   6.369  14.876
69947W        W31258  22.218  31.011   1.330
69948W        W31259  30.622  18.595   2.889
69949W        W31260  40.976  33.007  14.851
69950W        W31261   3.711  20.167  13.875
69951W        W31262   6.694  26.991  11.391
69952W        W31263  44.935  14.332   4.210
69953W        W31264  29.017  23.080   1.931
69954W        W31265  21.553  10.721  12.452
69955W        W31266  40.927  28.935  10.888
69956W        W31267   5.303  42.861  13.477
69957W        W31268   8.292  26.541  13.868
69958W        W31269  32.441  34.863  13.433
69959W        W31270  19.188  31.017  11.417
69960W        W31271  20.091   6.691  13.427
69961W        W31272  44.940  13.220  14.474
69962W        W31273   9.201  15.174   2.676
69963W        W31274  44.884  32.635   2.362
69964W        W31275   4.836  20.195  12.417
69965W        W31276  28.991  24.683  10.899
69966W        W31277  18.166  32.545   3.719
69967W        W31278   4.279  34.507  11.436
69968W        W31279  20.271  26.145   1.263
69969W        W31280   1.906  21.628  12.497
69970W        W31281  31.438  10.161  10.637
69971W        W31282  26.034  26.089  13.541
69972W        W31283   0.773  39.501  12.914
69973W        W31284  38.465   4.884   4.236
69974W        W31285  33.517  36.431   3.357
69975W        W31286  12.760   1.478   1.380
69976W        W31287   5.309  26.631   4.796
69977W        W31288  34.422  16.252  14.936
69978W        W31289   7.298  24.640  14.495
69979W        W31290   8.309   4.929   1.417
69980W        W31291  41.866  16.287   2.211
69981W        W31292  31.001  16.571   0.823
69982W        W31293  41.802  32.900   2.841
69983W        W31294  24.229  37.439   2.883
69984W        W31295   9.661  15.824   2.856
69985W        W31296  14.717  42.809   4.344
69986W        W31297  12.648  15.792   2.790
69987W        W31298  27.177  22.061   1.887
69988W        W31299  43.495  36.546  10.524
69989W        W31300  18.573  19.757   4.711
69990W        W31301   0.307  23.126   1.746
69991W        W31302   1.320   8.318  13.857
69992W        W31303   4.867  31.618  14.466
69993W        W31304  20.527   1.828   4.318
69994W        W31305  16.102   9.751   1.248
69995W        W31306  10.225  40.353   3.745
69996W        W31307  15.754  35.566   0.958
69997W        W31308   9.309   9.674  14.515
69998W        W31309  11.853  35.948  11.491
69999W        W31310   3.266  11.278   2.345
70000W        W31311  38.954  42.007  11.429
70001W        W31312  10.190   0.935  10.470
70002W        W31313  13.633  29.454   4.764
70003W        W31314  25.556  44.904  13.960
70004W        W31315  26.973  33.101  10.911
70005W        W31316  42.014   7.294  14.307
70006W        W31317  11.838  24.202   3.697
70007W        W31318  40.492  11.300  11.903
70008W        W31319   8.202  36.439  11.997
70009W        W31320  42.828   1.897  11.509
70010W        W31321  26.192  32.518  13.886
70011W        W31322  14.738   3.857  13.829
70012W        W31323  15.114   0.918  12.051
70013W        W31324  38.505  31.526   1.794
70014W        W31325   1.846  14.713  13.466
70015W        W31326  20.599  32.426  13.983
70016W        W31327  36.908  40.348   0.772
70017W        W31328   4.415  37.365  14.793
70018W        W31329  24.618  12.157   4.665
70019W        W31330  33.523   9.707  10.590
70020W        W31331  42.368  23.526   4.682
70021W        W31332   4.703  43.332   4.278
70022W        W31333  20.050   6.414  11.432
70023W        W31334  30.981  11.754  14.286
70024W        W31335  38.043   7.899   3.224
70025W        W31336  12.839  26.188   0.441
70026W        W31337  17.629  17.130  10.585
70027W        W31338  37.995  44.311  10.888
70028W        W31339  40.962  37.877  11.107
70029W        W31340  38.919  17.225   0.872
70030W        W31341   9.849   4.779   2.360
70031W        W31342   7.824  11.719   3.868
70032W        W31343  33.060  11.165  13.039
70033W        W31344  22.157  26.208   0.347
70034W        W31345  23.606  22.011   1.734
70035W        W31346  22.677  33.915   1.933
70036W        W31347  11.723   1.968  12.421
70037W        W31348  35.957  10.377   0.345
70038W        W31349  17.247  28.479   3.787
70039W        W31350  38.564  17.306  13.837
70040W        W31351   0.359  33.557   4.806
70041W        W31352  21.648  10.347   2.300
70042W        W31353   9.238  11.672  13.851
70043W        W31354  23.095  25.177  10.411
70044W        W31355  40.825  12.154   0.810
70045W        W31356  15.595  43.367  12.862
70046W        W31357  10.832  44.867  13.513
70047W        W31358   6.823   4.258  14.962
70048W        W31359   4.316   3.732  12.492
70049W        W31360  38.067  13.741   0.916
70050W        W31361   4.789  30.514  13.870
70051W        W31362   1.448   5.393   4.230
70052W        W31363  38.872   6.845  12.882
70053W        W31364  39.057   1.916  13.524
70054W        W31365  19.541   7.890   2.721
70055W        W31366  10.169  13.808   4.606
70056W        W31367   6.336  31.956   4.324
70057W        W31368  12.694  37.081  10.914
70058W        W31369  33.955  44.444   4.679
70059W        W31370  23.539  40.433  12.946
70060W        W31371   8.782   7.398   4.819
70061W        W31372  23.047  42.294   3.662
70062W        W31373   6.272  29.599   0.279
70063W        W31374  21.576  18.725   9.520
70064W        W31375  37.926  26.607   3.779
70065W        W31376  26.074   6.764  11.940
70066W        W31377  32.894  35.920   2.716
70067W        W31378  44.980  19.548  14.378
70068W        W31379  16.750  36.084   3.237
70069W        W31380   8.404  20.187  12.019
70070W        W31381  35.582  30.081   2.881
70071W        W31382   9.189  22.501   1.224
70072W        W31383  36.487  42.902   4.600
70073W        W31384  24.147  37.441   3.212
70074W        W31385  19.071  12.163   0.269
70075W        W31386  33.018   8.775  10.409
70076W        W31387  30.631  33.487   3.157
70077W        W31388  20.754   0.371  11.078
70078W        W31389  11.780  15.616   3.850
70079W        W31390  25.531  25.684  12.497
70080W        W31391   8.320  39.397   2.672
70081W        W31392  36.458   5.210  11.497
70082W        W31393   7.400  30.138   2.899
70083W        W31394  16.268  20.598   4.119
70084W        W31395   7.731  12.753   4.288
70085W        W31396  31.954  32.121  10.582
70086W        W31397   3.419  15.593   0.959
70087W        W31398   3.302  21.120   2.785
70088W        W31399   9.305  19.088   5.758
70089W        W31400  29.042  39.858  12.868
70090W        W31401  44.505   4.429  10.567
70091W        W31402  38.004   1.946   2.744
70092W        W31403  43.505  15.582  13.004
70093W        W31404   4.716  38.402  10.562
70094W        W31405  19.693  44.891  11.012
70095W        W31406   2.268  37.066   0.300
70096W        W31407  28.672  37.458  11.593
70097W        W31408  37.885   5.204  10.971
70098W        W31409  37.847  19.095  10.407
70099W        W31410   6.689  14.785   4.831
70100W        W31411  30.990  11.726  12.845
70101W        W31412   0.947   3.436   0.772
70102W        W31413  11.830  22.050   1.745
70103W        W31414   7.368  11.632   4.718
70104W        W31415  42.499   7.295  13.956
70105W        W31416  15.793  33.884   1.762
70106W        W31417  30.145   1.779   0.826
70107W        W31418  43.466  42.886   1.383
70108W        W31419   5.426  44.878  12.082
70109W        W31420  29.604  21.540  14.388
70110W        W31421  26.602  10.664   0.296
70111W        W31422  29.919  29.606   4.670
70112W        W31423  44.430  41.404   2.786
70113W        W31424  16.733  13.340   3.246
70114W        W31425  26.956   6.312   2.722
70115W        W31426  41.948   5.246  11.988
70116W        W31427  11.331  37.407  14.339
70117W        W31428  33.410  38.038  11.535
70118W        W31429  27.053   8.838  13.897
70119W        W31430  11.269   5.717   2.752
70120W        W31431  15.253  34.935   0.780
70121W        W31432   8.385   1.423  12.404
70122W        W31433   3.389  12.299   0.391
70123W        W31434  32.985  25.505   4.814
70124W        W31435  22.120  35.509  10.501
70125W        W31436  38.918   6.267   1.220
70126W        W31437  29.041   9.694  12.468
70127W        W31438   4.358   2.333   1.276
70128W        W31439   0.904  12.228  10.466
70129W        W31440  41.037  26.463  12.848
70130W        W31441  25.964  17.703  14.772
70131W        W31442  33.487   2.443   2.398
70132W        W31443  25.219  28.461  13.957
70133W        W31444  14.604  24.991   2.269
70134W        W31445   7.358  30.965  13.023
70135W        W31446  37.886   1.281  13.942
70136W        W31447  37.570  32.454   2.323
70137W        W31448  29.598  17.135  14.838
70138W        W31449  14.122   8.168   0.309
70139W        W31450  31.402  22.574   0.462
70140W        W31451   3.955   5.919  12.085
70141W        W31452   2.941   5.317   0.817
70142W        W31453  26.532   2.400  11.008
70143W        W31454  30.550   4.936   1.229
70144W        W31455  39.517  29.170   1.324
70145W        W31456   6.893  40.439   1.921
70146W        W31457  20.704  30.977   1.886
70147W        W31458  23.503  40.327   9.938
70148W        W31459  44.904  21.534  11.451
70149W        W31460  26.058  13.722   3.849
70150W        W31461  39.441  35.057   4.617
70151W        W31462  29.127  17.077  11.093
70152W        W31463  39.826   5.193  10.887
70153W        W31464  32.560  15.588   1.817
70154W        W31465  44.860  13.765   4.204
70155W        W31466  19.706   1.381  13.948
70156W        W31467  17.579  44.295  14.771
70157W        W31468  38.952   8.184   0.449
70158W        W31469   8.736   4.433  10.918
70159W        W31470  10.792  13.685   1.304
70160W        W31471  13.696  44.924   0.870
70161W        W31472   6.842   9.249   3.253
70162W        W31473  12.225  18.106   2.323
70163W        W31474  28.468  11.790  13.403
70164W        W31475  34.459  34.450   1.376
70165W        W31476  30.071   0.379   2.368
70166W        W31477  17.701  32.887  14.780
70167W        W31478  15.294  23.623   3.310
70168W        W31479  13.758  39.003   4.260
70169W        W31480  41.346  22.529   3.652
70170W        W31481  17.578  44.980   3.719
70171W        W31482  43.906  16.112  11.899
70172W        W31483  20.161  17.615  10.443
70173W        W31484  40.985   0.323   3.273
70174W        W31485   9.698  11.721  13.474
70175W        W31486  18.063  30.584  13.397
70176W        W31487  25.187   9.272  12.018
70177W        W31488  35.948   2.927  12.541
70178W        W31489  43.374  17.708  13.889
70179W        W31490   6.772  37.427   1.919
70180W        W31491   5.355  41.527   4.172
70181W        W31492  10.220  14.153  11.062
70182W        W31493  21.096   7.735   4.189
70183W        W31494  20.226  35.982   4.734
70184W        W31495  21.685   4.782  11.003
70185W        W31496   9.185   5.833  12.458
70186W        W31497  14.203  29.467  14.792
70187W        W31498  11.652  14.295  12.924
70188W        W31499  42.935  25.665  13.022
70189W        W31500  39.984  19.651  14.830
70190W        W31501  28.635  16.131  13.423
70191W        W31502  35.923  24.986   4.218
70192W        W31503  40.987  20.240   2.342
70193W        W31504  31.403  10.637  12.883
70194W        W31505  39.844  16.788  12.389
70195W        W31506  37.900  39.061  14.401
70196W        W31507  34.073  25.636   4.191
70197W        W31508   2.366  17.116  14.381
70198W        W31509  41.448  38.943   0.363
70199W        W31510  32.938  21.655   1.839
70200W        W31511  41.349  13.167   0.242
70201W        W31512  31.905  11.854   2.267
70202W        W31513  33.524  20.646  13.538
70203W        W31514  27.680  42.805  10.551
70204W        W31515  42.282  30.610  13.937
70205W        W31516  21.569  10.671   2.247
70206W        W31517  22.733  13.115  13.012
70207W        W31518  21.682  36.384  14.972
70208W        W31519  12.323  19.553   0.768
70209W        W31520  44.933  11.752   1.731
70210W        W31521  41.327  39.357  12.924
70211W        W31522  44.923  12.207   2.361
70212W        W31523  33.077  23.077  10.444
70213W        W31524  34.949  42.873   0.307
70214W        W31525  10.696  39.846  12.480
70215W        W31526   2.869  41.352   4.649
70216W        W31527  31.948   2.275  11.483
70217W        W31528  20.617  21.221   5.259
70218W        W31529   6.397  39.018   0.917
70219W        W31530   7.726  28.484   1.921
70220W        W31531  25.492  10.275  10.496
70221W        W31532   3.945  38.043   4.693
70222W        W31533  19.549  28.465   3.184
70223W        W31534  23.193  20.709   2.272
70224W        W31535  29.459  32.484   1.276
70225W        W31536  18.263  14.161  12.402
70226W        W31537  23.134  36.394  13.362
70227W        W31538  25.610  21.582  14.483
70228W        W31539  28.094  16.763   2.230
70229W        W31540  29.427  14.216  11.495
70230W        W31541  11.812   8.691   3.237
70231W        W31542  22.165  18.280   1.238
70232W        W31543  44.783  16.764   3.363
70233W        W31544   1.480  27.086   2.229
70234W        W31545  35.064  31.152   0.833
70235W        W31546  33.107  36.008   2.361
70236W        W31547  25.590  38.914   1.385
70237W        W31548  20.648  32.000   0.252
70238W        W31549   2.230   3.358  13.396
70239W        W31550   0.268   7.871   1.296
70240W        W31551  38.534  31.417  12.422
70241W        W31552   7.866  15.741   9.585
70242W        W31553   3.296  25.588  11.550
70243W        W31554   6.292  31.133   1.705
70244W        W31555  16.568  35.064  11.514
70245W        W31556   7.375  44.928   3.708
70246W        W31557  10.703  34.072   4.127
70247W        W31558  13.107  26.491   2.241
70248W        W31559  42.990   6.355  13.026
70249W        W31560  27.999  37.504   1.333
70250W        W31561  36.358   5.763   1.438
70251W        W31562  20.528  43.415   3.153
70252W        W31563  17.108  22.105   4.817
70253W        W31564  16.656   6.200  13.488
70254W        W31565  19.284  28.474  13.313
70255W        W31566  43.364  20.529   0.269
70256W        W31567  25.604  25.077   0.353
70257W        W31568  26.073  34.876   0.766
70258W        W31569  27.997  17.797   0.764
70259W        W31570  20.188   5.194  10.411
70260W        W31571  39.398  18.282   3.248
70261W        W31572  38.423  43.422   3.635
70262W        W31573  32.482   8.657   2.321
70263W        W31574  28.624  40.837   3.310
70264W        W31575  39.325  11.339  13.502
70265W        W31576  43.403  25.563  11.496
70266W        W31577  38.848   1.733   0.264
70267W        W31578  14.796  22.688   5.638
70268W        W31579  20.624  20.647   5.724
70269W        W31580   6.342   5.304   0.332
70270W        W31581  21.124  37.924  14.891
70271W        W31582  17.158  33.077  12.508
70272W        W31583  10.146   7.832   5.246
70273W        W31584  41.420  38.348   4.602
70274W        W31585  42.933  19.039   0.880
70275W        W31586  40.408  15.675   1.237
70276W        W31587  30.907  24.623  14.311
70277W        W31588  24.542   8.387  12.884
70278W        W31589  40.870  25.177  14.761
70279W        W31590  33.421   7.286  14.487
70280W        W31591  38.923  42.787  10.474
70281W        W31592  32.012   8.225   4.820
70282W        W31593  35.592  22.053   2.234
70283W        W31594   7.328  18.640  11.533
70284W        W31595  28.578   2.372   2.217
70285W        W31596  22.567  31.525  12.563
70286W        W31597  28.589  31.421   2.398
70287W        W31598  22.153  36.473  13.936
70288W        W31599  11.770  31.929   2.378
70289W        W31600  26.140  17.565   4.260
70290W        W31601  18.270  23.531   0.331
70291W        W31602  39.879   0.374   0.258
70292W        W31603  23.154  36.095   0.795
70293W        W31604  32.442  30.127  11.985
70294W        W31605   7.260  37.514  13.443
70295W        W31606  10.360  14.168  14.347
70296W        W31607   0.935  32.120   0.478
70297W        W31608  28.939  21.242  13.943
70298W        W31609  21.097  27.978   5.145
70299W        W31610  11.722   4.708  10.985
70300W        W31611  32.958  40.884  11.449
70301W        W31612  21.174  29.658   3.220
70302W        W31613  25.129   9.660  13.850
70303W        W31614  22.013  10.664   2.836
70304W        W31615  20.233  42.435   4.188
70305W        W31616  25.637  38.552  14.819
70306W        W31617  24.065  29.057  14.770
70307W        W31618   0.299   3.377  11.409
70308W        W31619  12.677  42.309   1.378
70309W        W31620  31.543  32.586  14.789
70310W        W31621  17.247  40.811   3.859
70311W        W31622  36.948  35.076  14.297
70312W        W31623   7.316  44.424   1.718
70313W        W31624  17.283  41.440  10.974
70314W        W31625  12.204  41.821   4.822
70315W        W31626  23.033   5.363   2.694
70316W        W31627  17.599   9.273   1.864
70317W        W31628  35.052  31.968  13.392
70318W        W31629  23.704  41.976  11.947
70319W        W31630  29.594  39.917  11.865
70320W        W31631  36.569  28.961   2.260
70321W        W31632  26.585  33.026  14.909
70322W        W31633  12.179  42.985   3.854
70323W        W31634  19.699  33.518   2.186
70324W        W31635  39.536  10.265  12.084
70325W        W31636   8.170  42.315  12.486
70326W        W31637  12.268  37.970   4.663
70327W        W31638  32.592  27.188  11.511
70328W        W31639  38.491  31.474  13.921
70329W        W31640   3.718  24.989   1.764
70330W        W31641  32.090  29.562  11.489
70331W        W31642  36.524  32.120   5.314
70332W        W31643   1.871  11.662   0.447
70333W        W31644   9.310  12.327  10.546
70334W        W31645  34.899  32.474  12.888
70335W        W31646  30.022  33.491   0.738
70336W        W31647  15.810  27.612  10.489
70337W        W31648  20.128  42.895  12.986
70338W        W31649  40.805   9.742   3.867
70339W        W31650  32.027  28.585   0.444
70340W        W31651  35.886   9.759   0.742
70341W        W31652  15.683  33.592   2.779
70342W        W31653  22.723  17.084   5.127
70343W        W31654  14.638  13.692  11.376
70344W        W31655  37.855  13.120  13.988
70345W        W31656   1.343   2.424  13.328
70346W        W31657  18.062  16.134  11.988
70347W        W31658  28.547  34.499  14.866
70348W        W31659  27.060  26.087   1.380
70349W        W31660  34.074  32.576  13.546
70350W        W31661  20.593  34.414  13.435
70351W        W31662   4.704  39.826   1.763
70352W        W31663  41.443  10.314  12.964
70353W        W31664  27.162  29.535  12.855
70354W        W31665   3.450  15.115   3.736
70355W        W31666  41.798  37.895   0.272
70356W        W31667  32.078  32.117   1.740
70357W        W31668  20.169  21.120   1.794
70358W        W31669   4.210  12.735   2.370
70359W        W31670  30.466  10.275   1.341
70360W        W31671  31.074  38.833  13.461
70361W        W31672  24.712  41.809   0.357
70362W        W31673  10.740  16.113  13.480
70363W        W31674  17.295  15.749   2.685
70364W        W31675  23.512  15.095   0.375
70365W        W31676  26.206  39.334   1.780
70366W        W31677  34.437  16.110   4.824
70367W        W31678  17.581  36.001   3.230
70368W        W31679  11.145  36.512  11.893
70369W        W31680   3.398  39.328  12.944
70370W        W31681   0.470  23.712  14.860
70371W        W31682  29.087   9.764   2.851
70372W        W31683  41.522  12.160   2.203
70373W        W31684   4.722  22.012   0.827
70374W        W31685  38.004  18.767   1.799
70375W        W31686  22.032  14.316  12.451
70376W        W31687  28.492  41.851  12.068
70377W        W31688   9.295  42.021   3.698
70378W        W31689  36.074  14.603   3.814
70379W        W31690  14.802  13.779  12.846
70380W        W31691  21.138  35.530   2.666
70381W        W31692   6.388  25.682  11.549
70382W        W31693  13.217   5.366  12.008
70383W        W31694  29.598  10.195  12.464
70384W        W31695   6.734   5.801  14.413
70385W        W31696  18.590  24.487   0.359
70386W        W31697  35.089   3.284   3.242
70387W        W31698  10.661  31.096  11.041
70388W        W31699   6.412  43.291  13.315
70389W        W31700  21.085  41.476  11.541
70390W        W31701  28.568  17.640   2.272
70391W        W31702  40.476  44.999  14.817
70392W        W31703  18.069  24.100   3.730
70393W        W31704   8.895  17.178   3.326
70394W        W31705  22.655  35.864   3.724
70395W        W31706  44.755  14.688  12.885
70396W        W31707  22.706  38.867  14.469
70397W        W31708  28.014   6.358  13.507
70398W        W31709  21.734   7.724  12.935
70399W        W31710  12.798  17.279   1.426
70400W        W31711  10.319   2.227   4.752
70401W        W31712  23.077  38.400  14.863
70402W        W31713  35.386  19.727   0.831
70403W        W31714  27.600   2.938  11.496
70404W        W31715  26.699   6.397   5.791
70405W        W31716   5.254   3.393   0.328
70406W        W31717  16.237   0.332  11.498
70407W        W31718  26.166   3.865   2.821
70408W        W31719   4.406  33.999   3.181
70409W        W31720  32.530  13.705   0.255
70410W        W31721  15.202   5.277  14.924
70411W        W31722  18.281  26.032  13.435
70412W        W31723  11.788  12.126  11.459
70413W        W31724  25.112  19.570   3.316
70414W        W31725   7.830  44.433  12.457
70415W        W31726  33.453  21.531  12.060
70416W        W31727  21.729   3.828   0.859
70417W        W31728  41.510  26.457  11.037
70418W        W31729  10.706  16.693   2.211
70419W        W31730  15.625  18.280  10.962
70420W        W31731   4.728  13.708  14.933
70421W        W31732  36.491  34.887  12.903
70422W        W31733  11.808   2.466   4.229
70423W        W31734  15.717  32.623   4.614
70424W        W31735  14.289  43.277   1.921
70425W        W31736   1.875  28.037   2.799
70426W        W31737  21.542  14.684   2.305
70427W        W31738  26.022  32.099   1.694
70428W        W31739  24.631  30.468   1.801
70429W        W31740  16.267  38.932  12.000
70430W        W31741   4.360  27.186  13.487
70431W        W31742  25.074   2.397  14.763
70432W        W31743  35.868   9.368   0.746
70433W        W31744  40.522  35.905  11.523
70434W        W31745  24.091  44.502   2.800
70435W        W31746  10.865  38.365   3.300
70436W        W31747  15.247  41.474  14.935
70437W        W31748  30.150  18.658  13.412
70438W        W31749  27.483   8.282   4.311
70439W        W31750  27.099  18.190   1.408
70440W        W31751   7.801  21.127   1.855
70441W        W31752  11.642   8.712  10.140
70442W        W31753  30.964  43.877  11.576
70443W        W31754   1.746   9.861   1.442
70444W        W31755   8.845  20.611  14.415
70445W        W31756  21.580   5.310  11.992
70446W        W31757  19.607  41.516  11.421
70447W        W31758  18.690   0.294  12.369
70448W        W31759  25.033   5.854  13.036
70449W        W31760  18.065  32.405   4.128
70450W        W31761  24.581  34.579   4.821
70451W        W31762   6.338   5.871   4.693
70452W        W31763  42.000  10.257   2.190
70453W        W31764  33.067  13.264   1.929
70454W        W31765  15.683  33.549   4.202
70455W        W31766  21.531  18.122  11.427
70456W        W31767  12.221   1.819  11.412
70457W        W31768  26.479  19.193   0.411
70458W        W31769  39.878  28.177  10.958
70459W        W31770  14.606  34.566   0.406
70460W        W31771   7.274  23.006   0.914
70461W        W31772  36.483  37.378   2.242
70462W        W31773  10.731  38.988  12.883
70463W        W31774  30.560  18.744   5.190
70464W        W31775  39.503  17.204   0.889
70465W        W31776  17.141  32.990   2.791
70466W        W31777  42.392  14.652  14.779
70467W        W31778  18.279   2.737   4.779
70468W        W31779  12.622  33.558  13.372
70469W        W31780  36.432  31.001  13.374
70470W        W31781  26.575   5.874  14.021
70471W        W31782   5.370  13.230   3.828
70472W        W31783  29.081  10.377   4.603
70473W        W31784  37.859   0.342  11.521
70474W        W31785  43.473  35.402  14.985
70475W        W31786  13.613  10.696  10.930
70476W        W31787   9.706   3.458   1.243
70477W        W31788  40.861   5.254   2.738
70478W        W31789  31.586  19.687  13.833
70479W        W31790  34.474   3.892   3.197
70480W        W31791  42.321  41.412   4.268
70481W        W31792  37.411   7.183   3.672
70482W        W31793  13.219  44.964   0.391
70483W        W31794  10.316  13.740  14.421
70484W        W31795  25.611  37.911   3.795
70485W        W31796  41.811   5.819   3.163
70486W        W31797  15.259  21.090   2.849
70487W        W31798  29.462  17.743   1.931
70488W        W31799  34.416  43.437  13.935
70489W        W31800  40.862   7.887   3.736
70490W        W31801   9.771  18.699  12.970
70491W        W31802   9.740  43.948  12.565
70492W        W31803  39.447   7.281   3.315
70493W        W31804  26.565  13.651  14.286
70494W        W31805  41.985  37.982  12.455
70495W        W31806  37.935  41.892   4.598
70496W        W31807  25.994  41.403  10.965
70497W        W31808  42.444  27.083  14.920
70498W        W31809  30.115  33.880  10.572
70499W        W31810  35.045  20.756  11.470
70500W        W31811  33.002   3.816   3.862
70501W        W31812  39.519  39.953   1.779
70502W        W31813  10.156  26.050   3.848
70503W        W31814   3.902  11.367  12.090
70504W        W31815  37.365  35.573   4.321
70505W        W31816  16.682   5.886  11.582
70506W        W31817  12.679  31.978  14.356
70507W        W31818  44.759  37.984  14.926
70508W        W31819  18.646  23.024  14.291
70509W        W31820  38.879   8.788  13.801
70510W        W31821  23.058  17.724  14.770
70511W        W31822   0.321  12.750  14.382
70512W        W31823  38.448  33.907  12.409
70513W        W31824  42.856   6.864   3.645
70514W        W31825  28.616  42.353  14.305
70515W        W31826  11.770  25.645   2.244
70516W        W31827  30.448  24.179  10.419
70517W        W31828  44.829  27.156  11.490
70518W        W31829  32.980  12.253   2.280
70519W        W31830   4.438   5.779  11.441
70520W        W31831   8.314   9.205   3.347
70521W        W31832  32.981  42.340   3.285
70522W        W31833  36.092  15.691   1.723
70523W        W31834   9.646  39.011   1.719
70524W        W31835   6.334   1.774   1.919
70525W        W31836  14.825   0.896   1.391
70526W        W31837   5.712  36.938  14.029
70527W        W31838  17.568  43.468  12.359
70528W        W31839  29.517  24.652  14.996
70529W        W31840  10.639  41.356   2.387
70530W        W31841  26.584  19.628  11.078
70531W        W31842  13.331   0.434   1.215
70532W        W31843  26.556  40.868   1.715
70533W        W31844  41.018  33.003   0.300
70534W        W31845  16.744  32.895   3.829
70535W        W31846  13.214  35.472   1.276
70536W        W31847  32.990  31.582  11.968
70537W        W31848  29.054  19.167  14.329
70538W        W31849  43.894  38.056   4.810
70539W        W31850  26.092  11.732  13.398
70540W        W31851  37.577  33.436   2.758
70541W        W31852  10.297  17.576   3.849
70542W        W31853  37.039  23.589  14.821
70543W        W31854   6.870   0.464   2.756
70544W        W31855   8.817  31.989  14.765
70545W        W31856   8.358  37.919   0.423
70546W        W31857  26.128  15.312  12.995
70547W        W31858   9.259  28.044  12.071
70548W        W31859  26.130  14.784   0.331
70549W        W31860  27.583  42.283   0.903
70550W        W31861  43.360  32.579  10.426
70551W        W31862  18.621  11.791  13.519
70552W        W31863  39.972  22.643  10.507
70553W        W31864  12.845  17.775  13.825
70554W        W31865  28.117   0.425   3.861
70555W        W31866  23.017  37.983   2.232
70556W        W31867  25.978  44.372  12.882
70557W        W31868   4.322  22.728  11.909
70558W        W31869  12.756  35.447   0.852
70559W        W31870   7.759  30.559   1.704
70560W        W31871   4.795  29.624  13.526
70561W        W31872   3.757  30.480   2.888
70562W        W31873  27.086  42.396   3.343
70563W        W31874   9.643  27.082  13.332
70564W        W31875  36.058  33.987   0.925
70565W        W31876  23.017  40.329   5.226
70566W        W31877  19.560  23.987  13.464
70567W        W31878   7.826  36.069  13.064
70568W        W31879  14.595  10.289  13.976
70569W        W31880  25.523  27.151   1.903
70570W        W31881   9.771  14.751   1.242
70571W        W31882  44.354  31.474   2.352
70572W        W31883  30.021  10.743   0.423
70573W        W31884   0.927  18.679   0.352
70574W        W31885  27.082  20.158   0.305
70575W        W31886   7.840   7.708   0.786
70576W        W31887  26.022  16.644  10.995
70577W        W31888   2.406  29.424   2.715
70578W        W31889  10.696   1.791  11.399
70579W        W31890  36.355  32.620  12.571
70580W        W31891  37.867  26.547  11.482
70581W        W31892  44.008   6.406  13.864
70582W        W31893   4.702  25.536   5.298
70583W        W31894  38.459  19.278  13.530
70584W        W31895  27.141  33.559   0.287
70585W        W31896   7.882   5.763  12.370
70586W        W31897  25.698  44.948  12.538
70587W        W31898  42.892  28.555   0.925
70588W        W31899  18.207   0.805   3.257
70589W        W31900  40.449   1.390   0.819
70590W        W31901  35.933  20.680   3.725
70591W        W31902   5.197  15.229  13.523
70592W        W31903  23.989  28.447   1.805
70593W        W31904  35.871   0.303  11.374
70594W        W31905  14.770  18.288   1.850
70595W        W31906   7.197   9.653   0.384
70596W        W31907  16.807  12.837  14.817
70597W        W31908  35.994   6.904   4.299
70598W        W31909  17.557  17.704  14.968
70599W        W31910   2.831  39.985   4.687
70600W        W31911  19.175  17.666  11.478
70601W        W31912  23.995  35.364   3.277
70602W        W31913  29.455   8.669   5.250
70603W        W31914  22.237  21.262   3.831
70604W        W31915  35.030  17.746  14.966
70605W        W31916  43.315   2.322  13.910
70606W        W31917   4.854  16.711   0.904
70607W        W31918  43.361  13.728  11.454
70608W        W31919  34.879   7.195   1.329
70609W        W31920  40.436  29.049   0.320
70610W        W31921  26.078  31.928  13.855
70611W        W31922  28.446  29.059  11.922
70612W        W31923  39.929   7.282  10.890
70613W        W31924  14.735  16.679  13.474
70614W        W31925  31.938  28.581  12.973
70615W        W31926  39.959  23.725   3.640
70616W        W31927  35.988   0.754  13.441
70617W        W31928  38.892  40.303  12.004
70618W        W31929   6.329  21.082   3.258
70619W        W31930  32.597   4.726  11.973
70620W        W31931  10.296  23.689   0.821
70621W        W31932  13.213  41.531   2.379
70622W        W31933   8.676   6.335   4.782
70623W        W31934  30.631  34.604  11.543
70624W        W31935  25.003  20.105   3.186
70625W        W31936   7.762  40.023   4.691
70626W        W31937  19.557  37.063  13.802
70627W        W31938  37.361  28.443   0.289
70628W        W31939   4.348  44.503   4.205
70629W        W31940   1.320  35.941  13.949
70630W        W31941  25.473   3.296  14.789
70631W        W31942  26.095  11.299  13.000
70632W        W31943  18.723   4.282   1.294
70633W        W31944  20.243  20.029  14.325
70634W        W31945   3.309  19.234   1.727
70635W        W31946  38.936  25.057   2.691
70636W        W31947  40.503  22.054   0.820
70637W        W31948  14.830   8.843  14.850
70638W        W31949  18.545  13.211   2.896
70639W        W31950  12.792  22.119  14.931
70640W        W31951  27.130  14.166   5.257
70641W        W31952   9.168  30.909   4.244
70642W        W31953  44.462  44.366  12.514
70643W        W31954  27.633  21.138  11.441
70644W        W31955   8.228   8.214   4.705
70645W        W31956  27.534   7.317   2.886
70646W        W31957  25.068  28.460  11.411
70647W        W31958  38.415   6.702  13.325
70648W        W31959  25.174  24.149   1.816
70649W        W31960  31.999  32.944  10.889
70650W        W31961   8.881  16.098   4.117
70651W        W31962  22.736  12.721  14.971
70652W        W31963   8.884  34.369   3.786
70653W        W31964  26.152   1.847  14.969
70654W        W31965  27.495  42.299   1.872
70655W        W31966  42.908  29.611   2.765
70656W        W31967   0.971  11.762   5.115
70657W        W31968  40.974  18.222  11.019
70658W        W31969   1.872  40.541  13.348
70659W        W31970  13.247  19.726   0.758
70660W        W31971  17.133  30.980   2.763
70661W        W31972  25.591  28.995   2.671
70662W        W31973   1.344  23.993   0.328
70663W        W31974  30.657   4.933  13.314
70664W        W31975   6.851  27.990  11.494
70665W        W31976   1.826  44.463   3.863
70666W        W31977  10.216  26.586   3.162
70667W        W31978  31.432  39.912  12.974
70668W        W31979   1.798  43.002  14.326
70669W        W31980  40.945  44.383   0.442
70670W        W31981   4.821  10.305   2.243
70671W        W31982   3.941  30.641  12.442
70672W        W31983   8.206  16.176   1.798
70673W        W31984  29.083  18.185  11.104
70674W        W31985  13.268  42.517   0.245
70675W        W31986   3.851   7.714  10.562
70676W        W31987  40.030  23.607  11.541
70677W        W31988  23.623  16.804  12.887
70678W        W31989   0.889  39.842   0.872
70679W        W31990  33.965  26.092  11.058
70680W        W31991  26.622  21.098   3.848
70681W        W31992  34.911  15.243  14.995
70682W        W31993   0.281  39.375   2.790
70683W        W31994   6.732  17.569   3.852
70684W        W31995   5.433  30.610   4.138
70685W        W31996  40.971  20.172  14.842
70686W        W31997  16.114  15.714   2.886
70687W        W31998  23.150  35.986  13.861
70688W        W31999  34.945  16.295   3.182
70689W        W32000  36.080  40.913  11.025
70690W        W32001  13.294  24.229   0.286
70691W        W32002  28.010  30.935   4.796
70692W        W32003  27.047  35.973  12.032
70693W        W32004  27.654  18.753   2.880
70694W        W32005   5.222  38.068  12.520
70695W        W32006   3.786  31.401  10.948
70696W        W32007   9.262  28.165  12.915
70697W        W32008  13.209  19.058  12.965
70698W        W32009  36.885  10.714  13.915
70699W        W32010  29.583   7.894   1.929
70700W        W32011  30.163  37.516  14.355
70701W        W32012  28.995  10.749   4.151
70702W        W32013  26.118  19.548   2.275
70703W        W32014  18.286   0.274   0.923
70704W        W32015  43.349   5.312  11.943
70705W        W32016  28.471  33.096   1.211
70706W        W32017  14.338  40.808  11.560
70707W        W32018  31.122  27.550  13.842
70708W        W32019  39.838  29.596  12.459
70709W        W32020  44.395  30.499   4.807
70710W        W32021   2.797   4.351  14.501
70711W        W32022  14.774  14.628   5.619
70712W        W32023  23.116  40.919   3.855
70713W        W32024  28.449   5.364   1.371
70714W        W32025  38.913  12.144   2.806
70715W        W32026  39.827   7.859   4.731
70716W        W32027   6.341  23.570  10.126
70717W        W32028  27.162  13.813   3.248
70718W        W32029  44.429   7.689  10.463
70719W        W32030  25.708  27.074  12.005
70720W        W32031  28.438  37.936   4.737
70721W        W32032  12.308  24.492   9.614
70722W        W32033   3.328  42.372   4.734
70723W        W32034   2.847  42.992   1.222
70724W        W32035  36.428  27.137  14.398
70725W        W32036   4.365  40.879  10.478
70726W        W32037  11.341  42.360   3.192
70727W        W32038   3.339   3.792   0.298
70728W        W32039  35.527  42.892   1.891
70729W        W32040   5.337   0.298   4.315
70730W        W32041  27.542   2.238  13.386
70731W        W32042   4.267  34.081  12.873
70732W        W32043  11.332  35.878  13.496
70733W        W32044   7.208  40.982   3.208
70734W        W32045   6.869  30.928   1.770
70735W        W32046  34.489  23.691  13.974
70736W        W32047  30.564  23.121  11.945
70737W        W32048   0.353  41.422  14.295
70738W        W32049  30.950   0.927  10.612
70739W        W32050  32.969  43.465   4.332
70740W        W32051  37.922   9.752  12.566
70741W        W32052  38.546  18.161  12.459
70742W        W32053  38.520   7.415   3.201
70743W        W32054   7.783  35.888   3.642
70744W        W32055  24.480   5.890   0.886
70745W        W32056  12.743   2.934   0.391
70746W        W32057   8.330  15.083   0.411
70747W        W32058  28.646  19.746  14.851
70748W        W32059  18.073  40.488  13.377
70749W        W32060  31.526   7.243   3.807
70750W        W32061  18.072   2.853   0.402
70751W        W32062   8.335  26.500   1.375
70752W        W32063  40.042  11.146   4.822
70753W        W32064   4.323  32.070  11.915
70754W        W32065  35.512   3.345   2.737
70755W        W32066  10.185  37.926   4.617
70756W        W32067   9.763  22.557  12.510
70757W        W32068  29.060  42.904   4.315
70758W        W32069  20.268  34.498   0.728
70759W        W32070  12.171  38.375   3.665
70760W        W32071  36.386   7.872  13.842
70761W        W32072  19.154  20.574  13.842
70762W        W32073  38.506  11.225   2.362
70763W        W32074  15.630  16.807   4.318
70764W        W32075  31.984  41.007   4.167
70765W        W32076  39.508  31.493   9.956
70766W        W32077   0.949  14.263  10.962
70767W        W32078  25.550  36.049  11.080
70768W        W32079   7.894   7.273   3.372
70769W        W32080  21.027  35.404   3.242
70770W        W32081  36.445  18.582   1.258
70771W        W32082  27.473   5.774   2.673
70772W        W32083  27.633  12.804   2.266
70773W        W32084  23.060  28.167   5.642
70774W        W32085  42.937  11.332  13.470
70775W        W32086  17.676   0.955   2.898
70776W        W32087  28.040   9.185   2.860
70777W        W32088  27.973  11.646  13.804
70778W        W32089  31.076   9.875  11.045
70779W        W32090  18.291   2.265  12.848
70780W        W32091  25.018  41.892   4.230
70781W        W32092  29.131   2.724   0.309
70782W        W32093  37.337  33.406  14.387
70783W        W32094  17.212  15.311  13.842
70784W        W32095  27.051  24.103  12.869
70785W        W32096  36.383  31.413  14.981
70786W        W32097  33.927  22.227  13.934
70787W        W32098   0.458  23.020  13.865
70788W        W32099   2.946  12.231   2.744
70789W        W32100   2.318  42.349   3.717
70790W        W32101  10.716  36.044  11.393
70791W        W32102  35.085  42.452   0.461
70792W        W32103  41.788  33.058   4.702
70793W        W32104   2.272  14.260   1.878
70794W        W32105  10.176  17.572   3.238
70795W        W32106  29.517   1.748  13.883
70796W        W32107   6.683  28.084   2.694
70797W        W32108  43.331  22.624   4.835
70798W        W32109  20.181  42.912  11.954
70799W        W32110   3.309  24.588   4.262
70800W        W32111   5.328  10.741   1.391
70801W        W32112   7.745  11.816   0.444
70802W        W32113  34.553  20.186  11.903
70803W        W32114  39.375   1.961  11.055
70804W        W32115  20.675  20.119   2.407
70805W        W32116  37.036  15.668   2.834
70806W        W32117  11.814  22.196   0.729
70807W        W32118  10.294  10.335  14.300
70808W        W32119  19.214  18.719   3.206
70809W        W32120  10.377  29.658  11.080
70810W        W32121   4.269  36.448   0.484
70811W        W32122  29.995   0.766   1.926
70812W        W32123  38.983  10.744   0.796
70813W        W32124  12.811  30.538  11.010
70814W        W32125  26.466  22.585  13.016
70815W        W32126  35.604  39.351  13.440
70816W        W32127  37.904  38.906  12.939
70817W        W32128  29.471   0.965  13.838
70818W        W32129  27.541  34.517   3.332
70819W        W32130  36.057   5.322   2.895
70820W        W32131  37.007  15.257  10.434
70821W        W32132  25.531  23.190  12.548
70822W        W32133  34.400   5.375   4.688
70823W        W32134  36.394  16.598  14.903
70824W        W32135  17.123  25.596  14.485
70825W        W32136   3.931  26.698  10.982
70826W        W32137  31.464  28.494  13.334
70827W        W32138   9.855  20.201   0.425
70828W        W32139  12.777   4.397  12.550
70829W        W32140  11.238  23.198   3.796
70830W        W32141  37.462  14.681   0.729
70831W        W32142  28.632  20.585   1.285
70832W        W32143  16.261  28.048  12.445
70833W        W32144  27.522  43.457   1.826
70834W        W32145   2.964   1.792  13.967
70835W        W32146  23.169   1.283  12.075
70836W        W32147   7.356  37.432   4.712
70837W        W32148  22.681   5.352   0.433
70838W        W32149  23.195  23.571  12.959
70839W        W32150  22.532   7.349  10.894
70840W        W32151  26.663  37.369  10.969
70841W        W32152  34.466  41.503   1.778
70842W        W32153  43.812  28.069   2.211
70843W        W32154   3.860  33.580  13.064
70844W        W32155  29.624  40.818   3.774
70845W        W32156   9.827  36.952  12.425
70846W        W32157   0.463  42.948  13.863
70847W        W32158   2.874  34.545  11.411
70848W        W32159  15.231  28.592  11.501
70849W        W32160  44.767  34.967   1.813
70850W        W32161  38.521   1.372   0.275
70851W        W32162  28.664  26.595  14.800
70852W        W32163  34.508  36.066   4.346
70853W        W32164  21.182  34.096  13.896
70854W        W32165  10.709  29.538  11.925
70855W        W32166  21.663  14.198  13.461
70856W        W32167  34.370  24.196  13.532
70857W        W32168  11.154  26.696  11.460
70858W        W32169  31.536   6.417   2.344
70859W        W32170  35.877  19.070   3.705
70860W        W32171  34.958  27.623   4.714
70861W        W32172   8.804  30.423   2.746
70862W        W32173  37.403   4.719  11.913
70863W        W32174  17.638   6.237   2.225
70864W        W32175  37.372   6.300   0.363
70865W        W32176  26.057  36.402   2.847
70866W        W32177  29.435  19.577  11.900
70867W        W32178   0.850  31.558  11.008
70868W        W32179  18.714   1.359   1.394
70869W        W32180  43.384  13.305  11.018
70870W        W32181  11.209  29.431   4.198
70871W        W32182  22.036  41.009   1.897
70872W        W32183   4.926  16.624   1.733
70873W        W32184   8.676  30.589  10.460
70874W        W32185   1.807  13.275   4.346
70875W        W32186   7.184  43.483   2.353
70876W        W32187  19.215  36.350   2.239
70877W        W32188  35.400  26.491  13.014
70878W        W32189  21.055  34.905   3.770
70879W        W32190  33.929  42.382   3.801
70880W        W32191  33.472  24.709  11.070
70881W        W32192  10.737  42.984   2.403
70882W        W32193  18.169  31.967   0.801
70883W        W32194  39.821  31.618  13.022
70884W        W32195  15.736  16.579  13.386
70885W        W32196   2.938  41.843  11.879
70886W        W32197  42.307  36.027   2.750
70887W        W32198  34.907  11.651   2.845
70888W        W32199  39.812  33.975  11.526
70889W        W32200  34.966   5.203   4.161
70890W        W32201  35.105   4.867  13.465
70891W        W32202  18.591  18.643   0.284
70892W        W32203  43.844  44.342  13.489
70893W        W32204  44.866   3.441   0.272
70894W        W32205   7.402   5.780   0.767
70895W        W32206  13.121  40.374   3.312
70896W        W32207  31.062  30.417   2.227
70897W        W32208  37.012  41.305   2.803
70898W        W32209  21.656  41.856  12.062
70899W        W32210  26.067  36.880  12.513
70900W        W32211  43.502  42.325  12.534
70901W        W32212  27.581  44.814  11.513
70902W        W32213  43.779  10.217  13.934
70903W        W32214   9.796  39.868  12.377
70904W        W32215  24.191  13.308  12.444
70905W        W32216  21.517  19.220  13.542
70906W        W32217  10.159  40.339  13.396
70907W        W32218  32.507  14.775  14.509
70908W        W32219  31.144   4.831  13.791
70909W        W32220   3.227  34.084  14.973
70910W        W32221  41.331  29.010  12.827
70911W        W32222  27.004  14.283   3.652
70912W        W32223   7.191  12.730  14.910
70913W        W32224  34.917  19.732   0.904
70914W        W32225  31.620  26.612   0.837
70915W        W32226  15.648  25.128   3.243
70916W        W32227  39.972   6.195  10.483
70917W        W32228  22.641  39.841   2.884
70918W        W32229  17.619  34.873  12.931
70919W        W32230  12.673  12.802   2.268
70920W        W32231  26.634   7.866   0.307
70921W        W32232  42.800  28.640   3.297
70922W        W32233  44.378   9.357  10.993
70923W        W32234  37.537   6.294   3.384
70924W        W32235  23.693  30.611   0.752
70925W        W32236   7.858  12.711  10.977
70926W        W32237  11.148  40.420   1.901
70927W        W32238  26.061  12.296  14.020
70928W        W32239  10.832   2.294   0.845
70929W        W32240  26.015   1.909   1.298
70930W        W32241  10.866  16.080   1.224
70931W        W32242  43.342  23.555   1.348
70932W        W32243  35.082   3.375   4.141
70933W        W32244  36.458  35.540  13.522
70934W        W32245  44.892  21.168  12.564
70935W        W32246  18.768  32.627  11.507
70936W        W32247  25.615  44.980  12.938
70937W        W32248  24.549  33.902   1.909
70938W        W32249  16.666  19.749  14.318
70939W        W32250  27.013  24.131  10.641
70940W        W32251  13.333   5.692   4.227
70941W        W32252   4.429  33.538  14.947
70942W        W32253  34.906  36.593  13.972
70943W        W32254  29.139  16.768  10.499
70944W        W32255  22.200  34.981   4.274
70945W        W32256   1.371   8.215   3.292
70946W        W32257  25.576  35.099   0.964
70947W        W32258  16.753  23.568  13.948
70948W        W32259  26.203   5.351  11.483
70949W        W32260  12.632  25.001   0.332
70950W        W32261   1.353  20.675  13.366
70951W        W32262  34.903  21.151  14.864
70952W        W32263  40.436  42.519   0.458
70953W        W32264  28.088  43.796  10.052
70954W        W32265  13.222  11.334   9.922
70955W        W32266  41.985  34.585   4.647
70956W        W32267  29.482  11.360   0.265
70957W        W32268  41.037  40.527  10.629
70958W        W32269  44.805  19.244   2.722
70959W        W32270   7.715   2.443   4.200
70960W        W32271  44.811  25.176  12.058
70961W        W32272   0.443  19.213  13.904
70962W        W32273   8.704  12.300  14.976
70963W        W32274  20.112  33.442  12.855
70964W        W32275   1.478  28.676   3.294
70965W        W32276  31.086  32.629   3.677
70966W        W32277  13.336   7.734   4.235
70967W        W32278  30.530   5.330  10.417
70968W        W32279  23.719   3.719  13.803
70969W        W32280  28.953   1.250  14.330
70970W        W32281  23.032   4.398  10.949
70971W        W32282  27.976  30.471  13.317
70972W        W32283  11.333  36.507   2.692
70973W        W32284  26.464  44.953   4.749
70974W        W32285  27.583  31.933   0.289
70975W        W32286  28.650  26.582   0.457
70976W        W32287   7.344   7.365   4.128
70977W        W32288  29.658   3.411  12.565
70978W        W32289  16.274  29.087   1.855
70979W        W32290  19.269  42.894   3.735
70980W        W32291  36.573  24.716   2.270
70981W        W32292   9.864   6.308   3.843
70982W        W32293  36.930  36.883   2.715
70983W        W32294  22.038   4.337  13.890
70984W        W32295  13.680  37.405   1.844
70985W        W32296  24.153  31.106   5.101
70986W        W32297  34.987  18.218   1.402
70987W        W32298  39.554   7.787  10.593
70988W        W32299  14.613  16.688   2.201
70989W        W32300  12.802  24.014  13.826
70990W        W32301  25.968   5.693  10.414
70991W        W32302   4.720  25.070  11.523
70992W        W32303  17.212  23.630   5.707
70993W        W32304   6.416  35.529   4.614
70994W        W32305   1.756  41.487  13.835
70995W        W32306  15.157  35.413   1.251
70996W        W32307  17.112  20.730   0.853
70997W        W32308  17.718  30.028  13.795
70998W        W32309  37.849  36.398   1.740
70999W        W32310  26.179  13.774  10.924
71000W        W32311  29.576  28.955   2.719
71001W        W32312   6.285  41.834   4.334
71002W        W32313  44.417  22.691  11.587
71003W        W32314  25.145   2.290   2.764
71004W        W32315  13.122  12.260  12.031
71005W        W32316  33.464  19.210   0.245
71006W        W32317   9.237  31.481   1.359
71007W        W32318  41.317   9.819   0.844
71008W        W32319  31.132  11.856   3.197
71009W        W32320   2.341  17.117   0.474
71010W        W32321  36.587  29.469   3.350
71011W        W32322  40.799   6.226  14.405
71012W        W32323  38.047  13.787  13.922
71013W        W32324  23.125  23.519   1.893
71014W        W32325  27.513  15.210   4.639
71015W        W32326   1.256  30.918  10.427
71016W        W32327   0.356  19.572   0.305
71017W        W32328  45.000  13.222   3.365
71018W        W32329  28.990   9.218   1.218
71019W        W32330  22.574  15.632   4.609
71020W        W32331  16.620  22.610   4.654
71021W        W32332   7.264  27.125  12.069
71022W        W32333  21.545  27.030   0.837
71023W        W32334  24.588  15.772  12.346
71024W        W32335  32.450  26.517  11.101
71025W        W32336   4.263   7.671   3.371
71026W        W32337   2.811  28.059  14.888
71027W        W32338  28.115  29.523  11.420
71028W        W32339   9.200  38.420  12.353
71029W        W32340  14.292  11.740   1.792
71030W        W32341  36.407  29.560  12.066
71031W        W32342  23.699  14.269   3.657
71032W        W32343   9.190  14.196   5.242
71033W        W32344  14.775  33.990   4.745
71034W        W32345  31.463  14.167  11.023
71035W        W32346  23.629  18.564   1.929
71036W        W32347  36.035  27.448  14.943
71037W        W32348  40.515  41.020  14.488
71038W        W32349  21.242  24.571   0.819
71039W        W32350  17.681  42.435   2.783
71040W        W32351  37.479  32.466  14.319
71041W        W32352   7.239   7.785  14.922
71042W        W32353  14.626  28.110   1.799
71043W        W32354  33.568   3.244  13.469
71044W        W32355  33.039  26.464   0.801
71045W        W32356  22.630  16.582   1.210
71046W        W32357  24.539  36.098   2.344
71047W        W32358   4.246  22.011   4.278
71048W        W32359   9.675  17.684  11.438
71049W        W32360  12.796  17.299   2.686
71050W        W32361   1.325  24.586   3.226
71051W        W32362  11.756   0.306   4.175
71052W        W32363  39.397  35.905   0.795
71053W        W32364  28.477  12.343  14.382
71054W        W32365  28.521  26.511  13.465
71055W        W32366  36.579   2.285  13.415
71056W        W32367   5.882  11.324   2.204
71057W        W32368  39.494   7.790  13.497
71058W        W32369  38.378  21.606  14.862
71059W        W32370  40.328  37.945   0.367
71060W        W32371  42.836   4.717  10.518
71061W        W32372   6.857  33.919  12.520
71062W        W32373   1.334  44.757  10.898
71063W        W32374  31.638  16.082   0.380
71064W        W32375  25.710  30.139   0.370
71065W        W32376   9.680  30.163   0.907
71066W        W32377  41.420   5.772  10.942
71067W        W32378   4.278  18.728   4.794
71068W        W32379  37.526  15.275  14.392
71069W        W32380  18.620  18.274  14.455
71070W        W32381   1.790  16.588   1.924
71071W        W32382  19.702  32.887  13.316
71072W        W32383   2.818  15.292   2.366
71073W        W32384  23.550  25.472  11.578
71074W        W32385   3.746  41.513  11.490
71075W        W32386   4.728  17.082   9.453
71076W        W32387  42.350  23.581   1.384
71077W        W32388  39.910  20.046   1.782
71078W        W32389   9.773  34.951   2.754
71079W        W32390  30.586  34.388   2.770
71080W        W32391  15.782   9.208  14.017
71081W        W32392  43.426  43.932  11.535
71082W        W32393   6.362  29.160  10.034
71083W        W32394   0.821   5.791  11.429
71084W        W32395  43.454  42.996   0.840
71085W        W32396   5.307  14.216  10.641
71086W        W32397  18.234  35.401  12.031
71087W        W32398  15.208  29.531   4.119
71088W        W32399  34.037  12.241  11.081
71089W        W32400  28.023  34.118   4.739
71090W        W32401  29.022  34.546  12.345
71091W        W32402  23.203  19.170   0.471
71092W        W32403   1.440  20.536   1.795
71093W        W32404  13.128  20.193  12.898
71094W        W32405  32.437  27.524  11.060
71095W        W32406  18.718  44.910   0.467
71096W        W32407  21.720   5.867   3.805
71097W        W32408  20.039  32.993   0.744
71098W        W32409   7.270  26.069   3.743
71099W        W32410  43.766  25.163   1.277
71100W        W32411  28.177   3.757   4.333
71101W        W32412  20.748  22.514  14.397
71102W        W32413  12.802  21.562   2.808
71103W        W32414  37.486  15.149  13.041
71104W        W32415  10.350  31.954  12.094
71105W        W32416  15.719  27.660  13.043
71106W        W32417  32.991   1.953   3.679
71107W        W32418  40.520  35.941  13.436
71108W        W32419   6.414  36.359  12.361
71109W        W32420  43.466  13.339  14.399
71110W        W32421  20.669  25.605   2.226
71111W        W32422  43.819   9.798   3.649
71112W        W32423  34.581  33.582  11.607
71113W        W32424  19.151  40.822   3.784
71114W        W32425   7.901  38.879  13.368
71115W        W32426   1.824  23.548  11.012
71116W        W32427  42.009  35.985   5.241
71117W        W32428  43.872  11.355   2.807
71118W        W32429   0.287   2.255   4.606
71119W        W32430  32.915  32.453  13.952
71120W        W32431  25.164  29.596   0.386
71121W        W32432   9.348  35.957   2.726
71122W        W32433  18.695  19.283   1.410
71123W        W32434  35.063  39.858   3.159
71124W        W32435   9.691   7.843  11.523
71125W        W32436   3.252  33.451   4.347
71126W        W32437   4.252  17.084   4.642
71127W        W32438  31.065  23.500   0.746
71128W        W32439  14.249  23.075   1.370
71129W        W32440  18.134  39.540   0.807
71130W        W32441  33.382   1.280   3.174
71131W        W32442   3.740   5.428  12.907
71132W        W32443  30.017  20.071   3.231
71133W        W32444   6.188  42.932   2.244
71134W        W32445  40.036   8.786   5.171
71135W        W32446   2.371  23.151  13.319
71136W        W32447  32.027  25.557  13.533
71137W        W32448  29.525  38.024   4.147
71138W        W32449  12.122  22.600  11.027
71139W        W32450  13.696   3.904   2.416
71140W        W32451  18.244   3.382   4.727
71141W        W32452   4.272  31.931   4.167
71142W        W32453  24.998  11.342  12.466
71143W        W32454  21.124  37.507   4.789
71144W        W32455   9.154  41.375  12.964
71145W        W32456  29.043  10.824   4.635
71146W        W32457   9.299  39.335   1.309
71147W        W32458  41.004   2.779   2.317
71148W        W32459   0.477  23.612   0.957
71149W        W32460  36.938  28.151  11.481
71150W        W32461   9.327   1.461   2.237
71151W        W32462  29.072  16.202  11.428
71152W        W32463  44.916   8.354  11.532
71153W        W32464   3.792  29.602  13.468
71154W        W32465  37.034   7.745  11.399
71155W        W32466  32.012   8.891   1.332
71156W        W32467  21.220  15.821   4.833
71157W        W32468  16.678  35.005   3.167
71158W        W32469  29.563  38.560  14.823
71159W        W32470  13.248  23.529   5.601
71160W        W32471   6.205  14.177   0.473
71161W        W32472   0.967  21.562  10.924
71162W        W32473   3.439  22.139   2.335
71163W        W32474  27.130  21.169   0.886
71164W        W32475  14.101  40.379   5.238
71165W        W32476   8.770   3.322  12.445
71166W        W32477   6.844  28.171   2.408
71167W        W32478   8.867  23.233   0.748
71168W        W32479  25.007   8.320   4.348
71169W        W32480  34.545   2.754   3.270
71170W        W32481   4.935  16.210   4.319
71171W        W32482  27.092  20.033   5.243
71172W        W32483   2.793   8.832   4.747
71173W        W32484   2.235   6.221   4.832
71174W        W32485  24.133   4.208  13.442
71175W        W32486  19.540  10.204  11.493
71176W        W32487  14.821  40.473   3.815
71177W        W32488  18.756  12.756   1.450
71178W        W32489  14.151  37.499   0.935
71179W        W32490  20.707  20.173   4.669
71180W        W32491  30.616  18.773   0.860
71181W        W32492  11.208  39.514  10.463
71182W        W32493  28.665   4.768   0.792
71183W        W32494  42.852  35.988  13.401
71184W        W32495  27.478  16.299   0.809
71185W        W32496  29.639  44.277   5.094
71186W        W32497  36.492  33.902   4.605
71187W        W32498  30.061   9.385   3.850
71188W        W32499  11.314   1.349   4.146
71189W        W32500  14.693  30.060  11.862
71190W        W32501  18.747  22.118  14.423
71191W        W32502  15.196   5.876   3.792
71192W        W32503   6.414  18.638  14.387
71193W        W32504  12.621  20.109   4.286
71194W        W32505   0.464   8.287   3.186
71195W        W32506  19.249   0.349   2.722
71196W        W32507  13.732   5.323  14.893
71197W        W32508  41.458   1.296   3.184
71198W        W32509  11.817  34.385  13.904
71199W        W32510  31.000  22.556  10.974
71200W        W32511  44.497  40.946  13.465
71201W        W32512  22.604  42.885  14.466
71202W        W32513   0.336  37.917   4.335
71203W        W32514  32.025  29.573  14.882
71204W        W32515  17.161  14.211  14.937
71205W        W32516  29.988  14.743  13.532
71206W        W32517  42.943   3.331  14.481
71207W        W32518  41.941   2.920  12.961
71208W        W32519  37.379  22.208   2.388
71209W        W32520  26.142  30.559  10.954
71210W        W32521  13.732  28.931   4.213
71211W        W32522  12.707  18.073   4.200
71212W        W32523  24.029  25.506  12.389
71213W        W32524   8.365   5.830  14.510
71214W        W32525  16.311  14.691  11.937
71215W        W32526  11.693  15.118   4.224
71216W        W32527  25.596   1.956   2.873
71217W        W32528  35.005  31.118   1.769
71218W        W32529  38.504  32.960   2.707
71219W        W32530  24.501  13.329   1.877
71220W        W32531   4.732  42.866  11.559
71221W        W32532   9.741  36.572  12.975
71222W        W32533  17.574  13.126   1.236
71223W        W32534   3.245   4.698   3.157
71224W        W32535   8.816   0.357   2.201
71225W        W32536   9.244  41.855   0.730
71226W        W32537  31.912  42.461   4.793
71227W        W32538   7.881  11.662   3.287
71228W        W32539  28.092  20.199  11.099
71229W        W32540  28.630   9.794  13.414
71230W        W32541  43.492   3.881  11.955
71231W        W32542  10.323   2.809  13.810
71232W        W32543  24.010  21.715   0.314
71233W        W32544  24.120  11.629   0.873
71234W        W32545  16.259  43.448   4.302
71235W        W32546  32.993  24.596   2.749
71236W        W32547  31.599  15.732  13.994
71237W        W32548   1.385  24.540  14.499
71238W        W32549  43.297  36.347   1.828
71239W        W32550  41.836   7.190   4.167
71240W        W32551  35.912  21.668   3.151
71241W        W32552  16.263  33.117   4.156
71242W        W32553  43.842  38.463  12.929
71243W        W32554  43.407  21.054  11.423
71244W        W32555  26.553  28.570  13.330
71245W        W32556  13.656   5.240   5.259
71246W        W32557  31.988  25.122  13.508
71247W        W32558  33.944  34.955  12.445
71248W        W32559  11.659  32.951   1.358
71249W        W32560  24.708   5.401  12.536
71250W        W32561  41.856  29.922   0.444
71251W        W32562  40.881   5.799  12.429
71252W        W32563  33.612  39.829   0.805
71253W        W32564  18.548  16.165   4.285
71254W        W32565  36.560  12.610  11.063
71255W        W32566  31.450  14.793   2.418
71256W        W32567  24.181  42.429  13.993
71257W        W32568  40.865  39.544  10.461
71258W        W32569  42.909  38.012  14.898
71259W        W32570  21.108  32.945  13.534
71260W        W32571  30.571  40.838   2.375
71261W        W32572  23.238  22.674   1.322
71262W        W32573  28.507   3.830   3.201
71263W        W32574   5.813  25.094  11.023
71264W        W32575  23.093  20.178   0.910
71265W        W32576   5.738  22.018   3.359
71266W        W32577   9.821  42.385  11.102
71267W        W32578  25.164   5.918  13.863
71268W        W32579  25.551  43.387  11.498
71269W        W32580  30.047  44.301  12.529
71270W        W32581  19.109   0.415  12.577
71271W        W32582  43.990   8.689  14.974
71272W        W32583  14.334  25.637   4.727
71273W        W32584  19.141   0.411   0.459
71274W        W32585  41.462   7.798   4.278
71275W        W32586  27.491  24.109   4.218
71276W        W32587  35.105  29.591  12.563
71277W        W32588  13.139   8.359  11.588
71278W        W32589  41.923   1.748   2.265
71279W        W32590  23.676  18.710  10.596
71280W        W32591  34.472  10.360   0.436
71281W        W32592  28.058  37.007  14.292
71282W        W32593   3.390  32.459   3.870
71283W        W32594  44.799  26.688   0.319
71284W        W32595  33.005  20.060  13.966
71285W        W32596  18.563   4.712  13.485
71286W        W32597   8.402  24.986  12.867
71287W        W32598  26.703   1.851  14.818
71288W        W32599  43.896  13.835  12.850
71289W        W32600  38.905  17.260  14.418
71290W        W32601  15.645  20.201   0.410
71291W        W32602  37.341   2.966   1.367
71292W        W32603  43.313  26.520   1.417
71293W        W32604  36.360  14.775   0.404
71294W        W32605  43.980  39.473  11.912
71295W        W32606   3.342  31.979   0.763
71296W        W32607  23.140  24.649   0.795
71297W        W32608  28.006  43.913  14.995
71298W        W32609  25.077  23.153   0.389
71299W        W32610  28.494  26.533   2.179
71300W        W32611  22.540  18.579   1.823
71301W        W32612   3.270  25.992   4.232
71302W        W32613  43.495  17.622   3.365
71303W        W32614   3.926  23.561  10.598
71304W        W32615  15.245  38.387  14.984
71305W        W32616  32.017  13.679   4.198
71306W        W32617  15.309  28.534  12.934
71307W        W32618  27.639  36.528  10.970
71308W        W32619   4.886  38.430   2.808
71309W        W32620   6.419  26.505   3.849
71310W        W32621  19.117   9.664  11.084
71311W        W32622  13.266  29.627   2.726
71312W        W32623  24.542   5.694   4.802
71313W        W32624  13.607  10.371   4.805
71314W        W32625  24.521  43.502  12.094
71315W        W32626  34.863  16.688  14.764
71316W        W32627  30.524   9.825  11.500
71317W        W32628   0.862  36.005   2.757
71318W        W32629   7.371  37.337   2.215
71319W        W32630  44.474  15.135  14.815
71320W        W32631   0.844  20.147   1.868
71321W        W32632  13.205  42.480   1.372
71322W        W32633  13.770  25.049  13.338
71323W        W32634   2.876   6.344   0.245
71324W        W32635  17.201  13.639  10.953
71325W        W32636  13.337  14.229  13.835
71326W        W32637  36.941   1.247   3.185
71327W        W32638  17.101  43.272   0.891
71328W        W32639  26.164  34.370   3.859
71329W        W32640   0.828  13.728   3.321
71330W        W32641  11.179  31.966  14.325
71331W        W32642  43.860  35.942  11.054
71332W        W32643  10.224   1.420  12.948
71333W        W32644  15.272  12.158  12.979
71334W        W32645  32.945  21.212  14.917
71335W        W32646   9.705  31.426  13.861
71336W        W32647  11.700  29.018   0.758
71337W        W32648  43.947  42.012  14.491
71338W        W32649  36.856  34.614  11.066
71339W        W32650  36.890  29.060   0.783
71340W        W32651   6.790  35.862  12.086
71341W        W32652   5.723   4.719   1.887
71342W        W32653   6.767  25.005   0.962
71343W        W32654  38.389   4.254   2.311
71344W        W32655  26.107  18.286   5.301
71345W        W32656  16.258  20.542   1.298
71346W        W32657   1.921   2.456   3.706
71347W        W32658  15.182  36.418   3.292
71348W        W32659  39.455  35.408   2.888
71349W        W32660   6.297   9.805   0.289
71350W        W32661  21.568  11.693   0.966
71351W        W32662  39.848  24.538  13.334
71352W        W32663  31.953  21.529  12.968
71353W        W32664  20.577  27.648   4.346
71354W        W32665  37.403  21.576   3.366
71355W        W32666  42.895  25.997  13.938
71356W        W32667  33.047   7.805   1.353
71357W        W32668  37.499  42.448  11.577
71358W        W32669  31.644   3.949  12.458
71359W        W32670  19.556   4.870  10.538
71360W        W32671  20.091   3.895  14.295
71361W        W32672   5.335  40.466  11.546
71362W        W32673  40.412  34.102   2.336
71363W        W32674  38.353   3.335  11.928
71364W        W32675  35.932  12.658  10.972
71365W        W32676  36.533  31.567  11.554
71366W        W32677  20.229  15.215  10.083
71367W        W32678  34.870  20.716  12.434
71368W        W32679  13.225  40.497   5.226
71369W        W32680  42.859  19.237   1.293
71370W        W32681   5.888  22.041  14.803
71371W        W32682  39.010  23.029   0.820
71372W        W32683  21.729  34.382  11.126
71373W        W32684  30.135   3.222   4.146
71374W        W32685  15.130  10.860  12.457
71375W        W32686  25.697  39.060  14.021
71376W        W32687  29.945  43.481   0.381
71377W        W32688   1.327  25.191  11.375
71378W        W32689   2.386  11.236   1.301
71379W        W32690   5.384  38.075  14.787
71380W        W32691  18.713  26.479  12.019
71381W        W32692   8.383  14.748  11.584
71382W        W32693  18.582  23.584   1.807
71383W        W32694  25.656  22.722   3.764
71384W        W32695  35.971  39.426   4.190
71385W        W32696  33.523  13.845   4.230
71386W        W32697  17.170  22.166   2.669
71387W        W32698  42.307  11.289   4.656
71388W        W32699  25.554   9.354  14.386
71389W        W32700  40.504  33.390  10.082
71390W        W32701  32.495  38.499   2.280
71391W        W32702  39.382   1.475   3.174
71392W        W32703  35.096  20.095   2.677
71393W        W32704  17.571  24.484   0.887
71394W        W32705  24.581  28.070  11.416
71395W        W32706   8.826  38.015  13.918
71396W        W32707   3.451  37.356  13.431
71397W        W32708   7.823   1.907  12.873
71398W        W32709   1.474  16.211   4.346
71399W        W32710  22.179   6.253  13.432
71400W        W32711  19.652   5.289  13.822
71401W        W32712  18.653  37.441  12.516
71402W        W32713  15.588  43.782  14.993
71403W        W32714  16.666  39.347   4.169
71404W        W32715  27.448  11.204  10.985
71405W        W32716  24.170   1.350  13.021
71406W        W32717  18.734  39.055  11.524
71407W        W32718  10.361  14.772  12.861
71408W        W32719  19.684  15.667   0.246
71409W        W32720  38.365  39.395  12.365
71410W        W32721  15.246  29.002  14.479
71411W        W32722   1.798   3.719   1.268
71412W        W32723   6.368  16.086  11.407
71413W        W32724  26.479  32.542  14.918
71414W        W32725  44.463  27.629   2.271
71415W        W32726   7.674  35.573  12.090
71416W        W32727   0.346   1.435   0.797
71417W        W32728  18.061  35.395   2.236
71418W        W32729  23.005   6.422   2.375
71419W        W32730  10.802  12.796   1.752
71420W        W32731  31.457  27.163   0.316
71421W        W32732   4.936  25.998  12.912
71422W        W32733  29.160  40.820   1.716
71423W        W32734  16.583  12.228   2.251
71424W        W32735   8.169  33.512  14.427
71425W        W32736  33.974  22.715  14.465
71426W        W32737  36.966  26.689   2.182
71427W        W32738  36.066  43.804   4.218
71428W        W32739  36.885  29.644   4.146
71429W        W32740  28.679  34.997  12.390
71430W        W32741   4.812  25.677   3.191
71431W        W32742  40.311   9.668   1.775
71432W        W32743  13.629  10.178  14.344
71433W        W32744  13.216  31.988  10.068
71434W        W32745  26.685   8.768   0.312
71435W        W32746  14.760  34.488   2.898
71436W        W32747  23.729  27.524  14.341
71437W        W32748  17.162  19.054  10.092
71438W        W32749  11.189  34.482   3.151
71439W        W32750  29.651  27.623   4.204
71440W        W32751  44.421  17.769   4.764
71441W        W32752  38.893  12.257   4.349
71442W        W32753  29.031  29.951  12.454
71443W        W32754  10.758   7.822   4.815
71444W        W32755  32.946  25.040   0.957
71445W        W32756  11.813   0.899   0.273
71446W        W32757  23.709  12.242  12.008
71447W        W32758  29.620  38.462  13.966
71448W        W32759  15.308  11.247   4.263
71449W        W32760  22.535  41.883   4.626
71450W        W32761  23.715   7.306   4.776
71451W        W32762  11.662  36.093  14.815
71452W        W32763  25.995  38.838   0.410
71453W        W32764   0.768  19.675   4.821
71454W        W32765  24.658  33.623  13.920
71455W        W32766  34.381  34.380   2.720
71456W        W32767  44.282  12.835  11.049
71457W        W32768  15.186   8.191  12.966
71458W        W32769  30.013  34.611  12.088
71459W        W32770  17.061  30.912  13.919
71460W        W32771   6.792  40.305   2.278
71461W        W32772  39.428   6.420  11.968
71462W        W32773  42.784  34.052  12.887
71463W        W32774   9.223  26.670   1.907
71464W        W32775  13.237  39.470   1.346
71465W        W32776  10.247  31.978  13.044
71466W        W32777   2.953  26.650   4.655
71467W        W32778  19.089  22.010   2.667
71468W        W32779   0.855  22.050   0.357
71469W        W32780  34.588  23.541  11.927
71470W        W32781  26.577   8.764   4.654
71471W        W32782  21.757   6.725   3.760
71472W        W32783  12.314  41.846  11.604
71473W        W32784   0.821   5.709   3.843
71474W        W32785  30.032  27.672   4.213
71475W        W32786  32.011  27.588  13.032
71476W        W32787  41.350  10.352   1.825
71477W        W32788  25.218   9.226   1.305
71478W        W32789   8.860   7.174   0.905
71479W        W32790   4.235  42.514   2.852
71480W        W32791   2.449   0.907  11.984
71481W        W32792   1.969  38.820   3.360
71482W        W32793  33.116  24.182  14.385
71483W        W32794  39.480  12.666   3.249
71484W        W32795  31.113  35.547   2.743
71485W        W32796  25.020  43.937  14.876
71486W        W32797   7.326  23.094   3.658
71487W        W32798  32.915  34.870   3.810
71488W        W32799  30.983   4.327  11.998
71489W        W32800   7.380  24.998   3.731
71490W        W32801   9.345  11.297   4.715
71491W        W32802  21.063  39.992  13.518
71492W        W32803  25.150  41.416   2.262
71493W        W32804  25.629  34.069   1.720
71494W        W32805   5.719  24.650  11.568
71495W        W32806  27.677  38.470  10.403
71496W        W32807   2.472  15.093   4.301
71497W        W32808  27.169  41.926  10.491
71498W        W32809  36.441  43.899   2.373
71499W        W32810  16.160   8.236   0.463
71500W        W32811  10.142  33.918   4.174
71501W        W32812  19.062  21.527  10.483
71502W        W32813   1.734  43.878  11.541
71503W        W32814  10.640  17.082  10.077
71504W        W32815   0.399  43.337   1.886
71505W        W32816  21.634  44.871  13.851
71506W        W32817  14.299  27.018  13.886
71507W        W32818  25.014  10.296   3.694
71508W        W32819   3.775  25.514   0.772
71509W        W32820  11.639  17.759   4.624
71510W        W32821   5.760  35.528   4.312
71511W        W32822  10.668  24.207   1.866
71512W        W32823   7.797  30.934   0.403
71513W        W32824  39.897  24.224  14.759
71514W        W32825   6.185  42.787  12.029
71515W        W32826  14.732  34.022   3.363
71516W        W32827  19.541  20.668  14.843
71517W        W32828   2.454  34.092   4.184
71518W        W32829  14.126  24.168  11.417
71519W        W32830  18.114  22.712   4.801
71520W        W32831  13.675  13.713  12.529
71521W        W32832   6.876  33.624  14.497
71522W        W32833  39.399  25.141  12.867
71523W        W32834  38.359   5.866   0.257
71524W        W32835   6.330  43.294   0.885
71525W        W32836   0.440  26.572  11.596
71526W        W32837  17.113  44.391   4.334
71527W        W32838   1.836  12.191   1.362
71528W        W32839  27.533  38.932  14.815
71529W        W32840  26.579  14.111   2.694
71530W        W32841   2.355   5.414   2.395
71531W        W32842  37.921  32.119  13.378
71532W        W32843  16.709  25.970   2.664
71533W        W32844  28.964  15.148   3.265
71534W        W32845  17.732  13.690   3.336
71535W        W32846  15.667  13.732   4.708
71536W        W32847  39.918  30.070   2.735
71537W        W32848   6.775  23.127  14.468
71538W        W32849  18.129  41.449  11.928
71539W        W32850  12.261   5.418   3.184
71540W        W32851  34.419  12.750  11.552
71541W        W32852   1.737  10.365  10.545
71542W        W32853  35.048  13.294   3.218
71543W        W32854  36.959   5.354  13.917
71544W        W32855   7.398  31.555  14.405
71545W        W32856  27.589  41.022   2.843
71546W        W32857  21.572   8.225  14.845
71547W        W32858   8.657  15.663  11.454
71548W        W32859  18.726  11.264  10.961
71549W        W32860  26.991  44.419  14.387
71550W        W32861   2.299  27.649   4.690
71551W        W32862  37.456   8.795   4.247
71552W        W32863  16.145  40.019  14.022
71553W        W32864  35.945  11.863  14.846
71554W        W32865  23.136  43.912  13.818
71555W        W32866  18.187  38.963  13.473
71556W        W32867  24.717  44.818  10.465
71557W        W32868  40.547  37.032  13.537
71558W        W32869  33.510   6.793   4.785
71559W        W32870  11.258  31.578   2.355
71560W        W32871  30.429   8.219  14.473
71561W        W32872  29.928  40.952   2.303
71562W        W32873  20.233  24.669   3.659
71563W        W32874  20.257  37.529  13.021
71564W        W32875  18.621  19.627   9.968
71565W        W32876  42.498  39.366  11.454
71566W        W32877  18.618  42.897   0.919
71567W        W32878   8.831   7.234   3.635
71568W        W32879  11.301  22.067   4.693
71569W        W32880   7.310  35.574  11.377
71570W        W32881  10.321  10.197  11.591
71571W        W32882   7.855  15.325  14.408
71572W        W32883  39.533  14.319  11.094
71573W        W32884  25.612  17.253  13.415
71574W        W32885  12.767  12.355  10.634
71575W        W32886   6.885  16.277  14.783
71576W        W32887  26.016  44.880  13.509
71577W        W32888  29.919  14.193   2.828
71578W        W32889  43.995  22.575  10.465
71579W        W32890  38.546  18.246  13.888
71580W        W32891  36.365   7.782  11.911
71581W        W32892  23.507  32.451   5.257
71582W        W32893   3.818  11.367   2.728
71583W        W32894   8.392  43.782  10.971
71584W        W32895   4.846  39.362   3.697
71585W        W32896   0.988   7.713  10.965
71586W        W32897  11.131   4.802   0.416
71587W        W32898  36.937   1.320  13.986
71588W        W32899   2.826  10.194  11.903
71589W        W32900   5.244  11.371  12.037
71590W        W32901  42.320   0.316   0.852
71591W        W32902  44.285   6.231   4.742
71592W        W32903  11.852  18.770   0.853
71593W        W32904  29.979   4.418   0.726
71594W        W32905  17.748  32.027   1.363
71595W        W32906   5.777  36.979   4.129
71596W        W32907  26.611  17.298   1.737
71597W        W32908  22.713  14.705  14.895
71598W        W32909  34.111  16.721  14.938
71599W        W32910  26.703  11.131   1.405
71600W        W32911  30.060  36.941   0.946
71601W        W32912  36.001   1.819   3.827
71602W        W32913  18.141   7.171   0.793
71603W        W32914   0.886   9.313  14.398
71604W        W32915  18.672  14.284   3.340
71605W        W32916  29.512  11.306  13.963
71606W        W32917   1.849  35.065   4.249
71607W        W32918   4.278  35.094   3.366
71608W        W32919  42.891  10.373  12.037
71609W        W32920  29.435  18.684   3.313
71610W        W32921  19.585  34.987  12.494
71611W        W32922   5.927  26.043  13.510
71612W        W32923  18.752  32.134   0.840
71613W        W32924  29.081  26.192  12.938
71614W        W32925   7.204   3.252   4.314
71615W        W32926  32.105  31.406   4.692
71616W        W32927  14.244  19.206   3.349
71617W        W32928   8.246   9.768   2.195
71618W        W32929  12.307  29.029  12.388
71619W        W32930  22.089  42.365  13.847
71620W        W32931  11.815  23.532   4.620
71621W        W32932   3.391  22.525   4.181
71622W        W32933  22.575   7.218  11.386
71623W        W32934  37.357   9.223   0.436
71624W        W32935  36.430  17.649   4.646
71625W        W32936  44.887  12.843  14.446
71626W        W32937   5.918   0.778   4.185
71627W        W32938  44.890  38.348  12.442
71628W        W32939   0.914  33.422  10.639
71629W        W32940  25.128  29.024   4.214
71630W        W32941   5.782  25.475   2.748
71631W        W32942  16.203  31.056  12.988
71632W        W32943  21.659  17.233   4.200
71633W        W32944  14.691  43.993  13.469
71634W        W32945  44.886   1.854  14.022
71635W        W32946   9.778  27.577  12.509
71636W        W32947  38.429  41.292  12.069
71637W        W32948  28.035  28.145   2.814
71638W        W32949  38.453  16.762  11.414
71639W        W32950  10.860  31.635   3.259
71640W        W32951  10.762  37.076   0.320
71641W        W32952  20.185  27.622  13.867
71642W        W32953  41.005   5.295  11.389
71643W        W32954  37.976  43.284  13.873
71644W        W32955  14.270  26.202  11.985
71645W        W32956   1.887  44.869  12.475
71646W        W32957  22.731  34.898  14.371
71647W        W32958   5.779  29.566  14.440
71648W        W32959  29.918   9.824   0.456
71649W        W32960  37.871   5.230   1.826
71650W        W32961  27.628   8.778  10.520
71651W        W32962  30.556  24.148  11.383
71652W        W32963   5.824  18.718   3.681
71653W        W32964   2.380   5.907  11.059
71654W        W32965  10.163  44.810   4.224
71655W        W32966  35.530  26.954   0.937
71656W        W32967   6.676  37.909  14.796
71657W        W32968  10.825  32.614   1.700
71658W        W32969  31.414  12.314   0.283
71659W        W32970  12.650  26.628  13.415
71660W        W32971  18.118  11.643  14.822
71661W        W32972  40.843  37.478   0.283
71662W        W32973  14.726   4.428   2.773
71663W        W32974  25.605  33.498  14.889
71664W        W32975   1.843  25.610  14.487
71665W        W32976  24.097  33.387  14.415
71666W        W32977  12.244  13.123  12.448
71667W        W32978  29.588   3.378  10.996
71668W        W32979   3.371  32.944  13.935
71669W        W32980  22.682   4.701  12.999
71670W        W32981  29.921  34.495   2.814
71671W        W32982  16.682   2.792   2.797
71672W        W32983  34.904  11.311  14.870
71673W        W32984  30.630  35.449   2.846
71674W        W32985   2.392   2.763  14.943
71675W        W32986  19.237  17.257   0.857
71676W        W32987  15.655  31.039   2.682
71677W        W32988  18.065  17.170   5.222
71678W        W32989  10.256  10.198  11.945
71679W        W32990  37.440  15.772   2.219
71680W        W32991  29.070  24.689   0.314
71681W        W32992   1.773  33.915   0.246
71682W        W32993  22.732  29.946   2.359
71683W        W32994  31.936  26.070  11.390
71684W        W32995  12.321   2.271   2.317
71685W        W32996  22.550   8.811   3.300
71686W        W32997  43.764  38.915   3.275
71687W        W32998  30.977  24.082   9.950
71688W        W32999  27.067  27.185  13.378
71689W        W33000  26.607  27.060   4.643
71690W        W33001  13.185  26.564  12.554
71691W        W33002  32.577   3.788  10.619
71692W        W33003  44.759  13.769   2.339
71693W        W33004  26.047  21.605  10.908
71694W        W33005  25.684  12.680   2.362
71695W        W33006  18.183  42.003   4.639
71696W        W33007  10.349  34.577   0.272
71697W        W33008  30.993  33.058  14.993
71698W        W33009  15.110  16.079   0.378
71699W        W33010  12.291   6.819   4.655
71700W        W33011  22.632  13.233   0.775
71701W        W33012  26.008  29.467  10.481
71702W        W33013  34.977  29.999   4.328
71703W        W33014  44.979  41.417  13.440
71704W        W33015  17.274  29.633   5.144
71705W        W33016   4.932  40.989   2.696
71706W        W33017  34.913  32.473  11.570
71707W        W33018  39.815   9.327   0.429
71708W        W33019  32.957   2.259  13.886
71709W        W33020  36.370  18.124   0.274
71710W        W33021  39.472  43.772  12.950
71711W        W33022  42.893  34.577  13.443
71712W        W33023  40.816   0.913  14.803
71713W        W33024  36.085  32.527   2.901
71714W        W33025  14.247  12.662   2.340
71715W        W33026  26.000  11.682  11.382
71716W        W33027  13.197  20.102  13.402
71717W        W33028   8.675  16.091  14.795
71718W        W33029  26.672  27.550  14.914
71719W        W33030   4.217  17.737   3.726
71720W        W33031   2.892  43.383   2.233
71721W        W33032   4.433  11.224   1.333
71722W        W33033  10.147  31.121   0.851
71723W        W33034  25.544  27.586   1.863
71724W        W33035  13.163  31.619   0.295
71725W        W33036  39.028  22.231   2.187
71726W        W33037  35.459  13.664  10.924
71727W        W33038  20.079  28.455   0.961
71728W        W33039  12.619  35.892  12.552
71729W        W33040  15.641  22.222  11.387
71730W        W33041  39.000   6.338  10.137
71731W        W33042  21.537  44.858   2.757
71732W        W33043  24.656  33.619   4.734
71733W        W33044  42.883   6.719   2.239
71734W        W33045  36.946  40.353  12.985
71735W        W33046  13.179  13.328   0.801
71736W        W33047  31.576  15.727   0.831
71737W        W33048  37.517  30.653  14.349
71738W        W33049   3.759  44.370   0.768
71739W        W33050  11.231  16.087   4.317
71740W        W33051   7.752  13.769  10.627
71741W        W33052  12.702  34.597   1.774
71742W        W33053  12.275  34.957  11.492
71743W        W33054  24.183   8.848  14.445
71744W        W33055  26.462  18.183  12.487
71745W        W33056  24.528  23.025   0.820
71746W        W33057  33.390  27.093   1.328
71747W        W33058  10.649   0.399  13.310
71748W        W33059  18.737  14.626  10.551
71749W        W33060  39.913  23.130   2.683
71750W        W33061   6.832  26.472   4.787
71751W        W33062  39.509  30.154  14.390
71752W        W33063  20.124   6.409   4.715
71753W        W33064  21.035  29.577   5.267
71754W        W33065   6.261  11.850  12.406
71755W        W33066  34.899  33.561   0.965
71756W        W33067   0.330  29.052   3.814
71757W        W33068   0.895  34.602  13.978
71758W        W33069  12.635  33.099   4.756
71759W        W33070  37.506  38.912  12.952
71760W        W33071  38.539   0.854  12.574
71761W        W33072   5.926   6.267   2.186
71762W        W33073  22.526  20.233   5.132
71763W        W33074  34.491  41.481  13.883
71764W        W33075   1.423  11.636   0.256
71765W        W33076   5.886  26.969   3.864
71766W        W33077  13.246  13.262   2.254
71767W        W33078  17.757  11.648  11.453
71768W        W33079  16.204  28.995   4.633
71769W        W33080  20.668  35.378   2.295
71770W        W33081  17.564  26.150  12.356
71771W        W33082  44.999   1.742  13.376
71772W        W33083  17.180  13.663  12.464
71773W        W33084  35.457  18.702  11.471
71774W        W33085  36.481  12.288   1.718
71775W        W33086  23.685  38.345  12.471
71776W        W33087   9.825  17.190   4.758
71777W        W33088  18.580  36.853  10.427
71778W        W33089  41.906   1.452   1.285
71779W        W33090  12.738  15.226  11.948
71780W        W33091  22.214  34.561  13.954
71781W        W33092  15.088  38.543   3.674
71782W        W33093  20.264  40.018  14.858
71783W        W33094  38.485   9.758   3.748
71784W        W33095  43.842  28.472  12.041
71785W        W33096  40.883  26.631   1.252
71786W        W33097  37.889  20.526   2.360
71787W        W33098  30.102  16.309  11.397
71788W        W33099  13.722  10.223   0.737
71789W        W33100   9.701   5.382  13.535
71790W        W33101  28.472  19.211  12.833
71791W        W33102   9.176  33.548  14.780
71792W        W33103  41.977  12.143   4.635
71793W        W33104  31.936  32.482   2.669
71794W        W33105  42.021  38.474   0.799
71795W        W33106  37.497  25.673  14.871
71796W        W33107  14.727  39.814  14.346
71797W        W33108  21.046  43.809  12.958
71798W        W33109  36.025  37.491   2.344
71799W        W33110  29.444  32.062   2.346
71800W        W33111  37.994  40.454   5.258
71801W        W33112  26.497  27.479   4.599
71802W        W33113   0.750  28.165  13.028
71803W        W33114  43.978  36.489   0.447
71804W        W33115  27.528   6.256   0.839
71805W        W33116   0.868   6.830  12.377
71806W        W33117  35.516  18.288   1.244
71807W        W33118  37.983  18.096  11.482
71808W        W33119  14.609  26.055   3.861
71809W        W33120   8.774  29.931   2.344
71810W        W33121  15.733   2.445  14.759
71811W        W33122   7.255  18.599   2.711
71812W        W33123  30.583  20.672  14.793
71813W        W33124  20.648  19.583  13.817
71814W        W33125  40.034  17.677  11.935
71815W        W33126  29.475   2.918  14.839
71816W        W33127  41.019  18.609  12.847
71817W        W33128  25.643   0.889   3.237
71818W        W33129  41.023   8.763   0.769
71819W        W33130  30.471  38.935  12.566
71820W        W33131   9.374  20.142  13.525
71821W        W33132  20.618  15.786  11.922
71822W        W33133  25.023   2.779   4.154
71823W        W33134  14.219  25.977   3.155
71824W        W33135  12.144  11.820  12.964
71825W        W33136  10.825  40.958   4.753
71826W        W33137  20.550  41.529  13.492
71827W        W33138  42.873  32.121  13.870
71828W        W33139  31.149  18.664   2.255
71829W        W33140  21.179  44.405  14.982
71830W        W33141  25.098   3.881  12.456
71831W        W33142  34.885  16.780   0.476
71832W        W33143  15.595  26.987  10.584
71833W        W33144   8.849  16.282  10.447
71834W        W33145  40.963  16.729   1.833
71835W        W33146  10.684  40.881   3.746
71836W        W33147  25.681  26.101  14.454
71837W        W33148  19.191  40.524  14.501
71838W        W33149  23.516  21.583   2.348
71839W        W33150  40.003  20.536  11.542
71840W        W33151  37.069  12.169  11.949
71841W        W33152  20.209   2.816   1.712
71842W        W33153  33.113  34.971  14.878
71843W        W33154  27.505   1.920  14.906
71844W        W33155  43.418  18.090   4.354
71845W        W33156   9.254  10.140   1.335
71846W        W33157  40.546  25.135   2.308
71847W        W33158  29.611  41.868  12.923
71848W        W33159   6.255  21.528  11.086
71849W        W33160  23.128  35.055   2.723
71850W        W33161  31.929  27.633  13.389
71851W        W33162  36.489  28.167   3.293
71852W        W33163  34.392  40.867   3.865
71853W        W33164  29.056  13.140  13.476
71854W        W33165  39.363  33.551  14.341
71855W        W33166  25.686  16.205  13.843
71856W        W33167   9.372  42.848   3.359
71857W        W33168  19.124   1.908  13.948
71858W        W33169   5.932   8.296  14.029
71859W        W33170  34.395  16.193  11.087
71860W        W33171   9.696   1.304   3.276
71861W        W33172  21.113   5.905  10.532
71862W        W33173  41.443  16.700   4.133
71863W        W33174   2.271  30.486   2.702
71864W        W33175  23.017  24.162  14.811
71865W        W33176  14.164  17.104   5.178
71866W        W33177   9.343  31.083  11.543
71867W        W33178  20.237   6.360   5.168
71868W        W33179  14.297  27.039  13.482
71869W        W33180  27.968  13.204  14.495
71870W        W33181  27.983  29.921   1.302
71871W        W33182  44.327  18.248  12.952
71872W        W33183  12.320  25.565  12.879
71873W        W33184  16.740   9.171   2.810
71874W        W33185  42.918  14.221   4.757
71875W        W33186  10.685   1.417  14.505
71876W        W33187  39.337  27.024  13.933
71877W        W33188  15.253   8.805  12.495
71878W        W33189  22.077  22.687  14.016
71879W        W33190  29.992  28.461   4.701
71880W        W33191  23.032  35.548  11.090
71881W        W33192  13.600  42.829  13.401
71882W        W33193  20.660   1.838  12.093
71883W        W33194   9.255  14.702  10.901
71884W        W33195  12.205  44.917  12.854
71885W        W33196  40.492  10.262  14.476
71886W        W33197  32.399   3.931   0.760
71887W        W33198  19.218   4.386  10.448
71888W        W33199  42.032  28.514  12.852
71889W        W33200  32.498  16.787  12.399
71890W        W33201  11.759  25.199   4.127
71891W        W33202  30.973  27.582  14.931
71892W        W33203   8.684  42.346   2.818
71893W        W33204  36.458  37.556   1.347
71894W        W33205  39.354  26.962  11.598
71895W        W33206   2.461  31.466  10.504
71896W        W33207  33.430   1.246  12.947
71897W        W33208  35.377  13.141  13.459
71898W        W33209  28.065  29.542   0.820
71899W        W33210  18.127  32.509   2.750
71900W        W33211   7.791   6.788  13.825
71901W        W33212  40.971  14.623  10.419
71902W        W33213  29.954  26.671   0.424
71903W        W33214   1.283  15.305   2.232
71904W        W33215  12.302  18.579  14.489
71905W        W33216  18.721  23.548   4.686
71906W        W33217  28.096  25.569  14.450
71907W        W33218  23.581   1.309   2.717
71908W        W33219  19.229  32.120   0.478
71909W        W33220   5.268  16.116   1.321
71910W        W33221   1.430  42.967  11.113
71911W        W33222  40.834  28.099  11.102
71912W        W33223  40.813  36.515   0.801
71913W        W33224  29.506  25.617  14.510
71914W        W33225   4.408  38.352  11.001
71915W        W33226  20.168  25.087  14.863
71916W        W33227   9.796   0.338   0.428
71917W        W33228  22.529  10.358   3.286
71918W        W33229  25.177  44.940   0.905
71919W        W33230  34.900  41.990  14.502
71920W        W33231  13.819  17.625  10.607
71921W        W33232  32.431  39.953  10.939
71922W        W33233  42.970  37.447  10.888
71923W        W33234  15.613  31.947  11.884
71924W        W33235  22.189  23.698   0.285
71925W        W33236  23.993  32.431  14.305
71926W        W33237  24.176   9.159   4.603
71927W        W33238   8.718  25.990   3.670
71928W        W33239  23.024   4.340  13.891
71929W        W33240  12.332  24.104  11.415
71930W        W33241  10.701  30.003  12.021
71931W        W33242  28.020  27.594   4.137
71932W        W33243  30.930   1.867   4.315
71933W        W33244  16.578  41.292   3.656
71934W        W33245  12.822  24.029   3.312
71935W        W33246   3.740   2.405   4.707
71936W        W33247  40.004  26.639   2.707
71937W        W33248   6.723  21.103  14.413
71938W        W33249  44.808   0.831  12.474
71939W        W33250   2.815   6.233   1.850
71940W        W33251  10.374  16.692   2.411
71941W        W33252  17.293  26.533   0.247
71942W        W33253  22.153  43.011   3.386
71943W        W33254   1.347   2.410   3.818
71944W        W33255  14.712   1.266   2.270
71945W        W33256  22.123  18.760   2.870
71946W        W33257  42.350  20.689   3.794
71947W        W33258  30.053  26.631   2.734
71948W        W33259  21.541  18.576   3.352
71949W        W33260  42.479  17.187  13.545
71950W        W33261   7.761  23.582   1.220
71951W        W33262  37.973  14.141   2.303
71952W        W33263  44.357  20.258   0.955
71953W        W33264  12.652   5.885  14.493
71954W        W33265   5.330  31.958  14.790
71955W        W33266  40.388  41.497   2.747
71956W        W33267   4.749  43.420  10.605
71957W        W33268  34.052   3.361   2.393
71958W        W33269  10.742  39.470   2.774
71959W        W33270  30.505  21.087   0.347
71960W        W33271  41.447  25.188  13.862
71961W        W33272  12.156  17.238   4.352
71962W        W33273   5.377  21.089  14.515
71963W        W33274  29.062  13.756  14.280
71964W        W33275  44.474  32.925  11.065
71965W        W33276  18.251  10.775   1.720
71966W        W33277  42.380  43.337  12.368
71967W        W33278  40.947  36.366  12.432
71968W        W33279   3.445   3.849  14.453
71969W        W33280  25.143  26.615  14.808
71970W        W33281  31.501  37.840   3.820
71971W        W33282  31.064   3.875  10.922
71972W        W33283   0.400  27.518   4.638
71973W        W33284   5.823  10.176   3.285
71974W        W33285   4.304  19.626   1.301
71975W        W33286  39.027  30.658   0.398
71976W        W33287  44.268  12.821   1.714
71977W        W33288   9.201  14.121  10.079
71978W        W33289  13.802  36.098  13.541
71979W        W33290   9.330  30.131   3.687
71980W        W33291  24.712  16.638   2.775
71981W        W33292  40.828   8.689   3.711
71982W        W33293  37.540  34.514  13.450
71983W        W33294  13.292   2.304  13.807
71984W        W33295  12.352   5.258  11.008
71985W        W33296  29.469   4.408  10.912
71986W        W33297  17.165  21.747  14.348
71987W        W33298  43.395   8.852  11.416
71988W        W33299  32.933  31.444  12.971
71989W        W33300  42.409   9.692   3.758
71990W        W33301   1.425  12.767   0.473
71991W        W33302  10.340  41.891   2.295
71992W        W33303  37.066   3.275   0.245
71993W        W33304  33.115   2.839  12.061
71994W        W33305  22.642  42.796  12.892
71995W        W33306  41.004  26.028  14.302
71996W        W33307  22.069  13.220   4.189
71997W        W33308  36.902   5.823  12.000
71998W        W33309   2.722  19.153   0.289
71999W        W33310  29.061  28.580  12.037
72000W        W33311   7.317  10.723   0.350
72001W        W33312  11.797  25.493   3.636
72002W        W33313  20.114  31.519   0.265
72003W        W33314  40.423   2.244  12.387
72004W        W33315  19.056  23.187  13.407
72005W        W33316  39.834  32.449   1.218
72006W        W33317  36.901  12.202   1.899
72007W        W33318  16.641  34.569   2.400
72008W        W33319  39.810   0.884   4.263
72009W        W33320  39.995   8.403  11.032
72010W        W33321  26.207  33.018   2.271
72011W        W33322  42.361  13.265  13.854
72012W        W33323  38.474  36.346  10.639
72013W        W33324  22.069  14.250   2.373
72014W        W33325  17.762  40.919   3.289
72015W        W33326  13.204  27.040   2.766
72016W        W33327  43.478   7.320   0.354
72017W        W33328  38.388   5.267   4.169
72018W        W33329  19.239  38.914   1.215
72019W        W33330   0.863  29.015   4.228
72020W        W33331  36.408  33.440   3.846
72021W        W33332  40.389  26.636  13.891
72022W        W33333  15.626  42.885  11.548
72023W        W33334  16.729  23.700  11.946
72024W        W33335   5.417   0.775  12.493
72025W        W33336  33.592  20.742   4.326
72026W        W33337  39.824  30.417   1.788
72027W        W33338  25.502   1.242   3.201
72028W        W33339  39.937  37.036   2.178
72029W        W33340  16.111   4.331  11.473
72030W        W33341  23.047  16.810   4.203
72031W        W33342   4.372  42.778   2.391
72032W        W33343   0.743   0.258  14.996
72033W        W33344   8.243  24.174   1.374
72034W        W33345   6.911   0.838   2.384
72035W        W33346  43.017  25.528  10.984
72036W        W33347  43.451  40.353  11.561
72037W        W33348  20.633  40.432   0.366
72038W        W33349  18.612  43.919  12.872
72039W        W33350  44.405  12.122   4.213
72040W        W33351  10.254  15.125  11.606
72041W        W33352  20.736   7.769  11.924
72042W        W33353  19.052  16.607   3.659
72043W        W33354  25.097  21.191  13.502
72044W        W33355  25.574  10.318  15.000
72045W        W33356   0.932  29.048  11.873
72046W        W33357  22.017  37.400   5.278
72047W        W33358  42.320  20.634   1.278
72048W        W33359  26.697  16.265   0.852
72049W        W33360  33.945   0.278  12.007
72050W        W33361  38.941  11.276  13.859
72051W        W33362  44.823  43.767  13.000
72052W        W33363   6.867  10.217   0.463
72053W        W33364  41.513  16.665   1.698
72054W        W33365  14.598  39.390   0.243
72055W        W33366   8.717  25.051   1.329
72056W        W33367  31.111  16.248  12.508
72057W        W33368  17.300  17.799  14.481
72058W        W33369   6.757  38.473   3.720
72059W        W33370  40.331  16.253   0.334
72060W        W33371  35.913  36.913   1.245
72061W        W33372  41.024  20.553   2.827
72062W        W33373  39.465   1.252   0.365
72063W        W33374   3.389  14.812   0.279
72064W        W33375   6.745   0.865   4.704
72065W        W33376  14.297   4.905  11.981
72066W        W33377  42.526   1.869   3.849
72067W        W33378  39.829  15.649  10.985
72068W        W33379  35.049   8.209  10.895
72069W        W33380  32.524  43.451  14.482
72070W        W33381  15.640  18.281   3.217
72071W        W33382  29.144  41.985   1.740
72072W        W33383  32.594  33.394   0.727
72073W        W33384  26.125  25.660  11.584
72074W        W33385  14.258   3.348  13.013
72075W        W33386  29.430   3.456   3.733
72076W        W33387  11.628   4.860  10.535
72077W        W33388   9.385   2.231  10.926
72078W        W33389   6.760   7.227   2.788
72079W        W33390  37.082  22.500  12.354
72080W        W33391  32.140  21.678  10.502
72081W        W33392   6.361  17.287  11.517
72082W        W33393  44.305  40.836   4.281
72083W        W33394  21.625  39.367  14.874
72084W        W33395  13.127   3.301  12.578
72085W        W33396  17.077  16.290   3.730
72086W        W33397   1.792   6.273   3.740
72087W        W33398  27.531  11.709  12.897
72088W        W33399  36.957  28.521  11.097
72089W        W33400  10.172  10.274   9.926
72090W        W33401  20.593   7.304  11.925
72091W        W33402  28.963  23.572  11.869
72092W        W33403  23.115   9.646   0.251
72093W        W33404  28.031  35.105   2.199
72094W        W33405  42.397  11.697  12.538
72095W        W33406  19.050  18.223   2.858
72096W        W33407  23.608  26.525   4.792
72097W        W33408   5.221  43.962   1.736
72098W        W33409  29.994  19.120   4.729
72099W        W33410   3.318  40.852   2.338
72100W        W33411  42.933  10.157   4.692
72101W        W33412   6.796  43.917  12.580
72102W        W33413  32.456   7.775   0.943
72103W        W33414  26.077  17.729   3.671
72104W        W33415  12.309  16.291   0.469
72105W        W33416  19.093  33.939   0.276
72106W        W33417   1.377  37.375   4.601
72107W        W33418  29.526  26.953  12.842
72108W        W33419  13.620  37.542  11.886
72109W        W33420  38.047  31.492   3.146
72110W        W33421  44.925  37.075  11.121
72111W        W33422  39.367  20.639   1.752
72112W        W33423  20.768  11.830  14.946
72113W        W33424  17.073  36.475  14.343
72114W        W33425   3.735  13.173  12.823
72115W        W33426  32.112   9.837   2.790
72116W        W33427   5.775  14.734   0.897
72117W        W33428  12.740   9.647  11.997
72118W        W33429  40.879  18.652   4.643
72119W        W33430  20.767  27.620  14.865
72120W        W33431  27.530  41.435  14.382
72121W        W33432  16.189  33.121   4.752
72122W        W33433  42.512   6.920   3.738
72123W        W33434  24.076  24.197   4.302
72124W        W33435  42.378  32.953   2.190
72125W        W33436  44.862   4.876  14.766
72126W        W33437  42.455  41.826   1.273
72127W        W33438  40.911  40.942  13.408
72128W        W33439   1.296  12.786   4.261
72129W        W33440  44.972  34.598  13.380
72130W        W33441  24.643  13.211  12.419
72131W        W33442  12.629  31.035   3.237
72132W        W33443   6.208  21.515   1.858
72133W        W33444  27.630  26.147   1.711
72134W        W33445  24.724  39.016  12.467
72135W        W33446  30.618  14.181  12.390
72136W        W33447  44.769  19.697   2.870
72137W        W33448  42.876   1.782   1.214
72138W        W33449  28.024  18.107  11.961
72139W        W33450  15.279  16.765   4.310
72140W        W33451  33.023  10.220  14.819
72141W        W33452  41.482  18.555   0.314
72142W        W33453  30.522  30.472  12.956
72143W        W33454   0.763  12.828   2.817
72144W        W33455  29.542   8.225  12.412
72145W        W33456  39.961   3.872   0.264
72146W        W33457  14.755  20.251   3.650
72147W        W33458  31.009  19.584   5.110
72148W        W33459   8.747  32.011  11.504
72149W        W33460   9.768  30.941  10.436
72150W        W33461  39.332  40.939   4.120
72151W        W33462  21.263  31.644   3.356
72152W        W33463  28.630  40.425  12.404
72153W        W33464  18.558   3.404   3.268
72154W        W33465  17.106  27.189   0.783
72155W        W33466  18.150  17.298   3.673
72156W        W33467  40.851   5.380  11.946
72157W        W33468   3.925  24.170  13.844
72158W        W33469   3.861  18.227   0.847
72159W        W33470  17.760  39.493  11.953
72160W        W33471  43.487  43.413   4.248
72161W        W33472  14.241  44.465  13.806
72162W        W33473  35.994   1.393   0.906
72163W        W33474  25.595  30.112   0.780
72164W        W33475  32.534   7.192  11.513
72165W        W33476  38.867  18.759   4.741
72166W        W33477  14.217  14.122   1.293
72167W        W33478  23.642  10.201   3.227
72168W        W33479  42.397  44.285  13.887
72169W        W33480  35.076  17.650  13.875
72170W        W33481  36.515  24.165   4.810
72171W        W33482  16.258  33.552  12.886
72172W        W33483  28.613  37.034  13.364
72173W        W33484  29.087  10.305  12.838
72174W        W33485  10.720  30.076   2.813
72175W        W33486   9.325   3.942   2.313
72176W        W33487  35.101  17.250   4.352
72177W        W33488  34.470  15.101   1.371
72178W        W33489  23.213  28.633  11.440
72179W        W33490  25.515  22.155  14.977
72180W        W33491  44.283  24.175  13.056
72181W        W33492  36.861  39.480  14.343
72182W        W33493  11.270   4.904  11.067
72183W        W33494  29.590  10.304  12.867
72184W        W33495   5.409  26.589   3.870
72185W        W33496  24.057   8.345  13.034
72186W        W33497   9.670  38.952  14.302
72187W        W33498  41.448  34.005   0.901
72188W        W33499  13.242  25.661  14.341
72189W        W33500  32.571  31.443   1.362
72190W        W33501  31.028  13.626  13.531
72191W        W33502   8.396  18.648   0.287
72192W        W33503  14.790  37.903  12.435
72193W        W33504  11.674  26.032  11.860
72194W        W33505  14.718   3.414   0.915
72195W        W33506   1.861  41.858  12.961
72196W        W33507  16.715   3.413   3.804
72197W        W33508  23.700   8.277  11.474
72198W        W33509  36.438  36.024  11.502
72199W        W33510  37.892  23.069   0.752
72200W        W33511  30.134  13.750  12.521
72201W        W33512  22.681   7.862   9.929
72202W        W33513  14.336  31.438  11.979
72203W        W33514   0.828  12.618  14.342
72204W        W33515  11.822  11.744  12.983
72205W        W33516  21.649  32.500   4.751
72206W        W33517  30.450   7.745   2.677
72207W        W33518  25.475  19.264   1.933
72208W        W33519  20.538  25.623   4.794
72209W        W33520  23.195  20.576  12.479
72210W        W33521  13.344  34.049  14.359
72211W        W33522  40.916  38.515  14.857
72212W        W33523  26.572  25.700   2.215
72213W        W33524   6.739   5.837  13.449
72214W        W33525  22.160  44.901   2.849
72215W        W33526  35.540  26.070   3.181
72216W        W33527  25.995  31.489   0.251
72217W        W33528  42.933  31.075  10.972
72218W        W33529  23.505  38.032  13.415
72219W        W33530   7.266   7.709  13.413
72220W        W33531   6.704  31.570  14.005
72221W        W33532   3.310  24.167   1.429
72222W        W33533  16.159   0.329   2.686
72223W        W33534  29.098  40.341  11.379
72224W        W33535  42.815   9.881  12.460
72225W        W33536  21.596  14.778  11.001
72226W        W33537   8.364  17.213  10.951
72227W        W33538  29.546  42.899   3.377
72228W        W33539  21.644  27.493   1.324
72229W        W33540  39.423  31.138   1.839
72230W        W33541  12.674  35.393  12.090
72231W        W33542  35.395  18.652  13.026
72232W        W33543   4.739  13.235   1.356
72233W        W33544   2.944  39.419  14.298
72234W        W33545   7.862  10.871  14.461
72235W        W33546  30.486  36.084  12.885
72236W        W33547  31.986   6.752  12.977
72237W        W33548  12.673  11.837   3.752
72238W        W33549  36.868   9.249   4.776
72239W        W33550  10.178  19.640   4.299
72240W        W33551  17.113  26.061   3.159
72241W        W33552  31.936  35.587   3.639
72242W        W33553  44.792  35.383   4.685
72243W        W33554  43.901  25.655   4.187
72244W        W33555  42.468  37.871  13.826
72245W        W33556  29.974  42.472   0.473
72246W        W33557  28.462  17.138   2.316
72247W        W33558  34.023  21.133   2.731
72248W        W33559  27.173   4.219   0.300
72249W        W33560  17.587  14.622   4.330
72250W        W33561  11.314  30.053  13.524
72251W        W33562  16.683   3.899   1.728
72252W        W33563   2.806  33.588  14.358
72253W        W33564  17.779  10.772   1.914
72254W        W33565  17.573  21.064  13.453
72255W        W33566  44.853   4.286  13.894
72256W        W33567   2.313  44.310   2.295
72257W        W33568  30.969  34.949  10.420
72258W        W33569  35.481  39.884  13.529
72259W        W33570   0.404  15.801  14.281
72260W        W33571  26.486   7.762   2.282
72261W        W33572  17.246  43.499  13.015
72262W        W33573   8.367  42.492   1.767
72263W        W33574   0.255  14.148   3.797
72264W        W33575  27.118   0.422   2.234
72265W        W33576  35.510  37.532  14.871
72266W        W33577  24.710  33.525  13.020
72267W        W33578   9.700  13.275  10.462
72268W        W33579  37.088  20.714  10.902
72269W        W33580   1.274   2.784   4.712
72270W        W33581   6.362  22.741  10.425
72271W        W33582  34.558  40.469  11.571
72272W        W33583  23.040   8.197  11.594
72273W        W33584  38.060  44.841   4.705
72274W        W33585  14.171  28.115   1.817
72275W        W33586  42.331   4.712  11.985
72276W        W33587  13.681  40.810   2.763
72277W        W33588   5.882  20.734   4.270
72278W        W33589  20.616  12.761   2.681
72279W        W33590   3.366   6.753  14.503
72280W        W33591   0.448  29.439   4.197
72281W        W33592  30.143  29.991   2.335
72282W        W33593  18.695  15.169   3.754
72283W        W33594  15.240  27.029   4.184
72284W        W33595  25.076   6.341   4.618
72285W        W33596  12.778   9.703  12.360
72286W        W33597  26.182  32.437  11.052
72287W        W33598   8.858  44.290   1.433
72288W        W33599  21.087  19.778  13.914
72289W        W33600  18.238  31.577  14.408
72290W        W33601  32.402  39.848  14.452
72291W        W33602  31.577  38.505   0.474
72292W        W33603  39.522  41.990  13.538
72293W        W33604  37.878  38.522  11.597
72294W        W33605  37.397  30.552  11.947
72295W        W33606   6.339  41.442  13.932
72296W        W33607  15.245  19.564   0.954
72297W        W33608  18.727  27.995   2.833
72298W        W33609   3.248   2.312   2.796
72299W        W33610  32.966   1.769  14.885
72300W        W33611   5.404  31.415   4.678
72301W        W33612  37.863   3.392   3.747
72302W        W33613  32.555  38.035  12.363
72303W        W33614  39.027   7.738   1.439
72304W        W33615  34.045  29.097   0.734
72305W        W33616  32.905  40.502   1.727
72306W        W33617  33.490   8.749  14.844
72307W        W33618  11.663  24.567   4.229
72308W        W33619  43.303   2.826   4.806
72309W        W33620  14.590  29.169   2.662
72310W        W33621   7.672  35.477  11.023
72311W        W33622  15.600  23.061   5.238
72312W        W33623  15.086  27.942   1.772
72313W        W33624  15.329   5.428   4.319
72314W        W33625  22.077   2.321   3.336
72315W        W33626  24.131  17.563   4.204
72316W        W33627  44.437   6.860   9.979
72317W        W33628  22.706  20.263  10.005
72318W        W33629  15.595  32.117  12.984
72319W        W33630  11.133   0.265  13.013
72320W        W33631   4.433  17.604  12.023
72321W        W33632   5.326  30.423  13.405
72322W        W33633   7.873  14.600  12.391
72323W        W33634  12.725  28.177   2.242
72324W        W33635  37.903  37.406  12.551
72325W        W33636  17.677  30.642   3.788
72326W        W33637   0.375   9.233   4.775
72327W        W33638  24.721   6.821   2.898
72328W        W33639  34.024   1.923   2.405
72329W        W33640   2.790   0.289   3.351
72330W        W33641  31.926  39.005   2.372
72331W        W33642  29.081  29.148  14.319
72332W        W33643  24.491   5.328  13.419
72333W        W33644  32.960  19.534  13.045
72334W        W33645   3.855  16.783   4.816
72335W        W33646  32.630  26.163   2.881
72336W        W33647  41.974  40.995  14.323
72337W        W33648   4.831   6.904   2.239
72338W        W33649  39.828  40.043  11.913
72339W        W33650  20.124  18.093   0.418
72340W        W33651   3.357  15.238   0.816
72341W        W33652   9.799  30.456   3.157
72342W        W33653   6.874  22.068  12.043
72343W        W33654  30.012  39.926  14.494
72344W        W33655  32.417  37.081   4.195
72345W        W33656   5.699   3.349   1.385
72346W        W33657  41.394  19.578   4.689
72347W        W33658  39.462  32.578  12.924
72348W        W33659  16.704   4.912  10.482
72349W        W33660  12.271  25.546  13.904
72350W        W33661  37.411  26.992   2.900
72351W        W33662  35.105  16.120  11.122
72352W        W33663  32.068   8.792  14.775
72353W        W33664   0.888   1.915  10.910
72354W        W33665  12.735  23.679   9.603
72355W        W33666  19.642   3.740   0.861
72356W        W33667   5.304  44.892   2.388
72357W        W33668  16.194  44.945   4.767
72358W        W33669  15.284  12.629  10.547
72359W        W33670  25.471   9.374   0.296
72360W        W33671  34.893  20.687  13.964
72361W        W33672   1.752   7.356  13.820
72362W        W33673  21.134  16.670   3.863
72363W        W33674  28.469  13.676  13.424
72364W        W33675  44.442  29.168  11.874
72365W        W33676  12.124  28.669  14.298
72366W        W33677  39.899   2.397   2.316
72367W        W33678  42.433  35.943   4.784
72368W        W33679  37.911   5.697   4.737
72369W        W33680  21.240  12.716   4.706
72370W        W33681  40.467  44.292   3.745
72371W        W33682  12.148  43.453   3.189
72372W        W33683  32.612  22.633   4.236
72373W        W33684  13.293  20.225   2.273
72374W        W33685   5.891  41.945  13.445
72375W        W33686   9.734   0.809   2.358
72376W        W33687  16.726  28.183   1.824
72377W        W33688  21.035   0.849   5.163
72378W        W33689  20.572  13.200  10.941
72379W        W33690  24.070  40.386   0.837
72380W        W33691  15.282  42.285   0.296
72381W        W33692   7.760   5.807  13.966
72382W        W33693   2.755  43.273  12.394
72383W        W33694  43.505  15.293   1.319
72384W        W33695  32.612   1.923  14.407
72385W        W33696  19.235  27.071  10.535
72386W        W33697  11.215   1.398  10.417
72387W        W33698  33.449  28.505  13.806
72388W        W33699  23.060   5.263   4.674
72389W        W33700  35.387   6.887   1.241
72390W        W33701  38.560  44.813   2.194
72391W        W33702  36.524  40.927  12.952
72392W        W33703  34.614  34.471  11.015
72393W        W33704  37.944  44.433  14.960
72394W        W33705  24.083  17.590   2.786
72395W        W33706  26.501  30.417  10.947
72396W        W33707   7.348   5.931  12.362
72397W        W33708  27.506   5.291  14.030
72398W        W33709  29.116  44.285  11.007
72399W        W33710  13.215   6.347   3.371
72400W        W33711   3.718  13.840   0.356
72401W        W33712  23.599  44.851  12.847
72402W        W33713  20.755  28.156   4.119
72403W        W33714   7.355   9.714  12.941
72404W        W33715  44.335  29.578   4.822
72405W        W33716  12.212   8.298  13.929
72406W        W33717  35.486  28.105   1.728
72407W        W33718  39.022   6.204  14.439
72408W        W33719  12.611  23.727  14.406
72409W        W33720  39.844  14.643  11.082
72410W        W33721  26.507  22.013  10.406
72411W        W33722  44.442  37.900   2.855
72412W        W33723  10.766   2.455   4.677
72413W        W33724  12.340  27.512   0.319
72414W        W33725  32.010  27.143  12.520
72415W        W33726  42.487  27.449  11.429
72416W        W33727  13.800  24.001   2.706
72417W        W33728  25.098  25.471   3.386
72418W        W33729  28.970   9.311  13.942
72419W        W33730  21.127  31.029  12.397
72420W        W33731  32.071  35.433  12.956
72421W        W33732  21.052   3.729   2.328
72422W        W33733  43.918  25.600   2.329
72423W        W33734  41.535  15.770  14.450
72424W        W33735  32.420  41.508  10.119
72425W        W33736  38.355   0.973   4.322
72426W        W33737  43.468  23.230  13.530
72427W        W33738  24.081  37.880  14.381
72428W        W33739   8.182  40.973   0.443
72429W        W33740  13.196  16.137  10.407
72430W        W33741  21.051  12.672  13.833
72431W        W33742  16.703   6.877  12.505
72432W        W33743  44.932  37.897  10.915
72433W        W33744  31.645  11.650   4.726
72434W        W33745   3.217  31.438  11.935
72435W        W33746  15.636  33.887  14.870
72436W        W33747   7.859  33.594   4.693
72437W        W33748  32.517  44.426  10.439
72438W        W33749  37.361  42.829  12.558
72439W        W33750   8.372  17.705   1.367
72440W        W33751  21.179  14.262   0.362
72441W        W33752  14.645  25.635   4.279
72442W        W33753  40.929  19.692  12.993
72443W        W33754  10.374  15.623   4.339
72444W        W33755  27.566  34.459  11.067
72445W        W33756  21.188  30.627  10.035
72446W        W33757  21.522  24.495   2.683
72447W        W33758  44.895  37.359   4.230
72448W        W33759  20.673  42.325  10.899
72449W        W33760  31.461  33.516   0.780
72450W        W33761  30.436  43.405   3.649
72451W        W33762  36.487   9.800   1.342
72452W        W33763  39.943  10.176  11.953
72453W        W33764  21.557   8.728  12.481
72454W        W33765   6.705  28.143   4.650
72455W        W33766  44.923   8.690   1.261
72456W        W33767  19.757  33.123  11.908
72457W        W33768  31.480  43.011   2.277
72458W        W33769  10.852   4.266  13.048
72459W        W33770  25.645   7.350  10.008
72460W        W33771   1.453  28.445  11.425
72461W        W33772  34.934   5.284   0.745
72462W        W33773  11.720  12.630   0.727
72463W        W33774   2.306   4.730   9.946
72464W        W33775  19.541  38.470  11.040
72465W        W33776  25.680  35.921   0.339
72466W        W33777   5.242   8.670   1.697
72467W        W33778  22.615   5.200  13.385
72468W        W33779  22.252  35.559   1.383
72469W        W33780  39.033  14.169  13.799
72470W        W33781  25.045  31.555   1.746
72471W        W33782  30.922  16.118   1.390
72472W        W33783   3.809  42.341   0.275
72473W        W33784  42.506  38.474  13.909
72474W        W33785  39.970   4.424   3.329
72475W        W33786  43.472  20.673   0.782
72476W        W33787  32.065  42.792   2.371
72477W        W33788  11.766  17.747  14.940
72478W        W33789   2.909  11.138   2.794
72479W        W33790   8.882   1.822   4.261
72480W        W33791  27.184   1.760   4.324
72481W        W33792  14.731   0.849  13.353
72482W        W33793   6.266  23.663   3.242
72483W        W33794  14.738   5.381  14.334
72484W        W33795  43.408  10.760  11.054
72485W        W33796  10.788  28.153  14.932
72486W        W33797  26.610  38.428   2.401
72487W        W33798  30.534  12.223  13.953
72488W        W33799  18.746  44.272   0.438
72489W        W33800   2.810   7.329  12.076
72490W        W33801   3.910   8.221  14.404
72491W        W33802   4.423  13.146   4.679
72492W        W33803  36.435   6.245   0.410
72493W        W33804  13.149  21.147   0.381
72494W        W33805  21.532  16.580  14.294
72495W        W33806   2.873  13.629  12.466
72496W        W33807  38.368   8.379   4.639
72497W        W33808  28.496   7.287   2.215
72498W        W33809   0.450  36.463  13.541
72499W        W33810  40.530  23.011  14.978
72500W        W33811  39.452   1.422  11.476
72501W        W33812  36.949  10.324  13.926
72502W        W33813  43.466  17.194  12.008
72503W        W33814  18.218   8.364   2.249
72504W        W33815  42.961  16.193   4.331
72505W        W33816  28.562   2.810  11.111
72506W        W33817   5.314  20.598   0.765
72507W        W33818  31.554   5.358  10.622
72508W        W33819  30.135  20.110   0.363
72509W        W33820  17.305   1.896  11.957
72510W        W33821  28.483  26.521   3.371
72511W        W33822  26.972   6.768  10.073
72512W        W33823  27.482  10.244  10.481
72513W        W33824  33.929  37.046   1.327
72514W        W33825   0.980  44.338  14.384
72515W        W33826   3.824   4.348   3.312
72516W        W33827  24.540  21.562   9.520
72517W        W33828  18.605   7.406  10.999
72518W        W33829  11.242  22.637   4.294
72519W        W33830  13.624  22.234   0.909
72520W        W33831  39.058  29.968  10.464
72521W        W33832  44.498  32.599  13.818
72522W        W33833  26.647  31.481   2.218
72523W        W33834  33.124  39.352  13.040
72524W        W33835  23.035  23.523   3.333
72525W        W33836   2.852   4.272   2.232
72526W        W33837  35.449  41.464  12.969
72527W        W33838  19.713  19.692   0.354
72528W        W33839  29.110  16.254  12.927
72529W        W33840  34.977  10.357  14.916
72530W        W33841  16.643  24.593   0.768
72531W        W33842  30.563  44.805  12.426
72532W        W33843  17.142  17.165   4.174
72533W        W33844  29.602  10.152  10.539
72534W        W33845  28.602  27.106   2.286
72535W        W33846  19.202  24.134   3.729
72536W        W33847  18.077  39.012   4.190
72537W        W33848  36.949  19.720  11.535
72538W        W33849  42.526   9.206  11.548
72539W        W33850   4.401  20.619  13.938
72540W        W33851   9.863  34.390   2.295
72541W        W33852  15.138  17.605   9.552
72542W        W33853  40.911  40.520  10.974
72543W        W33854  43.452  13.675  13.989
72544W        W33855  43.945  33.588   2.867
72545W        W33856  43.366  22.010  12.895
72546W        W33857  36.929  43.393   4.644
72547W        W33858   2.403  42.323  11.121
72548W        W33859  35.929   1.430   0.358
72549W        W33860  24.182  28.105   1.357
72550W        W33861  18.630  44.006   4.158
72551W        W33862  39.856  35.021  14.875
72552W        W33863  40.463   5.708  12.463
72553W        W33864  39.407   7.315  10.466
72554W        W33865   7.370  18.100  11.979
72555W        W33866  21.139  35.358  12.003
72556W        W33867  33.956  29.957   2.211
72557W        W33868  39.996  30.050   9.666
72558W        W33869  37.006  22.724  10.958
72559W        W33870   4.276   7.238  13.329
72560W        W33871   5.922  42.836  13.018
72561W        W33872  29.489  12.264   2.755
72562W        W33873  10.228  34.083  12.048
72563W        W33874  34.024   5.716   2.407
72564W        W33875  29.452  21.069  12.482
72565W        W33876   1.348  38.529   0.869
72566W        W33877  20.722  24.713   0.304
72567W        W33878  35.513  29.461  12.969
72568W        W33879  10.352  18.766  14.361
72569W        W33880  33.587  42.833   5.238
72570W        W33881  20.704  35.489   0.824
72571W        W33882  29.013  24.489   3.676
72572W        W33883  35.432  34.929   4.305
72573W        W33884   8.775  44.813   4.782
72574W        W33885  19.065  26.655   0.248
72575W        W33886  44.934   6.753   0.818
72576W        W33887  14.697  43.804   4.835
72577W        W33888   5.230  15.091   4.765
72578W        W33889   5.255  36.529  10.472
72579W        W33890  10.714  14.680   2.741
72580W        W33891   8.272  15.800  11.572
72581W        W33892  28.521   2.353   4.718
72582W        W33893  18.633  19.153   3.322
72583W        W33894   5.228   8.395   4.601
72584W        W33895  15.204  20.540   3.386
72585W        W33896   8.380  42.886   0.752
72586W        W33897  35.936  39.477  13.915
72587W        W33898  41.835  11.341  13.532
72588W        W33899  35.974   8.353   1.402
72589W        W33900  23.617  29.430   1.791
72590W        W33901  20.536   9.787  13.846
72591W        W33902  42.522  10.711  10.464
72592W        W33903   5.773  29.586   2.711
72593W        W33904  28.515  35.949   3.806
72594W        W33905  20.561   9.220   2.780
72595W        W33906  17.798  16.194   9.676
72596W        W33907  17.243   6.222  12.084
72597W        W33908  20.130  27.052   1.749
72598W        W33909  41.882   3.948   2.809
72599W        W33910  36.923   1.786  14.966
72600W        W33911  36.975  42.429  10.030
72601W        W33912  15.317  16.246   2.869
72602W        W33913   8.394   3.759  14.867
72603W        W33914   7.288   8.705  11.052
72604W        W33915  17.102  31.040   1.883
72605W        W33916  24.124   7.821  12.837
72606W        W33917   2.792  33.067  13.335
72607W        W33918  41.919   3.215  11.983
72608W        W33919  29.060  11.759  11.042
72609W        W33920  15.612   7.220   0.759
72610W        W33921   6.701  15.124  14.984
72611W        W33922  36.970  33.603   5.183
72612W        W33923  20.197  32.891  11.612
72613W        W33924  34.591  17.743  10.434
72614W        W33925  19.622  10.780  14.843
72615W        W33926   3.859  22.563  12.392
72616W        W33927  18.294  38.510   0.372
72617W        W33928  12.331  38.478   0.775
72618W        W33929   2.776  39.058   0.914
72619W        W33930  38.855  33.571   4.606
72620W        W33931  26.467  43.349   0.459
72621W        W33932  14.263  38.901   3.862
72622W        W33933   7.334  27.070   4.329
72623W        W33934  10.295  43.949  11.561
72624W        W33935  26.702   8.787   3.633
72625W        W33936  11.696   1.441   2.853
72626W        W33937   7.753  18.781  14.434
72627W        W33938   2.380  29.956   2.812
72628W        W33939   9.752  15.175  13.845
72629W        W33940  39.402  31.944  12.881
72630W        W33941  22.623   5.808   0.794
72631W        W33942   8.807  37.448   3.255
72632W        W33943   8.718  22.614  13.419
72633W        W33944  41.403  22.518   4.338
72634W        W33945  16.239   5.346   3.362
72635W        W33946  15.583  26.086   5.215
72636W        W33947  23.672  23.232   1.300
72637W        W33948  27.079  38.918  14.343
72638W        W33949  33.021  14.629  13.541
72639W        W33950  18.621   6.278  11.522
72640W        W33951   1.859  10.254   0.966
72641W        W33952  12.844  34.563   4.255
72642W        W33953  22.746  43.829   4.693
72643W        W33954  35.446  32.486   3.829
72644W        W33955  44.757  37.999  12.354
72645W        W33956   5.214  19.757  13.876
72646W        W33957  42.516  28.561  12.553
72647W        W33958  14.788  21.532  13.063
72648W        W33959  30.414   4.356   3.731
72649W        W33960  37.913  41.871   1.404
72650W        W33961  27.666  43.473  14.453
72651W        W33962  26.654   3.226   9.997
72652W        W33963  42.848  22.606  12.519
72653W        W33964   0.883   6.784  11.875
72654W        W33965  37.470  27.011   4.168
72655W        W33966   5.862  28.086  14.021
72656W        W33967  44.829  13.621   0.888
72657W        W33968  32.127  11.316   2.745
72658W        W33969   8.792  41.526   1.863
72659W        W33970  44.371  44.938   2.675
72660W        W33971  11.746   2.885  11.542
72661W        W33972  43.424  27.023  11.018
72662W        W33973   3.755  41.954  13.480
72663W        W33974  27.538  21.576  13.331
72664W        W33975  14.296  30.079   0.929
72665W        W33976   3.392  30.027  11.390
72666W        W33977   6.870  29.036   1.440
72667W        W33978  41.406   1.283   2.880
72668W        W33979  12.133  14.292   0.820
72669W        W33980  35.057   2.818   0.355
72670W        W33981  29.941  33.085   2.261
72671W        W33982  19.152  30.920   4.226
72672W        W33983  41.043  38.540   2.355
72673W        W33984  21.183   3.863  14.398
72674W        W33985   1.777  21.575   1.278
72675W        W33986  16.174  37.576   2.870
72676W        W33987   6.329  18.201   2.815
72677W        W33988  12.298  32.464  11.987
72678W        W33989   6.349  43.437  12.836
72679W        W33990  40.033  18.549   3.639
72680W        W33991  33.412  22.193   4.728
72681W        W33992  30.128  23.538  14.498
72682W        W33993  31.975  28.944  14.417
72683W        W33994   2.944  21.039  13.797
72684W        W33995  37.389  34.079  11.115
72685W        W33996   9.366  22.180  11.547
72686W        W33997   4.395  31.480  14.877
72687W        W33998   6.835  24.086  11.489
72688W        W33999  23.063  17.139  13.940
72689W        W34000  26.570  23.997   2.351
72690W        W34001  37.433  36.382  14.766
72691W        W34002  10.331  19.777   0.418
72692W        W34003   3.835  42.926  13.519
72693W        W34004  38.900   3.282   4.681
72694W        W34005   2.393  28.074   3.324
72695W        W34006  35.855   6.779   1.325
72696W        W34007   9.157   3.385  13.022
72697W        W34008   6.238  36.983  12.933
72698W        W34009  40.404  33.579  14.924
72699W        W34010  31.432   6.346   0.933
72700W        W34011   6.213  10.663   4.198
72701W        W34012  10.346  36.892  12.417
72702W        W34013  36.918  33.399   4.798
72703W        W34014  37.550  24.564   1.695
72704W        W34015  40.406   1.916  11.090
72705W        W34016  12.638  14.604  13.912
72706W        W34017   4.711  24.653   3.366
72707W        W34018  44.979  13.646  10.603
72708W        W34019  34.519  38.556  11.613
72709W        W34020  26.037  32.529   1.855
72710W        W34021  30.641   8.739   0.379
72711W        W34022  35.488   1.421   4.768
72712W        W34023  16.236  12.157  14.481
72713W        W34024   9.663  34.940  10.519
72714W        W34025  32.478  22.248   2.352
72715W        W34026  44.932  36.368   3.683
72716W        W34027  40.941  44.390   3.867
72717W        W34028  22.659  40.822   4.684
72718W        W34029  24.193  18.571  11.372
72719W        W34030  28.582  19.778   0.965
72720W        W34031  40.466  30.496  13.327
72721W        W34032  12.636  12.692   3.707
72722W        W34033  10.291   6.686   3.365
72723W        W34034  28.029  11.356   1.757
72724W        W34035  28.973  19.605  13.890
72725W        W34036  11.266   8.179   0.389
72726W        W34037  26.566  17.171   4.135
72727W        W34038  11.629   7.871  10.585
72728W        W34039  10.374  17.757  12.413
72729W        W34040  38.365  28.128  14.298
72730W        W34041  41.000  26.580  10.896
72731W        W34042   9.847   2.920  13.978
72732W        W34043   5.204  43.816   0.903
72733W        W34044  42.472  28.126  13.981
72734W        W34045  20.047  30.528  11.116
72735W        W34046   6.709  35.545  14.952
72736W        W34047  19.587  42.828  14.998
72737W        W34048  14.238   1.379   9.972
72738W        W34049  36.487  42.463   4.834
72739W        W34050  44.330  39.828   1.714
72740W        W34051   1.440  16.116   3.760
72741W        W34052  34.008  17.075  11.387
72742W        W34053  43.909  35.974   3.158
72743W        W34054   0.300  22.140   0.948
72744W        W34055  19.762  20.555   4.244
72745W        W34056  26.171  15.288   4.628
72746W        W34057  13.228  44.898   1.927
72747W        W34058  40.929  29.144  13.500
72748W        W34059   0.387  37.844  14.988
72749W        W34060  17.277  14.779   3.213
72750W        W34061  36.041  44.334  13.942
72751W        W34062  31.471  33.014  11.892
72752W        W34063  12.675  37.923   1.220
72753W        W34064  40.388  32.990  11.405
72754W        W34065   9.749  15.100  11.093
72755W        W34066  19.751   4.275  14.299
72756W        W34067   7.863   2.891  10.545
72757W        W34068  32.474  27.148   1.397
72758W        W34069  20.134   1.261   1.399
72759W        W34070   6.685   3.393  11.892
72760W        W34071  21.665  29.920   4.277
72761W        W34072  10.257  38.414   4.817
72762W        W34073  21.261  36.363  11.510
72763W        W34074  15.165   9.378  12.926
72764W        W34075  24.013  36.894   3.272
72765W        W34076  15.236   0.387   1.372
72766W        W34077   4.359  20.635  12.993
72767W        W34078  32.113  26.071   2.230
72768W        W34079  14.103  18.172  14.309
72769W        W34080   2.359  15.607   1.815
72770W        W34081  13.309   1.753   0.906
72771W        W34082  36.364  25.047   2.740
72772W        W34083  32.044  31.999  13.383
72773W        W34084  17.215   0.427   4.199
72774W        W34085   8.769  34.469   4.211
72775W        W34086  15.115  27.196   2.214
72776W        W34087  29.007  29.160  12.049
72777W        W34088  21.212  31.433  14.275
72778W        W34089  19.118  42.391  13.907
72779W        W34090  10.707   9.379  11.611
72780W        W34091  16.760  18.681   4.736
72781W        W34092   9.722   1.435  13.403
72782W        W34093  15.788  17.707   3.858
72783W        W34094  36.060  44.423   1.391
72784W        W34095  21.193  36.548  12.941
72785W        W34096  33.520  14.140  10.607
72786W        W34097  37.357  22.116   1.381
72787W        W34098  44.285  28.155   2.397
72788W        W34099  29.964  37.512  11.558
72789W        W34100  10.723  24.211  13.387
72790W        W34101  36.433  31.024  11.420
72791W        W34102  41.951  38.524  13.891
72792W        W34103  21.221  43.394  12.995
72793W        W34104  40.948   5.286   4.642
72794W        W34105  41.887  29.996   1.390
72795W        W34106  44.829  27.586   0.967
72796W        W34107   2.265  42.028   0.303
72797W        W34108  44.958  19.723  11.566
72798W        W34109   5.743  36.484  12.046
72799W        W34110   8.811  35.025  12.096
72800W        W34111  29.493   0.944  14.408
72801W        W34112  29.501  40.932   4.667
72802W        W34113  18.132  25.033   5.171
72803W        W34114   9.186   7.196  14.456
72804W        W34115  28.468  34.596  13.544
72805W        W34116  36.042  41.003  12.469
72806W        W34117  17.221  16.781   4.243
72807W        W34118  16.318  25.581  14.466
72808W        W34119  32.025  33.455  12.504
72809W        W34120  28.523   7.858   0.861
72810W        W34121   1.737  32.569   1.774
72811W        W34122  41.834  29.106   1.304
72812W        W34123  22.243  10.260   3.821
72813W        W34124  18.572   6.228   0.398
72814W        W34125  41.535  41.484   4.734
72815W        W34126  35.488  12.212   1.410
72816W        W34127  25.013  16.589  12.878
72817W        W34128   1.927  17.571   3.264
72818W        W34129  36.879  42.357  13.911
72819W        W34130  36.047  14.197  11.575
72820W        W34131  28.156  16.722   4.269
72821W        W34132  19.644  10.641  12.468
72822W        W34133  21.245  11.635   4.144
72823W        W34134  25.662   9.296   2.835
72824W        W34135  18.577  23.023  11.476
72825W        W34136  12.332  24.210   1.327
72826W        W34137  38.973  12.812  10.616
72827W        W34138  18.159   9.713   3.256
72828W        W34139  29.567   1.908   3.845
72829W        W34140  23.152  27.648   4.714
72830W        W34141  15.127  37.901   0.310
72831W        W34142  33.463  30.165   2.693
72832W        W34143   8.375  34.119   4.767
72833W        W34144  42.000  42.302   4.613
72834W        W34145  36.924  27.576  10.107
72835W        W34146  26.510  40.308  12.949
72836W        W34147  37.356  39.412  11.492
72837W        W34148  15.164  35.369  13.926
72838W        W34149  21.561  28.113  14.293
72839W        W34150  37.397  44.843   2.406
72840W        W34151  41.366  25.125  13.409
72841W        W34152  37.949  20.271   3.378
72842W        W34153   9.155  37.374  12.505
72843W        W34154   5.724  17.787  14.888
72844W        W34155  35.930  40.417   4.301
72845W        W34156  14.594   1.734   0.466
72846W        W34157  22.544   7.802   2.377
72847W        W34158  20.246  19.182   0.349
72848W        W34159  17.590  27.645   0.345
72849W        W34160  30.556   0.883   4.748
72850W        W34161   8.221  33.112   1.807
72851W        W34162  18.745   5.836  13.941
72852W        W34163  44.992  30.450   1.393
72853W        W34164  21.553   9.708  11.601
72854W        W34165  23.069  34.903   4.149
72855W        W34166  41.039  42.986  13.491
72856W        W34167  10.734  32.912   0.372
72857W        W34168  13.221  38.481   3.813
72858W        W34169  29.027   1.750   2.756
72859W        W34170  38.910  39.424  14.474
72860W        W34171   6.798  35.461   1.406
72861W        W34172  35.586  44.839  11.458
72862W        W34173  17.117  32.087   4.310
72863W        W34174   4.432  38.831  14.817
72864W        W34175  30.928  36.495  14.370
72865W        W34176  26.979  23.526   3.149
72866W        W34177  23.501   9.192  14.809
72867W        W34178  11.794  12.816   3.203
72868W        W34179  37.450   2.454  12.558
72869W        W34180  33.881   2.306   4.747
72870W        W34181   8.807  35.049   2.281
72871W        W34182  23.577  38.989   5.175
72872W        W34183  32.089  35.464   2.708
72873W        W34184   3.756  10.858   0.726
72874W        W34185  40.317  34.988   4.658
72875W        W34186   7.408  17.638  13.323
72876W        W34187  24.148   9.727   0.778
72877W        W34188   3.227  20.104  10.559
72878W        W34189   1.964  38.395   4.176
72879W        W34190  44.840   9.194  11.955
72880W        W34191  25.036  41.928   3.715
72881W        W34192  22.560   9.699   2.902
72882W        W34193   0.401  12.742   1.788
72883W        W34194  24.076  24.122  13.918
72884W        W34195   8.239  16.274  14.495
72885W        W34196  37.474  40.965   0.864
72886W        W34197   3.391  11.357  12.935
72887W        W34198  38.348  17.184  14.910
72888W        W34199  23.219  12.224  11.412
72889W        W34200  23.211  30.508   0.271
72890W        W34201   8.314  20.201   4.141
72891W        W34202  31.526   5.729  11.107
72892W        W34203  13.737  28.961  10.505
72893W        W34204  32.985  26.512   3.746
72894W        W34205  26.486  27.079  12.059
72895W        W34206  33.480  27.957  11.512
72896W        W34207  26.619   6.837  12.013
72897W        W34208  33.528  33.574  11.442
72898W        W34209  17.063  39.504   4.685
72899W        W34210  29.153  19.201  11.515
72900W        W34211  24.978  40.965   4.221
72901W        W34212  15.190   3.280   4.723
72902W        W34213  11.197  20.707  14.989
72903W        W34214  20.054  22.567  12.086
72904W        W34215  41.416  40.492  11.471
72905W        W34216  43.858  24.612  13.962
72906W        W34217   8.266  22.500  12.461
72907W        W34218  22.028  23.612   3.665
72908W        W34219  13.132  31.956   1.901
72909W        W34220  31.613  32.102   4.678
72910W        W34221  16.620   9.390   4.120
72911W        W34222  23.067  24.567  13.485
72912W        W34223  11.667  27.975   1.357
72913W        W34224  39.865  39.479   2.385
72914W        W34225  12.297  28.159   1.414
72915W        W34226  42.390  18.187  13.399
72916W        W34227  37.522   6.815  14.808
72917W        W34228  34.467  26.033   0.388
72918W        W34229  36.856  15.153  14.276
72919W        W34230  19.552  26.625  10.504
72920W        W34231  14.670  42.433  14.293
72921W        W34232  37.398  22.201   2.674
72922W        W34233  16.235  17.584   1.261
72923W        W34234   7.355  29.477   0.795
72924W        W34235  10.649  23.202  11.941
72925W        W34236  11.740  13.340   3.822
72926W        W34237  40.312  21.216   2.399
72927W        W34238  14.317  11.647  14.831
72928W        W34239  11.624  12.361  12.544
72929W        W34240  23.233  17.220  12.466
72930W        W34241  26.065  25.040   2.675
72931W        W34242  37.348  14.261  13.009
72932W        W34243  16.758  10.352   2.278
72933W        W34244  12.758   9.231  13.520
72934W        W34245  30.447  39.056  12.013
72935W        W34246  44.889  39.017   3.826
72936W        W34247  44.332  36.575  14.899
72937W        W34248  22.685  37.437  12.984
72938W        W34249  41.973  29.612  14.866
72939W        W34250  41.402  36.022  11.484
72940W        W34251  13.344  30.005   2.739
72941W        W34252  31.076  41.951  11.918
72942W        W34253  20.079   7.298  14.386
72943W        W34254  16.811  34.396  13.402
72944W        W34255  23.703  30.099   3.232
72945W        W34256  10.781  11.622  11.876
72946W        W34257  15.310  11.739   1.397
72947W        W34258  36.403  36.564  13.500
72948W        W34259   0.925  36.366   4.777
72949W        W34260   7.757  17.181   1.711
72950W        W34261  18.074  25.205  10.453
72951W        W34262  29.569   9.378   0.392
72952W        W34263  19.585  14.744   1.795
72953W        W34264  42.928  19.189  13.015
72954W        W34265  22.670  32.488   3.745
72955W        W34266  44.392  17.139  12.014
72956W        W34267  37.431  23.554  14.975
72957W        W34268  29.520  19.724   3.761
72958W        W34269  15.802  19.054  10.637
72959W        W34270  28.499  13.811  10.485
72960W        W34271  12.164  30.592   2.343
72961W        W34272  39.007  11.691   2.326
72962W        W34273  25.151  23.238   1.247
72963W        W34274  18.774   6.309   1.267
72964W        W34275  37.026  36.381  13.015
72965W        W34276  42.312  26.601  11.443
72966W        W34277  43.862  13.623  14.433
72967W        W34278  20.597  20.642  14.860
72968W        W34279   8.759   5.852   3.689
72969W        W34280   5.822  39.978  12.448
72970W        W34281  11.821  29.504  13.921
72971W        W34282  36.444  13.645  12.984
72972W        W34283  21.133  40.998   2.306
72973W        W34284  33.881   1.949  10.497
72974W        W34285  18.702   1.270   4.271
72975W        W34286  12.264  21.018  11.424
72976W        W34287  37.491   1.246   3.320
72977W        W34288  42.297  12.353   3.809
72978W        W34289  10.146  25.985  12.391
72979W        W34290  19.593  25.628  13.486
72980W        W34291  39.879  34.373   1.266
72981W        W34292  34.033  44.309  13.027
72982W        W34293  24.695  29.966  14.945
72983W        W34294   1.789   1.973  14.326
72984W        W34295   7.339   2.421  11.886
72985W        W34296  11.636  43.996  10.643
72986W        W34297  18.105  14.761  13.359
72987W        W34298  36.434   8.797  11.086
72988W        W34299  14.703   7.378   2.242
72989W        W34300   6.764  41.321  14.416
72990W        W34301  36.098  16.692   0.890
72991W        W34302  23.506  36.498   1.846
72992W        W34303  29.035  28.483  13.855
72993W        W34304  22.061  44.302   4.256
72994W        W34305  39.470   9.852  14.986
72995W        W34306  36.501   7.741  11.000
72996W        W34307   6.720  38.834   2.300
72997W        W34308  16.262   6.822  14.339
72998W        W34309   3.795   6.217  11.459
72999W        W34310   3.756  17.635  13.530
73000W        W34311  25.135  28.149  12.342
73001W        W34312  14.183  14.713  13.497
73002W        W34313  22.174  32.502   3.849
73003W        W34314  19.260  23.559  11.041
73004W        W34315  13.330  33.083   4.252
73005W        W34316  17.669   1.778   4.175
73006W        W34317   4.709  35.468   4.200
73007W        W34318   3.397  17.593   9.937
73008W        W34319  25.131  17.792   4.646
73009W        W34320  41.358  39.420  14.978
73010W        W34321   8.708  22.007  14.503
73011W        W34322  14.203  43.374   4.790
73012W        W34323  26.172   1.352   4.719
73013W        W34324   8.328  36.878  10.528
73014W        W34325  16.570  31.644  11.032
73015W        W34326  38.426  12.233  12.440
73016W        W34327  34.402  17.583  10.921
73017W        W34328  19.597   4.716  14.934
73018W        W34329  36.399  39.496   1.431
73019W        W34330  39.439  43.326   2.217
73020W        W34331  35.027  14.609   1.722
73021W        W34332  35.034  24.080   1.894
73022W        W34333   3.798   7.298   1.774
73023W        W34334  17.756   9.154  10.634
73024W        W34335  35.589  14.182  12.894
73025W        W34336  43.449  33.116   3.788
73026W        W34337   7.171  40.892  11.873
73027W        W34338  40.322  12.324   2.711
73028W        W34339  34.039  32.541   2.191
73029W        W34340   3.407   8.688  12.080
73030W        W34341   0.853  13.136  10.891
73031W        W34342  42.408  31.970   4.187
73032W        W34343  27.533  24.112   1.279
73033W        W34344  16.626  15.207   3.325
73034W        W34345  41.835  24.725   0.431
73035W        W34346   8.296  43.013   4.177
73036W        W34347  18.164  34.901  10.465
73037W        W34348   9.176   3.814  12.416
73038W        W34349  41.935  19.762  13.422
73039W        W34350  11.800  11.830   1.387
73040W        W34351  42.991  24.126  13.412
73041W        W34352  44.757   5.339  13.973
73042W        W34353  32.931   2.965  14.368
73043W        W34354   6.734   2.885   4.730
73044W        W34355  36.377  17.781   3.198
73045W        W34356  20.153  14.747   2.241
73046W        W34357  24.597  40.391  13.040
73047W        W34358  37.572  28.109   1.266
73048W        W34359   7.877   6.688   4.813
73049W        W34360  28.110  29.552  10.893
73050W        W34361  11.772  28.970   1.433
73051W        W34362  40.848   2.906  11.955
73052W        W34363  25.001  12.283  10.435
73053W        W34364   4.227  41.421   0.347
73054W        W34365   8.171   2.241   2.258
73055W        W34366  15.190  18.252   4.802
73056W        W34367   5.906  40.370  12.058
73057W        W34368  34.580  32.507   1.298
73058W        W34369  42.928  26.589   3.794
73059W        W34370   5.739  32.097  14.512
73060W        W34371  41.790   8.176   0.473
73061W        W34372   4.288  41.790  12.370
73062W        W34373  38.959  14.156  10.916
73063W        W34374   2.879  12.698   0.364
73064W        W34375  41.385   6.759  12.401
73065W        W34376  42.966  15.101  12.527
73066W        W34377  16.137  30.530  14.949
73067W        W34378  10.664  36.362  10.409
73068W        W34379   8.759  36.545   2.347
73069W        W34380  27.573  38.571  13.400
73070W        W34381   8.405  25.534  12.972
73071W        W34382  18.731  22.120   3.731
73072W        W34383  44.891  41.868  12.991
73073W        W34384  43.838   3.777   2.861
73074W        W34385  28.934   7.787   0.945
73075W        W34386   7.247  39.413   4.831
73076W        W34387  37.052   7.310   3.701
73077W        W34388  36.436  32.461  11.052
73078W        W34389  33.900  27.675  13.996
73079W        W34390   4.380  20.569  14.840
73080W        W34391   7.740  12.784   0.395
73081W        W34392  14.117  33.918  10.578
73082W        W34393  37.866  22.238  10.611
73083W        W34394  18.253  38.333  14.441
73084W        W34395   1.786  33.486   4.261
73085W        W34396  37.868  44.351   4.787
73086W        W34397  27.014  26.115  13.916
73087W        W34398  33.122  26.978   0.742
73088W        W34399  16.743  39.549   3.322
73089W        W34400   5.862  17.789  12.851
73090W        W34401  11.180  37.981  13.376
73091W        W34402  38.002  19.743  12.845
73092W        W34403  30.979  38.852   3.173
73093W        W34404  28.150  44.294   1.268
73094W        W34405  12.846  27.069   3.863
73095W        W34406  40.979  15.609   0.273
73096W        W34407   7.319  11.733  12.354
73097W        W34408  35.369   6.685   2.282
73098W        W34409  31.044  35.086   0.421
73099W        W34410  31.916  37.568  10.614
73100W        W34411  22.155  26.067  12.341
73101W        W34412  16.779  31.987   0.744
73102W        W34413   2.903  36.484  13.018
73103W        W34414  17.730   9.840  10.485
73104W        W34415  26.979   5.426   3.761
73105W        W34416  42.971  10.841   4.806
73106W        W34417  25.084   8.199   0.762
73107W        W34418  14.696  13.780  11.018
73108W        W34419  17.066   4.898   4.726
73109W        W34420  25.967   5.252   2.380
73110W        W34421   9.168  41.018   2.245
73111W        W34422  23.174  10.350  12.561
73112W        W34423  16.199  13.145   0.752
73113W        W34424  12.273  36.352  14.432
73114W        W34425   5.330   0.910   4.248
73115W        W34426  29.663   0.867   5.161
73116W        W34427  21.093  15.264  11.383
73117W        W34428  44.851  31.002   3.360
73118W        W34429   7.672  39.042   0.392
73119W        W34430  24.042   8.323   1.279
73120W        W34431   8.175  12.691   3.632
73121W        W34432  27.181   4.378   4.691
73122W        W34433   4.205  12.175   1.701
73123W        W34434  41.812  32.403  11.958
73124W        W34435  35.061  41.492  10.497
73125W        W34436  23.703  35.093   2.177
73126W        W34437  32.127  11.249   9.974
73127W        W34438  16.812  11.145   4.325
73128W        W34439  20.544  25.978  14.884
73129W        W34440   6.744   7.355  13.824
73130W        W34441  39.854  14.289   2.827
73131W        W34442  43.939  31.492  11.589
73132W        W34443  14.261  14.153  12.468
73133W        W34444   7.224   6.198   2.402
73134W        W34445  32.922  26.669   1.903
73135W        W34446  23.199  36.491   2.877
73136W        W34447  14.681  27.013   3.378
73137W        W34448   1.267  23.003   1.381
73138W        W34449  23.152   0.931   2.737
73139W        W34450  20.631  42.856  13.935
73140W        W34451   6.811  25.036  10.535
73141W        W34452   3.820  21.600  12.918
73142W        W34453  10.212  40.415  14.911
73143W        W34454  40.483   9.173   3.374
73144W        W34455  12.726  30.125  14.466
73145W        W34456  21.246  31.456   2.189
73146W        W34457   5.220  33.391  13.468
73147W        W34458  33.440  19.711   4.260
73148W        W34459  10.740  27.540   1.869
73149W        W34460  22.011  27.485   3.676
73150W        W34461  17.605  27.997  11.050
73151W        W34462  43.939  24.643   0.372
73152W        W34463  44.989  15.225   4.182
73153W        W34464  13.633  11.698   3.346
73154W        W34465  43.326  17.284   3.160
73155W        W34466  12.124  35.517  14.286
73156W        W34467  35.522  18.159   0.772
73157W        W34468  34.875  36.074   0.848
73158W        W34469   9.343  34.877  11.044
73159W        W34470  30.420   1.456  14.429
73160W        W34471   3.839   2.727  13.057
73161W        W34472  22.135   8.169   2.231
73162W        W34473  18.119  15.311  11.427
73163W        W34474  36.954   1.390  13.420
73164W        W34475  37.424  35.429   2.850
73165W        W34476  12.346  33.539  11.957
73166W        W34477  28.167  15.256   1.350
73167W        W34478  20.211  42.906   1.889
73168W        W34479  25.014   7.880   2.200
73169W        W34480  24.646   3.314  10.939
73170W        W34481  31.624   8.276  12.512
73171W        W34482   7.226  24.162  13.478
73172W        W34483  25.519   9.230  14.024
73173W        W34484  29.957  32.013   2.292
73174W        W34485  20.075  35.497   1.327
73175W        W34486  39.808  13.783  10.889
73176W        W34487  43.426  32.970   2.728
73177W        W34488   8.216  14.717   2.187
73178W        W34489  15.135  14.785   5.631
73179W        W34490  36.361  37.395  10.638
73180W        W34491   2.758  30.560  12.950
73181W        W34492   6.285   6.855  14.958
73182W        W34493  35.032  22.143  12.360
73183W        W34494  17.657   2.753   1.710
73184W        W34495  35.099  21.248  12.883
73185W        W34496  11.716  14.271  14.963
73186W        W34497  16.573  42.496  13.410
73187W        W34498   5.837   4.798   3.349
73188W        W34499  33.502  38.467  13.934
73189W        W34500   3.357   8.276   3.164
73190W        W34501  13.336   8.363   4.138
73191W        W34502  42.326  10.284   2.240
73192W        W34503   2.900   4.282   4.139
73193W        W34504  31.429  34.437   4.263
73194W        W34505  33.116   1.322  11.051
73195W        W34506  22.089  43.903   3.167
73196W        W34507  43.285   8.761   4.602
73197W        W34508   9.318   3.342  13.909
73198W        W34509  15.087  21.079  12.983
73199W        W34510   9.247  11.172   3.247
73200W        W34511  26.575  25.069  12.021
73201W        W34512  15.682  15.607   4.224
73202W        W34513  14.201  24.524  14.943
73203W        W34514  23.522  21.727  14.330
73204W        W34515  41.421   7.407   3.786
73205W        W34516  25.612   8.294  11.544
73206W        W34517  32.073  33.554   0.332
73207W        W34518  42.526   7.341  11.929
73208W        W34519   2.824  10.674   2.189
73209W        W34520   8.868  13.760   2.717
73210W        W34521   2.904  39.396  13.959
73211W        W34522  38.016  13.752  13.457
73212W        W34523  37.372  16.307  11.587
73213W        W34524  19.631  41.496  14.317
73214W        W34525  13.711   5.758  10.627
73215W        W34526  34.900  43.916   4.696
73216W        W34527  18.296  43.944   1.250
73217W        W34528  24.082  36.472   4.349
73218W        W34529  18.243  41.374  14.396
73219W        W34530  14.188  20.235   1.733
73220W        W34531  23.682   9.319  11.910
73221W        W34532  15.083  21.150  10.629
73222W        W34533  32.970  41.425   3.383
73223W        W34534  24.094  43.331  10.462
73224W        W34535  23.077  25.039   2.332
73225W        W34536  32.599  18.776   3.167
73226W        W34537  44.770   6.246  14.274
73227W        W34538   1.934  28.586   0.264
73228W        W34539  22.697  11.176   2.210
73229W        W34540  34.874  31.117  14.412
73230W        W34541  20.107  41.917  13.417
73231W        W34542  36.535  12.220   3.691
73232W        W34543  38.053  14.296   3.804
73233W        W34544  28.076  19.583   0.768
73234W        W34545  38.947  20.209  14.015
73235W        W34546  27.604   1.415   0.779
73236W        W34547  12.311  37.379  11.002
73237W        W34548   2.863  10.852   3.701
73238W        W34549  35.031  34.543  14.983
73239W        W34550   8.782  33.540   0.284
73240W        W34551  12.332   8.312  13.520
73241W        W34552  22.611  35.581  11.420
73242W        W34553  25.678  39.892  11.441
73243W        W34554  13.630  36.063  12.919
73244W        W34555   8.237   6.340  10.589
73245W        W34556  27.998  29.983  14.475
73246W        W34557  33.536   9.651   2.755
73247W        W34558  30.060  11.242  10.909
73248W        W34559  23.987  15.112   2.197
73249W        W34560  20.727  17.222  10.962
73250W        W34561  15.200  27.686  12.033
73251W        W34562  19.113  28.445   2.744
73252W        W34563   3.417  19.091  14.501
73253W        W34564   3.868  11.221  12.470
73254W        W34565  39.915  37.020  11.081
73255W        W34566   0.278  36.868   2.689
73256W        W34567  12.626  39.929  13.930
73257W        W34568  16.194  41.419   4.227
73258W        W34569  31.058  38.473   4.182
73259W        W34570   6.849  25.052  11.083
73260W        W34571  24.479   9.272  14.335
73261W        W34572  24.025  32.554   2.868
73262W        W34573  38.930  11.263  12.950
73263W        W34574  32.390   0.974   3.303
73264W        W34575  42.476  43.879  12.388
73265W        W34576   8.307  39.869  10.564
73266W        W34577  21.019   7.325   1.224
73267W        W34578  20.697   9.678  12.049
73268W        W34579   4.809  11.257   1.761
73269W        W34580  29.146   9.241  12.353
73270W        W34581  10.346  41.999  14.352
73271W        W34582  26.498  26.148   4.125
73272W        W34583  42.020  12.672   3.381
73273W        W34584  24.218  37.012  11.872
73274W        W34585  23.991  17.693  13.861
73275W        W34586   5.931  32.090   4.766
73276W        W34587  29.523  35.041  14.921
73277W        W34588  38.408  27.596  11.874
73278W        W34589  24.226  15.716   2.714
73279W        W34590  33.041  32.568   5.300
73280W        W34591   4.843  23.133   0.922
73281W        W34592   1.746  30.942   2.784
73282W        W34593  37.493  15.715  13.529
73283W        W34594  42.934  36.538   5.176
73284W        W34595  22.649  19.714   2.248
73285W        W34596  24.651  16.158  11.389
73286W        W34597  44.898  18.102   1.759
73287W        W34598  20.144   5.703  10.467
73288W        W34599   8.806   8.897  11.436
73289W        W34600  44.487  10.722   1.851
73290W        W34601   6.249  20.225   5.698
73291W        W34602   1.391  39.836  13.368
73292W        W34603  23.599   1.890   2.229
73293W        W34604   0.973  33.514  14.978
73294W        W34605  32.392  24.621  10.928
73295W        W34606   8.739  26.166  14.515
73296W        W34607  39.825  25.679  12.019
73297W        W34608  40.530  31.629  13.501
73298W        W34609  20.705  26.640  11.579
73299W        W34610  26.009  23.714   0.908
73300W        W34611  20.034  10.710   3.181
73301W        W34612  39.495  20.204   2.664
73302W        W34613   7.183  28.980  10.562
73303W        W34614  21.700   0.899   1.291
73304W        W34615   5.737  27.994   4.612
73305W        W34616  27.039  41.468  12.528
73306W        W34617  18.145   8.182   2.769
73307W        W34618   6.909  19.124   2.220
73308W        W34619  12.252   8.191  10.958
73309W        W34620   4.277  14.688   4.645
73310W        W34621  31.015   6.848   3.662
73311W        W34622   4.416  36.949  10.404
73312W        W34623  12.835  42.495  12.517
73313W        W34624  39.467  23.105  11.959
73314W        W34625  16.575   6.748   1.755
73315W        W34626   8.261  30.066  12.950
73316W        W34627  41.795  18.785   3.648
73317W        W34628  39.946  26.495  11.120
73318W        W34629  23.113  37.028  11.599
73319W        W34630  28.166  19.753   2.363
73320W        W34631   6.260  13.230  13.020
73321W        W34632   8.754  38.980   2.760
73322W        W34633  44.955   2.420   0.963
73323W        W34634  44.455   1.782   3.210
73324W        W34635  42.005  44.902   1.738
73325W        W34636  28.673  41.831  13.938
73326W        W34637  25.630  17.195   1.213
73327W        W34638   0.803  25.551   1.291
73328W        W34639  35.370  39.060  12.014
73329W        W34640  28.069  19.689  11.887
73330W        W34641   9.734  37.403  14.348
73331W        W34642  22.030   5.725  14.855
73332W        W34643   2.344  30.552  11.577
73333W        W34644  14.307  40.801  11.878
73334W        W34645   4.422  13.606  11.124
73335W        W34646  42.778  14.707   0.751
73336W        W34647  32.067   7.910   3.646
73337W        W34648  40.371  32.565   2.672
73338W        W34649   5.280  35.382   3.303
73339W        W34650  22.093  12.835   0.304
73340W        W34651   3.918  29.457  11.926
73341W        W34652  39.550  43.383   1.312
73342W        W34653  19.609   7.724   4.621
73343W        W34654  13.709  35.861  14.996
73344W        W34655  34.072  21.670  14.506
73345W        W34656  24.986   6.294  11.476
73346W        W34657   7.246  27.081  12.890
73347W        W34658  24.601  11.350   3.791
73348W        W34659  14.726  36.965   2.675
73349W        W34660  42.916   8.249  10.936
73350W        W34661  22.605   9.202  12.879
73351W        W34662  23.677  25.633   1.804
73352W        W34663  37.061  12.700   3.278
73353W        W34664   2.393   6.319  11.008
73354W        W34665  38.483  31.065   3.323
73355W        W34666  35.975  40.521  14.307
73356W        W34667  21.049  33.116   0.825
73357W        W34668  37.044  34.517   0.391
73358W        W34669  10.212  44.261   3.789
73359W        W34670  14.600  18.639   1.876
73360W        W34671  26.668   0.376  14.980
73361W        W34672  14.671  17.636   2.253
73362W        W34673  36.371  35.998   4.144
73363W        W34674  32.055  24.114   3.830
73364W        W34675  11.281   2.880  10.567
73365W        W34676  34.047   8.847   1.285
73366W        W34677  16.101  27.038  11.396
73367W        W34678  30.592   5.330  12.028
73368W        W34679   8.772  31.643   0.756
73369W        W34680  28.509  40.834  10.559
73370W        W34681  37.475   9.282  10.405
73371W        W34682  12.223  41.500   2.698
73372W        W34683  26.624  37.525  14.852
73373W        W34684   0.343   8.321   0.335
73374W        W34685  14.202  30.161  11.537
73375W        W34686  10.706  41.834  14.363
73376W        W34687  17.305  42.818   2.782
73377W        W34688  20.579  33.958   0.263
73378W        W34689  20.245  19.056  14.506
73379W        W34690   5.198  11.219  14.805
73380W        W34691  26.123   5.902   5.600
73381W        W34692   9.160  12.823   0.453
73382W        W34693   3.364  13.157   2.682
73383W        W34694  41.880  23.605  11.490
73384W        W34695   7.206  34.579   2.183
73385W        W34696   9.690  19.719  13.536
73386W        W34697  12.796  24.974   4.179
73387W        W34698  16.088  43.826  13.934
73388W        W34699  13.114  20.269   3.655
73389W        W34700  26.115  28.085   4.153
73390W        W34701  24.999  34.526   3.849
73391W        W34702  32.000  26.687   2.348
73392W        W34703  22.740   8.769  12.470
73393W        W34704  43.958  17.266  13.539
73394W        W34705  11.838  22.553   4.149
73395W        W34706  41.303   1.885   4.649
73396W        W34707  37.530  43.473  14.006
73397W        W34708   8.321   1.768   3.232
73398W        W34709  41.532  40.394  12.343
73399W        W34710  18.254  33.002   0.278
73400W        W34711  32.398  44.370  14.816
73401W        W34712  33.938  26.551  13.383
73402W        W34713  37.895  34.877   2.218
73403W        W34714  24.202  11.664   3.354
73404W        W34715   9.356  18.597  12.549
73405W        W34716  35.485  42.971   4.258
73406W        W34717  15.721  24.574   2.745
73407W        W34718   0.979   9.762  10.589
73408W        W34719  36.404  13.755  11.983
73409W        W34720  31.121   2.337   4.834
73410W        W34721  19.248  14.683  13.540
73411W        W34722  26.063   3.786   3.252
73412W        W34723   5.302  26.975  10.931
73413W        W34724  29.141  34.970  10.464
73414W        W34725  40.405  38.983  12.881
73415W        W34726  37.041  21.678  12.424
73416W        W34727  13.105   1.418   0.793
73417W        W34728  23.076   4.261  14.404
73418W        W34729  38.524  31.127  14.295
73419W        W34730   0.281  44.402  14.017
73420W        W34731  28.118  14.760  14.783
73421W        W34732  34.971  20.749   4.132
73422W        W34733  10.713  44.840   2.305
73423W        W34734   7.368   0.467  13.502
73424W        W34735   1.472  13.661   1.357
73425W        W34736   1.839  38.942   0.829
73426W        W34737  35.911  28.148  10.108
73427W        W34738  27.139  26.984   4.265
73428W        W34739  38.930  32.959  12.482
73429W        W34740   2.450  31.467   4.629
73430W        W34741  23.102  14.225  12.473
73431W        W34742  11.265  14.155   5.116
73432W        W34743  32.553  27.515   1.716
73433W        W34744   7.177  13.690  13.313
73434W        W34745  16.774  31.553   2.417
73435W        W34746  25.665  21.034  13.005
73436W        W34747  40.984   6.782  10.937
73437W        W34748  37.576  39.520   9.962
73438W        W34749  32.548  22.055   4.305
73439W        W34750  42.491  40.331  12.550
73440W        W34751   1.345  26.101  14.458
73441W        W34752  17.131  22.175   0.961
73442W        W34753  27.097  27.138  14.960
73443W        W34754   1.871  11.799   3.640
73444W        W34755  13.779  21.073  12.492
73445W        W34756  17.081  18.786   1.447
73446W        W34757   0.367   6.336  14.358
73447W        W34758   4.762  14.696   2.232
73448W        W34759  28.980  29.596  13.817
73449W        W34760  28.500  32.978   2.662
73450W        W34761  23.107  33.480  11.483
73451W        W34762  35.039   5.797  11.028
73452W        W34763   1.444  24.720   0.938
73453W        W34764  43.816  29.551   4.807
73454W        W34765  16.183  35.464   1.821
73455W        W34766  25.518   2.449   0.417
73456W        W34767  27.040  34.925  12.450
73457W        W34768   7.698  19.280  10.981
73458W        W34769  12.198  35.925  11.590
73459W        W34770   0.933  32.055  11.112
73460W        W34771  34.863   3.836   2.324
73461W        W34772  37.493  29.632  10.422
73462W        W34773  15.236  22.625  11.041
73463W        W34774   0.482  27.012   3.759
73464W        W34775  21.673   7.271   2.880
73465W        W34776  21.038   8.346  14.984
73466W        W34777   8.856  29.569   4.222
73467W        W34778  41.350  19.614   1.377
73468W        W34779  42.018   5.826   1.345
73469W        W34780  10.704  16.798   1.390
73470W        W34781   2.906  23.679  12.577
73471W        W34782  31.151  11.225   3.158
73472W        W34783  18.138  43.824   3.871
73473W        W34784   3.765  23.685   5.228
73474W        W34785   2.384  40.526   3.210
73475W        W34786  23.507  21.123   3.285
73476W        W34787   0.376  26.036   1.294
73477W        W34788  30.450  23.567   3.269
73478W        W34789  10.265   9.390   1.364
73479W        W34790  22.229  44.946  13.317
73480W        W34791   4.410  34.049  13.884
73481W        W34792   3.768  21.657   1.716
73482W        W34793  39.537  25.988  11.988
73483W        W34794  39.537  30.957   4.611
73484W        W34795  26.191  36.530  13.475
73485W        W34796  14.766  14.642   5.218
73486W        W34797   0.885  26.096   1.855
73487W        W34798  29.634  37.566   0.360
73488W        W34799   5.821  34.914   3.354
73489W        W34800   5.403  28.173   4.741
73490W        W34801  11.750   8.820  11.077
73491W        W34802  27.132   0.433   4.217
73492W        W34803   2.391  11.758   4.629
73493W        W34804   6.280   5.350  11.041
73494W        W34805  42.496  20.131  11.603
73495W        W34806  11.154  28.097   3.681
73496W        W34807  33.451  21.244  10.577
73497W        W34808  27.011   0.838   4.610
73498W        W34809  44.991   4.797   3.771
73499W        W34810   8.371   9.170   2.203
73500W        W34811   5.330  41.342   3.660
73501W        W34812  18.772  13.331  12.938
73502W        W34813  25.694  37.495  12.346
73503W        W34814  44.917  32.060   1.402
73504W        W34815  26.177  16.225  12.846
73505W        W34816  14.265  17.170  12.356
73506W        W34817  29.660  12.354   1.907
73507W        W34818  35.982  26.038  11.009
73508W        W34819   1.328  16.621   2.799
73509W        W34820  26.483  35.019   0.367
73510W        W34821  16.206  40.887   2.680
73511W        W34822   0.253   9.683  13.993
73512W        W34823  40.394  23.674  12.856
73513W        W34824  44.320  30.564  12.351
73514W        W34825  22.560  34.120  13.463
73515W        W34826  27.477   3.902   4.278
73516W        W34827   9.331  13.218  10.629
73517W        W34828   1.844   5.425   3.193
73518W        W34829  23.541  11.769  12.003
73519W        W34830  37.930  32.974  14.771
73520W        W34831   5.389  11.147   0.398
73521W        W34832  28.537  40.947   0.726
73522W        W34833  14.138  44.371   4.643
73523W        W34834  19.777  41.468  14.852
73524W        W34835  27.584   3.240   4.284
73525W        W34836  34.510  42.784   3.338
73526W        W34837   9.238  40.951  12.518
73527W        W34838  16.251  32.971   2.335
73528W        W34839  23.736   1.772  13.372
73529W        W34840  38.014  24.709  11.875
73530W        W34841  19.734  44.462  11.892
73531W        W34842  37.030  38.000   5.166
73532W        W34843   7.714   9.344  13.855
73533W        W34844  32.945  27.004  12.355
73534W        W34845  35.528   0.382   0.814
73535W        W34846  15.246  39.460  11.903
73536W        W34847  11.196  21.188   3.259
73537W        W34848  25.574  43.358  10.408
73538W        W34849  18.649  16.578  10.410
73539W        W34850   2.840  35.030  10.914
73540W        W34851   5.413  19.635  11.601
73541W        W34852   7.754  28.544  11.544
73542W        W34853  19.709   7.417   0.761
73543W        W34854  25.565  32.519  12.965
73544W        W34855  27.043  32.983   1.269
73545W        W34856  25.997  35.359   3.768
73546W        W34857  17.748  35.397   4.225
73547W        W34858  41.393  21.730   1.927
73548W        W34859  11.210  18.228   1.295
73549W        W34860  22.744  35.010  10.042
73550W        W34861  27.450   8.823  14.454
73551W        W34862  44.807  14.788   2.393
73552W        W34863  28.463  27.685   3.810
73553W        W34864  35.094  30.526  13.840
73554W        W34865   2.774   1.749  13.464
73555W        W34866  31.511  23.489  14.768
73556W        W34867  34.893  14.286  13.012
73557W        W34868   4.359  34.370  13.994
73558W        W34869  44.782   8.736  12.443
73559W        W34870  10.241   1.814   2.335
73560W        W34871   0.276   0.768   0.330
73561W        W34872  16.627  32.086   2.290
73562W        W34873  43.015  43.970  14.403
73563W        W34874  44.295   7.812   2.670
73564W        W34875  33.023  42.826  14.816
73565W        W34876  39.051   6.692   1.904
73566W        W34877  28.606  44.438  13.916
73567W        W34878  24.186  39.322   2.738
73568W        W34879  24.101  43.418  11.537
73569W        W34880  39.361   6.806  11.586
73570W        W34881  17.580   8.303   0.360
73571W        W34882  24.497   8.249  11.411
73572W        W34883   9.814  39.428   2.245
73573W        W34884  43.412  30.448   0.330
73574W        W34885  39.847  37.374  12.965
73575W        W34886  17.629  43.333  13.394
73576W        W34887  20.635  43.890   1.434
73577W        W34888  37.003  39.977  11.860
73578W        W34889  44.468   9.856  11.571
73579W        W34890   6.750  35.531   0.756
73580W        W34891  22.076  13.754  14.497
73581W        W34892  10.226   7.189  11.126
73582W        W34893  13.264  22.093   0.419
73583W        W34894   6.802   7.806  13.545
73584W        W34895  15.249   1.284  11.611
73585W        W34896   9.271  35.943  13.056
73586W        W34897  18.163  10.370  11.878
73587W        W34898  43.949  10.365  12.544
73588W        W34899  10.719  38.326   2.261
73589W        W34900  19.104  13.731   5.301
73590W        W34901  33.407  30.484   1.901
73591W        W34902  25.003  17.594   2.723
73592W        W34903   2.356   9.182   1.421
73593W        W34904  15.634  25.086  13.472
73594W        W34905  30.105  26.476  14.339
73595W        W34906  38.534  25.155   1.274
73596W        W34907  16.287   4.771   2.799
73597W        W34908  44.899   0.341  11.411
73598W        W34909  26.175   7.740  12.829
73599W        W34910  14.103  41.510  12.455
73600W        W34911  13.732   2.939   4.660
73601W        W34912  40.323  44.933   2.225
73602W        W34913   8.852  15.223   0.731
73603W        W34914  35.522  19.674   3.840
73604W        W34915  17.100  25.063  10.528
73605W        W34916  29.592  39.969   4.734
73606W        W34917  15.614  14.794   9.499
73607W        W34918   8.226   4.870  14.425
73608W        W34919   7.895  20.044   4.275
73609W        W34920  32.557  13.294   0.377
73610W        W34921  43.509  10.367   3.780
73611W        W34922  30.546  26.485  11.951
73612W        W34923  40.026  20.749   0.890
73613W        W34924  13.741  34.392  14.460
73614W        W34925  10.863  26.529  10.628
73615W        W34926  19.744  16.678   4.237
73616W        W34927   1.308  14.826   4.257
73617W        W34928  20.526  41.430   1.232
73618W        W34929  10.859  31.038   4.757
73619W        W34930  19.542  26.174  12.340
73620W        W34931  27.607  20.133   1.384
73621W        W34932  40.373   9.739  12.916
73622W        W34933   7.858  19.100  13.489
73623W        W34934  36.006   2.271  12.494
73624W        W34935  41.524  26.537   3.320
73625W        W34936  31.951  42.851   1.245
73626W        W34937  14.662  14.252  14.760
73627W        W34938   8.290  40.358   1.753
73628W        W34939  32.425  23.193   0.884
73629W        W34940  37.444  15.187   1.225
73630W        W34941  36.499   7.744  13.540
73631W        W34942  33.061  37.491   3.847
73632W        W34943   4.421  27.620   0.804
73633W        W34944  15.749  33.125   4.645
73634W        W34945  12.681  16.567   3.209
73635W        W34946  16.649  18.558  10.929
73636W        W34947  18.077  39.489   5.243
73637W        W34948  38.052   1.873   5.127
73638W        W34949  35.046   2.311  14.913
73639W        W34950  31.528  19.710   3.702
73640W        W34951  34.403  39.861   0.297
73641W        W34952  16.705  29.550   2.340
73642W        W34953  40.964  39.840  13.536
73643W        W34954  40.025  20.550  14.911
73644W        W34955  15.806   6.680  14.297
73645W        W34956  13.110  40.452   2.820
73646W        W34957  14.268   2.402   4.186
73647W        W34958  44.866  12.707  13.419
73648W        W34959  13.295   9.391  11.382
73649W        W34960  27.551  39.983   4.190
73650W        W34961  22.209   7.306   1.214
73651W        W34962  12.694   5.404  12.400
73652W        W34963   4.935  21.165  11.982
73653W        W34964  11.755  23.722   2.709
73654W        W34965  36.070  32.530   1.330
73655W        W34966  41.876  43.813  12.957
73656W        W34967  10.233   1.371   1.212
73657W        W34968  20.143   0.370   1.328
73658W        W34969  27.639  36.403  13.441
73659W        W34970   4.849  12.141   1.877
73660W        W34971   1.863  26.500   0.920
73661W        W34972  29.086  30.563   1.327
73662W        W34973  26.180  40.941   0.423
73663W        W34974  25.995  41.942  12.887
73664W        W34975  27.539   7.373   1.344
73665W        W34976  24.150  22.061  11.887
73666W        W34977   1.804   3.763   4.711
73667W        W34978  35.558  14.315  14.421
73668W        W34979  12.791  12.705   0.823
73669W        W34980  35.103   3.883  11.006
73670W        W34981  11.161  43.946   3.231
73671W        W34982  31.131   4.788  14.957
73672W        W34983  13.759   7.306  11.412
73673W        W34984  12.192   8.211   1.437
73674W        W34985  43.918   8.892  13.979
73675W        W34986  16.289  19.228  12.547
73676W        W34987  25.638  40.461   0.801
73677W        W34988  29.967  12.826  13.975
73678W        W34989   0.406  35.995  13.024
73679W        W34990   2.795   3.262   2.387
73680W        W34991  44.935   5.692   4.240
73681W        W34992  22.620  14.223   4.790
73682W        W34993   3.769  42.986   1.903
73683W        W34994  42.946  21.544   3.367
73684W        W34995  44.823  32.448  12.447
73685W        W34996  26.490   2.228  11.435
73686W        W34997  22.248  38.529   3.298
73687W        W34998  35.021  34.079  13.838
73688W        W34999  13.723   5.370  14.491
73689W        W35000  34.485  30.630   4.152
73690W        W35001  32.588  41.391  11.451
73691W        W35002  32.912  13.804   1.705
73692W        W35003  25.985  21.125   1.786
73693W        W35004  25.218  14.818   1.333
73694W        W35005  37.499  26.626  14.471
73695W        W35006  33.097  22.211   4.264
73696W        W35007  17.568  13.763  13.391
73697W        W35008  20.730  39.348  12.565
73698W        W35009   8.174  16.200  14.864
73699W        W35010  29.666  43.495  14.888
73700W        W35011  21.614   6.409   4.602
73701W        W35012  32.450  40.306   0.425
73702W        W35013  25.680   0.962   0.927
73703W        W35014  22.184  35.514  12.359
73704W        W35015  44.863  23.655  10.494
73705W        W35016  29.563  25.995   2.232
73706W        W35017   2.452   1.388  10.538
73707W        W35018  37.024   4.831  12.475
73708W        W35019  25.615   3.940  10.558
73709W        W35020  13.145  21.698  11.058
73710W        W35021   1.348  42.876  12.442
73711W        W35022  11.775  10.315   1.290
73712W        W35023  27.594   3.926  12.079
73713W        W35024  21.257  14.640   0.364
73714W        W35025  19.758  28.040   3.727
73715W        W35026  10.665  23.503   1.263
73716W        W35027   9.302  14.263   2.901
73717W        W35028   3.434  35.998   1.738
73718W        W35029   4.259   2.819  12.354
73719W        W35030  42.352   7.798   2.374
73720W        W35031  37.059  19.230   0.339
73721W        W35032  11.230  18.552   4.674
73722W        W35033  34.561  13.767  11.061
73723W        W35034   9.177  38.984  13.333
73724W        W35035   4.407   0.276   2.801
73725W        W35036  25.998  42.443  10.425
73726W        W35037  34.532  33.024   0.830
73727W        W35038   6.804   6.834  12.410
73728W        W35039  37.059  25.490  13.357
73729W        W35040  36.463  29.009  14.457
73730W        W35041  35.000  14.152  13.384
73731W        W35042  28.967  42.391   3.249
73732W        W35043   5.368  44.332   3.310
73733W        W35044   4.781   8.293   2.846
73734W        W35045  20.052  35.877   4.128
73735W        W35046  13.237  32.578   1.398
73736W        W35047  13.209  20.737   0.864
73737W        W35048  41.009  17.641  14.928
73738W        W35049  36.582   6.184   3.370
73739W        W35050  19.774  22.501   4.183
73740W        W35051  38.483  24.669  13.063
73741W        W35052  18.642  39.408   4.647
73742W        W35053  14.095  22.020  11.082
73743W        W35054   9.685  38.922   1.244
73744W        W35055  10.294  33.054   9.979
73745W        W35056  28.608  10.833  14.917
73746W        W35057  23.061   4.366  10.533
73747W        W35058  22.733  34.918  12.913
73748W        W35059  26.177  34.923  13.916
73749W        W35060  28.937   3.310  14.349
73750W        W35061  29.989  33.029   1.277
73751W        W35062  12.166  24.530   3.664
73752W        W35063  37.382  26.523   4.141
73753W        W35064   9.823  39.429   1.889
73754W        W35065  14.721  12.778  10.561
73755W        W35066  19.042  20.247   4.284
73756W        W35067  28.478  18.223  13.028
73757W        W35068  14.139  43.430   2.295
73758W        W35069   4.796   7.402  12.398
73759W        W35070  29.628  34.876   0.963
73760W        W35071   1.344  40.368   2.387
73761W        W35072  23.064  14.205   3.677
73762W        W35073  20.124  34.944   3.833
73763W        W35074  12.692  26.168   0.912
73764W        W35075  38.921  43.013   3.827
73765W        W35076   4.423  18.558   2.183
73766W        W35077  41.381  20.663   0.818
73767W        W35078  20.763  43.464  14.394
73768W        W35079   1.265  17.555  13.999
73769W        W35080   3.403   3.718  10.929
73770W        W35081   7.813  15.106   2.302
73771W        W35082   7.384  35.912   1.753
73772W        W35083  12.327  21.573   4.143
73773W        W35084   9.850  37.457  10.549
73774W        W35085  11.257  18.631  11.451
73775W        W35086  10.791  33.121  12.572
73776W        W35087  42.423  15.181  11.102
73777W        W35088  42.991  10.756  11.014
73778W        W35089  18.693  43.281   2.293
73779W        W35090  11.311   6.233   4.751
73780W        W35091  29.603  29.156  13.310
73781W        W35092  35.391  12.358  10.574
73782W        W35093  40.529  36.089  12.959
73783W        W35094  21.728  30.054  12.991
73784W        W35095  25.013  24.492  12.521
73785W        W35096  33.550  22.659   3.240
73786W        W35097  43.849   6.840   0.893
73787W        W35098  41.436   3.790  12.840
73788W        W35099   1.864  26.684   2.782
73789W        W35100  12.850  12.118   4.137
73790W        W35101  31.936  22.252  10.416
73791W        W35102   8.899  35.046   0.885
73792W        W35103   1.868  15.749  11.424
73793W        W35104  37.502   6.803  14.352
73794W        W35105   2.243  26.544  10.555
73795W        W35106  39.462  23.686   0.472
73796W        W35107  39.040  42.503  11.566
73797W        W35108  12.220  43.273  13.508
73798W        W35109  26.465  31.642   0.449
73799W        W35110   0.976  29.480  13.511
73800W        W35111  22.049  34.073  14.988
73801W        W35112  18.240   0.823   1.852
73802W        W35113   2.389  35.071  11.502
73803W        W35114  16.270   4.384  14.491
73804W        W35115   3.286  12.726  11.401
73805W        W35116  14.162  27.120  10.568
73806W        W35117  16.158  15.171  10.597
73807W        W35118  23.668   3.333  13.831
73808W        W35119  10.861  24.026   1.334
73809W        W35120  39.386  17.611   4.330
73810W        W35121  38.897  39.994   0.452
73811W        W35122  40.444  18.623  12.562
73812W        W35123  34.043  19.234  12.576
73813W        W35124  27.623   3.727  14.326
73814W        W35125  43.961  21.131  11.455
73815W        W35126  32.046  24.009   4.256
73816W        W35127  29.578  29.057  11.601
73817W        W35128  17.103  34.459   3.728
73818W        W35129  34.452  35.453  10.973
73819W        W35130  13.697  13.220   1.286
73820W        W35131   0.825  14.311   1.871
73821W        W35132   3.352  35.379  14.856
73822W        W35133  27.023  17.188  14.435
73823W        W35134  39.061   7.864  12.884
73824W        W35135  18.242  12.654  14.509
73825W        W35136  18.108  28.461  14.393
73826W        W35137  21.524  29.564   4.183
73827W        W35138   1.976   5.235   0.915
73828W        W35139  29.068  28.186   4.337
73829W        W35140  14.708   0.861  14.012
73830W        W35141   9.700  15.631   0.937
73831W        W35142  18.611  11.820   3.169
73832W        W35143   8.222  41.850   3.215
73833W        W35144  25.614   6.688   3.818
73834W        W35145  13.277  32.070  11.116
73835W        W35146  39.826  36.849   3.258
73836W        W35147  34.400  34.580   0.313
73837W        W35148  26.556  12.206  11.071
73838W        W35149  27.983  22.704   0.332
73839W        W35150  19.119   8.704   4.143
73840W        W35151  37.522  22.998   4.803
73841W        W35152   8.827  39.924   4.673
73842W        W35153  26.592  40.506  10.624
73843W        W35154  42.357  42.994   2.793
73844W        W35155   7.870   7.671  12.018
73845W        W35156  31.047  18.096  12.975
73846W        W35157  44.315  25.034   4.293
73847W        W35158  32.539   3.302   3.828
73848W        W35159  17.688  11.348   3.241
73849W        W35160  32.122  36.379   2.761
73850W        W35161  30.431  21.634  14.978
73851W        W35162   8.881  15.817   1.779
73852W        W35163  21.540  44.477  14.421
73853W        W35164  14.273   4.396  12.997
73854W        W35165   7.912  44.833  11.606
73855W        W35166   2.233  44.856   0.388
73856W        W35167  44.994  14.684   0.350
73857W        W35168  43.957  39.058   1.355
73858W        W35169  40.386   2.260  14.898
73859W        W35170  23.669  35.862  10.415
73860W        W35171  30.163  34.003  14.874
73861W        W35172  24.023  31.935  14.320
73862W        W35173  24.149  10.292   2.289
73863W        W35174  32.120  44.303   4.143
73864W        W35175  22.052   0.408   0.922
73865W        W35176  28.621  29.958  13.409
73866W        W35177   3.402   1.857   2.349
73867W        W35178  44.281  34.874  14.382
73868W        W35179  22.553  28.177  12.000
73869W        W35180  16.686  41.437  14.914
73870W        W35181  33.914   6.768   4.801
73871W        W35182   1.237  27.666  13.926
73872W        W35183  16.149  24.562  13.882
73873W        W35184  41.482  41.956   3.664
73874W        W35185   3.434  10.380   4.276
73875W        W35186  36.557  11.177  10.466
73876W        W35187  36.035   5.805  13.349
73877W        W35188  26.992   6.343   1.211
73878W        W35189  35.047  33.448   2.683
73879W        W35190  21.559   3.377  14.367
73880W        W35191  26.662  10.336  13.059
73881W        W35192  29.006   6.198  11.899
73882W        W35193  18.091  12.193  10.558
73883W        W35194   2.874   3.881   1.245
73884W        W35195  11.142  41.876   0.322
73885W        W35196  28.591  23.542   3.847
73886W        W35197  44.309  35.899  13.040
73887W        W35198  41.853   7.242   4.712
73888W        W35199   1.405  14.263  13.544
73889W        W35200  31.068  32.921  11.988
73890W        W35201   6.210   5.351   4.160
73891W        W35202  17.725   1.344   0.257
73892W        W35203   1.356  11.680  10.404
73893W        W35204  15.796  28.470   1.700
73894W        W35205  25.184   7.341  10.033
73895W        W35206  12.300  13.157   0.431
73896W        W35207  21.139  26.080   4.315
73897W        W35208  21.238  41.023   3.794
73898W        W35209  24.510   3.216  13.385
73899W        W35210  15.214  25.065  14.796
73900W        W35211   0.469  20.127   3.851
73901W        W35212  17.719   0.835   1.722
73902W        W35213  31.934  16.667  14.762
73903W        W35214  38.349  25.572  13.034
73904W        W35215  43.461  36.554  12.823
73905W        W35216  44.987   3.435  14.803
73906W        W35217  33.029   5.855  14.355
73907W        W35218  44.399  32.038  14.958
73908W        W35219  37.883  44.820   1.335
73909W        W35220  44.840  18.123  13.880
73910W        W35221  11.190  31.929   0.852
73911W        W35222  23.033   1.408   2.679
73912W        W35223   8.267  14.271  12.842
73913W        W35224  20.172  16.128   1.837
73914W        W35225  34.911  17.295   3.839
73915W        W35226  40.875   4.737   2.386
73916W        W35227   2.946  37.039   0.468
73917W        W35228  21.145   3.215   4.330
73918W        W35229  19.068  26.988  13.355
73919W        W35230   7.252  32.414  12.376
73920W        W35231  44.941  44.439  14.443
73921W        W35232  30.634  21.620  13.980
73922W        W35233   2.832  22.131  11.925
73923W        W35234  12.350  43.273  10.933
73924W        W35235  25.027   3.421  12.523
73925W        W35236  21.086   0.960   0.311
73926W        W35237  32.101  31.613  10.633
73927W        W35238  43.000   3.757  10.639
73928W        W35239  19.057  41.897  13.496
73929W        W35240   8.366  11.762   2.841
73930W        W35241   7.805   0.808   1.797
73931W        W35242  32.445  34.038   1.220
73932W        W35243   2.902  35.363  13.951
73933W        W35244   2.402   0.441   1.860
73934W        W35245  20.173  25.214   3.711
73935W        W35246  43.300  25.109   0.947
73936W        W35247  41.521  19.146   2.804
73937W        W35248  16.596  25.216  13.405
73938W        W35249   1.835  20.253  12.430
73939W        W35250   0.773  34.608   1.369
73940W        W35251   8.886  12.292  11.434
73941W        W35252  10.795   7.835  12.556
73942W        W35253  38.367   8.680   0.946
73943W        W35254   0.750  40.486   3.733
73944W        W35255   6.765   0.372  14.771
73945W        W35256  26.040  28.558  11.524
73946W        W35257  21.523  37.913  14.312
73947W        W35258  27.127   1.323   2.734
73948W        W35259  20.228  15.324  11.893
73949W        W35260  35.377  19.270   0.772
73950W        W35261  18.640  13.647   0.441
73951W        W35262   8.225  38.025   3.644
73952W        W35263  40.873  10.790   1.882
73953W        W35264  21.169   3.416   2.355
73954W        W35265  25.081  18.633   1.908
73955W        W35266  44.956  42.327   1.697
73956W        W35267  28.588  24.230  13.362
73957W        W35268  34.377  21.717  12.003
73958W        W35269  14.765  28.001  13.056
73959W        W35270  35.863   5.268  13.492
73960W        W35271   4.301   4.352   4.186
73961W        W35272  28.170  43.000  10.956
73962W        W35273  29.104  17.752   0.348
73963W        W35274  42.390  36.532   0.399
73964W        W35275  22.511  17.065  10.119
73965W        W35276  15.721   6.415  11.535
73966W        W35277  13.707  20.522   2.295
73967W        W35278   4.867  37.063   0.883
73968W        W35279  32.529  26.564  12.057
73969W        W35280   5.797  39.359   4.652
73970W        W35281  33.991  41.012   5.087
73971W        W35282  14.197  23.649   1.862
73972W        W35283  21.034  20.221  11.126
73973W        W35284  20.046  23.610   4.161
73974W        W35285  19.537  32.578  10.932
73975W        W35286  37.364  16.261  12.084
73976W        W35287   8.260  27.947  11.026
73977W        W35288  42.340  30.002  14.975
73978W        W35289  42.498  15.108  14.962
73979W        W35290  17.122  36.946   0.761
73980W        W35291  42.891  20.144  12.577
73981W        W35292  26.055  13.234  12.902
73982W        W35293  24.712  35.556   1.835
73983W        W35294  19.073  30.495   3.755
73984W        W35295  16.759  33.034   2.366
73985W        W35296  33.085  14.721   2.190
73986W        W35297   6.316  22.704  14.946
73987W        W35298   2.437  29.500  13.307
73988W        W35299  29.154  44.814   3.274
73989W        W35300  21.664  19.680   4.325
73990W        W35301   4.280  19.197   3.863
73991W        W35302  22.592  13.676   1.845
73992W        W35303  23.038  13.787   0.775
73993W        W35304  41.495   9.272  11.586
73994W        W35305  25.178   9.380  12.937
73995W        W35306  25.548   3.439  13.496
73996W        W35307  27.445   3.798   1.378
73997W        W35308  24.545   0.749   2.722
73998W        W35309  24.560  41.941   4.678
73999W        W35310  38.040  36.018   2.274
74000W        W35311   4.918  16.292  10.579
74001W        W35312   1.338  12.759  12.387
74002W        W35313  21.749   2.764   4.120
74003W        W35314  32.001  35.381  11.033
74004W        W35315  32.593  14.681  10.486
74005W        W35316  42.012  34.602  10.547
74006W        W35317  24.062  10.172   0.380
74007W        W35318  40.896  36.857  13.860
74008W        W35319  15.763  14.099  11.926
74009W        W35320  34.011   0.923   0.306
74010W        W35321  21.552   0.929   0.441
74011W        W35322  22.185  13.137   0.419
74012W        W35323  15.672   4.734   3.188
74013W        W35324  12.752  22.215  10.045
74014W        W35325   0.441   8.832  10.489
74015W        W35326  41.312  42.402  11.022
74016W        W35327   8.362  15.733  10.918
74017W        W35328  23.220  40.905   2.726
74018W        W35329  17.206  39.027   4.165
74019W        W35330  34.039  40.939  12.058
74020W        W35331  38.354  33.124  13.392
74021W        W35332  41.496  19.178  13.390
74022W        W35333  33.921  27.031   3.314
74023W        W35334  36.966  20.213  13.952
74024W        W35335  41.822  41.392  12.440
74025W        W35336  30.100  29.514   3.672
74026W        W35337  34.433  16.663   2.860
74027W        W35338   0.395  15.610   0.918
74028W        W35339   6.382  42.291   1.382
74029W        W35340  15.115   5.315   0.299
74030W        W35341   0.487  43.457   4.131
74031W        W35342  21.512  35.603  14.379
74032W        W35343   7.357   0.850   4.601
74033W        W35344  32.519   7.743  14.941
74034W        W35345  16.104  23.716   0.762
74035W        W35346  40.414  19.541   3.766
74036W        W35347  19.573  23.591   4.210
74037W        W35348  32.084   9.647  13.470
74038W        W35349  16.142  38.569   0.400
74039W        W35350  17.154  13.339   4.343
74040W        W35351  35.379   6.709  14.983
74041W        W35352  34.542   9.160  12.427
74042W        W35353   2.467  39.853  13.055
74043W        W35354  11.631   3.425  14.760
74044W        W35355  44.760   2.439  12.575
74045W        W35356  14.802   7.254  12.997
74046W        W35357  19.202  27.639  10.626
74047W        W35358   8.744   2.253   1.415
74048W        W35359  11.803  34.525   1.301
74049W        W35360   5.882   8.836   0.785
74050W        W35361  14.254  41.470   1.377
74051W        W35362   8.360  11.342   0.297
74052W        W35363  27.026  17.246   3.284
74053W        W35364  26.091   7.388  10.958
74054W        W35365  36.389  13.683  13.356
74055W        W35366  43.358   4.860  11.466
74056W        W35367  38.926   0.893   3.728
74057W        W35368  40.419  40.892  12.909
74058W        W35369  33.484  15.120   3.630
74059W        W35370  19.051   6.348   0.274
74060W        W35371  12.622  36.480  14.999
74061W        W35372  28.502  41.431   3.810
74062W        W35373  34.017  30.047  12.009
74063W        W35374   3.448  36.878   3.631
74064W        W35375  22.186  36.080  11.959
74065W        W35376   1.240  17.750   2.831
74066W        W35377  25.706  40.825  13.457
74067W        W35378  32.567  11.140   2.859
74068W        W35379   4.776   2.352   2.780
74069W        W35380  34.910  43.430   1.887
74070W        W35381   7.738   3.412   0.473
74071W        W35382  11.679  38.870  10.046
74072W        W35383  37.050  24.985  14.510
74073W        W35384  12.765  13.259  11.394
74074W        W35385  21.029   1.796   2.338
74075W        W35386  33.594   2.462   0.773
74076W        W35387   7.797  43.511   1.904
74077W        W35388   5.416  29.163  12.981
74078W        W35389   0.825  34.095   0.733
74079W        W35390   6.321  17.667   1.240
74080W        W35391   8.837   7.286  11.455
74081W        W35392  40.502  30.651  14.817
74082W        W35393  14.138  15.726   2.727
74083W        W35394  27.025  29.074  14.453
74084W        W35395  36.536  27.119   2.215
74085W        W35396  26.978  40.320   0.758
74086W        W35397  25.578  38.994  11.387
74087W        W35398  11.786  31.455  11.072
74088W        W35399  17.656  16.116   4.633
74089W        W35400  23.028  24.722   3.299
74090W        W35401  14.680   8.697   3.661
74091W        W35402  18.760  20.759   2.386
74092W        W35403  23.648  38.049  13.906
74093W        W35404   5.933   4.783  12.858
74094W        W35405  27.149  40.437  12.884
74095W        W35406   1.736   1.365  10.634
74096W        W35407  37.440  41.810  12.493
74097W        W35408   3.253  41.974  12.346
74098W        W35409  35.440  13.601   4.744
74099W        W35410  19.150  24.522   0.383
74100W        W35411   0.985  14.778   2.849
74101W        W35412  10.775  22.142  13.021
74102W        W35413  29.433   9.181   2.270
74103W        W35414  44.452  15.581  11.596
74104W        W35415  39.325   4.434  12.006
74105W        W35416   0.400  24.606   1.244
74106W        W35417  25.631   0.478  11.501
74107W        W35418   3.762   1.426  10.593
74108W        W35419  23.634  19.167  10.472
74109W        W35420  21.262  34.483   3.819
74110W        W35421  27.464  38.380   0.804
74111W        W35422   9.181  20.204  10.990
74112W        W35423  35.861  17.083   4.681
74113W        W35424   9.254  17.766  12.014
74114W        W35425  30.610   1.262  12.010
74115W        W35426   8.182   7.395  11.031
74116W        W35427   9.852   3.433   3.786
74117W        W35428  25.640  23.553   0.836
74118W        W35429  35.457  32.950  11.967
74119W        W35430   8.392   2.726   0.361
74120W        W35431  33.461  16.123   0.882
74121W        W35432  32.141  44.812  13.512
74122W        W35433  20.766  29.919  11.014
74123W        W35434  12.216  22.109  10.428
74124W        W35435  36.483  11.253   0.867
74125W        W35436  19.743  36.405  13.821
74126W        W35437  38.424  14.745  14.804
74127W        W35438  33.606   9.727  13.544
74128W        W35439   5.427  10.158   1.416
74129W        W35440  12.808  20.541   0.412
74130W        W35441  32.962  31.945  12.525
74131W        W35442  35.020  30.108   1.739
74132W        W35443   6.821   0.395   1.253
74133W        W35444   2.336  36.465  14.945
74134W        W35445  22.191  37.416   2.781
74135W        W35446   3.402  10.152   3.357
74136W        W35447  16.747  10.733  12.449
74137W        W35448   5.753  13.703   0.451
74138W        W35449  17.657  34.895  10.943
74139W        W35450  39.901   5.418  12.029
74140W        W35451  31.497   4.435  12.917
74141W        W35452  21.525  17.097   1.451
74142W        W35453  44.399  30.073  10.633
74143W        W35454  18.681  37.460   4.812
74144W        W35455  34.485  22.227   2.774
74145W        W35456  37.019   2.834  12.011
74146W        W35457  30.035  19.070  12.913
74147W        W35458  44.993  23.633   4.704
74148W        W35459  22.146   5.880  13.494
74149W        W35460  17.293   6.340   4.312
74150W        W35461  30.455  11.735  12.085
74151W        W35462  40.959  26.661   2.783
74152W        W35463  40.444  15.709  13.425
74153W        W35464  22.208  11.242   4.809
74154W        W35465  31.021   4.843   0.734
74155W        W35466  28.028  43.362   5.299
74156W        W35467  35.957  15.766   1.325
74157W        W35468  20.156  20.649  11.948
74158W        W35469   8.869  13.167  11.883
74159W        W35470  27.483  17.701   3.293
74160W        W35471  16.701  43.444  13.817
74161W        W35472   4.823  44.982   0.786
74162W        W35473  16.648  34.017  11.512
74163W        W35474   5.200  39.424  13.814
74164W        W35475  38.524  10.364  11.061
74165W        W35476  33.935  29.959   0.773
74166W        W35477   8.268  28.931  14.319
74167W        W35478  29.495  29.119  12.940
74168W        W35479  26.153   0.819  14.426
74169W        W35480  39.534  11.211  12.900
74170W        W35481   4.417  38.962   2.692
74171W        W35482  15.724   5.872   5.701
74172W        W35483  34.614  20.230  13.991
74173W        W35484  17.064  39.489   4.331
74174W        W35485  16.084  26.130  13.832
74175W        W35486  44.975  37.485  11.541
74176W        W35487  11.632  41.395   4.232
74177W        W35488  13.796  42.373   3.327
74178W        W35489  14.106  21.186  14.433
74179W        W35490   3.409  39.919   4.609
74180W        W35491  36.912  24.071   2.858
74181W        W35492   1.340  39.504  10.581
74182W        W35493   7.234  34.533   3.665
74183W        W35494  10.324  34.563  13.036
74184W        W35495  19.700   6.918   0.448
74185W        W35496  31.950  42.959   4.204
74186W        W35497  34.439  21.623   0.300
74187W        W35498  23.084   3.923  11.581
74188W        W35499  11.335  11.326  10.938
74189W        W35500  35.019   6.680  14.381
74190W        W35501  42.527   5.832   1.368
74191W        W35502  34.923   8.191  13.823
74192W        W35503  19.682   9.209   5.253
74193W        W35504  16.583  44.857  14.874
74194W        W35505  25.075  22.205  14.919
74195W        W35506  41.381  14.794   0.291
74196W        W35507  27.116  29.583  11.575
74197W        W35508   5.734   9.826   2.317
74198W        W35509  13.804  38.938   1.407
74199W        W35510  40.541  36.082  12.367
74200W        W35511  23.097  18.287  11.086
74201W        W35512   6.694  20.577   4.722
74202W        W35513  28.592  18.085  11.371
74203W        W35514  15.218  11.668  12.850
74204W        W35515  12.825   5.437  13.466
74205W        W35516  32.052  14.757  11.967
74206W        W35517   4.430   1.313  14.461
74207W        W35518  37.046  17.263   3.758
74208W        W35519  25.101   8.234  11.895
74209W        W35520   1.908  37.389  14.811
74210W        W35521  31.120  21.667  12.561
74211W        W35522  12.248  33.069  12.867
74212W        W35523  22.153   5.265  13.513
74213W        W35524  13.299  26.677  13.927
74214W        W35525  34.417  34.052   4.326
74215W        W35526  30.454  15.583  10.544
74216W        W35527  28.451  22.632   4.673
74217W        W35528   6.264  29.132   3.669
74218W        W35529  18.625  22.221   2.852
74219W        W35530  18.095  11.312  13.045
74220W        W35531  36.548  21.233   2.744
74221W        W35532  44.464  18.114   4.236
74222W        W35533  20.226  25.671  13.413
74223W        W35534  30.126  15.253   3.330
74224W        W35535   0.927  29.102   1.447
74225W        W35536  25.608   7.743  10.934
74226W        W35537  38.943  22.694  14.326
74227W        W35538   1.959  21.195  10.024
74228W        W35539  10.799  16.765   3.758
74229W        W35540  43.918  16.284   1.762
74230W        W35541  44.439  40.494  10.419
74231W        W35542  29.056   3.449  10.579
74232W        W35543  15.103  37.845   2.182
74233W        W35544  30.069  12.734   0.949
74234W        W35545  14.644  18.610  14.842
74235W        W35546  44.387  15.103   1.843
74236W        W35547   8.218   4.945  14.979
74237W        W35548  13.291   1.249   0.305
74238W        W35549  29.171   2.910  11.935
74239W        W35550   8.877  11.703  11.926
74240W        W35551  22.017  34.479  14.995
74241W        W35552  42.516  24.223  12.867
74242W        W35553  33.097  22.739  11.427
74243W        W35554  31.143  43.843   2.273
74244W        W35555  44.846  16.772   1.373
74245W        W35556  43.950  10.250  10.116
74246W        W35557  21.735  44.496   0.361
74247W        W35558   0.269   1.376  12.430
74248W        W35559  40.884   9.337  11.950
74249W        W35560  43.423  13.746   1.235
74250W        W35561   5.293   0.860  14.386
74251W        W35562  17.275   4.440  14.018
74252W        W35563   0.435  40.350   0.288
74253W        W35564  39.401  34.555   2.712
74254W        W35565   1.400  44.794   2.798
74255W        W35566  28.004   7.390  11.056
74256W        W35567  31.016  37.405  13.814
74257W        W35568  25.024   9.219  12.378
74258W        W35569  33.422  30.487   3.147
74259W        W35570   5.336  35.953  12.352
74260W        W35571  25.129   0.431  13.984
74261W        W35572  26.521  19.720  14.467
74262W        W35573   8.202  36.057   4.316
74263W        W35574  15.696  27.963   1.417
74264W        W35575  31.617   9.374  12.349
74265W        W35576  27.181  29.102  10.985
74266W        W35577   9.666  25.700   3.253
74267W        W35578  38.348   7.267  11.578
74268W        W35579  42.932  15.169   4.174
74269W        W35580  35.440  37.349  11.098
74270W        W35581  19.656  31.587  12.955
74271W        W35582   1.900   0.272   1.212
74272W        W35583  10.863  10.677   1.326
74273W        W35584  32.997  41.872  10.545
74274W        W35585  33.075   0.918   2.861
74275W        W35586  33.470  16.693   2.369
74276W        W35587  13.793  35.855   2.265
74277W        W35588  27.488   5.353   2.823
74278W        W35589  44.504  22.517  14.464
74279W        W35590  15.309  32.051   4.680
74280W        W35591  31.980  29.446   0.733
74281W        W35592  41.440  24.651   2.697
74282W        W35593  25.563  27.673  13.857
74283W        W35594  41.020  37.995  14.821
74284W        W35595  35.859   8.343  12.545
74285W        W35596  30.018  44.436  10.580
74286W        W35597  19.559   6.260   1.295
74287W        W35598   6.706  36.991  10.979
74288W        W35599  26.615  35.995   2.218
74289W        W35600  33.041   5.855  14.871
74290W        W35601  34.956   2.742  11.601
74291W        W35602   7.233   2.936   2.714
74292W        W35603   3.245   9.708   3.378
74293W        W35604  12.348  22.610  11.564
74294W        W35605  39.364  27.136  10.448
74295W        W35606  23.606  43.824  11.000
74296W        W35607  38.851  15.220   4.838
74297W        W35608  26.166   3.738  10.979
74298W        W35609  13.832  27.105  12.825
74299W        W35610   1.343  12.288  10.451
74300W        W35611  28.571  38.972   0.768
74301W        W35612  19.770  40.491  13.435
74302W        W35613  17.563  33.505   3.198
74303W        W35614  26.596   2.326   2.862
74304W        W35615  12.809  36.377  10.621
74305W        W35616  21.592  17.603   4.186
74306W        W35617  29.112  31.946   2.833
74307W        W35618   4.401  41.341  14.851
74308W        W35619  20.531  18.229  13.445
74309W        W35620   0.788   6.845   2.768
74310W        W35621   2.900  10.815  11.905
74311W        W35622  29.440   7.224  14.995
74312W        W35623  37.034  32.605   1.716
74313W        W35624  17.620  11.362  14.434
74314W        W35625   1.388  12.289  14.403
74315W        W35626  43.437  44.907   0.244
74316W        W35627   3.755  33.126  13.436
74317W        W35628   6.903  39.970  13.834
74318W        W35629  16.113   7.250   4.681
74319W        W35630  44.331  33.028  12.475
74320W        W35631  27.123   9.208  10.138
74321W        W35632  22.064  37.950   2.411
74322W        W35633  34.594  36.053  14.917
74323W        W35634  21.181  41.419   5.275
74324W        W35635   1.336  32.497   4.307
74325W        W35636  14.733   4.338   3.359
74326W        W35637   2.805  12.301   1.735
74327W        W35638  20.258  37.998   3.305
74328W        W35639  37.019  32.451   1.420
74329W        W35640  36.364   7.909   3.869
74330W        W35641   4.714  15.203  13.393
74331W        W35642  42.447  14.150   3.766
74332W        W35643  32.592   2.837  11.545
74333W        W35644  33.515  33.961   3.658
74334W        W35645  23.647   3.870   1.865
74335W        W35646  37.865  20.564  13.306
74336W        W35647  13.323  33.018  14.987
74337W        W35648  37.084  29.471   2.761
74338W        W35649  14.612  15.271   1.225
74339W        W35650  31.914   6.808   1.304
74340W        W35651  44.833  18.199  11.952
74341W        W35652   6.232   7.191   3.715
74342W        W35653  27.069  36.441   4.749
74343W        W35654  37.491  21.584   3.759
74344W        W35655  32.395  27.110   4.655
74345W        W35656  35.547  31.120  11.420
74346W        W35657  33.929  25.627  12.459
74347W        W35658   1.428  21.122   3.231
74348W        W35659  25.527  31.541   3.684
74349W        W35660  17.137   4.434   3.257
74350W        W35661  35.940  11.798   3.820
74351W        W35662  34.412  31.084  12.427
74352W        W35663  37.354  42.940  12.095
74353W        W35664  25.168  43.811   2.282
74354W        W35665  10.773   0.482  12.004
74355W        W35666  19.731  32.102   1.431
74356W        W35667   5.389  39.548   2.221
74357W        W35668  30.016  32.060  11.060
74358W        W35669  15.679   6.851   3.242
74359W        W35670   8.327  43.275  13.396
74360W        W35671   5.302   9.311   4.205
74361W        W35672  38.394  31.458  10.913
74362W        W35673   4.354  43.780   2.700
74363W        W35674   0.491   7.695  14.882
74364W        W35675   5.381  10.877  14.021
74365W        W35676  38.865  17.664   1.892
74366W        W35677  13.188  20.735  14.931
74367W        W35678  33.549  35.932   9.928
74368W        W35679  32.105  44.858   4.242
74369W        W35680  18.292  32.104   0.267
74370W        W35681  29.440  20.178  11.915
74371W        W35682  25.971  15.698   3.363
74372W        W35683  15.165  42.330  10.404
74373W        W35684   5.418  20.644  10.978
74374W        W35685  26.163  23.216   1.728
74375W        W35686  24.526  16.793  12.535
74376W        W35687  41.852  26.467  12.537
74377W        W35688  25.575  10.291   2.274
74378W        W35689  38.995   8.280  14.864
74379W        W35690  35.999  14.243  13.411
74380W        W35691  28.987  15.281   1.410
74381W        W35692   7.407   1.441  11.994
74382W        W35693  41.916  14.770  11.527
74383W        W35694  23.091  13.646  11.581
74384W        W35695   7.274  24.487   3.254
74385W        W35696  23.603  37.425  14.466
74386W        W35697  38.877  10.146  14.877
74387W        W35698  38.471  41.309  14.410
74388W        W35699  34.598   9.278   4.302
74389W        W35700  17.294  39.402  14.502
74390W        W35701  20.062  16.630  11.611
74391W        W35702  33.895   9.858   4.321
74392W        W35703  11.702   1.403  10.989
74393W        W35704  42.472  32.896  13.884
74394W        W35705  21.251   7.343   1.894
74395W        W35706  40.862  10.349  10.993
74396W        W35707  41.331   0.388  12.840
74397W        W35708   3.249  25.089   5.268
74398W        W35709  24.491  17.215   2.275
74399W        W35710  22.532  20.266   0.404
74400W        W35711  40.866  33.395   2.250
74401W        W35712  28.951  20.131   0.933
74402W        W35713  38.889  25.675  11.126
74403W        W35714   2.410  27.544  10.995
74404W        W35715  18.627  27.098  13.379
74405W        W35716   5.309  21.713  10.454
74406W        W35717   6.261  11.765  10.951
74407W        W35718  27.524  42.426  14.349
74408W        W35719  15.166   7.312  10.562
74409W        W35720  18.622   8.288   1.215
74410W        W35721   8.885  22.558   1.707
74411W        W35722   2.872  23.137  11.465
74412W        W35723  33.490  43.964   0.344
74413W        W35724  38.458  18.113   0.415
74414W        W35725  24.078  23.203  13.805
74415W        W35726   1.753  27.185   0.386
74416W        W35727  18.730  18.699   4.788
74417W        W35728   4.316  31.606  10.534
74418W        W35729  18.607   2.721   0.259
74419W        W35730  39.970  31.605  11.122
74420W        W35731   2.752  21.144   9.919
74421W        W35732  37.538  28.511   4.220
74422W        W35733  22.040  20.764   0.317
74423W        W35734   0.754   8.875   0.303
74424W        W35735   3.283  36.052  12.832
74425W        W35736  10.783  27.662  14.289
74426W        W35737   0.379   2.326   2.347
74427W        W35738  15.591  14.616   3.345
74428W        W35739  20.548  11.647  11.580
74429W        W35740  26.166  34.022   4.602
74430W        W35741  26.560   3.715   1.833
74431W        W35742  35.470  31.965   4.705
74432W        W35743  17.772  21.516   1.211
74433W        W35744  19.583  15.199  13.481
74434W        W35745  11.320  22.606   4.688
74435W        W35746  12.118  32.105   1.880
74436W        W35747  31.621  17.581   2.208
74437W        W35748  24.064   7.178  10.443
74438W        W35749  38.483  38.519   5.656
74439W        W35750  24.679  25.539   4.319
74440W        W35751  18.765  20.030  13.047
74441W        W35752  28.180  37.984   0.399
74442W        W35753   2.779  10.652  14.509
74443W        W35754  31.409  33.940  10.440
74444W        W35755   8.370  22.597   3.699
74445W        W35756   8.277  28.577   3.762
74446W        W35757  18.758  29.938  11.568
74447W        W35758  22.094  23.602   3.334
74448W        W35759  25.649  41.394  11.128
74449W        W35760  25.643  38.501   0.434
74450W        W35761  12.768  36.397   3.817
74451W        W35762  16.781  37.031   2.364
74452W        W35763  32.086  27.041   2.200
74453W        W35764  31.506  43.292   2.668
74454W        W35765  15.586  38.328  10.612
74455W        W35766   0.755  30.567  11.603
74456W        W35767  15.107  26.554   5.189
74457W        W35768  39.443  13.783   1.769
74458W        W35769   6.209  27.609   1.798
74459W        W35770   6.677  25.702   3.825
74460W        W35771  16.748  34.946   1.344
74461W        W35772   0.382   2.722  10.511
74462W        W35773  31.565  18.776   0.741
74463W        W35774  15.275  17.568   5.151
74464W        W35775  15.777  42.807  11.935
74465W        W35776  17.597   0.955   0.745
74466W        W35777  24.516  40.539  11.878
74467W        W35778  22.604  23.993   2.708
74468W        W35779  12.281  18.651  11.926
74469W        W35780  27.113   7.711   4.298
74470W        W35781  37.546  35.426  12.855
74471W        W35782  13.171  22.633   0.839
74472W        W35783  25.101  13.323  12.441
74473W        W35784   3.327  28.497   3.642
74474W        W35785   2.282   5.878  11.560
74475W        W35786  35.908  32.009  14.486
74476W        W35787  25.111  32.470   1.438
74477W        W35788  35.526  44.315  13.388
74478W        W35789   4.766  21.202   3.859
74479W        W35790  43.779  13.836  10.576
74480W        W35791  12.826  30.433  11.882
74481W        W35792   2.839  16.686  12.856
74482W        W35793  10.263  14.252  10.497
74483W        W35794  35.591  17.663  14.993
74484W        W35795  21.710  44.389  12.955
74485W        W35796  13.147   1.761  14.945
74486W        W35797   8.341  13.727   0.260
74487W        W35798   1.924  24.047   2.240
74488W        W35799   2.255   6.680   3.745
74489W        W35800  21.054   4.430   3.282
74490W        W35801  35.397  32.958  13.931
74491W        W35802   6.909  10.636   0.365
74492W        W35803   4.306  15.682  12.075
74493W        W35804  29.627  27.567  13.883
74494W        W35805  14.825  19.207   4.821
74495W        W35806  26.546   4.323  11.080
74496W        W35807  32.563  26.492   2.352
74497W        W35808   6.279  30.012  11.995
74498W        W35809   6.734   9.161   0.935
74499W        W35810  32.907   4.415   2.313
74500W        W35811  36.887  26.530  10.563
74501W        W35812  40.527  26.124  10.989
74502W        W35813  34.116  17.205  12.001
74503W        W35814  33.422   8.293   4.829
74504W        W35815  30.929   8.175  10.421
74505W        W35816  26.699  37.999   4.303
74506W        W35817  15.314  40.930   4.661
74507W        W35818  33.424  29.031  12.072
74508W        W35819   0.343  44.914  12.852
74509W        W35820  34.601  31.063   9.475
74510W        W35821  12.612  23.995  11.597
74511W        W35822  42.382  29.932  13.881
74512W        W35823  44.353   8.269   4.603
74513W        W35824  31.975   9.369   5.167
74514W        W35825  13.197  36.358   2.859
74515W        W35826   0.328  21.561  14.835
74516W        W35827  40.009   2.235  12.038
74517W        W35828  13.351  28.593   0.402
74518W        W35829  14.264   2.749   4.804
74519W        W35830  24.651  42.523  14.008
74520W        W35831   1.852  20.637  13.021
74521W        W35832  22.075  33.621  11.430
74522W        W35833  40.310  13.629  13.394
74523W        W35834   5.873  22.170   0.328
74524W        W35835  42.790  17.786   1.412
74525W        W35836  19.609  40.374   3.376
74526W        W35837  42.499  14.640   3.664
74527W        W35838  28.657  21.239  12.519
74528W        W35839   4.278  22.707   4.279
74529W        W35840  41.426  19.609  10.609
74530W        W35841  27.564  11.801   0.882
74531W        W35842  38.395  28.574  14.831
74532W        W35843   2.430   5.209   1.922
74533W        W35844   8.229  36.458  13.937
74534W        W35845  42.519   3.955  11.037
74535W        W35846   6.281  18.628   4.126
74536W        W35847  34.471  40.391   1.749
74537W        W35848  42.396  11.142  12.934
74538W        W35849  19.749  21.636   4.166
74539W        W35850  20.070  36.463   1.271
74540W        W35851  32.523  14.781   3.353
74541W        W35852  14.704   2.405  14.362
74542W        W35853   1.866  38.973  11.926
74543W        W35854  44.774  41.328  11.865
74544W        W35855  41.815  10.262  13.049
74545W        W35856  13.321  12.631   3.726
74546W        W35857   6.885  23.559  13.522
74547W        W35858   2.453  39.353  14.982
74548W        W35859  29.095  43.013  11.577
74549W        W35860  14.748  38.038   3.268
74550W        W35861  26.138  25.568  11.907
74551W        W35862  38.486   2.939   2.361
74552W        W35863  29.526   1.818  12.982
74553W        W35864  19.059  12.812   2.848
74554W        W35865   5.409  17.656  11.880
74555W        W35866  38.509  44.800  13.337
74556W        W35867  22.625  24.002  10.054
74557W        W35868  23.057  33.980   4.313
74558W        W35869  32.901   3.829   4.754
74559W        W35870   8.744  21.120   0.391
74560W        W35871  40.941  24.689  13.460
74561W        W35872  12.361  18.712   2.900
74562W        W35873  17.778  15.174  10.933
74563W        W35874   4.831  41.458   1.352
74564W        W35875  44.416  21.028  12.907
74565W        W35876  35.991   7.221   1.719
74566W        W35877  25.103  32.966  12.924
74567W        W35878  33.974   8.721   0.843
74568W        W35879  28.513  24.004  14.925
74569W        W35880  14.341  25.595   3.729
74570W        W35881  24.066  36.941   4.736
74571W        W35882  19.130  35.592  13.323
74572W        W35883  18.218  17.120   0.889
74573W        W35884  38.031  27.027   3.372
74574W        W35885  28.676  38.883  10.424
74575W        W35886  30.960  27.013   3.782
74576W        W35887  16.589   4.889   2.346
74577W        W35888  14.266   5.219  14.911
74578W        W35889  33.932   3.900   2.849
74579W        W35890   8.719  11.347  12.449
74580W        W35891  29.951  44.478  13.839
74581W        W35892  24.067  31.936   4.333
74582W        W35893  18.253  40.817  12.863
74583W        W35894  29.594  15.614   1.235
74584W        W35895  39.861  14.095   1.872
74585W        W35896  13.112   9.796  12.890
74586W        W35897  22.699  35.420  14.504
74587W        W35898  15.318   3.888   0.460
74588W        W35899   9.152  15.105   4.297
74589W        W35900  33.102  13.122   0.755
74590W        W35901  11.635  30.140  10.412
74591W        W35902  24.222  30.063   2.374
74592W        W35903  18.698   2.243  11.993
74593W        W35904  44.466  13.796   1.856
74594W        W35905  19.587  18.625   1.864
74595W        W35906   9.679   3.775  11.466
74596W        W35907  41.325   3.338  13.339
74597W        W35908  44.808  22.092   0.393
74598W        W35909  44.765   9.386   3.844
74599W        W35910  12.780  10.180  14.503
74600W        W35911  13.761  28.538   3.796
74601W        W35912  24.696  10.248   2.723
74602W        W35913  36.930   5.438   2.370
74603W        W35914  15.794  40.311  12.042
74604W        W35915  19.284   2.919   4.177
74605W        W35916  28.948  26.475  11.075
74606W        W35917  16.267  26.682  14.967
74607W        W35918  11.852  13.136   2.267
74608W        W35919  28.475  31.457   0.249
74609W        W35920  32.514  16.660  13.512
74610W        W35921  31.403  23.145  14.898
74611W        W35922  16.612  35.953  11.516
74612W        W35923   5.225  21.138   1.880
74613W        W35924  34.880  36.518  12.023
74614W        W35925  18.085   8.843   1.791
74615W        W35926  37.348  44.447  14.504
74616W        W35927   5.289  19.589  12.089
74617W        W35928   3.342   9.851  14.008
74618W        W35929  41.794   3.796   1.422
74619W        W35930  26.498  36.968   3.176
74620W        W35931  13.190  11.308  13.510
74621W        W35932   1.267   2.822  13.882
74622W        W35933  23.156  21.233   1.777
74623W        W35934  11.813   5.713  14.857
74624W        W35935  28.076  24.639   4.664
74625W        W35936  41.891  19.231  10.537
74626W        W35937  39.497  12.724  10.505
74627W        W35938  20.121  25.182  11.096
74628W        W35939  26.018  29.452  10.111
74629W        W35940  25.006   3.891  10.451
74630W        W35941  11.796  14.785  14.336
74631W        W35942  31.108  24.510   4.353
74632W        W35943  31.095   4.708   1.293
74633W        W35944   7.408  13.676   4.300
74634W        W35945  34.939  14.279   4.783
74635W        W35946  40.391  16.751  12.440
74636W        W35947  38.074  41.860  10.976
74637W        W35948   9.209   3.398  14.827
74638W        W35949  21.562  21.155   2.771
74639W        W35950  17.123  35.364  12.537
74640W        W35951  26.002  20.136   2.866
74641W        W35952  39.509  21.251  14.484
74642W        W35953  18.204   7.195   4.726
74643W        W35954  33.000  36.371   4.612
74644W        W35955  43.369  15.794  10.618
74645W        W35956  33.521  29.032   0.758
74646W        W35957  22.152  31.094   3.754
74647W        W35958  39.874  35.583   0.967
74648W        W35959  11.658  15.215  14.938
74649W        W35960   9.653  30.516  13.956
74650W        W35961  19.655   9.250  13.518
74651W        W35962  30.470   0.425  11.516
74652W        W35963  32.053  22.530   2.728
74653W        W35964  28.987  43.913  10.412
74654W        W35965  42.875  24.647   4.719
74655W        W35966  35.458  20.646  14.789
74656W        W35967  14.337  38.379   4.720
74657W        W35968  32.015  19.619  11.512
74658W        W35969  19.606  22.744   0.820
74659W        W35970  34.055   3.414  10.505
74660W        W35971  22.101   2.927  14.905
74661W        W35972  11.726  19.571  12.826
74662W        W35973   0.294  12.693  10.912
74663W        W35974  34.112  10.700  12.932
74664W        W35975  41.434   2.418   2.759
74665W        W35976  28.131  22.718   0.805
74666W        W35977  13.131  14.794   3.747
74667W        W35978   3.714  32.062  12.848
74668W        W35979  12.276  11.302   2.873
74669W        W35980  15.620  14.244   3.189
74670W        W35981  15.735  21.089   3.687
74671W        W35982   9.196   9.246   1.934
74672W        W35983  40.359  17.172  14.414
74673W        W35984  44.997  18.213  12.341
74674W        W35985   5.876  16.152  13.387
74675W        W35986   7.815  11.806  14.006
74676W        W35987  44.971  38.954  11.860
74677W        W35988  38.062  31.572   1.432
74678W        W35989   0.325  24.576   2.776
74679W        W35990  29.165  35.500   3.314
74680W        W35991  13.779  43.288  12.362
74681W        W35992   9.748  33.964  13.907
74682W        W35993   8.320  33.065   2.839
74683W        W35994  11.718  43.916   3.358
74684W        W35995  37.903  26.679  13.501
74685W        W35996  26.483  31.427   4.634
74686W        W35997   2.413   6.711   1.924
74687W        W35998  27.146  20.184   4.817
74688W        W35999  21.153  29.608   2.883
74689W        W36000  34.064  40.951   1.353
74690W        W36001  43.819  31.491  13.510
74691W        W36002  23.493   8.741  12.383
74692W        W36003  24.148  11.708  12.361
74693W        W36004  16.677  43.830   4.714
74694W        W36005   5.870   7.249  12.962
74695W        W36006  37.434  38.936   3.865
74696W        W36007  23.647  37.034   3.861
74697W        W36008  38.971  27.053  11.075
74698W        W36009  20.681   4.299  11.480
74699W        W36010  28.955  36.583   1.932
74700W        W36011  20.669   3.329  13.820
74701W        W36012  40.336  23.710  11.465
74702W        W36013   9.686  15.230  13.033
74703W        W36014  23.217   2.781   2.214
74704W        W36015  39.031  34.613  13.337
74705W        W36016   1.807  22.720  14.298
74706W        W36017  18.240   7.818  13.007
74707W        W36018  10.158   7.415   4.120
74708W        W36019  28.973   4.925   1.360
74709W        W36020  44.498   9.265  14.836
74710W        W36021  38.537   6.356  10.526
74711W        W36022  12.135   6.347   4.751
74712W        W36023  39.825   5.852   1.446
74713W        W36024  14.751  31.617  12.434
74714W        W36025   2.330   5.383  12.459
74715W        W36026   0.974  43.974   2.253
74716W        W36027   0.930  32.401  13.349
74717W        W36028  28.570  12.773  10.901
74718W        W36029   3.734  29.473  13.013
74719W        W36030  20.635   9.377  12.442
74720W        W36031   5.887   3.281   0.409
74721W        W36032  17.738  13.310   5.284
74722W        W36033  15.277   5.911  10.429
74723W        W36034   5.363  32.929  13.843
74724W        W36035  16.631  28.140   4.226
74725W        W36036  30.518  15.690   2.235
74726W        W36037  22.221  17.695   0.483
74727W        W36038  44.342  16.688  13.352
74728W        W36039  30.420  27.629   0.827
74729W        W36040  38.040  24.702  10.948
74730W        W36041  21.176  19.130  13.057
74731W        W36042  44.917   4.910   4.155
74732W        W36043  21.222  30.057  14.942
74733W        W36044  29.113  35.040  14.760
74734W        W36045  17.209  12.246  10.416
74735W        W36046  39.358  10.174  13.830
74736W        W36047   2.399  36.494  11.568
74737W        W36048  36.075  23.010  11.416
74738W        W36049  25.675  26.128   3.322
74739W        W36050   7.787  14.294  12.061
74740W        W36051   5.220  37.580   4.137
74741W        W36052  31.487  38.521   4.683
74742W        W36053  16.709  36.028   4.211
74743W        W36054   4.340   7.394  13.972
74744W        W36055   8.262  34.535  12.071
74745W        W36056  23.544  39.825   1.344
74746W        W36057  12.245  29.029  14.008
74747W        W36058  26.965   7.324   4.116
74748W        W36059  25.680  20.058  12.402
74749W        W36060  29.531  20.224   0.393
74750W        W36061  25.116  42.426   4.630
74751W        W36062   1.406  36.397  11.092
74752W        W36063   4.709   9.825  13.994
74753W        W36064  18.050  24.181   5.319
74754W        W36065  30.610  21.525  13.490
74755W        W36066  20.230  43.404  12.910
74756W        W36067  38.470  29.996   1.694
74757W        W36068  25.503  28.989  10.133
74758W        W36069  19.600   2.879  10.545
74759W        W36070   5.783  21.667   3.794
74760W        W36071  17.561   8.733  11.568
74761W        W36072   5.705  26.035   0.806
74762W        W36073   2.254  28.119   2.338
74763W        W36074  22.173  21.519  13.793
74764W        W36075  35.596  30.946  13.423
74765W        W36076  35.402  12.158   2.403
74766W        W36077  16.134  37.086  13.919
74767W        W36078  41.867  14.640   4.171
74768W        W36079  22.547   3.409   0.886
74769W        W36080  42.399  28.491  14.996
74770W        W36081  14.791  28.119  14.470
74771W        W36082   0.890  11.793  11.386
74772W        W36083  12.271  14.723   0.840
74773W        W36084  28.655  28.459   3.222
74774W        W36085   8.243  36.856  13.035
74775W        W36086  43.304  38.869  11.457
74776W        W36087  38.073  11.172  13.917
74777W        W36088  19.579  36.940   0.805
74778W        W36089  31.095  30.476   1.393
74779W        W36090   5.855  16.180  12.896
74780W        W36091  25.130  11.247  14.765
74781W        W36092  35.056  36.971   0.796
74782W        W36093   6.395   1.324  14.477
74783W        W36094  24.593   6.227   2.676
74784W        W36095   4.831  14.755  14.378
74785W        W36096   4.413  44.881   0.928
74786W        W36097  44.487  39.329  11.080
74787W        W36098  37.937  37.049  14.277
74788W        W36099  21.017  29.551  11.494
74789W        W36100  18.789  18.255   3.790
74790W        W36101  35.531  36.507   2.242
74791W        W36102   1.851  20.093   2.286
74792W        W36103  17.154  22.229  12.965
74793W        W36104   1.263  35.440  14.470
74794W        W36105  28.974   3.876   3.822
74795W        W36106  10.640   3.819   3.704
74796W        W36107  26.558  12.140   0.796
74797W        W36108  14.695  43.985  11.410
74798W        W36109  34.871   1.965  11.462
74799W        W36110  26.136  38.442  14.394
74800W        W36111  44.833  16.810   4.812
74801W        W36112  33.602  38.550  14.959
74802W        W36113  39.504  16.691   4.121
74803W        W36114  28.978   6.726  13.834
74804W        W36115   1.847   7.414  11.987
74805W        W36116  38.948  24.069   4.237
74806W        W36117  19.653   8.278  12.494
74807W        W36118   6.378  40.311  11.569
74808W        W36119  33.517  14.778  10.906
74809W        W36120  21.048  32.475  11.912
74810W        W36121  33.483   5.749   4.285
74811W        W36122   8.239  17.641  12.953
74812W        W36123   0.950   1.782   1.757
74813W        W36124   5.214  41.869   2.702
74814W        W36125  10.238  23.117   0.255
74815W        W36126  42.855  35.386   0.789
74816W        W36127   9.715  18.620  14.936
74817W        W36128   8.173  35.896  13.791
74818W        W36129  13.726  26.055  13.919
74819W        W36130  29.469  12.653  12.441
74820W        W36131  38.036  23.720   5.235
74821W        W36132  41.884  25.165   4.143
74822W        W36133  30.498  11.825  10.620
74823W        W36134  20.229  44.458   2.341
74824W        W36135  20.726  21.202   9.485
74825W        W36136  32.430  25.185  11.390
74826W        W36137  19.039   8.239   2.297
74827W        W36138   8.298  10.644   2.709
74828W        W36139  11.193  12.755  10.973
74829W        W36140  39.062  28.933  12.378
74830W        W36141  32.494   1.301  14.876
74831W        W36142   8.186   8.844  13.468
74832W        W36143  18.087   0.918  10.905
74833W        W36144  21.700   4.766  10.035
74834W        W36145  11.213  34.963  13.481
74835W        W36146   5.821  38.951  12.947
74836W        W36147   9.887  30.649   4.140
74837W        W36148   4.204  11.246  11.608
74838W        W36149   2.365  26.110  12.512
74839W        W36150  42.789  10.700  10.464
74840W        W36151  26.457  10.377  13.315
74841W        W36152  41.470  39.425   1.409
74842W        W36153  24.700  33.045   0.879
74843W        W36154  36.390   4.257   3.169
74844W        W36155  29.094   8.805   4.240
74845W        W36156  11.848   2.919  11.038
74846W        W36157  18.634  23.094   0.376
74847W        W36158  29.044  36.399  14.373
74848W        W36159  39.924  13.612   3.687
74849W        W36160  17.562  14.768  13.352
74850W        W36161  37.831  30.005  12.917
74851W        W36162  16.807  42.827  10.608
74852W        W36163  17.082  16.169   4.622
74853W        W36164  27.567  10.830   2.745
74854W        W36165   2.272  23.136   0.430
74855W        W36166  35.484  20.622   0.814
74856W        W36167  44.283   8.352  13.375
74857W        W36168   2.472   8.172   0.811
74858W        W36169  36.992  33.001   2.346
74859W        W36170   1.293  21.037  13.890
74860W        W36171  43.853   8.391   2.286
74861W        W36172  33.381  34.378  10.153
74862W        W36173  38.025  38.369  13.996
74863W        W36174  40.437  42.408  13.433
74864W        W36175  21.023   5.828   4.714
74865W        W36176  11.212   6.708  10.438
74866W        W36177  18.774   0.968   2.863
74867W        W36178  22.524  15.631   0.750
74868W        W36179  33.383   8.837  12.534
74869W        W36180  26.457  44.502  14.467
74870W        W36181  31.556   8.707  10.624
74871W        W36182  11.160  23.676   5.314
74872W        W36183   5.744  23.636   3.685
74873W        W36184  43.775  36.418   1.769
74874W        W36185  10.157  18.160  10.141
74875W        W36186  44.948  36.098   2.341
74876W        W36187  29.548   1.359   0.335
74877W        W36188  33.130  21.546  13.321
74878W        W36189  12.761  44.488  14.831
74879W        W36190  12.221   4.385  14.464
74880W        W36191  43.926  43.426   4.660
74881W        W36192  29.095   5.382  11.487
74882W        W36193  17.724   0.381   0.260
74883W        W36194  10.791   2.758  12.085
74884W        W36195  36.361  28.536  14.765
74885W        W36196  42.818  19.667  10.431
74886W        W36197  36.398   2.286   2.411
74887W        W36198  28.058  34.996   1.793
74888W        W36199  19.120  10.863   3.192
74889W        W36200  19.049  36.063   1.733
74890W        W36201  24.497   1.304   4.760
74891W        W36202  28.019  14.709   4.162
74892W        W36203  14.179  14.192   3.238
74893W        W36204  32.606  27.597  11.940
74894W        W36205  17.775   6.424   1.910
74895W        W36206  18.068  38.536   1.451
74896W        W36207  35.895  38.408  11.998
74897W        W36208   9.271  16.677  11.482
74898W        W36209   1.876  34.914  11.457
74899W        W36210   7.871  18.753  12.021
74900W        W36211   6.284  41.329   3.326
74901W        W36212  36.937  21.629  13.458
74902W        W36213  24.196  43.901  10.513
74903W        W36214  21.245  18.674  10.080
74904W        W36215  24.143  37.558   4.677
74905W        W36216  24.120  14.684  13.014
74906W        W36217  15.260   4.316  13.959
74907W        W36218   3.889  22.236   2.337
74908W        W36219  38.060  17.664   0.870
74909W        W36220  26.591  36.864  11.878
74910W        W36221  35.023  36.490   1.820
74911W        W36222  33.049  20.084   4.743
74912W        W36223  24.040  38.332  12.084
74913W        W36224  40.438  30.535   1.237
74914W        W36225  23.600   5.772  12.906
74915W        W36226  44.784  40.914   0.878
74916W        W36227  28.535  25.482   1.776
74917W        W36228  12.145   3.369   3.268
74918W        W36229  12.701  24.981  12.924
74919W        W36230  38.948  37.077  10.407
74920W        W36231  36.933  28.465   4.603
74921W        W36232  32.461  29.463   3.704
74922W        W36233  32.603  13.169   3.670
74923W        W36234   2.247  33.390  13.399
74924W        W36235   3.912   0.462   0.432
74925W        W36236   8.282  19.169  14.306
74926W        W36237  40.427  16.200  14.372
74927W        W36238  41.302  39.557  13.343
74928W        W36239  10.804  12.299  12.352
74929W        W36240  26.519  29.642   1.412
74930W        W36241  18.596  13.305  11.518
74931W        W36242  21.200  39.871   2.724
74932W        W36243  13.301  22.502  10.519
74933W        W36244   7.244  22.080  12.372
74934W        W36245   0.350  17.617  12.846
74935W        W36246  30.913  20.082  13.404
74936W        W36247  15.184  32.527  10.465
74937W        W36248  16.644  44.377   0.881
74938W        W36249  15.188  44.904   4.212
74939W        W36250  27.503  44.438   0.842
74940W        W36251   0.980  34.047   2.341
74941W        W36252  16.217  41.902   3.827
74942W        W36253  29.453  31.499   3.814
74943W        W36254  18.122   8.727  14.829
74944W        W36255  43.439  18.682  11.505
74945W        W36256   0.988  14.819  12.009
74946W        W36257   7.272  12.288  14.860
74947W        W36258  22.089  36.491  11.093
74948W        W36259   2.466  44.938  14.418
74949W        W36260   9.189  24.025  13.440
74950W        W36261  15.275  44.399  12.833
74951W        W36262   3.305   6.916   3.252
74952W        W36263  26.997  42.850  11.595
74953W        W36264  19.230  43.464  13.512
74954W        W36265   6.322  14.228  14.888
74955W        W36266   6.789  31.021   4.778
74956W        W36267  36.863  39.880   1.446
74957W        W36268  32.510  31.465   2.740
74958W        W36269  18.290  27.088  13.975
74959W        W36270  33.458   7.330   5.123
74960W        W36271   7.763  43.774   3.385
74961W        W36272  29.511  36.023  12.076
74962W        W36273  32.416   8.747   3.151
74963W        W36274  30.143  32.427   4.232
74964W        W36275  35.456   4.261  14.031
74965W        W36276   1.828  31.609   1.290
74966W        W36277  40.497  25.196  11.542
74967W        W36278  26.633  30.436   3.800
74968W        W36279  10.253  26.966  14.829
74969W        W36280  29.452   1.320  14.400
74970W        W36281   6.412   9.783  12.551
74971W        W36282  30.974  34.020   1.900
74972W        W36283  43.780  42.823   4.770
74973W        W36284  42.387  30.482   0.841
74974W        W36285  17.639   0.920  14.842
74975W        W36286  18.296  36.457   0.360
74976W        W36287   3.730  13.206  13.870
74977W        W36288  43.007  19.124  13.941
74978W        W36289  42.851  38.948   1.368
74979W        W36290  29.924  28.567  11.993
74980W        W36291  15.718  39.484  13.019
74981W        W36292  41.953   3.419   2.666
74982W        W36293  38.873   2.318   4.159
74983W        W36294  22.685  38.564  12.368
74984W        W36295  24.543  31.984   2.860
74985W        W36296  11.363  18.548  13.543
74986W        W36297  12.194  34.454  10.444
74987W        W36298  41.470  12.135   1.756
74988W        W36299   2.346   7.786   0.467
74989W        W36300  24.061  37.030   0.256
74990W        W36301   0.485  21.061  13.306
74991W        W36302  31.604  27.972  12.542
74992W        W36303  37.895   0.947  13.849
74993W        W36304  25.516   3.303   1.250
74994W        W36305  34.936   3.408  13.831
74995W        W36306  33.564  31.145  14.992
74996W        W36307  24.636  44.811   1.850
74997W        W36308  20.561  36.521   3.276
74998W        W36309   4.705  18.710   1.863
74999W        W36310   3.853   5.912   1.401
75000W        W36311  11.136  32.447  13.415
75001W        W36312  31.068  19.538  11.598
75002W        W36313   5.754   8.394   2.745
75003W        W36314  21.683  42.941  13.876
75004W        W36315  22.676   9.285   1.410
75005W        W36316   1.803   8.164   2.729
75006W        W36317   7.302  19.174   9.994
75007W        W36318   6.858  37.977  12.517
75008W        W36319  42.012  42.020  13.828
75009W        W36320  29.653  29.065   0.270
75010W        W36321  43.826  38.539  12.520
75011W        W36322  20.643   4.322  12.823
75012W        W36323  32.495  38.476  10.942
75013W        W36324   3.246   0.834  14.006
75014W        W36325   1.882  11.261  13.474
75015W        W36326  34.876  17.289  14.003
75016W        W36327  41.408  27.942  11.089
75017W        W36328  32.581  15.805  13.450
75018W        W36329  10.687   9.282   3.643
75019W        W36330  36.047   3.350   4.790
75020W        W36331   3.922  26.599   0.354
75021W        W36332  25.476  41.798  10.434
75022W        W36333  17.239  34.440  11.104
75023W        W36334  38.485  10.693  11.938
75024W        W36335  38.388  39.375   1.409
75025W        W36336  31.565  33.435   2.840
75026W        W36337  25.018   3.754   0.299
75027W        W36338  29.108   1.386  14.941
75028W        W36339  14.593  14.238   2.717
75029W        W36340  42.449  41.347  13.418
75030W        W36341   8.794  17.168   9.991
75031W        W36342  40.944   5.790  11.610
75032W        W36343   8.744  31.482  11.401
75033W        W36344  23.549  11.154   2.738
75034W        W36345  33.403   9.650   1.302
75035W        W36346  19.744  42.963   3.188
75036W        W36347  10.640  24.575   3.851
75037W        W36348  14.324  12.662  14.760
75038W        W36349  15.207  38.445   0.331
75039W        W36350  39.827  38.951  11.960
75040W        W36351   4.883  15.607   4.768
75041W        W36352  18.085  21.723   3.354
75042W        W36353  23.730   0.891   1.364
75043W        W36354  32.604   1.754   0.764
75044W        W36355   5.710   4.878  10.158
75045W        W36356  18.213  12.344   0.869
75046W        W36357  34.932  35.404   4.711
75047W        W36358  39.513  13.177   0.884
75048W        W36359   2.349  21.064   4.140
75049W        W36360  15.716   8.167  12.020
75050W        W36361  26.656   7.789   4.152
75051W        W36362   8.283  30.089  14.838
75052W        W36363  31.141  17.243  11.086
75053W        W36364  23.699  43.936   0.753
75054W        W36365   3.905  29.116  12.990
75055W        W36366  28.493   2.404   1.372
75056W        W36367  18.566  18.760  10.117
75057W        W36368  21.686  13.204  14.968
75058W        W36369  37.082  19.045  11.521
75059W        W36370   5.273  13.649  12.922
75060W        W36371  17.633  35.915  13.007
75061W        W36372  23.232   1.478  10.427
75062W        W36373  27.966   3.375   2.749
75063W        W36374  34.474  42.882   4.299
75064W        W36375  41.914  13.619   2.419
75065W        W36376  34.915   1.822   5.277
75066W        W36377  15.129  37.416  14.902
75067W        W36378   5.878  23.649  12.827
75068W        W36379  33.494  16.310  13.421
75069W        W36380   8.779  28.157  14.829
75070W        W36381  38.336  32.132   1.298
75071W        W36382  28.644  44.872  11.445
75072W        W36383  15.113  21.646  11.587
75073W        W36384   9.844  15.241  14.475
75074W        W36385  26.700  18.158   5.722
75075W        W36386  14.159  18.650  12.388
75076W        W36387  35.883   7.897   0.741
75077W        W36388  10.659  23.136   4.281
75078W        W36389  33.082   9.718  11.030
75079W        W36390  33.590  21.747   4.337
75080W        W36391  40.302  22.721   0.736
75081W        W36392  33.010  19.721  11.017
75082W        W36393  31.421  33.882   0.914
75083W        W36394   9.239  21.025  11.974
75084W        W36395  17.181  31.488   1.392
75085W        W36396  35.462   7.326   1.864
75086W        W36397  30.116   5.319   0.329
75087W        W36398  40.894   3.753   1.915
75088W        W36399  13.750  30.930  11.913
75089W        W36400   7.296  15.798  13.391
75090W        W36401  41.475   5.239  12.956
75091W        W36402  29.444  27.485  10.537
75092W        W36403   7.815  31.480  13.039
75093W        W36404  21.540  12.782   1.350
75094W        W36405   4.405  14.596   2.379
75095W        W36406  12.235  17.577  13.812
75096W        W36407  36.849  38.949  10.892
75097W        W36408  27.956  37.511  14.433
75098W        W36409  37.485  19.039  14.364
75099W        W36410  34.468  19.701   3.330
75100W        W36411  31.091   4.243  13.031
75101W        W36412  26.192   0.431  11.101
75102W        W36413  23.133  40.484  12.341
75103W        W36414   7.693  32.924   4.264
75104W        W36415  19.737   7.667  14.011
75105W        W36416  42.776  34.444  14.327
75106W        W36417   8.171  39.939   1.254
75107W        W36418  30.155   2.422   1.799
75108W        W36419  42.393   8.276  12.074
75109W        W36420  30.472  35.963   1.289
75110W        W36421  42.491  12.276   4.730
75111W        W36422  40.408  41.885   0.928
75112W        W36423   2.916   8.237  14.480
75113W        W36424   7.874  39.840   0.294
75114W        W36425  25.991  40.905  14.316
75115W        W36426  17.614  13.652  11.918
75116W        W36427  41.419  25.686   3.384
75117W        W36428   2.450  44.426  13.532
75118W        W36429  44.380  32.046   1.778
75119W        W36430  23.104  11.857  13.497
75120W        W36431   7.237   8.688  14.474
75121W        W36432  14.291  11.657   1.313
75122W        W36433  26.047  29.618   0.395
75123W        W36434   1.422  23.538   0.393
75124W        W36435  42.967  39.819   3.727
75125W        W36436  13.212  37.880   0.904
75126W        W36437  12.184  39.844   4.681
75127W        W36438  15.776  33.418  10.960
75128W        W36439   9.726  30.919  10.918
75129W        W36440  16.595  25.157   1.388
75130W        W36441   0.834  29.649  10.896
75131W        W36442  16.246  42.946  14.919
75132W        W36443  29.593  43.885  10.964
75133W        W36444  25.484  11.711  14.854
75134W        W36445  16.105   8.221   1.450
75135W        W36446  29.469  41.432  13.346
75136W        W36447   3.889   8.200   0.294
75137W        W36448  20.621   1.459  14.794
75138W        W36449  36.040  16.701  10.611
75139W        W36450  24.566  24.688  14.303
75140W        W36451  35.898  40.838   4.150
75141W        W36452  16.097   3.954   0.378
75142W        W36453  28.547   1.877   1.433
75143W        W36454  10.337  29.983  11.381
75144W        W36455   3.734  38.996   2.374
75145W        W36456  34.022  30.016   1.362
75146W        W36457  30.964   8.319  12.009
75147W        W36458   5.725  29.141  13.043
75148W        W36459   8.801  28.456   4.132
75149W        W36460  30.027  26.644  13.860
75150W        W36461   5.236  33.621  13.064
75151W        W36462  35.459  27.195  10.998
75152W        W36463  21.650  15.595  10.553
75153W        W36464  28.639  23.625  11.978
75154W        W36465  33.969   3.265   0.399
75155W        W36466  21.619  33.129   2.258
75156W        W36467  26.208   2.829  13.790
75157W        W36468  31.578  14.795   4.148
75158W        W36469  29.151  30.573   3.182
75159W        W36470  28.679  25.204   0.884
75160W        W36471  27.633  42.474   2.251
75161W        W36472  12.725  17.609   2.287
75162W        W36473   5.890  17.266  13.369
75163W        W36474  38.897  43.472   0.483
75164W        W36475   6.768  41.414  10.939
75165W        W36476  40.386  36.881  12.894
75166W        W36477  42.024  32.400  12.991
75167W        W36478  22.113   1.813   2.854
75168W        W36479  36.497  38.491   3.313
75169W        W36480  12.834   7.316   0.358
75170W        W36481   4.416   0.303  13.508
75171W        W36482  33.492  40.303  10.544
75172W        W36483  40.305  33.626   0.959
75173W        W36484  13.805  22.721   3.179
75174W        W36485   9.832   1.420  14.859
75175W        W36486   2.947   0.491  12.381
75176W        W36487  38.996   3.294   3.706
75177W        W36488  44.505  13.151   4.288
75178W        W36489  24.642  30.944  14.012
75179W        W36490  14.723  43.809   0.309
75180W        W36491  15.135  13.316   3.180
75181W        W36492  21.728  23.154   4.723
75182W        W36493  22.681  15.613   4.339
75183W        W36494   6.186  14.176   3.184
75184W        W36495   8.757  28.568   3.768
75185W        W36496  19.688  31.084   0.263
75186W        W36497  13.600  26.685  14.950
75187W        W36498  24.547  19.579  11.385
75188W        W36499   8.855  36.987  14.963
75189W        W36500  18.126  40.548  11.918
75190W        W36501  39.505  42.350   3.648
75191W        W36502  41.504   5.826   4.256
75192W        W36503  44.281  36.358   1.350
75193W        W36504   9.666   6.254  11.884
75194W        W36505  31.617   7.813   0.358
75195W        W36506  43.515  40.833   2.399
75196W        W36507  10.255  43.931  13.441
75197W        W36508  27.581  33.481   3.715
75198W        W36509  42.924  14.620   1.929
75199W        W36510  10.144  35.466  10.981
75200W        W36511  20.628  17.083  12.888
75201W        W36512  30.489  35.040   1.750
75202W        W36513   3.392  37.038   1.232
75203W        W36514  16.671  12.296   3.850
75204W        W36515  21.542   5.242   4.706
75205W        W36516  38.888  31.512   0.370
75206W        W36517  32.919  39.382  10.983
75207W        W36518  27.007   5.399  12.483
75208W        W36519  13.693  32.034   0.923
75209W        W36520   8.783  32.456   2.779
75210W        W36521  36.043  10.180  13.902
75211W        W36522  28.067  20.591   1.415
75212W        W36523   7.758   0.841   0.339
75213W        W36524  30.487  31.933  10.954
75214W        W36525   5.870  33.405   0.846
75215W        W36526   4.728  44.393   0.429
75216W        W36527   5.845  38.327   2.207
75217W        W36528  20.096  35.584  14.906
75218W        W36529  14.104   6.257   1.826
75219W        W36530  23.217  34.500   4.695
75220W        W36531  30.001  44.773  14.409
75221W        W36532  26.967  41.368   2.847
75222W        W36533  29.149  10.761  12.050
75223W        W36534  22.097   9.718  10.561
75224W        W36535  35.013  33.010   2.307
75225W        W36536  12.175  44.946  13.450
75226W        W36537  19.155  36.995  14.372
75227W        W36538  19.190  25.482  11.529
75228W        W36539  14.217  15.746  13.049
75229W        W36540   3.808  27.134   3.212
75230W        W36541  35.405  17.782   4.756
75231W        W36542  21.074  24.128   1.398
75232W        W36543  36.925  39.400   0.398
75233W        W36544  11.312  23.512  11.446
75234W        W36545   1.285   2.910   0.856
75235W        W36546  17.182  22.210  14.513
75236W        W36547  24.571   0.265  12.971
75237W        W36548  43.335  33.073   4.134
75238W        W36549  10.374  29.095  12.997
75239W        W36550  40.392  16.577   3.783
75240W        W36551   8.393   3.337  14.442
75241W        W36552  43.860  36.934   2.700
75242W        W36553  23.634  44.971  11.035
75243W        W36554  33.611  42.449   4.150
75244W        W36555   1.244  16.176   3.350
75245W        W36556   7.858  28.072  11.100
75246W        W36557   7.681   6.208  11.442
75247W        W36558   0.790  12.306  13.546
75248W        W36559  41.025  15.772   1.421
75249W        W36560  12.263  23.517   9.973
75250W        W36561  13.727  41.036   0.762
75251W        W36562  24.118  16.091   0.806
75252W        W36563  41.386  21.091   1.405
75253W        W36564   6.185  31.602   2.703
75254W        W36565  24.630  12.175  12.000
75255W        W36566   4.855   4.254   1.736
75256W        W36567  38.481  36.420  12.948
75257W        W36568  20.679  26.511  10.146
75258W        W36569   4.364   6.199  13.941
75259W        W36570  39.889  38.516   0.249
75260W        W36571   7.302  28.639  14.778
75261W        W36572  29.520   6.304   2.413
75262W        W36573  35.922  37.438  11.893
75263W        W36574  28.071  20.699  13.980
75264W        W36575  11.134  28.512  11.999
75265W        W36576   4.809  28.574   4.819
75266W        W36577  27.097  24.714  10.959
75267W        W36578  15.644  21.176  13.898
75268W        W36579   7.222  36.097   3.298
75269W        W36580  44.331  10.288  11.107
75270W        W36581  37.364  19.236   3.830
75271W        W36582  31.608  31.148  14.018
75272W        W36583  19.043  38.416   0.875
75273W        W36584  13.748  29.059   0.374
75274W        W36585  36.055  44.347   3.313
75275W        W36586   3.869   6.789   4.764
75276W        W36587  10.150  32.412  11.856
75277W        W36588  23.544  43.353   4.649
75278W        W36589  36.988  43.467   9.925
75279W        W36590  22.661  26.505   4.725
75280W        W36591  29.143   3.352  14.911
75281W        W36592  33.515  44.988  11.867
75282W        W36593  44.873  13.185  12.559
75283W        W36594  16.784  17.699  12.910
75284W        W36595  36.510  36.975  14.355
75285W        W36596  15.261   2.359   0.246
75286W        W36597   4.749  10.748   0.894
75287W        W36598  11.762  11.859   4.273
75288W        W36599  34.921  40.402   1.696
75289W        W36600   8.387  12.204  12.845
75290W        W36601  36.025  34.459   1.810
75291W        W36602  36.489  41.407   0.739
75292W        W36603  22.252  13.635   4.710
75293W        W36604   7.719  35.020  11.044
75294W        W36605  41.828  15.256   1.711
75295W        W36606  10.670  19.185   1.398
75296W        W36607   3.953  14.255  14.761
75297W        W36608  32.626  34.563  14.352
75298W        W36609  10.218  22.182  14.399
75299W        W36610  19.159   8.313  11.859
75300W        W36611   3.306  20.600   1.772
75301W        W36612  32.007  34.376   1.712
75302W        W36613  13.675  15.708   4.199
75303W        W36614  20.122  11.671  13.825
75304W        W36615  36.920  39.447   3.280
75305W        W36616  44.335  29.133  13.518
75306W        W36617   0.277  43.854  12.888
75307W        W36618  12.294  23.727   2.304
75308W        W36619   3.812  14.148   4.651
75309W        W36620  17.799   0.356   1.250
75310W        W36621   6.320   7.211   2.740
75311W        W36622  23.056  11.165   1.896
75312W        W36623  41.531  43.502  14.509
75313W        W36624   7.740   0.322  10.897
75314W        W36625   6.703  16.081  13.532
75315W        W36626   9.846  10.739  13.004
75316W        W36627  31.499  24.096  13.971
75317W        W36628  37.979  19.227   1.806
75318W        W36629  10.710  23.586  12.503
75319W        W36630  15.759  39.423   3.714
75320W        W36631  40.385  37.901  10.996
75321W        W36632  29.529  22.725  12.497
75322W        W36633  14.288   9.747  10.925
75323W        W36634  37.876  41.975  10.532
75324W        W36635  19.606  19.714   1.224
75325W        W36636  42.012  20.048   0.305
75326W        W36637  10.732  14.609  13.820
75327W        W36638  39.025  13.335   4.158
75328W        W36639  17.147  10.738  11.007
75329W        W36640   0.425  11.802  11.926
75330W        W36641  30.125   6.699   3.704
75331W        W36642   9.716  40.054  11.398
75332W        W36643  34.944  35.056   3.199
75333W        W36644  34.873  31.540   0.733
75334W        W36645   0.977  26.504  10.136
75335W        W36646  36.571   4.236  14.276
75336W        W36647  15.170   4.264   0.301
75337W        W36648   3.292  11.749   4.689
75338W        W36649   8.744  35.474  14.363
75339W        W36650  37.370  28.555  12.030
75340W        W36651  41.869  12.205  11.895
75341W        W36652  22.655   5.766   1.358
75342W        W36653  35.476  29.670   4.642
75343W        W36654  14.127  19.134  12.983
75344W        W36655  16.806  43.804   0.453
75345W        W36656   1.849  42.787  12.017
75346W        W36657  15.822   6.895   9.969
75347W        W36658   2.317   7.382   2.252
75348W        W36659  35.046  36.417   2.337
75349W        W36660  29.596  41.995  11.094
75350W        W36661  22.557  37.999  13.452
75351W        W36662  39.447  27.009   4.127
75352W        W36663  18.703   4.305   4.795
75353W        W36664  32.005  26.147  13.830
75354W        W36665  33.426  26.167   4.768
75355W        W36666   5.232  13.659   4.639
75356W        W36667  14.777   1.330   5.144
75357W        W36668  28.521  39.389   1.830
75358W        W36669  42.970  10.185   3.670
75359W        W36670   4.708  14.805  13.490
75360W        W36671  28.631   1.329   3.240
75361W        W36672  13.257  28.989  12.364
75362W        W36673  30.530   8.291   1.881
75363W        W36674  31.523  21.043   4.810
75364W        W36675  11.138  31.958  10.937
75365W        W36676  18.721  25.210   0.362
75366W        W36677  32.411  38.954   2.781
75367W        W36678  11.868  35.471  14.419
75368W        W36679  19.215  37.507  12.393
75369W        W36680  38.361   6.712  10.940
75370W        W36681  16.115   4.707  11.452
75371W        W36682  36.021  42.882   3.780
75372W        W36683  20.244  23.107   4.713
75373W        W36684   5.708  42.935   3.287
75374W        W36685   7.318  22.578   4.772
75375W        W36686   9.343  29.051  12.033
75376W        W36687   4.412  28.001  11.478
75377W        W36688  39.865  36.025   0.403
75378W        W36689  28.950  14.290  12.954
75379W        W36690  33.952  38.061  14.408
75380W        W36691  28.091   0.317  12.059
75381W        W36692  12.662  21.131  14.858
75382W        W36693  27.514   2.870   0.360
75383W        W36694  19.724  21.173   2.718
75384W        W36695  42.964  39.420   4.600
75385W        W36696  37.407  24.579   3.664
75386W        W36697  15.120   6.379   4.612
75387W        W36698  40.921  31.002  12.856
75388W        W36699  39.920  31.424   2.255
75389W        W36700  20.236  20.752  10.434
75390W        W36701  32.403  34.113  10.582
75391W        W36702  29.101   5.228  13.018
75392W        W36703  21.751  40.326  10.065
75393W        W36704   6.334  14.260   4.235
75394W        W36705  39.045  29.111   4.793
75395W        W36706  33.995  33.075  13.903
75396W        W36707   7.717  37.386   1.402
75397W        W36708  37.977  30.540  13.439
75398W        W36709  19.075  19.246  11.044
75399W        W36710  11.273  33.025   4.119
75400W        W36711  35.919  39.541   1.421
75401W        W36712  16.086  40.322   3.805
75402W        W36713  32.008  12.272   3.773
75403W        W36714   8.848  34.004  14.938
75404W        W36715  39.354   8.666  11.598
75405W        W36716   1.443  36.535   4.202
75406W        W36717   0.959   0.374   2.325
75407W        W36718  30.068   8.219   2.833
75408W        W36719  37.365  42.496   2.348
75409W        W36720  36.509  40.486  14.777
75410W        W36721  21.727  42.308   4.642
75411W        W36722   8.699  17.606   3.712
75412W        W36723  11.644  25.639   4.181
75413W        W36724  18.285  35.094   2.833
75414W        W36725  32.956   5.336   1.826
75415W        W36726  42.976  29.480  12.483
75416W        W36727  27.553  23.039  12.086
75417W        W36728  40.862  41.851  14.001
75418W        W36729  36.396  17.078  12.577
75419W        W36730  32.089  25.018   0.397
75420W        W36731  24.569   5.913  14.394
75421W        W36732  37.014  41.806   3.782
75422W        W36733   5.881   0.467  11.885
75423W        W36734  28.026  32.528   5.287
75424W        W36735  24.568  14.228  14.789
75425W        W36736   4.891  25.123  10.538
75426W        W36737  18.591   9.727  13.494
75427W        W36738  27.074  32.940  11.476
75428W        W36739  20.243   4.944  11.443
75429W        W36740  11.371  15.092   4.294
75430W        W36741  29.449  34.105   1.417
75431W        W36742   2.245  17.782  11.476
75432W        W36743  29.603   9.841   5.287
75433W        W36744  37.545  23.605   0.880
75434W        W36745  15.111  38.884  12.035
75435W        W36746  38.875  22.537   4.141
75436W        W36747   7.845   6.784  11.914
75437W        W36748  26.116  23.664   0.382
75438W        W36749  26.108   4.871   3.364
75439W        W36750  12.765  34.578  13.491
75440W        W36751  44.300  37.507  10.507
75441W        W36752   6.712  41.406  12.997
75442W        W36753  36.471  35.510  13.953
75443W        W36754  38.473   7.321  12.989
75444W        W36755  42.434  31.934  13.950
75445W        W36756  35.038  41.894  13.957
75446W        W36757  42.959  21.130   4.618
75447W        W36758  37.869  32.907  13.505
75448W        W36759  31.119  36.349  13.544
75449W        W36760  36.081   4.866  10.953
75450W        W36761  33.581  25.676   4.178
75451W        W36762   7.273  44.919   1.305
75452W        W36763   8.830  29.941  14.455
75453W        W36764  19.243  41.483   4.748
75454W        W36765  19.760  36.953   3.667
75455W        W36766  42.967  19.094  11.387
75456W        W36767  11.845   6.796  10.552
75457W        W36768  34.376  13.824   4.746
75458W        W36769   8.708   6.759  12.404
75459W        W36770  28.469  13.185  12.026
75460W        W36771  27.986  33.996   3.813
75461W        W36772  31.561  27.630  14.507
75462W        W36773  36.978   8.826  13.991
75463W        W36774  13.168   8.771   2.261
75464W        W36775  44.395  34.056  11.054
75465W        W36776  36.989  34.905  14.015
75466W        W36777   3.786   9.264  13.942
75467W        W36778  31.067  32.494   2.287
75468W        W36779  41.917  24.640  14.769
75469W        W36780  32.968  25.497  11.896
75470W        W36781  37.019  15.675  13.800
75471W        W36782  30.932  41.970   1.730
75472W        W36783   9.860  24.550  14.385
75473W        W36784  17.746  40.894  14.761
75474W        W36785  10.835   5.800   1.403
75475W        W36786  22.060  31.574  10.459
75476W        W36787   6.791  43.318   2.273
75477W        W36788  38.057  23.712   2.798
75478W        W36789  41.901  37.942  14.917
75479W        W36790  42.903  42.905  13.463
75480W        W36791  35.884  27.039  11.407
75481W        W36792  19.738  34.432   3.374
75482W        W36793  38.823  31.046   0.805
75483W        W36794  36.029   9.283   2.864
75484W        W36795  26.962  39.850  11.095
75485W        W36796  18.188  32.984   4.264
75486W        W36797  30.505   1.912  12.559
75487W        W36798  27.026  26.544  10.949
75488W        W36799  43.771  15.713  12.465
75489W        W36800  29.011   8.848   0.788
75490W        W36801  30.110   2.726  11.941
75491W        W36802   5.716  14.258   0.855
75492W        W36803   8.319  15.695   3.767
75493W        W36804  12.315  17.224   4.642
75494W        W36805  38.384  13.271  13.371
75495W        W36806  44.940  15.799   0.866
75496W        W36807  34.493  28.574   2.853
75497W        W36808  30.574   5.207  13.849
75498W        W36809  14.778   6.784   1.217
75499W        W36810  24.537  42.515   4.782
75500W        W36811  33.883  16.156  13.368
75501W        W36812  29.124  25.095  14.950
75502W        W36813  30.970  36.388  11.532
75503W        W36814  32.483  31.414   3.150
75504W        W36815   2.842  40.477   0.259
75505W        W36816  19.656  34.472   2.692
75506W        W36817  13.256  40.433  12.567
75507W        W36818  43.900  30.596  13.925
75508W        W36819  32.568  31.056   2.271
75509W        W36820  40.544  28.464  13.353
75510W        W36821   2.331  31.112  10.921
75511W        W36822  28.024  26.504   0.870
75512W        W36823  14.219  33.903   0.451
75513W        W36824  35.574  22.563   3.298
75514W        W36825  36.386   3.754   4.722
75515W        W36826  36.965  40.428  14.863
75516W        W36827  21.542  30.135  13.464
75517W        W36828  36.953  26.988  12.913
75518W        W36829   0.941  21.723  10.619
75519W        W36830   7.245  18.092   0.365
75520W        W36831  16.104  25.064   9.524
75521W        W36832  25.572  27.572   2.178
75522W        W36833  26.202   8.260   4.211
75523W        W36834  15.609  27.588  13.410
75524W        W36835   7.327  18.134  14.856
75525W        W36836  14.724  21.648  14.380
75526W        W36837  33.008  22.187   1.699
75527W        W36838  19.052  10.194   0.335
75528W        W36839  31.966  40.035  11.862
75529W        W36840   8.893  17.128  12.389
75530W        W36841  32.020  33.961   3.213
75531W        W36842  41.864  19.260   0.767
75532W        W36843   9.773  12.712   4.298
75533W        W36844  41.819  28.007   3.384
75534W        W36845   7.830  39.319  11.464
75535W        W36846  43.003  28.668   4.177
75536W        W36847  18.757  26.967   4.331
75537W        W36848  21.720  18.248  13.802
75538W        W36849   9.878  37.866  11.001
75539W        W36850  31.475  34.924   2.270
75540W        W36851  12.175  44.966   1.389
75541W        W36852  37.363  32.008  11.557
75542W        W36853  29.966  34.560   0.850
75543W        W36854  40.037  30.111   0.273
75544W        W36855  13.315  31.936   5.242
75545W        W36856  25.014  37.982  10.564
75546W        W36857  43.925   1.251   1.837
75547W        W36858  12.347  10.313  12.493
75548W        W36859   8.756  22.188   4.309
75549W        W36860  20.049  41.021  12.973
75550W        W36861  39.886   9.646   3.350
75551W        W36862  35.403  38.959  12.370
75552W        W36863  14.768  17.276  13.500
75553W        W36864  33.523   8.366  12.997
75554W        W36865  36.869   7.239  11.105
75555W        W36866  26.031  38.396  10.470
75556W        W36867  40.443  31.022  10.944
75557W        W36868  15.098  28.115  13.328
75558W        W36869  33.443   1.905  14.801
75559W        W36870  44.908  11.179  12.059
75560W        W36871  26.173  27.993   2.323
75561W        W36872  23.516   7.847   0.408
75562W        W36873   8.351   9.228  11.941
75563W        W36874  20.695   2.751   0.792
75564W        W36875  24.506  24.021  14.032
75565W        W36876  33.462  19.703   1.812
75566W        W36877  10.653   1.860   3.174
75567W        W36878  32.602   5.371   4.717
75568W        W36879  25.021  11.276   0.313
75569W        W36880  26.562  14.133  14.851
75570W        W36881  31.043  15.286   1.370
75571W        W36882  37.081  33.981   4.727
75572W        W36883  43.361  39.409   4.643
75573W        W36884  40.912  25.634  11.042
75574W        W36885  37.577  42.021  10.006
75575W        W36886   6.218  18.782   1.343
75576W        W36887  32.395  17.085  11.124
75577W        W36888   4.365  16.675   1.802
75578W        W36889  28.031  40.968  14.825
75579W        W36890  17.152   6.686  12.066
75580W        W36891  26.698  18.271  11.057
75581W        W36892  11.812  24.663   1.302
75582W        W36893  33.007  26.953  14.772
75583W        W36894  35.396  27.564  14.302
75584W        W36895  41.893  11.362  11.855
75585W        W36896  12.158  30.018  14.472
75586W        W36897  41.965  10.647   2.889
75587W        W36898  17.618  14.324   4.197
75588W        W36899  31.010  11.324  14.335
75589W        W36900  30.521  42.319  12.867
75590W        W36901   1.762  41.488   1.720
75591W        W36902  25.501  24.552  10.484
75592W        W36903  23.133  18.722  14.011
75593W        W36904  26.648  35.960   0.247
75594W        W36905  13.296  43.453   1.225
75595W        W36906   5.382  15.084  13.857
75596W        W36907  33.466  15.641   9.932
75597W        W36908   2.797   5.820   2.873
75598W        W36909  37.886   8.207   1.420
75599W        W36910  12.759  27.080   2.391
75600W        W36911  42.903  11.809  12.973
75601W        W36912  29.666  24.081  14.820
75602W        W36913  36.574   6.391   9.958
75603W        W36914  17.239  31.937  12.850
75604W        W36915  28.945  38.979  11.373
75605W        W36916  32.968  25.003   1.763
75606W        W36917  29.544  14.185   2.393
75607W        W36918  11.271   3.805   1.824
75608W        W36919  10.680  31.012  12.081
75609W        W36920  43.796  13.733   4.278
75610W        W36921  28.039  15.104  12.080
75611W        W36922   9.833   9.201  14.008
75612W        W36923  27.117  30.932   4.114
75613W        W36924  42.949   4.763   3.723
75614W        W36925  19.555  25.192   1.822
75615W        W36926   9.865  17.275  12.085
75616W        W36927  31.499  25.540  12.352
75617W        W36928  40.531  43.459   1.754
75618W        W36929  38.326  18.706   3.283
75619W        W36930   6.423   6.843  11.885
75620W        W36931  28.572  31.610   2.716
75621W        W36932  29.476  10.718   3.300
75622W        W36933   3.297  38.892   2.769
75623W        W36934  36.507  23.522  12.565
75624W        W36935   5.394   7.219  13.496
75625W        W36936  30.052  42.928   1.414
75626W        W36937  40.493  40.991  14.940
75627W        W36938  29.928  42.897   0.934
75628W        W36939  25.639  22.173   1.837
75629W        W36940  38.425  39.397   0.839
75630W        W36941  15.219  14.770   0.325
75631W        W36942  15.237  17.634  11.939
75632W        W36943  24.568  31.968   2.314
75633W        W36944  25.025  44.906   4.615
75634W        W36945  31.076  37.023   0.348
75635W        W36946   6.868  44.269   1.298
75636W        W36947  15.675   2.288  10.423
75637W        W36948   0.830  11.843   1.243
75638W        W36949  20.268  28.475   1.829
75639W        W36950  25.509   7.855  14.283
75640W        W36951   4.945   5.885   1.863
75641W        W36952   2.436  20.565   0.746
75642W        W36953  27.154  32.435   1.808
75643W        W36954  34.484   9.270  10.479
75644W        W36955  29.145  22.701  10.543
75645W        W36956  29.436  11.147   4.704
75646W        W36957  28.008   1.247   4.749
75647W        W36958  38.931   8.803  13.432
75648W        W36959  15.268  14.694   2.232
75649W        W36960  12.183  31.934   3.292
75650W        W36961  20.691   2.300  14.892
75651W        W36962   5.403  10.835   0.839
75652W        W36963  26.600   8.723  12.051
75653W        W36964  40.522  34.467  12.503
75654W        W36965  40.014  43.801   1.421
75655W        W36966  44.355  27.460  10.921
75656W        W36967   6.411  25.551  13.477
75657W        W36968  43.912  26.018  11.380
75658W        W36969  32.418  38.335  14.782
75659W        W36970  39.985  28.063  11.860
75660W        W36971  34.083  43.358  14.912
75661W        W36972  39.398  28.114  11.409
75662W        W36973   2.426  23.095  12.480
75663W        W36974   3.923  25.574  12.365
75664W        W36975  40.021  41.822  10.517
75665W        W36976  17.792   4.727  11.091
75666W        W36977  16.793  36.513   2.409
75667W        W36978   3.443  17.272  14.917
75668W        W36979  37.416  34.453   9.975
75669W        W36980   8.206  30.602  13.403
75670W        W36981   5.261  42.460  13.412
75671W        W36982   2.470  35.947   4.309
75672W        W36983  15.315  12.348   4.834
75673W        W36984  15.643   9.186  12.473
75674W        W36985  10.853   3.899   3.151
75675W        W36986   1.942  41.921   1.314
75676W        W36987   6.344  42.488   2.308
75677W        W36988  29.660   4.850  12.092
75678W        W36989  17.572   1.810   2.337
75679W        W36990  26.092  41.332  14.284
75680W        W36991  14.625  20.686   3.206
75681W        W36992  22.031   2.427  11.996
75682W        W36993  33.956  21.146   0.922
75683W        W36994  15.585  17.293   4.176
75684W        W36995  33.537   8.752   4.242
75685W        W36996  43.469   2.927   4.264
75686W        W36997   7.903  21.094  14.786
75687W        W36998  41.816  33.995  12.446
75688W        W36999   8.811  41.438  12.436
75689W        W37000  33.954  36.410  12.494
75690W        W37001   6.241  21.575   2.315
75691W        W37002  19.660  36.508  12.885
75692W        W37003  44.949  10.280  12.001
75693W        W37004  17.641  42.024   4.206
75694W        W37005  13.680   2.273   2.716
75695W        W37006  14.707  14.739   0.370
75696W        W37007  11.651  44.308   1.732
75697W        W37008  26.122   5.720   2.845
75698W        W37009  39.356  36.486   0.799
75699W        W37010  41.846  12.127   1.809
75700W        W37011   5.431   7.211   3.863
75701W        W37012  10.382  12.237  12.842
75702W        W37013   1.250   5.351   4.794
75703W        W37014  39.362  11.746   1.743
75704W        W37015  37.408  21.157  11.088
75705W        W37016  21.530  24.012   0.864
75706W        W37017  27.076  22.533  12.928
75707W        W37018  14.707   7.787  14.985
75708W        W37019   5.870   1.887  13.994
75709W        W37020  39.854  42.874  14.437
75710W        W37021  37.931   4.316  12.885
75711W        W37022  19.614  28.147  10.508
75712W        W37023   2.311  20.181  13.313
75713W        W37024  18.674  28.127   3.346
75714W        W37025  19.143  34.057  12.845
75715W        W37026  43.457   7.748   3.331
75716W        W37027  12.205  25.190  10.596
75717W        W37028  33.104  26.679  14.003
75718W        W37029  25.702  41.824   1.836
75719W        W37030   8.684   1.893  11.001
75720W        W37031  36.471  40.392   1.271
75721W        W37032  11.181  36.981  13.957
75722W        W37033   3.425  30.654  14.772
75723W        W37034  26.991  13.265   3.743
75724W        W37035  30.953  18.229   1.388
75725W        W37036  21.154  37.860   3.313
75726W        W37037  21.629  12.678   1.869
75727W        W37038  41.909  27.451  13.032
75728W        W37039  42.010   6.341  11.469
75729W        W37040   1.751  21.684   2.317
75730W        W37041  11.312  25.050   1.300
75731W        W37042  38.841  44.965   2.210
75732W        W37043  10.360   7.882  10.463
75733W        W37044  28.177  20.728  12.984
75734W        W37045  31.474  17.691   4.131
75735W        W37046  34.067  44.461   1.381
75736W        W37047  34.977  31.588   1.339
75737W        W37048  36.503  16.111   1.876
75738W        W37049  25.553   3.766   4.662
75739W        W37050   8.787   0.492  11.076
75740W        W37051  31.911   7.775  10.449
75741W        W37052  20.196  11.627  12.357
75742W        W37053   3.294  11.820   0.276
75743W        W37054  28.434  44.957  11.043
75744W        W37055  31.639  31.595  14.467
75745W        W37056  24.108  37.988  10.930
75746W        W37057  14.639   7.817   0.275
75747W        W37058  14.186  26.121   4.257
75748W        W37059  33.053  39.843  11.524
75749W        W37060  28.569   1.961   0.928
75750W        W37061  35.867  36.055  14.823
75751W        W37062   8.870   5.820  11.058
75752W        W37063  27.510   1.241   1.923
75753W        W37064  39.485   3.804  14.829
75754W        W37065   2.326  13.836   0.281
75755W        W37066  33.010  29.471   1.719
75756W        W37067  41.907  19.730  10.910
75757W        W37068  22.507  18.176   1.708
75758W        W37069  30.941  37.949  12.435
75759W        W37070  14.291  27.124   0.362
75760W        W37071   8.842   6.253  14.367
75761W        W37072  34.068  38.337  11.967
75762W        W37073  30.535  37.869  14.886
75763W        W37074  14.667  23.702   4.133
75764W        W37075  42.414  26.203  11.443
75765W        W37076   6.264   2.271   1.342
75766W        W37077  26.509   3.814   3.645
75767W        W37078  15.739  18.637   1.893
75768W        W37079  43.292  21.605   3.386
75769W        W37080   1.884   0.271   4.716
75770W        W37081  12.768   4.219   3.340
75771W        W37082   1.425   7.829   3.755
75772W        W37083  35.071  13.790  10.492
75773W        W37084  31.568  13.639   4.791
75774W        W37085   3.415  36.935  12.513
75775W        W37086  26.172  11.751  14.401
75776W        W37087  25.576  34.110  12.964
75777W        W37088  44.800  12.816   4.815
75778W        W37089  32.391  23.627   1.831
75779W        W37090  25.199  29.086   5.084
75780W        W37091  24.020  34.905  12.955
75781W        W37092  27.546   4.430   3.860
75782W        W37093  18.157  16.681  10.503
75783W        W37094  16.586   1.325  13.425
75784W        W37095  17.114  16.788   2.266
75785W        W37096  42.471  33.453  13.798
75786W        W37097  39.329  12.245   1.426
75787W        W37098  44.836  18.574   1.352
75788W        W37099  35.045   1.401   2.739
75789W        W37100  13.703  27.143   3.214
75790W        W37101   5.755  39.420  13.014
75791W        W37102  12.770  36.856  14.758
75792W        W37103   5.846  31.128  11.598
75793W        W37104  16.166   8.713   0.412
75794W        W37105  36.415  36.097  13.425
75795W        W37106  40.991   7.375   3.752
75796W        W37107  43.811  27.194  14.434
75797W        W37108  42.357   6.801  13.834
75798W        W37109   8.226  15.253   4.740
75799W        W37110  31.969  29.989  12.094
75800W        W37111  41.462  24.641  12.490
75801W        W37112   4.784  10.366  14.429
75802W        W37113  43.468  33.895   2.347
75803W        W37114  43.905  43.843  14.799
75804W        W37115  35.852   7.699   3.656
75805W        W37116  24.074  33.038  10.412
75806W        W37117  18.605  28.169   1.880
75807W        W37118   8.311   5.423   4.719
75808W        W37119  43.938  25.088   4.798
75809W        W37120  24.583   9.743   4.248
75810W        W37121  26.079  16.605   1.276
75811W        W37122  34.542  11.749  11.562
75812W        W37123  40.319  35.016  10.035
75813W        W37124  17.651   5.337  13.449
75814W        W37125  39.422   2.766  13.461
75815W        W37126   8.662   0.807   3.848
75816W        W37127  24.121  19.117  10.946
75817W        W37128  25.514  39.061  12.040
75818W        W37129  15.614  39.885  13.898
75819W        W37130  28.532  23.506  14.421
75820W        W37131  39.414  14.803  10.421
75821W        W37132  26.662  23.093   4.816
75822W        W37133  37.418  37.576  12.555
75823W        W37134  37.422  15.096   4.295
75824W        W37135  30.136  33.391  10.098
75825W        W37136  34.039   5.900   4.340
75826W        W37137   9.376  20.536   1.923
75827W        W37138  26.668  29.523   2.345
75828W        W37139  16.271  35.484  13.429
75829W        W37140   8.259  20.246  10.437
75830W        W37141  16.085   7.385  10.929
75831W        W37142   7.757  27.611   0.862
75832W        W37143  31.095  26.535   0.461
75833W        W37144   9.792  32.430   2.793
75834W        W37145  35.982  18.212   1.414
75835W        W37146   8.874  43.399   0.794
75836W        W37147   0.378  43.769   1.837
75837W        W37148  28.069  34.940   0.887
75838W        W37149  24.724  29.628   1.256
75839W        W37150  24.160  30.950  14.954
75840W        W37151  16.681  10.339   1.325
75841W        W37152  29.597  18.748   5.219
75842W        W37153   0.343  29.471  10.512
75843W        W37154   6.813  42.397  14.890
75844W        W37155   0.370  14.311  10.438
75845W        W37156   3.850  37.370   0.449
75846W        W37157  36.099  37.985   4.691
75847W        W37158  15.639   6.883  12.825
75848W        W37159  18.760  23.153  12.368
75849W        W37160  15.741  15.710  12.348
75850W        W37161  25.519  26.460   3.257
75851W        W37162   8.881  32.473  12.023
75852W        W37163  37.492  19.682  10.150
75853W        W37164   8.393  14.134   0.887
75854W        W37165  12.362  38.968  10.597
75855W        W37166  11.837  36.581   0.481
75856W        W37167  22.119  30.038   2.214
75857W        W37168  18.675  17.305  14.279
75858W        W37169  29.661  22.520  11.021
75859W        W37170  44.399  25.042   1.820
75860W        W37171   0.961  12.639  11.990
75861W        W37172  32.543  30.938   1.220
75862W        W37173  27.550   5.309   9.519
75863W        W37174  16.712  43.381   1.813
75864W        W37175  40.352   3.451   0.456
75865W        W37176  32.431  31.990  10.564
75866W        W37177  20.188   8.401  11.864
75867W        W37178  36.548   8.226   2.356
75868W        W37179   1.733   1.482   2.742
75869W        W37180   1.809  44.894  14.369
75870W        W37181  13.622  22.556  11.587
75871W        W37182  11.840  24.094  10.464
75872W        W37183   5.215  25.505   2.368
75873W        W37184  18.125  24.154   4.728
75874W        W37185   2.389   2.738  10.522
75875W        W37186   7.398  34.080  11.554
75876W        W37187  22.013   8.316  14.343
75877W        W37188  24.113  33.048  12.872
75878W        W37189  36.478  34.601  13.391
75879W        W37190  35.091  40.898  11.031
75880W        W37191  17.566   2.815  13.052
75881W        W37192  22.235  31.460  11.454
75882W        W37193  14.594  14.714  13.883
75883W        W37194  26.545  18.762  14.808
75884W        W37195  19.100   4.745   3.298
75885W        W37196  26.556   4.856  12.397
75886W        W37197  10.658  35.414  14.489
75887W        W37198  36.874  15.598   0.958
75888W        W37199  20.206  16.723  13.921
75889W        W37200  20.254  20.534   0.369
75890W        W37201  17.660  19.607  13.500
75891W        W37202  30.935  13.753  12.481
75892W        W37203  32.053  29.089   1.286
75893W        W37204   9.355  16.709  13.547
75894W        W37205  22.068  44.956  10.978
75895W        W37206  39.032  36.934  10.973
75896W        W37207   5.906  15.130  11.862
75897W        W37208   9.234  10.800   0.875
75898W        W37209  43.838  37.984  10.623
75899W        W37210   4.756  22.551  12.449
75900W        W37211  34.933  25.130  14.358
75901W        W37212   8.671   7.778  10.540
75902W        W37213  38.496  42.933   1.874
75903W        W37214  34.535  18.709   1.725
75904W        W37215  19.580   5.912   0.953
75905W        W37216   7.727  39.512  14.455
75906W        W37217   5.834  25.591   0.348
75907W        W37218  11.765  13.762  12.553
75908W        W37219  23.045  25.538  10.585
75909W        W37220  10.219   0.743  12.850
75910W        W37221  33.906  17.159   0.836
75911W        W37222  17.137  18.678   4.797
75912W        W37223  27.688  35.059   2.265
75913W        W37224  23.590  24.008  11.549
75914W        W37225  35.008  32.452  14.308
75915W        W37226   5.695   9.653  11.061
75916W        W37227  26.073  30.451   0.318
75917W        W37228  10.230   2.798   2.710
75918W        W37229   8.335  27.058   2.297
75919W        W37230  25.199  39.858   9.573
75920W        W37231   4.422  27.972   1.429
75921W        W37232  36.490  25.617  10.641
75922W        W37233  35.985  15.191   1.716
75923W        W37234   4.845  32.003   1.360
75924W        W37235   9.834  44.858  12.951
75925W        W37236  42.372  29.947   2.848
75926W        W37237  11.212  14.825  14.839
75927W        W37238  36.059   7.832   1.835
75928W        W37239  33.044  14.230   2.403
75929W        W37240  28.588   1.363   0.348
75930W        W37241  13.237  42.508  14.282
75931W        W37242  30.010  15.652   4.340
75932W        W37243  28.620  11.846  12.516
75933W        W37244  13.217  12.255   3.363
75934W        W37245  18.173  40.378  12.884
75935W        W37246   3.268  41.370  13.431
75936W        W37247  27.635  27.535   1.283
75937W        W37248   1.824   4.849  12.057
75938W        W37249  23.183  27.955   1.314
75939W        W37250   3.831  11.795  12.479
75940W        W37251  34.910   5.902  10.543
75941W        W37252  26.191  41.489  12.076
75942W        W37253  29.003   4.828   0.437
75943W        W37254  16.657  24.638  14.444
75944W        W37255   2.309  16.792   2.757
75945W        W37256  17.700  37.440   2.308
75946W        W37257   3.233  44.267  11.913
75947W        W37258  23.062   7.719  12.936
75948W        W37259  29.658  34.481  14.791
75949W        W37260   3.783  43.370  13.011
75950W        W37261  22.088  35.922  12.945
75951W        W37262  29.925  17.132   1.254
75952W        W37263  39.466  14.262   1.268
75953W        W37264  37.009  31.411  12.909
75954W        W37265  36.469   4.351   2.868
75955W        W37266  21.515  26.639  12.469
75956W        W37267   6.211  25.013   2.838
75957W        W37268   5.740  24.520   3.833
75958W        W37269  21.755   7.172   4.772
75959W        W37270  42.488  40.353  11.482
75960W        W37271   3.379  12.193  12.912
75961W        W37272  10.382  34.396  14.485
75962W        W37273  22.529  34.423   3.659
75963W        W37274  24.019  39.882   4.308
75964W        W37275  35.089   4.403  14.351
75965W        W37276  26.608   2.402   4.231
75966W        W37277  10.287  35.031   5.232
75967W        W37278  27.561  35.420  14.934
75968W        W37279  19.578  35.893   1.718
75969W        W37280  34.553  28.605  10.460
75970W        W37281  15.123  22.505  10.443
75971W        W37282  33.082  40.853  13.386
75972W        W37283  21.047  25.632   3.260
75973W        W37284  41.479   5.231  10.959
75974W        W37285  21.207   7.306   4.695
75975W        W37286  40.893  14.631  13.879
75976W        W37287  41.982  15.115   2.895
75977W        W37288  22.137  32.557   1.881
75978W        W37289  38.897  30.977  12.350
75979W        W37290  11.229  33.995   3.377
75980W        W37291  13.249   3.792  14.334
75981W        W37292  17.060  21.200   3.830
75982W        W37293  35.004   6.839  13.444
75983W        W37294  41.424  14.253   1.774
75984W        W37295  41.871  30.080   3.644
75985W        W37296  44.350  15.260  11.055
75986W        W37297  17.229  16.207   3.283
75987W        W37298  27.065   0.270   1.257
75988W        W37299   5.330   0.426  13.912
75989W        W37300   6.827  15.773  14.921
75990W        W37301  13.781  33.452   4.346
75991W        W37302  17.307   3.859  13.475
75992W        W37303  40.878  35.412   3.829
75993W        W37304  23.666   7.417   3.800
75994W        W37305   1.924   3.850  13.861
75995W        W37306  13.210   7.813  14.003
75996W        W37307   6.328  43.870  11.970
75997W        W37308  32.567  22.198   0.877
75998W        W37309   9.264  21.236  13.327
75999W        W37310  30.011  39.919  12.498
76000W        W37311  43.009   1.375   2.722
76001W        W37312   4.888  26.169  10.552
76002W        W37313  37.949  20.588  11.996
76003W        W37314   1.966  30.125  14.898
76004W        W37315  26.645   0.790  11.431
76005W        W37316  44.787  42.936   2.198
76006W        W37317   0.395  15.312   2.189
76007W        W37318  13.725  30.943   2.198
76008W        W37319  12.654  26.504  12.957
76009W        W37320  32.635   0.895  10.013
76010W        W37321  34.104  36.373   4.794
76011W        W37322  39.044  13.105  10.525
76012W        W37323  13.829   8.703  13.353
76013W        W37324  14.302  12.246   3.777
76014W        W37325  10.757  11.330  12.077
76015W        W37326  30.915  17.602  12.002
76016W        W37327  14.189  22.186  11.407
76017W        W37328  39.846  40.395   0.907
76018W        W37329  15.149  16.089  12.914
76019W        W37330  17.275  38.443   1.437
76020W        W37331  21.519  33.526  13.479
76021W        W37332  25.055  38.962  14.485
76022W        W37333   1.772  17.614   4.272
76023W        W37334  23.068  25.542   3.211
76024W        W37335  11.167  18.712   0.800
76025W        W37336  36.592   5.271  12.401
76026W        W37337  43.914  33.006  10.455
76027W        W37338   2.304  38.512   4.647
76028W        W37339  16.204   1.238   3.845
76029W        W37340   9.669  20.198  13.402
76030W        W37341  29.546  40.949  14.461
76031W        W37342  27.054  12.734   3.758
76032W        W37343  12.753  26.588   1.218
76033W        W37344   3.804  38.390  13.060
76034W        W37345  24.541  28.494   4.757
76035W        W37346   6.306   0.376   4.775
76036W        W37347   0.352  11.365   2.315
76037W        W37348  30.029  23.994   4.775
76038W        W37349  29.522   5.783   0.330
76039W        W37350  28.464  30.110   3.689
76040W        W37351  44.925  42.523  12.440
76041W        W37352  38.001  27.123   1.915
76042W        W37353  30.086   9.150   3.237
76043W        W37354  29.925  17.236  12.579
76044W        W37355  37.084  16.759   2.827
76045W        W37356   6.870  29.172  11.497
76046W        W37357  35.999  11.162  13.960
76047W        W37358  27.997  33.618   3.652
76048W        W37359  11.136   6.886  11.926
76049W        W37360  24.665  31.991  14.430
76050W        W37361  34.462  12.142  12.471
76051W        W37362  39.376  33.886   1.897
76052W        W37363  22.149  28.628   3.309
76053W        W37364  25.171  28.054   0.823
76054W        W37365  22.580  38.358  11.610
76055W        W37366  28.071  12.630   4.824
76056W        W37367   7.905   7.255  12.847
76057W        W37368  20.571  30.446   2.242
76058W        W37369   4.741  10.313  11.905
76059W        W37370   8.665   0.335   4.117
76060W        W37371   0.258   3.768   1.249
76061W        W37372  37.943  40.991  14.335
76062W        W37373  14.802   6.227   3.730
76063W        W37374  43.998   0.822  11.063
76064W        W37375  40.827  37.377   2.236
76065W        W37376  27.659  10.164   5.132
76066W        W37377  40.532  40.385   9.672
76067W        W37378  35.090  35.997   0.447
76068W        W37379  10.714  23.643   3.645
76069W        W37380   5.280  41.411  10.616
76070W        W37381   3.715  39.954  14.516
76071W        W37382  40.334  36.059  14.510
76072W        W37383   3.873  22.114   0.733
76073W        W37384  13.329  32.460   3.367
76074W        W37385  11.781  16.176  12.036
76075W        W37386   3.831  32.480   4.804
76076W        W37387  16.202  14.776   4.139
76077W        W37388  31.077  37.024  11.086
76078W        W37389  33.601  20.669   3.642
76079W        W37390  13.314  14.211  14.445
76080W        W37391  15.087  39.952   0.944
76081W        W37392  24.481  25.175  11.556
76082W        W37393  42.902  39.352   2.177
76083W        W37394  33.518  14.155  14.945
76084W        W37395   0.977  34.432  13.524
76085W        W37396  31.948  44.906   3.686
76086W        W37397  27.481  36.841  11.414
76087W        W37398  31.950  39.040  11.483
76088W        W37399  21.020  27.013  12.476
76089W        W37400  16.714  42.435   2.218
76090W        W37401   1.796  33.897   2.852
76091W        W37402  44.365  44.417   4.745
76092W        W37403  13.616  25.673  13.056
76093W        W37404  39.972  41.989   1.423
76094W        W37405  24.718  25.560  14.980
76095W        W37406   7.819  16.724  12.357
76096W        W37407   7.374  29.637  10.418
76097W        W37408  17.222  14.180   1.235
76098W        W37409  40.800  22.217   1.780
76099W        W37410  25.587  38.459  11.445
76100W        W37411  12.221  25.511   3.306
76101W        W37412  25.093  15.184  10.408
76102W        W37413  24.106  44.343   0.334
76103W        W37414  11.717   8.729  13.423
76104W        W37415  36.350   4.445   4.183
76105W        W37416  10.768  44.374   1.915
76106W        W37417  17.234  25.172   1.394
76107W        W37418  35.029  16.163   3.750
76108W        W37419   3.249  20.580   0.929
76109W        W37420  19.625  38.562   9.977
76110W        W37421  43.468  43.830   2.746
76111W        W37422  29.505  33.986   2.878
76112W        W37423   8.175  29.471  13.049
76113W        W37424  18.094  28.620   3.652
76114W        W37425  21.522   5.414  11.568
76115W        W37426  32.892   6.705   1.280
76116W        W37427  23.227  40.409   4.185
76117W        W37428  33.528  40.938   1.708
76118W        W37429   7.863   1.453   4.114
76119W        W37430  25.001  43.347  12.482
76120W        W37431   3.341  36.953  11.472
76121W        W37432  21.069  13.777   2.847
76122W        W37433  28.968  11.268   4.760
76123W        W37434  13.274  32.917   0.769
76124W        W37435  12.349  16.670  13.434
76125W        W37436  44.839   0.355  14.902
76126W        W37437  35.907  40.899  13.028
76127W        W37438  25.005   0.250   0.883
76128W        W37439  10.755  38.414  10.517
76129W        W37440   5.420  12.798   4.615
76130W        W37441  44.355  25.044  10.498
76131W        W37442   5.405  30.922  10.593
76132W        W37443  34.115   7.214   2.222
76133W        W37444  31.010  34.511   2.203
76134W        W37445   6.748  25.041  13.405
76135W        W37446  29.981  30.160  13.525
76136W        W37447  30.593   9.191   1.805
76137W        W37448   0.289  22.223   3.742
76138W        W37449  37.444  26.577   0.750
76139W        W37450  23.012   5.264  14.943
76140W        W37451  30.417  27.961  14.409
76141W        W37452  28.160  16.136  10.892
76142W        W37453  32.998  10.680  11.037
76143W        W37454  30.427  36.364   2.817
76144W        W37455   9.726  42.826  10.994
76145W        W37456  35.495  11.146  10.418
76146W        W37457   6.242  22.715  13.522
76147W        W37458   1.786  27.997   2.335
76148W        W37459  15.770  38.973  11.377
76149W        W37460  11.817  12.285   4.216
76150W        W37461  19.612  39.020   2.693
76151W        W37462   0.898  39.366  13.934
76152W        W37463   2.430  42.004  14.908
76153W        W37464   2.433   7.357  13.957
76154W        W37465  42.881   3.291  13.026
76155W        W37466   3.409   3.888   2.797
76156W        W37467  13.781  21.738  10.078
76157W        W37468  17.087  32.572   1.730
76158W        W37469  16.273  20.617  10.520
76159W        W37470  33.050   6.215  11.990
76160W        W37471  29.662  38.821  12.478
76161W        W37472  27.076  28.042  11.076
76162W        W37473  31.548  40.827  10.515
76163W        W37474   8.868  30.657  14.891
76164W        W37475  44.328   3.757  14.407
76165W        W37476  32.560  24.113   1.388
76166W        W37477  25.646  12.787   1.424
76167W        W37478  21.611  33.002   1.267
76168W        W37479  29.540  15.703  10.431
76169W        W37480  16.671  24.980  10.158
76170W        W37481  16.648  28.073  11.128
76171W        W37482  28.982  39.853   1.850
76172W        W37483  42.462  35.084  14.776
76173W        W37484  10.279  17.735  10.939
76174W        W37485  19.056  20.717  10.988
76175W        W37486  11.761   7.755  13.496
76176W        W37487  24.149   9.716   1.359
76177W        W37488  21.157  28.007  12.864
76178W        W37489  28.185  18.590   2.266
76179W        W37490  25.179  36.403  12.355
76180W        W37491   6.292  38.499   2.691
76181W        W37492  23.688  26.659  10.141
76182W        W37493  12.166   5.688  10.058
76183W        W37494  23.109  22.544   1.794
76184W        W37495  34.076  12.126  12.511
76185W        W37496  42.432  38.962   3.739
76186W        W37497  12.236  38.403   2.735
76187W        W37498  38.002   0.488   1.833
76188W        W37499  26.521  23.123   0.838
76189W        W37500  37.835   1.812  13.802
76190W        W37501  31.579  32.930   3.287
76191W        W37502   1.329  37.440  11.016
76192W        W37503  37.950   3.877   1.240
76193W        W37504  23.712  22.590  12.831
76194W        W37505   3.796  30.538   3.373
76195W        W37506  24.205  16.127   4.822
76196W        W37507  12.127  44.890  11.012
76197W        W37508  37.058  42.429   0.788
76198W        W37509  10.154  41.375  11.923
76199W        W37510  32.453  40.962   1.267
76200W        W37511  42.406  40.468   3.271
76201W        W37512  19.536  10.637   1.741
76202W        W37513  44.905  10.768   1.731
76203W        W37514  16.617  19.739  10.930
76204W        W37515  39.899  21.514  14.857
76205W        W37516  36.389  11.139   0.302
76206W        W37517  22.232  18.248  10.146
76207W        W37518  36.524  33.440  12.354
76208W        W37519   9.821  14.161   1.325
76209W        W37520  25.121  16.174   1.233
76210W        W37521  39.480  44.462   0.295
76211W        W37522  21.527   7.326  12.013
76212W        W37523  15.641  34.414   0.831
76213W        W37524  25.991   9.754   2.867
76214W        W37525  29.967  15.610  14.845
76215W        W37526  40.498  34.945   3.781
76216W        W37527  12.733  40.536  13.369
76217W        W37528  37.377  18.716  13.517
76218W        W37529  15.175  32.088   3.258
76219W        W37530  34.905  12.278  12.379
76220W        W37531   0.376  18.216  14.942
76221W        W37532  40.382  41.306  14.491
76222W        W37533  43.334  41.428   4.127
76223W        W37534   0.313  10.350   4.662
76224W        W37535  15.326  28.008  10.508
76225W        W37536  24.645   2.805   4.612
76226W        W37537  34.102   6.349  12.836
76227W        W37538  14.653  37.542  14.843
76228W        W37539   4.386  36.942  13.927
76229W        W37540  10.751   0.883  10.476
76230W        W37541  19.596  31.486  10.933
76231W        W37542  24.100   2.342   3.706
76232W        W37543   0.307  16.132   0.379
76233W        W37544  29.497  20.240   4.229
76234W        W37545  43.506  11.222   4.177
76235W        W37546  37.084  35.109  13.376
76236W        W37547   5.794   1.842  11.446
76237W        W37548  33.380  17.212   4.169
76238W        W37549   5.355  12.285   3.149
76239W        W37550  37.568  18.068   1.779
76240W        W37551  29.017  16.719  12.437
76241W        W37552  25.552  33.018  12.029
76242W        W37553  42.825  31.080   1.770
76243W        W37554   6.193  36.447  13.877
76244W        W37555  27.513  34.509  13.002
76245W        W37556  33.106  39.928   3.361
76246W        W37557  26.666   8.787  14.275
76247W        W37558   3.308   1.841  11.565
76248W        W37559  11.782  39.392  11.382
76249W        W37560  34.589  19.743  12.025
76250W        W37561  29.450  22.578   4.707
76251W        W37562   7.286  44.966  13.908
76252W        W37563  31.582   8.707   1.717
76253W        W37564  39.425  13.198   3.275
76254W        W37565  29.120  11.251   2.802
76255W        W37566  14.221   8.367   3.367
76256W        W37567   7.696  40.882   3.681
76257W        W37568  35.019  20.274   3.290
76258W        W37569  35.071  20.159  11.577
76259W        W37570  30.426  24.162   3.326
76260W        W37571  34.889   7.205   1.861
76261W        W37572  41.970  16.662  13.454
76262W        W37573  33.591  23.719   5.297
76263W        W37574  25.602  35.450   2.312
76264W        W37575  26.658  38.362   2.713
76265W        W37576  27.621  43.804  13.821
76266W        W37577  20.547  36.004  11.380
76267W        W37578  34.000  24.509   1.447
76268W        W37579  36.487  18.555   4.737
76269W        W37580  37.423  25.980   2.252
76270W        W37581  10.861  17.655   4.126
76271W        W37582  23.106  11.335   3.315
76272W        W37583  44.298  18.709   1.739
76273W        W37584  17.189   9.670   1.271
76274W        W37585  19.099  15.104  14.986
76275W        W37586  40.457  31.049   1.770
76276W        W37587   4.911  15.129   1.731
76277W        W37588  25.713  39.421  14.015
76278W        W37589  33.554  12.655  10.543
76279W        W37590  36.880  25.022   4.775
76280W        W37591  23.579  12.145  11.556
76281W        W37592   7.204  41.368   1.882
76282W        W37593   2.467  18.213   3.810
76283W        W37594  26.540  29.128   4.119
76284W        W37595   1.935  36.587  11.117
76285W        W37596   6.890  38.552  13.353
76286W        W37597  34.545  11.290   3.166
76287W        W37598  40.919  38.435   4.137
76288W        W37599   4.923  38.894   1.354
76289W        W37600  44.918  42.788  11.417
76290W        W37601  43.971  22.526  11.108
76291W        W37602   6.709  36.927   2.214
76292W        W37603   2.312  34.949  12.984
76293W        W37604  27.072  23.185  12.529
76294W        W37605  43.461  33.975  13.794
76295W        W37606  35.101   1.776  13.019
76296W        W37607   7.283  25.099  10.933
76297W        W37608  34.985   2.372  10.621
76298W        W37609  38.904  41.432   3.193
76299W        W37610  18.172  42.001  13.979
76300W        W37611  11.783   5.250   1.834
76301W        W37612  28.178  13.179  13.316
76302W        W37613   6.393  14.202  12.052
76303W        W37614  41.361   0.974   0.888
76304W        W37615   0.366  39.463   3.706
76305W        W37616  28.101  11.222  14.391
76306W        W37617  19.272   6.721  11.077
76307W        W37618  19.173  33.535   1.838
76308W        W37619  13.194   3.250   3.789
76309W        W37620  42.389  17.663  12.573
76310W        W37621  37.512   5.812  10.125
76311W        W37622  11.749  23.071   3.186
76312W        W37623   1.297  41.477   0.289
76313W        W37624  34.060  24.986   3.159
76314W        W37625  35.895  36.916  10.452
76315W        W37626  23.644  11.290  13.012
76316W        W37627  35.468  44.354   1.923
76317W        W37628  31.485  35.083   0.793
76318W        W37629  41.911  26.019   1.828
76319W        W37630  23.549  31.607  12.908
76320W        W37631  43.839   7.837   2.284
76321W        W37632  38.325  34.404   0.262
76322W        W37633  29.974  37.948  12.408
76323W        W37634  29.610  44.496  11.919
76324W        W37635  11.709  35.512   2.179
76325W        W37636  10.665  11.632  14.383
76326W        W37637  38.423   4.308  13.830
76327W        W37638   6.391  21.756   3.284
76328W        W37639  20.652  24.638   2.403
76329W        W37640  13.697  20.152   0.773
76330W        W37641  40.979  37.939  10.576
76331W        W37642   7.691  13.235   4.220
76332W        W37643  22.654   1.398  11.927
76333W        W37644  24.595  37.894   1.225
76334W        W37645   9.821  43.796  14.994
76335W        W37646  38.955  31.422   1.848
76336W        W37647  30.989  27.176   3.379
76337W        W37648  35.877  18.279  14.995
76338W        W37649  38.531   7.376   1.714
76339W        W37650  30.126   0.945   0.844
76340W        W37651  19.762  37.459   1.223
76341W        W37652  38.480  18.667   1.812
76342W        W37653  14.685   6.387  10.911
76343W        W37654  35.101  42.988   3.684
76344W        W37655  22.628  15.792   3.338
76345W        W37656  42.430   9.208  12.348
76346W        W37657   9.202   2.818  12.993
76347W        W37658   3.925  43.952   2.667
76348W        W37659  21.189  22.734   1.862
76349W        W37660  12.323  24.690   2.397
76350W        W37661  11.355  34.442  12.955
76351W        W37662  43.516  25.968   0.731
76352W        W37663  23.091  16.267  11.957
76353W        W37664  27.650  40.446   3.385
76354W        W37665  42.466  40.533   4.645
76355W        W37666  17.305  14.635   2.213
76356W        W37667  15.317  19.622   3.237
76357W        W37668  15.743   2.396  11.869
76358W        W37669  10.824   8.866  11.888
76359W        W37670  27.192  35.071   2.788
76360W        W37671  10.337  32.939   2.369
76361W        W37672  20.539  10.141   1.859
76362W        W37673  36.411   9.716  11.442
76363W        W37674  36.561  23.152  12.007
76364W        W37675   5.806  28.556   0.287
76365W        W37676  25.200  13.148   4.708
76366W        W37677  14.234  27.082   2.880
76367W        W37678  28.579  33.579  14.282
76368W        W37679  27.615  23.553  13.032
76369W        W37680  39.939  35.051   1.921
76370W        W37681  14.337  35.595  12.543
76371W        W37682  35.424  32.420   2.724
76372W        W37683   5.753  43.944  10.971
76373W        W37684  43.432  11.292   2.253
76374W        W37685  12.319  31.626   3.295
76375W        W37686  15.774  12.773  11.902
76376W        W37687   3.765  16.781  12.405
76377W        W37688  35.372   7.267  12.415
76378W        W37689  23.509  29.451  14.302
76379W        W37690  28.151  18.611  13.856
76380W        W37691   4.318   6.873   2.408
76381W        W37692   1.435  32.057   4.619
76382W        W37693   6.250  37.578  10.149
76383W        W37694  19.191  40.362   0.258
76384W        W37695  29.176  41.836   0.429
76385W        W37696  36.466  32.395   3.351
76386W        W37697  10.847  43.511  13.483
76387W        W37698  14.801  23.663   2.880
76388W        W37699  28.483  37.487  11.108
76389W        W37700  16.768  33.393  14.951
76390W        W37701  37.846  35.955   4.141
76391W        W37702  32.467  32.585   3.678
76392W        W37703  18.150  17.218   4.714
76393W        W37704  41.006   7.252  13.944
76394W        W37705  26.083  25.585  13.356
76395W        W37706  11.134  15.782   0.787
76396W        W37707   6.238  27.515  10.079
76397W        W37708  36.047   4.213   4.670
76398W        W37709  36.514   0.778   0.476
76399W        W37710  36.851  11.725  14.353
76400W        W37711  10.635  36.011   4.643
76401W        W37712  30.600  41.456  13.357
76402W        W37713   4.225   0.297   0.299
76403W        W37714  18.164  36.536   2.685
76404W        W37715   9.200  39.854  11.414
76405W        W37716  34.519  21.121  10.594
76406W        W37717  35.419   9.316  11.388
76407W        W37718  21.517  41.341  14.928
76408W        W37719  17.777  43.790   4.779
76409W        W37720  26.090  16.572   0.256
76410W        W37721  42.000   5.926  11.962
76411W        W37722  41.005  14.766  11.449
76412W        W37723  25.974   5.783   0.771
76413W        W37724   9.770  13.699  13.317
76414W        W37725  29.945  23.061   4.775
76415W        W37726  24.156  19.621  13.373
76416W        W37727  30.027  11.253   1.433
76417W        W37728  44.290  24.713  10.466
76418W        W37729  15.720   0.341  13.402
76419W        W37730  28.993  28.001  13.373
76420W        W37731  21.106   0.954  11.950
76421W        W37732  10.341  19.256  10.442
76422W        W37733  23.679   1.755   3.188
76423W        W37734  10.714  18.624   1.305
76424W        W37735  13.171  20.594  13.342
76425W        W37736  42.386  22.549  11.941
76426W        W37737  14.218  27.948   0.248
76427W        W37738  36.956  31.995   1.369
76428W        W37739  15.138  21.517   2.798
76429W        W37740  30.653   1.305   0.830
76430W        W37741  34.985  38.968  14.000
76431W        W37742  30.106  19.613  11.012
76432W        W37743  41.034  44.343   3.283
76433W        W37744  23.633   7.283   2.825
76434W        W37745  29.426  37.372  10.015
76435W        W37746  12.138  35.507   3.768
76436W        W37747  36.059  13.111   3.362
76437W        W37748  32.539  21.672  10.454
76438W        W37749   4.435   4.223   1.369
76439W        W37750  21.647  39.348  12.370
76440W        W37751  29.431  25.055   3.786
76441W        W37752  26.547  19.734   1.234
76442W        W37753  22.531  18.714   3.746
76443W        W37754  11.137  35.985  14.323
76444W        W37755  13.290  21.075   0.869
76445W        W37756   0.443  20.230  14.289
76446W        W37757  36.562  11.247  14.404
76447W        W37758  40.025  28.604  13.475
76448W        W37759  19.044   9.752   0.949
76449W        W37760   1.736  28.131   0.876
76450W        W37761   8.406   5.384   3.289
76451W        W37762  29.485  21.727   2.879
76452W        W37763  32.574  26.060  13.528
76453W        W37764  19.137   0.867  11.103
76454W        W37765  42.905  35.100  13.543
76455W        W37766  13.660  40.861   3.817
76456W        W37767  30.483  19.135   2.833
76457W        W37768  26.473  30.603  12.552
76458W        W37769  24.627  15.217   3.184
76459W        W37770  11.623  33.623   2.840
76460W        W37771   5.845  35.005   0.797
76461W        W37772   7.330   2.962   4.307
76462W        W37773  15.274  21.160  14.807
76463W        W37774  26.164  11.729   0.417
76464W        W37775   1.895  34.384  10.597
76465W        W37776  32.015  12.773  12.862
76466W        W37777   1.423  18.546  11.065
76467W        W37778  36.526  40.463  12.880
76468W        W37779  16.162  28.553   3.845
76469W        W37780  31.976   7.770  11.047
76470W        W37781  24.105  26.551   3.862
76471W        W37782  23.010  23.047  14.515
76472W        W37783  13.276   9.853  13.993
76473W        W37784  39.964  37.972   0.938
76474W        W37785  34.959  21.257  10.102
76475W        W37786  40.485  27.643  11.584
76476W        W37787  27.505  13.169  10.487
76477W        W37788  21.636  36.870   2.271
76478W        W37789   4.231  23.594  14.423
76479W        W37790  43.464   6.836   4.114
76480W        W37791  30.471  40.918   0.262
76481W        W37792  41.410  27.942   2.726
76482W        W37793   0.861  42.969  11.888
76483W        W37794  26.027  28.981  13.950
76484W        W37795  11.759   0.366  10.585
76485W        W37796  11.297  20.609   1.296
76486W        W37797  31.450  34.509  11.438
76487W        W37798  11.151   2.734   0.877
76488W        W37799  27.456   6.253  11.895
76489W        W37800  36.580  18.158   1.263
76490W        W37801   8.201   1.256  13.826
76491W        W37802   2.251  35.457  12.520
76492W        W37803  41.966  44.330   3.171
76493W        W37804   9.718  19.214   3.219
76494W        W37805  24.517  22.717   4.227
76495W        W37806  12.336   0.757  12.896
76496W        W37807   1.966   5.252   0.250
76497W        W37808   7.176  31.637   4.838
76498W        W37809  35.496   0.876   4.145
76499W        W37810  16.208  36.523   3.679
76500W        W37811   4.754  24.560  12.431
76501W        W37812   0.270  44.847  14.865
76502W        W37813  19.683  17.663  10.958
76503W        W37814  15.647  12.851  14.344
76504W        W37815   5.818  39.969   0.826
76505W        W37816  23.600  15.637  11.030
76506W        W37817  40.374  10.711   4.309
76507W        W37818  32.128  16.169   0.876
76508W        W37819  26.578   6.727  11.413
76509W        W37820  10.165  40.829  13.792
76510W        W37821  22.069  23.715  10.479
76511W        W37822  32.412  12.186   1.918
76512W        W37823   8.866  44.893  11.596
76513W        W37824  10.684  15.113  10.990
76514W        W37825  13.784   2.445  14.337
76515W        W37826  39.868  21.258   2.793
76516W        W37827  32.504  43.288   2.861
76517W        W37828  33.586   6.210   2.753
76518W        W37829  15.084   5.882   5.617
76519W        W37830  30.010  11.642   0.796
76520W        W37831  14.101  29.997   1.737
76521W        W37832  13.839  41.365  13.005
76522W        W37833  14.223  32.595  14.996
76523W        W37834  35.533  10.168   0.342
76524W        W37835  40.813  24.212  11.595
76525W        W37836  21.146  16.265   1.428
76526W        W37837   8.874  43.964   4.261
76527W        W37838  37.965  20.614  11.551
76528W        W37839   7.352  22.591  11.907
76529W        W37840  23.985   4.755   5.219
76530W        W37841  26.643  38.944  11.559
76531W        W37842  22.115  12.697  14.863
76532W        W37843   4.814  18.204  12.824
76533W        W37844  17.252  41.445  11.379
76534W        W37845  17.727  41.336  11.039
76535W        W37846   9.314  14.610  12.024
76536W        W37847   9.743  12.844  10.458
76537W        W37848  33.519  17.794  12.832
76538W        W37849   9.843  36.968  13.316
76539W        W37850  40.014   2.818   2.198
76540W        W37851  33.076  15.728  13.055
76541W        W37852  26.522  24.481   3.859
76542W        W37853  38.887   2.834  14.358
76543W        W37854  34.508  14.099  12.907
76544W        W37855  35.501  24.701  14.934
76545W        W37856  37.874  37.850   0.908
76546W        W37857   4.932  29.428   4.177
76547W        W37858  37.846  25.666  12.957
76548W        W37859  13.185   7.248  13.372
76549W        W37860  44.003  28.656  14.801
76550W        W37861  29.435  25.111   4.809
76551W        W37862  20.686  36.505   0.755
76552W        W37863   6.416  30.936  13.425
76553W        W37864  21.158  35.954  14.276
76554W        W37865  17.228   7.402  14.000
76555W        W37866  24.187  37.568   0.876
76556W        W37867  23.652   1.838  13.016
76557W        W37868  14.729  35.449   0.791
76558W        W37869  28.157  38.822   3.166
76559W        W37870  37.465  39.907  13.033
76560W        W37871  29.168  16.617   3.823
76561W        W37872  33.609   4.314   0.393
76562W        W37873  37.876  33.384  14.377
76563W        W37874  20.089  36.910   2.692
76564W        W37875  28.522  15.313  12.542
76565W        W37876  26.505  33.951   0.354
76566W        W37877   4.846  23.565  14.842
76567W        W37878  42.974  34.877  11.878
76568W        W37879  31.026   3.299  14.941
76569W        W37880  12.176   3.423  10.415
76570W        W37881  37.861  13.628   0.458
76571W        W37882   7.253  32.974  12.925
76572W        W37883  36.574  15.211  11.951
76573W        W37884   8.890  44.266   4.639
76574W        W37885  13.726   7.704  14.900
76575W        W37886  25.082  27.150   4.601
76576W        W37887  21.602  18.131  12.420
76577W        W37888   3.831  42.366  11.000
76578W        W37889   9.364  29.017   3.245
76579W        W37890  36.863  21.220   0.285
76580W        W37891  37.337  34.918   0.373
76581W        W37892   2.350  31.552  13.053
76582W        W37893  28.098  42.459  12.347
76583W        W37894  25.711   3.386   1.752
76584W        W37895  14.150   3.877  11.907
76585W        W37896  36.976   9.689   2.673
76586W        W37897  33.511  30.521   4.296
76587W        W37898   8.201  11.335   4.136
76588W        W37899   6.692  29.609   1.271
76589W        W37900   8.879   8.293  12.891
76590W        W37901  43.853  17.761  11.045
76591W        W37902  43.351  35.918   3.672
76592W        W37903  13.268   8.307   4.725
76593W        W37904  18.553   1.808   5.280
76594W        W37905  31.553   8.873  13.904
76595W        W37906  41.844  26.965   0.923
76596W        W37907   1.248  42.014   3.228
76597W        W37908  16.725  16.253  11.383
76598W        W37909   8.783  23.493  11.962
76599W        W37910   2.470  40.384   4.228
76600W        W37911   7.731  32.044   2.874
76601W        W37912  36.501  16.752   1.290
76602W        W37913  21.700  24.164   1.310
76603W        W37914  33.048  30.939  12.022
76604W        W37915   4.441   9.321  10.910
76605W        W37916  13.153  40.989  12.967
76606W        W37917   4.428   4.400   3.718
76607W        W37918   7.382   2.318   3.715
76608W        W37919  31.564  42.974  12.839
76609W        W37920  32.955  22.009  11.113
76610W        W37921  12.823   9.816   2.214
76611W        W37922   4.360   1.797   3.804
76612W        W37923   7.864  27.547  13.880
76613W        W37924  16.640  33.587  11.458
76614W        W37925   8.224  32.408  11.008
76615W        W37926   4.293  34.879  12.450
76616W        W37927   8.762  19.153  10.417
76617W        W37928  32.488  43.891  14.996
76618W        W37929  29.043  33.382  13.374
76619W        W37930   4.914  40.044   4.620
76620W        W37931  21.145  17.652  13.832
76621W        W37932   9.343  38.983   3.367
76622W        W37933  12.336  39.043   3.194
76623W        W37934  11.680  26.481  11.861
76624W        W37935  27.153  10.835  11.540
76625W        W37936  11.866  19.603   2.330
76626W        W37937  31.949  28.127   5.130
76627W        W37938  44.924  23.183   2.380
76628W        W37939  37.995   0.749   3.202
76629W        W37940   3.322  32.459   3.189
76630W        W37941  12.300  42.028  14.839
76631W        W37942  32.570  42.422   0.314
76632W        W37943   2.245  13.782   2.888
76633W        W37944  11.241  33.979   0.325
76634W        W37945  17.697  16.214   9.922
76635W        W37946  12.822   3.876   1.706
76636W        W37947  36.410  19.708   3.756
76637W        W37948  11.846  22.531  14.372
76638W        W37949   1.875  36.359  14.302
76639W        W37950  25.499  35.391   1.235
76640W        W37951  12.293  35.097   3.639
76641W        W37952  31.581  15.596   4.166
76642W        W37953   4.387  21.693   2.368
76643W        W37954   8.780  37.879   3.775
76644W        W37955  14.229  12.619  12.094
76645W        W37956  43.423  24.165   1.420
76646W        W37957  11.810  26.473   2.793
76647W        W37958  41.022  38.348  10.490
76648W        W37959  16.707  13.284   4.142
76649W        W37960  27.568   3.891   3.735
76650W        W37961  10.172  11.255  13.877
76651W        W37962  20.756  35.866  12.486
76652W        W37963  13.347  16.572   0.321
76653W        W37964  15.266  33.083   4.668
76654W        W37965  35.438  22.720  14.318
76655W        W37966  10.734   8.854   2.701
76656W        W37967   9.757  32.401  11.597
76657W        W37968  17.200  37.071  13.492
76658W        W37969  17.149   1.936  14.876
76659W        W37970  17.240  36.420  14.900
76660W        W37971  41.982  15.161  13.001
76661W        W37972  14.188  31.993  13.903
76662W        W37973   2.352  16.095   3.852
76663W        W37974  31.475   1.279  10.520
76664W        W37975  26.957  43.997  14.886
76665W        W37976  30.923  31.133   1.717
76666W        W37977   7.906  26.203  13.507
76667W        W37978  17.190   3.716  13.917
76668W        W37979  38.036  18.742  13.482
76669W        W37980   7.242  31.112   1.400
76670W        W37981   5.732   7.332  12.522
76671W        W37982  33.617  19.186  13.908
76672W        W37983  28.105  27.179  14.002
76673W        W37984  18.639  30.614   2.319
76674W        W37985  14.778   4.721   1.704
76675W        W37986   4.892  14.307   4.143
76676W        W37987  39.062   7.340  12.393
76677W        W37988  44.259   4.323  11.966
76678W        W37989   7.698   7.308  14.898
76679W        W37990  31.557   1.843   0.736
76680W        W37991   9.657   9.381  11.466
76681W        W37992  25.965  10.781   2.414
76682W        W37993   2.959  42.366  14.502
76683W        W37994  31.902   2.729  13.897
76684W        W37995   7.845  13.254   3.853
76685W        W37996  17.600  15.121   0.371
76686W        W37997  39.871  11.667  11.373
76687W        W37998  18.210  14.830  10.569
76688W        W37999  36.027  26.621   1.715
76689W        W38000  20.211  42.411  14.512
76690W        W38001  42.283   9.287   0.752
76691W        W38002  31.532  40.424   2.801
76692W        W38003  31.424  14.717  14.289
76693W        W38004  10.739   5.798  11.469
76694W        W38005   0.813  40.880  14.361
76695W        W38006  28.118  38.945  12.509
76696W        W38007  35.558  13.712  11.505
76697W        W38008  30.027  17.136  10.979
76698W        W38009  25.565  18.640   1.231
76699W        W38010  41.370  27.064  12.002
76700W        W38011  43.360  26.158   2.199
76701W        W38012  28.556  23.188  11.437
76702W        W38013  34.114  17.799  12.978
76703W        W38014  32.528  18.745  12.958
76704W        W38015  14.772  13.751   0.798
76705W        W38016  22.717  19.061  14.781
76706W        W38017   0.275   1.298   1.247
76707W        W38018  44.396  36.579   0.400
76708W        W38019  38.913  27.156  13.326
76709W        W38020  39.892   4.318  13.365
76710W        W38021  12.335  30.424   0.961
76711W        W38022  28.507   2.309  14.361
76712W        W38023  17.636  16.705  10.027
76713W        W38024  37.536  19.705  12.869
76714W        W38025  30.559  29.585   3.836
76715W        W38026  26.119   8.313   9.615
76716W        W38027  32.568   2.892   0.814
76717W        W38028  28.609  44.981  12.038
76718W        W38029  20.560  39.031  12.899
76719W        W38030   2.909  27.661  10.607
76720W        W38031  37.871  26.637   1.776
76721W        W38032  17.671   2.233  10.452
76722W        W38033   6.693  33.932   3.784
76723W        W38034  11.761  41.918  14.275
76724W        W38035   3.896  26.961   2.327
76725W        W38036  30.527  31.594   1.359
76726W        W38037   0.795  14.614  14.990
76727W        W38038  19.207  36.957   9.929
76728W        W38039   0.373   4.221  12.555
76729W        W38040   7.679   2.279  14.408
76730W        W38041  18.703  21.050  12.495
76731W        W38042  36.019  16.644  14.026
76732W        W38043  42.511  11.348   2.769
76733W        W38044  38.985  10.185   0.415
76734W        W38045  18.608  26.544   2.709
76735W        W38046  29.117  16.087  12.548
76736W        W38047   0.919  10.736  10.509
76737W        W38048  39.846  23.050  11.961
76738W        W38049   4.329  10.714  12.846
76739W        W38050  44.968  40.022  12.394
76740W        W38051  30.068  20.264   1.710
76741W        W38052   4.798   1.471   4.299
76742W        W38053   6.808  33.982   4.719
76743W        W38054   3.281  24.156  10.571
76744W        W38055  35.370   6.365  11.128
76745W        W38056  38.025  43.987  13.448
76746W        W38057   6.350  10.817  13.332
76747W        W38058  37.369  28.619  13.886
76748W        W38059  30.543  39.921   1.292
76749W        W38060  36.000   2.304  11.893
76750W        W38061  20.750  44.892  10.639
76751W        W38062  19.248  20.631   0.738
76752W        W38063  10.765  40.857  10.566
76753W        W38064  43.927  19.137  14.818
76754W        W38065  29.508  11.779   1.694
76755W        W38066  10.164  30.433  13.825
76756W        W38067  23.106  40.450   4.766
76757W        W38068   3.419  26.656   0.328
76758W        W38069   8.405  19.272  10.993
76759W        W38070  14.117  14.752  10.119
76760W        W38071   1.792  43.469  14.328
76761W        W38072  28.150  39.810   1.921
76762W        W38073  41.391  39.862   1.217
76763W        W38074   8.337  14.315   1.359
76764W        W38075  29.039  19.140  12.466
76765W        W38076  17.694  27.172   0.304
76766W        W38077   4.769  35.968  12.965
76767W        W38078  24.081   4.297   1.917
76768W        W38079  24.684  14.180  13.954
76769W        W38080  26.158  20.608  15.000
76770W        W38081   6.703  17.632  14.286
76771W        W38082  43.354  28.023   1.444
76772W        W38083  33.582  40.017   4.728
76773W        W38084  17.248  15.722   5.086
76774W        W38085   8.722   0.312   1.239
76775W        W38086   6.696   1.472  13.421
76776W        W38087  14.714   2.880   5.181
76777W        W38088   9.834  44.999   0.888
76778W        W38089   2.368  31.071  14.285
76779W        W38090  14.669  10.771  13.492
76780W        W38091   8.172   4.336   3.861
76781W        W38092  13.272   6.704  13.793
76782W        W38093  42.443  11.278   3.774
76783W        W38094  20.560  16.080   3.204
76784W        W38095  42.429   6.418   2.369
76785W        W38096  23.535  24.227  12.017
76786W        W38097   8.737  13.297   3.821
76787W        W38098  33.544  38.985   5.229
76788W        W38099  20.040   5.203  11.951
76789W        W38100  30.446  38.002   4.763
76790W        W38101  43.852  44.902   0.788
76791W        W38102  22.044  30.963   4.713
76792W        W38103   5.752  26.646   2.276
76793W        W38104  14.172  17.237  14.775
76794W        W38105  40.820  43.466   3.302
76795W        W38106   7.356   3.763   1.435
76796W        W38107  43.413  26.183   4.273
76797W        W38108  36.523  30.038   4.770
76798W        W38109  32.896  43.309   4.739
76799W        W38110  31.960  13.317  13.323
76800W        W38111   7.191  18.684  10.147
76801W        W38112   4.321   3.397   1.695
76802W        W38113  22.116   4.716  12.444
76803W        W38114  29.624   4.304   4.216
76804W        W38115  25.642  15.208  14.953
76805W        W38116   3.900  43.368  12.386
76806W        W38117   0.268   7.705   1.864
76807W        W38118  12.667  31.546   1.447
76808W        W38119  21.630  21.511   3.263
76809W        W38120  39.384  30.094   0.903
76810W        W38121  35.886  38.476   1.293
76811W        W38122   0.797  30.629  11.094
76812W        W38123  34.943  29.551  12.951
76813W        W38124   3.443  34.433   3.770
76814W        W38125  17.261  14.336   2.688
76815W        W38126   6.359   7.757  11.937
76816W        W38127   8.372  25.491  13.411
76817W        W38128  35.892   1.475  11.900
76818W        W38129  14.208  23.175  11.481
76819W        W38130  16.758   8.334  11.571
76820W        W38131  42.980  20.685  11.507
76821W        W38132  17.709   0.403  14.837
76822W        W38133  42.451  28.509  10.908
76823W        W38134  19.596  43.411  11.066
76824W        W38135   2.739   6.422  13.808
76825W        W38136  16.115  19.649  14.835
76826W        W38137  43.469  27.148  12.096
76827W        W38138   4.351  40.825  14.911
76828W        W38139  22.136  26.501  13.535
76829W        W38140  40.404  29.444   4.291
76830W        W38141  43.872   0.480  14.782
76831W        W38142   8.405  17.085   2.185
76832W        W38143  29.046  26.534   0.761
76833W        W38144  42.866  15.787   3.257
76834W        W38145  39.403  34.483   3.182
76835W        W38146  21.519  12.688  11.479
76836W        W38147  17.247  38.944   9.989
76837W        W38148   2.265  33.549  10.021
76838W        W38149  32.948   4.823   2.782
76839W        W38150  11.363   9.378   3.731
76840W        W38151  44.486  40.851  14.908
76841W        W38152   8.761  23.111  12.007
76842W        W38153  22.225  43.356  10.009
76843W        W38154  33.553  12.168   1.241
76844W        W38155  25.532   9.652   4.727
76845W        W38156  28.016  30.132  13.444
76846W        W38157  20.101  40.846   1.350
76847W        W38158  33.067  40.839  14.445
76848W        W38159  29.626  40.851  13.517
76849W        W38160   8.753  31.428  12.966
76850W        W38161  35.917  18.219  11.398
76851W        W38162  39.907  27.053  14.907
76852W        W38163  27.179   0.431  12.079
76853W        W38164   9.828  24.655  12.424
76854W        W38165  33.385  22.135   0.394
76855W        W38166   2.952   8.847  13.055
76856W        W38167   8.199  41.515   3.335
76857W        W38168  12.808  17.689  10.575
76858W        W38169   8.398  13.156  11.432
76859W        W38170  15.675   8.226   3.730
76860W        W38171   1.409  18.778  14.456
76861W        W38172  10.157  25.138  10.574
76862W        W38173  32.403   1.759   4.344
76863W        W38174  44.854   2.300   0.467
76864W        W38175  12.706  23.590   4.223
76865W        W38176   3.381  37.057  14.994
76866W        W38177   7.910  27.166  11.917
76867W        W38178  30.418  38.529  11.071
76868W        W38179  39.888  24.031   0.752
76869W        W38180  18.054  37.949   1.794
76870W        W38181  29.428   0.929  14.956
76871W        W38182  39.872  40.447  13.818
76872W        W38183  16.595   8.769  14.278
76873W        W38184   4.269   5.409   0.328
76874W        W38185  15.759  17.641  11.523
76875W        W38186   8.304   7.669  14.932
76876W        W38187  17.069  37.862  10.932
76877W        W38188   7.760  24.634   1.301
76878W        W38189  22.081  24.485   4.153
76879W        W38190  24.586   7.398  14.335
76880W        W38191   7.171  29.958   2.231
76881W        W38192  38.559  13.348   3.784
76882W        W38193  13.234  23.504  14.959
76883W        W38194  19.771  16.250   4.838
76884W        W38195   5.228  16.644  12.857
76885W        W38196   8.204  18.167  11.891
76886W        W38197  34.499  34.414   4.724
76887W        W38198  43.919  39.908   4.657
76888W        W38199  42.920  33.389  12.018
76889W        W38200   2.423  11.769   0.882
76890W        W38201  39.415  20.613   2.363
76891W        W38202  36.455  21.679  13.040
76892W        W38203  39.956  12.615   3.718
76893W        W38204  26.490  22.574   3.662
76894W        W38205  16.166  34.057   4.695
76895W        W38206  21.232  18.174  13.831
76896W        W38207  20.636  37.533  10.104
76897W        W38208  33.043   8.727   0.464
76898W        W38209  28.455  44.313  10.505
76899W        W38210  27.610  33.878  12.056
76900W        W38211  31.542   3.950  12.999
76901W        W38212  36.577  37.890  12.028
76902W        W38213  19.724   1.805   0.278
76903W        W38214  29.930   2.379  13.002
76904W        W38215  25.689  42.012  12.371
76905W        W38216  21.018   4.758   5.105
76906W        W38217  22.228  29.546  11.864
76907W        W38218  29.025  43.464   4.767
76908W        W38219   7.194   1.252   2.330
76909W        W38220  11.213   2.355   2.902
76910W        W38221  43.386  43.770  13.539
76911W        W38222  43.798   7.837   4.292
76912W        W38223  34.922  16.090   0.808
76913W        W38224   8.341  17.586  11.440
76914W        W38225  11.342  14.140   2.364
76915W        W38226  12.848  33.558   4.264
76916W        W38227  16.803  44.321  11.490
76917W        W38228  39.487  36.069   2.762
76918W        W38229  40.499  15.308   3.665
76919W        W38230   5.421  29.101  11.027
76920W        W38231   3.743  10.235  10.981
76921W        W38232   7.786  43.271   2.233
76922W        W38233  18.623  37.399  13.959
76923W        W38234  42.972  21.155   2.180
76924W        W38235  19.206  44.275   3.804
76925W        W38236  19.236   2.325   4.817
76926W        W38237  44.881  29.016  11.008
76927W        W38238  40.877  22.052   0.283
76928W        W38239   0.383   6.345  12.501
76929W        W38240   3.905  35.929  14.911
76930W        W38241  17.614  22.747   0.868
76931W        W38242  19.283   9.218  11.950
76932W        W38243  14.306  34.035  12.424
76933W        W38244  12.623  15.701   3.827
76934W        W38245  24.590  13.346   3.646
76935W        W38246  43.353  37.372  12.393
76936W        W38247  43.773  22.587   2.784
76937W        W38248  44.940   6.283   1.795
76938W        W38249  16.210  18.180   1.423
76939W        W38250   2.352   3.419   4.150
76940W        W38251  43.300  22.162   4.239
76941W        W38252  15.762  22.593   0.382
76942W        W38253  34.097  18.065   4.806
76943W        W38254  40.813  27.948  13.891
76944W        W38255  40.533  20.109  11.545
76945W        W38256  36.980  27.477  11.497
76946W        W38257  36.074  17.125   2.707
76947W        W38258  43.510  38.501  13.912
76948W        W38259  40.827  28.445   0.832
76949W        W38260  15.582  11.165   4.716
76950W        W38261   0.327  24.141   1.738
76951W        W38262  24.062   4.827  10.468
76952W        W38263  23.701  12.197   1.856
76953W        W38264  41.866   3.414  11.049
76954W        W38265   9.718  27.031   1.815
76955W        W38266  14.250   2.905  11.516
76956W        W38267  16.627   7.234  10.631
76957W        W38268  26.003   7.358   4.667
76958W        W38269  10.651  12.836  13.522
76959W        W38270   4.299  15.595  13.524
76960W        W38271  30.422  19.220   1.314
76961W        W38272   5.360  29.166  14.798
76962W        W38273  21.514  44.931   1.426
76963W        W38274   6.858  34.080   0.868
76964W        W38275   4.836  17.641   0.316
76965W        W38276  31.528  43.345  12.828
76966W        W38277   8.233  22.162   1.398
76967W        W38278  17.700  30.554  10.439
76968W        W38279  44.822  24.584  14.315
76969W        W38280   5.230  32.008   1.242
76970W        W38281  32.620   5.294  14.355
76971W        W38282  11.233  10.854  13.796
76972W        W38283  13.810  29.653  12.526
76973W        W38284  40.843  34.563   4.813
76974W        W38285  30.995  39.880   4.143
76975W        W38286   5.292  43.461   3.720
76976W        W38287   3.802  27.658  10.509
76977W        W38288  26.034   1.441  12.470
76978W        W38289  12.156  25.676   3.722
76979W        W38290  11.348  39.552   1.285
76980W        W38291  41.424  26.671  12.455
76981W        W38292   9.321   0.292  13.033
76982W        W38293   7.841  12.622   2.329
76983W        W38294  33.534  27.525   4.150
76984W        W38295  32.897  11.815  11.088
76985W        W38296  16.103   8.846  10.416
76986W        W38297  28.078  18.240   0.281
76987W        W38298   0.795  36.881   3.765
76988W        W38299   3.811  32.903   4.746
76989W        W38300   7.810  10.270  13.437
76990W        W38301  24.615  34.946   0.851
76991W        W38302  25.618  36.985  10.633
76992W        W38303  29.494  39.865  10.956
76993W        W38304  41.510  29.950   0.438
76994W        W38305  37.066   6.745  13.924
76995W        W38306  23.144  14.781   0.726
76996W        W38307   3.435  23.011  13.515
76997W        W38308  30.417  17.305  11.538
76998W        W38309  23.620  14.612   0.964
76999W        W38310  40.327  37.545  14.515
77000W        W38311  37.960  40.505  13.821
77001W        W38312  38.057  21.616   1.703
77002W        W38313  16.094  16.219  11.466
77003W        W38314  41.828  36.880  10.583
77004W        W38315  16.721   4.204  11.451
77005W        W38316  11.238  18.160  10.907
77006W        W38317   9.740  42.975   3.735
77007W        W38318   9.673   5.234   3.735
77008W        W38319  41.001  30.599   3.715
77009W        W38320   1.359  26.952  13.034
77010W        W38321  16.785   2.411  12.871
77011W        W38322  35.435   6.405  12.368
77012W        W38323  17.193  35.365  13.958
77013W        W38324  24.613   6.298  11.595
77014W        W38325  19.188  31.103  10.998
77015W        W38326  19.120  43.510  11.475
77016W        W38327  16.287  31.419   1.261
77017W        W38328  42.028  33.550  11.981
77018W        W38329  15.680  39.499   1.822
77019W        W38330  18.061   2.278   2.740
77020W        W38331  20.561   0.953  14.509
77021W        W38332  13.824  14.188   1.882
77022W        W38333  35.555   2.323   0.761
77023W        W38334  24.482  33.107   4.154
77024W        W38335  40.861  26.482   0.926
77025W        W38336  17.633  35.965  12.083
77026W        W38337  44.953   5.293   0.418
77027W        W38338  26.662  14.106  11.430
77028W        W38339  29.951  35.089  13.321
77029W        W38340  28.546  17.102   4.282
77030W        W38341   9.193  34.533  11.865
77031W        W38342   9.831   3.431  13.826
77032W        W38343  19.653  36.048  14.760
77033W        W38344  26.196   6.714  13.930
77034W        W38345  30.547  43.428   4.668
77035W        W38346  15.632  11.664  14.817
77036W        W38347  44.906  12.668   2.312
77037W        W38348  15.113  29.965  10.981
77038W        W38349  21.102  34.470  10.044
77039W        W38350  13.658  10.333  14.932
77040W        W38351  39.960  33.410   3.204
77041W        W38352   0.432   6.688   1.918
77042W        W38353  39.315   4.705   9.990
77043W        W38354  29.431  23.693  12.367
77044W        W38355  15.725  35.026   1.908
77045W        W38356  16.247  40.949  10.523
77046W        W38357  19.688  33.956   0.968
77047W        W38358  42.873  28.675  10.639
77048W        W38359   4.440   7.249   1.387
77049W        W38360   7.898  20.109  12.415
77050W        W38361  41.946  11.846   1.408
77051W        W38362   1.793  38.557  12.527
77052W        W38363  17.594   1.418  11.578
77053W        W38364  39.002  40.942   4.781
77054W        W38365  31.576  25.662  14.769
77055W        W38366  16.619   6.694   1.380
77056W        W38367  10.813  27.174   0.404
77057W        W38368  10.354  24.693  14.965
77058W        W38369   2.325  11.728  10.906
77059W        W38370  10.196   2.268  10.551
77060W        W38371  34.120   9.192   2.874
77061W        W38372  21.171  31.473  11.488
77062W        W38373  24.622  35.361   4.177
77063W        W38374   4.842  11.230  12.064
77064W        W38375  34.040  14.323   2.182
77065W        W38376  18.765   4.286  13.923
77066W        W38377  12.326  27.106   0.761
77067W        W38378  13.146  25.186   0.796
77068W        W38379  17.688  36.897   1.309
77069W        W38380   0.296   5.272   4.132
77070W        W38381  14.156  21.597  10.510
77071W        W38382  36.364  23.212   3.644
77072W        W38383  38.568  29.932   2.806
77073W        W38384  42.326  13.627  13.368
77074W        W38385  44.496  15.609   0.856
77075W        W38386  13.193  15.287  14.327
77076W        W38387   1.395   3.289   4.125
77077W        W38388  38.053   7.732  11.450
77078W        W38389  26.072  38.055  11.105
77079W        W38390  37.952   9.653   4.696
77080W        W38391  40.910  17.080  14.438
77081W        W38392  30.422  35.074   3.309
77082W        W38393  15.116   4.247   1.827
77083W        W38394  24.153  27.996   4.742
77084W        W38395  27.145  11.794   3.758
77085W        W38396  24.502  16.143  12.090
77086W        W38397  40.844   1.838  13.486
77087W        W38398  19.120  13.234  14.004
77088W        W38399  11.623   2.766  12.507
77089W        W38400  19.571   7.852  11.455
77090W        W38401   4.778   3.832   2.375
77091W        W38402  21.090   6.894  13.912
77092W        W38403   6.820  33.060  12.446
77093W        W38404  15.083  37.930  14.309
77094W        W38405   1.878  20.246   2.689
77095W        W38406   3.257  44.852  11.876
77096W        W38407  24.668  19.558   0.884
77097W        W38408   6.251   0.277   3.284
77098W        W38409   8.185  40.004  13.809
77099W        W38410  25.706  21.633  13.525
77100W        W38411  10.352  14.096   1.773
77101W        W38412  13.175  37.868  11.040
77102W        W38413   7.406  20.137   0.317
77103W        W38414  27.564  20.605   3.149
77104W        W38415  41.414   2.841   4.664
77105W        W38416  13.148  34.572  11.510
77106W        W38417  23.095  17.802  13.861
77107W        W38418  39.441  19.640   0.371
77108W        W38419   2.844  36.529   3.301
77109W        W38420  27.651  42.847   0.833
77110W        W38421  13.778   3.247   3.725
77111W        W38422  31.073   5.835   4.196
77112W        W38423  18.055  22.740  13.519
77113W        W38424  40.855  24.134  13.416
77114W        W38425  11.237  30.991  14.395
77115W        W38426  40.534  30.002   4.828
77116W        W38427  34.945  10.666   3.776
77117W        W38428  30.489  15.672   5.249
77118W        W38429  14.281   5.811  12.954
77119W        W38430  13.277  28.659  13.471
77120W        W38431  43.016   0.419  13.451
77121W        W38432  15.715  17.219   1.903
77122W        W38433  19.182  26.029   2.301
77123W        W38434  24.002  14.325   4.147
77124W        W38435  26.066  14.119   2.703
77125W        W38436  15.169  14.805  11.574
77126W        W38437  34.561  39.489   4.803
77127W        W38438   1.906  24.723  14.291
77128W        W38439  34.432  24.536   1.319
77129W        W38440  15.270  30.415  13.371
77130W        W38441  29.153  32.963  12.526
77131W        W38442  12.683  15.320  11.118
77132W        W38443  39.952  36.954  14.952
77133W        W38444  19.212  19.238  11.532
77134W        W38445  21.546  10.671   2.701
77135W        W38446  22.013  35.477  11.547
77136W        W38447  16.627  37.940   2.875
77137W        W38448  28.487   4.861  11.537
77138W        W38449  27.972  22.666   2.304
77139W        W38450  20.620   1.821   2.804
77140W        W38451  44.878  33.596  11.044
77141W        W38452  24.678  33.618  11.511
77142W        W38453   6.812  18.653   4.163
77143W        W38454  22.708  20.679  10.896
77144W        W38455  10.745  20.752  13.971
77145W        W38456  23.704  26.504  11.934
77146W        W38457  31.946   9.658  13.011
77147W        W38458   3.241  10.871   1.386
77148W        W38459   1.843   1.958  11.606
77149W        W38460  29.995  10.639   2.410
77150W        W38461  29.462   1.294   3.687
77151W        W38462  37.420   8.281  11.448
77152W        W38463  43.779  13.192  12.058
77153W        W38464  40.876  16.168   3.840
77154W        W38465  36.421  40.325  11.380
77155W        W38466  34.920  10.296   9.976
77156W        W38467   8.395  14.128   0.434
77157W        W38468   2.301   2.836  12.876
77158W        W38469  14.133   8.232   4.643
77159W        W38470   5.316   1.746  13.946
77160W        W38471   5.899  25.121  12.368
77161W        W38472  19.548   7.856  14.993
77162W        W38473  13.195  26.121   0.330
77163W        W38474  26.191  41.418   3.707
77164W        W38475  41.523  37.468   3.777
77165W        W38476  25.057  27.452  13.038
77166W        W38477  14.225  18.595  14.853
77167W        W38478   3.349  41.875   3.297
77168W        W38479  11.674  26.520  13.908
77169W        W38480  35.996  33.943  11.031
77170W        W38481  42.840  17.592   2.373
77171W        W38482  13.159   3.932   0.826
77172W        W38483  17.623  35.489  13.321
77173W        W38484  44.905  42.430  10.491
77174W        W38485  16.586   5.435  14.979
77175W        W38486  14.224  40.537   1.359
77176W        W38487   9.772  29.511   4.685
77177W        W38488  24.667   3.333   2.807
77178W        W38489  11.342   5.798   1.727
77179W        W38490  17.646  21.135   1.702
77180W        W38491  27.030  40.496  12.529
77181W        W38492  18.107  10.846   2.664
77182W        W38493  22.647  30.025  13.833
77183W        W38494  18.695   8.199   3.631
77184W        W38495  26.156  10.690   0.481
77185W        W38496  21.611  25.977   1.345
77186W        W38497   1.883   3.329  11.513
77187W        W38498  28.061  41.390   0.752
77188W        W38499   2.773  20.615  14.764
77189W        W38500  39.501   9.659  14.304
77190W        W38501  36.867  42.887  10.003
77191W        W38502   1.406   4.789   2.824
77192W        W38503   4.916  25.605   0.438
77193W        W38504   2.318   1.739   4.147
77194W        W38505  32.984   7.380  10.563
77195W        W38506  43.777  18.124   0.383
77196W        W38507   6.300   1.791  14.762
77197W        W38508  27.031  30.942  11.608
77198W        W38509  34.401  19.598   4.768
77199W        W38510  32.609  12.755  11.073
77200W        W38511  20.180  38.010   1.929
77201W        W38512  41.335  28.665  12.411
77202W        W38513  10.152  37.536   1.876
77203W        W38514  35.365  27.165   1.917
77204W        W38515  24.020   0.889  10.036
77205W        W38516  13.655   9.208  14.024
77206W        W38517  32.889  44.305   2.838
77207W        W38518  40.885  22.581   0.789
77208W        W38519  13.251  11.247   2.363
77209W        W38520  14.332  26.145   4.747
77210W        W38521  41.361  36.014  13.537
77211W        W38522   3.903  25.069   1.258
77212W        W38523  41.323  25.556  10.997
77213W        W38524   9.370  43.976   0.934
77214W        W38525  36.080  18.579   1.752
77215W        W38526   0.382  12.117  12.464
77216W        W38527  37.021  28.520  13.802
77217W        W38528  11.657  43.467   2.186
77218W        W38529  34.594  33.062  12.460
77219W        W38530  23.037  22.191   4.137
77220W        W38531  20.164  24.008  12.473
77221W        W38532  19.603  30.141  14.456
77222W        W38533  31.121  43.298   1.221
77223W        W38534   8.234  29.935  11.463
77224W        W38535  13.281  38.503   0.820
77225W        W38536   3.334  41.846   3.800
77226W        W38537   2.948  13.276   2.718
77227W        W38538  12.191  21.580  11.972
77228W        W38539  32.097  25.508   4.774
77229W        W38540   1.315  33.408   0.798
77230W        W38541  38.450  39.318   2.213
77231W        W38542  27.192  42.929   2.740
77232W        W38543   2.900   4.315  11.953
77233W        W38544  41.513  31.933  14.793
77234W        W38545  26.661  10.243   2.366
77235W        W38546  11.804  16.198  14.422
77236W        W38547  42.021   7.760   5.161
77237W        W38548  34.907  32.008  13.816
77238W        W38549  11.749  18.157  14.832
77239W        W38550  12.285   5.840   3.314
77240W        W38551   6.799  16.121   3.361
77241W        W38552  17.208   0.913  14.371
77242W        W38553  20.552   2.452   2.859
77243W        W38554  30.957  30.910   4.223
77244W        W38555  28.021  30.429  12.346
77245W        W38556   0.816  36.048  14.954
77246W        W38557  42.371  13.766  12.553
77247W        W38558  42.447  12.796  10.928
77248W        W38559   3.301  22.041   0.472
77249W        W38560   2.877  32.997  14.435
77250W        W38561  35.954  29.008   1.935
77251W        W38562  15.108   0.755   3.664
77252W        W38563   6.737  30.951   3.150
77253W        W38564  24.660  27.022   1.395
77254W        W38565  32.123  10.158   0.391
77255W        W38566  31.022  13.337  13.991
77256W        W38567  13.746  30.482   3.319
77257W        W38568  24.572  42.468   3.868
77258W        W38569  35.030  11.335   1.809
77259W        W38570  30.052  36.996   2.393
77260W        W38571  31.595  25.005  13.538
77261W        W38572   0.922  40.927  11.473
77262W        W38573   4.418   8.892   4.240
77263W        W38574  14.646  25.024   4.313
77264W        W38575  35.496  19.259  11.373
77265W        W38576  24.116  40.512   4.695
77266W        W38577  35.994  27.116   1.243
77267W        W38578  17.619  44.308   3.156
77268W        W38579  20.121  19.717  10.059
77269W        W38580  18.253  28.148  14.359
77270W        W38581  38.057  26.188   4.675
77271W        W38582  32.917  14.715   4.138
77272W        W38583  12.240  21.557  14.774
77273W        W38584  22.093   5.864  10.488
77274W        W38585  10.857  25.084  12.013
77275W        W38586   0.913  41.396  10.607
77276W        W38587  42.813  28.582   1.857
77277W        W38588  19.693  37.560  12.525
77278W        W38589  14.335  20.611  12.442
77279W        W38590   5.719  20.078   2.225
77280W        W38591  28.493  37.987  13.827
77281W        W38592   8.878  16.569  11.516
77282W        W38593  18.259  28.980  13.968
77283W        W38594   2.725  10.814   0.752
77284W        W38595  38.836  35.589  11.374
77285W        W38596  25.556   2.954   1.408
77286W        W38597  35.529   6.322  13.500
77287W        W38598   7.869  31.628   0.364
77288W        W38599  40.465  11.211   2.373
77289W        W38600  27.590  39.955   0.873
77290W        W38601  21.191  12.321  11.981
77291W        W38602  25.025  37.567   0.453
77292W        W38603   7.855   4.218   1.417
77293W        W38604  13.288  36.573  14.916
77294W        W38605  35.436  25.527   2.222
77295W        W38606  28.134   9.717   4.647
77296W        W38607  41.787  32.121   1.398
77297W        W38608  40.851  14.149  11.126
77298W        W38609  41.904  29.544   1.213
77299W        W38610  15.631  40.814  14.885
77300W        W38611  19.646  19.570   4.224
77301W        W38612  12.719  27.671  14.767
77302W        W38613   1.482   6.795   2.259
77303W        W38614  36.455  43.326   1.854
77304W        W38615  14.629  34.611  10.602
77305W        W38616  23.145  17.793  11.974
77306W        W38617  17.162  24.535  13.834
77307W        W38618  40.001  29.634  14.411
77308W        W38619  25.047  26.545   0.390
77309W        W38620  12.353   3.295   2.819
77310W        W38621  37.557   1.462   1.408
77311W        W38622  18.788  39.935  11.026
77312W        W38623  38.406  17.680   1.361
77313W        W38624  41.490   0.425  13.987
77314W        W38625  36.901  13.845   4.811
77315W        W38626  42.846  13.822   2.189
77316W        W38627  44.818  32.925  14.775
77317W        W38628   2.438  34.056   2.850
77318W        W38629   1.296  30.148   0.833
77319W        W38630  28.139  36.028   0.851
77320W        W38631  35.049  17.062   4.702
77321W        W38632   3.873   7.250  11.953
77322W        W38633  38.949  15.271   0.924
77323W        W38634  25.520  18.109   0.886
77324W        W38635  25.515  27.500   3.355
77325W        W38636  20.230  27.471   2.412
77326W        W38637  41.406  36.880   4.759
77327W        W38638   1.970  22.060   3.828
77328W        W38639   5.280  43.272   4.193
77329W        W38640  35.578  16.629  14.372
77330W        W38641  22.129  37.081   4.637
77331W        W38642  16.120  33.421  12.544
77332W        W38643  11.868   2.827   3.177
77333W        W38644  11.751  29.564  11.390
77334W        W38645  24.517   7.198   1.327
77335W        W38646  14.202  22.682  14.019
77336W        W38647  37.567  31.479   3.749
77337W        W38648  41.512  10.181  13.346
77338W        W38649  25.606  14.149   0.744
77339W        W38650   2.427   0.384   1.368
77340W        W38651  25.994  39.898   3.723
77341W        W38652  25.081  26.000   4.116
77342W        W38653  23.531  33.508  11.582
77343W        W38654  11.181  30.032  11.985
77344W        W38655   9.173   2.750   0.944
77345W        W38656  22.136  41.873  14.850
77346W        W38657  12.155   3.854  11.094
77347W        W38658  13.248  15.652  13.953
77348W        W38659   4.822  37.028  12.001
77349W        W38660  12.202   2.795  10.143
77350W        W38661   9.252  34.412   3.661
77351W        W38662  35.390   9.153  12.027
77352W        W38663  38.473  18.161  11.080
77353W        W38664  39.459  14.693   2.727
77354W        W38665  32.122  35.452   3.159
77355W        W38666  42.924  33.537   5.247
77356W        W38667   2.914  18.050   2.278
77357W        W38668  19.228  22.063   1.935
77358W        W38669  40.974  17.217   0.956
77359W        W38670   8.249  35.852  10.565
77360W        W38671   0.850  43.886   3.231
77361W        W38672  34.872  32.546   1.781
77362W        W38673  18.673  29.169  11.594
77363W        W38674  26.185   5.387  10.548
77364W        W38675   4.267  41.494  11.960
77365W        W38676  20.542  11.798  13.922
77366W        W38677  38.460  21.249   2.786
77367W        W38678  15.249  18.735   4.293
77368W        W38679  40.511  21.548   4.129
77369W        W38680   3.232  44.866   4.285
77370W        W38681   2.781  20.553   3.288
77371W        W38682  25.495  36.381   2.413
77372W        W38683   4.907   1.285  12.075
77373W        W38684   6.394   7.333   3.282
77374W        W38685  16.649   6.779  11.110
77375W        W38686   4.311  32.041  14.296
77376W        W38687  42.930  16.636  12.845
77377W        W38688  16.199   8.793   4.282
77378W        W38689  35.545  41.855  14.441
77379W        W38690   3.343  38.500   4.752
77380W        W38691  33.490  26.581   5.130
77381W        W38692   4.225  18.128  12.869
77382W        W38693  34.957  42.509  14.818
77383W        W38694   4.302  25.166  10.930
77384W        W38695  25.576  13.275   3.868
77385W        W38696  37.900  39.955  13.526
77386W        W38697   8.164  32.434   0.760
77387W        W38698  27.102  12.268  13.000
77388W        W38699  32.914   7.209   4.681
77389W        W38700  44.477   0.252  12.508
77390W        W38701   2.773  39.464   4.658
77391W        W38702  16.090   6.906   0.735
77392W        W38703  44.404   6.244   4.291
77393W        W38704  32.102  12.625  10.439
77394W        W38705   6.184  35.057  13.841
77395W        W38706  34.480  32.039  11.947
77396W        W38707  26.599   5.254  14.466
77397W        W38708   8.394  22.998   1.313
77398W        W38709  34.016  18.171  13.540
77399W        W38710  16.262   4.859  12.487
77400W        W38711  38.829  44.268   1.250
77401W        W38712  28.099  28.547   4.707
77402W        W38713  38.520  15.613   2.244
77403W        W38714  38.328  15.237   1.826
77404W        W38715   7.807  13.132   1.834
77405W        W38716   1.892  10.359  12.428
77406W        W38717  35.901   0.897  14.516
77407W        W38718  39.055   2.753   1.295
77408W        W38719  31.148   7.232  12.443
77409W        W38720  37.996  20.245   4.147
77410W        W38721  32.950  32.425   0.777
77411W        W38722   4.422  10.717   0.398
77412W        W38723  43.839  22.047  12.835
77413W        W38724  24.118  32.017   1.833
77414W        W38725  10.345  29.526  10.495
77415W        W38726  40.814   9.355  10.409
77416W        W38727  14.104  38.397  10.427
77417W        W38728   5.708   8.878   4.319
77418W        W38729  43.412   8.807   5.289
77419W        W38730  41.908  13.161   2.204
77420W        W38731   4.400  32.629  11.029
77421W        W38732  26.666   2.796   4.814
77422W        W38733  30.920  31.440   0.259
77423W        W38734  36.039   9.250  11.015
77424W        W38735  24.648  34.368  11.014
77425W        W38736  38.540  17.795   3.821
77426W        W38737  13.681  33.621   3.724
77427W        W38738  14.663  41.847   0.257
77428W        W38739  11.851  39.997   0.758
77429W        W38740   5.922  26.997   0.312
77430W        W38741   6.233   8.245  14.003
77431W        W38742   1.969  10.867   3.246
77432W        W38743  31.554   6.713  10.043
77433W        W38744   7.839  27.110   1.733
77434W        W38745  11.801  39.892   4.297
77435W        W38746  11.796  23.650  10.937
77436W        W38747  19.600  31.902  12.381
77437W        W38748  39.534  44.882  11.544
77438W        W38749  17.722  14.816   2.799
77439W        W38750  30.125  13.296   0.808
77440W        W38751  24.203  30.932   4.161
77441W        W38752  33.076   2.886  11.570
77442W        W38753  15.292  25.573   2.761
77443W        W38754   4.916  22.581  11.993
77444W        W38755   0.263   2.428  13.962
77445W        W38756  16.626  17.775   1.826
77446W        W38757  21.207  18.615  14.455
77447W        W38758  12.643   3.922   5.132
77448W        W38759  20.671  14.639  14.353
77449W        W38760   8.686   5.291   2.394
77450W        W38761   2.906  32.441   0.967
77451W        W38762  20.114   3.376   1.244
77452W        W38763  12.245  41.484  10.623
77453W        W38764  27.951   3.306  11.011
77454W        W38765  15.319   0.889   2.819
77455W        W38766  40.540  30.969  13.954
77456W        W38767   1.289   5.439  10.898
77457W        W38768  31.539  22.542  14.867
77458W        W38769   2.835   0.967  12.887
77459W        W38770  25.165  37.569   3.221
77460W        W38771  24.092  16.801   4.686
77461W        W38772  15.787   1.304   4.283
77462W        W38773  23.513   1.280  12.062
77463W        W38774   1.933  29.082   3.718
77464W        W38775  17.156  36.351   1.868
77465W        W38776  35.031  12.695  10.157
77466W        W38777  11.356  10.235  13.376
77467W        W38778   9.158  29.955   3.163
77468W        W38779   3.282   5.882   4.699
77469W        W38780   0.916  24.690  13.907
77470W        W38781  31.908  25.194   2.250
77471W        W38782  18.076  28.071  13.382
77472W        W38783  40.043   7.209   3.814
77473W        W38784   8.368   3.817  13.490
77474W        W38785  24.126  43.314  10.955
77475W        W38786  44.308   4.785   4.244
77476W        W38787  10.342  10.147   5.273
77477W        W38788  16.241  23.200  10.044
77478W        W38789  21.648   0.864  11.067
77479W        W38790  18.711  29.558   3.658
77480W        W38791  11.164  34.873   4.242
77481W        W38792  12.354   8.216  11.907
77482W        W38793  42.513  42.875  14.458
77483W        W38794  18.756   5.353  10.544
77484W        W38795  23.114  44.940   0.332
77485W        W38796  38.385  44.293   3.301
77486W        W38797   4.876  41.411  13.454
77487W        W38798  11.308  19.130   0.727
77488W        W38799  37.561  33.882  13.918
77489W        W38800  34.496  35.954  11.923
77490W        W38801  33.442  23.176   1.337
77491W        W38802  35.943  27.461   4.834
77492W        W38803  43.003  23.579  13.867
77493W        W38804  23.653  23.226  13.479
77494W        W38805   3.266  33.559   2.388
77495W        W38806  13.162   2.859   2.783
77496W        W38807  34.551  38.555  10.586
77497W        W38808  30.435  14.607   0.255
77498W        W38809  39.558   7.708   4.836
77499W        W38810  38.942  41.898   0.303
77500W        W38811  38.037  30.056  14.953
77501W        W38812  42.826  39.556   2.863
77502W        W38813  25.593  28.594   0.751
77503W        W38814  28.094  34.465   4.799
77504W        W38815  17.126  32.023  10.011
77505W        W38816   6.263  38.003   0.248
77506W        W38817  18.588  23.998  13.517
77507W        W38818  19.206  25.033   3.177
77508W        W38819  26.636  21.228  10.506
77509W        W38820  43.872  44.331   3.384
77510W        W38821  37.537  19.132  13.316
77511W        W38822  33.418  27.612   1.226
77512W        W38823  12.245  25.545   0.812
77513W        W38824  41.942   5.717  11.456
77514W        W38825  31.633  38.991   1.871
77515W        W38826  28.489  25.131   3.695
77516W        W38827   5.406  15.789   4.270
77517W        W38828   4.393  34.951  12.032
77518W        W38829  42.527  20.705   2.808
77519W        W38830   5.831  19.638  14.016
77520W        W38831  21.665  42.993   2.377
77521W        W38832   9.732  10.165   0.749
77522W        W38833   0.294  20.525  10.442
77523W        W38834  32.017  15.129   2.838
77524W        W38835  22.074  32.935   5.184
77525W        W38836   1.475  12.238   2.181
77526W        W38837  12.800  35.887   0.411
77527W        W38838  23.538   7.396   0.268
77528W        W38839  18.735  27.996  13.063
77529W        W38840  23.662  20.183  11.462
77530W        W38841   6.384  27.638  12.463
77531W        W38842  17.169  26.517   1.753
77532W        W38843   5.278  19.638   0.788
77533W        W38844  27.185   6.722   2.793
77534W        W38845  41.329  42.889  10.645
77535W        W38846   0.801  20.577  12.552
77536W        W38847  39.475  42.378  12.038
77537W        W38848  34.072  41.406   1.284
77538W        W38849  44.337  19.179  13.342
77539W        W38850  13.677  30.415  12.566
77540W        W38851  33.612   7.289  13.943
77541W        W38852  17.647  32.580   2.345
77542W        W38853  26.060  30.438  14.904
77543W        W38854   9.224  18.064  12.945
77544W        W38855  31.546  42.779   3.168
77545W        W38856  27.020  26.097   3.854
77546W        W38857  17.133  37.050   1.428
77547W        W38858  13.147   7.693   1.765
77548W        W38859  38.008  17.185  10.501
77549W        W38860  26.518  10.724   3.377
77550W        W38861  29.651  13.635  11.102
77551W        W38862  11.232  27.457  13.464
77552W        W38863  16.221   2.809  10.494
77553W        W38864  11.316  42.808   2.695
77554W        W38865  24.089   0.962   4.706
77555W        W38866  44.425  35.557   0.402
77556W        W38867  43.830  43.769   1.768
77557W        W38868   4.261  15.152  11.416
77558W        W38869  28.096  24.696   2.262
77559W        W38870   9.377  44.829  14.471
77560W        W38871  14.805   6.413   4.142
77561W        W38872   2.344   6.339  11.514
77562W        W38873  30.948  26.521  12.427
77563W        W38874  41.444  18.262   3.667
77564W        W38875  42.415   2.349   0.925
77565W        W38876  42.434  41.374  12.001
77566W        W38877  31.090  26.680  10.957
77567W        W38878  17.253  11.272   0.816
77568W        W38879   6.410   1.766  10.959
77569W        W38880   9.827   8.838   2.675
77570W        W38881  24.044  35.900   5.246
77571W        W38882   0.954  24.493  12.401
77572W        W38883  23.099  11.236  13.488
77573W        W38884  20.164   1.242   3.827
77574W        W38885  31.609  25.986  13.815
77575W        W38886   3.926   6.831  11.381
77576W        W38887  23.060  44.888  10.957
77577W        W38888  20.693  12.721  14.357
77578W        W38889  18.558  38.825   2.335
77579W        W38890  15.675   6.745  13.922
77580W        W38891   2.405  41.339   3.685
77581W        W38892   2.400  31.493   1.368
77582W        W38893   9.165  21.224   4.772
77583W        W38894  37.438  36.974   3.715
77584W        W38895  43.886   2.882  14.030
77585W        W38896  36.965   2.320   3.167
77586W        W38897   3.248  36.532  12.368
77587W        W38898  20.631   7.316  10.518
77588W        W38899  14.150  31.021  14.949
77589W        W38900  44.407   7.310   2.740
77590W        W38901  29.651  38.978  10.436
77591W        W38902  26.570  24.988   3.288
77592W        W38903  25.099  39.028  12.952
77593W        W38904  18.175  22.648   0.255
77594W        W38905  33.116  30.434  11.978
77595W        W38906  14.276  10.781   1.920
77596W        W38907  44.267  16.266  12.504
77597W        W38908  35.484  20.555   3.321
77598W        W38909  40.825  33.563  13.819
77599W        W38910  16.687  29.574  10.495
77600W        W38911  29.072  18.710  12.064
77601W        W38912  18.135   9.644   2.412
77602W        W38913  43.306  18.633  14.810
77603W        W38914  16.587   1.882   3.655
77604W        W38915  17.793   8.774  14.428
77605W        W38916  23.569  14.188   4.818
77606W        W38917  36.021  17.213  12.551
77607W        W38918  28.079   0.361  12.416
77608W        W38919  18.715  19.565   1.739
77609W        W38920  37.505  15.656   4.636
77610W        W38921  44.777  19.618   1.848
77611W        W38922  44.775   3.814  10.506
77612W        W38923  11.695   3.242  10.625
77613W        W38924  22.568  19.149  12.415
77614W        W38925   1.474  14.706  13.806
77615W        W38926  23.578   5.697   4.654
77616W        W38927  13.818   3.423   4.802
77617W        W38928  18.683  16.121   1.768
77618W        W38929  41.490  19.246   3.342
77619W        W38930  42.981  37.473   2.209
77620W        W38931  18.181   7.295   1.273
77621W        W38932  38.970  21.623   1.374
77622W        W38933  23.005   9.295   2.894
77623W        W38934  18.550  30.973   1.356
77624W        W38935  25.483  22.218   1.248
77625W        W38936  18.600  14.821  11.102
77626W        W38937  41.333  37.497  13.427
77627W        W38938  43.483  30.953   0.419
77628W        W38939  35.902  43.793  12.523
77629W        W38940  23.656  35.402   1.854
77630W        W38941   4.699  12.353  11.452
77631W        W38942  41.304  27.064   0.375
77632W        W38943  22.650   0.445   1.933
77633W        W38944   7.386  25.696   2.816
77634W        W38945  15.221  31.498  11.468
77635W        W38946  35.536  41.908  14.953
77636W        W38947  16.160   7.704   3.148
77637W        W38948  39.047   2.406  14.831
77638W        W38949  31.415  42.842   0.253
77639W        W38950  16.566  35.983  10.474
77640W        W38951  26.031   5.893   5.083
77641W        W38952  43.955  16.142   4.703
77642W        W38953  43.006  18.066   3.757
77643W        W38954  28.588  11.214   0.883
77644W        W38955  18.703  43.986  14.009
77645W        W38956   5.880  10.754  14.826
77646W        W38957   1.906  41.868  13.336
77647W        W38958  29.644  34.069  10.482
77648W        W38959  31.596  29.556  13.831
77649W        W38960   9.655  32.099   1.887
77650W        W38961   5.791  15.092   9.467
77651W        W38962  25.586  17.100   5.173
77652W        W38963  19.638  30.470  10.910
77653W        W38964  25.662  25.613  13.413
77654W        W38965  39.341  39.450  12.984
77655W        W38966  30.090  25.517   4.651
77656W        W38967   9.690  32.418   2.340
77657W        W38968   3.890  14.275   3.297
77658W        W38969   3.248  37.835  11.423
77659W        W38970   1.279  24.017  11.089
77660W        W38971  40.972  20.679  10.517
77661W        W38972  40.308  34.582  12.066
77662W        W38973  27.511  25.985   0.843
77663W        W38974  20.698  37.054   3.207
77664W        W38975  30.939  15.799  13.948
77665W        W38976  35.852  33.479   3.845
77666W        W38977   0.917  26.126   2.668
77667W        W38978  43.913  16.175   2.306
77668W        W38979  36.548  11.832   4.620
77669W        W38980  40.524  17.097  13.922
77670W        W38981  37.531  17.167   4.746
77671W        W38982  12.620  11.153   0.451
77672W        W38983   2.959   4.723   9.953
77673W        W38984  31.069  35.568   0.743
77674W        W38985  11.865  24.636   1.892
77675W        W38986  30.573  19.082  14.785
77676W        W38987  37.366  34.524   2.230
77677W        W38988  14.689  29.451   4.602
77678W        W38989  12.240  34.477   2.218
77679W        W38990  17.560  39.960  12.918
77680W        W38991  18.184  12.246  11.972
77681W        W38992  36.012  25.665   1.377
77682W        W38993  22.190   2.870  12.349
77683W        W38994  10.727  39.949  13.871
77684W        W38995   0.325   2.818  11.427
77685W        W38996  43.432  42.956  13.496
77686W        W38997  34.978  38.878  12.038
77687W        W38998   1.348  21.571   4.194
77688W        W38999  22.189  31.570  11.989
77689W        W39000  37.020   0.298  12.001
77690W        W39001   3.389   4.880  14.988
77691W        W39002  29.002  12.751  11.873
77692W        W39003  38.508  12.302  14.882
77693W        W39004  39.882  38.557   0.959
77694W        W39005   1.323  37.550  11.468
77695W        W39006  26.697  36.006  13.450
77696W        W39007  10.372  31.527  13.025
77697W        W39008  12.660  27.546   2.843
77698W        W39009  34.611  36.911  14.865
77699W        W39010  10.273  27.121   2.732
77700W        W39011  43.477  31.911   1.828
77701W        W39012  10.245  44.954   1.329
77702W        W39013  41.404   7.863  12.534
77703W        W39014   1.329  12.318  12.999
77704W        W39015   2.235   5.344   0.919
77705W        W39016   2.325  34.514  12.541
77706W        W39017  13.177   3.286   4.231
77707W        W39018   2.752  29.491  11.556
77708W        W39019   8.308   3.237   4.714
77709W        W39020  25.475  29.641   2.762
77710W        W39021  27.470  22.167  13.499
77711W        W39022   0.750  39.824  14.998
77712W        W39023   8.355  13.179  13.058
77713W        W39024  29.668   1.327  12.452
77714W        W39025  16.692  20.574  14.878
77715W        W39026  11.697  17.619  13.431
77716W        W39027  35.970  15.173  13.457
77717W        W39028   6.219  31.576  13.386
77718W        W39029  28.016  34.488   0.955
77719W        W39030  26.149  25.521  10.938
77720W        W39031  27.540  14.253   4.133
77721W        W39032  23.496  31.007   4.219
77722W        W39033  34.572  29.076   4.733
77723W        W39034  13.221   6.756   3.867
77724W        W39035  33.954  10.713   4.220
77725W        W39036  22.071  17.703  14.356
77726W        W39037  35.580  15.617  14.928
77727W        W39038  39.417  21.693   1.405
77728W        W39039  12.342  32.469   3.706
77729W        W39040  40.858  42.884   0.330
77730W        W39041  33.599  37.068   2.397
77731W        W39042  29.981  30.632  11.563
77732W        W39043  26.651  19.725  13.990
77733W        W39044  15.097  27.164  12.988
77734W        W39045   1.348   2.275  13.930
77735W        W39046  12.836   5.910  14.829
77736W        W39047  40.435  10.148   3.171
77737W        W39048  34.064  23.018  12.344
77738W        W39049   6.782  39.314   4.259
77739W        W39050  15.750  36.975  12.474
77740W        W39051  24.038   9.294  14.911
77741W        W39052  33.607  32.088   0.827
77742W        W39053  25.073   8.365  13.943
77743W        W39054   9.239  18.254   4.606
77744W        W39055   8.192  10.837  13.061
77745W        W39056  36.474  21.060   4.186
77746W        W39057   2.417  24.593   3.728
77747W        W39058  43.350  35.518  13.477
77748W        W39059  42.815  28.442  11.023
77749W        W39060  23.661   1.877  14.377
77750W        W39061  31.526  24.655   3.301
77751W        W39062  35.045  27.959   1.345
77752W        W39063  16.238  34.469   4.184
77753W        W39064  43.438  37.855  13.544
77754W        W39065  24.608  27.465   3.167
77755W        W39066  40.040  13.294   1.219
77756W        W39067   7.688   3.381   4.335
77757W        W39068   6.359  32.925   1.908
77758W        W39069  21.196   6.873   0.895
77759W        W39070  12.277   2.732   1.269
77760W        W39071   5.904  32.119  11.989
77761W        W39072   5.688   3.285  13.369
77762W        W39073  39.331  19.689  10.606
77763W        W39074   8.287  16.245   2.295
77764W        W39075  33.908  22.201   2.356
77765W        W39076  25.995  32.055  11.592
77766W        W39077  12.620   1.775   3.858
77767W        W39078  43.515   9.348  14.451
77768W        W39079  29.986  42.487  13.932
77769W        W39080  41.954  26.120   4.213
77770W        W39081   1.323  17.097   3.318
77771W        W39082  37.381  20.085  13.367
77772W        W39083   3.826   6.315   3.261
77773W        W39084  30.060  36.079  10.917
77774W        W39085  20.580  33.113   2.335
77775W        W39086  31.502  22.619   2.181
77776W        W39087   9.835  21.685  12.511
77777W        W39088  37.426  14.141   2.218
77778W        W39089   5.413   8.866   0.905
77779W        W39090  38.886  34.981   5.274
77780W        W39091  20.689  32.443  13.412
77781W        W39092   3.437  25.082  10.491
77782W        W39093  30.040  13.284  12.955
77783W        W39094  13.661  26.987   1.248
77784W        W39095  38.898  19.760   2.704
77785W        W39096   9.175  23.112  13.401
77786W        W39097  23.497  40.945  10.494
77787W        W39098  39.994  27.611   2.306
77788W        W39099  30.101  39.065   1.331
77789W        W39100   9.794  40.432  14.375
77790W        W39101  32.928  29.658  13.479
77791W        W39102  36.993  40.912  11.946
77792W        W39103  12.800  38.820  10.479
77793W        W39104  22.217  34.916   2.372
77794W        W39105   0.298  10.685  13.991
77795W        W39106   6.802  15.604  10.608
77796W        W39107  36.409   8.707  14.874
77797W        W39108  26.155  34.964   4.118
77798W        W39109  32.026  30.627  14.841
77799W        W39110  35.500  11.682  14.791
77800W        W39111  38.522  28.052   2.812
77801W        W39112  38.991   4.439   4.299
77802W        W39113  23.705  22.141  13.469
77803W        W39114  37.579  40.360  13.910
77804W        W39115  10.762  36.442   1.270
77805W        W39116  29.117  36.923  12.545
77806W        W39117   9.842  29.463  11.465
77807W        W39118  26.490  41.530  11.102
77808W        W39119  25.018  37.563  13.449
77809W        W39120  21.717  15.756   2.250
77810W        W39121  34.435  38.832   5.798
77811W        W39122   2.798   0.783   4.649
77812W        W39123   6.728  16.608   3.203
77813W        W39124  43.391  44.429   1.300
77814W        W39125  32.004   3.297  13.006
77815W        W39126  44.824  24.222   2.801
77816W        W39127  38.969  29.979  12.545
77817W        W39128  31.437  41.382   1.872
77818W        W39129   7.790  13.667  13.421
77819W        W39130  27.584  23.043   1.243
77820W        W39131  34.492  19.595   0.371
77821W        W39132  37.530  40.431   4.354
77822W        W39133  20.526  34.008  10.566
77823W        W39134  25.145  26.679   1.285
77824W        W39135   0.301  22.658   0.398
77825W        W39136  21.048  41.916   9.963
77826W        W39137  42.860  23.166  10.474
77827W        W39138  19.540  43.282   0.304
77828W        W39139  21.536  33.554   2.322
77829W        W39140  35.357  20.032  11.086
77830W        W39141  38.838  37.928  11.384
77831W        W39142  12.258  43.321  12.502
77832W        W39143  43.319  18.599   3.376
77833W        W39144  25.695  30.587   3.844
77834W        W39145  11.765  32.513  12.418
77835W        W39146  43.365  23.123  12.346
77836W        W39147  36.921  34.537   1.350
77837W        W39148  37.020  41.430   1.429
77838W        W39149   5.834   9.731  13.424
77839W        W39150  43.445  42.890  10.630
77840W        W39151   1.282   4.270   2.697
77841W        W39152  23.001  31.481  13.474
77842W        W39153  35.105  16.264   4.598
77843W        W39154   7.777  13.306   2.282
77844W        W39155  18.758  41.989   0.804
77845W        W39156  26.991  32.062  10.996
77846W        W39157   6.722  37.489  14.987
77847W        W39158  30.576   1.372   1.912
77848W        W39159   7.799  12.150  14.280
77849W        W39160  15.752  41.964  11.576
77850W        W39161  23.111  22.567  14.433
77851W        W39162  18.063  44.353  12.361
77852W        W39163  11.780  25.135   3.638
77853W        W39164  37.358  23.040  14.784
77854W        W39165  37.416  37.020   0.257
77855W        W39166  18.121  43.856   4.124
77856W        W39167  26.957  22.102  10.528
77857W        W39168  25.160   8.661  13.964
77858W        W39169  25.040  17.680   2.331
77859W        W39170  44.476   4.915  10.627
77860W        W39171  35.052  40.883  14.479
77861W        W39172  34.610  37.573  14.392
77862W        W39173  13.692  35.454   0.811
77863W        W39174  13.117  34.441  11.906
77864W        W39175  33.004  36.432   3.654
77865W        W39176  10.744  34.922   0.932
77866W        W39177  15.657  28.605   0.284
77867W        W39178   8.191  39.531  14.463
77868W        W39179  16.134  40.026  10.970
77869W        W39180   0.930  10.794   3.198
77870W        W39181  15.140  13.203  14.294
77871W        W39182   4.925  31.141  14.396
77872W        W39183  35.503  32.558   0.889
77873W        W39184  17.189  40.979  14.028
77874W        W39185  36.407  26.702   5.312
77875W        W39186  17.145  28.517  10.565
77876W        W39187  41.469  18.075   2.707
77877W        W39188  25.969  30.478  11.483
77878W        W39189  14.679  26.080  14.398
77879W        W39190  43.477   1.933   1.340
77880W        W39191   9.321  27.958   4.672
77881W        W39192  35.581  26.199  14.512
77882W        W39193   0.485  18.265  14.423
77883W        W39194  33.525  16.655   0.315
77884W        W39195   3.927   6.330   1.809
77885W        W39196  30.526   9.861  10.919
77886W        W39197  19.574   2.322   0.404
77887W        W39198  10.227  18.592   0.302
77888W        W39199  22.228   7.821   2.732
77889W        W39200  19.668  23.693   0.917
77890W        W39201  37.887   2.250  14.834
77891W        W39202   2.330  15.126  12.508
77892W        W39203  37.406  22.583   4.238
77893W        W39204  43.841  20.598  13.059
77894W        W39205  22.706  16.178  12.454
77895W        W39206   6.889  32.047  11.542
77896W        W39207  16.278  15.107  13.941
77897W        W39208  17.078  37.868   0.385
77898W        W39209  32.005  30.451   1.272
77899W        W39210  26.192  34.542   0.910
77900W        W39211  34.596  26.957  13.057
77901W        W39212  35.109  27.118   2.747
77902W        W39213   9.708  29.618   1.758
77903W        W39214   2.425  10.220   3.272
77904W        W39215  32.621  11.132  11.458
77905W        W39216  12.753   7.408  11.477
77906W        W39217  39.888  24.134   1.925
77907W        W39218  34.105  31.052   3.826
77908W        W39219  38.390  25.503   3.250
77909W        W39220  18.716   3.933  14.007
77910W        W39221  35.385  12.268   0.388
77911W        W39222  40.915  12.795   0.743
77912W        W39223  16.777  14.694  13.999
77913W        W39224  18.606  19.045   3.755
77914W        W39225  22.239   2.767   4.635
77915W        W39226  24.100  26.116  13.498
77916W        W39227   4.326  26.594   0.917
77917W        W39228   9.887  22.115  12.868
77918W        W39229   7.808  40.045  10.510
77919W        W39230  27.456   3.409  11.398
77920W        W39231   0.312  31.962   2.783
77921W        W39232   6.317  15.220   2.700
77922W        W39233  37.045  23.188   0.247
77923W        W39234  25.695  33.405  12.833
77924W        W39235  16.146  35.069  14.815
77925W        W39236  30.908  10.349   3.710
77926W        W39237  19.059  35.066  10.901
77927W        W39238  16.653  14.185  12.892
77928W        W39239  39.427  10.800   0.393
77929W        W39240  10.812  10.314  12.937
77930W        W39241   9.250  22.551  10.934
77931W        W39242  41.346   1.258  14.455
77932W        W39243  38.987  20.585   0.318
77933W        W39244  13.779  15.325  11.887
77934W        W39245   3.727  31.405  14.015
77935W        W39246  38.499  21.717  11.531
77936W        W39247  11.690  31.978   0.425
77937W        W39248  21.162  11.188   1.758
77938W        W39249  32.520  16.134   0.947
77939W        W39250  24.642  33.989   3.240
77940W        W39251  22.513  36.445   0.809
77941W        W39252   8.872  14.684   1.710
77942W        W39253  13.119  32.544   4.228
77943W        W39254   2.265  37.536  14.967
77944W        W39255  35.048   0.342  12.978
77945W        W39256   5.222  22.623   1.815
77946W        W39257  14.597   2.290   4.649
77947W        W39258   1.288   4.734  12.095
77948W        W39259  26.586  18.273   2.875
77949W        W39260  37.515  33.560   1.324
77950W        W39261  12.283  11.632  14.291
77951W        W39262  17.259  17.288  10.537
77952W        W39263  37.348   4.734   4.598
77953W        W39264  43.976  35.492  10.521
77954W        W39265   4.244   5.346  10.930
77955W        W39266  26.064   7.417  14.364
77956W        W39267  13.735   1.453   0.345
77957W        W39268  14.286  23.684   3.264
77958W        W39269  28.595   5.270   2.702
77959W        W39270   6.254  35.092   4.742
77960W        W39271  26.532  25.516  11.544
77961W        W39272  39.347  12.737   4.806
77962W        W39273  40.458  35.075  11.868
77963W        W39274  18.248  27.569  11.470
77964W        W39275  14.166  17.646   3.365
77965W        W39276   9.739   3.822   4.826
77966W        W39277  24.144  28.566   2.240
77967W        W39278  40.831  15.803   3.386
77968W        W39279  26.009   2.792  13.381
77969W        W39280  37.579  37.416  11.377
77970W        W39281  13.114   0.369  10.976
77971W        W39282  44.004   9.178  11.012
77972W        W39283  42.503  26.201   1.847
77973W        W39284   1.732   4.320   0.324
77974W        W39285  38.898  20.245   1.725
77975W        W39286  22.513   2.382   3.794
77976W        W39287  40.528  12.694   3.328
77977W        W39288   8.190   5.220  12.893
77978W        W39289  31.990  29.573  13.802
77979W        W39290  41.457  21.188  10.578
77980W        W39291   7.706   6.832   3.333
77981W        W39292  28.077  26.617   3.326
77982W        W39293  23.129  16.795  12.041
77983W        W39294  37.425  34.916   9.943
77984W        W39295  38.930   3.923  12.912
77985W        W39296  38.069   2.863   3.287
77986W        W39297   1.816  34.914   2.867
77987W        W39298  23.492  24.691  14.893
77988W        W39299  44.935   8.217  13.050
77989W        W39300  19.611  21.642  11.531
77990W        W39301  11.829  36.097   5.265
77991W        W39302  13.159   7.848  13.379
77992W        W39303  37.912  23.161  11.992
77993W        W39304  11.306  31.903   2.222
77994W        W39305   3.879  43.403  13.354
77995W        W39306  32.398  39.542   1.766
77996W        W39307  41.333  13.805  10.501
77997W        W39308   7.830   8.900   3.767
77998W        W39309  44.906  14.815  11.913
77999W        W39310   7.320  43.486   0.841
78000W        W39311  25.095  13.732   0.339
78001W        W39312  43.332   4.422   2.344
78002W        W39313  12.279   5.696   9.597
78003W        W39314  24.087  11.680  11.892
78004W        W39315  20.721   9.156   0.290
78005W        W39316  28.126   4.807   3.867
78006W        W39317  15.773  17.599   1.875
78007W        W39318  24.977   0.463   4.821
78008W        W39319  28.056  10.325  12.992
78009W        W39320  10.273  19.188   1.390
78010W        W39321  40.044  40.920   1.828
78011W        W39322  41.895  33.893  11.053
78012W        W39323  33.036  19.691  11.430
78013W        W39324  29.962  42.977   3.365
78014W        W39325  39.982  30.073  10.073
78015W        W39326  36.519   9.805  10.422
78016W        W39327  10.309  33.428   3.173
78017W        W39328  27.635  27.081   3.299
78018W        W39329  29.616  39.487  11.964
78019W        W39330  29.044  27.609  10.421
78020W        W39331  32.475   0.485  10.479
78021W        W39332  37.836  40.956   0.933
78022W        W39333  37.434  38.540   0.435
78023W        W39334  29.094   2.370  10.995
78024W        W39335  26.629  24.223  14.936
78025W        W39336   3.455  38.004  14.773
78026W        W39337  29.600  43.815  12.869
78027W        W39338  26.528  20.131   3.221
78028W        W39339  40.507  30.591  12.403
78029W        W39340  18.577  37.415  11.885
78030W        W39341  18.727  11.146  12.038
78031W        W39342  28.495  41.034   1.711
78032W        W39343  38.471   9.761  10.509
78033W        W39344  26.151  30.998   3.761
78034W        W39345   1.361  12.747  14.411
78035W        W39346  18.774   0.814  12.375
78036W        W39347   6.689   6.236   0.795
78037W        W39348  18.139  12.659  11.521
78038W        W39349  15.122  18.597  11.378
78039W        W39350  22.624   2.465   1.222
78040W        W39351   1.868   4.874   0.871
78041W        W39352   0.803  35.889   4.141
78042W        W39353   3.456  26.203  13.446
78043W        W39354  23.165   0.422   3.368
78044W        W39355  11.690  43.350  12.569
78045W        W39356   4.435  15.819  12.477
78046W        W39357   2.799  10.820  12.525
78047W        W39358  28.941   3.867   4.769
78048W        W39359  40.517   2.358  13.844
78049W        W39360  34.450  36.068  12.353
78050W        W39361  32.496  38.947  14.935
78051W        W39362  26.565  11.207   4.312
78052W        W39363  20.131  39.392   0.845
78053W        W39364  40.908  30.141   0.441
78054W        W39365  41.891   1.418  13.869
78055W        W39366  41.338  20.076  14.490
78056W        W39367   8.704   1.796   2.229
78057W        W39368  33.089   6.374  11.056
78058W        W39369   8.876  30.136  13.884
78059W        W39370  20.671  38.957   2.211
78060W        W39371  42.308   1.844  13.997
78061W        W39372  13.294  23.025   4.189
78062W        W39373  22.235   5.249   0.293
78063W        W39374   3.866  14.228  14.300
78064W        W39375  21.230  13.271   5.255
78065W        W39376  43.795  35.877  13.970
78066W        W39377  26.069   1.977  12.024
78067W        W39378   5.742  12.155  11.047
78068W        W39379  23.527  34.978   0.375
78069W        W39380  26.144  38.048   0.328
78070W        W39381  10.216  35.950  14.423
78071W        W39382   5.693  32.040   1.876
78072W        W39383  29.455  15.113  10.503
78073W        W39384   5.794  17.608   3.825
78074W        W39385   7.855  25.590  10.908
78075W        W39386  13.135  21.512  10.630
78076W        W39387  39.529  19.219  14.345
78077W        W39388  15.726  21.031  10.950
78078W        W39389  22.084  12.271   1.232
78079W        W39390  19.194   2.747  14.783
78080W        W39391  25.557  23.165   3.360
78081W        W39392  39.945  20.734  14.420
78082W        W39393  34.026  19.167  11.892
78083W        W39394  14.671  16.573  14.325
78084W        W39395  39.553  22.623   0.411
78085W        W39396  19.682  26.632  11.869
78086W        W39397  39.898  41.411  11.571
78087W        W39398  16.623  20.223   3.217
78088W        W39399  14.778  12.220   3.817
78089W        W39400  11.736  22.126   9.966
78090W        W39401  33.904  41.361   5.246
78091W        W39402  43.310  32.572  12.466
78092W        W39403  32.075  43.994  11.865
78093W        W39404   2.355  23.228   0.796
78094W        W39405   1.922  37.036   3.213
78095W        W39406   8.340  23.643   2.289
78096W        W39407  21.260  12.716  10.147
78097W        W39408  14.100  38.042  12.565
78098W        W39409  44.826  23.600  11.597
78099W        W39410  14.776  28.490  13.336
78100W        W39411  14.171  11.651  10.479
78101W        W39412  24.639  22.560   5.242
78102W        W39413   9.250  10.674   1.910
78103W        W39414   7.240   7.171  11.441
78104W        W39415  11.649   8.200  10.549
78105W        W39416  15.179  33.971   1.920
78106W        W39417  18.703  15.088  14.940
78107W        W39418  40.031  36.374   4.331
78108W        W39419   3.259  36.961   2.697
78109W        W39420  20.235  31.015   2.797
78110W        W39421  24.986  43.424   0.892
78111W        W39422  23.520  39.018  11.381
78112W        W39423  24.691  18.577   0.272
78113W        W39424  40.047  17.173  13.852
78114W        W39425  24.984   1.938   4.226
78115W        W39426  28.609  26.528   4.250
78116W        W39427  44.296  10.153   2.765
78117W        W39428  37.839  22.053  14.800
78118W        W39429  39.463   3.746   2.378
78119W        W39430   3.769  40.939   2.670
78120W        W39431  20.170  38.442   5.133
78121W        W39432  35.016  20.224  11.023
78122W        W39433   4.701   7.791  12.093
78123W        W39434   2.393   5.856  11.965
78124W        W39435  34.523  19.776   1.817
78125W        W39436  38.028  34.591   5.182
78126W        W39437  19.235  41.338   2.252
78127W        W39438  20.736  12.724   2.418
78128W        W39439  27.040  15.234   0.825
78129W        W39440   6.723  32.609   4.729
78130W        W39441  20.662  18.695  13.454
78131W        W39442  42.476  18.612  14.454
78132W        W39443  34.451  30.979   5.095
78133W        W39444   2.233  28.517  11.478
78134W        W39445  42.522  39.869  10.562
78135W        W39446  38.371  18.723  10.426
78136W        W39447  32.490  40.445   2.706
78137W        W39448  17.647  15.151   1.278
78138W        W39449  35.953  29.487   5.258
78139W        W39450  19.197  29.050   1.888
78140W        W39451  37.946  31.643  11.887
78141W        W39452  34.114  23.202  13.310
78142W        W39453  29.439  37.025  11.952
78143W        W39454  36.974  29.132  13.515
78144W        W39455  36.002  33.397   4.802
78145W        W39456  29.472  30.916  14.898
78146W        W39457  38.459  14.104   1.724
78147W        W39458  15.703   5.871  12.843
78148W        W39459  14.740  32.086  12.445
78149W        W39460  12.679  25.998  14.011
78150W        W39461  31.462  20.040  14.885
78151W        W39462  25.525  15.795  13.985
78152W        W39463  28.673   3.875   0.868
78153W        W39464  38.830   2.324  13.981
78154W        W39465  41.379  29.137   4.202
78155W        W39466  20.624  37.514   2.397
78156W        W39467  37.994  11.653  11.412
78157W        W39468  40.832   3.947   1.264
78158W        W39469  37.914  10.744   0.285
78159W        W39470  23.184  27.172  11.604
78160W        W39471  43.315  20.041  11.029
78161W        W39472  22.512  38.926  11.602
78162W        W39473  13.191  22.639  12.847
78163W        W39474  36.593  16.079  14.350
78164W        W39475  27.651  13.808  10.604
78165W        W39476  19.645  10.313  11.947
78166W        W39477  38.370  34.011   0.331
78167W        W39478  37.378   2.306  13.819
78168W        W39479   3.819  31.975   4.165
78169W        W39480  12.668  33.927   2.809
78170W        W39481   5.222  42.899  12.361
78171W        W39482  41.937  30.912  14.841
78172W        W39483  30.501  34.409  11.949
78173W        W39484  23.698  26.063  11.566
78174W        W39485  15.781  25.488   3.718
78175W        W39486   3.820   3.273  14.946
78176W        W39487   8.217  30.117   3.239
78177W        W39488  44.345   8.705  12.571
78178W        W39489  25.102  30.148   2.243
78179W        W39490  37.412  30.141  14.396
78180W        W39491  23.710  27.020  13.039
78181W        W39492  36.481  12.767   1.417
78182W        W39493  26.531  34.992  14.804
78183W        W39494   2.319  15.684  13.423
78184W        W39495  17.066  43.318  14.410
78185W        W39496  22.642  43.906  13.859
78186W        W39497   4.848  14.695   0.452
78187W        W39498  11.251   3.426  12.941
78188W        W39499  16.083  28.992   0.358
78189W        W39500  22.579   5.831  10.930
78190W        W39501  22.710  44.415  10.158
78191W        W39502  11.822  36.859  14.352
78192W        W39503  13.123  11.373  12.012
78193W        W39504  42.320  19.190  12.398
78194W        W39505  39.317  33.006  13.911
78195W        W39506  26.511  38.430  14.899
78196W        W39507   2.326  19.249   0.817
78197W        W39508  41.484  19.053  11.928
78198W        W39509   7.365  25.637   0.388
78199W        W39510  41.347  39.411   1.759
78200W        W39511  29.603  24.554  11.970
78201W        W39512  21.725  22.089   1.768
78202W        W39513   1.274  13.607   4.166
78203W        W39514  42.432  20.672  12.440
78204W        W39515  15.699  38.893   1.429
78205W        W39516  27.477  26.119   2.680
78206W        W39517  38.860  43.500  10.547
78207W        W39518  36.513  21.559  11.886
78208W        W39519   0.936   8.696   2.847
78209W        W39520  15.767  34.528   2.776
78210W        W39521   6.827  30.117  11.541
78211W        W39522  23.723  21.523  11.893
78212W        W39523  39.950  21.078  13.364
78213W        W39524  40.870   0.351  13.841
78214W        W39525   2.731  13.811   0.477
78215W        W39526  40.409  36.900   4.192
78216W        W39527  42.956   7.720  11.932
78217W        W39528  37.995  33.057  12.426
78218W        W39529  38.533  25.638   1.823
78219W        W39530  31.005   5.216   0.446
78220W        W39531  23.573  34.110  12.983
78221W        W39532  32.115   4.237   4.132
78222W        W39533  34.572  12.289   1.407
78223W        W39534   6.895  28.055  10.435
78224W        W39535   0.431  42.949  13.024
78225W        W39536  27.616  36.861   3.348
78226W        W39537  43.945  37.526   0.944
78227W        W39538  23.584  29.081  10.470
78228W        W39539  40.046  19.245   1.927
78229W        W39540  40.383  10.677   1.791
78230W        W39541  36.004  16.303   0.243
78231W        W39542  24.017  26.034  10.922
78232W        W39543  28.155  21.038  10.122
78233W        W39544  27.957  32.477  14.492
78234W        W39545   3.852  26.662  12.464
78235W        W39546  27.456  13.668   4.310
78236W        W39547  34.481   2.947  12.084
78237W        W39548  25.985   4.919  11.858
78238W        W39549  16.663  44.006  12.429
78239W        W39550  39.432  39.860   9.995
78240W        W39551  11.266  35.435   2.713
78241W        W39552  23.574  23.139  13.864
78242W        W39553  21.606  22.117  14.886
78243W        W39554  24.140  44.788   0.395
78244W        W39555  26.018   9.827  11.492
78245W        W39556  39.515  28.652  10.425
78246W        W39557  39.020  15.199  14.328
78247W        W39558  25.061  25.625   0.822
78248W        W39559  12.614  20.577   1.886
78249W        W39560  18.263  12.167   0.412
78250W        W39561  41.806   0.339   0.946
78251W        W39562  43.497  13.669   0.730
78252W        W39563  22.543  26.595  13.892
78253W        W39564   4.788  30.021  10.516
78254W        W39565  18.610   4.853  14.479
78255W        W39566   6.211  38.956   3.772
78256W        W39567  17.631  40.454  12.540
78257W        W39568  17.728  42.811  13.359
78258W        W39569  23.190  28.618  11.967
78259W        W39570  38.556  15.663  12.054
78260W        W39571   8.377  40.503  10.410
78261W        W39572  21.220  16.697  14.371
78262W        W39573  41.372   9.237   1.263
78263W        W39574   3.881   5.868  12.553
78264W        W39575  30.018  27.983   3.263
78265W        W39576  29.949   0.256  11.373
78266W        W39577  18.208  32.120   9.972
78267W        W39578  15.728  13.169   3.829
78268W        W39579   1.363   3.716   2.347
78269W        W39580  28.939  44.859  11.129
78270W        W39581   5.754  21.540  12.910
78271W        W39582  36.894   0.483   3.325
78272W        W39583  27.517   4.820   2.293
78273W        W39584   3.283  30.519  12.364
78274W        W39585  29.504  20.765   2.276
78275W        W39586  42.792  41.394  12.001
78276W        W39587   0.381  28.549  11.862
78277W        W39588   4.848  42.972  13.976
78278W        W39589   2.763   9.367  13.027
78279W        W39590  23.050  41.330   2.304
78280W        W39591  11.140   2.833  12.562
78281W        W39592  11.733   8.228  14.965
78282W        W39593  16.316  28.128  10.961
78283W        W39594  29.027  26.692   4.137
78284W        W39595  15.590  41.326   0.365
78285W        W39596   4.397  30.021   4.832
78286W        W39597  31.519  33.045  12.505
78287W        W39598  19.167   7.250   0.960
78288W        W39599   7.385  20.691   2.238
78289W        W39600   7.907   3.948  14.032
78290W        W39601  10.746  13.629   0.751
78291W        W39602  26.511  34.582  13.465
78292W        W39603  42.340  34.481  11.049
78293W        W39604   2.934  14.107   0.767
78294W        W39605  14.295  42.439  12.469
78295W        W39606  30.142   1.907   2.259
78296W        W39607   9.724  38.994   0.378
78297W        W39608  22.217  25.002  12.870
78298W        W39609  37.361  18.750   2.181
78299W        W39610  17.756  34.016  13.962
78300W        W39611   6.773  13.634  13.948
78301W        W39612  31.544  39.557   2.301
78302W        W39613  27.996   3.311  11.382
78303W        W39614  18.617  11.635   4.266
78304W        W39615  16.205  33.520  13.485
78305W        W39616   0.758  42.431  11.867
78306W        W39617  25.215   1.470  12.543
78307W        W39618  24.503   3.871  11.509
78308W        W39619   8.775  25.060   2.278
78309W        W39620   9.729  40.379   3.229
78310W        W39621   8.165  13.674  14.951
78311W        W39622   9.765  29.543  13.804
78312W        W39623  39.455  15.703  13.437
78313W        W39624  11.663   1.858   2.675
78314W        W39625  14.276   2.434   5.273
78315W        W39626  43.792  34.104  10.597
78316W        W39627   2.302  28.563   2.862
78317W        W39628  44.412  20.609   3.197
78318W        W39629  11.782  18.094  11.425
78319W        W39630  26.958  21.045  11.098
78320W        W39631  26.979   3.941   2.886
78321W        W39632  15.599  11.788   2.748
78322W        W39633  25.965  19.150   2.732
78323W        W39634  11.321  14.339   4.166
78324W        W39635   9.690   9.691   4.184
78325W        W39636  20.170   6.685  11.972
78326W        W39637  44.917   7.346   2.775
78327W        W39638  26.014  37.909   4.640
78328W        W39639  21.591  23.597  11.099
78329W        W39640   9.679  24.542   0.766
78330W        W39641  22.192  14.162  11.506
78331W        W39642  13.285  27.043  14.406
78332W        W39643  15.315   9.167  11.953
78333W        W39644   1.263  18.230  13.337
78334W        W39645  30.441  37.863   1.246
78335W        W39646  34.904   9.219   3.208
78336W        W39647  30.909   9.387   0.746
78337W        W39648  18.232  44.923  11.560
78338W        W39649   6.677   9.730   2.256
78339W        W39650  38.023  25.160   4.622
78340W        W39651  28.988  20.189  14.819
78341W        W39652  15.324  13.309   0.410
78342W        W39653  13.233  28.945  13.481
78343W        W39654  25.701  34.492   1.903
78344W        W39655  26.538   5.811   9.589
78345W        W39656   2.360  30.077   0.954
78346W        W39657  22.695  29.644  14.028
78347W        W39658  37.511   5.325   1.861
78348W        W39659  23.218  16.638   0.916
78349W        W39660  36.967  27.552  11.866
78350W        W39661   8.757  30.118  13.002
78351W        W39662  41.009  41.990   1.372
78352W        W39663  44.880  41.954   0.919
78353W        W39664  12.245   9.288   1.812
78354W        W39665   2.727   5.734  12.058
78355W        W39666  40.498  13.255   3.357
78356W        W39667   5.758  14.610  11.067
78357W        W39668  32.100  26.631  13.044
78358W        W39669   2.799  26.093  12.541
78359W        W39670  10.339   1.901   3.309
78360W        W39671  36.495  28.151  12.014
78361W        W39672   8.876  37.962  12.455
78362W        W39673   1.381  11.786   2.190
78363W        W39674  18.643   8.891  12.096
78364W        W39675   3.727   8.174  12.340
78365W        W39676  19.127   1.475  10.990
78366W        W39677  35.434   0.963   3.746
78367W        W39678  17.637   0.872   3.169
78368W        W39679  23.146  10.360   1.289
78369W        W39680  40.008  31.919   5.165
78370W        W39681  36.383  24.545   0.399
78371W        W39682  21.658  33.046   3.869
78372W        W39683  12.284  42.851   0.944
78373W        W39684  31.466  21.520   2.837
78374W        W39685  38.403  40.549  14.467
78375W        W39686  29.098  19.760  14.372
78376W        W39687  42.467  19.688  14.988
78377W        W39688  20.126  40.033  11.597
78378W        W39689  39.424  41.517   2.383
78379W        W39690  12.181   7.258  13.325
78380W        W39691  32.027   1.388  11.939
78381W        W39692  39.946   7.872   1.728
78382W        W39693  43.452  20.740  14.905
78383W        W39694  34.554   9.765  12.071
78384W        W39695  14.760  13.212  13.319
78385W        W39696  30.522  41.829   1.268
78386W        W39697  16.732  34.555   2.672
78387W        W39698   2.285  35.949  10.105
78388W        W39699  36.535  43.449   0.940
78389W        W39700  35.947  10.793   3.735
78390W        W39701  34.971   5.396  14.917
78391W        W39702  15.664   2.776  10.592
78392W        W39703  36.071  26.035  13.909
78393W        W39704  43.944  30.447   4.775
78394W        W39705   7.871  11.862  11.542
78395W        W39706  35.596  27.087  11.528
78396W        W39707  32.140   4.303   2.713
78397W        W39708  19.637  18.785   2.300
78398W        W39709   8.889  12.335  12.029
78399W        W39710   9.269  20.611  12.449
78400W        W39711  20.213   1.881   1.712
78401W        W39712   7.882   8.231  11.866
78402W        W39713  32.065   5.859  10.086
78403W        W39714  14.165  43.427  11.080
78404W        W39715  18.261  41.939  11.967
78405W        W39716  21.755   8.814   4.158
78406W        W39717  32.137  25.598  11.064
78407W        W39718   1.434  35.988  11.608
78408W        W39719  31.053  42.360  12.410
78409W        W39720  40.401  24.718  14.316
78410W        W39721  33.938  12.791  14.469
78411W        W39722  10.823  19.604  14.321
78412W        W39723  21.120   5.278  12.396
78413W        W39724   3.781   6.211   0.746
78414W        W39725  26.101  30.533  13.401
78415W        W39726   8.308   4.219  12.522
78416W        W39727  30.443  24.574  13.801
78417W        W39728  41.876  16.619   3.170
78418W        W39729  41.370  13.304  11.401
78419W        W39730  24.194  22.091  10.485
78420W        W39731  26.003   9.362  12.401
78421W        W39732  43.489  20.076  12.089
78422W        W39733  10.149  28.628  10.924
78423W        W39734  43.002  44.348   4.341
78424W        W39735  37.370  42.412   1.426
78425W        W39736   4.375   8.831  13.969
78426W        W39737  25.973  43.849   2.397
78427W        W39738  42.367  22.220  12.379
78428W        W39739   0.270  23.680  14.400
78429W        W39740   0.310  18.099   4.824
78430W        W39741   0.903  27.999  13.401
78431W        W39742   6.745  32.406   0.413
78432W        W39743  11.177  19.082  11.451
78433W        W39744  31.480  33.971   3.368
78434W        W39745  15.796  26.530  10.625
78435W        W39746  32.594  42.498   3.353
78436W        W39747  39.427  10.803  10.484
78437W        W39748   9.364  13.162   1.315
78438W        W39749  43.833  43.410   1.333
78439W        W39750   6.738   9.340   4.245
78440W        W39751   7.895  36.905   4.718
78441W        W39752  27.118  18.604   2.782
78442W        W39753   5.210  12.343   0.245
78443W        W39754   5.267  36.010  14.474
78444W        W39755  10.707   3.284   2.349
78445W        W39756  21.605   0.941  10.131
78446W        W39757  39.898  26.576  10.489
78447W        W39758   6.793  23.116  14.890
78448W        W39759  32.569  40.338  14.820
78449W        W39760  30.084   6.218  12.422
78450W        W39761  26.081  40.046   1.752
78451W        W39762  20.251  32.946  14.832
78452W        W39763  44.760  12.361  10.953
78453W        W39764   6.311   7.240  12.058
78454W        W39765   4.217  34.393  14.896
78455W        W39766  36.902  34.075  14.819
78456W        W39767  36.861  18.127   2.358
78457W        W39768  40.835  21.560   3.364
78458W        W39769  16.297  34.522  13.843
78459W        W39770  41.923  27.692  14.922
78460W        W39771  37.419  44.998  11.022
78461W        W39772   6.802  41.376  11.436
78462W        W39773  27.080  18.208  14.800
78463W        W39774  31.543  12.771   1.394
78464W        W39775   4.436  21.032   4.182
78465W        W39776  30.576  32.057   0.767
78466W        W39777   3.253  18.668   0.820
78467W        W39778  22.513  31.423   2.680
78468W        W39779  35.527  23.558  12.422
78469W        W39780  37.461  33.518  10.148
78470W        W39781  23.036   0.435  13.814
78471W        W39782  22.524  38.966   0.297
78472W        W39783   5.751  40.403   3.243
78473W        W39784   5.352  32.115  10.526
78474W        W39785  23.703  12.270  14.989
78475W        W39786  13.305  21.253  12.846
78476W        W39787  20.738  40.844   4.229
78477W        W39788   9.866  24.712   3.157
78478W        W39789  32.507  18.109  13.942
78479W        W39790  28.609  30.449  12.898
78480W        W39791   1.320   4.765   2.283
78481W        W39792  42.032  21.238  10.443
78482W        W39793   7.416  37.993   0.781
78483W        W39794  35.461  26.996  12.411
78484W        W39795  17.068  27.538  12.078
78485W        W39796  38.362  13.844  12.535
78486W        W39797  15.186   1.476   4.802
78487W        W39798   4.221  14.788   1.863
78488W        W39799  40.914  35.883  10.918
78489W        W39800  30.937   4.420   4.234
78490W        W39801  41.848   5.359   0.922
78491W        W39802  31.940  40.887   4.762
78492W        W39803  43.301   4.824   4.241
78493W        W39804  17.800  33.554   4.343
78494W        W39805  24.117  41.316  13.928
78495W        W39806  44.305   7.742  11.452
78496W        W39807  15.787  10.832  12.045
78497W        W39808  38.564  27.020  11.982
78498W        W39809  14.190  29.972  11.958
78499W        W39810  34.372  15.716  12.489
78500W        W39811  33.504   7.399  11.459
78501W        W39812  15.608  10.640   3.646
78502W        W39813  11.182  39.850  11.902
78503W        W39814  26.164   6.320   2.194
78504W        W39815   3.726   9.676   2.805
78505W        W39816  24.997  34.377   2.419
78506W        W39817  42.946  16.706  10.962
78507W        W39818  25.042   9.274  10.456
78508W        W39819   6.757  30.082  13.957
78509W        W39820  33.390  10.203  13.405
78510W        W39821  28.448   7.720  13.413
78511W        W39822  41.401  13.268  13.031
78512W        W39823   2.776   7.708  12.944
78513W        W39824  12.792  21.027  13.054
78514W        W39825  25.514  44.861  13.362
78515W        W39826  19.048  38.852   0.804
78516W        W39827   8.287  11.804   0.392
78517W        W39828  40.835   1.870  14.796
78518W        W39829   1.806   4.336   4.146
78519W        W39830  36.421  28.962  11.096
78520W        W39831  37.888   0.321  14.968
78521W        W39832   9.314  17.635   4.812
78522W        W39833  17.664   1.785   1.340
78523W        W39834  44.917  43.794  13.971
78524W        W39835  39.445   6.258  12.972
78525W        W39836  16.784  10.293   1.780
78526W        W39837   9.845  22.733   4.343
78527W        W39838  33.898  28.147  14.360
78528W        W39839  32.610  20.658   1.282
78529W        W39840  18.112  13.719  14.309
78530W        W39841  38.878  40.855  11.107
78531W        W39842   3.763   7.794  14.914
78532W        W39843  42.838  14.802   2.267
78533W        W39844  11.256  39.332   4.255
78534W        W39845  37.944  44.953   2.667
78535W        W39846   5.394  26.571  12.016
78536W        W39847  27.128  33.911  14.357
78537W        W39848   7.200  38.329  12.029
78538W        W39849   5.396  26.970   3.643
78539W        W39850  12.206  35.033   1.791
78540W        W39851  29.555  22.197   2.825
78541W        W39852  38.439   6.188   1.696
78542W        W39853   3.904  24.558  13.429
78543W        W39854  37.079  19.258   0.887
78544W        W39855  38.421  14.192  11.042
78545W        W39856   7.831  42.895  14.843
78546W        W39857  31.150  44.430  13.429
78547W        W39858  28.656  44.432  14.292
78548W        W39859  24.720  18.277  13.544
78549W        W39860  42.388   2.765  10.507
78550W        W39861  19.212   9.755  13.935
78551W        W39862   4.737  32.061  13.547
78552W        W39863  33.461  30.948   0.893
78553W        W39864  23.659  13.822  13.936
78554W        W39865  17.105   6.236   2.899
78555W        W39866  24.696   1.775  10.436
78556W        W39867  21.063   3.750  14.930
78557W        W39868  18.155   6.877   4.809
78558W        W39869  16.256  20.626  11.985
78559W        W39870  29.096  31.047   0.829
78560W        W39871  20.587  35.510  10.902
78561W        W39872  18.161  43.900  11.873
78562W        W39873   3.261  30.560   4.826
78563W        W39874  24.684   5.784   2.849
78564W        W39875  10.750  13.223  11.469
78565W        W39876  21.678   1.438   0.402
78566W        W39877  36.571   2.404  12.096
78567W        W39878  14.218  26.468  10.408
78568W        W39879   4.212   5.743  14.788
78569W        W39880  43.811  12.855   1.227
78570W        W39881  18.054   4.347   3.762
78571W        W39882  26.951   5.701  11.520
78572W        W39883  38.365  21.047   1.225
78573W        W39884  29.061  11.238  13.415
78574W        W39885   9.289  19.720   2.710
78575W        W39886   6.304  44.935  14.447
78576W        W39887   5.705  34.909  12.376
78577W        W39888  31.585  40.342   0.872
78578W        W39889  28.477  25.187  11.449
78579W        W39890   8.671  16.652   9.535
78580W        W39891  34.880  29.438  14.011
78581W        W39892  29.146  21.183  12.398
78582W        W39893  14.256  41.413  11.381
78583W        W39894   5.335  38.974  14.474
78584W        W39895   1.943  30.076   3.316
78585W        W39896   1.360   4.893   0.890
78586W        W39897  37.898  43.291   4.126
78587W        W39898  25.675   7.314  13.520
78588W        W39899  40.425  40.475  14.378
78589W        W39900   0.380  44.005  14.910
78590W        W39901  36.892   0.466   1.821
78591W        W39902  36.432   7.810   4.803
78592W        W39903  30.627   2.273   3.198
78593W        W39904  19.665  25.654   0.913
78594W        W39905   7.222  17.600   2.228
78595W        W39906  36.347  19.673   2.339
78596W        W39907  31.940   9.808  11.522
78597W        W39908  12.777   8.796  10.528
78598W        W39909  31.914  35.019   3.778
78599W        W39910  39.837  22.579  12.468
78600W        W39911  13.740  10.279  13.426
78601W        W39912   0.353   5.896   2.868
78602W        W39913   1.307   9.297   3.365
78603W        W39914   9.264  21.522   1.791
78604W        W39915   8.186  25.208  13.420
78605W        W39916  16.211  21.580  11.041
78606W        W39917  27.150  29.042  14.775
78607W        W39918  40.478  30.427  10.934
78608W        W39919  39.883  33.097  13.519
78609W        W39920  34.016  30.607  11.872
78610W        W39921  11.631  35.421  10.905
78611W        W39922   1.808  30.082   4.232
78612W        W39923  16.801  19.271  10.537
78613W        W39924  25.511   1.880   0.309
78614W        W39925   7.780  36.521  12.096
78615W        W39926  28.010   2.383  14.850
78616W        W39927  28.638  19.193   1.385
78617W        W39928   6.189  40.379  14.937
78618W        W39929  38.962  14.668  10.603
78619W        W39930  19.752  24.697   1.404
78620W        W39931  11.325  15.674   2.894
78621W        W39932  17.233  17.171   3.866
78622W        W39933  19.672  41.925  12.501
78623W        W39934  27.639  26.683   4.644
78624W        W39935   6.701  31.127  12.447
78625W        W39936  21.752   9.887   2.892
78626W        W39937  27.071  41.005  11.549
78627W        W39938   2.338   3.844  11.117
78628W        W39939  23.535  21.056  11.423
78629W        W39940   2.845   7.682   0.472
78630W        W39941  22.578  11.310   0.846
78631W        W39942  11.634   6.699  11.891
78632W        W39943   3.865   2.281  12.559
78633W        W39944  20.560  36.404  12.091
78634W        W39945  25.532  21.212   2.869
78635W        W39946  23.058  16.573  13.810
78636W        W39947   4.280   9.196   4.269
78637W        W39948   6.205  39.977  13.924
78638W        W39949  30.538   7.350   2.763
78639W        W39950  17.608  35.370   0.403
78640W        W39951  10.217  36.891   4.687
78641W        W39952  33.121  38.920   1.231
78642W        W39953  11.797  18.061  10.587
78643W        W39954   3.861  12.786   4.678
78644W        W39955  44.417  20.617   4.123
78645W        W39956  38.943  43.949  10.112
78646W        W39957   0.893  25.666   2.847
78647W        W39958   6.716  35.110   3.308
78648W        W39959   7.805  44.801   3.787
78649W        W39960   4.290  38.048   0.349
78650W        W39961  36.023   3.245   0.413
78651W        W39962   8.835   3.412   2.336
78652W        W39963   3.733  17.702   4.210
78653W        W39964   7.738  17.240   9.539
78654W        W39965  42.488   0.787  14.780
78655W        W39966  13.821   7.826  13.450
78656W        W39967  19.643  21.110  10.495
78657W        W39968  44.882  20.659   1.266
78658W        W39969  25.094   3.946  12.018
78659W        W39970  23.214   6.395  14.286
78660W        W39971  35.452   8.861   4.256
78661W        W39972  17.636  24.978   5.298
78662W        W39973   1.449  10.266  13.907
78663W        W39974  17.725  18.621   0.409
78664W        W39975  41.842  10.781  11.871
78665W        W39976  23.081   1.288   4.344
78666W        W39977  35.528  39.877   3.343
78667W        W39978  25.215   4.260  14.370
78668W        W39979  21.033   0.818   4.170
78669W        W39980  20.089  15.257   1.245
78670W        W39981  20.083   7.709  13.461
78671W        W39982  30.159  43.326  12.569
78672W        W39983  33.509   8.749  13.539
78673W        W39984  23.206  17.187  12.973
78674W        W39985  10.303  27.689  10.037
78675W        W39986  31.430  24.621   4.598
78676W        W39987  21.054  19.074  11.080
78677W        W39988  39.442  26.001  14.497
78678W        W39989  31.955  37.979  12.525
78679W        W39990  33.390   5.398  14.907
78680W        W39991  21.186  29.050  12.464
78681W        W39992   5.863   0.316   4.664
78682W        W39993   5.781  11.213   1.269
78683W        W39994   3.710  22.034  12.057
78684W        W39995   2.731  39.838   1.247
78685W        W39996  15.175   0.765  12.912
78686W        W39997  34.614  28.550  13.450
78687W        W39998  19.745  20.145  14.316
78688W        W39999   1.758  19.741   2.800
78689W        W40000  24.633  38.517   2.887
78690W        W40001  11.134  29.926   4.658
78691W        W40002  17.560  43.371   1.737
78692W        W40003  42.870  28.648  11.483
78693W        W40004  23.128  37.361   2.768
78694W        W40005  15.784  44.853   1.267
78695W        W40006  18.245  36.029   1.840
78696W        W40007  23.703  13.170   3.348
78697W        W40008  26.176  23.489   2.766
78698W        W40009  18.602   2.456   4.277
78699W        W40010  12.621  13.751  10.484
78700W        W40011  43.430  12.345  14.973
78701W        W40012  23.555  37.558  13.984
78702W        W40013  44.260  21.533   3.796
78703W        W40014  10.652   1.842  10.563
78704W        W40015  30.462  34.557   3.381
78705W        W40016   0.954   1.870   3.868
78706W        W40017  10.148  25.202  12.955
78707W        W40018  18.659   3.390   9.954
78708W        W40019  36.994   6.234  13.043
78709W        W40020  22.225  38.372  13.790
78710W        W40021   7.336   0.977  10.927
78711W        W40022  34.553  23.212   2.358
78712W        W40023   5.406  26.539  12.905
78713W        W40024   5.313   3.408   0.908
78714W        W40025  37.429   6.872  13.052
78715W        W40026  19.662  29.092   1.429
78716W        W40027  41.003  14.189   4.167
78717W        W40028   5.332   9.756  11.957
78718W        W40029   6.865  15.671   3.182
78719W        W40030  20.693  40.818  12.953
78720W        W40031  15.712  12.750   2.766
78721W        W40032   9.283   2.860   1.830
78722W        W40033   7.200   0.366   4.795
78723W        W40034   6.689  24.659  10.410
78724W        W40035  27.452  26.516   1.869
78725W        W40036  13.643  27.153  10.994
78726W        W40037  30.913   3.804   4.235
78727W        W40038  26.619  44.951  10.625
78728W        W40039  41.501  21.130   0.733
78729W        W40040  32.043  39.499   0.299
78730W        W40041  32.985  34.598  12.527
78731W        W40042   6.750  41.333  12.507
78732W        W40043  13.644  42.319  11.518
78733W        W40044  17.070  39.991  11.943
78734W        W40045  17.267  13.125   2.270
78735W        W40046  26.472  42.524  12.878
78736W        W40047   0.870  19.123   4.681
78737W        W40048  10.199   4.345   4.759
78738W        W40049  16.310  23.616   9.554
78739W        W40050  19.187  39.954   5.700
78740W        W40051  25.589   8.690   4.204
78741W        W40052  22.563  29.619   2.822
78742W        W40053  44.758  27.142  11.093
78743W        W40054   3.752  31.469   1.729
78744W        W40055   8.334   5.402   4.243
78745W        W40056  42.419  31.953   4.737
78746W        W40057  19.652   0.777  14.451
78747W        W40058  44.868  16.279   2.276
78748W        W40059  44.450  29.640  13.475
78749W        W40060  35.025  19.693   4.620
78750W        W40061  19.670  12.335   0.355
78751W        W40062  42.031   4.885   2.805
78752W        W40063  12.680  13.350  12.547
78753W        W40064  17.690  24.206   3.335
78754W        W40065  27.015  22.028   3.779
78755W        W40066  32.580  17.604   3.833
78756W        W40067   8.791  16.617  14.486
78757W        W40068  23.690  28.468   0.263
78758W        W40069  28.996   4.218  14.514
78759W        W40070   8.895  12.336   1.813
78760W        W40071   2.891  32.546  12.834
78761W        W40072  31.575  22.154  13.964
78762W        W40073  10.348  11.181   2.693
78763W        W40074  20.186  15.694   2.784
78764W        W40075  21.068  27.150  11.567
78765W        W40076  28.977  34.445   0.309
78766W        W40077  31.939   2.857  10.407
78767W        W40078  34.475  11.217   4.685
78768W        W40079  37.579  31.128  13.380
78769W        W40080  19.171  26.201  11.523
78770W        W40081  26.504  30.640   0.787
78771W        W40082  35.983  30.999   3.190
78772W        W40083  22.097  30.078  12.496
78773W        W40084  14.154  30.132  11.077
78774W        W40085   5.898  27.986  11.467
78775W        W40086  19.688  40.362   2.774
78776W        W40087  44.950  38.477  10.418
78777W        W40088  12.801  26.699   2.399
78778W        W40089  15.199  41.950   1.874
78779W        W40090  36.484  12.133   0.726
78780W        W40091  18.211   0.919  13.370
78781W        W40092  25.122   6.193  10.944
78782W        W40093  13.636  15.669  12.516
78783W        W40094  43.949  14.189  12.090
78784W        W40095  44.420   8.280   2.179
78785W        W40096  40.048  30.934   1.852
78786W        W40097  40.418  23.525   0.907
78787W        W40098  37.520  11.694   1.721
78788W        W40099  28.953  30.620   3.738
78789W        W40100  12.212  25.168  14.762
78790W        W40101   2.896  32.442  12.375
78791W        W40102  44.287  34.456  10.519
78792W        W40103  35.505   3.713  11.019
78793W        W40104   7.408   6.359   3.853
78794W        W40105  15.614   7.669  10.405
78795W        W40106  12.202  21.018   3.652
78796W        W40107  34.483  44.460  13.502
78797W        W40108  23.079  14.803   0.429
78798W        W40109  41.494  44.329   2.249
78799W        W40110  21.543  43.767  11.489
78800W        W40111  17.605  21.694  12.906
78801W        W40112  28.073  16.108  10.532
78802W        W40113  39.949  18.227  12.424
78803W        W40114  43.794  42.407  11.084
78804W        W40115  14.296  19.639   3.299
78805W        W40116  42.424   7.253  14.470
78806W        W40117  34.971   4.870   1.894
78807W        W40118  24.670  39.360  13.391
78808W        W40119  13.806  35.431   1.706
78809W        W40120  22.740  38.507  13.495
78810W        W40121  12.149  38.537  14.776
78811W        W40122   5.882  32.571  10.916
78812W        W40123  33.995  23.723  13.798
78813W        W40124  10.270   1.900  10.574
78814W        W40125  38.920  17.175   4.671
78815W        W40126  34.995  27.585  12.931
78816W        W40127   5.255  22.510  11.374
78817W        W40128  29.985   9.253  13.957
78818W        W40129  11.855  31.623   3.657
78819W        W40130   3.460  35.438   0.415
78820W        W40131  23.727  36.468  12.557
78821W        W40132  21.263  44.877  12.366
78822W        W40133  32.441  18.559   3.847
78823W        W40134  30.455  10.345  12.399
78824W        W40135   5.898  12.690   2.808
78825W        W40136  40.031  38.535   1.742
78826W        W40137   1.775  13.636   3.238
78827W        W40138   9.864  14.292   2.716
78828W        W40139  20.138  32.504   4.611
78829W        W40140   1.431  31.501   0.299
78830W        W40141  43.894   5.344  11.978
78831W        W40142  17.102   3.390   2.755
78832W        W40143  33.885  34.869  10.583
78833W        W40144  43.954  15.098  12.550
78834W        W40145  21.119  35.476  13.864
78835W        W40146  41.380   2.374  11.980
78836W        W40147  19.127  43.421   0.814
78837W        W40148  22.601  37.932   3.247
78838W        W40149  17.695  43.461   2.216
78839W        W40150  40.805  31.640  10.530
78840W        W40151  12.350   9.768  13.472
78841W        W40152  15.226  39.984  11.581
78842W        W40153  25.109  23.693  14.480
78843W        W40154  42.343  10.330  14.831
78844W        W40155   1.387   0.873  13.984
78845W        W40156  38.883  37.884  10.153
78846W        W40157   8.805  11.862   1.934
78847W        W40158  42.988  25.532  14.836
78848W        W40159  24.489  21.558   5.088
78849W        W40160  14.594  40.847  14.970
78850W        W40161  13.782  42.391   2.849
78851W        W40162  14.103  15.613   1.845
78852W        W40163  20.209  12.736  11.532
78853W        W40164  11.320  26.105  13.895
78854W        W40165  25.570  20.252   1.815
78855W        W40166  14.226  34.933  10.977
78856W        W40167   2.781  10.330   2.252
78857W        W40168  24.102  41.350   1.355
78858W        W40169  27.124  40.331  14.482
78859W        W40170  29.977  20.114   2.405
78860W        W40171   4.857  14.624   1.334
78861W        W40172   0.925   5.309   4.811
78862W        W40173   9.862  32.059  14.361
78863W        W40174   9.247  38.001  11.883
78864W        W40175   5.396  38.448  11.004
78865W        W40176  37.063  25.205  10.922
78866W        W40177  44.871  42.419   4.620
78867W        W40178  27.647  30.516  12.553
78868W        W40179   9.345  30.001  14.764
78869W        W40180  28.509   9.743  14.836
78870W        W40181   6.189  22.743  14.487
78871W        W40182   5.390  36.093  12.031
78872W        W40183   7.384   6.297  12.357
78873W        W40184  11.772  40.029  10.897
78874W        W40185  33.432  11.775   4.268
78875W        W40186  34.036  21.717   1.865
78876W        W40187   0.988  33.085   1.716
78877W        W40188  36.579  17.247   1.803
78878W        W40189   7.831  15.301   3.691
78879W        W40190   1.371  37.526  14.482
78880W        W40191   1.305  24.527  12.057
78881W        W40192  35.877   5.280   1.819
78882W        W40193  39.016  17.065   0.479
78883W        W40194  13.247  41.903  12.824
78884W        W40195  37.489  28.516  14.405
78885W        W40196  38.970  31.507   2.734
78886W        W40197  33.546   5.360  11.538
78887W        W40198  31.523   3.366   3.275
78888W        W40199  19.659  16.813   0.363
78889W        W40200  31.015   9.688   2.418
78890W        W40201  42.447  23.229  13.399
78891W        W40202  30.058  20.673  14.892
78892W        W40203   2.729   7.719   3.748
78893W        W40204  34.011  32.625   0.414
78894W        W40205  35.983  10.384  14.448
78895W        W40206  29.616   7.837  11.606
78896W        W40207  43.277   0.798   4.233
78897W        W40208  23.510  11.176   3.306
78898W        W40209  21.613  32.395   3.239
78899W        W40210   2.874  15.657  11.017
78900W        W40211  33.880   0.963  10.040
78901W        W40212   7.822  30.054   2.185
78902W        W40213  14.331  43.018  10.451
78903W        W40214  27.974   4.751   2.401
78904W        W40215  28.138  21.566   4.663
78905W        W40216  42.388  15.627   4.275
78906W        W40217  18.683   8.354  12.397
78907W        W40218  30.557  31.449   0.245
78908W        W40219  17.119  13.689   4.142
78909W        W40220  44.949  12.211  10.575
78910W        W40221  12.842   3.416  13.438
78911W        W40222  15.193   2.382  11.511
78912W        W40223  23.027  38.352   0.374
78913W        W40224  16.189  26.981   4.762
78914W        W40225  13.119  35.392   2.677
78915W        W40226  24.030  32.009  13.333
78916W        W40227  43.512  20.673   4.291
78917W        W40228  15.238  22.015  11.911
78918W        W40229  43.972  44.838  14.774
78919W        W40230  33.542   3.240  13.871
78920W        W40231  23.698  23.654   0.760
78921W        W40232  44.491  40.406  12.410
78922W        W40233  16.664  33.106  13.804
78923W        W40234  37.575   4.314  12.577
78924W        W40235  24.208   7.314   4.222
78925W        W40236  27.058   2.788  12.553
78926W        W40237  22.082   7.304   2.198
78927W        W40238   4.326  33.467   0.286
78928W        W40239   7.329  37.352  14.323
78929W        W40240   2.946  42.948   3.317
78930W        W40241  15.668  38.900  12.999
78931W        W40242  25.649  21.139   2.277
78932W        W40243  31.045  30.469   2.711
78933W        W40244  41.432  31.069   2.670
78934W        W40245  14.720  21.235   0.296
78935W        W40246  14.238  41.872  10.418
78936W        W40247  18.067  25.124  11.043
78937W        W40248   3.354  13.770  12.909
78938W        W40249  32.093  16.800  10.124
78939W        W40250  35.065  32.615   4.136
78940W        W40251  40.471  20.222   4.746
78941W        W40252  27.195   7.220  11.524
78942W        W40253  44.496   7.779  12.906
78943W        W40254   0.966  37.054   1.929
78944W        W40255   1.908  31.024   0.262
78945W        W40256  28.100   3.904   3.226
78946W        W40257   9.295  27.051   3.181
78947W        W40258  11.785  31.453  10.423
78948W        W40259   8.305   1.389   4.667
78949W        W40260  31.500  23.091   1.869
78950W        W40261  39.053  24.082   3.174
78951W        W40262  39.440  28.170   4.653
78952W        W40263  35.453  37.472  12.051
78953W        W40264  29.450  26.697   0.398
78954W        W40265  21.752   6.295  13.978
78955W        W40266  38.542   3.938   4.172
78956W        W40267   9.242  41.010  14.773
78957W        W40268  40.461  15.629  11.445
78958W        W40269  13.756  25.215  13.941
78959W        W40270  29.495  27.081  13.966
78960W        W40271  41.869   2.375   4.646
78961W        W40272  11.131  22.706   1.697
78962W        W40273  31.097  19.073  13.317
78963W        W40274  26.985   0.447  12.549
78964W        W40275  33.554  11.646   1.289
78965W        W40276  33.959  24.159   1.748
78966W        W40277   9.279  10.190   1.740
78967W        W40278   8.688  19.551  13.905
78968W        W40279  31.520  43.844  14.830
78969W        W40280   0.893  40.805  12.349
78970W        W40281  12.626  21.143  12.014
78971W        W40282   1.779  20.152   4.240
78972W        W40283  22.660  40.461   3.183
78973W        W40284  11.736   6.325  12.549
78974W        W40285  30.427   4.701   3.746
78975W        W40286   2.752   0.949   0.937
78976W        W40287  13.690  38.516  11.891
78977W        W40288   0.789  36.539  10.992
78978W        W40289  22.998  40.316   2.336
78979W        W40290  20.703  20.761   1.884
78980W        W40291   2.848   1.321  14.010
78981W        W40292  37.046  41.016  13.374
78982W        W40293   5.833   5.318   0.481
78983W        W40294  12.255   3.423   0.466
78984W        W40295   8.190  13.743  14.405
78985W        W40296  31.914  25.538   3.355
78986W        W40297  24.121  23.045   4.609
78987W        W40298  44.909  37.973   3.277
78988W        W40299   8.313   4.292  13.362
78989W        W40300  12.343   2.882  12.888
78990W        W40301   9.821  24.073  12.474
78991W        W40302   1.970  25.122  12.425
78992W        W40303  26.995  17.585   2.352
78993W        W40304  30.416  44.285   0.891
78994W        W40305  16.257  35.105   4.775
78995W        W40306  35.866  22.734   3.865
78996W        W40307  20.206   0.969  14.844
78997W        W40308  38.909  16.678  13.803
78998W        W40309  40.421  25.517  12.055
78999W        W40310  33.904   7.272   1.843
79000W        W40311   7.204  10.831   3.226
79001W        W40312   8.890  26.464   2.232
79002W        W40313  24.628  41.854   2.403
79003W        W40314  36.408  40.873   0.911
79004W        W40315  29.615  20.680   1.319
79005W        W40316  31.908  23.096   1.229
79006W        W40317  12.844  23.519   2.411
79007W        W40318  22.671  38.917  11.956
79008W        W40319  14.729  36.988  10.551
79009W        W40320  30.561  32.088  10.611
79010W        W40321  11.814  27.079   3.718
79011W        W40322  15.171  43.460   1.915
79012W        W40323  36.971   1.860   3.750
79013W        W40324   9.345  10.727  11.933
79014W        W40325  38.417   4.698   3.167
79015W        W40326  25.708   2.732   3.868
79016W        W40327  17.731   0.929  13.037
79017W        W40328  18.077  16.199   3.233
79018W        W40329  20.643   8.883  10.615
79019W        W40330   1.461  10.332   1.855
79020W        W40331   1.917   6.265   3.367
79021W        W40332  12.171  22.091  12.065
79022W        W40333  33.876  32.465  12.431
79023W        W40334   7.172  18.570   3.677
79024W        W40335  42.018  25.543  12.474
79025W        W40336  42.847  31.026  12.888
79026W        W40337  33.084  42.293  11.975
79027W        W40338  38.049  12.846   0.843
79028W        W40339  15.156  38.361   2.265
79029W        W40340  36.412  40.507   2.802
79030W        W40341  18.164  24.985  14.292
79031W        W40342  35.103  43.490   2.679
79032W        W40343  26.696  17.127   5.241
79033W        W40344  16.754  14.300   1.855
79034W        W40345  26.052  34.965   0.413
79035W        W40346  41.928  26.573  14.999
79036W        W40347  28.444   9.348  14.353
79037W        W40348  33.039  33.122  10.472
79038W        W40349  13.240  29.453   0.940
79039W        W40350  12.246  39.470  10.408
79040W        W40351  38.470  38.350   1.787
79041W        W40352  10.178  40.866  12.387
79042W        W40353  10.380   8.173  13.410
79043W        W40354  23.654  20.108   0.400
79044W        W40355  12.728   1.959  13.388
79045W        W40356  37.377  26.653  14.012
79046W        W40357   5.929  16.619   0.382
79047W        W40358  23.685  20.180  13.316
79048W        W40359  33.078  22.579   4.812
79049W        W40360  29.031  11.210  12.517
79050W        W40361   9.866  13.616   0.890
79051W        W40362  42.886   4.848  14.345
79052W        W40363  33.626  20.641   1.902
79053W        W40364  26.182  18.732  11.863
79054W        W40365   2.743  17.279   4.155
79055W        W40366   1.883  37.943   2.730
79056W        W40367  33.072  43.773  13.914
79057W        W40368  16.072  36.536   1.694
79058W        W40369  17.253   7.172  12.518
79059W        W40370  10.798  17.720  12.053
79060W        W40371  39.517  40.487  13.396
79061W        W40372  29.445  42.301  13.013
79062W        W40373  30.132   7.684   4.140
79063W        W40374  30.005  37.056  14.449
79064W        W40375  33.072  24.586  14.007
79065W        W40376  36.576   2.385   4.661
79066W        W40377  10.824  35.538  13.820
79067W        W40378  37.508  23.989   0.792
79068W        W40379  35.987  39.560   3.364
79069W        W40380  40.523  16.296  12.469
79070W        W40381  12.223  42.421   1.935
79071W        W40382  25.191   5.743  10.559
79072W        W40383  44.818  12.115   0.396
79073W        W40384   3.417  40.465  13.025
79074W        W40385  22.656  23.545  12.471
79075W        W40386   0.798  17.616   3.788
79076W        W40387  24.143  27.026   3.319
79077W        W40388  29.030   4.707  14.369
79078W        W40389  41.871  27.970  10.144
79079W        W40390  21.027   2.788  13.462
79080W        W40391  11.823  37.441  12.980
79081W        W40392  42.457  10.788   1.385
79082W        W40393   7.827  13.845   4.163
79083W        W40394  24.024  16.114  12.399
79084W        W40395   5.910  31.153  12.350
79085W        W40396  10.781  41.960   2.815
79086W        W40397   0.872  21.236  11.477
79087W        W40398  15.746  38.924   3.301
79088W        W40399  37.994  37.437   0.832
79089W        W40400  35.572  27.634   3.842
79090W        W40401  19.622  27.954  12.882
79091W        W40402  22.633   4.772   4.712
79092W        W40403  35.487  19.633   3.334
79093W        W40404  29.167   4.391  14.916
79094W        W40405  42.312   1.833  14.452
79095W        W40406  25.193   3.238   0.256
79096W        W40407  29.051   9.247  12.051
79097W        W40408  40.897  41.383   2.233
79098W        W40409  32.562  34.466   1.378
79099W        W40410  44.765  40.959  10.928
79100W        W40411  36.841  38.499   2.295
79101W        W40412  18.155  38.526  10.600
79102W        W40413  37.339   3.251  10.467
79103W        W40414  16.298   2.870   2.694
79104W        W40415   5.326  37.564  10.426
79105W        W40416   1.395   3.734   4.676
79106W        W40417  31.580  20.635   4.250
79107W        W40418   2.463   8.372  10.984
79108W        W40419  25.709  12.358  14.301
79109W        W40420  17.186  15.772   3.815
79110W        W40421  40.409  42.451   1.729
79111W        W40422  43.940  27.959  11.396
79112W        W40423  20.033   0.781  10.607
79113W        W40424  25.055  30.434   2.410
79114W        W40425  16.568  31.108   4.278
79115W        W40426  38.894   0.272   2.699
79116W        W40427  24.224   9.767  11.925
79117W        W40428  26.985  22.519  12.427
79118W        W40429  30.478  42.906   5.259
79119W        W40430  38.478  36.895  14.290
79120W        W40431  22.213  13.665  12.574
79121W        W40432  42.783  19.724  10.023
79122W        W40433  32.083  11.306  12.968
79123W        W40434  41.846   0.946   2.308
79124W        W40435  22.626  10.197   0.941
79125W        W40436  37.899  18.757   1.415
79126W        W40437  20.252  40.965   3.825
79127W        W40438  31.447  42.950  13.958
79128W        W40439  44.813  39.829  11.875
79129W        W40440  36.534  21.171  13.485
79130W        W40441  40.304  38.440   9.503
79131W        W40442  23.671  29.126   0.329
79132W        W40443   3.220  43.460   0.923
79133W        W40444  27.578  35.021  11.044
79134W        W40445  18.779  40.896  10.070
79135W        W40446  14.794  13.674   2.713
79136W        W40447  15.270  26.677  11.999
79137W        W40448   0.429  27.086   4.193
79138W        W40449  29.662  33.444   1.728
79139W        W40450  30.523   9.253  11.088
79140W        W40451  12.631  44.492   1.858
79141W        W40452  31.945  39.481   4.715
79142W        W40453  40.543  33.492  13.508
79143W        W40454   8.751  19.739   0.381
79144W        W40455  36.955  31.073  10.892
79145W        W40456  30.547   5.299  14.443
79146W        W40457   6.778  15.753   1.882
79147W        W40458  42.011  16.618  11.497
79148W        W40459  11.336  15.764   1.924
79149W        W40460   1.831   4.364   0.871
79150W        W40461  38.454  28.187   3.254
79151W        W40462  38.926   2.896  12.903
79152W        W40463  39.326  31.610   1.220
79153W        W40464  24.608   4.390   3.289
79154W        W40465  41.456  14.129  10.955
79155W        W40466  40.863  17.218  10.634
79156W        W40467  10.759  22.591  14.809
79157W        W40468  10.184  20.680   4.270
79158W        W40469  13.273  41.298   3.731
79159W        W40470  37.057  31.943  13.887
79160W        W40471  27.470  14.772  11.391
79161W        W40472  14.219  14.630  10.971
79162W        W40473  15.625  30.924   1.839
79163W        W40474  16.234  15.288   5.319
79164W        W40475  36.859  44.966  13.445
79165W        W40476  24.710  15.819   1.915
79166W        W40477  12.772  42.353  14.285
79167W        W40478   9.264  36.483  13.803
79168W        W40479  39.545  25.127  12.433
79169W        W40480   4.866  37.854  13.310
79170W        W40481   3.318  15.644  13.942
79171W        W40482  35.105  23.630  13.011
79172W        W40483   8.398  10.838  11.934
79173W        W40484  12.340  30.579   1.369
79174W        W40485  16.572  43.947  12.958
79175W        W40486   2.882  42.416  12.492
79176W        W40487  30.955  26.699  13.041
79177W        W40488   2.310  24.717   0.826
79178W        W40489  10.689  44.818   4.229
79179W        W40490  35.025  36.447  14.448
79180W        W40491  18.163  42.285  13.539
79181W        W40492  32.430  32.449  10.917
79182W        W40493  25.071   9.783  13.419
79183W        W40494  41.007  34.921   0.797
79184W        W40495  18.698  15.752   0.393
79185W        W40496   5.774  27.949   2.253
79186W        W40497  39.061   2.749  10.592
79187W        W40498   0.932  22.581   1.878
79188W        W40499  35.922  34.535  14.398
79189W        W40500  17.565  22.062  14.015
79190W        W40501  32.008  25.594   2.382
79191W        W40502  26.181   1.388  14.883
79192W        W40503  25.514  43.309   2.224
79193W        W40504  17.724  12.334   1.792
79194W        W40505   8.673  12.710   2.695
79195W        W40506  18.250  16.137  14.927
79196W        W40507  14.289  38.522  12.343
79197W        W40508  39.020  36.014   0.784
79198W        W40509   6.707  30.429  12.434
79199W        W40510  12.740  25.200  11.423
79200W        W40511   7.818   1.420  11.454
79201W        W40512  28.056  15.711   0.876
79202W        W40513  42.988  24.991  11.376
79203W        W40514   8.316  36.939   2.702
79204W        W40515  39.484   5.928  10.505
79205W        W40516  12.317  23.062   2.851
79206W        W40517  34.111   5.207  12.395
79207W        W40518  39.948  35.963   0.844
79208W        W40519   9.856  32.105   0.399
79209W        W40520  24.085  29.104  13.970
79210W        W40521  36.048   7.679   0.400
79211W        W40522  24.668  41.328  14.975
79212W        W40523  34.867  11.339  12.512
79213W        W40524  15.665  19.100   0.386
79214W        W40525   5.432   5.909  10.913
79215W        W40526   4.712  34.933  11.913
79216W        W40527  26.974  15.823   3.351
79217W        W40528  25.565  42.389  10.416
79218W        W40529  35.440  39.369  12.087
79219W        W40530  26.542  12.289  12.565
79220W        W40531   4.267  20.170   3.754
79221W        W40532  41.336  17.066   3.370
79222W        W40533   3.945  39.481   0.804
79223W        W40534   0.743  38.916   2.668
79224W        W40535  35.408   1.866   2.328
79225W        W40536  43.334  14.214   2.207
79226W        W40537  20.628  29.014   0.267
79227W        W40538  19.600  27.684  12.963
79228W        W40539  17.141   0.434   1.212
79229W        W40540  11.334   7.336   1.781
79230W        W40541   7.836  20.217  11.006
79231W        W40542  19.716   9.267  10.522
79232W        W40543  32.996  31.598   0.441
79233W        W40544  25.511  20.100  10.644
79234W        W40545  43.503  20.087   2.301
79235W        W40546  41.875  36.503   1.851
79236W        W40547   0.349   3.321   5.181
79237W        W40548  11.666  17.720   2.374
79238W        W40549  21.636  19.620  13.828
79239W        W40550  17.194   1.270   4.322
79240W        W40551  17.294  11.643   3.643
79241W        W40552  16.794  31.515   3.644
79242W        W40553  42.017   7.825  10.898
79243W        W40554  23.578  35.944  12.975
79244W        W40555  39.047  37.842   4.834
79245W        W40556  27.188   9.274  12.059
79246W        W40557  44.488  22.620  13.864
79247W        W40558  28.951  12.704  14.926
79248W        W40559   0.344  14.789   4.773
79249W        W40560   9.312   5.786  12.965
79250W        W40561  35.941   2.755   4.831
79251W        W40562  41.426  20.568   2.278
79252W        W40563   0.798  25.141  12.899
79253W        W40564   8.327  15.707  13.851
79254W        W40565  12.182  28.042   2.817
79255W        W40566  36.580  34.078  11.983
79256W        W40567  40.008  13.254   0.247
79257W        W40568  18.270  21.606  13.491
79258W        W40569   5.732  24.050   2.699
79259W        W40570  43.964   0.754   4.311
79260W        W40571  31.558   6.826   5.634
79261W        W40572  14.292  20.664  11.595
79262W        W40573  43.413  16.615  11.126
79263W        W40574  43.875  33.116  12.340
79264W        W40575   8.865  26.138   2.740
79265W        W40576   2.401  33.100   2.335
79266W        W40577  13.281  38.395   4.180
79267W        W40578  38.398  30.425   2.751
79268W        W40579  12.645  42.800   3.181
79269W        W40580  27.083  40.911  10.492
79270W        W40581  38.402  15.119   4.742
79271W        W40582  27.516  31.423   4.836
79272W        W40583   7.366  30.147   3.375
79273W        W40584  24.696  26.162  13.454
79274W        W40585  20.554   5.320   1.883
79275W        W40586  13.701  16.311  11.115
79276W        W40587  35.518  25.985  13.436
79277W        W40588   2.446  17.206  14.951
79278W        W40589  23.052  15.596  13.987
79279W        W40590  25.971  14.319   2.285
79280W        W40591   7.184  33.571   4.275
79281W        W40592  11.855  11.738   3.348
79282W        W40593  35.530  31.414  12.523
79283W        W40594  33.122  39.957  14.842
79284W        W40595   6.892  41.435   0.798
79285W        W40596   9.733  32.086  11.123
79286W        W40597  25.616  22.627   3.304
79287W        W40598  24.148  25.002   3.302
79288W        W40599   4.218  19.043  12.069
79289W        W40600  36.575   2.421   0.862
79290W        W40601  29.950  31.953  13.394
79291W        W40602  24.625  15.670  13.428
79292W        W40603  21.252  42.997   4.778
79293W        W40604  26.042  21.131  14.474
79294W        W40605  40.530   8.786   2.189
79295W        W40606  38.989  19.769  10.580
79296W        W40607  11.347  36.386  14.279
79297W        W40608   7.230  39.456  12.422
79298W        W40609  20.040   7.791  14.460
79299W        W40610  42.397   8.337   0.474
79300W        W40611  32.028  13.228   2.223
79301W        W40612  17.140   2.948  13.895
79302W        W40613  43.859  34.908  13.335
79303W        W40614  35.868  12.199   1.403
79304W        W40615   9.268   8.159  13.864
79305W        W40616  21.174   3.756   1.841
79306W        W40617  17.583  11.658   2.263
79307W        W40618   0.259  29.576   4.617
79308W        W40619  18.154  32.902  11.907
79309W        W40620  44.450   4.904   2.694
79310W        W40621  34.378  25.621  12.094
79311W        W40622  13.170  11.286   4.750
79312W        W40623   2.774  22.731   2.664
79313W        W40624  17.767  39.552  13.354
79314W        W40625   4.284  23.551   4.312
79315W        W40626  29.095  36.997   0.834
79316W        W40627   8.183  20.740   4.121
79317W        W40628   7.781  12.788  12.454
79318W        W40629  14.744  10.375   4.344
79319W        W40630  34.877  40.949  14.987
79320W        W40631  40.423  38.414   5.751
79321W        W40632  27.964   9.328   3.298
79322W        W40633  33.396  14.240  11.882
79323W        W40634  10.855   4.343  14.384
79324W        W40635  18.715   9.711  12.519
79325W        W40636  43.269  12.263   3.821
79326W        W40637  23.043  25.554   4.639
79327W        W40638  39.055  12.141   3.750
79328W        W40639  23.215   8.701  13.822
79329W        W40640   2.301  37.395  10.126
79330W        W40641   2.287  30.635  13.375
79331W        W40642  40.890  42.823   4.205
79332W        W40643  25.025  25.536  14.782
79333W        W40644  34.373  42.366  10.514
79334W        W40645   3.904  35.893   5.220
79335W        W40646  11.708   1.820  14.513
79336W        W40647  38.510  14.305   2.263
79337W        W40648  26.612   7.288   0.866
79338W        W40649  38.073  29.117  11.865
79339W        W40650  35.960   4.822  13.059
79340W        W40651  21.229  22.644   2.900
79341W        W40652  12.727   0.860  13.039
79342W        W40653   5.925  14.163   3.209
79343W        W40654  43.477   8.361   3.216
79344W        W40655  40.956  39.543   1.746
79345W        W40656  18.271  15.582  13.942
79346W        W40657  21.745  28.980   2.777
79347W        W40658   7.272   0.474   0.312
79348W        W40659   8.308  15.646   4.263
79349W        W40660  11.642  32.489  14.842
79350W        W40661  11.287  27.555   3.801
79351W        W40662  16.673   5.842   1.237
79352W        W40663  30.575  21.122  11.586
79353W        W40664  35.959  34.508  12.493
79354W        W40665  26.484  40.963  12.376
79355W        W40666   4.438  34.454   4.634
79356W        W40667  15.618  20.694  10.610
79357W        W40668   7.178  35.960   0.833
79358W        W40669   1.309  41.363  11.871
79359W        W40670   9.389  32.526  13.465
79360W        W40671  34.083  42.014  12.892
79361W        W40672  24.988  16.140  11.611
79362W        W40673  11.746  13.672   3.773
79363W        W40674  27.017   1.380  14.440
79364W        W40675  24.048  43.898   2.674
79365W        W40676   0.814  22.027  14.903
79366W        W40677  25.605  27.681  10.958
79367W        W40678  43.882  31.422   0.918
79368W        W40679  37.942  30.071  13.476
79369W        W40680  30.913  27.035   0.779
79370W        W40681   1.332  13.327  14.356
79371W        W40682  44.369  43.465   4.296
79372W        W40683   1.471   7.866  12.363
79373W        W40684  20.054  40.018   3.270
79374W        W40685  13.630  29.011   0.921
79375W        W40686  38.981  16.127  11.554
79376W        W40687   2.798  44.425  12.003
79377W        W40688  44.301  31.123   4.650
79378W        W40689  18.107  25.568   4.266
79379W        W40690  28.056  35.488   0.465
79380W        W40691  25.641  25.615   4.273
79381W        W40692   1.306  29.059  12.432
79382W        W40693  28.056   2.423   2.346
79383W        W40694  13.830  44.387   2.201
79384W        W40695  30.417  40.870   3.741
79385W        W40696  15.779  23.555   0.455
79386W        W40697  36.474  17.697   2.187
79387W        W40698  12.628  15.221  14.772
79388W        W40699   9.235  11.733  14.416
79389W        W40700   6.767  27.548  11.941
79390W        W40701   9.719  12.753   1.239
79391W        W40702  35.908  14.640  13.470
79392W        W40703   6.250   2.330  13.504
79393W        W40704  40.457  12.698  14.370
79394W        W40705   1.360  42.920   0.442
79395W        W40706  42.418   0.926   3.701
79396W        W40707   6.697   4.888   2.360
79397W        W40708  38.883  19.777   4.706
79398W        W40709   9.186  32.556  12.072
79399W        W40710  11.182  19.179  13.971
79400W        W40711  18.552  38.523   1.814
79401W        W40712  10.693  43.950   3.811
79402W        W40713  11.793   1.253   2.335
79403W        W40714  11.844  44.754   3.722
79404W        W40715  22.613  22.520  12.463
79405W        W40716  40.537  10.344  10.025
79406W        W40717  39.422  31.543  14.959
79407W        W40718  28.486  22.243   4.220
79408W        W40719   9.667  42.443   1.825
79409W        W40720  12.773  25.176  13.506
79410W        W40721  25.054  17.644  13.829
79411W        W40722   9.212  33.884   3.195
79412W        W40723  44.469   8.710  13.000
79413W        W40724  40.451   1.968  10.602
79414W        W40725  34.577  16.230   1.767
79415W        W40726  33.955  32.467  10.623
79416W        W40727  40.428  27.659  14.436
79417W        W40728  26.462  17.131   2.401
79418W        W40729  15.148  11.788   4.760
79419W        W40730  16.080  19.236   4.291
79420W        W40731  11.142  38.407   0.937
79421W        W40732  10.335  37.862   1.321
79422W        W40733   9.650   0.908  14.907
79423W        W40734  40.327  34.053   4.698
79424W        W40735  26.587  19.591   1.716
79425W        W40736   4.346  40.898  12.932
79426W        W40737   6.372  35.993  11.456
79427W        W40738  41.934  27.144  12.482
79428W        W40739  33.009  30.592  12.993
79429W        W40740  37.930  13.783   3.722
79430W        W40741   1.466  35.878  13.391
79431W        W40742  23.086  40.397   0.453
79432W        W40743  24.621  38.937  14.487
79433W        W40744  40.447   2.807   2.330
79434W        W40745  12.679   0.368   2.856
79435W        W40746  18.728  12.209   1.935
79436W        W40747  17.208  42.440  12.462
79437W        W40748  14.309  38.991   4.258
79438W        W40749   4.423  42.010  14.964
79439W        W40750  32.915  29.166   4.121
79440W        W40751  19.758  12.756  11.528
79441W        W40752  28.995  28.964  13.980
79442W        W40753  25.000  32.979  13.981
79443W        W40754  27.052   6.814  12.461
79444W        W40755  25.688  19.047  13.823
79445W        W40756  17.264  22.019  12.069
79446W        W40757  28.454   0.296  13.863
79447W        W40758  10.707  17.750  13.858
79448W        W40759   7.904  27.611   2.795
79449W        W40760   0.947  19.248  13.872
79450W        W40761   1.286  21.022  14.842
79451W        W40762  10.674  39.414   3.665
79452W        W40763  15.190  16.733  12.847
79453W        W40764  33.589  33.935  11.056
79454W        W40765   4.260  42.488  14.366
79455W        W40766  41.338  24.490   4.126
79456W        W40767  42.382   2.375   0.269
79457W        W40768  18.142  42.286   2.246
79458W        W40769  20.117  11.221  13.938
79459W        W40770  24.093  36.981  14.407
79460W        W40771  44.273  22.251  12.472
79461W        W40772  16.268   2.781  13.791
79462W        W40773  13.746  25.080   3.159
79463W        W40774  36.565  13.662   0.363
79464W        W40775  39.037   0.396   3.750
79465W        W40776  16.779  30.567   4.337
79466W        W40777   5.897  36.910   1.930
79467W        W40778   5.872  30.580   2.770
79468W        W40779  22.733  39.977   9.996
79469W        W40780  19.045  22.720  12.091
79470W        W40781  17.214  14.695  12.964
79471W        W40782  15.148   7.880   1.268
79472W        W40783  14.655  30.625   4.673
79473W        W40784  42.434   0.263   1.313
79474W        W40785  33.476  23.546  11.896
79475W        W40786   0.449  24.196  10.618
79476W        W40787  42.923  30.633  11.877
79477W        W40788  13.300  10.787  13.934
79478W        W40789  33.963   6.320   1.910
79479W        W40790  12.176  22.186  13.886
79480W        W40791  28.570  16.202   4.292
79481W        W40792  41.382  26.544   2.782
79482W        W40793  40.488  25.196  13.420
79483W        W40794  20.758  24.498  11.949
79484W        W40795  19.209  18.074  10.551
79485W        W40796  22.995  24.053  11.483
79486W        W40797  37.378  21.214  13.875
79487W        W40798  29.517   8.359   3.714
79488W        W40799  23.235  10.709  14.803
79489W        W40800  16.632  39.556   0.902
79490W        W40801  43.316  26.082   4.637
79491W        W40802  14.736  15.125   3.281
79492W        W40803  27.073  30.538   0.790
79493W        W40804   3.446   5.254   0.778
79494W        W40805  20.189   3.411   4.183
79495W        W40806   9.375   6.752   1.397
79496W        W40807   1.792  27.621  10.897
79497W        W40808  33.074  31.127  10.619
79498W        W40809  35.948  34.943   4.783
79499W        W40810  25.139  13.197   1.449
79500W        W40811   0.823  21.063  10.987
79501W        W40812  13.692  15.656  12.036
79502W        W40813  29.941  37.934  13.324
79503W        W40814  42.993  10.261   2.761
79504W        W40815  22.211  37.532  12.376
79505W        W40816  26.602  22.578  14.478
79506W        W40817   2.763  32.931  14.800
79507W        W40818  41.872  13.769  12.940
79508W        W40819  23.216  10.827   4.599
79509W        W40820  34.605  22.249  11.391
79510W        W40821  19.107   8.856  12.360
79511W        W40822  11.864  10.272  13.473
79512W        W40823   8.366   3.333  14.760
79513W        W40824  24.654  19.751  12.045
79514W        W40825  25.684  31.027  12.392
79515W        W40826  29.489  20.630   2.813
79516W        W40827   4.701  34.948  12.547
79517W        W40828  35.944  11.713  11.453
79518W        W40829  41.480  31.009  14.516
79519W        W40830   0.870   1.453   0.863
79520W        W40831  20.735  11.354   1.434
79521W        W40832  37.858  44.994   0.756
79522W        W40833  13.837  43.411   1.840
79523W        W40834  37.405  15.726   5.235
79524W        W40835  31.916  39.960  13.345
79525W        W40836  10.378   2.866  14.806
79526W        W40837   6.899  16.636  11.020
79527W        W40838   2.337  38.477  14.023
79528W        W40839   9.252  19.731  13.822
79529W        W40840   8.746  14.175   1.430
79530W        W40841  31.631  42.281  11.880
79531W        W40842  25.190  34.430   1.783
79532W        W40843  43.391   4.830   2.776
79533W        W40844  39.024  32.974   0.344
79534W        W40845  27.449  23.511  14.386
79535W        W40846  38.339  19.206   2.671
79536W        W40847   9.286  11.250   4.235
79537W        W40848  28.464  31.071  12.534
79538W        W40849  41.484  24.518   0.783
79539W        W40850  34.588  31.588   1.306
79540W        W40851  16.297  18.689   1.704
79541W        W40852  29.476  38.382   1.906
79542W        W40853   5.720   4.792   0.779
79543W        W40854  40.418  12.205  14.512
79544W        W40855   4.900  20.227  12.071
79545W        W40856  24.180  30.030   2.800
79546W        W40857  39.460   3.280  11.025
79547W        W40858  28.447   8.686   1.423
79548W        W40859   2.389  44.921   1.744
79549W        W40860   4.753  13.348  12.408
79550W        W40861  37.878  17.201   2.184
79551W        W40862  19.594  26.701  13.487
79552W        W40863  14.142  26.183  14.778
79553W        W40864  26.562  36.396   4.286
79554W        W40865  37.830  16.696  14.467
79555W        W40866   3.847  40.328   4.622
79556W        W40867   1.380  15.109   4.216
79557W        W40868  28.495  34.457  11.589
79558W        W40869  25.467  26.532  13.522
79559W        W40870   8.290   6.196   3.796
79560W        W40871  22.169   4.749   3.773
79561W        W40872   4.375  44.378  12.492
79562W        W40873  31.982  21.714   3.724
79563W        W40874  13.146  16.142  12.440
79564W        W40875  35.378   5.880   0.763
79565W        W40876  17.600   3.826   3.361
79566W        W40877  22.536  19.600   0.889
79567W        W40878   1.771  23.193  12.870
79568W        W40879   0.766   1.837  12.944
79569W        W40880  43.492   0.837   1.315
79570W        W40881  29.615  28.989  10.961
79571W        W40882  26.520  35.941  10.029
79572W        W40883  11.129  31.905   3.834
79573W        W40884  23.080  32.948  14.891
79574W        W40885  24.482   6.812  11.415
79575W        W40886  14.116  40.490  12.481
79576W        W40887  23.210  30.040   1.296
79577W        W40888  38.909  42.333   3.861
79578W        W40889   7.758   0.989   2.273
79579W        W40890  13.106  42.802   2.196
79580W        W40891  25.050  12.661  14.986
79581W        W40892   9.751  44.847   3.706
79582W        W40893   1.465   2.940  10.470
79583W        W40894   3.814   3.819   2.229
79584W        W40895   9.297  27.565  14.831
79585W        W40896  32.042   3.804   1.425
79586W        W40897  38.399  21.744  12.382
79587W        W40898  29.474  43.491   1.307
79588W        W40899  37.969  36.384   5.582
79589W        W40900  14.236   0.315  11.863
79590W        W40901  14.324   8.876  13.310
79591W        W40902   6.834  17.092   3.179
79592W        W40903  43.806  19.240   1.922
79593W        W40904  40.425  14.180   2.294
79594W        W40905  37.873   6.207   2.360
79595W        W40906  28.470  26.521  12.371
79596W        W40907  15.722  12.721  12.978
79597W        W40908  16.159  12.821   0.412
79598W        W40909  12.335   2.945   0.856
79599W        W40910  43.372  31.976  14.967
79600W        W40911  38.028  42.833   0.735
79601W        W40912   7.308  43.832  10.576
79602W        W40913  26.483  44.428   2.793
79603W        W40914  37.862  14.713   1.428
79604W        W40915  42.884   0.879  11.939
79605W        W40916   5.274  41.434  11.524
79606W        W40917  43.947   4.757   0.342
79607W        W40918  28.669  42.475   2.813
79608W        W40919  33.594  28.940   3.682
79609W        W40920  19.060  22.031   3.700
79610W        W40921   5.350  12.757  14.454
79611W        W40922  26.574  16.661  14.478
79612W        W40923   6.842   6.792   4.225
79613W        W40924   6.283   1.309   4.143
79614W        W40925   0.831  11.769   0.387
79615W        W40926  11.698  31.070  14.816
79616W        W40927  34.888  19.154   4.668
79617W        W40928  14.614  19.153   0.908
79618W        W40929   0.904   0.932   4.322
79619W        W40930  13.644   4.205  13.921
79620W        W40931   9.170  18.217   4.123
79621W        W40932   0.489  38.062   3.695
79622W        W40933   1.243  20.577  14.839
79623W        W40934  21.060  38.402   2.211
79624W        W40935  35.435   4.813  14.943
79625W        W40936  23.622   7.232  10.643
79626W        W40937   8.390   2.799   4.722
79627W        W40938   0.297  15.664  13.318
79628W        W40939  24.720  41.344   2.726
79629W        W40940  10.203  43.022  11.563
79630W        W40941  28.087  14.738  11.005
79631W        W40942  22.644   3.823  14.303
79632W        W40943  23.682   0.253   2.379
79633W        W40944  31.955  41.867   3.731
79634W        W40945   0.315  20.577  12.421
79635W        W40946  11.269  13.660   3.864
79636W        W40947  12.763  37.387   1.899
79637W        W40948  42.019  32.946  11.090
79638W        W40949  11.280  39.833   0.959
79639W        W40950  36.384  36.497  12.070
79640W        W40951   5.929   6.183   2.899
79641W        W40952  29.974   1.857   0.319
79642W        W40953  40.976  25.982   1.297
79643W        W40954  34.985   1.778   2.813
79644W        W40955  18.616  19.138  13.440
79645W        W40956  41.807   3.308   1.768
79646W        W40957  16.726  30.656  10.592
79647W        W40958  21.564  41.502  12.383
79648W        W40959  26.559  23.713  14.974
79649W        W40960  36.031  33.029   0.753
79650W        W40961  14.801  40.418   0.959
79651W        W40962  40.412   1.800   5.319
79652W        W40963   7.203   7.673  12.490
79653W        W40964  28.947   8.336   4.277
79654W        W40965  35.551  21.037   0.242
79655W        W40966   5.333  23.060   2.892
79656W        W40967   5.351  24.087   3.822
79657W        W40968   2.912  39.936  13.970
79658W        W40969  41.350  17.078  13.427
79659W        W40970  41.901  41.297   3.288
79660W        W40971   6.851  20.735   2.205
79661W        W40972  14.249  10.357  14.313
79662W        W40973  34.011  23.522  13.416
79663W        W40974  43.004  34.900  13.013
79664W        W40975  43.931  16.700   1.907
79665W        W40976  37.833  31.644  12.875
79666W        W40977  38.351  28.523  12.387
79667W        W40978  17.678  38.483  11.477
79668W        W40979   0.847  12.707  11.508
79669W        W40980  41.387  36.032  13.010
79670W        W40981  14.644  34.464   4.275
79671W        W40982  18.253  25.128  13.312
79672W        W40983  14.247  39.065  12.019
79673W        W40984  21.588   1.294   3.673
79674W        W40985  16.197   8.738  11.471
79675W        W40986   1.444  31.439  10.619
79676W        W40987   2.422  26.577  10.115
79677W        W40988  32.455  41.951   2.324
79678W        W40989  27.485   4.793  11.893
79679W        W40990  41.521  22.585  13.949
79680W        W40991  44.433  44.835   1.213
79681W        W40992  36.510  33.609  11.433
79682W        W40993  42.786  17.109   2.898
79683W        W40994  11.844  17.132   4.736
79684W        W40995  27.453  40.874  12.496
79685W        W40996  36.382   3.432   5.197
79686W        W40997   8.274  42.519   4.734
79687W        W40998  12.141  33.915  14.967
79688W        W40999  23.681  22.512  11.078
79689W        W41000  44.469  11.786   2.242
79690W        W41001  41.422  24.503   1.918
79691W        W41002   7.692   7.253  13.395
79692W        W41003  37.531  37.492  11.979
79693W        W41004  15.702  21.070  12.025
79694W        W41005  30.602  22.722   0.773
79695W        W41006  17.706   8.809   2.304
79696W        W41007   4.906  23.108   1.369
79697W        W41008   2.383  33.069   3.707
79698W        W41009  23.202  22.082  13.984
79699W        W41010  22.138   9.685  11.372
79700W        W41011  13.267  10.362   4.275
79701W        W41012  30.956  31.013  13.325
79702W        W41013  23.592  11.676  10.628
79703W        W41014  15.635   7.743  12.834
79704W        W41015  17.180  18.103  11.881
79705W        W41016  18.619  35.055   4.217
79706W        W41017   4.867  42.281   3.672
79707W        W41018  41.966  24.052   2.303
79708W        W41019  12.793  16.207   0.927
79709W        W41020   9.739  33.463   4.329
79710W        W41021   8.246   7.753   3.694
79711W        W41022  35.458  29.557   0.389
79712W        W41023  10.201  28.971   9.990
79713W        W41024  38.434  26.984   4.831
79714W        W41025  37.949  37.540  12.868
79715W        W41026  33.513  22.202  13.976
79716W        W41027  41.868  40.946   4.766
79717W        W41028  32.126  33.509   1.308
79718W        W41029  37.497  21.113   3.298
79719W        W41030  42.899  25.111   1.350
79720W        W41031  36.438  25.983  13.809
79721W        W41032   7.730  22.728  12.427
79722W        W41033  44.986  10.677  11.494
79723W        W41034   7.225  29.109   2.352
79724W        W41035  20.101  31.996   4.238
79725W        W41036  21.187  27.076  13.516
79726W        W41037  38.968  16.274  14.432
79727W        W41038  29.493  35.883  13.036
79728W        W41039  23.995   7.693  12.575
79729W        W41040  15.288   4.359  12.082
79730W        W41041  14.773  42.869  12.929
79731W        W41042  24.180  21.050  11.427
79732W        W41043  24.030  27.644   2.720
79733W        W41044  22.131   3.835   2.286
79734W        W41045  23.721  29.948  11.951
79735W        W41046  28.187  18.722  11.597
79736W        W41047   1.358  30.054   4.313
79737W        W41048  15.772  17.258  10.558
79738W        W41049  44.418  44.894  13.972
79739W        W41050   9.885  34.904  13.863
79740W        W41051   6.343  41.357  12.087
79741W        W41052  16.712  29.500  13.453
79742W        W41053  34.087  31.147  13.008
79743W        W41054   2.369  26.104   4.269
79744W        W41055  18.594  34.510  14.868
79745W        W41056  43.279   2.829   3.695
79746W        W41057  17.579   3.910  14.872
79747W        W41058  43.333   5.298   2.363
79748W        W41059   8.309  19.679  14.424
79749W        W41060  17.606  42.777   1.865
79750W        W41061  22.505  20.691   0.921
79751W        W41062  43.924  38.514   4.778
79752W        W41063  32.101  36.407   0.342
79753W        W41064   5.372  11.718   4.291
79754W        W41065  44.965  20.768   0.431
79755W        W41066  14.182  26.645  12.504
79756W        W41067   5.419  23.006   0.876
79757W        W41068   4.725   9.201  14.903
79758W        W41069  17.300   2.266   2.251
79759W        W41070  35.880  26.519  10.898
79760W        W41071   1.304  28.114   0.891
79761W        W41072  20.652  13.635  10.954
79762W        W41073  36.421  30.066  10.910
79763W        W41074  44.765  29.122  12.042
79764W        W41075   1.950  21.662   3.257
79765W        W41076  36.084  13.770  11.448
79766W        W41077  31.976  33.910   1.755
79767W        W41078  44.754   1.460   2.861
79768W        W41079  19.747  42.502   0.818
79769W        W41080  19.160  16.573  11.581
79770W        W41081  35.550  38.514   4.628
79771W        W41082  27.174  36.367  12.494
79772W        W41083  24.991  44.474   0.462
79773W        W41084   9.292   6.358   0.892
79774W        W41085  17.269  21.610   1.261
79775W        W41086  26.666  23.675  10.639
79776W        W41087   0.824  42.000   2.260
79777W        W41088  19.118  40.002   3.379
79778W        W41089  24.550  31.553   0.728
79779W        W41090  36.418   8.255  13.509
79780W        W41091   1.763   3.408   0.417
79781W        W41092  20.120   5.305   0.438
79782W        W41093  12.257  39.455  11.127
79783W        W41094  27.600   5.847  14.304
79784W        W41095  38.916   0.878  14.347
79785W        W41096  43.999   1.833  12.911
79786W        W41097  36.061  11.262   2.295
79787W        W41098  42.919  32.062  11.946
79788W        W41099  21.169  38.970  11.963
79789W        W41100   0.417  36.540  14.465
79790W        W41101   0.398   7.356  14.329
79791W        W41102  33.407  26.016  11.051
79792W        W41103  39.318  26.027   4.122
79793W        W41104  23.693  37.475  11.051
79794W        W41105   9.875  17.162  10.448
79795W        W41106  12.658  30.621   3.797
79796W        W41107   2.397  10.815   0.892
79797W        W41108  30.590  10.257  11.392
79798W        W41109  16.130  36.882   2.849
79799W        W41110  16.118   3.396   3.831
79800W        W41111  18.710  24.115  14.404
79801W        W41112   1.309  40.973   3.685
79802W        W41113   6.800  21.051  11.970
79803W        W41114  14.629  14.336   9.644
79804W        W41115  14.827   6.221  10.419
79805W        W41116  33.942   3.329  14.789
79806W        W41117   2.357  37.868   3.713
79807W        W41118  13.692  42.008   1.756
79808W        W41119  25.997  37.366   0.745
79809W        W41120  40.376  11.168   0.348
79810W        W41121   4.324  14.296  10.427
79811W        W41122   5.724  21.601  11.543
79812W        W41123  15.243  25.539   2.415
79813W        W41124  24.651  15.245   1.246
79814W        W41125  39.533  27.593   1.306
79815W        W41126  32.086   8.785  10.115
79816W        W41127  32.121  31.471   3.287
79817W        W41128  39.341  31.050   0.959
79818W        W41129  20.598   3.790  13.957
79819W        W41130  43.343  37.416   1.440
79820W        W41131  16.585  19.136  12.997
79821W        W41132  30.060  36.431  12.501
79822W        W41133  17.114  42.968  10.937
79823W        W41134   4.350   5.411   4.284
79824W        W41135  26.585  11.132  13.372
79825W        W41136  34.994   0.906  11.098
79826W        W41137  23.021  33.076   0.478
79827W        W41138  11.148  41.879   1.386
79828W        W41139  38.416   3.255  11.050
79829W        W41140  30.038  17.598   0.413
79830W        W41141  19.157   4.311  13.537
79831W        W41142  31.548  41.033   4.228
79832W        W41143  39.897  32.093  10.898
79833W        W41144  17.730  32.106  12.842
79834W        W41145  39.887   0.928   1.288
79835W        W41146   8.284   5.884  13.808
79836W        W41147   5.356  18.779   1.819
79837W        W41148  32.506  25.988  13.914
79838W        W41149  28.069  43.435  10.635
79839W        W41150  44.430  11.188  13.984
79840W        W41151  40.018   3.388  13.491
79841W        W41152  19.601  34.549   4.801
79842W        W41153  18.644   0.833  11.510
79843W        W41154  28.632  17.695  14.857
79844W        W41155   6.779  28.562  12.885
79845W        W41156  18.127   4.362  13.442
79846W        W41157   4.905  21.673   3.809
79847W        W41158  31.082  15.119   3.759
79848W        W41159  37.998   6.889  14.866
79849W        W41160  20.064  13.201  14.912
79850W        W41161   3.290  43.482  12.065
79851W        W41162  12.355  18.057   1.762
79852W        W41163  44.859  29.051  12.568
79853W        W41164  11.366  17.109   0.285
79854W        W41165  22.107  29.117   0.428
79855W        W41166  27.113  39.060  12.416
79856W        W41167  23.723   3.794   2.820
79857W        W41168  14.182   7.686   9.933
79858W        W41169  23.203  18.644  13.370
79859W        W41170  41.322  25.138   0.730
79860W        W41171   8.204  11.722  11.572
79861W        W41172  35.908  11.319   1.736
79862W        W41173   9.356  42.355  14.891
79863W        W41174   7.323  32.013  11.894
79864W        W41175  30.991  34.386   3.670
79865W        W41176  14.741  24.054   3.234
79866W        W41177  38.920  25.998   0.262
79867W        W41178  19.191  16.733   1.363
79868W        W41179   0.942   1.754  11.474
79869W        W41180  21.070  12.361  10.913
79870W        W41181  24.214  43.827   1.931
79871W        W41182  23.101  26.042  14.288
79872W        W41183  22.687  39.823   0.768
79873W        W41184  28.601   0.374  11.119
79874W        W41185  32.573  40.513   3.707
79875W        W41186  10.781  40.038   0.249
79876W        W41187  30.009   5.305  14.499
79877W        W41188  37.049  38.892   2.842
79878W        W41189   0.273  18.280  10.916
79879W        W41190  16.684   9.357   0.366
79880W        W41191  36.458  42.829   2.726
79881W        W41192  38.960  12.271   4.629
79882W        W41193  43.800  40.547  12.998
79883W        W41194  31.075  30.625   3.161
79884W        W41195  21.174  21.209  12.010
79885W        W41196  19.542  24.641  12.884
79886W        W41197  30.646   4.266  13.529
79887W        W41198  26.084   7.411   2.836
79888W        W41199  34.054  14.291  11.421
79889W        W41200  35.024  10.264  10.636
79890W        W41201  29.583  39.414  10.545
79891W        W41202  33.887  37.422  14.484
79892W        W41203   0.457  36.415  11.605
79893W        W41204  30.532   7.306  11.933
79894W        W41205  30.501  12.638  10.896
79895W        W41206  43.944  34.063   1.238
79896W        W41207  22.129  44.318   2.306
79897W        W41208  40.517  21.025   3.822
79898W        W41209  17.750  10.158  13.387
79899W        W41210   6.911  32.941  13.342
79900W        W41211  36.071   7.301   0.922
79901W        W41212  23.575  25.638   0.389
79902W        W41213  14.602  11.773  11.884
79903W        W41214   7.250   5.373  14.359
79904W        W41215  34.559   3.396  12.528
79905W        W41216  40.332  13.129   3.756
79906W        W41217  20.059  11.138   0.249
79907W        W41218   9.273  22.713   2.665
79908W        W41219  39.549  14.744  11.491
79909W        W41220   0.481  12.216   3.181
79910W        W41221   6.208  18.546  10.055
79911W        W41222  16.576   1.939  14.350
79912W        W41223  20.588   7.777   3.287
79913W        W41224  33.081  24.630   3.344
79914W        W41225  19.106  17.569   0.313
79915W        W41226  33.882   7.271   0.835
79916W        W41227  32.527  23.993   0.747
79917W        W41228  24.080  34.490   3.365
79918W        W41229  17.688   8.380  11.088
79919W        W41230  35.868  10.180   2.837
79920W        W41231  22.595   6.291  11.887
79921W        W41232  12.270  36.878  12.347
79922W        W41233  31.130  25.033  14.492
79923W        W41234  44.909  43.368   0.291
79924W        W41235   7.889  36.360   4.245
79925W        W41236   6.245  38.421  12.421
79926W        W41237  29.601  25.160   0.460
79927W        W41238  42.483   0.964  13.956
79928W        W41239  30.017  18.242  12.915
79929W        W41240  41.820  44.391  12.858
79930W        W41241   9.785   6.726   0.344
79931W        W41242   7.201  17.237  14.508
79932W        W41243  19.183  16.624  11.024
79933W        W41244  27.533  43.422   2.283
79934W        W41245  17.745  31.017  14.433
79935W        W41246  15.192  12.160  14.010
79936W        W41247   5.292  30.526  10.619
79937W        W41248   9.746  43.322  12.405
79938W        W41249  30.026  18.602   0.735
79939W        W41250  35.575  42.450   3.207
79940W        W41251   2.266  28.042  10.032
79941W        W41252  34.606  38.470   4.757
79942W        W41253   2.809  44.281  13.805
79943W        W41254  39.532  12.835  13.330
79944W        W41255  17.192  31.479   1.721
79945W        W41256  39.982  34.074  13.981
79946W        W41257   4.734   1.787   1.405
79947W        W41258  33.463   6.857   4.287
79948W        W41259  16.644  21.590   3.160
79949W        W41260  41.012   8.726   1.784
79950W        W41261  27.644  19.169   0.406
79951W        W41262  25.047  38.820   0.412
79952W        W41263  41.959  40.529   0.758
79953W        W41264  10.169   5.277  11.453
79954W        W41265  13.823  38.484  13.954
79955W        W41266  21.756   7.706  12.003
79956W        W41267  31.554   2.238   3.665
79957W        W41268  36.446   3.847  12.021
79958W        W41269   0.902  11.753  13.314
79959W        W41270   8.726  33.474   4.681
79960W        W41271  30.463   4.351   4.184
79961W        W41272   9.330  15.783  11.465
79962W        W41273  26.695  35.470   2.290
79963W        W41274  14.266   4.356   2.226
79964W        W41275  39.859  11.757   2.859
79965W        W41276  39.398  16.621  11.465
79966W        W41277  10.690  41.428   1.434
79967W        W41278  18.185  26.119   4.829
79968W        W41279  25.696  25.067   0.768
79969W        W41280   2.769   5.725   2.261
79970W        W41281   3.385   0.866   0.761
79971W        W41282  40.902  18.279   3.751
79972W        W41283  12.172   4.794  11.910
79973W        W41284   0.335  43.903   1.399
79974W        W41285  11.677  17.099  11.074
79975W        W41286  16.226  15.641   4.190
79976W        W41287   2.808   5.360   1.785
79977W        W41288  23.997   4.375   3.248
79978W        W41289   4.380  39.354   1.362
79979W        W41290  35.532   7.817   3.194
79980W        W41291  31.034  17.589  13.543
79981W        W41292  29.042  32.941  11.118
79982W        W41293  39.510  14.338  11.535
79983W        W41294  23.201   7.363   2.879
79984W        W41295   1.428  14.138   5.266
79985W        W41296  30.998  21.608  13.853
79986W        W41297  12.157  43.412   3.807
79987W        W41298  21.529   5.770  12.986
79988W        W41299   5.694  43.288   0.302
79989W        W41300  11.307  39.979  11.480
79990W        W41301  22.743   8.725   4.244
79991W        W41302  39.538  35.372  13.387
79992W        W41303  23.125  33.919  13.004
79993W        W41304  11.291  25.051  12.068
79994W        W41305   5.753  15.277   5.192
79995W        W41306  23.574  42.824   5.314
79996W        W41307  31.564  43.506  10.942
79997W        W41308  27.178   2.880   2.310
79998W        W41309  43.420  29.650   4.695
79999W        W41310  21.554  39.828  12.091
80000W        W41311  44.304  40.822   2.777
80001W        W41312  30.441  22.218   0.352
80002W        W41313   0.846   5.807   9.935
80003W        W41314  23.129   6.739  12.084
80004W        W41315  40.942  23.199  11.858
80005W        W41316  22.507  31.898  12.014
80006W        W41317  30.537   4.207   2.398
80007W        W41318  19.214  22.111   1.315
80008W        W41319   4.733   0.977   2.283
80009W        W41320   3.247   3.285  14.907
80010W        W41321  19.272  26.111   3.183
80011W        W41322  23.567   9.725   2.369
80012W        W41323  22.600  28.931   0.423
80013W        W41324  19.601  20.554  13.464
80014W        W41325  10.196  25.597   0.405
80015W        W41326  22.537   3.245   4.701
80016W        W41327  33.552  30.560   0.303
80017W        W41328  22.548  29.077   2.361
80018W        W41329  41.498  33.491   2.189
80019W        W41330  30.646   6.833  14.859
80020W        W41331  14.170  34.890  14.482
80021W        W41332  41.813   7.352  13.966
80022W        W41333  35.589  14.205   4.335
80023W        W41334   5.229  20.757  13.900
80024W        W41335  25.622  21.062   1.362
80025W        W41336  43.392  11.200   2.694
80026W        W41337   1.279  41.297  14.891
80027W        W41338  15.179   2.426   4.657
80028W        W41339   2.941  34.012  14.292
80029W        W41340   6.808  17.165   0.464
80030W        W41341  19.209  27.127  14.436
80031W        W41342  29.668  41.896  11.504
80032W        W41343  20.065  13.626   1.370
80033W        W41344   0.937  41.488  11.874
80034W        W41345  40.386  33.621   3.304
80035W        W41346  33.493  38.870  14.974
80036W        W41347  11.274  34.946   3.801
80037W        W41348  17.082  24.491   4.338
80038W        W41349   8.769  17.608  13.444
80039W        W41350  16.580  26.012  14.839
80040W        W41351  24.669  11.749   4.238
80041W        W41352  15.205  22.587  13.529
80042W        W41353  27.971  27.690   4.783
80043W        W41354  21.170  14.227  14.778
80044W        W41355  38.401  43.970   0.386
80045W        W41356  21.062   5.428   3.816
80046W        W41357  23.132  38.045  13.434
80047W        W41358  26.025  14.776  14.312
80048W        W41359  43.885  17.254  10.421
80049W        W41360  33.463  21.064   4.337
80050W        W41361  26.976   7.323  12.495
80051W        W41362  25.055  10.704  11.451
80052W        W41363  26.593  10.858   4.283
80053W        W41364  13.226  13.832  10.427
80054W        W41365  35.446  27.476   4.715
80055W        W41366   6.199  37.949  14.851
80056W        W41367   2.443  25.508   2.830
80057W        W41368  34.600  38.888   2.370
80058W        W41369  32.458  40.932  10.613
80059W        W41370  31.512  38.361   4.118
80060W        W41371   5.403  23.169  13.452
80061W        W41372  17.260  32.989   3.862
80062W        W41373  43.785  18.681  14.350
80063W        W41374  34.892  15.089   2.781
80064W        W41375  30.133  14.178  12.438
80065W        W41376   6.677   7.182   0.901
80066W        W41377  37.449   7.270  13.358
80067W        W41378  28.465  19.741   3.213
80068W        W41379  40.390  29.604  12.375
80069W        W41380  20.693  21.728  11.558
80070W        W41381   6.803   3.728   1.436
80071W        W41382  17.688  21.030   0.745
80072W        W41383  41.787  42.358   2.783
80073W        W41384  11.703  22.161  12.506
80074W        W41385  28.617  24.564   3.791
80075W        W41386   4.213  19.180   2.340
80076W        W41387  12.816   2.417   4.635
80077W        W41388  21.742  15.749   1.377
80078W        W41389   3.813  41.802   4.341
80079W        W41390  36.907  27.620  12.863
80080W        W41391  37.521  13.137   0.816
80081W        W41392   1.864  15.705   3.779
80082W        W41393  34.537  14.656   1.867
80083W        W41394   2.862  38.423   1.424
80084W        W41395  44.876  19.272   3.297
80085W        W41396  33.588  27.094   2.877
80086W        W41397  19.046  42.851  11.494
80087W        W41398  43.912  39.971  14.376
80088W        W41399  25.483  39.946   2.761
80089W        W41400   5.224  29.489   3.671
80090W        W41401   0.970  30.612   1.764
80091W        W41402   9.342  15.221   3.816
80092W        W41403   0.920  28.946   4.634
80093W        W41404  15.240  44.838  14.339
80094W        W41405  30.983  28.141  12.375
80095W        W41406  22.668   4.902  11.589
80096W        W41407  34.077  10.299   9.974
80097W        W41408  40.867  15.329   4.700
80098W        W41409  26.071  24.562   2.823
80099W        W41410  38.043  40.535   3.664
80100W        W41411   3.798  13.252  11.974
80101W        W41412  42.776  18.686  14.432
80102W        W41413  19.673  32.086   3.688
80103W        W41414   1.268  19.588   1.393
80104W        W41415  15.722   7.248   3.318
80105W        W41416  15.268  26.631  11.494
80106W        W41417  28.093  27.086  11.558
80107W        W41418  11.841   9.778   4.829
80108W        W41419  32.552   8.209   2.400
80109W        W41420   6.880  29.437  10.901
80110W        W41421  40.496   2.865   4.267
80111W        W41422  15.645  15.254  12.979
80112W        W41423  31.982   6.747   3.813
80113W        W41424   7.244   2.390   0.887
80114W        W41425  17.680  38.372   3.179
80115W        W41426  35.108  14.781   1.417
80116W        W41427  26.459  32.596   1.796
80117W        W41428  27.966  18.766   4.667
80118W        W41429  29.970  17.558   1.356
80119W        W41430  18.560  14.263  11.886
80120W        W41431  11.626  25.029  11.994
80121W        W41432  35.557  28.646  10.913
80122W        W41433  17.206  22.230  13.505
80123W        W41434  27.583  42.460   4.235
80124W        W41435  20.555  24.638   4.225
80125W        W41436  32.914  36.363   4.128
80126W        W41437  17.576  14.134   3.237
80127W        W41438  12.850  16.292   4.318
80128W        W41439  10.165  10.733  10.581
80129W        W41440  29.126  30.658  13.477
80130W        W41441  34.458  32.523  13.385
80131W        W41442  24.663  38.373  10.445
80132W        W41443  15.144  40.365  10.507
80133W        W41444   1.343  19.643   3.636
80134W        W41445   1.423  22.626  11.477
80135W        W41446  27.126  29.551  12.399
80136W        W41447   3.433  24.016  13.055
80137W        W41448  27.548  16.726   3.382
80138W        W41449  10.677  39.401  14.990
80139W        W41450  34.404  31.008  13.882
80140W        W41451  18.728  40.831  13.862
80141W        W41452  43.827   1.385   4.224
80142W        W41453  35.879  30.141  11.516
80143W        W41454  27.033   1.927  12.377
80144W        W41455  22.608   4.412  12.909
80145W        W41456  34.528  14.594  14.380
80146W        W41457   0.976  19.615   0.759
80147W        W41458  16.757   2.858   1.777
80148W        W41459  26.137  27.674   1.324
80149W        W41460   3.322  38.964   0.472
80150W        W41461  33.385  16.213   1.908
80151W        W41462  24.703  16.797  14.325
80152W        W41463  20.593  18.165  14.933
80153W        W41464  18.557  24.485   1.811
80154W        W41465  20.548   1.327   0.731
80155W        W41466  26.462  13.622  12.049
80156W        W41467  44.395  44.481  14.414
80157W        W41468  44.444  15.638  10.506
80158W        W41469   2.226  27.453  12.522
80159W        W41470  41.423   8.839   0.826
80160W        W41471  19.629   3.377  11.593
80161W        W41472  37.985  30.005   0.836
80162W        W41473  30.927  42.798  14.964
80163W        W41474   9.770  14.617  11.086
80164W        W41475  24.991  34.405  13.887
80165W        W41476  13.138  20.193  14.391
80166W        W41477  41.926  33.928   2.186
80167W        W41478  12.718  37.962  11.391
80168W        W41479  13.658   6.407   0.471
80169W        W41480  29.572  26.124  13.427
80170W        W41481  37.050  26.693   3.634
80171W        W41482  39.009   9.743   0.910
80172W        W41483  15.641   2.282  10.898
80173W        W41484  30.509   3.781  13.035
80174W        W41485   5.206   8.159  14.508
80175W        W41486   7.859  32.555  13.884
80176W        W41487  26.660  43.996   2.338
80177W        W41488  22.098  35.417  11.926
80178W        W41489  15.683  16.198  11.916
80179W        W41490  18.084   8.708  12.858
80180W        W41491  25.519  12.341  13.363
80181W        W41492  11.741   6.761  12.983
80182W        W41493  30.520   5.430  11.072
80183W        W41494  16.294   7.825   4.809
80184W        W41495  34.419  41.033  13.364
80185W        W41496  42.417  29.546   2.277
80186W        W41497  22.530  36.009   4.706
80187W        W41498  36.467   3.830   3.365
80188W        W41499  12.267   7.396  11.085
80189W        W41500  38.412   3.440  14.319
80190W        W41501  13.191  39.386  14.771
80191W        W41502  33.912  40.004  13.968
80192W        W41503  38.475  20.228  13.496
80193W        W41504   2.362   5.359  10.610
80194W        W41505   4.347  35.556   4.683
80195W        W41506  42.781  41.799  14.332
80196W        W41507  23.585  21.638   0.333
80197W        W41508  44.805  17.093   3.860
80198W        W41509   5.331  24.639  14.861
80199W        W41510  26.515  39.378  14.345
80200W        W41511  16.637  11.798   0.957
80201W        W41512  41.298  16.710  14.827
80202W        W41513   8.753  31.556  14.975
80203W        W41514   7.295  28.473  10.955
80204W        W41515  36.076  34.882  11.440
80205W        W41516  16.201   4.734  14.344
80206W        W41517  35.860  21.112  14.934
80207W        W41518  17.125   0.291   0.758
80208W        W41519  20.635   3.458  11.936
80209W        W41520  15.129  37.398   5.284
80210W        W41521  40.512  44.842  12.491
80211W        W41522  20.569  24.626  11.588
80212W        W41523  22.514   6.874   0.814
80213W        W41524  18.688  16.255  12.407
80214W        W41525  42.923  22.110  11.437
80215W        W41526  36.003  33.523  13.445
80216W        W41527   8.803  30.429   3.333
80217W        W41528  14.215   9.722  14.024
80218W        W41529   6.702  11.213   1.788
80219W        W41530  12.733  22.222   3.149
80220W        W41531  40.474  33.470  11.111
80221W        W41532  38.998  37.361  14.503
80222W        W41533   2.848  28.996  10.545
80223W        W41534   6.787  20.052  11.397
80224W        W41535   7.330  32.447   0.307
80225W        W41536  44.402  18.760  13.816
80226W        W41537  16.809   8.813   1.220
80227W        W41538  20.158   0.253  13.526
80228W        W41539   0.984  40.852   3.208
80229W        W41540  34.016  35.370   4.245
80230W        W41541  29.595  31.022   3.359
80231W        W41542  26.678  28.461  11.965
80232W        W41543  17.745  29.021  14.943
80233W        W41544  11.170  33.589   0.308
80234W        W41545  35.056  10.706  12.079
80235W        W41546  25.156   6.421   1.298
80236W        W41547  29.933  12.304  14.002
80237W        W41548   1.777  24.615   2.359
80238W        W41549  36.034  33.115  11.578
80239W        W41550  42.454  16.184   1.881
80240W        W41551  18.210   9.785  13.488
80241W        W41552   8.388   9.842   2.709
80242W        W41553  32.998   1.896  11.022
80243W        W41554  12.744   6.348  14.811
80244W        W41555  26.632  24.716  13.372
80245W        W41556  19.104  14.822  14.009
80246W        W41557  16.600  24.165   3.642
80247W        W41558  41.517  42.880  13.448
80248W        W41559  37.918  18.686  11.462
80249W        W41560  21.516  21.071   3.769
80250W        W41561  36.561   7.355   2.298
80251W        W41562  33.131  44.454   0.464
80252W        W41563   7.349  21.185   2.668
80253W        W41564  32.130   0.953  14.353
80254W        W41565   6.386  16.096   3.151
80255W        W41566  12.831  41.881   3.170
80256W        W41567  18.155  38.465   5.290
80257W        W41568  34.885  26.463   3.264
80258W        W41569   0.797   8.754   3.202
80259W        W41570  13.840  27.484   0.794
80260W        W41571   0.931  36.470   2.688
80261W        W41572  23.628  31.042  12.031
80262W        W41573   1.920  26.675   1.434
80263W        W41574  34.943   5.883   2.414
80264W        W41575   8.761  38.011  14.840
80265W        W41576  13.140  42.457   0.740
80266W        W41577  13.179  15.679  13.438
80267W        W41578   0.472  33.546   3.751
80268W        W41579   8.772   5.323  13.858
80269W        W41580  40.806  21.143   2.871
80270W        W41581  43.004  14.169  13.886
80271W        W41582  25.200   9.366  14.444
80272W        W41583  36.533  40.798   3.670
80273W        W41584  33.596  42.340   0.740
80274W        W41585  39.041  16.655  12.472
80275W        W41586  17.150  42.963   5.083
80276W        W41587   6.375  39.870   3.159
80277W        W41588  44.445  44.952   0.939
80278W        W41589  21.728   0.860   1.858
80279W        W41590  19.283  28.036  11.441
80280W        W41591  29.500   9.863   3.642
80281W        W41592  22.251   2.792   3.720
80282W        W41593   5.853  31.457   1.850
80283W        W41594  30.562  16.705   2.325
80284W        W41595  15.654  25.147  14.378
80285W        W41596  24.161  12.706  14.017
80286W        W41597  24.542  21.676  14.398
80287W        W41598  34.863  12.766   1.258
80288W        W41599  25.067  19.751   5.141
80289W        W41600   8.882  22.021  14.931
80290W        W41601   6.301  28.582   3.238
80291W        W41602  38.938   1.768   4.716
80292W        W41603  37.038  25.966   1.710
80293W        W41604  37.019  34.004  10.431
80294W        W41605  17.603  44.813  12.386
80295W        W41606  31.993  22.179   9.952
80296W        W41607  34.038   0.343  14.029
80297W        W41608  23.570  32.020   4.282
80298W        W41609  44.395  40.539   4.659
80299W        W41610  37.536   9.328   2.340
80300W        W41611  41.532   3.307   0.738
80301W        W41612  30.038  43.775  11.982
80302W        W41613  17.557  20.200  10.901
80303W        W41614  38.421  24.004  10.987
80304W        W41615  10.324   6.203   3.376
80305W        W41616  23.213   4.890   3.183
80306W        W41617   9.269  25.621  12.567
80307W        W41618  37.844   5.304   0.255
80308W        W41619  22.588  36.384  12.926
80309W        W41620  27.514  26.186  12.891
80310W        W41621  37.023  31.908  11.114
80311W        W41622  41.899  15.699   0.420
80312W        W41623   0.323   7.410  11.534
80313W        W41624   6.900  21.644   4.291
80314W        W41625  10.185  17.723  11.955
80315W        W41626   4.239  28.581   3.716
80316W        W41627   5.197  10.216   2.382
80317W        W41628  39.329  36.990   1.754
80318W        W41629   8.288  39.036  11.110
80319W        W41630  15.757   3.395  12.546
80320W        W41631  25.155   4.904   0.326
80321W        W41632  29.662  25.172  10.630
80322W        W41633   1.357  35.021  14.896
80323W        W41634  34.082  42.469   2.318
80324W        W41635  25.547   9.239   4.723
80325W        W41636  36.585  23.208  10.489
80326W        W41637  26.606  20.029   9.550
80327W        W41638  14.326  27.113   0.930
80328W        W41639  30.459  34.874   2.804
80329W        W41640  13.818  22.658   4.338
80330W        W41641  39.953  38.502  12.991
80331W        W41642  44.766  13.713  11.971
80332W        W41643  39.815  16.722  14.935
80333W        W41644  23.167  26.048  10.925
80334W        W41645   1.826  37.030   4.147
80335W        W41646  25.026   1.250  12.977
80336W        W41647   7.788  40.523  12.518
80337W        W41648  34.478  28.626   5.652
80338W        W41649  39.059  37.839   1.856
80339W        W41650   8.381  38.035  12.025
80340W        W41651  41.849   0.940   0.341
80341W        W41652  21.611  44.773  11.447
80342W        W41653   9.204  35.057   2.733
80343W        W41654  10.780   4.364  14.849
80344W        W41655   8.199   1.873  12.447
80345W        W41656  38.563  24.698  12.477
80346W        W41657  43.299  40.495  14.408
80347W        W41658   1.880  11.656   2.676
80348W        W41659  28.107  30.931   4.226
80349W        W41660  12.165  11.692  13.982
80350W        W41661  13.318  30.918  11.947
80351W        W41662  21.249  16.160   0.928
80352W        W41663  22.234  38.334  12.378
80353W        W41664  15.703   6.760   4.140
80354W        W41665  42.467   8.256   0.905
80355W        W41666  13.298  31.481   2.197
80356W        W41667  32.901  12.679   4.159
80357W        W41668  39.435  31.642  13.039
80358W        W41669  39.049  27.563  10.535
80359W        W41670  39.931   8.882  13.843
80360W        W41671   8.276   7.171   2.230
80361W        W41672  12.723   4.714   3.385
80362W        W41673  41.395  31.031  11.550
80363W        W41674  13.635  13.701  14.470
80364W        W41675  29.590  18.150   2.226
80365W        W41676   8.882   6.919  11.036
80366W        W41677   6.379  39.403  14.998
80367W        W41678  10.752  10.218   1.860
80368W        W41679  37.345   0.785   5.094
80369W        W41680  24.513   2.274  12.851
80370W        W41681   1.439  31.054   3.359
80371W        W41682  12.216  24.642   3.376
80372W        W41683   0.980  23.544  10.635
80373W        W41684  23.201   2.449  12.540
80374W        W41685  15.746  36.565  11.867
80375W        W41686  35.383   2.274   2.717
80376W        W41687  38.953   1.808   4.309
80377W        W41688   3.922   4.219  14.826
80378W        W41689  36.361  24.606   1.839
80379W        W41690  30.106   9.246  12.366
80380W        W41691  36.959  28.935   3.759
80381W        W41692  13.240   9.870   4.331
80382W        W41693  12.224  36.896  11.582
80383W        W41694  21.518  20.167  13.472
80384W        W41695   9.798  19.215  10.999
80385W        W41696  43.879  27.653  13.016
80386W        W41697  31.413  32.533  14.461
80387W        W41698  11.771   9.685  12.946
80388W        W41699  17.164   4.932  14.351
80389W        W41700  39.404   5.714   2.695
80390W        W41701  20.169  15.249  11.524
80391W        W41702   7.336   0.437  14.031
80392W        W41703  26.192  28.484  12.003
80393W        W41704  42.351  12.207  11.920
80394W        W41705  13.745  31.631  14.287
80395W        W41706  31.612   9.297   1.308
80396W        W41707  13.245  16.090  11.128
80397W        W41708  42.311  18.147  14.991
80398W        W41709  11.201  25.669  12.945
80399W        W41710  20.068  31.471  13.866
80400W        W41711  35.395  19.646   2.363
80401W        W41712  41.969   1.958  12.918
80402W        W41713  42.968  44.835  12.057
80403W        W41714   4.279  39.362  11.480
80404W        W41715  30.640  29.559  12.877
80405W        W41716   2.956   1.473   1.226
80406W        W41717   0.827   0.468  13.861
80407W        W41718  43.298   0.405   4.784
80408W        W41719  25.128  37.354   4.708
80409W        W41720  28.591  36.886   0.268
80410W        W41721  24.145  44.961  13.906
80411W        W41722   0.960   5.881   0.433
80412W        W41723   6.400  35.011   0.793
80413W        W41724  26.497  32.886  12.416
80414W        W41725  18.705  14.195  14.890
80415W        W41726   4.415   8.821  14.770
80416W        W41727  30.028   8.781   3.847
80417W        W41728  38.515  33.563   3.232
80418W        W41729  20.175  11.738   1.264
80419W        W41730  29.494  35.013   4.795
80420W        W41731  11.299  23.178  11.445
80421W        W41732  12.834  44.502  13.851
80422W        W41733  35.425   0.817  13.025
80423W        W41734  28.660   2.872   3.693
80424W        W41735  35.869  28.992  11.568
80425W        W41736  17.765  10.294   0.865
80426W        W41737  17.222  22.026   0.322
80427W        W41738   4.352  38.843  10.933
80428W        W41739  42.787  27.079  11.543
80429W        W41740  11.772  15.189  11.013
80430W        W41741   9.171  24.507   4.724
80431W        W41742  38.830  43.319  13.834
80432W        W41743  37.981  35.928   5.191
80433W        W41744  17.200   2.811   1.910
80434W        W41745   3.909  41.965  13.922
80435W        W41746  26.088  20.201  14.356
80436W        W41747  35.892   3.389   2.755
80437W        W41748  27.150  20.646  10.114
80438W        W41749  20.125  34.871  14.998
80439W        W41750  22.610   9.261  10.437
80440W        W41751  11.334   5.398   2.234
80441W        W41752  44.901  11.272  11.001
80442W        W41753   0.825  44.814   4.672
80443W        W41754  42.990  23.223  11.405
80444W        W41755   6.891   2.846  10.517
80445W        W41756  42.806  38.547   3.294
80446W        W41757   4.821  33.095  12.025
80447W        W41758  40.017  10.295  12.482
80448W        W41759  41.963  31.965  13.046
80449W        W41760  14.666  38.473  14.803
80450W        W41761   1.271  27.522  11.076
80451W        W41762   3.428   9.238   1.363
80452W        W41763   2.835  29.991  12.385
80453W        W41764  10.759   4.221   4.124
80454W        W41765  24.506  44.262   0.335
80455W        W41766  28.060  28.166  14.873
80456W        W41767  38.014  41.460   3.387
80457W        W41768  31.137  38.428  13.324
80458W        W41769   6.888  36.924   0.935
80459W        W41770  34.428  37.984  13.955
80460W        W41771  20.091  12.624  11.016
80461W        W41772  36.045  31.911   5.103
80462W        W41773  37.450  29.027   3.303
80463W        W41774  16.105  19.227  10.416
80464W        W41775  15.150  27.588  13.000
80465W        W41776  20.218  10.181   2.670
80466W        W41777   0.368   4.247   3.742
80467W        W41778  35.001  23.522   1.279
80468W        W41779   6.284  28.468  13.949
80469W        W41780  36.399  17.742  11.991
80470W        W41781   9.725  10.820   3.292
80471W        W41782  40.356  25.205   3.272
80472W        W41783  38.984   8.249  10.623
80473W        W41784  17.175  24.603  13.013
80474W        W41785   2.433  24.041  14.928
80475W        W41786  11.188  22.738  13.373
80476W        W41787  43.352  15.816   4.174
80477W        W41788  40.518  44.788  13.034
80478W        W41789  36.586  15.206   4.331
80479W        W41790   8.813   4.829   5.220
80480W        W41791   5.424  43.923   4.196
80481W        W41792  40.455  25.093  12.562
80482W        W41793   1.856  14.250  11.912
80483W        W41794  31.134   3.383  11.423
80484W        W41795  19.280  41.532  13.998
80485W        W41796  34.029  20.741  12.560
80486W        W41797  11.652  24.558   2.333
80487W        W41798  27.117  16.616  14.879
80488W        W41799  30.583  43.793  12.041
80489W        W41800   7.247  39.987   0.894
80490W        W41801  22.528  10.293  10.069
80491W        W41802  38.063   8.734   0.847
80492W        W41803  38.463   7.890   1.928
80493W        W41804  10.298  33.384   0.282
80494W        W41805  40.865  30.571   2.735
80495W        W41806  29.014  27.532   0.389
80496W        W41807   1.380  12.294  13.989
80497W        W41808  31.545  21.680  13.448
80498W        W41809  20.562  30.133   3.841
80499W        W41810  42.824   5.867   4.253
80500W        W41811  17.681   4.846   2.884
80501W        W41812  21.112  33.895   0.913
80502W        W41813  14.719  12.766  10.156
80503W        W41814  21.249  35.564   2.396
80504W        W41815  30.649  30.611   4.224
80505W        W41816  23.182   7.698   1.741
80506W        W41817  33.412  19.587   4.722
80507W        W41818   0.834  39.943   4.127
80508W        W41819  16.131  27.122   1.326
80509W        W41820   2.733  37.418  14.435
80510W        W41821   5.307  24.040  13.347
80511W        W41822  13.176  34.607   2.352
80512W        W41823  15.785  44.354  11.995
80513W        W41824  14.781  32.007  13.835
80514W        W41825  43.786  41.523   4.313
80515W        W41826  22.082   9.154   0.779
80516W        W41827  35.583   2.239   2.414
80517W        W41828  19.151  19.243  14.023
80518W        W41829  31.127  18.601   2.723
80519W        W41830  36.042   5.263   1.379
80520W        W41831  24.164  11.140   0.328
80521W        W41832   1.909   2.406  10.643
80522W        W41833  25.002  22.520   4.781
80523W        W41834  37.543  42.468  14.513
80524W        W41835  22.725  16.128  11.602
80525W        W41836   1.452  12.662   2.815
80526W        W41837  14.597  27.084   3.786
80527W        W41838  22.104   9.877  12.051
80528W        W41839  37.001  40.896   1.405
80529W        W41840  29.142  44.895  12.874
80530W        W41841  31.529  16.743   1.329
80531W        W41842  32.632   9.738  11.085
80532W        W41843  31.433  41.419  14.467
80533W        W41844   4.827   8.348  13.055
80534W        W41845   2.335  41.036   3.262
80535W        W41846   6.801  35.055   3.856
80536W        W41847  43.314   3.440  13.451
80537W        W41848  10.269  38.357  10.517
80538W        W41849   4.352  34.450   0.399
80539W        W41850  44.398  28.186   3.272
80540W        W41851   5.930  40.462  10.613
80541W        W41852  12.191   7.893  14.884
80542W        W41853  26.987  12.300   4.145
80543W        W41854   9.189   8.671   3.836
80544W        W41855  28.635   7.231  14.895
80545W        W41856   1.355   3.305  10.483
80546W        W41857  43.510  18.721   0.933
80547W        W41858  20.088  24.483  12.996
80548W        W41859  13.833  25.090  12.560
80549W        W41860  23.208  43.941  11.859
80550W        W41861  29.955  15.628   2.715
80551W        W41862   2.918  40.321  12.915
80552W        W41863  15.659  24.213  13.384
80553W        W41864   1.293  17.079  13.526
80554W        W41865  22.725   7.263  12.374
80555W        W41866  17.723   6.427   4.696
80556W        W41867   2.325  34.437   9.983
80557W        W41868  38.483  42.505  12.828
80558W        W41869  26.140   1.358   1.742
80559W        W41870  23.134  27.646   9.572
80560W        W41871  24.988  26.614  10.460
80561W        W41872  33.580  13.163  10.526
80562W        W41873  39.559  40.468   1.289
80563W        W41874  10.873  40.974  12.839
80564W        W41875  24.562  22.138   5.167
80565W        W41876  30.048   1.741  13.998
80566W        W41877  33.923  13.308   3.331
80567W        W41878  28.583  19.048   1.742
80568W        W41879  15.746  34.925  14.421
80569W        W41880  38.949  13.149   0.306
80570W        W41881   5.763  13.730  13.334
80571W        W41882  39.547  32.902   3.799
80572W        W41883  29.580  27.475   4.735
80573W        W41884  17.279  22.623   1.279
80574W        W41885  17.295   0.379   3.180
80575W        W41886   7.271   0.474  11.090
80576W        W41887  28.036  12.752  13.003
80577W        W41888   5.430  34.901   1.371
80578W        W41889  30.603   9.867   1.761
80579W        W41890  28.605  17.173  11.607
80580W        W41891   3.320   0.486   3.252
80581W        W41892   9.671  33.984   2.687
80582W        W41893  12.673  21.126   0.304
80583W        W41894   0.410   2.325   2.707
80584W        W41895  18.766  25.054  12.945
80585W        W41896   7.681   9.171   3.778
80586W        W41897   9.737  36.097  13.910
80587W        W41898  39.400   4.838  13.487
80588W        W41899  22.633  32.128  11.470
80589W        W41900   4.870  32.913   1.714
80590W        W41901  12.135  32.623  13.430
80591W        W41902  11.354  41.319   1.211
80592W        W41903  27.524  34.119   0.761
80593W        W41904  44.382   3.229  14.331
80594W        W41905  17.709  41.829   0.894
80595W        W41906  20.237  35.893  10.142
80596W        W41907  10.670  32.580   2.268
80597W        W41908  17.603   0.909   4.268
80598W        W41909  23.548  39.424  12.040
80599W        W41910   1.452   0.928   1.879
80600W        W41911   7.185  36.437  13.510
80601W        W41912  25.085   2.909  14.804
80602W        W41913  22.536  23.598   4.128
80603W        W41914  11.797  14.305  12.499
80604W        W41915  28.510  43.985   1.278
80605W        W41916  18.168  41.503   1.301
80606W        W41917  37.934  41.005   3.699
80607W        W41918  31.024  14.813  11.052
80608W        W41919   5.410  44.287  13.042
80609W        W41920  39.327   4.395   2.418
80610W        W41921  39.957  15.102   3.275
80611W        W41922  29.159  28.531  11.011
80612W        W41923   3.219  26.654  10.115
80613W        W41924   3.855  15.169   4.326
80614W        W41925  30.540  14.827  14.813
80615W        W41926  44.915  30.432  11.500
80616W        W41927  17.686  35.088  14.342
80617W        W41928  12.844  43.899   1.210
80618W        W41929  13.839   5.883   1.931
80619W        W41930  10.812  22.693   0.358
80620W        W41931  10.701  40.314  12.912
80621W        W41932   3.219  10.180   0.423
80622W        W41933  35.920  28.446  11.377
80623W        W41934  36.521   7.247  13.821
80624W        W41935  27.646   5.813   1.887
80625W        W41936  29.449  10.666  11.456
80626W        W41937  28.140   2.239  13.547
80627W        W41938  17.185  33.393   2.704
80628W        W41939  21.597  35.476  12.526
80629W        W41940  12.361  17.569  13.516
80630W        W41941   9.368   9.345   0.464
80631W        W41942  42.337  41.421  12.862
80632W        W41943   7.406  38.565   0.883
80633W        W41944  15.726  18.141  14.475
80634W        W41945  23.232   4.794   1.921
80635W        W41946  24.230  42.407   4.653
80636W        W41947  44.832  30.544   2.418
80637W        W41948  39.999  11.625   4.136
80638W        W41949  29.172  42.342   1.875
80639W        W41950  30.139  19.758  10.559
80640W        W41951   2.841  25.118  13.988
80641W        W41952  24.683  17.103   0.813
80642W        W41953  29.034  26.166   2.395
80643W        W41954  28.547   9.696   5.118
80644W        W41955  38.496  44.915   2.830
80645W        W41956  39.954  41.951  12.362
80646W        W41957  19.276  27.068   1.273
80647W        W41958   0.985  32.533  12.831
80648W        W41959  26.525  14.196   1.440
80649W        W41960   5.212  26.546  11.040
80650W        W41961  31.089  24.670   3.646
80651W        W41962   8.365  29.621  13.362
80652W        W41963  41.330  11.826   4.292
80653W        W41964   9.291  19.553  11.869
80654W        W41965  13.152  23.610   5.144
80655W        W41966  11.755  41.381  11.935
80656W        W41967  17.707  13.781   3.714
80657W        W41968  31.505  22.213  13.504
80658W        W41969  37.405  37.569   1.245
80659W        W41970  32.518   2.898  12.860
80660W        W41971  31.026  30.431  11.422
80661W        W41972  15.113  40.870  13.843
80662W        W41973  25.643   3.422   0.809
80663W        W41974  28.664  37.486  13.927
80664W        W41975  33.963  44.943   4.661
80665W        W41976  18.177  17.776   2.703
80666W        W41977  28.045  23.695   0.404
80667W        W41978  16.738  16.773   0.819
80668W        W41979  21.140  19.067  11.965
80669W        W41980  23.066  42.031  13.329
80670W        W41981  26.160  32.961   0.261
80671W        W41982  27.464   1.827  12.936
80672W        W41983  38.991  28.092  14.371
80673W        W41984  25.695   2.963  14.911
80674W        W41985  40.425  25.560  13.040
80675W        W41986  22.614   1.246   0.456
80676W        W41987  28.134   0.419  11.538
80677W        W41988   3.386  17.579   5.314
80678W        W41989   6.751  37.930  13.049
80679W        W41990  37.468  36.367  13.408
80680W        W41991  13.330  35.983   1.813
80681W        W41992  37.856  25.110  12.078
80682W        W41993   6.267  20.232  14.483
80683W        W41994   7.747  22.116   3.867
80684W        W41995  22.017  35.980  10.609
80685W        W41996  43.446  41.991  11.591
80686W        W41997  36.438  17.685   1.214
80687W        W41998  27.622  29.504   2.766
80688W        W41999  15.596  18.690   2.302
80689W        W42000  33.004   9.658   2.245
80690W        W42001  31.928  43.465   0.949
80691W        W42002  37.459  11.220  14.458
80692W        W42003   0.294   1.251   0.303
80693W        W42004   8.754  21.714  12.453
80694W        W42005  25.032   0.916  13.451
80695W        W42006   1.947  41.441  13.532
80696W        W42007  42.502  33.988  10.458
80697W        W42008  20.082   6.230   1.696
80698W        W42009  36.511  32.547  12.996
80699W        W42010   8.282  41.038   4.341
80700W        W42011   0.969  26.966   1.833
80701W        W42012  17.215  30.024  14.321
80702W        W42013  43.319  21.606   1.237
80703W        W42014  37.893  35.931  12.541
80704W        W42015  29.119   2.373  10.494
80705W        W42016   5.404  15.757   2.765
80706W        W42017  29.079  34.994  13.425
80707W        W42018   3.837  28.605   0.376
80708W        W42019  29.948   0.983  10.970
80709W        W42020  25.574  42.932   3.157
80710W        W42021  16.223   7.245   3.244
80711W        W42022   7.273   8.773   2.678
80712W        W42023   3.744  30.974   4.320
80713W        W42024   8.216  27.042  13.836
80714W        W42025  24.060  25.212   4.284
80715W        W42026  21.208   0.375  11.568
80716W        W42027  25.018  13.206   2.215
80717W        W42028  32.996  14.679   4.788
80718W        W42029  30.034  30.491  11.025
80719W        W42030  32.594  17.090   3.187
80720W        W42031  23.615   6.210   3.706
80721W        W42032  24.544  22.530  12.354
80722W        W42033  21.232  25.470   5.219
80723W        W42034  24.163  13.215  14.972
80724W        W42035  41.533  33.952   0.348
80725W        W42036  30.612  26.129  14.785
80726W        W42037  43.422   2.964  12.900
80727W        W42038   3.454  26.494   1.372
80728W        W42039   6.832  27.175  13.351
80729W        W42040  24.184  29.642  12.837
80730W        W42041  35.579  23.133   1.839
80731W        W42042  11.706   7.347   3.814
80732W        W42043  27.537  27.544   3.846
80733W        W42044   5.374   2.898  10.958
80734W        W42045   6.844  27.130  14.448
80735W        W42046  37.836  12.231   4.257
80736W        W42047  22.119  40.837   1.404
80737W        W42048  12.328  43.939   0.362
80738W        W42049  29.474  22.203  14.323
80739W        W42050  30.991  17.796   1.909
80740W        W42051  36.501  34.016   4.230
80741W        W42052  20.029   6.864  10.448
80742W        W42053   9.246  10.221  12.510
80743W        W42054   7.232  37.976  12.010
80744W        W42055  35.008  18.777  12.962
80745W        W42056  28.977   8.674  14.861
80746W        W42057  21.556  41.492   3.697
80747W        W42058  18.240   5.705  13.468
80748W        W42059  43.280  31.908   3.726
80749W        W42060  31.640  24.165  11.034
80750W        W42061  39.868  21.246   1.838
80751W        W42062  24.177  44.340  13.023
80752W        W42063  37.348  27.514  11.384
80753W        W42064  36.462  16.301  11.960
80754W        W42065  27.544  18.673  11.911
80755W        W42066   8.278  18.675  13.333
80756W        W42067  38.352  17.676   0.799
80757W        W42068   6.317   5.735  14.402
80758W        W42069  22.574  23.514   1.264
80759W        W42070  42.016  29.598  12.396
80760W        W42071   0.417  29.033  14.417
80761W        W42072   5.754   8.372   4.186
80762W        W42073  25.664   0.336   0.734
80763W        W42074   3.311  26.573   2.872
80764W        W42075  34.055   8.356   0.913
80765W        W42076  11.723  26.651  13.479
80766W        W42077  35.945  13.277   3.799
80767W        W42078   8.706  15.791  12.008
80768W        W42079  34.605   6.321  13.981
80769W        W42080  37.991   5.236   1.343
80770W        W42081   2.766  39.001  10.434
80771W        W42082  44.333  26.192  13.878
80772W        W42083  15.812  23.075   1.414
80773W        W42084  32.026  27.563   2.766
80774W        W42085  30.631  21.112   4.650
80775W        W42086  14.167  34.491   2.708
80776W        W42087   4.935  17.110  11.066
80777W        W42088  10.261  15.304   4.838
80778W        W42089  22.644   1.934  11.119
80779W        W42090  32.125   5.857  10.926
80780W        W42091  18.092  15.264   1.888
80781W        W42092  44.419  39.007   5.135
80782W        W42093  25.572  22.064  11.084
80783W        W42094  37.339  42.850  11.017
80784W        W42095  19.605  28.572   1.772
80785W        W42096  22.638   8.711  14.910
80786W        W42097  29.582   5.701   0.900
80787W        W42098  44.340  32.003  11.405
80788W        W42099  17.638   9.879   4.243
80789W        W42100  17.149  22.013  13.835
80790W        W42101  29.607  19.197   3.783
80791W        W42102  12.309  25.983  10.904
80792W        W42103   0.960  35.059  14.011
80793W        W42104  23.010   4.405   1.820
80794W        W42105  34.446  37.025  14.327
80795W        W42106   4.829   0.418  12.000
80796W        W42107  15.213   7.298   1.391
80797W        W42108  44.822  42.444  12.923
80798W        W42109   3.903  36.569  12.070
80799W        W42110  28.963  16.647  13.335
80800W        W42111   0.841  23.555  12.474
80801W        W42112  21.617   0.381   2.662
80802W        W42113  15.134   9.245  12.429
80803W        W42114  22.509  25.574  12.503
80804W        W42115  22.670  33.441  12.424
80805W        W42116  27.588  14.666  12.899
80806W        W42117  17.077  17.684  11.878
80807W        W42118   0.255  26.185  11.035
80808W        W42119  29.128  12.204   4.331
80809W        W42120   9.691   3.348   2.668
80810W        W42121  32.423  36.014   2.260
80811W        W42122  25.488  25.134   2.841
80812W        W42123  25.127  26.045  13.516
80813W        W42124   9.658  33.920   4.179
80814W        W42125  14.667  28.108  14.886
80815W        W42126   9.239   7.812   3.713
80816W        W42127  18.583  18.762   5.254
80817W        W42128  36.487  24.160  14.507
80818W        W42129  21.106  22.694  12.396
80819W        W42130  39.347  38.340  13.890
80820W        W42131   3.342  17.242   0.453
80821W        W42132  23.201  43.397  11.569
80822W        W42133  44.459  14.270  13.923
80823W        W42134  19.751  11.817   2.718
80824W        W42135  38.019   0.821  10.628
80825W        W42136  26.533   2.361  11.940
80826W        W42137  36.380   0.344  12.076
80827W        W42138  12.716  19.172   1.830
80828W        W42139  12.339  24.098  14.845
80829W        W42140  20.131  38.352  13.815
80830W        W42141  29.505   3.894   3.863
80831W        W42142  37.904  28.112  11.022
80832W        W42143  19.718  22.248  14.319
80833W        W42144  19.759  33.544   4.246
80834W        W42145  14.315   7.734   4.157
80835W        W42146   8.340  32.012   0.877
80836W        W42147  17.283  37.831  12.361
80837W        W42148   0.923  43.435   1.914
80838W        W42149  33.081  39.990  13.403
80839W        W42150  31.074  19.178  14.500
80840W        W42151   7.217  10.233   3.289
80841W        W42152  41.952  34.892  13.534
80842W        W42153   3.341  44.352  12.558
80843W        W42154  44.327  42.446  11.563
80844W        W42155   9.795  44.924   4.692
80845W        W42156  42.289  39.557   4.712
80846W        W42157  40.456   6.292   4.271
80847W        W42158  24.162  16.299   2.195
80848W        W42159  37.445  32.557   9.972
80849W        W42160  29.111  10.196   1.746
80850W        W42161  23.512   4.800  12.540
80851W        W42162  14.176   7.903  13.377
80852W        W42163   6.243  16.239  11.924
80853W        W42164   2.905  33.085   4.251
80854W        W42165  44.944  23.564  12.974
80855W        W42166  40.998   2.254  10.431
80856W        W42167  43.426  28.603   3.792
80857W        W42168  15.795  41.418  13.032
80858W        W42169  30.919  41.476  11.956
80859W        W42170  14.707  16.582   0.766
80860W        W42171  28.449  41.879   2.202
80861W        W42172  22.158   3.438  14.900
80862W        W42173   5.361  37.907   1.237
80863W        W42174  36.348   5.296   1.917
80864W        W42175  16.690  28.488   2.336
80865W        W42176  43.844  36.019   0.433
80866W        W42177  38.930   6.903  13.391
80867W        W42178  33.540  17.144  13.539
80868W        W42179  12.268  26.096   2.742
80869W        W42180  32.434   5.860   1.398
80870W        W42181  21.757  42.346   3.653
80871W        W42182  18.251   7.813  12.039
80872W        W42183  10.357   0.403  14.290
80873W        W42184   5.805  32.893  14.466
80874W        W42185   0.372   5.263  10.501
80875W        W42186  36.874  16.650   3.700
80876W        W42187  17.660  28.094   2.730
80877W        W42188  16.192  18.260   2.870
80878W        W42189   5.216  10.641  14.498
80879W        W42190   4.729  37.430  14.300
80880W        W42191  35.449   8.371  12.541
80881W        W42192  29.495  35.434   3.276
80882W        W42193  14.235  28.680   1.713
80883W        W42194  44.818  37.572   3.847
80884W        W42195  35.394  24.109   4.273
80885W        W42196  42.931   8.223   1.919
80886W        W42197  42.912   6.212  13.943
80887W        W42198  27.499  10.752  10.554
80888W        W42199   6.330   2.442  14.291
80889W        W42200   4.865  33.920   5.106
80890W        W42201  26.048  42.867  14.501
80891W        W42202  18.090  41.807   2.219
80892W        W42203  15.173  12.842   3.820
80893W        W42204  42.821  44.836   4.774
80894W        W42205   5.331   6.310  13.885
80895W        W42206  35.975  33.557   0.250
80896W        W42207  17.598  12.344   0.251
80897W        W42208   8.346  21.083   3.815
80898W        W42209  13.734   3.357  14.373
80899W        W42210  26.972  11.759   0.417
80900W        W42211   8.769  14.633  12.482
80901W        W42212  15.192  25.057   2.701
80902W        W42213  24.563  23.712  11.059
80903W        W42214  37.938   1.887   1.761
80904W        W42215  24.153   2.920  10.910
80905W        W42216  36.978  26.073  14.485
80906W        W42217   8.377   8.855   4.184
80907W        W42218  29.970  25.630   3.836
80908W        W42219  34.104  38.371  10.576
80909W        W42220  33.492   6.282   1.296
80910W        W42221  22.026  25.629  14.411
80911W        W42222  30.600  15.637  12.905
80912W        W42223  32.999  36.440  10.611
80913W        W42224  42.883  36.054   1.726
80914W        W42225  15.680  26.108   2.879
80915W        W42226  42.801  11.660  13.454
80916W        W42227   4.267  19.744   3.742
80917W        W42228  28.143  13.189   4.353
80918W        W42229   1.934  34.535   1.890
80919W        W42230  42.333   8.706   5.219
80920W        W42231  37.859   5.691  14.888
80921W        W42232  32.942  29.167   2.210
80922W        W42233  34.474  42.433   3.147
80923W        W42234  23.520  39.480  14.450
80924W        W42235  11.139  17.281  12.961
80925W        W42236   0.412  12.770  13.968
80926W        W42237  35.957  25.105   1.358
80927W        W42238   7.775  29.529  12.989
80928W        W42239  43.988  44.301   3.797
80929W        W42240  10.210  42.417  13.895
80930W        W42241  40.042   3.333  10.544
80931W        W42242  38.513  25.187   4.600
80932W        W42243  29.468  27.026   4.248
80933W        W42244   5.269  20.047   3.684
80934W        W42245  13.682  13.300  12.962
80935W        W42246  14.687  10.826   2.671
80936W        W42247  34.555  27.645   4.323
80937W        W42248   7.665  41.795   5.198
80938W        W42249  38.480  22.196   2.299
80939W        W42250  29.532  16.279  14.863
80940W        W42251  18.552  19.190  12.073
80941W        W42252  41.371  27.462   3.755
80942W        W42253  28.966  34.936  11.115
80943W        W42254   8.721  33.026  12.347
80944W        W42255  37.039  27.472  14.499
80945W        W42256   0.477  16.783  13.422
80946W        W42257  11.339  33.070   1.416
80947W        W42258  36.525  34.098   2.403
80948W        W42259  10.665  21.561  10.626
80949W        W42260  33.614  39.927  12.927
80950W        W42261  36.888  41.417   9.975
80951W        W42262  18.170  15.183  13.817
80952W        W42263  35.853  42.999  14.996
80953W        W42264   8.892  40.325   3.259
80954W        W42265  34.113   5.335  10.498
80955W        W42266  15.687  32.952  13.547
80956W        W42267  41.831   6.871  11.487
80957W        W42268  43.516   6.815  11.127
80958W        W42269  42.522  29.580   3.333
80959W        W42270  34.586  38.001   3.206
80960W        W42271  19.705   4.810  13.870
80961W        W42272  40.372  15.749   0.823
80962W        W42273  41.412   2.467   4.685
80963W        W42274  10.226  29.425  14.962
80964W        W42275  34.905  13.845  11.468
80965W        W42276  28.118  23.571  13.478
80966W        W42277  30.498   0.414  14.919
80967W        W42278  35.939  27.512  10.971
80968W        W42279  38.964  38.983  11.557
80969W        W42280  31.029  31.997  11.588
80970W        W42281   0.890  31.149  10.509
80971W        W42282  13.646  18.052  12.955
80972W        W42283   0.881  37.372  12.938
80973W        W42284  18.117  33.582   1.882
80974W        W42285  12.787   0.765  13.348
80975W        W42286  13.312  16.605  12.057
80976W        W42287  31.941  42.901   0.314
80977W        W42288  34.941  44.934  11.403
80978W        W42289   0.373   7.400  14.970
80979W        W42290  40.818  22.025  13.477
80980W        W42291  28.059  11.766   4.747
80981W        W42292   0.795  36.973  14.394
80982W        W42293  38.475  14.340   3.819
80983W        W42294   0.863   9.215   3.322
80984W        W42295  34.437   0.861   2.668
80985W        W42296  38.472  41.353  14.845
80986W        W42297  29.606  20.584  12.095
80987W        W42298  23.571  40.010   2.763
80988W        W42299  33.976  11.304   3.633
80989W        W42300  22.138  14.271  11.995
80990W        W42301   9.359  44.339   1.843
80991W        W42302   4.300  10.218  13.929
80992W        W42303  24.013  15.604   3.725
80993W        W42304   5.701  42.809  11.902
80994W        W42305  40.939   6.359  10.533
80995W        W42306  29.570   3.942  11.478
80996W        W42307  28.960  40.310   0.404
80997W        W42308   2.346   6.790   2.419
80998W        W42309  27.029  13.623  13.410
80999W        W42310  31.019  10.716  13.503
81000W        W42311  15.292  30.434   4.302
81001W        W42312   2.950  27.683  13.938
81002W        W42313  26.146  30.553  13.918
81003W        W42314  36.033  11.753  12.398
81004W        W42315  13.776  35.885  11.961
81005W        W42316   4.324  35.369   2.847
81006W        W42317  11.184  34.430  11.526
81007W        W42318  42.815  27.657   1.335
81008W        W42319  13.803  35.100   2.807
81009W        W42320  15.792   5.915  14.801
81010W        W42321  29.550  18.759   1.355
81011W        W42322  23.500  29.169   2.758
81012W        W42323  29.020  13.329   2.416
81013W        W42324   5.769  20.099   0.280
81014W        W42325  23.077  33.976  14.004
81015W        W42326  18.115  42.936   4.658
81016W        W42327   6.723  27.460  11.046
81017W        W42328   8.394  28.052   2.826
81018W        W42329   9.663  20.643   3.731
81019W        W42330   0.325  23.018  10.958
81020W        W42331  11.836  16.150  12.503
81021W        W42332  18.140  26.204   2.283
81022W        W42333  22.026  22.069  10.932
81023W        W42334  39.477  29.445   1.213
81024W        W42335  18.643  10.683  14.825
81025W        W42336   5.409  18.605   1.419
81026W        W42337  29.175  38.439  13.508
81027W        W42338  28.063  32.955  13.436
81028W        W42339  31.021   0.282  13.395
81029W        W42340   2.399  36.870  14.462
81030W        W42341   3.441  37.931   3.256
81031W        W42342  31.409  28.114  13.516
81032W        W42343  22.715  19.601   1.697
81033W        W42344  10.169  17.107  10.441
81034W        W42345  32.456  44.264  12.053
81035W        W42346  41.921   7.263  10.640
81036W        W42347  24.002  12.167  12.847
81037W        W42348  24.519  30.589   1.271
81038W        W42349  16.644  44.918  14.476
81039W        W42350  32.045  27.564   1.722
81040W        W42351  29.979  25.046  13.039
81041W        W42352  23.163   2.761  12.919
81042W        W42353  26.954  34.573   3.200
81043W        W42354  30.417  29.098  11.903
81044W        W42355   5.691  41.313  14.792
81045W        W42356  44.492   5.777  14.830
81046W        W42357  17.678  10.365   3.167
81047W        W42358   6.904  10.179   4.270
81048W        W42359  13.827  44.330   4.164
81049W        W42360  20.639  21.134   2.325
81050W        W42361   7.894   2.294   3.668
81051W        W42362  37.572  26.145  14.793
81052W        W42363  25.473   3.852  14.352
81053W        W42364   9.721  26.463   4.207
81054W        W42365  36.530  31.088   4.123
81055W        W42366  15.631  21.735  11.474
81056W        W42367  40.399  25.653   1.310
81057W        W42368   7.671  21.044  13.354
81058W        W42369  15.305  22.043   0.799
81059W        W42370   0.921  42.924   2.329
81060W        W42371  15.710  32.597  12.875
81061W        W42372  33.052  39.009   1.733
81062W        W42373  22.580  33.991  11.457
81063W        W42374  19.588  34.408  14.767
81064W        W42375  16.302   4.868  12.017
81065W        W42376  13.155  15.784   1.424
81066W        W42377   4.754  32.620   3.732
81067W        W42378   9.648  18.073  12.565
81068W        W42379  33.058  13.132   3.823
81069W        W42380  37.979  41.925  14.940
81070W        W42381  38.946  16.734   2.668
81071W        W42382  30.582  44.945   4.607
81072W        W42383  22.652  29.540   1.784
81073W        W42384  11.192  10.281  14.002
81074W        W42385   4.245  20.157  13.543
81075W        W42386   5.275   2.873  13.534
81076W        W42387   7.685  42.301   2.727
81077W        W42388   7.363  40.331  14.304
81078W        W42389  18.200  15.704   3.241
81079W        W42390   8.860  24.072   1.450
81080W        W42391  10.255   4.434  12.001
81081W        W42392  38.505   9.160   2.314
81082W        W42393  33.957  13.351  14.398
81083W        W42394  35.454  26.036  12.017
81084W        W42395   1.889  34.447   0.913
81085W        W42396  22.652  31.629   4.282
81086W        W42397  28.645  29.013   2.699
81087W        W42398  23.602   2.309   4.833
81088W        W42399  39.889  29.050   4.686
81089W        W42400  41.507  30.004   3.301
81090W        W42401  10.791  40.519   0.419
81091W        W42402  27.973  42.869  10.127
81092W        W42403  43.964  23.662   0.440
81093W        W42404  44.808  42.803   1.215
81094W        W42405  26.129  18.114   3.707
81095W        W42406  44.816  22.519   0.397
81096W        W42407  35.893  34.487   0.776
81097W        W42408  22.646  26.703  14.291
81098W        W42409  43.359   3.331  13.970
81099W        W42410   6.760  10.756   2.413
81100W        W42411  41.426   9.883   2.271
81101W        W42412  12.780  10.736  14.491
81102W        W42413  34.409  36.405   4.334
81103W        W42414  35.542  32.549  14.900
81104W        W42415  30.973  11.625  10.576
81105W        W42416  34.521  30.552  13.468
81106W        W42417  15.120   1.442   3.243
81107W        W42418   1.733  25.590   5.087
81108W        W42419  17.136  18.598   0.889
81109W        W42420  34.972  16.625  13.033
81110W        W42421  24.615   7.856  14.375
81111W        W42422  23.515   5.411   4.817
81112W        W42423  20.116  42.515  10.905
81113W        W42424  22.546  16.584   4.607
81114W        W42425  41.947  31.069  11.499
81115W        W42426  31.008   3.403   0.783
81116W        W42427   7.779   4.219  11.998
81117W        W42428  10.324   5.777   0.919
81118W        W42429  29.013   9.764   3.300
81119W        W42430  35.377  37.374   4.324
81120W        W42431  18.629   6.225   2.342
81121W        W42432  10.765  21.099   2.334
81122W        W42433   6.375   9.182  12.374
81123W        W42434  39.869  38.493  11.447
81124W        W42435  18.630   8.698  11.006
81125W        W42436   3.811  19.668  13.310
81126W        W42437  34.901  34.032   2.739
81127W        W42438  18.208  25.570  12.891
81128W        W42439  33.950   2.277  13.870
81129W        W42440  40.326  18.646  10.437
81130W        W42441  41.370  26.538   4.705
81131W        W42442  35.107  19.162   4.201
81132W        W42443  14.241   5.729   1.825
81133W        W42444  27.455  11.268  13.953
81134W        W42445  29.131   7.810  10.587
81135W        W42446  33.045  44.313  12.838
81136W        W42447  43.376  11.717   3.853
81137W        W42448  14.796   8.744   0.813
81138W        W42449  38.898  24.606   2.194
81139W        W42450  35.898  16.166   2.765
81140W        W42451  34.497   4.715  13.500
81141W        W42452  12.713  14.635   0.893
81142W        W42453  10.299  13.286  14.380
81143W        W42454  44.954   2.419  12.004
81144W        W42455  12.642  23.579   0.863
81145W        W42456  44.268  26.664   2.248
81146W        W42457  23.070  28.051   9.555
81147W        W42458   1.903  26.056   2.734
81148W        W42459   8.812  34.479  12.846
81149W        W42460  15.175  20.093  14.954
81150W        W42461  10.667  36.422  13.488
81151W        W42462  17.087   5.233  13.053
81152W        W42463  28.563  43.876   0.471
81153W        W42464  35.885  44.867   2.897
81154W        W42465   2.253   1.400   2.255
81155W        W42466   6.416  14.705  12.052
81156W        W42467  21.740   6.843   3.224
81157W        W42468  39.365  43.411  11.115
81158W        W42469  22.032  41.345   3.777
81159W        W42470  32.575  21.643  12.348
81160W        W42471  13.294  42.933   4.285
81161W        W42472  21.169  22.038  14.899
81162W        W42473   9.805  23.632   0.759
81163W        W42474  44.467  32.046  10.143
81164W        W42475  33.530  14.324  10.016
81165W        W42476  30.974   5.413   2.690
81166W        W42477   3.402  12.202   3.700
81167W        W42478   7.259   5.354   1.259
81168W        W42479  25.605  34.077   2.834
81169W        W42480   2.311  43.360  14.414
81170W        W42481  26.521  18.139   9.669
81171W        W42482  27.993  29.087  11.581
81172W        W42483  41.372  28.528   0.829
81173W        W42484  29.057  43.901  14.486
81174W        W42485  31.034  40.816   1.314
81175W        W42486  37.537   2.433   1.899
81176W        W42487  10.636  33.616   4.135
81177W        W42488  14.738  17.150   4.225
81178W        W42489   8.749  12.828  11.513
81179W        W42490  28.462  41.845  12.563
81180W        W42491  31.469  21.593  11.949
81181W        W42492  38.964  22.623   1.783
81182W        W42493  14.660  40.809  11.031
81183W        W42494  25.626   6.372  10.991
81184W        W42495   1.459  44.893   4.616
81185W        W42496  24.975   8.718   0.798
81186W        W42497  16.122  37.419  14.480
81187W        W42498  36.487  21.119   4.668
81188W        W42499  34.927  32.923   4.290
81189W        W42500  34.077  40.376  10.892
81190W        W42501  27.966  36.459  14.858
81191W        W42502  14.597  41.824   3.300
81192W        W42503  13.211   5.277   0.896
81193W        W42504  19.729  26.124  14.340
81194W        W42505  37.845  15.809   4.608
81195W        W42506  44.882  36.348   1.901
81196W        W42507   6.387  12.345   4.834
81197W        W42508   4.934  41.841   3.172
81198W        W42509  21.623  44.452  13.807
81199W        W42510   5.322  17.113   2.747
81200W        W42511  14.709   4.782   2.265
81201W        W42512  21.066  11.658   5.094
81202W        W42513   3.948  29.062  12.499
81203W        W42514  22.502   5.927  12.446
81204W        W42515  24.610  30.032   2.230
81205W        W42516   5.412  35.547   0.444
81206W        W42517  25.199  29.020  11.932
81207W        W42518  29.593  22.013  11.554
81208W        W42519  31.478  28.444   3.284
81209W        W42520  43.374   6.410   3.666
81210W        W42521  39.922  20.723  12.373
81211W        W42522  11.370  18.562  14.331
81212W        W42523  18.172  11.222   2.789
81213W        W42524  36.951   8.192  14.984
81214W        W42525   1.776  13.263   3.158
81215W        W42526  35.504  31.647   2.687
81216W        W42527  37.936  34.490  12.852
81217W        W42528  23.134  19.679   0.385
81218W        W42529   8.202   4.839   0.810
81219W        W42530  23.707  33.605   2.811
81220W        W42531  23.562  29.480   3.794
81221W        W42532   3.306  32.015  13.966
81222W        W42533  35.055  37.856  10.905
81223W        W42534  30.482  37.507  13.051
81224W        W42535   4.279   9.884  11.100
81225W        W42536  14.340  37.424  13.340
81226W        W42537  14.768   4.831   0.367
81227W        W42538  27.526   3.216   2.818
81228W        W42539  30.437   6.217  14.829
81229W        W42540  30.631  17.583   2.716
81230W        W42541  24.569   4.329  12.831
81231W        W42542   3.228  16.698  12.833
81232W        W42543  13.185   5.767   2.748
81233W        W42544  40.899   2.766  11.500
81234W        W42545  16.205  44.442  12.557
81235W        W42546  20.114  23.598  13.905
81236W        W42547  17.123  43.413  12.494
81237W        W42548   1.942  19.587  13.885
81238W        W42549  22.723  16.653   3.804
81239W        W42550  12.846  42.018  14.843
81240W        W42551  26.092  44.365   0.458
81241W        W42552  26.130   8.739  14.334
81242W        W42553   2.963   9.706  10.919
81243W        W42554  37.958  37.036  12.085
81244W        W42555  17.611  29.484  14.486
81245W        W42556  12.334  13.682   1.409
81246W        W42557  23.563  36.546  13.833
81247W        W42558   4.841   7.342   9.952
81248W        W42559  24.137  24.100   0.325
81249W        W42560  19.055  29.079   1.428
81250W        W42561   0.930   4.239   3.658
81251W        W42562   2.266  23.226  11.524
81252W        W42563  17.795  41.909   1.698
81253W        W42564  10.150   9.809  14.474
81254W        W42565   4.842   8.297  10.555
81255W        W42566  13.230  34.979  11.952
81256W        W42567  38.021  44.786   1.754
81257W        W42568  18.755   6.904   4.740
81258W        W42569   9.722  20.225   2.194
81259W        W42570   5.290  12.725   0.847
81260W        W42571  25.528  31.897   0.753
81261W        W42572   5.313  27.583   4.120
81262W        W42573  24.549  12.708  11.576
81263W        W42574  44.263   2.726   3.268
81264W        W42575  43.485  17.127   0.457
81265W        W42576  10.242  38.939   1.813
81266W        W42577  16.307   2.271  12.052
81267W        W42578  29.576  32.570  14.359
81268W        W42579   0.959   4.778  11.371
81269W        W42580  23.196  10.721   3.789
81270W        W42581  32.050   9.289  14.396
81271W        W42582  13.228  40.051   0.762
81272W        W42583   9.749   1.859   4.738
81273W        W42584  28.477  23.233  14.814
81274W        W42585  24.595  19.552   3.706
81275W        W42586  44.808  28.117  12.961
81276W        W42587  37.943  13.295  12.941
81277W        W42588  21.153  40.320   2.895
81278W        W42589  25.585   3.760   3.278
81279W        W42590  26.078  22.635  10.644
81280W        W42591   4.850  42.862  14.932
81281W        W42592  16.183   6.722   2.799
81282W        W42593   7.788  44.396   5.219
81283W        W42594  22.191  44.373   3.769
81284W        W42595   9.319  25.182   4.784
81285W        W42596  30.999  23.003  10.526
81286W        W42597  38.465  41.901  14.805
81287W        W42598   5.896  35.451   2.876
81288W        W42599  23.135  20.260   2.674
81289W        W42600  27.466  12.268  11.412
81290W        W42601  14.332  41.890  14.967
81291W        W42602  20.585  31.033   2.373
81292W        W42603  23.094  11.261   3.745
81293W        W42604  15.321  30.970  12.447
81294W        W42605   2.813  33.488  10.964
81295W        W42606  41.895  23.176  12.945
81296W        W42607  37.008  24.120  11.912
81297W        W42608  11.199  44.852   2.788
81298W        W42609  35.471  16.084  12.897
81299W        W42610  23.655  32.931   1.270
81300W        W42611  16.148  10.250  13.514
81301W        W42612   3.435  40.930  12.398
81302W        W42613  29.485  43.349  13.449
81303W        W42614  21.155  37.527   5.791
81304W        W42615  15.594  30.596   2.366
81305W        W42616   2.422   8.863  13.900
81306W        W42617   4.911   9.729   3.705
81307W        W42618  11.788  11.345  13.903
81308W        W42619  41.895  13.703   0.353
81309W        W42620  10.330  40.954   1.438
81310W        W42621  36.953  16.570   1.790
81311W        W42622  33.440  12.801  10.115
81312W        W42623  41.805  33.026   1.262
81313W        W42624  20.273   9.296  14.873
81314W        W42625  25.491  44.874   0.826
81315W        W42626  23.715  36.064   1.276
81316W        W42627  41.371  23.161   0.843
81317W        W42628  20.596  27.942   1.363
81318W        W42629  29.134  22.020  14.928
81319W        W42630  24.641  41.935  14.514
81320W        W42631  23.163  21.076  13.474
81321W        W42632  25.010  14.703  11.038
81322W        W42633   9.851  19.608   1.921
81323W        W42634  36.843  42.488   2.734
81324W        W42635  11.309  18.234  14.819
81325W        W42636  40.905  40.527   2.856
81326W        W42637  29.582   3.820   3.252
81327W        W42638  42.506   8.816   0.857
81328W        W42639  29.136   5.329  14.301
81329W        W42640  30.947  41.438  10.555
81330W        W42641  17.118  37.481   5.117
81331W        W42642  16.249   6.684   3.774
81332W        W42643  22.599   6.263  10.932
81333W        W42644   6.906  21.609  13.439
81334W        W42645  22.036  33.884  11.118
81335W        W42646  35.014  28.022   1.828
81336W        W42647  37.556  14.796   5.208
81337W        W42648  42.880  21.579  14.793
81338W        W42649  30.609  14.211   4.205
81339W        W42650  20.538   4.397  12.503
81340W        W42651  36.423  30.487  12.979
81341W        W42652  33.557  17.752  11.598
81342W        W42653  25.172  31.109  14.018
81343W        W42654  31.618   9.882   2.243
81344W        W42655   5.839   5.328  14.469
81345W        W42656  42.847   6.921  10.960
81346W        W42657  31.014  29.006   0.422
81347W        W42658  13.181   8.769  11.027
81348W        W42659  17.280  19.644   4.346
81349W        W42660   2.827  35.892  13.412
81350W        W42661   3.763   8.709  14.284
81351W        W42662   4.211   8.171  11.568
81352W        W42663  34.112  14.788  14.513
81353W        W42664  35.556   9.788  14.434
81354W        W42665  23.203  33.057   3.783
81355W        W42666  26.057  24.527   3.351
81356W        W42667  21.631  29.544  10.041
81357W        W42668   9.342  41.468   0.858
81358W        W42669  37.388  15.734  14.914
81359W        W42670  29.061  11.719  13.436
81360W        W42671  42.449  37.569   0.318
81361W        W42672  32.046  14.614   4.802
81362W        W42673  37.029   6.192   4.196
81363W        W42674   2.863  44.778  13.026
81364W        W42675   1.343  32.093  13.519
81365W        W42676  26.589   2.255  13.971
81366W        W42677   0.978  18.085   4.216
81367W        W42678  16.233  26.538  13.409
81368W        W42679  33.536   6.750   0.965
81369W        W42680  42.804  44.403   1.773
81370W        W42681  24.026  33.118  14.886
81371W        W42682  39.912  21.747  13.869
81372W        W42683  36.032  38.914   3.246
81373W        W42684   7.365   2.347   1.915
81374W        W42685  18.780  20.725   4.183
81375W        W42686   7.903  44.364   9.967
81376W        W42687   4.245  22.082   0.246
81377W        W42688   1.411  40.966  12.087
81378W        W42689  22.026  33.007  12.364
81379W        W42690  40.487  44.382   2.397
81380W        W42691  21.230  10.184   2.338
81381W        W42692   4.712  31.090  11.985
81382W        W42693  39.464  41.920  12.407
81383W        W42694  16.221  22.156  13.501
81384W        W42695  13.683  44.396   3.784
81385W        W42696  25.144  39.462  11.881
81386W        W42697  39.030  15.719  10.543
81387W        W42698  44.980  24.057  12.518
81388W        W42699  13.714  25.167   1.736
81389W        W42700  37.497  25.687   3.786
81390W        W42701  11.777  41.413  10.409
81391W        W42702  31.949   1.843  12.905
81392W        W42703  30.127  19.710   1.367
81393W        W42704   6.353  36.583   4.670
81394W        W42705  11.289  22.542  14.329
81395W        W42706  32.625  29.091   1.265
81396W        W42707  39.852  41.021  12.021
81397W        W42708  10.155   3.921   0.382
81398W        W42709  13.698  30.030   3.799
81399W        W42710   2.915  12.180   3.163
81400W        W42711   8.301  13.699  13.316
81401W        W42712  10.771  24.982   0.837
81402W        W42713  34.032  24.158   4.676
81403W        W42714  23.543  20.216   4.232
81404W        W42715  27.660  29.123   1.269
81405W        W42716  31.517   6.770  13.936
81406W        W42717  36.842   4.305   4.266
81407W        W42718  40.986  42.473  11.878
81408W        W42719  37.487  25.517  14.499
81409W        W42720   4.937   2.824   4.648
81410W        W42721  36.364   8.856  10.442
81411W        W42722  20.665   5.744   0.299
81412W        W42723  11.659  39.544   2.249
81413W        W42724   0.844  40.801  12.023
81414W        W42725  18.184  32.095  12.973
81415W        W42726  12.851  28.031   3.759
81416W        W42727   3.833  27.189   3.732
81417W        W42728  12.230  33.895  10.467
81418W        W42729  10.695   0.339  14.871
81419W        W42730  10.351   5.292   0.888
81420W        W42731  44.493   9.267   2.279
81421W        W42732  11.716  34.019   0.337
81422W        W42733  15.764   7.197   4.254
81423W        W42734   8.329  30.469   3.690
81424W        W42735  30.593  16.095  11.066
81425W        W42736  15.766  40.912   0.269
81426W        W42737  28.552  39.390   1.408
81427W        W42738   5.855   4.213   0.383
81428W        W42739   6.403  37.853  11.407
81429W        W42740  29.532  39.466  14.837
81430W        W42741  36.473  23.624   2.756
81431W        W42742  23.693  20.698  10.587
81432W        W42743  29.059  12.854   0.852
81433W        W42744  17.279  23.554  12.017
81434W        W42745  12.840  14.826  10.917
81435W        W42746  16.621  40.823   3.266
81436W        W42747  41.020  42.292  11.018
81437W        W42748   2.958  25.999   3.730
81438W        W42749  43.919   7.229  10.461
81439W        W42750  40.329  26.961  14.370
81440W        W42751  39.399  31.097  13.372
81441W        W42752  35.070  35.528   3.682
81442W        W42753  28.637   4.378   3.186
81443W        W42754  20.067  41.293  11.381
81444W        W42755  18.195  37.494   3.180
81445W        W42756  25.557  44.335  13.329
81446W        W42757   2.353  25.529  13.431
81447W        W42758  27.691  31.048  12.410
81448W        W42759   0.337  18.594   2.848
81449W        W42760  10.878  31.555  11.474
81450W        W42761  44.387  30.141  12.575
81451W        W42762  14.747   3.715  13.394
81452W        W42763   1.314  15.803   1.730
81453W        W42764  23.003  41.460  14.386
81454W        W42765  43.459  20.527  10.427
81455W        W42766  28.028  13.148  10.958
81456W        W42767  16.301  18.550   1.338
81457W        W42768  20.082  22.720   1.730
81458W        W42769   9.810  17.192   0.382
81459W        W42770  19.281  24.546  11.444
81460W        W42771  31.100  30.647   9.954
81461W        W42772   9.371  23.217  13.981
81462W        W42773   4.702  31.045   0.927
81463W        W42774  25.186   6.302   0.249
81464W        W42775  28.461  14.283  12.455
81465W        W42776   9.748  16.133  10.433
81466W        W42777   2.771   1.851   3.683
81467W        W42778  37.545   2.774  14.810
81468W        W42779  16.318   6.326   1.374
81469W        W42780  42.786  30.606  10.503
81470W        W42781  21.748  27.103   3.280
81471W        W42782   5.424  30.911   2.278
81472W        W42783  41.033  22.035  11.075
81473W        W42784  24.536  17.290   4.687
81474W        W42785  19.692   6.235   1.828
81475W        W42786  15.187  31.486  13.042
81476W        W42787  44.389  11.299   2.860
81477W        W42788  15.782   8.826  13.010
81478W        W42789   7.234  21.728   3.368
81479W        W42790   6.214  19.741  13.887
81480W        W42791  15.808  35.890  11.430
81481W        W42792  27.129  28.165  14.959
81482W        W42793   6.266  39.486   2.392
81483W        W42794  31.507  39.369   4.146
81484W        W42795  28.122  16.079  14.802
81485W        W42796   8.867  10.331   4.633
81486W        W42797  40.797  10.679   2.404
81487W        W42798  25.472  30.912  10.094
81488W        W42799  15.261  13.612   0.843
81489W        W42800  42.942  41.834  11.121
81490W        W42801  44.412  37.951  14.016
81491W        W42802   2.745  21.255   2.830
81492W        W42803   2.903   2.884  12.363
81493W        W42804  42.332  16.571  14.991
81494W        W42805  18.700   2.819  12.357
81495W        W42806  37.374  10.758  14.858
81496W        W42807  31.537  20.708   4.733
81497W        W42808  43.269  28.936  13.815
81498W        W42809  21.173   7.703   5.198
81499W        W42810   5.262  38.914   4.296
81500W        W42811  18.074  20.049  14.762
81501W        W42812  40.876   7.318  13.447
81502W        W42813  33.432  27.596  10.457
81503W        W42814  27.081  29.656   2.736
81504W        W42815   9.227  17.158   2.867
81505W        W42816  39.029  17.587   0.736
81506W        W42817   4.770  29.072   1.791
81507W        W42818  12.349   6.330  12.573
81508W        W42819  14.139  36.462   0.454
81509W        W42820  31.446  30.003   2.244
81510W        W42821  35.083  28.053  14.910
81511W        W42822  44.323  12.335   2.767
81512W        W42823  18.612  24.666  14.845
81513W        W42824  29.481  42.288  14.423
81514W        W42825  42.497   6.284   3.263
81515W        W42826  23.634  34.943  10.522
81516W        W42827  34.108  28.503   0.754
81517W        W42828   7.220  25.568   4.194
81518W        W42829   7.325  33.397   5.210
81519W        W42830  12.688  14.275  11.549
81520W        W42831  25.075  23.048   4.183
81521W        W42832   4.889  12.614   1.391
81522W        W42833  33.989   8.167   4.685
81523W        W42834  14.627  38.982  13.940
81524W        W42835  26.657  24.721   2.292
81525W        W42836  44.881   1.405   3.230
81526W        W42837  32.141  13.203   4.835
81527W        W42838  12.844  36.504   0.888
81528W        W42839  28.118  28.548  12.922
81529W        W42840  44.785  42.422   4.184
81530W        W42841  28.938  33.915  14.029
81531W        W42842  42.514  27.498  10.456
81532W        W42843  26.509  23.059  11.536
81533W        W42844   4.860  26.045   4.818
81534W        W42845  42.332  23.523   1.705
81535W        W42846  11.360  12.764  13.828
81536W        W42847  31.935  39.857  11.017
81537W        W42848  10.817   9.851   2.243
81538W        W42849  35.052   7.389   4.694
81539W        W42850  25.094   5.410   3.171
81540W        W42851  43.822   8.664  14.282
81541W        W42852   6.308  30.417  14.955
81542W        W42853  14.123  31.645  12.494
81543W        W42854   6.920  20.089   3.842
81544W        W42855  36.038  21.664  14.377
81545W        W42856  20.128  34.034   3.242
81546W        W42857  43.317  15.785  12.400
81547W        W42858  24.201  31.995   4.612
81548W        W42859   4.288  16.616   9.660
81549W        W42860  43.269   1.759   5.188
81550W        W42861  13.691  15.620   2.400
81551W        W42862  14.594  42.003  10.437
81552W        W42863  39.893   5.348  14.301
81553W        W42864  11.340  25.977   2.805
81554W        W42865  33.904  31.914  10.528
81555W        W42866  21.721  13.157   1.259
81556W        W42867  43.480  42.471   0.946
81557W        W42868  12.726  21.560   1.386
81558W        W42869  28.148   2.366  12.933
81559W        W42870  13.220  32.443  12.093
81560W        W42871  33.885   4.370   4.278
81561W        W42872  11.311  30.085   0.928
81562W        W42873  35.988  38.567  11.418
81563W        W42874  42.901  44.757   2.712
81564W        W42875  17.697  40.949  13.481
81565W        W42876  17.617  37.978   3.199
81566W        W42877  24.504  18.167   3.195
81567W        W42878  30.052  16.154   1.933
81568W        W42879  38.500   0.842  12.962
81569W        W42880  18.635   6.405  10.555
81570W        W42881  41.315  18.231  12.378
81571W        W42882   6.393  23.708   4.198
81572W        W42883  11.173  23.548  13.035
81573W        W42884  39.917   7.711  12.073
81574W        W42885  35.076  39.920  10.527
81575W        W42886  26.016   2.868   4.196
81576W        W42887  37.533   1.246  10.931
81577W        W42888  40.045   4.230   0.817
81578W        W42889  19.142  17.097  12.420
81579W        W42890  20.636   7.766   4.774
81580W        W42891  36.937  11.230   2.349
81581W        W42892  26.493  25.482   4.730
81582W        W42893  35.004  30.919  14.018
81583W        W42894  24.037  28.005   9.994
81584W        W42895   3.236  31.040   1.213
81585W        W42896   8.885  30.620  10.046
81586W        W42897  33.007  20.269   0.459
81587W        W42898  39.945  26.170  14.331
81588W        W42899   0.273  10.155  12.344
81589W        W42900  13.707  32.054  13.320
81590W        W42901   9.857  39.033  10.974
81591W        W42902  11.694  31.942  11.044
81592W        W42903  44.948  24.497  12.363
81593W        W42904   0.443  25.665   3.766
81594W        W42905  12.836  20.668  13.351
81595W        W42906   5.848  36.362  11.064
81596W        W42907  35.061  34.910   2.268
81597W        W42908  10.276  24.210  13.441
81598W        W42909  15.740  18.050   0.386
81599W        W42910  43.293   7.277   2.818
81600W        W42911  19.268  39.359  10.424
81601W        W42912   9.202  23.598  11.096
81602W        W42913  43.478   7.234  14.818
81603W        W42914  32.080  42.892  13.017
81604W        W42915  33.464  13.823  11.397
81605W        W42916   6.283  32.589   2.226
81606W        W42917  39.835  15.680   4.662
81607W        W42918  28.529  35.481   1.330
81608W        W42919  21.527  33.011   0.339
81609W        W42920  36.894  42.024   9.669
81610W        W42921  38.850   8.206   1.802
81611W        W42922  24.532  41.889  13.829
81612W        W42923  11.846  17.631   3.699
81613W        W42924  23.620   1.829   1.846
81614W        W42925  30.451  39.485  13.431
81615W        W42926  33.494   0.855   5.155
81616W        W42927  28.446  42.298   4.686
81617W        W42928  37.392   6.902   3.785
81618W        W42929  37.033  11.157   4.782
81619W        W42930  21.754  32.582   1.772
81620W        W42931  19.226   2.877  13.444
81621W        W42932  21.245   4.221   3.649
81622W        W42933   9.382  10.231  11.483
81623W        W42934  30.511  28.459  14.929
81624W        W42935  44.957  16.746   4.293
81625W        W42936  16.087  30.033  14.294
81626W        W42937  20.721  37.076  10.486
81627W        W42938  25.048  26.551   2.363
81628W        W42939  29.127   7.685  10.962
81629W        W42940  17.618  40.316   4.759
81630W        W42941  35.877  31.505   3.313
81631W        W42942  29.014  41.346  12.835
81632W        W42943  20.130  38.872  13.822
81633W        W42944   0.745  12.221   3.186
81634W        W42945  44.774  29.484   2.322
81635W        W42946   6.285  21.518   0.449
81636W        W42947  33.906  18.625   3.866
81637W        W42948  43.366   0.956  12.425
81638W        W42949  29.540   4.799  13.940
81639W        W42950  35.860  28.000   4.234
81640W        W42951  26.527  32.922   4.815
81641W        W42952  32.013  24.117  11.997
81642W        W42953   8.214  11.316  13.384
81643W        W42954  33.070   4.447  14.435
81644W        W42955  18.789  39.367   0.438
81645W        W42956  12.174  21.122   4.208
81646W        W42957  37.562  18.094  10.644
81647W        W42958  13.641  29.557  13.903
81648W        W42959  42.891  19.141   3.823
81649W        W42960  29.668  26.019   0.853
81650W        W42961  42.440  19.720   4.710
81651W        W42962  22.120  38.063  10.599
81652W        W42963  41.891  15.710  11.053
81653W        W42964  17.111  18.073  12.864
81654W        W42965  18.067  33.975  13.840
81655W        W42966  24.135   0.783   1.804
81656W        W42967  12.739  44.304  12.935
81657W        W42968  36.475  12.208  14.786
81658W        W42969  13.333  41.902  10.532
81659W        W42970   8.887  36.398  14.370
81660W        W42971  26.964  11.863  12.565
81661W        W42972  20.632  40.512  12.061
81662W        W42973  26.500   2.350   4.738
81663W        W42974  17.185   5.309   2.826
81664W        W42975  38.020  37.458  10.010
81665W        W42976  38.865  26.998  11.963
81666W        W42977  41.428  43.944   1.839
81667W        W42978  32.624  19.761  14.443
81668W        W42979  20.145  37.832  13.358
81669W        W42980  20.655  42.948   4.600
81670W        W42981  21.062  44.998   0.409
81671W        W42982  40.315  40.333   3.238
81672W        W42983   9.236  41.809   4.692
81673W        W42984  37.973  18.176  13.955
81674W        W42985  28.565   4.724  14.435
81675W        W42986  29.945  14.826   0.888
81676W        W42987  14.133  26.462   3.792
81677W        W42988  41.294   4.755   1.791
81678W        W42989  35.861   9.236  13.039
81679W        W42990  36.874  41.453   4.715
81680W        W42991   6.883   6.243  14.506
81681W        W42992  38.859  39.946  14.940
81682W        W42993  44.870  31.987  10.554
81683W        W42994  44.887  24.573  11.882
81684W        W42995  43.395  14.265   1.351
81685W        W42996  16.742  39.020  12.034
81686W        W42997  24.619  38.875  11.516
81687W        W42998   9.769  39.403  13.535
81688W        W42999  34.037  24.212  11.978
81689W        W43000  39.477  13.262   4.835
81690W        W43001  20.161  23.545   4.615
81691W        W43002  10.646   9.199  10.429
81692W        W43003  23.526  38.353   4.317
81693W        W43004  10.317  32.075   3.832
81694W        W43005  41.868   4.273  13.524
81695W        W43006  17.659   3.953   4.809
81696W        W43007  30.929  20.219  12.928
81697W        W43008   1.748   0.278  14.339
81698W        W43009  20.090  28.992   5.182
81699W        W43010  42.469   2.834  11.934
81700W        W43011  15.743  11.775   0.401
81701W        W43012  14.601  22.591  13.882
81702W        W43013  33.128  30.466   1.768
81703W        W43014  16.315   7.332  14.798
81704W        W43015  17.186  39.899   9.997
81705W        W43016  22.014  35.108  11.571
81706W        W43017  37.337  38.855   1.243
81707W        W43018  33.586  11.835   0.411
81708W        W43019  42.414   2.369   2.340
81709W        W43020  20.068  20.046  12.531
81710W        W43021  18.609  28.487  14.429
81711W        W43022  32.078  23.522  13.366
81712W        W43023  31.049  42.884   3.854
81713W        W43024  28.440  32.110  11.518
81714W        W43025  31.098  39.832  12.345
81715W        W43026  11.304   6.765   1.900
81716W        W43027  28.476  36.969   1.833
81717W        W43028  21.215  43.398   3.746
81718W        W43029  21.596  40.890  10.554
81719W        W43030   7.189  31.086  12.020
81720W        W43031  42.974  27.591   2.815
81721W        W43032  12.312  13.758  13.445
81722W        W43033   2.790  13.718   0.742
81723W        W43034  21.704   1.874  10.640
81724W        W43035  36.395  26.593  12.040
81725W        W43036  13.180  20.228   0.437
81726W        W43037   7.220  31.482  10.486
81727W        W43038   1.844  37.356  11.523
81728W        W43039  10.827  16.569   3.375
81729W        W43040  29.535  17.618   2.745
81730W        W43041  20.145   1.849  10.961
81731W        W43042  39.936  40.994   4.667
81732W        W43043  25.167  20.153  14.284
81733W        W43044  33.886  27.030  11.606
81734W        W43045  38.838  12.298   0.860
81735W        W43046   1.962  19.241  14.299
81736W        W43047  25.512   2.919   3.257
81737W        W43048  37.969  34.520   3.819
81738W        W43049  17.087  19.724   5.227
81739W        W43050  18.269  42.517  14.284
81740W        W43051  22.552  15.174   3.164
81741W        W43052  42.851  24.995   4.778
81742W        W43053  38.925   8.791   0.777
81743W        W43054  39.560  33.382   2.331
81744W        W43055  41.885  32.432  13.894
81745W        W43056  17.124  26.539  14.941
81746W        W43057  41.301  24.546  10.550
81747W        W43058  14.726  27.630   2.327
81748W        W43059  29.014   5.306   3.727
81749W        W43060  24.110  16.205   3.245
81750W        W43061  22.107  21.585  12.379
81751W        W43062  30.989  35.577   0.295
81752W        W43063  38.382   6.221   4.822
81753W        W43064  31.028   8.169   0.731
81754W        W43065  34.076  21.020  13.537
81755W        W43066  32.565   4.758   2.241
81756W        W43067  39.997  21.736   1.259
81757W        W43068  39.502  38.514  12.845
81758W        W43069  28.048  27.024  12.999
81759W        W43070  37.433  40.934   3.155
81760W        W43071  33.557  11.304   5.266
81761W        W43072  42.514  40.870   4.747
81762W        W43073  37.840  26.553   0.328
81763W        W43074  13.148  34.090  10.574
81764W        W43075   4.739  25.586  13.838
81765W        W43076  16.615  22.028   3.760
81766W        W43077  36.001   6.194   2.752
81767W        W43078   8.263  23.507  11.549
81768W        W43079  32.912   0.769   4.305
81769W        W43080  28.638  44.774  14.515
81770W        W43081  19.091  40.338   4.130
81771W        W43082  14.598  15.711  11.037
81772W        W43083  11.658  34.494   3.721
81773W        W43084  32.943   5.269   2.187
81774W        W43085  18.654  21.240  10.472
81775W        W43086  25.979  26.576   1.796
81776W        W43087  17.285  28.977   3.644
81777W        W43088  33.983  40.366   3.219
81778W        W43089  21.074  15.101  14.450
81779W        W43090   3.910  43.913  10.506
81780W        W43091  40.461  20.060   4.210
81781W        W43092  13.255  17.637   1.294
81782W        W43093  37.481  31.919  12.048
81783W        W43094  21.142  43.990   1.332
81784W        W43095   3.427  40.373   1.771
81785W        W43096  41.909  31.459  14.463
81786W        W43097  32.570  12.327   4.146
81787W        W43098   5.359  32.915  13.464
81788W        W43099  36.093  29.035   4.352
81789W        W43100   5.771  14.673   0.319
81790W        W43101  38.507   8.901   1.863
81791W        W43102  26.508   3.953  13.317
81792W        W43103  10.869   3.712  13.488
81793W        W43104  38.072   7.712   1.897
81794W        W43105  43.833  27.984  11.039
81795W        W43106  26.145   7.390   4.248
81796W        W43107  18.696  20.121   0.342
81797W        W43108  11.639  10.737   3.767
81798W        W43109  37.472  14.228   3.696
81799W        W43110   7.322  16.742   2.271
81800W        W43111  13.122   5.800   3.337
81801W        W43112   4.792   0.488  13.375
81802W        W43113  27.943  34.535   1.828
81803W        W43114  27.459  21.674   1.367
81804W        W43115   9.760  33.493   1.903
81805W        W43116  43.995  36.950  14.937
81806W        W43117   2.314  27.955   2.693
81807W        W43118  29.047  31.550  12.935
81808W        W43119  25.615  44.477  10.927
81809W        W43120   4.935  21.141  12.969
81810W        W43121  26.665   5.702   0.736
81811W        W43122  20.674   0.279  13.024
81812W        W43123  17.596  24.558  12.952
81813W        W43124  41.839  23.585   3.382
81814W        W43125  43.450  39.353  14.891
81815W        W43126   3.342  10.691   0.810
81816W        W43127  22.054  12.162  13.956
81817W        W43128  12.203  42.503   3.378
81818W        W43129  12.767  31.977   1.882
81819W        W43130   2.353  14.595   2.327
81820W        W43131  14.167   3.375   3.314
81821W        W43132  32.974  17.235  14.936
81822W        W43133  14.801  11.730   9.989
81823W        W43134  28.636  42.858   0.341
81824W        W43135  35.506  37.044   4.277
81825W        W43136  25.033  43.412  11.540
81826W        W43137  17.571  31.980   4.138
81827W        W43138  24.189  25.565   2.742
81828W        W43139  17.596  19.553  10.492
81829W        W43140   8.270  36.384   4.640
81830W        W43141  14.283  31.015  12.491
81831W        W43142  30.571  28.651  13.802
81832W        W43143  36.566  35.981  14.356
81833W        W43144  10.377  16.108   3.165
81834W        W43145  22.725  38.485   0.870
81835W        W43146  41.948  21.209   4.671
81836W        W43147   1.321  36.451   2.179
81837W        W43148  40.971  12.725  11.917
81838W        W43149  36.004  36.091   4.805
81839W        W43150  37.037  15.312  12.537
81840W        W43151  44.364  21.702   2.779
81841W        W43152  18.241   1.783   2.393
81842W        W43153  34.869   0.293  11.604
81843W        W43154  18.778  36.585  11.052
81844W        W43155  20.255   2.257   0.398
81845W        W43156   8.819  22.675   2.338
81846W        W43157  44.483  14.329   1.889
81847W        W43158  30.032  21.591   4.254
81848W        W43159  41.901  25.202  14.464
81849W        W43160  39.556  18.598  14.507
81850W        W43161  10.837  11.253  11.527
81851W        W43162  11.339   3.770  14.321
81852W        W43163  42.981   3.351  10.055
81853W        W43164   7.380  23.677  12.945
81854W        W43165  31.412  27.196   4.343
81855W        W43166  37.411  42.992   4.801
81856W        W43167   0.255  41.035   3.149
81857W        W43168  23.701  35.005  12.384
81858W        W43169  35.521   2.393  14.891
81859W        W43170  24.136  24.502  11.069
81860W        W43171   8.194  30.946   4.303
81861W        W43172  44.364  23.566   2.714
81862W        W43173  15.791  22.054   1.772
81863W        W43174  22.556  33.616   2.872
81864W        W43175  13.225  35.562  13.530
81865W        W43176  43.310  25.598  14.022
81866W        W43177  31.131   3.866   5.250
81867W        W43178  17.147  31.972  10.635
81868W        W43179  28.152  24.006   0.934
81869W        W43180  38.404  24.129   4.770
81870W        W43181  31.478  39.037  12.076
81871W        W43182  11.192  16.756   3.866
81872W        W43183  32.063  10.861   0.376
81873W        W43184  13.300  12.355   4.312
81874W        W43185   8.712  30.118   3.667
81875W        W43186  21.144  42.340  14.834
81876W        W43187  26.534  29.160   1.829
81877W        W43188   3.433   3.431   0.898
81878W        W43189  21.737   1.812   3.784
81879W        W43190  23.056   0.350  12.531
81880W        W43191  42.372  19.285   0.823
81881W        W43192  17.575   6.679   0.247
81882W        W43193   2.352  40.421   4.782
81883W        W43194  40.498  23.692  13.944
81884W        W43195  41.384   9.760   3.181
81885W        W43196  42.345  10.835  12.917
81886W        W43197  14.299   0.873  12.427
81887W        W43198  11.662  39.505  10.899
81888W        W43199  15.149  24.517  10.914
81889W        W43200  13.300  24.597   3.255
81890W        W43201  30.957  39.952  14.347
81891W        W43202  38.398   1.840  11.857
81892W        W43203  27.058  17.708  10.996
81893W        W43204  18.220  21.131  10.461
81894W        W43205   4.822  24.224   1.310
81895W        W43206  31.583  10.364   0.812
81896W        W43207  30.154  42.006   0.442
81897W        W43208  42.891  13.840   0.420
81898W        W43209  20.155   2.792   2.233
81899W        W43210  14.272   7.842  12.834
81900W        W43211  30.094   9.762  13.795
81901W        W43212  31.442  16.186   2.731
81902W        W43213  10.186   4.348  12.557
81903W        W43214  27.022  16.620   2.183
81904W        W43215  20.240  34.549   4.604
81905W        W43216  43.894  22.195   0.960
81906W        W43217  33.453  43.461  14.483
81907W        W43218  21.563  28.509   3.341
81908W        W43219  18.166  10.679   0.884
81909W        W43220  30.532  41.351   0.740
81910W        W43221   1.288  43.377   3.227
81911W        W43222  19.654  36.032  14.438
81912W        W43223  37.854   7.732   1.437
81913W        W43224  35.364  33.433   1.782
81914W        W43225  35.974  35.445  11.490
81915W        W43226  36.446   0.886   2.805
81916W        W43227  26.136  21.725  13.003
81917W        W43228  27.644   0.848   1.235
81918W        W43229  34.957  11.284   1.410
81919W        W43230  20.549   3.281  10.962
81920W        W43231  41.397   2.347  11.125
81921W        W43232  16.733  13.787   1.754
81922W        W43233  14.211  32.491   4.637
81923W        W43234   6.698  37.913  10.634
81924W        W43235  32.964  28.676  13.849
81925W        W43236  35.888  36.480   0.381
81926W        W43237  15.094  15.099   3.187
81927W        W43238  20.078  29.564  12.549
81928W        W43239  22.084  16.628   0.944
81929W        W43240  31.459  24.976  12.949
81930W        W43241  20.668   9.863  12.513
81931W        W43242  14.267  34.506  13.894
81932W        W43243  21.237  18.158  11.075
81933W        W43244  37.506  29.569   1.823
81934W        W43245  29.927  28.998  12.830
81935W        W43246  35.874  37.427  13.996
81936W        W43247  36.437  36.558  10.641
81937W        W43248  36.906  28.514  12.894
81938W        W43249  36.454   5.216  10.611
81939W        W43250   3.374  27.691   3.295
81940W        W43251  10.151   3.291  10.988
81941W        W43252  36.992  24.183   1.349
81942W        W43253  21.238   1.323  14.345
81943W        W43254   8.362   3.842   2.739
81944W        W43255  17.685  11.179   1.316
81945W        W43256  44.911  29.959  13.527
81946W        W43257  38.393  16.167  12.382
81947W        W43258   0.307  12.827   1.229
81948W        W43259  14.800  32.044  13.530
81949W        W43260  18.155  13.113   3.820
81950W        W43261   8.367  31.979   2.714
81951W        W43262  24.058   1.335   0.280
81952W        W43263  27.592  34.914  10.514
81953W        W43264  28.611  19.230   0.398
81954W        W43265  43.458  37.842  12.521
81955W        W43266  13.722  37.417  13.341
81956W        W43267  12.646   5.231   3.330
81957W        W43268  31.090   0.290  10.426
81958W        W43269  13.109  13.755  13.047
81959W        W43270  26.660  41.378  12.091
81960W        W43271  41.321  14.814  11.384
81961W        W43272  11.691  36.898  11.392
81962W        W43273   4.781  41.322  12.992
81963W        W43274  29.931   4.444  11.407
81964W        W43275  37.398   4.272  10.896
81965W        W43276  18.713  37.959  12.061
81966W        W43277  15.620  13.600   3.304
81967W        W43278  36.856  24.614  13.983
81968W        W43279  37.429  12.162   2.782
81969W        W43280  38.553   6.313   0.446
81970W        W43281  36.533  17.271  11.053
81971W        W43282   4.747  16.198  12.032
81972W        W43283  34.011  12.821   4.797
81973W        W43284   3.756  28.985  12.007
81974W        W43285   4.891  11.189  10.892
81975W        W43286   9.794  38.849   3.284
81976W        W43287  30.989  30.444  14.499
81977W        W43288  40.366  33.002   0.948
81978W        W43289  11.298  31.537  12.836
81979W        W43290  21.131   9.381  12.537
81980W        W43291  41.964  42.002   3.790
81981W        W43292  35.583  27.563  13.903
81982W        W43293  19.143  35.938   4.734
81983W        W43294   2.358  26.608   1.415
81984W        W43295  17.609  31.447   0.918
81985W        W43296   1.402  20.675  12.417
81986W        W43297  32.394  42.473  14.305
81987W        W43298  16.737  20.183  13.354
81988W        W43299  44.283  36.014   1.884
81989W        W43300  14.249  28.511   4.765
81990W        W43301   9.330  42.790   1.811
81991W        W43302  13.720   7.274  13.847
81992W        W43303  25.573  20.169  10.103
81993W        W43304  44.480  37.348  14.477
81994W        W43305  41.483   8.681  12.852
81995W        W43306   3.369  15.128  13.466
81996W        W43307  37.937   1.974   0.742
81997W        W43308  29.482  16.714  13.367
81998W        W43309  43.328  38.453   3.837
81999W        W43310  29.925  44.309  13.454
82000W        W43311  15.688  18.060  13.336
82001W        W43312  38.446  11.642  10.565
82002W        W43313  21.567   0.878  11.563
82003W        W43314  20.654  34.485   0.394
82004W        W43315  23.627   2.907  14.293
82005W        W43316  17.673   7.861  13.806
82006W        W43317  32.624   4.440  10.940
82007W        W43318   3.401   0.456   2.823
82008W        W43319  14.598  18.728  12.451
82009W        W43320   6.741  20.189  10.531
82010W        W43321  21.695  17.644   1.332
82011W        W43322  21.143  18.686  14.769
82012W        W43323  32.987  30.636  13.470
82013W        W43324  32.465  43.490   0.904
82014W        W43325  20.641  27.451   0.454
82015W        W43326  38.985  40.043   1.714
82016W        W43327   7.259  20.273   2.266
82017W        W43328   9.741   1.732  14.442
82018W        W43329  30.910   1.286  12.999
82019W        W43330  35.383  16.197   1.698
82020W        W43331   0.273   8.863   2.254
82021W        W43332   1.415  36.502  14.966
82022W        W43333  34.935   4.824  14.997
82023W        W43334   6.907  21.696   2.893
82024W        W43335  25.077  41.502   3.635
82025W        W43336  16.721  19.236   3.279
82026W        W43337   5.415  30.642   2.866
82027W        W43338  16.251  10.243  12.095
82028W        W43339  15.176   2.871   4.705
82029W        W43340  31.622  22.694  13.917
82030W        W43341   8.280  21.050  13.823
82031W        W43342  16.744  37.949   4.768
82032W        W43343   9.225  37.921  12.907
82033W        W43344  29.588  12.657   3.374
82034W        W43345  30.419  23.604  12.067
82035W        W43346  14.135  11.635  11.917
82036W        W43347  44.298  43.453  14.312
82037W        W43348  18.591  26.180  12.999
82038W        W43349  34.867   6.721   2.189
82039W        W43350  19.213  16.156  10.443
82040W        W43351  28.533  43.980  14.367
82041W        W43352  14.800   9.275   1.829
82042W        W43353   3.885  42.784   3.275
82043W        W43354   9.221   4.757  14.316
82044W        W43355  40.333  18.637   1.800
82045W        W43356  33.415  18.232   9.927
82046W        W43357  12.309  11.347  10.434
82047W        W43358   8.837  29.660  11.993
82048W        W43359  34.935  40.414   2.349
82049W        W43360  10.665  34.049  10.424
82050W        W43361  27.976  29.080  14.818
82051W        W43362  31.041  16.628  11.020
82052W        W43363  28.141  14.752  10.547
82053W        W43364   1.877   2.836  12.846
82054W        W43365  21.757  15.325  13.869
82055W        W43366  19.262  36.866  12.991
82056W        W43367   9.658   0.298  13.522
82057W        W43368  10.856  41.366   4.331
82058W        W43369  32.439  12.683   2.695
82059W        W43370  25.117  39.519   1.279
82060W        W43371  13.689  36.590  11.502
82061W        W43372  27.669  26.694  14.504
82062W        W43373  15.137  30.510   4.633
82063W        W43374   7.356   3.712  10.453
82064W        W43375   6.208  28.503  14.774
82065W        W43376  26.600  33.422  11.023
82066W        W43377   9.668  15.763   4.666
82067W        W43378  26.187  18.784   1.894
82068W        W43379   4.284  24.044  14.338
82069W        W43380  23.008   6.251  12.994
82070W        W43381  13.710  12.821  11.074
82071W        W43382  27.497  36.429   2.809
82072W        W43383  20.267  36.383  13.548
82073W        W43384  16.611   5.863   1.702
82074W        W43385  42.365  38.463  14.954
82075W        W43386  10.297  34.928   0.826
82076W        W43387   3.891  44.958  14.822
82077W        W43388  15.189  28.490  11.981
82078W        W43389  39.555  21.515  11.074
82079W        W43390   7.822   6.209   1.374
82080W        W43391   6.427  28.117  13.944
82081W        W43392   8.756  17.284   5.217
82082W        W43393  22.661   3.942  11.128
82083W        W43394  37.917  11.628   4.618
82084W        W43395   4.920   3.228   0.862
82085W        W43396  11.197  38.327   2.325
82086W        W43397   9.289  23.069  11.586
82087W        W43398  10.224  35.932  14.831
82088W        W43399   4.794  27.089  14.297
82089W        W43400  40.456  13.791   0.304
82090W        W43401  13.768  13.166  12.035
82091W        W43402   0.816  15.296  14.447
82092W        W43403  21.126  32.581   1.264
82093W        W43404   4.736  32.015  11.953
82094W        W43405  39.973  24.997  13.974
82095W        W43406   9.274  43.769   1.910
82096W        W43407  18.690   9.790   0.245
82097W        W43408  36.097   8.306   3.833
82098W        W43409   4.715  28.456  13.898
82099W        W43410   7.674  24.059   2.880
82100W        W43411  21.701   4.835  14.793
82101W        W43412   5.788  38.456   3.330
82102W        W43413   3.833  18.679   1.729
82103W        W43414  12.775  32.480   0.746
82104W        W43415   7.385  32.632   1.804
82105W        W43416   4.941  39.429   0.784
82106W        W43417  34.546  20.029   4.631
82107W        W43418   7.814  11.221   1.326
82108W        W43419  44.472  13.799  13.047
82109W        W43420   6.241   9.370   3.637
82110W        W43421  11.165  17.603   4.255
82111W        W43422  39.531  28.631   2.879
82112W        W43423  39.810  21.716  11.019
82113W        W43424   3.870  37.481   1.709
82114W        W43425   8.306  42.449  14.333
82115W        W43426  27.524  34.602   1.299
82116W        W43427   6.861  31.097   4.213
82117W        W43428  28.142  18.631   2.860
82118W        W43429  10.748  36.528   4.318
82119W        W43430  17.291  22.192  11.517
82120W        W43431  38.350  15.679   0.260
82121W        W43432   1.782  13.248  11.904
82122W        W43433   2.860   2.315   0.815
82123W        W43434   5.237  35.102   0.248
82124W        W43435  26.555  44.938   0.256
82125W        W43436  26.466  41.947   4.123
82126W        W43437  21.672  35.870  13.309
82127W        W43438  41.939  21.130  13.948
82128W        W43439  41.040  25.190  10.433
82129W        W43440  43.482  27.593  13.378
82130W        W43441   6.830  14.152  14.418
82131W        W43442  25.047  29.580   1.298
82132W        W43443   7.296  38.840  11.051
82133W        W43444  41.952  12.760   4.834
82134W        W43445  15.595  15.726   2.364
82135W        W43446  28.104  35.420  10.626
82136W        W43447  33.407  31.088  11.959
82137W        W43448  35.480  41.008  13.867
82138W        W43449  21.195  20.524   1.242
82139W        W43450  17.765  30.548   2.271
82140W        W43451  28.550  16.267  11.876
82141W        W43452  18.573  24.094   1.407
82142W        W43453  21.695   1.885   4.125
82143W        W43454   6.829  13.324   4.721
82144W        W43455   7.303  19.216  14.391
82145W        W43456  39.942  41.468   0.388
82146W        W43457  14.687  40.530   1.359
82147W        W43458   7.830  12.195  13.824
82148W        W43459  11.164   6.835  10.907
82149W        W43460  33.447  24.088   3.260
82150W        W43461  23.704  12.344   2.699
82151W        W43462  25.197  11.253   4.739
82152W        W43463  17.706  44.436   2.320
82153W        W43464  19.593  16.253  12.382
82154W        W43465   3.275   4.829  12.358
82155W        W43466   9.849  43.398  14.475
82156W        W43467  13.728  29.596  11.026
82157W        W43468  13.208  42.987  10.460
82158W        W43469  23.064  36.540   0.793
82159W        W43470   4.750  22.535   0.740
82160W        W43471  31.989  26.517  13.438
82161W        W43472  18.711  24.015   4.641
82162W        W43473  27.667   5.816  13.541
82163W        W43474  14.134   9.753  13.466
82164W        W43475  16.075  12.656   3.760
82165W        W43476  38.060  28.977   0.929
82166W        W43477  34.867  30.590  12.875
82167W        W43478  29.607  12.305  11.011
82168W        W43479  39.919   6.735  14.939
82169W        W43480  32.440  17.708  11.579
82170W        W43481  21.138   4.347   0.892
82171W        W43482  31.015   0.898   3.302
82172W        W43483   9.824  39.929  11.957
82173W        W43484  10.807  40.966  13.815
82174W        W43485  36.471  34.415  13.807
82175W        W43486  15.099  25.151   1.345
82176W        W43487   2.892   7.872   4.656
82177W        W43488  41.293  15.776  12.091
82178W        W43489   8.242  38.882  14.853
82179W        W43490  28.150  28.568   3.328
82180W        W43491   9.298  10.831  13.411
82181W        W43492  27.454   2.233  13.882
82182W        W43493  19.158  26.070  11.886
82183W        W43494  10.322  12.174  11.895
82184W        W43495  29.592  16.156   4.327
82185W        W43496  12.808  27.663   1.326
82186W        W43497  18.231  39.985   2.311
82187W        W43498   5.202   3.790  11.028
82188W        W43499  27.533  25.205  11.458
82189W        W43500  31.506  32.045   3.235
82190W        W43501  14.811  16.768  11.859
82191W        W43502  12.724  19.225   4.223
82192W        W43503  33.542  39.018  10.053
82193W        W43504  11.182  31.547   0.367
82194W        W43505  43.851  31.955   2.294
82195W        W43506  38.996   8.165  13.971
82196W        W43507  21.061  30.552   1.403
82197W        W43508   3.869  36.860  13.946
82198W        W43509  44.418  19.145  14.988
82199W        W43510   0.798   7.313   4.285
82200W        W43511   7.762  21.050   1.226
82201W        W43512  42.423  44.288   2.405
82202W        W43513  38.027   2.775   4.352
82203W        W43514  35.387  37.562   0.362
82204W        W43515  42.906  32.622  12.430
82205W        W43516   6.710  20.153  12.934
82206W        W43517  39.846  42.447   2.205
82207W        W43518  27.165  43.956  12.885
82208W        W43519  28.033  33.901   2.864
82209W        W43520  41.509  33.509   2.882
82210W        W43521   0.310  13.315   2.346
82211W        W43522  15.757  14.186  13.518
82212W        W43523   1.318  42.330  10.935
82213W        W43524   5.929  39.430   0.460
82214W        W43525  29.513  27.168  12.442
82215W        W43526  42.418  24.975  10.998
82216W        W43527  24.500  35.430  13.523
82217W        W43528   9.655  13.815   1.301
82218W        W43529  32.944  44.909  13.336
82219W        W43530  42.864  13.196   5.094
82220W        W43531   8.767   2.933  10.498
82221W        W43532  20.203  12.135   3.340
82222W        W43533  22.678   9.387  13.362
82223W        W43534  16.715  16.274   2.706
82224W        W43535  14.606  31.431   4.291
82225W        W43536  40.810  26.571  12.519
82226W        W43537  16.243  41.419  14.953
82227W        W43538  41.479  21.584   3.783
82228W        W43539  13.236  30.466   0.322
82229W        W43540  18.135  30.592   3.769
82230W        W43541  19.186   7.372   1.238
82231W        W43542  38.846  11.337   2.692
82232W        W43543  23.625  37.945  14.390
82233W        W43544   1.956  15.235  12.832
82234W        W43545  17.274  40.484   4.193
82235W        W43546  34.992  40.326  10.939
82236W        W43547  30.617  22.237  11.430
82237W        W43548   8.685  11.361  13.528
82238W        W43549  16.672  34.037   3.655
82239W        W43550  15.210  24.505  10.481
82240W        W43551  24.552  13.134   2.842
82241W        W43552  35.506   1.852  11.002
82242W        W43553   1.455  41.869   2.856
82243W        W43554  28.082  41.319  13.415
82244W        W43555  34.905   5.822   9.990
82245W        W43556   2.343   7.394  13.064
82246W        W43557  13.750  16.641   3.160
82247W        W43558  11.325   2.232   1.804
82248W        W43559  39.926  11.797   0.328
82249W        W43560  41.308  36.082  14.439
82250W        W43561  22.182  16.225   4.299
82251W        W43562  26.623  24.485   1.213
82252W        W43563  44.309  14.826  10.457
82253W        W43564  24.515   6.867   0.385
82254W        W43565  32.902  38.553  13.879
82255W        W43566  22.178  18.068   3.300
82256W        W43567  10.267  36.897   1.315
82257W        W43568  23.685  41.373  14.323
82258W        W43569  10.232   0.459  14.024
82259W        W43570  17.170  42.009  11.468
82260W        W43571  10.804  19.745  11.427
82261W        W43572  12.209  31.624  11.046
82262W        W43573  32.574  18.065  13.525
82263W        W43574   1.322  14.830   1.360
82264W        W43575  19.184   4.427  11.459
82265W        W43576  41.512   6.369   2.734
82266W        W43577  20.139  27.995   1.863
82267W        W43578  15.726   4.407   2.397
82268W        W43579  24.490  30.065  11.903
82269W        W43580  34.614  21.686   3.231
82270W        W43581  41.502   3.901   4.195
82271W        W43582   2.866  41.809  13.426
82272W        W43583   0.957  28.459  11.972
82273W        W43584  35.567  24.079  12.991
82274W        W43585  29.943  26.200  14.862
82275W        W43586  20.125  37.989   4.691
82276W        W43587  19.704  24.146   1.700
82277W        W43588  21.210  29.523   0.963
82278W        W43589  33.999  30.164   9.949
82279W        W43590   5.411  19.241   4.204
82280W        W43591  35.544  20.055  12.446
82281W        W43592   5.925  39.995  14.010
82282W        W43593  25.086  44.919   3.637
82283W        W43594  23.164  12.731  12.091
82284W        W43595   8.673  26.136   3.305
82285W        W43596  27.560  10.674   4.231
82286W        W43597  41.516  42.484   3.276
82287W        W43598  22.053  42.304  10.142
82288W        W43599  29.471  37.988  12.052
82289W        W43600  39.037  22.089  14.032
82290W        W43601  10.659  23.714   3.193
82291W        W43602   8.278   1.430  11.871
82292W        W43603  21.114  39.827   1.826
82293W        W43604  43.289  44.787  14.893
82294W        W43605  18.276  27.106   2.817
82295W        W43606  28.638  23.714   1.370
82296W        W43607  17.654  22.508   0.404
82297W        W43608  29.064  18.742  14.460
82298W        W43609   5.311  15.795   0.801
82299W        W43610   1.466   9.184   0.429
82300W        W43611  16.748   7.898  13.854
82301W        W43612   0.899  20.531   2.813
82302W        W43613  23.645   9.729   4.262
82303W        W43614  33.099   1.823   4.752
82304W        W43615  29.541  15.132   3.372
82305W        W43616  26.677  11.638  10.575
82306W        W43617   0.394  21.059  10.938
82307W        W43618  22.726  11.334  14.290
82308W        W43619  13.230   3.811   5.574
82309W        W43620  38.519   4.224  10.539
82310W        W43621  18.702   7.333  12.394
82311W        W43622   8.298   6.784   1.218
82312W        W43623  41.304  37.886  11.867
82313W        W43624  41.309  40.307   1.783
82314W        W43625  10.872   2.294   2.810
82315W        W43626   2.376  22.085   3.820
82316W        W43627  26.674   7.871  14.461
82317W        W43628  39.063   0.873  13.022
82318W        W43629   5.294  27.173   4.656
82319W        W43630  22.508  21.553   4.812
82320W        W43631  16.211  38.510   4.334
82321W        W43632  14.679  13.310  11.549
82322W        W43633  19.249  37.920  11.062
82323W        W43634  26.156   4.239   3.822
82324W        W43635   8.672   8.841   3.221
82325W        W43636  25.582  28.069  14.493
82326W        W43637   7.678  43.931  11.997
82327W        W43638  23.066  28.484  10.946
82328W        W43639  36.035  43.442  14.970
82329W        W43640   9.385   8.258   2.749
82330W        W43641  15.718  17.802   2.272
82331W        W43642  33.127   5.865   0.961
82332W        W43643  23.241  24.709   3.756
82333W        W43644   2.731  20.109  11.465
82334W        W43645   9.163  36.841   4.337
82335W        W43646  31.511  26.659  13.396
82336W        W43647  14.713  19.261   3.235
82337W        W43648  16.702  41.020  14.418
82338W        W43649  27.514  16.195  14.482
82339W        W43650  17.637   8.331  11.903
82340W        W43651  38.348  34.896   2.850
82341W        W43652   3.427  16.131  14.294
82342W        W43653  22.022   9.340   1.696
82343W        W43654   4.439  27.141  14.815
82344W        W43655  18.773   9.719  10.981
82345W        W43656   3.822   5.783   3.316
82346W        W43657  10.341  14.127  13.800
82347W        W43658  38.559  25.619   2.822
82348W        W43659  41.356   3.374   2.759
82349W        W43660  11.667  42.806  11.999
82350W        W43661  29.163  21.260   0.758
82351W        W43662  31.949   8.769   3.866
82352W        W43663  17.228  32.543  10.976
82353W        W43664  16.568  24.669   0.366
82354W        W43665  22.550  33.900  12.356
82355W        W43666   2.354  38.826  14.025
82356W        W43667  43.858  36.378   0.894
82357W        W43668  40.495  31.898   4.276
82358W        W43669  35.495  22.537  13.812
82359W        W43670  20.052  19.139  12.388
82360W        W43671  35.460  14.307   0.790
82361W        W43672  14.761  29.484  14.868
82362W        W43673   8.836  28.511  14.016
82363W        W43674  18.220  41.914  13.491
82364W        W43675  33.417   5.425  10.572
82365W        W43676  31.126   7.689   3.650
82366W        W43677  40.872  40.484   0.918
82367W        W43678  19.604   5.224  11.419
82368W        W43679  38.878   2.302   1.885
82369W        W43680  35.402  34.441   2.372
82370W        W43681  43.344  34.019  12.355
82371W        W43682   1.774  23.693  12.364
82372W        W43683   5.236  13.830   2.372
82373W        W43684   5.195  23.199  11.473
82374W        W43685  31.641  21.639  11.395
82375W        W43686  33.028  39.434   2.326
82376W        W43687  43.926  28.973   1.881
82377W        W43688  37.935  10.323   3.854
82378W        W43689  40.798  34.910   1.924
82379W        W43690  35.038  12.739   4.729
82380W        W43691  32.473  39.504  13.808
82381W        W43692   4.239  11.790  14.806
82382W        W43693   9.168  16.594  14.869
82383W        W43694   7.416  12.323  11.594
82384W        W43695  13.136  11.164  11.475
82385W        W43696  17.649  15.269   3.210
82386W        W43697   8.267  34.593  11.571
82387W        W43698   3.224  42.491  12.076
82388W        W43699   2.799  19.282   2.402
82389W        W43700  36.381  27.669   3.673
82390W        W43701  11.749  33.467  12.394
82391W        W43702  37.909  40.324  13.018
82392W        W43703   0.374  12.191  13.846
82393W        W43704  44.466  27.166   0.848
82394W        W43705  32.015  42.412  14.416
82395W        W43706   0.950   0.434   1.716
82396W        W43707   2.960   9.678   2.312
82397W        W43708  29.131  24.982   3.297
82398W        W43709  14.820  21.124  10.606
82399W        W43710  38.977   4.425  11.047
82400W        W43711  25.490  37.453  14.279
82401W        W43712  32.510  27.156   1.855
82402W        W43713  43.919   5.910   4.184
82403W        W43714  11.150   9.757  14.867
82404W        W43715  39.401  37.966  10.445
82405W        W43716  28.072  44.326  10.499
82406W        W43717  30.429  12.760   0.408
82407W        W43718  26.017   6.845   1.361
82408W        W43719  37.562  24.621  11.413
82409W        W43720   6.894  25.649  11.398
82410W        W43721  28.979   0.420   2.891
82411W        W43722   4.343  21.528  14.391
82412W        W43723  37.543   3.773   3.751
82413W        W43724  33.031  20.717   3.836
82414W        W43725   1.402  37.932  12.580
82415W        W43726  33.619  43.827  14.018
82416W        W43727  36.374  41.452   0.321
82417W        W43728  13.202  14.745   4.292
82418W        W43729  37.002   2.398   3.661
82419W        W43730   7.374  24.718   1.235
82420W        W43731  26.042  19.646   0.820
82421W        W43732  12.320  31.980  14.358
82422W        W43733  23.557  10.139  14.493
82423W        W43734  20.083   7.247   1.828
82424W        W43735  25.006   5.746   0.309
82425W        W43736   5.737  31.056  14.855
82426W        W43737  11.230   1.919   1.325
82427W        W43738  36.541  44.953  10.509
82428W        W43739  36.429  32.078   1.841
82429W        W43740  40.012   5.853   2.320
82430W        W43741  16.750  10.359  14.893
82431W        W43742  26.167  10.298   4.805
82432W        W43743   8.787   0.988  13.389
82433W        W43744  20.564  38.523   1.278
82434W        W43745  28.670   9.879  11.121
82435W        W43746   7.352   3.748   4.115
82436W        W43747  21.664  26.203  14.825
82437W        W43748   3.457   9.805   0.837
82438W        W43749  33.381   1.956   3.341
82439W        W43750  12.639  23.191   4.158
82440W        W43751  33.086   8.240  14.997
82441W        W43752   4.771  17.785   2.794
82442W        W43753  27.520  36.463  14.317
82443W        W43754  32.141  21.742   4.142
82444W        W43755  18.088  34.081  12.532
82445W        W43756  41.869  31.108  13.501
82446W        W43757  32.432  39.541   0.432
82447W        W43758   9.706  14.821  13.029
82448W        W43759  41.028  17.713  11.993
82449W        W43760  25.707   4.796  13.938
82450W        W43761  21.662  22.088   2.266
82451W        W43762   1.933  27.142   4.705
82452W        W43763  20.674  23.711  14.488
82453W        W43764  43.913  22.151  11.399
82454W        W43765  21.604  30.935  10.596
82455W        W43766   8.739  37.476  11.870
82456W        W43767  17.118  28.100   5.107
82457W        W43768   2.250  37.554  10.960
82458W        W43769  17.296  42.854   1.235
82459W        W43770  22.209  19.266   3.822
82460W        W43771  42.821  17.764  12.871
82461W        W43772  39.427  14.308  11.863
82462W        W43773   2.915  20.643  11.542
82463W        W43774  18.744   5.224  13.427
82464W        W43775  18.092   1.429   2.388
82465W        W43776   7.237  31.916   3.342
82466W        W43777  10.788  23.037  14.293
82467W        W43778  13.798  44.348  13.923
82468W        W43779   0.309  26.644  13.031
82469W        W43780  26.026  22.242   2.359
82470W        W43781  43.511  35.385   1.830
82471W        W43782   2.260  12.687   4.320
82472W        W43783  41.508  20.715   4.632
82473W        W43784   1.785   9.720   4.205
82474W        W43785  11.272  27.080   4.768
82475W        W43786  41.986  10.249  12.096
82476W        W43787  24.552  14.830   3.675
82477W        W43788  18.730  31.897   1.700
82478W        W43789  27.683   7.277  13.447
82479W        W43790   9.174  42.500   3.207
82480W        W43791  11.355  44.359  11.553
82481W        W43792  17.732   9.323   0.405
82482W        W43793  22.162   8.171  13.841
82483W        W43794  40.421  12.703   4.131
82484W        W43795   4.816  40.824  11.007
82485W        W43796   1.369  33.048  12.457
82486W        W43797  26.678  16.209   0.476
82487W        W43798  42.472  13.166  11.053
82488W        W43799  36.379  18.554   0.845
82489W        W43800  33.608  23.097   2.871
82490W        W43801  29.516   7.381  12.368
82491W        W43802   2.324   5.201  14.835
82492W        W43803  31.151  23.152   1.225
82493W        W43804  16.211  30.972  13.473
82494W        W43805   6.387  16.682   3.719
82495W        W43806  20.206  21.134  12.424
82496W        W43807  16.210  19.741  14.303
82497W        W43808  21.699  28.145   4.837
82498W        W43809   7.815  23.518   2.349
82499W        W43810   7.199   7.198  11.991
82500W        W43811  19.146  38.353  14.790
82501W        W43812  27.964  26.058  12.363
82502W        W43813   8.832   2.925  14.342
82503W        W43814  16.094  12.362   0.374
82504W        W43815  14.609  26.067   1.893
82505W        W43816  40.520  39.049   4.619
82506W        W43817  16.671   1.811   1.395
82507W        W43818  36.862  32.068   5.109
82508W        W43819  26.678  11.848  11.052
82509W        W43820  39.430   4.379   1.905
82510W        W43821  44.837   0.429   2.232
82511W        W43822   0.814  32.962  13.816
82512W        W43823  35.100  30.986  13.491
82513W        W43824  10.327  33.920   2.824
82514W        W43825   1.266  40.993   1.254
82515W        W43826   2.383  31.539  11.087
82516W        W43827  44.312  16.574   2.795
82517W        W43828  40.937  30.051   1.224
82518W        W43829  14.195  17.603  12.012
82519W        W43830  43.409  10.808   3.319
82520W        W43831  18.099  28.153  14.954
82521W        W43832  24.177  26.208   3.713
82522W        W43833  35.540  36.491   4.320
82523W        W43834  38.345  15.794   3.153
82524W        W43835  20.526   1.250  10.595
82525W        W43836   9.831  17.749   9.573
82526W        W43837  28.610   8.777  11.938
82527W        W43838  26.153  34.550  12.492
82528W        W43839  41.845  28.549  14.933
82529W        W43840  29.424  11.667  11.050
82530W        W43841  22.715  36.350  14.873
82531W        W43842  32.079   9.295  10.502
82532W        W43843   2.834  44.978  13.547
82533W        W43844  37.931  15.191  12.396
82534W        W43845  29.140  10.167   0.434
82535W        W43846  20.764  30.069   4.837
82536W        W43847  38.898  36.893   0.453
82537W        W43848  17.231  30.021  12.424
82538W        W43849  38.075  36.551  12.826
82539W        W43850  19.730  10.280  12.886
82540W        W43851  10.878  28.479   3.168
82541W        W43852  24.583   3.374  14.483
82542W        W43853  36.362  10.662  10.579
82543W        W43854   8.680   2.744   1.325
82544W        W43855  32.502  38.381   4.158
82545W        W43856  32.430   2.470   0.406
82546W        W43857  21.239  32.620  14.879
82547W        W43858  36.974   8.738   3.227
82548W        W43859  26.483  16.719   3.215
82549W        W43860  36.896   9.274   0.295
82550W        W43861  20.125  28.931   4.658
82551W        W43862  12.286  37.500   2.342
82552W        W43863   5.435  44.989   3.308
82553W        W43864   3.216  41.827   0.397
82554W        W43865  18.592   8.872  10.136
82555W        W43866  17.294  27.013   9.985
82556W        W43867  14.617   5.372   1.399
82557W        W43868   2.840  28.439   3.330
82558W        W43869  10.719  40.433   1.322
82559W        W43870  36.399   3.365  13.887
82560W        W43871  31.940  16.176   1.368
82561W        W43872   9.880  23.494  14.338
82562W        W43873  40.940  29.952  14.412
82563W        W43874   0.843   4.331   1.831
82564W        W43875  28.486   8.715   0.768
82565W        W43876  12.783  11.719   0.781
82566W        W43877  38.328  27.641  12.457
82567W        W43878  43.292  20.135  14.824
82568W        W43879  26.157   6.820  14.286
82569W        W43880  41.979  18.164  11.544
82570W        W43881  41.496  24.525  11.024
82571W        W43882  34.503  29.663  12.007
82572W        W43883  19.167   8.743   4.711
82573W        W43884  29.946  29.043   3.673
82574W        W43885  15.811   2.853   4.784
82575W        W43886  31.015  18.680  14.762
82576W        W43887  11.309  35.393   2.316
82577W        W43888  23.703  20.563   2.419
82578W        W43889   7.403  27.163   4.762
82579W        W43890  36.975  43.464  11.118
82580W        W43891  24.531  43.887   1.925
82581W        W43892  26.142  28.473   3.712
82582W        W43893   6.724  27.179  10.902
82583W        W43894  30.152   2.944  13.504
82584W        W43895  11.653  26.955   2.297
82585W        W43896   8.711  13.156  11.492
82586W        W43897  19.740  34.107  14.978
82587W        W43898  26.667  33.457   2.891
82588W        W43899  29.146  30.482  10.571
82589W        W43900  41.314   4.339  11.908
82590W        W43901   4.408  29.633  14.502
82591W        W43902  42.962  14.699   3.669
82592W        W43903  26.987  23.179  11.894
82593W        W43904  30.077  38.937   0.858
82594W        W43905   0.939   9.325  10.487
82595W        W43906  13.739   1.814   0.294
82596W        W43907   0.884  28.081   3.284
82597W        W43908  23.666  28.025  10.919
82598W        W43909  39.520   0.749  12.082
82599W        W43910  18.746   3.436  13.386
82600W        W43911  15.587   6.350   2.264
82601W        W43912  37.405   2.294   3.646
82602W        W43913  13.330  22.635  11.968
82603W        W43914  11.715   8.251   1.857
82604W        W43915   6.427  32.095  13.935
82605W        W43916   8.813   0.847   2.281
82606W        W43917  19.577  13.828   3.759
82607W        W43918  20.547  32.064  14.509
82608W        W43919  20.548  20.668  12.423
82609W        W43920  26.955  36.512   1.412
82610W        W43921  26.679  41.994   0.434
82611W        W43922  11.207  35.947   0.823
82612W        W43923  31.443   7.330   2.668
82613W        W43924  40.427  22.199  13.541
82614W        W43925   5.290  31.073  11.540
82615W        W43926  36.971  14.636  14.995
82616W        W43927  31.575  32.127  11.923
82617W        W43928  40.449   3.950  12.566
82618W        W43929   1.972  40.497   2.183
82619W        W43930  16.768  28.144  13.523
82620W        W43931  10.330   5.317   4.238
82621W        W43932   0.872  29.633   5.184
82622W        W43933  39.889  25.083   2.290
82623W        W43934  44.490  23.199  13.934
82624W        W43935  23.128  14.621   4.232
82625W        W43936   0.298   2.845   2.252
82626W        W43937  43.298  30.498  14.980
82627W        W43938   1.289  23.118   4.278
82628W        W43939  39.912  34.948   2.875
82629W        W43940  39.046   4.316  12.915
82630W        W43941  32.999  32.066   0.450
82631W        W43942   9.280  36.580   0.928
82632W        W43943   8.275   6.807  12.055
82633W        W43944  14.791  24.521   3.665
82634W        W43945  34.877   5.822   4.203
82635W        W43946  30.453  11.665  14.852
82636W        W43947  22.644  30.020   3.177
82637W        W43948   2.381  43.979  13.400
82638W        W43949  20.071  15.166   9.523
82639W        W43950  26.013  41.483  12.439
82640W        W43951  29.998   1.876  13.443
82641W        W43952  33.908   2.792   1.874
82642W        W43953  15.668  21.655   4.656
82643W        W43954  21.074  35.912  10.624
82644W        W43955  44.431  27.949  11.014
82645W        W43956   4.316  13.159   1.350
82646W        W43957  32.926   1.748  12.878
82647W        W43958  28.987   3.256   5.248
82648W        W43959  35.366  34.063  14.476
82649W        W43960  10.302  42.950  11.962
82650W        W43961  24.550  34.386  10.532
82651W        W43962   9.289   9.178   1.326
82652W        W43963  11.627  38.537   4.756
82653W        W43964  39.381  18.283  13.059
82654W        W43965  32.946  22.716   1.212
82655W        W43966  38.886  27.472  13.393
82656W        W43967   9.834   8.720   0.814
82657W        W43968  37.469  32.993   0.368
82658W        W43969  14.232  39.912   0.808
82659W        W43970  29.476  14.244  10.113
82660W        W43971  31.471  38.988  14.409
82661W        W43972  14.825   9.790   1.376
82662W        W43973  12.239  34.599  13.849
82663W        W43974  11.137   1.972  10.926
82664W        W43975  30.549  24.013  14.027
82665W        W43976  24.595  27.041   4.764
82666W        W43977  35.876  24.519   0.260
82667W        W43978  40.491  39.054   1.763
82668W        W43979  26.078   9.359  10.984
82669W        W43980  22.066  34.602  10.544
82670W        W43981  17.072  22.219  10.441
82671W        W43982   2.892  11.307  13.830
82672W        W43983  22.067  41.905   1.789
82673W        W43984   6.683   8.800   1.226
82674W        W43985  31.410   4.445   2.691
82675W        W43986  21.092  38.950   2.792
82676W        W43987  34.429  21.709  14.410
82677W        W43988  34.544   9.179   3.382
82678W        W43989  14.335  13.632  10.002
82679W        W43990  40.970   4.802   0.968
82680W        W43991  10.256   9.279  12.442
82681W        W43992  26.625  37.018   5.216
82682W        W43993  25.543   5.310   9.985
82683W        W43994  44.289   4.293   3.386
82684W        W43995   3.383   4.446  14.432
82685W        W43996  34.969  33.938  10.969
82686W        W43997   6.212  35.498   1.375
82687W        W43998  26.604  38.045  12.005
82688W        W43999  29.071  32.132  13.015
82689W        W44000  28.972  30.118  11.996
82690W        W44001  37.349   4.890   0.312
82691W        W44002  23.096  31.644   3.387
82692W        W44003  26.624  24.552  14.952
82693W        W44004   7.820   8.291   3.370
82694W        W44005  18.069  27.631  12.919
82695W        W44006  27.009  39.901   3.849
82696W        W44007  10.837  41.829  11.401
82697W        W44008  17.249  12.334   2.210
82698W        W44009  28.078  12.651  10.080
82699W        W44010  35.103   6.308  12.993
82700W        W44011  38.545   8.215  13.402
82701W        W44012   5.208  21.165   4.267
82702W        W44013  33.468   2.280  12.852
82703W        W44014  32.131  25.551   0.455
82704W        W44015  40.832  24.565   4.764
82705W        W44016  33.601  12.641   5.248
82706W        W44017  40.533  23.507  10.155
82707W        W44018  30.541  34.012   2.379
82708W        W44019  42.786  33.955   4.189
82709W        W44020  16.257  18.068   3.808
82710W        W44021  35.067  40.507   4.191
82711W        W44022   9.824  36.930  10.631
82712W        W44023   9.381  24.574   2.201
82713W        W44024  40.532  39.322  11.444
82714W        W44025  12.649  15.294  11.563
82715W        W44026  43.437   2.317  14.957
82716W        W44027  32.517  28.083  13.002
82717W        W44028  21.687  27.193  13.062
82718W        W44029   0.298  24.674   0.289
82719W        W44030  28.661  10.687  11.978
82720W        W44031  43.899  40.981  11.422
82721W        W44032  16.675   9.321  13.309
82722W        W44033  35.409   7.177   4.261
82723W        W44034  24.573  31.417  12.454
82724W        W44035  42.432  30.093   0.395
82725W        W44036  23.182   8.796  10.988
82726W        W44037   6.721  22.192   2.779
82727W        W44038  10.214  12.754   0.813
82728W        W44039  10.875  43.785   0.371
82729W        W44040  28.106  15.170   0.303
82730W        W44041  39.369   5.436   4.607
82731W        W44042  10.829  27.565   0.864
82732W        W44043  37.919  21.175  14.353
82733W        W44044  34.080  31.462   4.783
82734W        W44045   2.321   6.288   2.254
82735W        W44046   8.693  16.611   2.715
82736W        W44047  28.494  37.078   4.273
82737W        W44048   5.225  24.174   0.260
82738W        W44049  21.593  14.206  14.448
82739W        W44050  19.760  18.621  11.419
82740W        W44051   8.315  17.128  13.403
82741W        W44052   2.943   5.763  12.534
82742W        W44053  40.368  15.322   1.815
82743W        W44054  37.057  26.165  11.434
82744W        W44055  14.171  18.051   2.327
82745W        W44056   0.885  43.789  12.949
82746W        W44057  12.775  13.294  13.386
82747W        W44058  18.677  33.029  14.782
82748W        W44059  27.667   3.725   4.651
82749W        W44060  15.286   2.894  10.993
82750W        W44061  17.302  33.984  13.385
82751W        W44062  20.768   3.747   4.329
82752W        W44063  34.580  37.408   3.318
82753W        W44064  28.489  39.339   2.239
82754W        W44065  11.855  43.433  14.819
82755W        W44066   0.430   4.840   3.267
82756W        W44067  36.499   7.687   1.846
82757W        W44068  13.719   9.673  14.793
82758W        W44069   7.273  13.630   5.195
82759W        W44070  29.031  16.755  14.928
82760W        W44071  32.089   4.831  11.549
82761W        W44072   6.248  13.694   1.408
82762W        W44073   9.247  23.574  11.438
82763W        W44074   6.770  21.159  13.405
82764W        W44075   8.671  39.494  13.992
82765W        W44076   4.319   3.403  11.598
82766W        W44077  29.016   3.250  11.992
82767W        W44078  38.501  18.253  11.933
82768W        W44079  22.237  13.666  14.939
82769W        W44080  27.564  22.680  10.933
82770W        W44081  21.023  28.632   3.758
82771W        W44082   9.729   4.203   1.750
82772W        W44083  12.789  31.077   0.458
82773W        W44084  14.816  27.996   0.805
82774W        W44085  10.702  36.007  13.036
82775W        W44086  19.087  28.546   1.906
82776W        W44087   8.839  14.213  14.031
82777W        W44088  33.557  18.710   2.262
82778W        W44089  38.049  20.560   0.384
82779W        W44090   3.269  25.681   0.281
82780W        W44091   4.703   5.862  11.584
82781W        W44092  24.991  28.026   0.250
82782W        W44093  41.024  39.816  10.993
82783W        W44094  25.088  33.402   5.248
82784W        W44095   3.250  37.846   1.343
82785W        W44096  35.925  41.537   1.440
82786W        W44097   6.769   4.214   3.194
82787W        W44098   4.342  44.005   0.920
82788W        W44099  32.894  16.569  13.514
82789W        W44100  37.557   5.377   1.227
82790W        W44101  24.043  33.975   4.826
82791W        W44102  35.890   5.780  11.109
82792W        W44103  11.364  21.182  11.052
82793W        W44104  29.603  43.324  14.487
82794W        W44105  19.763  31.555   3.158
82795W        W44106   2.801  13.309   3.725
82796W        W44107  18.095  33.027  12.557
82797W        W44108   6.292  15.693   4.299
82798W        W44109  33.400  22.217  13.434
82799W        W44110  16.711   3.230  14.964
82800W        W44111  14.599   6.759  10.535
82801W        W44112  29.641  12.277  14.859
82802W        W44113  32.511  24.047  14.022
82803W        W44114  26.624  27.946   0.284
82804W        W44115  15.280  12.177   1.840
82805W        W44116  12.779  33.937   3.240
82806W        W44117  14.649   1.481  12.459
82807W        W44118  41.014  17.207   1.737
82808W        W44119  25.600   6.870   2.750
82809W        W44120  16.648  28.490   1.789
82810W        W44121   7.194  43.347   3.261
82811W        W44122   9.837  13.110  14.807
82812W        W44123  34.424   4.259  13.471
82813W        W44124   1.910  31.533   4.155
82814W        W44125  36.988  23.077  13.521
82815W        W44126   0.414   8.231  10.637
82816W        W44127  20.763  40.523   4.742
82817W        W44128  19.202  21.260   2.322
82818W        W44129  31.643  34.558  14.450
82819W        W44130  35.034  42.907  10.548
82820W        W44131  14.330  38.845  11.106
82821W        W44132  18.549   1.885  14.426
82822W        W44133   5.423  36.504  12.899
82823W        W44134  11.173  17.746  11.866
82824W        W44135  34.488  43.854   2.793
82825W        W44136  20.645  31.948  12.095
82826W        W44137  37.850   7.681  12.398
82827W        W44138  17.161  11.353  12.829
82828W        W44139  18.545  35.398   4.648
82829W        W44140  20.748   2.462   3.236
82830W        W44141  18.737   7.389   5.136
82831W        W44142  20.207  35.420  10.523
82832W        W44143  42.966  40.413  10.946
82833W        W44144   2.272  38.987   1.888
82834W        W44145  38.328  38.876   2.828
82835W        W44146  37.355  43.011   0.858
82836W        W44147   9.669  11.168  13.893
82837W        W44148  20.058   3.298  13.912
82838W        W44149  20.707  19.779   5.166
82839W        W44150   2.274  14.612  12.567
82840W        W44151  19.715  29.939  13.341
82841W        W44152   0.753  16.665  14.300
82842W        W44153  25.603  22.611   0.818
82843W        W44154   9.337   6.272   1.372
82844W        W44155  30.528  30.032  14.938
82845W        W44156  22.020   2.471   1.394
82846W        W44157  23.225  26.546  11.975
82847W        W44158   1.953  22.044   1.283
82848W        W44159  25.216  19.151  13.972
82849W        W44160  25.526  13.155  10.628
82850W        W44161   7.705   0.385   2.735
82851W        W44162  23.603  32.480   0.479
82852W        W44163  28.106  20.203   1.373
82853W        W44164  38.056  44.872   2.250
82854W        W44165  43.940   7.902  12.002
82855W        W44166  25.698   7.354   2.331
82856W        W44167  38.494   3.910  10.483
82857W        W44168  42.312  22.523   3.314
82858W        W44169  23.116  26.965  12.889
82859W        W44170   3.729   2.429  13.547
82860W        W44171  36.553  22.114  13.449
82861W        W44172  39.820  19.580   2.184
82862W        W44173  16.282  18.602  12.875
82863W        W44174  27.102  34.598  11.002
82864W        W44175  44.814  13.216  13.425
82865W        W44176   4.773   0.425   0.958
82866W        W44177   0.310  30.995  10.607
82867W        W44178  25.053  20.561  14.775
82868W        W44179   1.251  28.628   2.207
82869W        W44180  25.994  36.957   0.928
82870W        W44181  25.036   3.955   2.302
82871W        W44182  16.176  25.651  13.525
82872W        W44183   3.320  34.384  10.085
82873W        W44184  29.052  43.911   3.243
82874W        W44185  30.503   9.819  14.380
82875W        W44186  38.955  15.586   0.751
82876W        W44187  17.592  22.063  11.909
82877W        W44188  22.122  39.937   0.842
82878W        W44189  34.024  42.849   2.775
82879W        W44190  39.842   7.309  13.043
82880W        W44191   5.246  31.527   2.670
82881W        W44192  10.654  40.371   2.326
82882W        W44193  39.914  44.411   0.323
82883W        W44194   5.726  36.016  14.451
82884W        W44195  36.400  41.904  10.919
82885W        W44196   3.831  13.328   0.459
82886W        W44197   4.312  41.915  10.529
82887W        W44198  22.656  18.209   3.796
82888W        W44199  37.888  40.471   2.371
82889W        W44200  25.472  32.112  14.333
82890W        W44201  22.165   5.213  11.873
82891W        W44202   7.399  33.907   4.298
82892W        W44203  29.083  21.017   1.700
82893W        W44204  29.663  16.099  13.962
82894W        W44205   0.955   8.838   5.222
82895W        W44206  38.885  11.746  13.353
82896W        W44207  13.612  27.567   4.603
82897W        W44208  30.613  20.666  14.416
82898W        W44209  29.926  25.158  13.949
82899W        W44210  40.019  39.975   3.251
82900W        W44211  13.712  14.682  14.791
82901W        W44212  33.496  43.308   0.850
82902W        W44213  33.943  19.132   3.705
82903W        W44214   6.790  12.717   2.851
82904W        W44215  44.327  11.769  12.342
82905W        W44216  30.088  43.465  11.923
82906W        W44217  11.323  19.213  14.308
82907W        W44218  28.118   5.799  12.415
82908W        W44219   6.297  18.249  13.363
82909W        W44220  30.651  33.409  13.830
82910W        W44221  24.115   3.296   3.699
82911W        W44222  26.117  20.573   3.719
82912W        W44223  11.221  30.609  11.043
82913W        W44224  29.959  19.074  12.377
82914W        W44225  17.220   4.917   2.217
82915W        W44226   2.917  39.555   3.273
82916W        W44227  26.133  15.632   2.785
82917W        W44228  18.152  27.574  13.383
82918W        W44229   6.290  27.644  11.583
82919W        W44230  37.567   8.191   2.356
82920W        W44231  29.160  11.349  11.892
82921W        W44232   3.416  16.668  11.480
82922W        W44233  39.935  12.292   1.740
82923W        W44234  30.533  13.176  11.491
82924W        W44235  27.144  37.404  11.900
82925W        W44236  23.674  13.294  11.967
82926W        W44237  10.254  24.575  12.565
82927W        W44238   2.927  35.409   4.259
82928W        W44239  21.226   5.728  10.084
82929W        W44240  34.102  29.657   2.891
82930W        W44241  36.062  44.829   0.388
82931W        W44242  35.542   1.881   1.371
82932W        W44243  27.642  30.157  11.590
82933W        W44244  36.907  15.176   3.366
82934W        W44245  26.000  19.656  14.905
82935W        W44246  35.061  38.452  11.465
82936W        W44247  27.675  12.118   4.181
82937W        W44248  26.150  33.501  13.887
82938W        W44249  33.105  17.786  13.362
82939W        W44250  17.594  32.958  13.051
82940W        W44251  43.888  17.270   4.773
82941W        W44252   2.293  14.146   5.129
82942W        W44253  16.661   5.924   4.351
82943W        W44254  32.020   3.804   3.273
82944W        W44255  10.675  37.945  11.858
82945W        W44256  18.731  35.369  12.347
82946W        W44257  16.635  13.340   5.652
82947W        W44258  33.418   6.205  10.964
82948W        W44259  26.125  33.924   4.320
82949W        W44260  37.416  42.500   0.312
82950W        W44261  42.784  11.689   3.785
82951W        W44262  25.968  17.682  11.584
82952W        W44263  13.690  21.718   4.804
82953W        W44264   3.853  42.997  12.933
82954W        W44265   0.863   4.719  13.472
82955W        W44266  42.461  17.147   4.598
82956W        W44267  27.451  23.197  13.369
82957W        W44268  34.103  30.963   0.904
82958W        W44269   8.392  30.525   2.765
82959W        W44270   2.393  41.418  12.057
82960W        W44271  16.177   9.269  12.021
82961W        W44272  17.715   8.768   5.224
82962W        W44273   1.381  40.407  13.906
82963W        W44274  18.174  16.656  14.347
82964W        W44275   1.772   3.349   4.599
82965W        W44276   8.697   0.775  11.602
82966W        W44277  21.057  40.525   3.811
82967W        W44278   0.824  39.378  14.815
82968W        W44279  37.043  23.020  14.935
82969W        W44280  17.288  19.222   0.740
82970W        W44281   8.376  41.982   2.257
82971W        W44282  18.142   8.378  10.490
82972W        W44283   4.924  28.971  13.033
82973W        W44284  21.538  29.505  11.474
82974W        W44285  28.577  14.692  11.373
82975W        W44286  13.234  41.379  10.897
82976W        W44287   2.265  31.496   2.896
82977W        W44288   5.722  39.998   2.779
82978W        W44289  12.334   8.278   0.481
82979W        W44290   0.944  38.040   0.732
82980W        W44291  31.483  36.060   3.654
82981W        W44292  27.106  32.492  11.441
82982W        W44293  32.515  23.103  10.588
82983W        W44294  21.263  43.398  12.480
82984W        W44295   7.742   3.322   1.443
82985W        W44296  13.309  17.794  12.869
82986W        W44297  42.298  12.696   0.966
82987W        W44298  20.613  37.877  12.524
82988W        W44299   9.153   5.828   9.975
82989W        W44300  17.746  32.963   4.343
82990W        W44301  20.686  34.005   0.809
82991W        W44302   7.780  27.957   0.433
82992W        W44303  11.760  13.221   1.709
82993W        W44304  29.516  44.289   1.718
82994W        W44305  25.072  26.085  10.921
82995W        W44306  29.080  18.546  12.835
82996W        W44307  13.285  44.896   3.812
82997W        W44308   9.814   3.334  14.786
82998W        W44309  14.697  23.162  12.976
82999W        W44310  14.327  40.905   2.809
83000W        W44311  21.595  14.782  14.980
83001W        W44312  44.992  22.525   4.348
83002W        W44313   3.228  37.048  11.891
83003W        W44314  35.569   5.689   4.654
83004W        W44315  37.347   6.310  14.413
83005W        W44316  43.795  29.060  11.047
83006W        W44317  25.151   1.425  13.481
83007W        W44318  12.349   0.259   2.742
83008W        W44319  42.887  14.301   4.323
83009W        W44320  33.103   3.855   1.283
83010W        W44321   5.268  22.644  13.062
83011W        W44322  14.337  11.781   0.439
83012W        W44323  23.085   6.206  10.008
83013W        W44324  43.841  29.476  11.529
83014W        W44325  20.725   3.735  11.006
83015W        W44326  40.405  24.577  10.484
83016W        W44327  31.549   2.274   4.204
83017W        W44328   5.772  40.823   2.745
83018W        W44329  18.615  29.118  13.801
83019W        W44330   0.436  34.582  12.860
83020W        W44331  17.759  25.584  12.394
83021W        W44332  40.038  30.981  10.485
83022W        W44333  33.105  27.044  10.916
83023W        W44334  15.150  12.705  14.510
83024W        W44335  14.338   3.795  14.865
83025W        W44336  37.437  15.247  10.531
83026W        W44337  12.239  21.168  12.878
83027W        W44338  21.511  39.899   3.290
83028W        W44339  33.972  33.502  10.495
83029W        W44340  43.316  31.951  14.309
83030W        W44341   8.763   8.882  11.901
83031W        W44342   7.909  33.945   0.400
83032W        W44343   1.931  24.682   2.822
83033W        W44344   4.840  14.195   1.708
83034W        W44345  27.556  14.267  13.886
83035W        W44346   5.855  42.018   2.316
83036W        W44347  37.074  22.600  13.382
83037W        W44348  34.425  20.054   3.759
83038W        W44349  32.538  38.483   3.318
83039W        W44350  41.971  11.320   2.783
83040W        W44351  35.494  30.601   1.754
83041W        W44352  14.166  35.012   3.269
83042W        W44353  31.980  32.907   2.319
83043W        W44354  28.649  33.544  14.852
83044W        W44355  29.951  42.972  11.558
83045W        W44356   8.399  29.484  14.515
83046W        W44357   2.767  25.580  11.868
83047W        W44358  26.498  44.900  11.067
83048W        W44359  31.580  22.511  10.571
83049W        W44360   4.298  19.587   4.214
83050W        W44361  28.537   0.272  11.999
83051W        W44362  12.341  33.439   3.683
83052W        W44363  21.211  11.692  14.990
83053W        W44364  11.744  14.807  11.900
83054W        W44365  43.965  31.445   4.647
83055W        W44366  42.524   6.874   2.783
83056W        W44367  18.113  26.567  14.451
83057W        W44368   1.244  10.365  13.412
83058W        W44369  30.109  43.857   4.802
83059W        W44370  25.971  22.627  11.892
83060W        W44371  29.159  36.858   3.356
83061W        W44372  38.442  35.075  10.485
83062W        W44373   6.875  24.646  12.971
83063W        W44374   6.758  24.121  11.909
83064W        W44375  22.554  17.134   3.711
83065W        W44376   3.230  13.213  11.905
83066W        W44377  16.286  40.976   0.349
83067W        W44378  33.922   7.285   1.306
83068W        W44379   4.280   8.182  12.395
83069W        W44380   1.858  12.326  10.459
83070W        W44381  38.863   7.830   2.711
83071W        W44382  36.993  13.668   4.254
83072W        W44383  26.961  11.677   1.876
83073W        W44384  11.635  37.558   2.199
83074W        W44385  30.939  17.112   9.925
83075W        W44386  26.208  40.402   3.847
83076W        W44387   1.276  24.720   4.757
83077W        W44388   0.277  17.691  13.513
83078W        W44389   0.479  11.332  14.515
83079W        W44390  29.056  40.812   4.208
83080W        W44391  11.344  12.156  14.451
83081W        W44392  41.820  12.311  10.436
83082W        W44393   9.728   7.868  10.467
83083W        W44394  13.751  28.470  12.489
83084W        W44395  37.041  29.938   0.765
83085W        W44396   1.927  21.154   3.645
83086W        W44397  44.760  31.648  13.041
83087W        W44398  35.983   0.839   4.654
83088W        W44399   2.959  31.413  11.574
83089W        W44400  34.966  29.159   1.711
83090W        W44401  16.200  26.647  11.946
83091W        W44402  27.024  17.597   4.164
83092W        W44403   2.385  38.955   5.239
83093W        W44404  13.721  44.793  12.543
83094W        W44405  28.136  24.024   2.293
83095W        W44406  35.376  18.578   2.686
83096W        W44407  21.092  21.756   2.872
83097W        W44408  23.551  18.772   4.720
83098W        W44409  27.145  34.019   0.397
83099W        W44410  21.703  26.657   4.339
83100W        W44411  24.557   6.912  13.513
83101W        W44412  31.952  36.043  12.855
83102W        W44413   5.695  31.612   2.309
83103W        W44414  23.502  29.074   5.613
83104W        W44415   4.407  30.526  13.446
83105W        W44416  20.744  28.941   5.226
83106W        W44417  26.061  20.226  13.872
83107W        W44418  14.279  31.920   2.318
83108W        W44419  25.201  17.135   1.382
83109W        W44420  39.006  25.663  11.957
83110W        W44421  16.592  26.178  10.496
83111W        W44422   5.200  23.570   3.799
83112W        W44423  14.705  28.101  11.418
83113W        W44424  10.723  43.271  11.076
83114W        W44425  40.010  31.967  14.001
83115W        W44426   5.306  29.980  13.442
83116W        W44427  26.204   7.313  11.586
83117W        W44428  12.197  26.462  11.098
83118W        W44429  24.561  15.262   0.897
83119W        W44430   4.741  26.559   4.832
83120W        W44431  17.198  25.964   4.312
83121W        W44432  19.270   0.919   3.257
83122W        W44433  29.081  43.323   1.301
83123W        W44434   3.221  40.391   0.827
83124W        W44435  41.357  13.333   1.771
83125W        W44436  11.179  17.619   3.863
83126W        W44437  42.881  33.036  12.365
83127W        W44438  17.688   4.840   0.369
83128W        W44439  38.884  18.195   2.205
83129W        W44440  43.948  13.328   3.653
83130W        W44441  12.242  25.620  12.413
83131W        W44442  33.970  42.863   4.331
83132W        W44443  19.547  13.690   4.188
83133W        W44444  38.970   7.362  11.943
83134W        W44445  35.469   1.395   1.911
83135W        W44446  19.600  44.387  12.380
83136W        W44447   7.401  20.580  10.996
83137W        W44448  28.557  15.782   2.778
83138W        W44449   1.793  43.923  12.490
83139W        W44450  27.669   1.479  14.817
83140W        W44451  41.393  24.583   2.338
83141W        W44452  21.637  43.461  13.878
83142W        W44453  21.540  22.150  13.501
83143W        W44454  16.583   1.299   1.826
83144W        W44455  13.747   4.713   1.793
83145W        W44456  18.647   8.732  12.922
83146W        W44457  34.883  24.644  11.546
83147W        W44458  27.035   8.721   3.383
83148W        W44459  41.944   0.391   0.246
83149W        W44460  37.369   0.327   2.759
83150W        W44461  34.914  43.806   2.381
83151W        W44462   9.798   3.838  13.334
83152W        W44463   0.414  28.929  12.525
83153W        W44464  21.667  18.596   0.845
83154W        W44465  34.488  36.998  11.038
83155W        W44466  34.440  22.675  13.515
83156W        W44467   7.690  36.879  12.015
83157W        W44468  22.644  33.486   4.283
83158W        W44469  20.244  11.805  10.115
83159W        W44470  28.045   4.780  14.887
83160W        W44471  10.306  36.008  10.156
83161W        W44472   4.214   0.410  11.988
83162W        W44473  21.625  16.317  12.547
83163W        W44474  17.650   7.800  12.934
83164W        W44475   9.204  10.319  14.952
83165W        W44476   2.406   5.921   0.792
83166W        W44477  12.353  24.080   3.302
83167W        W44478  39.519  33.615   1.785
83168W        W44479  40.499  41.458   4.160
83169W        W44480  44.815  38.569   0.267
83170W        W44481   2.443  23.634   3.638
83171W        W44482  31.564   8.819   2.789
83172W        W44483  34.522   5.901  12.398
83173W        W44484  37.054  27.640   3.862
83174W        W44485  21.162  41.501   2.796
83175W        W44486  11.266  30.112   1.291
83176W        W44487  36.372   9.392  10.638
83177W        W44488  17.268  27.023   4.778
83178W        W44489  21.544  20.744  13.043
83179W        W44490  23.630  31.983  12.506
83180W        W44491  40.339  16.250   3.803
83181W        W44492  34.874  32.530  14.970
83182W        W44493   9.697  12.803  11.489
83183W        W44494  29.563  36.392   1.933
83184W        W44495  13.687  19.710   1.869
83185W        W44496   9.259  33.948   2.204
83186W        W44497  22.072  31.101   2.777
83187W        W44498   1.821  43.416   4.639
83188W        W44499   0.253  36.539  11.094
83189W        W44500  32.621  16.104   2.376
83190W        W44501  37.004   8.286   0.269
83191W        W44502  11.261  12.155  13.052
83192W        W44503  37.002  16.666  12.985
83193W        W44504  11.267  16.702  11.386
83194W        W44505   1.735   0.869  10.486
83195W        W44506   6.269  18.717  12.547
83196W        W44507  42.967  39.342  13.931
83197W        W44508  39.894  44.999  14.776
83198W        W44509  24.019   3.765   0.783
83199W        W44510  34.393   2.428   0.334
83200W        W44511  21.533   3.876  13.986
83201W        W44512  20.169  25.027   2.363
83202W        W44513  21.129  23.577   4.742
83203W        W44514  15.613  23.638  12.856
83204W        W44515  14.661  43.768  12.912
83205W        W44516   1.285  22.611   0.833
83206W        W44517  11.810  15.666   5.247
83207W        W44518  23.050  18.778   3.659
83208W        W44519  38.464  31.929  11.491
83209W        W44520  40.538  32.433  13.449
83210W        W44521   6.905   5.699   0.819
83211W        W44522   9.720  15.695   9.587
83212W        W44523  43.387  16.750   4.335
83213W        W44524  40.485   0.835   3.694
83214W        W44525  16.087   0.332  12.093
83215W        W44526   9.675  25.542  11.098
83216W        W44527  15.290  28.527  12.401
83217W        W44528  40.491  33.612   3.816
83218W        W44529   2.957  44.925   3.199
83219W        W44530  34.565  15.602   3.850
83220W        W44531  19.100   3.942  11.900
83221W        W44532  24.709  36.401  10.937
83222W        W44533  41.808  40.978   3.276
83223W        W44534  20.561  16.147   2.383
83224W        W44535  18.087  36.847  12.489
83225W        W44536   2.723   9.845  12.446
83226W        W44537  28.501  38.566   3.690
83227W        W44538  33.500  44.293  13.984
83228W        W44539  12.761  20.154   4.700
83229W        W44540  30.587  39.993  13.520
83230W        W44541   5.315  40.349  14.382
83231W        W44542  12.723  40.978   0.471
83232W        W44543  31.510  14.118  12.829
83233W        W44544   0.957  35.475   0.422
83234W        W44545  29.637  29.457   1.831
83235W        W44546  25.027  20.208   4.768
83236W        W44547   5.394  16.097  14.515
83237W        W44548  34.922  24.004  12.953
83238W        W44549  29.590   2.946   1.449
83239W        W44550   3.409  28.664  14.885
83240W        W44551  35.604  15.156  12.976
83241W        W44552   9.179  12.839   3.782
83242W        W44553  28.110  39.332   1.313
83243W        W44554   9.750  43.821   0.290
83244W        W44555  12.809  26.062   3.819
83245W        W44556  12.220  32.069  14.013
83246W        W44557  37.878  23.047  12.421
83247W        W44558  42.434  41.504   1.351
83248W        W44559  23.654   6.422  14.786
83249W        W44560  42.858   2.755  10.958
83250W        W44561  33.488  31.418  14.397
83251W        W44562  27.114  11.714  10.050
83252W        W44563   0.787  44.312  12.501
83253W        W44564  25.706   7.788   0.450
83254W        W44565  41.366  14.720  12.451
83255W        W44566   9.278  27.174   4.194
83256W        W44567   4.392   4.432   1.782
83257W        W44568  10.185  39.878   1.251
83258W        W44569  13.678  44.418  12.054
83259W        W44570  33.925  41.931  14.842
83260W        W44571  29.531  28.454   3.201
83261W        W44572  26.006  14.677   1.925
83262W        W44573   0.320   8.382   2.723
83263W        W44574  39.972  40.399   4.674
83264W        W44575  15.803  33.544   0.287
83265W        W44576  18.269   7.908   4.118
83266W        W44577  11.147   3.387  13.390
83267W        W44578  18.266   1.370   1.732
83268W        W44579  21.171  32.540   4.191
83269W        W44580  16.765  21.654   2.856
83270W        W44581  30.435  13.689   1.765
83271W        W44582  27.191  19.652  12.445
83272W        W44583   7.903  15.168   3.368
83273W        W44584   4.351   6.306   3.764
83274W        W44585  22.081  34.419   1.348
83275W        W44586   6.804   9.391  13.800
83276W        W44587  19.580  36.012  11.602
83277W        W44588   5.817  35.046   4.712
83278W        W44589  30.468  28.490   0.786
83279W        W44590   7.752  23.166  14.781
83280W        W44591  28.561   8.301   0.823
83281W        W44592  16.618  27.484  14.431
83282W        W44593  10.195   4.336  12.939
83283W        W44594  39.965  29.947  10.616
83284W        W44595   3.750  28.600   4.149
83285W        W44596   3.927  23.679  11.389
83286W        W44597   9.157  29.657   4.290
83287W        W44598  42.807  22.539  11.057
83288W        W44599  15.215  38.009  13.035
83289W        W44600  15.696  20.544   2.897
83290W        W44601  25.603   9.280   3.763
83291W        W44602  12.331  35.929   0.889
83292W        W44603  22.010   2.379   1.719
83293W        W44604  38.830  28.655  14.367
83294W        W44605  22.740  13.280  13.953
83295W        W44606  43.003  41.522   3.785
83296W        W44607  18.675  34.084  10.641
83297W        W44608   1.385  17.111   1.265
83298W        W44609   6.838   5.211  13.040
83299W        W44610  30.440  28.087   4.187
83300W        W44611  38.547  20.215   1.904
83301W        W44612  31.553  43.345   0.335
83302W        W44613  41.950  23.704   1.920
83303W        W44614  16.308  38.390  14.014
83304W        W44615  21.677  39.483   3.281
83305W        W44616   3.736  32.457  10.965
83306W        W44617  41.446  35.434  10.476
83307W        W44618  33.420  15.265   0.750
83308W        W44619  27.967  26.067  11.377
83309W        W44620  41.973  26.692  13.808
83310W        W44621   4.785  17.172   0.295
83311W        W44622  13.639   0.978  11.458
83312W        W44623   3.254  11.791   1.424
83313W        W44624  29.636  17.297   3.184
83314W        W44625  25.489  29.930  14.763
83315W        W44626  26.562   1.444  13.392
83316W        W44627   3.275  23.547   4.122
83317W        W44628  18.223  27.584   4.121
83318W        W44629   5.746  13.669  14.027
83319W        W44630  26.967  32.097  10.477
83320W        W44631  38.856   6.290  11.394
83321W        W44632   4.351   2.903  13.825
83322W        W44633  12.192  14.590  12.373
83323W        W44634   3.262  19.257   3.640
83324W        W44635   8.666  31.046   2.897
83325W        W44636   2.393   2.340  12.409
83326W        W44637  30.520  33.577   2.781
83327W        W44638  27.082  11.761  13.458
83328W        W44639   1.908  17.302   2.282
83329W        W44640   9.216  35.882   2.340
83330W        W44641  32.046   3.751  14.791
83331W        W44642  25.162  30.449   1.224
83332W        W44643  17.134  42.019   0.952
83333W        W44644  42.302  16.202   4.259
83334W        W44645  16.754  17.669   0.828
83335W        W44646  44.305   9.355  14.333
83336W        W44647  27.537  44.279   3.338
83337W        W44648  42.295  20.091  12.885
83338W        W44649   6.224  44.890  10.457
83339W        W44650  14.638  34.481   3.334
83340W        W44651  37.406  36.582  11.597
83341W        W44652  10.200  30.577   2.193
83342W        W44653  18.265  39.349   2.731
83343W        W44654  11.160  40.050  14.819
83344W        W44655   1.481  42.006   2.298
83345W        W44656  13.123   1.963   3.313
83346W        W44657   6.829  16.811  10.141
83347W        W44658  24.574  26.702  11.028
83348W        W44659  43.930   9.729   0.873
83349W        W44660  43.511  18.256  10.563
83350W        W44661  32.952   2.245   3.299
83351W        W44662  26.559  21.695  14.402
83352W        W44663   7.379   4.706   4.722
83353W        W44664  28.064  12.207   2.766
83354W        W44665  13.636   8.193  11.570
83355W        W44666  39.388  32.994   1.304
83356W        W44667  38.919  30.034   2.861
83357W        W44668   5.721  22.245  11.387
83358W        W44669  38.545  32.508  11.547
83359W        W44670  19.138   4.819   3.771
83360W        W44671  19.056   2.345  12.827
83361W        W44672  38.864  23.186   1.851
83362W        W44673  39.959  42.029  11.491
83363W        W44674  13.140  28.130   1.855
83364W        W44675   7.186  11.621  11.526
83365W        W44676  11.303  32.005   4.810
83366W        W44677  34.032   8.896  14.975
83367W        W44678  17.262  33.382  10.143
83368W        W44679  28.563  39.062   2.691
83369W        W44680   9.807  37.548  10.034
83370W        W44681  42.321  43.374  12.978
83371W        W44682   1.347  28.654   1.237
83372W        W44683  19.558  17.102   2.703
83373W        W44684  10.765  29.448  11.096
83374W        W44685  37.040  19.105  13.904
83375W        W44686  19.066  43.484  10.619
83376W        W44687  19.725   1.767  13.024
83377W        W44688  27.533  10.781   1.337
83378W        W44689  37.058  41.942   4.705
83379W        W44690  33.951  11.856   1.927
83380W        W44691  12.206  28.126  12.465
83381W        W44692   4.877  39.869  11.504
83382W        W44693  42.941  18.618   2.322
83383W        W44694  31.046  22.518  11.509
83384W        W44695   0.923  43.992  14.309
83385W        W44696  37.001  33.064   4.239
83386W        W44697  38.365  43.340   3.264
83387W        W44698   8.354  19.209   0.727
83388W        W44699  19.083   9.291  14.502
83389W        W44700   6.815  37.486   3.255
83390W        W44701  31.013  15.118   4.173
83391W        W44702  12.832  10.329  10.608
83392W        W44703  13.732  13.623  11.399
83393W        W44704  15.678  37.964   4.210
83394W        W44705  10.175  15.702   0.264
83395W        W44706  27.687  38.923  14.303
83396W        W44707  13.323  30.135   1.728
83397W        W44708  13.130  13.206   3.859
83398W        W44709   2.920  35.586   0.269
83399W        W44710  29.610  34.392   4.334
83400W        W44711   8.723  35.562  12.855
83401W        W44712  26.647  41.947  12.546
83402W        W44713  16.073  33.457  11.396
83403W        W44714  10.339  27.600  11.448
83404W        W44715   0.763  19.170   3.166
83405W        W44716  41.900  44.911   2.217
83406W        W44717   9.714  39.489   2.866
83407W        W44718  30.061  20.177  10.539
83408W        W44719  33.425  38.464   0.405
83409W        W44720  27.483  38.455   1.738
83410W        W44721  26.981  18.727  10.518
83411W        W44722  30.425  27.583  11.881
83412W        W44723  31.458  40.833  11.860
83413W        W44724  33.611  42.887  11.022
83414W        W44725  40.860  25.578   0.352
83415W        W44726  23.660  25.013   2.224
83416W        W44727   1.929  42.015   2.671
83417W        W44728   4.208  35.996   1.715
83418W        W44729  22.681   8.279  13.984
83419W        W44730  30.578  23.573  13.369
83420W        W44731  29.919  13.236  13.927
83421W        W44732  18.742  17.766   5.192
83422W        W44733  34.455  14.784   0.830
83423W        W44734  21.137  38.820   1.393
83424W        W44735  20.752  15.598  12.359
83425W        W44736  39.543  11.132   4.229
83426W        W44737   4.340  19.092   4.264
83427W        W44738  43.451  18.683   2.194
83428W        W44739  10.755  39.470   2.247
83429W        W44740  36.471  27.615  10.416
83430W        W44741   6.420   9.752  10.461
83431W        W44742  41.498  38.355   2.778
83432W        W44743  24.486  42.293   0.276
83433W        W44744  30.418  16.288   3.858
83434W        W44745  37.456  21.564  10.960
83435W        W44746  11.194   7.190  14.802
83436W        W44747  42.289  29.982   1.388
83437W        W44748  38.929  26.458  11.468
83438W        W44749  33.104  34.952   4.743
83439W        W44750  23.170   0.446   1.382
83440W        W44751   0.474   8.767   0.952
83441W        W44752   0.272  24.064   0.750
83442W        W44753  12.281  31.896   2.773
83443W        W44754   1.902  29.067   0.948
83444W        W44755   3.754   5.747   2.838
83445W        W44756  30.486  40.308  13.905
83446W        W44757  20.094  24.079  13.429
83447W        W44758  14.316  23.491  11.571
83448W        W44759   3.358  24.004  14.890
83449W        W44760  40.023  15.646  13.454
83450W        W44761  13.268  40.304  12.967
83451W        W44762  40.500  16.119   2.314
83452W        W44763  34.614  12.238   2.695
83453W        W44764  21.188  35.983   2.198
83454W        W44765  11.632  38.471   1.794
83455W        W44766  32.935  22.067  14.287
83456W        W44767  22.577  30.125   2.837
83457W        W44768   2.441   6.839  11.006
83458W        W44769  20.641  34.529   4.756
83459W        W44770  39.513  17.252   1.239
83460W        W44771  41.930   9.257   3.291
83461W        W44772  28.473   0.820  11.579
83462W        W44773  19.056   1.920  14.353
83463W        W44774  34.448  24.128   1.242
83464W        W44775  10.671  33.937  11.050
83465W        W44776   7.242  26.070   4.273
83466W        W44777  24.629  33.561   0.353
83467W        W44778  20.759  23.227   0.968
83468W        W44779  14.124  17.599   3.831
83469W        W44780  38.524   8.812   2.282
83470W        W44781   3.929  35.516   4.812
83471W        W44782  35.466  42.527   1.228
83472W        W44783  28.952  27.982   0.392
83473W        W44784  11.857  25.621  10.995
83474W        W44785  38.831   1.238  12.831
83475W        W44786   2.901  18.105   1.915
83476W        W44787   3.296  12.224  10.911
83477W        W44788   1.300   8.657  13.885
83478W        W44789  26.467  28.642   0.319
83479W        W44790  23.731  23.072  13.043
83480W        W44791  36.447  36.510  14.965
83481W        W44792  17.301  42.291  14.762
83482W        W44793   0.747  36.490   3.152
83483W        W44794  34.466   6.809   3.770
83484W        W44795  36.351  25.174   0.750
83485W        W44796  35.977   2.264   1.296
83486W        W44797  20.097  41.876   2.183
83487W        W44798  27.132  11.842  13.941
83488W        W44799  20.160   0.834   0.794
83489W        W44800  18.592   9.209   2.207
83490W        W44801   5.256  43.459   2.740
83491W        W44802  10.811  26.117   0.311
83492W        W44803  27.059  28.138   0.779
83493W        W44804  39.836  24.540  10.596
83494W        W44805  21.649  44.489  10.628
83495W        W44806  23.567  13.692   3.308
83496W        W44807  29.034   3.879  10.413
83497W        W44808  44.407  13.225   0.957
83498W        W44809   3.758   7.241   0.741
83499W        W44810  17.122  27.510   2.386
83500W        W44811  35.469  19.618  10.613
83501W        W44812   5.229  26.960   3.228
83502W        W44813   7.878  31.414  13.793
83503W        W44814  26.646  27.604  11.966
83504W        W44815  31.011  18.708  10.968
83505W        W44816  16.703  13.297  13.453
83506W        W44817  12.355  24.207   9.510
83507W        W44818  15.131  36.388   0.889
83508W        W44819  31.588   8.287  14.445
83509W        W44820  22.675   7.365   1.725
83510W        W44821  27.001  28.540  12.893
83511W        W44822  36.540  10.649   2.790
83512W        W44823  15.327  12.295  12.464
83513W        W44824  25.045  32.098  13.312
83514W        W44825   3.243  38.835  14.921
83515W        W44826  26.633  12.133  14.341
83516W        W44827   4.443   9.328   3.721
83517W        W44828  34.415  19.070  13.320
83518W        W44829  31.403  41.853  12.425
83519W        W44830   0.290  39.991   0.349
83520W        W44831  28.022   5.270   0.306
83521W        W44832  23.186  43.995   4.833
83522W        W44833  22.048  27.013   0.796
83523W        W44834  26.571  26.980   1.441
83524W        W44835  33.113  31.636   1.359
83525W        W44836  31.899   7.772   2.723
83526W        W44837  25.712  37.552   0.268
83527W        W44838  12.191   3.863  14.419
83528W        W44839   6.915  20.079   1.247
83529W        W44840  18.153  32.522  14.790
83530W        W44841  23.554  28.046  12.096
83531W        W44842  16.120  26.168   4.264
83532W        W44843  27.061  13.712  14.935
83533W        W44844   4.418  17.167   1.746
83534W        W44845  16.282   1.853   1.928
83535W        W44846  28.527  43.390  14.436
83536W        W44847  18.126  37.383  10.897
83537W        W44848  19.606   4.225  14.760
83538W        W44849  17.689  15.689  11.446
83539W        W44850  29.469  12.233  12.441
83540W        W44851  44.259  16.788   1.225
83541W        W44852  41.939  16.694   2.377
83542W        W44853  40.548  13.601   0.841
83543W        W44854  23.549   1.851  11.526
83544W        W44855   2.452  44.802  13.813
83545W        W44856  16.244  32.528  14.951
83546W        W44857  19.586   3.443  10.635
83547W        W44858   3.421  37.414  11.093
83548W        W44859  15.278   8.215  10.901
83549W        W44860  35.003  10.375   2.849
83550W        W44861   5.381  10.708   1.832
83551W        W44862  20.033  10.153   9.985
83552W        W44863  38.013  15.234  12.001
83553W        W44864   6.243  21.071   3.682
83554W        W44865  24.673   8.784   1.416
83555W        W44866  17.306   4.275   1.286
83556W        W44867  43.874  29.052  10.493
83557W        W44868  41.450  31.504  12.580
83558W        W44869  12.165  16.126   4.311
83559W        W44870  34.600  11.697  13.515
83560W        W44871   6.899  29.648   2.807
83561W        W44872  13.175  37.017   0.852
83562W        W44873  17.217  18.278  13.940
83563W        W44874  17.277   5.699  12.903
83564W        W44875  15.781   5.310   1.330
83565W        W44876  34.613  41.356   1.329
83566W        W44877  31.130  19.575   0.363
83567W        W44878  35.070  35.030  14.339
83568W        W44879   9.377  13.111  11.560
83569W        W44880  13.764  26.626   3.224
83570W        W44881  13.147  23.627  14.309
83571W        W44882  27.567  33.120  11.097
83572W        W44883  26.564  31.105   9.548
83573W        W44884   0.301  30.088  11.074
83574W        W44885   8.688   8.338   4.232
83575W        W44886  34.939   5.267   2.830
83576W        W44887  41.359  22.661  14.346
83577W        W44888  25.594   7.288  14.347
83578W        W44889  17.694  44.003   1.913
83579W        W44890  24.103  14.792  14.761
83580W        W44891  41.349   1.253   4.774
83581W        W44892   2.959   2.272   2.262
83582W        W44893  41.031  32.480  12.965
83583W        W44894  24.083  26.066   4.827
83584W        W44895  31.937  10.772   0.875
83585W        W44896  32.958  21.573   3.284
83586W        W44897  15.260  20.702   1.393
83587W        W44898   6.897  12.719  10.490
83588W        W44899  23.995  36.415  13.883
83589W        W44900  40.995  28.535   1.847
83590W        W44901   6.362   3.321  14.423
83591W        W44902  43.799  24.629   1.240
83592W        W44903  15.252  13.146  11.022
83593W        W44904  10.315  12.611  14.279
83594W        W44905  22.737   1.910  14.469
83595W        W44906  29.154  20.684   3.265
83596W        W44907  35.492  41.335  14.962
83597W        W44908   8.869   3.940   3.866
83598W        W44909   5.882  19.762  13.338
83599W        W44910  24.221  22.707  13.011
83600W        W44911  43.416   8.201  14.898
83601W        W44912   0.969  14.299  10.044
83602W        W44913   6.370  38.352  13.515
83603W        W44914  35.063  12.283   2.827
83604W        W44915  20.605  41.014   2.868
83605W        W44916   6.352  31.112   4.600
83606W        W44917  32.955  14.261  10.934
83607W        W44918  44.335   4.204   1.238
83608W        W44919  33.599   4.408  14.998
83609W        W44920  24.497  23.004   1.292
83610W        W44921  39.846  31.453   1.905
83611W        W44922  25.175  24.130   1.445
83612W        W44923  19.255  35.050  13.500
83613W        W44924  14.767  35.011   1.406
83614W        W44925  16.191  31.522   4.343
83615W        W44926   3.381  33.927  12.519
83616W        W44927  26.653  17.674   0.381
83617W        W44928  18.707  21.672   0.456
83618W        W44929  26.087  32.949   1.242
83619W        W44930  41.938  13.736  13.393
83620W        W44931  42.874  39.397  12.379
83621W        W44932   1.922   4.769  13.517
83622W        W44933  25.635  13.642   2.408
83623W        W44934   8.822  29.664   1.854
83624W        W44935  30.640  29.613   1.808
83625W        W44936   7.887   3.327  10.500
83626W        W44937  41.344   1.334  13.965
83627W        W44938  12.640  17.266  14.492
83628W        W44939  16.191  39.849  14.276
83629W        W44940  44.432   3.731  10.156
83630W        W44941  16.118  29.085   2.288
83631W        W44942  35.073  24.544  13.420
83632W        W44943  35.576   0.355   3.373
83633W        W44944  26.467  30.546  13.823
83634W        W44945   0.251  16.598  11.987
83635W        W44946  39.447  36.351  11.094
83636W        W44947   9.745   2.227   3.263
83637W        W44948  32.010  14.664   2.664
83638W        W44949  33.101   8.695   4.350
83639W        W44950  26.185  37.567  11.488
83640W        W44951  27.948  20.736  11.538
83641W        W44952  43.392   7.298  11.011
83642W        W44953  29.019  31.940  10.936
83643W        W44954  36.959  28.534   0.395
83644W        W44955  36.509  13.318   3.710
83645W        W44956  42.398   6.354   0.252
83646W        W44957  26.080  26.683   3.261
83647W        W44958  41.316  30.120  13.831
83648W        W44959  12.284  20.112  10.942
83649W        W44960  14.739  33.466   0.367
83650W        W44961  44.459  16.571   4.236
83651W        W44962  30.448  34.382  12.468
83652W        W44963  11.742   3.717   2.229
83653W        W44964   1.839  36.553   4.131
83654W        W44965  40.804  12.314  13.822
83655W        W44966  13.709   0.410   2.252
83656W        W44967   1.325  39.972   1.784
83657W        W44968   8.259  43.920   2.380
83658W        W44969  39.900  13.301   3.171
83659W        W44970  40.852  25.582  14.453
83660W        W44971  27.649  26.666  10.428
83661W        W44972  31.080   2.743   0.403
83662W        W44973  33.533  15.623  13.870
83663W        W44974  27.588   8.713   1.422
83664W        W44975   6.323  12.358  12.900
83665W        W44976   0.875   7.351   1.788
83666W        W44977  17.735  42.788  14.767
83667W        W44978  16.772  22.673  12.022
83668W        W44979  14.600  33.611  10.107
83669W        W44980  37.436  38.393  14.342
83670W        W44981   6.220  40.406  13.924
83671W        W44982  16.801   8.233  10.486
83672W        W44983  12.156  25.544  11.888
83673W        W44984   4.909  12.712   4.208
83674W        W44985  13.113   9.279  14.983
83675W        W44986  24.076   9.305   4.244
83676W        W44987  35.088   8.882  13.454
83677W        W44988   5.837  33.487   1.262
83678W        W44989  32.007   9.376   3.213
83679W        W44990  16.790  27.546  13.512
83680W        W44991  25.585   9.848   3.832
83681W        W44992  40.498   7.173   9.927
83682W        W44993  28.158  13.215   0.262
83683W        W44994  15.247  41.294   2.816
83684W        W44995   7.821   9.262  12.878
83685W        W44996  16.165  17.156  13.395
83686W        W44997   0.804   3.866   4.280
83687W        W44998  38.434  20.247   1.439
83688W        W44999  12.771  38.910  12.509
83689W        W45000  39.970  11.307   2.244
83690W        W45001  41.920  18.192  13.429
83691W        W45002   4.890  12.332  14.386
83692W        W45003  31.958   6.835   0.450
83693W        W45004  12.247  39.916  13.902
83694W        W45005  33.048  32.139   4.162
83695W        W45006   3.322   2.887  10.444
83696W        W45007   0.880  15.088   0.931
83697W        W45008  12.849   8.329   0.276
83698W        W45009  24.633  19.173  12.086
83699W        W45010   8.669  40.861   2.816
83700W        W45011   6.809   2.865  14.909
83701W        W45012  25.708  18.238   3.835
83702W        W45013   3.815  20.268  11.907
83703W        W45014  27.979  15.200   3.635
83704W        W45015  11.825  15.327  14.343
83705W        W45016  30.531   0.347   3.206
83706W        W45017  30.441  36.902  13.436
83707W        W45018   1.266  11.643   0.838
83708W        W45019  31.526   6.739   4.777
83709W        W45020  38.418  37.363   1.336
83710W        W45021  32.125  39.862  12.492
83711W        W45022  42.841  23.134  12.544
83712W        W45023   5.298  24.998   2.282
83713W        W45024  29.450  17.153  13.044
83714W        W45025   6.792  19.250  10.522
83715W        W45026  16.661  25.652  13.474
83716W        W45027  13.720  26.506  11.486
83717W        W45028  22.195   2.335  13.314
83718W        W45029   1.809  17.585   1.852
83719W        W45030  31.941  42.846  13.332
83720W        W45031  18.144   9.651  11.102
83721W        W45032  11.791  42.494  11.930
83722W        W45033  36.391  34.995   0.276
83723W        W45034   1.822  42.353  11.920
83724W        W45035  26.563  37.461  10.155
83725W        W45036   8.756  31.517  10.468
83726W        W45037   9.390  27.117  11.489
83727W        W45038  25.116  42.455   3.854
83728W        W45039   2.809  36.512   4.140
83729W        W45040  36.582  35.503  10.922
83730W        W45041  22.166  29.921   1.221
83731W        W45042  18.774  43.879   3.239
83732W        W45043  24.478   0.811   3.735
83733W        W45044  10.642   8.404   1.923
83734W        W45045  24.227  30.941   1.902
83735W        W45046  11.296  32.098  14.833
83736W        W45047  39.041   4.218  11.968
83737W        W45048  34.077  24.151  11.473
83738W        W45049  39.353  23.699   1.929
83739W        W45050   2.815  25.010  12.413
83740W        W45051  19.267  15.753  12.402
83741W        W45052  23.098  28.018   3.168
83742W        W45053  38.979  25.635  13.452
83743W        W45054  37.020  39.505  14.007
83744W        W45055   5.903  25.498  13.337
83745W        W45056  31.097  35.449   1.312
83746W        W45057  26.091  39.447   1.446
83747W        W45058  38.002  26.071   3.721
83748W        W45059  22.633   0.792  12.544
83749W        W45060  29.981   8.373   0.299
83750W        W45061  20.665  16.116  13.464
83751W        W45062   9.219  33.976  14.978
83752W        W45063  44.800  18.569  11.591
83753W        W45064  43.279  29.990  12.361
83754W        W45065   9.293   5.315  12.554
83755W        W45066  13.816  26.596   1.914
83756W        W45067  23.045  13.209   4.342
83757W        W45068  37.057  15.176  11.857
83758W        W45069  37.393   2.757   0.411
83759W        W45070  37.546  18.121  12.883
83760W        W45071  12.738  33.936   1.425
83761W        W45072  34.933   3.772   2.806
83762W        W45073  27.058  26.134   0.950
83763W        W45074  11.652   5.814  10.606
83764W        W45075  19.136   8.783   3.332
83765W        W45076  20.236  15.616   3.349
83766W        W45077  33.999  17.201   4.311
83767W        W45078   8.823   5.921   0.951
83768W        W45079  24.168  32.427  13.894
83769W        W45080  39.492  21.146   1.416
83770W        W45081   9.351  21.706   2.825
83771W        W45082  39.509  16.583   0.272
83772W        W45083  18.233  40.810  11.453
83773W        W45084  26.139   5.399  11.952
83774W        W45085  24.030  15.325  11.975
83775W        W45086   2.920   4.228  11.392
83776W        W45087  18.547   7.312  13.877
83777W        W45088  43.797   6.282  13.051
83778W        W45089  40.501  30.927  10.596
83779W        W45090  32.060   7.869  12.961
83780W        W45091  29.002  13.800  12.509
83781W        W45092  23.545  20.747   4.336
83782W        W45093  28.119   8.162  12.929
83783W        W45094  10.330   9.769   3.336
83784W        W45095  32.134   8.167  10.908
83785W        W45096  35.069  13.316  12.086
83786W        W45097  43.271  17.082  12.530
83787W        W45098  37.878  25.096  10.901
83788W        W45099  13.697  19.616  12.977
83789W        W45100  41.006  32.093   1.271
83790W        W45101  13.249  25.545  10.980
83791W        W45102  37.927  16.634  10.602
83792W        W45103  13.845  11.168  10.453
83793W        W45104  34.516  11.190  14.489
83794W        W45105   4.872  40.937  14.002
83795W        W45106  41.786  18.148  14.765
83796W        W45107  32.610   8.750   4.625
83797W        W45108  27.083   7.385  13.982
83798W        W45109  23.228  23.074   1.382
83799W        W45110  38.894  34.567  14.966
83800W        W45111  10.264  44.440   1.211
83801W        W45112   6.870  43.472  14.987
83802W        W45113  37.516  37.491  10.006
83803W        W45114   7.896  14.333  11.015
83804W        W45115  16.587  23.170   0.776
83805W        W45116  26.481  24.521  13.040
83806W        W45117  39.521   3.786   3.721
83807W        W45118  39.431  23.110   1.787
83808W        W45119   4.273  44.491   3.240
83809W        W45120   1.962   3.365   5.171
83810W        W45121  13.764  12.718   4.736
83811W        W45122  29.143  37.916  14.961
83812W        W45123   8.378  14.780  12.376
83813W        W45124  10.289  37.452  10.140
83814W        W45125  38.928  19.699  13.028
83815W        W45126  24.598  43.976  13.892
83816W        W45127  28.074  11.766  12.522
83817W        W45128  14.616  31.037  13.925
83818W        W45129  40.923  43.893   2.409
83819W        W45130  11.307  11.621  10.555
83820W        W45131  18.266   2.737  12.085
83821W        W45132   8.691  24.142   0.308
83822W        W45133   3.326   3.749   4.234
83823W        W45134  21.678   9.234  13.438
83824W        W45135  17.793   4.247   9.630
83825W        W45136  17.770   8.893  13.447
83826W        W45137  37.999   7.200   2.889
83827W        W45138  16.809  12.719   5.097
83828W        W45139  26.963  39.488  10.893
83829W        W45140  35.955  13.630  13.455
83830W        W45141  13.279  18.644  10.972
83831W        W45142  26.585  15.604   1.764
83832W        W45143   8.669  38.370   2.184
83833W        W45144  23.193  20.214  12.050
83834W        W45145  30.631   4.337   0.314
83835W        W45146  34.950   0.756   2.377
83836W        W45147   9.875  29.576  14.958
83837W        W45148  35.999  16.178   1.697
83838W        W45149  43.471  43.816  12.384
83839W        W45150   1.857  43.773   2.312
83840W        W45151  22.551  20.629  14.774
83841W        W45152  22.521   4.854  14.334
83842W        W45153  28.972   5.917   4.259
83843W        W45154  40.907  37.040   4.296
83844W        W45155   3.279  32.906   4.608
83845W        W45156   8.759  30.601   1.839
83846W        W45157  40.391   3.330   3.653
83847W        W45158  21.153  44.260   5.318
83848W        W45159   8.772   3.926   4.799
83849W        W45160  10.276  44.397   4.600
83850W        W45161  44.336  42.795   1.911
83851W        W45162  43.989   3.239  11.493
83852W        W45163  19.105   8.364   0.471
83853W        W45164   9.298  40.861  13.373
83854W        W45165   7.357  42.906   2.398
83855W        W45166  30.036  30.418  13.999
83856W        W45167  25.984   5.885  14.355
83857W        W45168   7.764  17.149  13.037
83858W        W45169   1.765  10.755   2.757
83859W        W45170   3.420  16.118   4.301
83860W        W45171  11.705  16.145   2.212
83861W        W45172  29.589  38.522  13.459
83862W        W45173  43.502   9.754  14.442
83863W        W45174  20.752  34.600   0.793
83864W        W45175  37.840  32.568   0.936
83865W        W45176   8.715   9.647  14.371
83866W        W45177   6.775  32.550   3.339
83867W        W45178  36.937  12.197   4.662
83868W        W45179  35.054   4.764   3.308
83869W        W45180  21.067   7.385  10.925
83870W        W45181  33.901  19.136  13.468
83871W        W45182   0.407  15.721   1.394
83872W        W45183  17.272   2.368   4.743
83873W        W45184  16.678  32.588   3.838
83874W        W45185  31.432  43.829  12.454
83875W        W45186   9.317  17.254   3.630
83876W        W45187  28.951  36.083   0.269
83877W        W45188  33.970   5.193  11.888
83878W        W45189   5.242  36.487  11.445
83879W        W45190  16.157  16.707  12.472
83880W        W45191  44.374  40.825   3.814
83881W        W45192  23.148   8.759  14.402
83882W        W45193  28.490   3.363  14.436
83883W        W45194  35.936  37.455   1.805
83884W        W45195  27.957  23.507  11.088
83885W        W45196  39.339  39.894  13.943
83886W        W45197  38.947  25.175  12.404
83887W        W45198  20.125   1.876  11.584
83888W        W45199   5.221  39.034  11.060
83889W        W45200  33.425  12.655  12.535
83890W        W45201  32.603  40.483   9.934
83891W        W45202  15.123   6.418   5.208
83892W        W45203  34.050  25.663   4.661
83893W        W45204  29.507   2.935   4.802
83894W        W45205  40.333  25.611  13.459
83895W        W45206  13.209   8.388  14.503
83896W        W45207   8.235  26.982   3.345
83897W        W45208  33.621  32.485   1.925
83898W        W45209  18.626   3.747   3.166
83899W        W45210  20.627  31.960  13.017
83900W        W45211  10.302   7.875  13.940
83901W        W45212  32.036  25.534   2.902
83902W        W45213  14.173  23.017  10.917
83903W        W45214  43.926  22.582  13.845
83904W        W45215   0.372  43.459   0.433
83905W        W45216  33.938  40.845   3.232
83906W        W45217  42.365  10.162   4.798
83907W        W45218  42.827   2.346   4.617
83908W        W45219   4.789   4.274   4.126
83909W        W45220   6.191  20.140  12.340
83910W        W45221  32.108  23.586  11.597
83911W        W45222  37.838  14.141   0.865
83912W        W45223  29.624  37.439  13.890
83913W        W45224  27.978   6.679   9.593
83914W        W45225   8.364  32.629   1.218
83915W        W45226  42.526  42.964  11.493
83916W        W45227  17.588  21.062   2.836
83917W        W45228  27.471  41.373   0.369
83918W        W45229  14.102  11.149  11.443
83919W        W45230  10.859  12.682  12.866
83920W        W45231   7.759  37.465  14.320
83921W        W45232  22.633  31.418  10.498
83922W        W45233  22.711   7.243   0.310
83923W        W45234  19.613  36.473   0.899
83924W        W45235  28.532   2.350  13.489
83925W        W45236  11.132  41.332   2.738
83926W        W45237   3.396  31.492  13.384
83927W        W45238  32.914   5.379   1.223
83928W        W45239  21.107  34.949   4.328
83929W        W45240   7.810  32.124   3.384
83930W        W45241  35.401  33.957  11.435
83931W        W45242   5.412  37.035   1.906
83932W        W45243  11.175  24.210   3.251
83933W        W45244  11.240  15.210   4.712
83934W        W45245   2.945   6.918   0.434
83935W        W45246   3.919  39.321   2.385
83936W        W45247   0.322  40.959  11.988
83937W        W45248  34.996  20.158  12.082
83938W        W45249  12.297  26.128  13.024
83939W        W45250  19.704  33.469  14.832
83940W        W45251  34.080  26.105  14.354
83941W        W45252  22.102   8.222   3.672
83942W        W45253  23.704  17.240  10.146
83943W        W45254   5.211  39.468  11.959
83944W        W45255  31.062  32.056  10.435
83945W        W45256   6.886   7.290   0.397
83946W        W45257  18.738  13.732   1.235
83947W        W45258  23.069  18.209  12.009
83948W        W45259  42.932  41.879  13.845
83949W        W45260  15.798  26.542  13.381
83950W        W45261  22.145  12.224  13.031
83951W        W45262  26.670  28.493  11.612
83952W        W45263  25.617   1.339   4.667
83953W        W45264  19.126  13.781  10.969
83954W        W45265  23.645  37.978  11.519
83955W        W45266  37.022  11.280  11.911
83956W        W45267  13.142  42.373   3.310
83957W        W45268   2.227  33.875  12.560
83958W        W45269  22.520  22.181  14.329
83959W        W45270  17.163  43.469   4.315
83960W        W45271  13.298  44.292   3.354
83961W        W45272  44.822  32.139   1.762
83962W        W45273  39.317  31.962  12.008
83963W        W45274  25.104  36.942   4.765
83964W        W45275  18.197   2.770   2.832
83965W        W45276  26.483   0.309  10.477
83966W        W45277  24.562  40.401   1.830
83967W        W45278  27.179  27.542  14.854
83968W        W45279  33.488  37.042   1.374
83969W        W45280  26.563  34.575   5.198
83970W        W45281  15.241  40.341  12.939
83971W        W45282  24.148   5.395  11.107
83972W        W45283  37.462   8.383  12.345
83973W        W45284  18.688  35.975  13.010
83974W        W45285   0.858  16.290   1.903
83975W        W45286  38.565  23.611  14.978
83976W        W45287  17.703  21.655   4.172
83977W        W45288   2.436  32.511  11.537
83978W        W45289  27.681  17.097  11.047
83979W        W45290   4.238   4.256  11.009
83980W        W45291  20.545  34.050   4.739
83981W        W45292  15.624  16.620   3.755
83982W        W45293  38.034  16.620   2.333
83983W        W45294  35.578  29.134  12.371
83984W        W45295  41.826   0.744   4.748
83985W        W45296  22.019  25.126  10.944
83986W        W45297  15.302  42.436  11.427
83987W        W45298  30.009  10.639   0.820
83988W        W45299   0.868   7.337   2.792
83989W        W45300  25.656  20.603   2.858
83990W        W45301  24.044  40.366   3.770
83991W        W45302  12.843  39.813   3.840
83992W        W45303  14.663  19.599  13.398
83993W        W45304   7.287   2.881  13.939
83994W        W45305  41.985  37.483   4.645
83995W        W45306  20.696  26.138  13.504
83996W        W45307  16.681   3.929   3.307
83997W        W45308  26.166   1.337   2.872
83998W        W45309  39.943  42.430  10.531
83999W        W45310  31.909  22.160   3.149
84000W        W45311  33.988  18.735   2.740
84001W        W45312  37.889  20.047  14.988
84002W        W45313  16.760  43.283  13.511
84003W        W45314  39.477   2.438  13.542
84004W        W45315  42.905  15.805   1.752
84005W        W45316   4.444  14.310   1.253
84006W        W45317   7.905   4.714   2.712
84007W        W45318  35.454  24.082   0.278
84008W        W45319  24.974   4.389  14.976
84009W        W45320  10.362  35.554   3.306
84010W        W45321  21.131  42.482  13.507
84011W        W45322  13.286  39.971  11.550
84012W        W45323   9.345  18.239   1.805
84013W        W45324  25.094  39.809   1.808
84014W        W45325  23.070   8.208  13.331
84015W        W45326  44.980  31.943   3.798
84016W        W45327  14.216  28.084   2.400
84017W        W45328  40.496  44.315  10.560
84018W        W45329  23.114  16.114   5.247
84019W        W45330   7.398  13.672  10.561
84020W        W45331  15.734   6.373  12.988
84021W        W45332  32.962  18.264  12.091
84022W        W45333  12.691   1.908  11.571
84023W        W45334  30.489   6.728   0.459
84024W        W45335  11.295  10.325   0.463
84025W        W45336  18.132   3.753  10.531
84026W        W45337  39.899  15.257   0.800
84027W        W45338  17.590  38.511  12.936
84028W        W45339  20.180  44.389  13.472
84029W        W45340   8.809  13.340  14.013
84030W        W45341   5.306  29.011  14.422
84031W        W45342  40.847  32.449   3.637
84032W        W45343  20.671  40.927  13.510
84033W        W45344  19.111  42.925   3.314
84034W        W45345  39.348  32.495   4.833
84035W        W45346  38.413  36.940   4.215
84036W        W45347  27.134  38.478  14.010
84037W        W45348  20.655  23.500  11.583
84038W        W45349  16.257  35.032   3.238
84039W        W45350  29.001  38.908  13.900
84040W        W45351   8.871  24.993  14.957
84041W        W45352   4.894   7.799   4.782
84042W        W45353  43.883   3.898  12.843
84043W        W45354  37.967  28.063   1.807
84044W        W45355   3.941  37.410  12.403
84045W        W45356  31.996  39.374   3.257
84046W        W45357  11.693  35.106  13.797
84047W        W45358  28.438   1.238   2.846
84048W        W45359  15.115   8.754   2.409
84049W        W45360  31.010  12.655   0.916
84050W        W45361  38.538  35.967  12.824
84051W        W45362   0.877  16.223   4.630
84052W        W45363  34.480  23.127  11.439
84053W        W45364  29.075  15.085   1.873
84054W        W45365  42.333   2.873   1.812
84055W        W45366  13.335  11.799  10.603
84056W        W45367   4.274   3.335  11.981
84057W        W45368  27.086  37.912   1.265
84058W        W45369   5.866  21.624   0.876
84059W        W45370  13.243   5.774   1.352
84060W        W45371  38.952  16.769   1.305
84061W        W45372  16.270  40.996  14.989
84062W        W45373  13.684  11.372  11.411
84063W        W45374   8.210  12.295  12.515
84064W        W45375  14.138  17.794  13.831
84065W        W45376  41.533  25.583  14.387
84066W        W45377  34.567  32.927  10.635
84067W        W45378  32.482  35.965   4.814
84068W        W45379  35.035  44.488   4.131
84069W        W45380  18.732  38.845  12.554
84070W        W45381   0.830  15.133  11.878
84071W        W45382  30.039  44.965   0.313
84072W        W45383  33.885   4.756   3.704
84073W        W45384   5.253  20.144  13.790
84074W        W45385   1.303  15.086  12.998
84075W        W45386  31.096  22.731   0.766
84076W        W45387  37.926  14.281  14.377
84077W        W45388  33.934  15.782   2.666
84078W        W45389  13.337  27.974  12.055
84079W        W45390  43.856   0.430   2.237
84080W        W45391  31.084  24.157   2.859
84081W        W45392   6.875  35.008  10.463
84082W        W45393   9.198  32.461  13.796
84083W        W45394  42.827  10.203  12.361
84084W        W45395   7.691   5.205  13.437
84085W        W45396  14.212  35.511   3.693
84086W        W45397  20.588  26.202   4.780
84087W        W45398  29.137  21.110   4.729
84088W        W45399   7.873   2.467  11.995
84089W        W45400  11.820  17.261   1.283
84090W        W45401  35.010  12.794  13.911
84091W        W45402  37.515  31.068  13.935
84092W        W45403  21.187  26.670  13.336
84093W        W45404  33.913   1.777   1.290
84094W        W45405  44.282   9.720   2.664
84095W        W45406  37.051  31.149  10.573
84096W        W45407  39.474  16.686  12.363
84097W        W45408   4.766  10.639  11.001
84098W        W45409  37.487  19.058  13.852
84099W        W45410   9.154  15.819  12.840
84100W        W45411  11.647  28.177   3.292
84101W        W45412  30.529  30.160  10.497
84102W        W45413  33.606  40.906   0.383
84103W        W45414  11.238   2.433  14.778
84104W        W45415  15.183  26.098  10.490
84105W        W45416  23.541  38.954   2.399
84106W        W45417  38.435  11.332  11.513
84107W        W45418  14.617  14.156  12.512
84108W        W45419  20.028   6.733   1.907
84109W        W45420  39.977  36.462  11.955
84110W        W45421  43.491  26.536  11.574
84111W        W45422  23.574  38.048  10.604
84112W        W45423   5.744  29.967   3.363
84113W        W45424  43.463  32.909  12.944
84114W        W45425  28.657  14.199  12.045
84115W        W45426  43.506  24.054  14.966
84116W        W45427  14.783  44.429   0.784
84117W        W45428  16.159  29.457   0.890
84118W        W45429  22.106  19.218   2.892
84119W        W45430  22.014  16.618  12.018
84120W        W45431  28.482   3.882  12.947
84121W        W45432  31.484  36.562   2.405
84122W        W45433  42.819  12.135  11.592
84123W        W45434  17.597  40.443  14.480
84124W        W45435   9.725   8.177   0.837
84125W        W45436   3.943  18.221   1.906
84126W        W45437  30.643  22.150  12.557
84127W        W45438  19.121  25.639  13.793
84128W        W45439  15.176   1.850  11.961
84129W        W45440  11.322   6.292   1.295
84130W        W45441  38.375  35.523   2.758
84131W        W45442   3.428  14.094   1.788
84132W        W45443  44.443  42.500   3.773
84133W        W45444  41.424  26.079  11.129
84134W        W45445  10.248  13.731   3.750
84135W        W45446  40.873  13.319   0.423
84136W        W45447  31.977  20.575   4.653
84137W        W45448  40.907  42.927  11.378
84138W        W45449   5.927  10.857  13.994
84139W        W45450  12.295  44.483   0.337
84140W        W45451  40.472  32.027  10.422
84141W        W45452  14.824   3.271   2.850
84142W        W45453   5.256  28.997  13.813
84143W        W45454  18.122  39.374   4.153
84144W        W45455  37.875  11.751  13.465
84145W        W45456  34.992   1.890  10.618
84146W        W45457  41.843   3.716   3.182
84147W        W45458  34.479  18.707   2.866
84148W        W45459  21.043  17.248   0.738
84149W        W45460  21.186  30.096   5.648
84150W        W45461  32.452   4.803   3.232
84151W        W45462  34.423  12.310  12.999
84152W        W45463   4.793  13.800  13.897
84153W        W45464  10.836  34.592   1.314
84154W        W45465  24.505  41.814   1.892
84155W        W45466  38.433  11.211   3.337
84156W        W45467  42.002  25.534  10.407
84157W        W45468  16.081  38.331  10.537
84158W        W45469  41.399  15.662   3.286
84159W        W45470  34.947  13.291  14.838
84160W        W45471  36.918  31.024   0.728
84161W        W45472  17.236   2.380   1.324
84162W        W45473   6.314  18.109  11.074
84163W        W45474  34.937  17.126  10.422
84164W        W45475  42.491   2.373  13.942
84165W        W45476  39.332  42.932  12.508
84166W        W45477  13.702   0.322  12.051
84167W        W45478  44.325  43.872   1.325
84168W        W45479  23.220  26.020   2.821
84169W        W45480  27.129  14.666  14.284
84170W        W45481  41.945  24.988  13.997
84171W        W45482  42.849  17.646  14.785
84172W        W45483  38.008  22.581  11.881
84173W        W45484  26.962  41.423   5.155
84174W        W45485  36.972   1.770  13.828
84175W        W45486  39.062  16.803  10.557
84176W        W45487   9.821  37.377   4.663
84177W        W45488   2.816  38.391   3.191
84178W        W45489  44.953   7.376  11.903
84179W        W45490  22.025  38.472   2.764
84180W        W45491  17.633  21.073  14.278
84181W        W45492  25.215  11.303  14.395
84182W        W45493  18.125  23.049   1.300
84183W        W45494  36.404  35.978  10.573
84184W        W45495  10.306  36.911   3.200
84185W        W45496  28.593  21.143  11.970
84186W        W45497  35.538  12.829  11.003
84187W        W45498  22.180  33.402   0.964
84188W        W45499  44.376  33.058  10.480
84189W        W45500  35.910  12.657   1.312
84190W        W45501  22.152   3.865   0.932
84191W        W45502  38.911  41.466  10.998
84192W        W45503  20.758  37.843  10.488
84193W        W45504   2.844  22.170  13.895
84194W        W45505   3.403  18.284   3.253
84195W        W45506  29.523  37.485  11.083
84196W        W45507  26.547  44.813  13.364
84197W        W45508  28.081  40.385  11.576
84198W        W45509   1.802  27.175   3.717
84199W        W45510  14.305  33.530  14.883
84200W        W45511  19.729  38.857   3.764
84201W        W45512  31.503   7.793   1.878
84202W        W45513  41.301  33.080  14.516
84203W        W45514  42.519  32.522  12.858
84204W        W45515  28.013  26.086   4.699
84205W        W45516   8.345  25.018   0.840
84206W        W45517  20.069  22.074  13.547
84207W        W45518  35.428  24.695   3.629
84208W        W45519   7.238   1.411   3.645
84209W        W45520  32.590  42.778  10.990
84210W        W45521  37.937   4.880   4.691
84211W        W45522  43.849  44.998  11.470
84212W        W45523  38.467  32.497  10.996
84213W        W45524  25.502  35.530  13.451
84214W        W45525  22.216  23.097  13.959
84215W        W45526  22.690  25.582   0.760
84216W        W45527   8.404  12.722   0.394
84217W        W45528  27.043  32.064   2.674
84218W        W45529  39.885   4.374   4.719
84219W        W45530  41.021  42.021  14.774
84220W        W45531  24.064   7.250   3.867
84221W        W45532  18.729  27.086   1.433
84222W        W45533  21.046   5.876  11.940
84223W        W45534  22.507  24.109   4.815
84224W        W45535  33.035  17.307   4.694
84225W        W45536  15.632   3.281   1.896
84226W        W45537  34.608  26.090  13.824
84227W        W45538  42.998  10.805  13.394
84228W        W45539  29.479  44.887  12.525
84229W        W45540   4.897  19.560  14.372
84230W        W45541   3.254  24.719   1.912
84231W        W45542  18.128  40.915   0.453
84232W        W45543  10.204   7.800  11.009
84233W        W45544   7.734   7.810  12.903
84234W        W45545  39.318  19.621  13.943
84235W        W45546  19.667  37.371  10.461
84236W        W45547  39.467  28.109  11.906
84237W        W45548  29.570   8.390   4.682
84238W        W45549  19.679   6.728  11.912
84239W        W45550  23.234  21.717   3.840
84240W        W45551  34.070   3.742   2.212
84241W        W45552  27.977  14.209  13.366
84242W        W45553  27.644  12.847  12.095
84243W        W45554   8.384  17.706   5.305
84244W        W45555  31.127  26.208  14.919
84245W        W45556  11.181  16.175   2.338
84246W        W45557  29.622  20.535   4.162
84247W        W45558  24.713  36.585   1.876
84248W        W45559  42.011  10.803   3.650
84249W        W45560  18.699   1.406   0.774
84250W        W45561  31.516   8.856  14.319
84251W        W45562  25.200  20.542  13.350
84252W        W45563  36.051  19.271  12.956
84253W        W45564   0.381  35.588   1.743
84254W        W45565  31.416  43.467   4.690
84255W        W45566  43.771  41.482   0.264
84256W        W45567  21.603  28.597   2.367
84257W        W45568  36.976  38.056   2.867
84258W        W45569  17.231   5.367   4.629
84259W        W45570  17.172   0.766   1.713
84260W        W45571  27.685  41.906  11.032
84261W        W45572  31.138   5.298   3.188
84262W        W45573   4.262  31.927  13.334
84263W        W45574  12.844  30.157  12.448
84264W        W45575   1.321  35.073   2.797
84265W        W45576  33.594  36.920  13.317
84266W        W45577   0.485   8.185   1.753
84267W        W45578  32.893  19.660   2.186
84268W        W45579  18.238  42.344  13.918
84269W        W45580  11.816  14.644   3.665
84270W        W45581  24.070  39.444   3.290
84271W        W45582   2.298   3.304  10.576
84272W        W45583  22.209  26.133  13.514
84273W        W45584   3.859  17.619   9.655
84274W        W45585  12.212  25.127  12.410
84275W        W45586  13.150  38.326   3.223
84276W        W45587  16.233   5.907  12.577
84277W        W45588  42.487  31.585  11.005
84278W        W45589  44.343  15.583   0.307
84279W        W45590  15.625  20.539  10.152
84280W        W45591  38.938  19.248   2.419
84281W        W45592  17.080  12.782   0.307
84282W        W45593   7.185  17.243  12.440
84283W        W45594  15.110   2.283   3.702
84284W        W45595  11.651   9.191  13.540
84285W        W45596  27.691  37.902   1.799
84286W        W45597  25.001  25.593  14.419
84287W        W45598  16.157  19.184  14.456
84288W        W45599  37.057  29.146  14.761
84289W        W45600  44.440  16.674  12.515
84290W        W45601   8.167  25.140   2.239
84291W        W45602  11.183  44.980  11.857
84292W        W45603  15.776  41.396  12.536
84293W        W45604  34.074   3.356  11.124
84294W        W45605  32.046  31.120  12.507
84295W        W45606   4.825  17.754  12.439
84296W        W45607   4.848  17.799   4.205
84297W        W45608  40.544  42.398  12.075
84298W        W45609  44.453  23.700   0.924
84299W        W45610  13.786  38.018  11.943
84300W        W45611  16.732  40.359   1.374
84301W        W45612   4.418  28.992  12.079
84302W        W45613   0.360   9.365  10.999
84303W        W45614   1.813  39.857  13.321
84304W        W45615  24.585   7.807  14.911
84305W        W45616  15.322  33.486   1.417
84306W        W45617   7.240  12.766  11.407
84307W        W45618  12.797   1.316  13.401
84308W        W45619   8.723  14.733   3.651
84309W        W45620  42.908  43.454   2.322
84310W        W45621  15.097  31.490  12.392
84311W        W45622  25.174   5.326  13.881
84312W        W45623  13.640  41.437   1.332
84313W        W45624  31.150  44.500  10.548
84314W        W45625  34.911  39.512   0.889
84315W        W45626  13.701  43.495  12.967
84316W        W45627  27.624  44.827  10.519
84317W        W45628  12.187   5.869  14.832
84318W        W45629   0.897  11.349   4.623
84319W        W45630  20.186  18.778   3.766
84320W        W45631  42.464  20.200  13.876
84321W        W45632  44.291  40.830   1.903
84322W        W45633  23.145   1.895   3.349
84323W        W45634  29.069   8.321  10.959
84324W        W45635  37.353  37.848  14.995
84325W        W45636   0.371   9.173  14.349
84326W        W45637  20.154   3.721   4.133
84327W        W45638   5.798  40.474  14.438
84328W        W45639   6.249  19.231  10.998
84329W        W45640   6.340  12.252  14.983
84330W        W45641   9.863  18.651   1.858
84331W        W45642  39.380  39.378  12.391
84332W        W45643  22.128   1.893  12.430
84333W        W45644  25.592  26.491  10.057
84334W        W45645  14.824  39.400  10.977
84335W        W45646  18.725  42.941   2.198
84336W        W45647  16.315  17.704   2.188
84337W        W45648  15.618   6.198  14.775
84338W        W45649  43.282  12.174  14.379
84339W        W45650  11.673   1.805   3.162
84340W        W45651  32.959  25.074  10.578
84341W        W45652   3.915  24.523   4.135
84342W        W45653  43.310  42.426   4.226
84343W        W45654   1.882  17.069   0.886
84344W        W45655  25.487  16.649  13.443
84345W        W45656  29.922  40.857  10.612
84346W        W45657  31.030  42.391   3.382
84347W        W45658  11.206   4.339  12.000
84348W        W45659  27.660  35.367   0.936
84349W        W45660  32.029   8.176  14.446
84350W        W45661  44.397  38.966  12.036
84351W        W45662  14.799   9.734   0.434
84352W        W45663   9.372  37.464  14.291
84353W        W45664   0.307  37.920  12.069
84354W        W45665  44.008   9.180   0.377
84355W        W45666   9.276  17.259   1.386
84356W        W45667  32.986  34.118   0.409
84357W        W45668  19.646   3.914   5.271
84358W        W45669  39.410  13.329  11.932
84359W        W45670  13.318   8.265   1.282
84360W        W45671  18.780  33.558  12.345
84361W        W45672  35.498  41.808   1.776
84362W        W45673   8.327  25.993   2.239
84363W        W45674  44.322  11.700  14.968
84364W        W45675   6.278  36.504   2.736
84365W        W45676  32.131  42.835  10.505
84366W        W45677  41.502  44.878   4.608
84367W        W45678  39.834   3.926   1.742
84368W        W45679   5.365  22.049  13.955
84369W        W45680  35.109  31.473   0.277
84370W        W45681  28.074  32.111  13.801
84371W        W45682  17.790  39.037  12.952
84372W        W45683  35.936   5.389   2.209
84373W        W45684  42.780  31.085   3.845
84374W        W45685  25.595  22.591   5.309
84375W        W45686  21.124  11.349  13.828
84376W        W45687  11.351  13.207  12.468
84377W        W45688  36.889  36.507   3.697
84378W        W45689  15.141  32.111   0.842
84379W        W45690  35.580  15.222  10.958
84380W        W45691  43.298  39.054  14.358
84381W        W45692  21.709  22.707   4.155
84382W        W45693   7.669  43.327  14.785
84383W        W45694  20.036  15.219   3.738
84384W        W45695  10.749  25.027   0.346
84385W        W45696  30.653  32.098  13.831
84386W        W45697  17.697  44.961  14.791
84387W        W45698  11.281   4.892  10.506
84388W        W45699  38.519  28.584  12.862
84389W        W45700   7.746  18.638   1.424
84390W        W45701  18.066  43.882   0.964
84391W        W45702  18.133  25.491   3.839
84392W        W45703  24.226  11.131   2.818
84393W        W45704   7.890  29.938   4.721
84394W        W45705  41.461  32.906   0.380
84395W        W45706  29.074  40.519  12.036
84396W        W45707   1.347  32.130   3.636
84397W        W45708  11.282   6.746  12.852
84398W        W45709  12.654  30.503  13.343
84399W        W45710  31.954  37.497   4.349
84400W        W45711  18.658   8.337  10.889
84401W        W45712  12.822  44.753   1.854
84402W        W45713  19.776  35.093   3.830
84403W        W45714   8.707  10.249   0.807
84404W        W45715  30.110  11.175  11.516
84405W        W45716   5.242  11.177   1.444
84406W        W45717   4.346  29.612   2.762
84407W        W45718  42.808  43.808   2.802
84408W        W45719  43.985  35.369  13.384
84409W        W45720  23.706  19.749  13.347
84410W        W45721   5.210   1.284  13.523
84411W        W45722   2.739  10.649   3.245
84412W        W45723   8.206  31.022  12.377
84413W        W45724  27.515  37.434  11.929
84414W        W45725  39.444  28.497   3.751
84415W        W45726  16.228   9.346  12.875
84416W        W45727   0.893  10.720   0.309
84417W        W45728   9.333  28.018   0.262
84418W        W45729  41.969   7.768  10.431
84419W        W45730  21.246  14.760  11.386
84420W        W45731  19.568   3.733  14.007
84421W        W45732  40.810  22.027   3.800
84422W        W45733  17.648  12.188  10.577
84423W        W45734  11.366   4.280   3.665
84424W        W45735  36.544  43.275   2.812
84425W        W45736   6.877  42.500   4.253
84426W        W45737  12.801  11.716  14.868
84427W        W45738  44.753  21.172   3.649
84428W        W45739  11.138  44.768  12.430
84429W        W45740  31.047   7.684   1.817
84430W        W45741  18.251  15.257   1.285
84431W        W45742  34.914  16.249  12.956
84432W        W45743  20.628  42.527  14.298
84433W        W45744  28.516  28.609   4.805
84434W        W45745  21.099  31.945  12.884
84435W        W45746   9.888  24.179  14.918
84436W        W45747  11.832  32.421   3.199
84437W        W45748  32.056  15.249  10.092
84438W        W45749  39.343  39.443   2.233
84439W        W45750  42.811   7.264   4.213
84440W        W45751   0.312  27.977  14.812
84441W        W45752  37.873  10.841   4.232
84442W        W45753   5.933  23.019   3.752
84443W        W45754  30.071   8.847   0.254
84444W        W45755   6.418  31.921   0.482
84445W        W45756  35.917  18.628  13.415
84446W        W45757  37.927  32.952   2.234
84447W        W45758   1.429  25.533  10.409
84448W        W45759  22.510   4.239   2.253
84449W        W45760  37.508   5.738   3.824
84450W        W45761  16.239   2.934   4.692
84451W        W45762  15.113  42.963   1.224
84452W        W45763  22.239   7.217   1.933
84453W        W45764   1.291  12.350   2.794
84454W        W45765  19.644   6.327   4.198
84455W        W45766   8.272  40.020   1.896
84456W        W45767  28.514   8.810  11.045
84457W        W45768  35.568   2.721  11.958
84458W        W45769  37.837   2.867   3.773
84459W        W45770  44.991  40.882   1.364
84460W        W45771   5.197  32.540  12.911
84461W        W45772  34.377   6.869   0.271
84462W        W45773  36.960  25.533   2.367
84463W        W45774  25.663  31.415   2.822
84464W        W45775  43.446  13.348  13.061
84465W        W45776  34.890  11.131  12.074
84466W        W45777   6.331  42.496  13.378
84467W        W45778   6.736  32.606   0.948
84468W        W45779  23.650  40.377   2.880
84469W        W45780  10.310  30.580   1.323
84470W        W45781  11.846  34.013  14.808
84471W        W45782  44.291  34.555   4.354
84472W        W45783  41.939  26.072  14.915
84473W        W45784  41.818   5.712   4.688
84474W        W45785   8.253  13.346   2.887
84475W        W45786   8.849   6.257   0.796
84476W        W45787   5.251   8.263   0.816
84477W        W45788  35.926  37.344  13.545
84478W        W45789  13.825  21.078   1.436
84479W        W45790  10.210  18.091   0.890
84480W        W45791  44.798  37.361  13.982
84481W        W45792  16.301  15.141   2.775
84482W        W45793  30.567  37.905  11.445
84483W        W45794  20.195  21.616  12.021
84484W        W45795  41.328  37.503   2.703
84485W        W45796  28.131  26.547  11.392
84486W        W45797  16.094   3.796  14.840
84487W        W45798  43.977  30.084   4.331
84488W        W45799  22.200  26.105   4.233
84489W        W45800   1.873  35.080  12.385
84490W        W45801  15.710  18.105  11.555
84491W        W45802  16.299   6.341   3.386
84492W        W45803  35.468  33.003   2.220
84493W        W45804  26.508  34.892   3.280
84494W        W45805  11.801   2.904   2.407
84495W        W45806  19.284  22.657   1.724
84496W        W45807  37.055  25.061  10.426
84497W        W45808   2.297  41.999  12.922
84498W        W45809  11.714  33.996   1.406
84499W        W45810  17.788  38.466  13.480
84500W        W45811   3.734   2.835  14.477
84501W        W45812  23.109  32.522  11.383
84502W        W45813  43.990  36.008   2.820
84503W        W45814  28.532  17.146  10.615
84504W        W45815  29.559  39.450  13.915
84505W        W45816  16.284  13.727   5.677
84506W        W45817   3.306  33.981   3.228
84507W        W45818  42.360   9.228  11.960
84508W        W45819   5.695   4.731  12.519
84509W        W45820   6.338  28.012   3.335
84510W        W45821  34.910  14.786   3.654
84511W        W45822   4.903  22.646   0.460
84512W        W45823   4.913  18.252  14.894
84513W        W45824  38.456   6.916   3.845
84514W        W45825  40.994  37.408   4.159
84515W        W45826  14.131  15.647   0.855
84516W        W45827  21.223   4.871  11.995
84517W        W45828  35.482  15.320  11.515
84518W        W45829   4.279  19.208  10.062
84519W        W45830  30.132  37.950   4.672
84520W        W45831  30.958  30.045  10.969
84521W        W45832  22.690   9.270   2.387
84522W        W45833   6.262  30.133   0.449
84523W        W45834  13.688  30.057  14.027
84524W        W45835  34.515  39.415   5.122
84525W        W45836  27.500   1.780   1.774
84526W        W45837  38.912  21.066  13.899
84527W        W45838  18.783  13.840   9.671
84528W        W45839  42.367   8.288  13.868
84529W        W45840   2.786  32.630  11.405
84530W        W45841  11.666  23.077  13.446
84531W        W45842  26.595   3.895   4.346
84532W        W45843  19.118  41.483  12.479
84533W        W45844  29.659  42.002   2.883
84534W        W45845   0.880   0.853   0.747
84535W        W45846   9.888  18.578   2.286
84536W        W45847  33.923  27.947   3.653
84537W        W45848  23.723  27.998  14.338
84538W        W45849  13.238  10.316  14.915
84539W        W45850  10.702  40.815   0.300
84540W        W45851  41.893  33.897   4.267
84541W        W45852  41.009  13.638  13.443
84542W        W45853  37.450  20.686  11.483
84543W        W45854  31.110  30.598   4.237
84544W        W45855  12.347  29.175  10.995
84545W        W45856  21.719  41.482   4.221
84546W        W45857   9.264  21.151  13.055
84547W        W45858   4.778  44.428   9.998
84548W        W45859  34.049  44.875   2.775
84549W        W45860  44.923  41.496   1.426
84550W        W45861  42.373  42.384   1.858
84551W        W45862  17.627   3.225   1.222
84552W        W45863  11.308  10.879  11.078
84553W        W45864   2.444  32.139   2.690
84554W        W45865   5.197   3.876   0.843
84555W        W45866  35.365  33.092  14.763
84556W        W45867  29.592   7.828  14.864
84557W        W45868   5.342  33.946  13.881
84558W        W45869  16.789   7.910   2.241
84559W        W45870  37.492  40.504   2.684
84560W        W45871   6.911  29.123   2.760
84561W        W45872  35.366  26.675   0.452
84562W        W45873  16.624  35.554  12.898
84563W        W45874  10.732   6.836   2.794
84564W        W45875   0.801  14.750   0.310
84565W        W45876  14.598  34.928   2.735
84566W        W45877  13.223   4.434  13.844
84567W        W45878  41.879  30.920   4.648
84568W        W45879   0.328   3.883   0.417
84569W        W45880   6.736  17.697  14.783
84570W        W45881  40.819  25.600   3.313
84571W        W45882  15.726  11.722   0.898
84572W        W45883   5.198  41.362  12.455
84573W        W45884  12.159  11.666   2.860
84574W        W45885  39.908  10.706   3.831
84575W        W45886  38.047   1.360   0.750
84576W        W45887  14.679  26.986  12.558
84577W        W45888  43.380  20.270  14.010
84578W        W45889  25.585  43.333   4.809
84579W        W45890  40.489   9.188   1.842
84580W        W45891   7.773  11.823  12.870
84581W        W45892  25.582  21.574   1.245
84582W        W45893  16.717  39.529   2.715
84583W        W45894   6.708  28.095   1.855
84584W        W45895  29.471   8.196  14.402
84585W        W45896  40.386  39.983  13.014
84586W        W45897  11.331  11.809  13.354
84587W        W45898  33.900  12.309  11.939
84588W        W45899  10.141  21.552   0.864
84589W        W45900   3.403  13.628  11.530
84590W        W45901  21.099  16.623   2.866
84591W        W45902  10.285   9.329   1.908
84592W        W45903  13.638   7.690   1.799
84593W        W45904  32.581  14.651   0.266
84594W        W45905  37.863  42.863  10.066
84595W        W45906  27.034   2.451   0.801
84596W        W45907  41.882  38.021   4.269
84597W        W45908  16.568   1.481  13.049
84598W        W45909  16.784  31.451  14.874
84599W        W45910  24.125  10.269  14.334
84600W        W45911   2.383  29.506   4.776
84601W        W45912  13.620  43.282  13.429
84602W        W45913  31.080   6.897  10.156
84603W        W45914  17.150   8.771   3.634
84604W        W45915  29.143   1.975  14.976
84605W        W45916  25.986  25.174   0.754
84606W        W45917  40.316  29.044   4.762
84607W        W45918  26.544  30.644  10.100
84608W        W45919  42.945  19.642   0.346
84609W        W45920  19.106  10.774  10.569
84610W        W45921  39.049  10.878  11.017
84611W        W45922  19.046  41.938   4.248
84612W        W45923  18.599  25.496  13.954
84613W        W45924  31.123  14.192   5.142
84614W        W45925  25.977   2.440  12.354
84615W        W45926   9.844  15.270  10.503
84616W        W45927  38.446   7.267   2.240
84617W        W45928  16.158  10.183   0.252
84618W        W45929  29.538  26.470  12.866
84619W        W45930  30.626  11.341   1.215
84620W        W45931  38.950  38.867  11.120
84621W        W45932  40.471  39.347   2.841
84622W        W45933  17.174  23.661   9.512
84623W        W45934  10.781   8.705  13.361
84624W        W45935  41.503  14.126  14.498
84625W        W45936   0.905  29.091  13.980
84626W        W45937  29.056  19.240  10.920
84627W        W45938  33.409  20.686   0.401
84628W        W45939  31.958  16.210  14.510
84629W        W45940   4.758  25.543   3.741
84630W        W45941   7.239   5.226   4.274
84631W        W45942  37.480   5.896  10.586
84632W        W45943  12.252  10.709  14.918
84633W        W45944  25.589  17.681   0.482
84634W        W45945  19.776  44.479   2.786
84635W        W45946  43.898  13.249   3.311
84636W        W45947  24.019  33.976   3.235
84637W        W45948   5.836  40.361   1.780
84638W        W45949   9.786  42.442  13.351
84639W        W45950  11.709  35.598   3.298
84640W        W45951  14.261  18.583  14.342
84641W        W45952  35.372   6.753   3.630
84642W        W45953  11.784   1.881  10.428
84643W        W45954  24.987  33.568  11.886
84644W        W45955  13.320  42.920  13.921
84645W        W45956  12.295  40.943   4.341
84646W        W45957  21.606  42.479   2.274
84647W        W45958  41.014  40.867   4.257
84648W        W45959  12.773   2.282   0.907
84649W        W45960  25.685  40.344  12.992
84650W        W45961  16.215   9.352   4.306
84651W        W45962  18.150  35.896  13.522
84652W        W45963  14.192   2.811  11.099
84653W        W45964  11.336   7.676  10.496
84654W        W45965  27.947   2.782  14.958
84655W        W45966  29.437   3.722  14.870
84656W        W45967  11.739  15.624   2.262
84657W        W45968  17.300  11.333   3.683
84658W        W45969  30.938   2.875  11.515
84659W        W45970  31.067   8.686  10.486
84660W        W45971  13.743  34.572   2.415
84661W        W45972  31.938  37.883   3.246
84662W        W45973  14.279   6.212  11.548
84663W        W45974  28.613  10.361   1.874
84664W        W45975   5.811  40.903   0.388
84665W        W45976   1.239  16.270  13.921
84666W        W45977  20.613   6.267  12.454
84667W        W45978  37.011   9.355  12.556
84668W        W45979  27.646  22.180  12.397
84669W        W45980  23.079  44.464  11.023
84670W        W45981  22.642   1.852   3.239
84671W        W45982   8.302   7.903   2.893
84672W        W45983  27.113  36.067  13.012
84673W        W45984  30.597  12.260   3.834
84674W        W45985  18.072  42.390   2.780
84675W        W45986  22.509  18.770   0.266
84676W        W45987   3.415  15.798  12.535
84677W        W45988   7.250   4.341  13.415
84678W        W45989   6.419  37.537   0.272
84679W        W45990  33.050   8.282   0.440
84680W        W45991  16.738  41.464  12.580
84681W        W45992  37.042  27.152   0.242
84682W        W45993  27.575  36.868  14.764
84683W        W45994  27.660  25.665   4.805
84684W        W45995  43.463  41.509   1.435
84685W        W45996   1.471  34.014  14.778
84686W        W45997  13.768  16.269   0.830
84687W        W45998  41.971  44.353   4.769
84688W        W45999   4.878  13.786  10.127
84689W        W46000   5.828  38.433   2.743
84690W        W46001  11.270   4.426   3.384
84691W        W46002  22.707   5.894   1.855
84692W        W46003  22.603   2.890   4.623
84693W        W46004  38.923  14.220   1.697
84694W        W46005   3.455  44.314  12.879
84695W        W46006  25.587  26.028  12.570
84696W        W46007  22.073   4.834  10.530
84697W        W46008  36.467   7.215  10.134
84698W        W46009  28.574  12.135   2.857
84699W        W46010  19.753  34.560  12.027
84700W        W46011  26.182   7.177   0.835
84701W        W46012  41.395   3.277   5.273
84702W        W46013  39.034  40.464  12.439
84703W        W46014  35.094  14.719   0.761
84704W        W46015  26.011  11.779  10.546
84705W        W46016  25.039  43.875  10.528
84706W        W46017   1.902   8.340   0.305
84707W        W46018  27.964  39.510   0.907
84708W        W46019  17.721  11.259  14.774
84709W        W46020  32.404  27.507   2.319
84710W        W46021  34.594   1.774  14.384
84711W        W46022  14.682  13.643  14.448
84712W        W46023  38.903  19.679   1.236
84713W        W46024  13.241  19.184  13.409
84714W        W46025   0.917   0.475   4.193
84715W        W46026  43.816  31.560  14.921
84716W        W46027  14.160   7.685   2.326
84717W        W46028  16.305  11.744  12.978
84718W        W46029   9.706   9.844   1.870
84719W        W46030  35.990  16.072   0.929
84720W        W46031  23.114  40.445  14.870
84721W        W46032   8.834  44.417   1.786
84722W        W46033   3.882  22.709   1.422
84723W        W46034  39.003   6.420   4.175
84724W        W46035  44.830  14.670  12.368
84725W        W46036  41.948  31.627   1.326
84726W        W46037  34.993   6.906  13.794
84727W        W46038  42.962  30.641  12.356
84728W        W46039  44.871  33.038   2.378
84729W        W46040  39.016  23.592  13.057
84730W        W46041   0.972   6.343   0.310
84731W        W46042   7.311  37.554  11.069
84732W        W46043  37.052  36.370   4.796
84733W        W46044  19.241  28.500   3.332
84734W        W46045  25.624   2.248   2.890
84735W        W46046   3.441  11.361  14.988
84736W        W46047   0.482  38.544   3.154
84737W        W46048   2.773  12.768   4.234
84738W        W46049  14.264   6.863   0.353
84739W        W46050  21.181  21.103   2.201
84740W        W46051   6.424   9.275  14.495
84741W        W46052  28.070  14.610   4.680
84742W        W46053  10.206  40.036  14.300
84743W        W46054  37.388   3.844  11.863
84744W        W46055  16.289  13.763   9.656
84745W        W46056   0.249  27.451  11.577
84746W        W46057  39.992   4.836   0.917
84747W        W46058   7.252  27.509   4.336
84748W        W46059   0.491  44.388  12.450
84749W        W46060  15.174   6.801   2.711
84750W        W46061  17.605  42.476  11.037
84751W        W46062  40.451  15.761  14.967
84752W        W46063   6.288  33.468  10.610
84753W        W46064   5.726  14.718  11.527
84754W        W46065  40.535  11.727  14.990
84755W        W46066   1.773  37.863  12.070
84756W        W46067   1.812  24.109  12.968
84757W        W46068  37.952  15.257  12.861
84758W        W46069  21.559  41.987  10.992
84759W        W46070  32.086  28.560   3.863
84760W        W46071  36.097  30.068   1.427
84761W        W46072  40.338  24.147   0.267
84762W        W46073  26.549  44.402   3.285
84763W        W46074  42.363  13.839  10.616
84764W        W46075  17.754  25.056  14.990
84765W        W46076  30.602  12.747  14.404
84766W        W46077  23.073  33.950   4.736
84767W        W46078  38.935  40.865  11.503
84768W        W46079  30.106  14.770   2.740
84769W        W46080  35.407  20.162   2.704
84770W        W46081  10.707   6.709   0.942
84771W        W46082  42.790  23.038   2.363
84772W        W46083  38.346  40.850   1.323
84773W        W46084  14.783  38.992   1.900
84774W        W46085  18.774  18.146  11.937
84775W        W46086   3.352  30.113  12.343
84776W        W46087  17.280  26.601  12.408
84777W        W46088  23.680  26.629   2.733
84778W        W46089  28.479   5.733  12.385
84779W        W46090  16.808  21.195   3.804
84780W        W46091   1.437  27.074  14.817
84781W        W46092   9.328   0.915  13.483
84782W        W46093  32.562   6.339   0.904
84783W        W46094  36.909  31.597   0.367
84784W        W46095  13.693  14.653   0.332
84785W        W46096   6.812  24.725  12.354
84786W        W46097   0.434  28.612   1.914
84787W        W46098  19.566  35.573  14.483
84788W        W46099   6.733  40.381  10.589
84789W        W46100  31.567  15.108   0.792
84790W        W46101  39.971  21.715  10.623
84791W        W46102  39.843   3.450  14.319
84792W        W46103  38.385  35.938  11.409
84793W        W46104  22.061  44.998   2.354
84794W        W46105  27.090  15.740  13.497
84795W        W46106  32.494  39.818   3.294
84796W        W46107  19.713   6.357  12.998
84797W        W46108  37.873  37.037   0.257
84798W        W46109  33.572  20.690  11.577
84799W        W46110  19.165  39.967  13.814
84800W        W46111  12.319  33.494   0.964
84801W        W46112   6.405  37.993  14.347
84802W        W46113  36.523  11.215   4.618
84803W        W46114   8.183   0.977  10.978
84804W        W46115   0.288   5.723  14.945
84805W        W46116  23.642  21.040   2.336
84806W        W46117   2.821  31.017   1.833
84807W        W46118  20.094  23.585  10.898
84808W        W46119  20.742  31.405  11.496
84809W        W46120   2.252  19.136   2.724
84810W        W46121  29.039  23.563  14.444
84811W        W46122  29.630  30.511  13.503
84812W        W46123   6.302   4.713   0.795
84813W        W46124  22.130  18.224   4.642
84814W        W46125  35.878  41.317  10.994
84815W        W46126  21.054  30.133  11.074
84816W        W46127   7.708   1.894  13.395
84817W        W46128  19.147  15.110  12.442
84818W        W46129   7.314  26.045  10.897
84819W        W46130  41.536  27.632  14.305
84820W        W46131  27.677  15.638  14.994
84821W        W46132  26.469  38.846  11.897
84822W        W46133  20.543  29.044  14.358
84823W        W46134   9.698  13.655  14.285
84824W        W46135  33.974  42.011  13.994
84825W        W46136   1.367  20.691   0.286
84826W        W46137  36.546  30.511  13.456
84827W        W46138  40.331   9.370  10.430
84828W        W46139   9.342  35.590   2.288
84829W        W46140  41.305  36.364   2.729
84830W        W46141  10.636  27.032   0.873
84831W        W46142  42.465  43.401   3.308
84832W        W46143  21.153  25.058   3.280
84833W        W46144  30.598   9.256  13.446
84834W        W46145  35.879  16.246  10.633
84835W        W46146  25.536  37.901   1.900
84836W        W46147   1.766   6.906  10.574
84837W        W46148  15.712  33.443  11.885
84838W        W46149  24.074  32.950   3.359
84839W        W46150  35.024   5.232  14.379
84840W        W46151  12.280  10.215   0.952
84841W        W46152  22.165  17.656  11.581
84842W        W46153   1.450   9.886   4.708
84843W        W46154   4.919   8.212  14.823
84844W        W46155  17.280  21.755  13.468
84845W        W46156  43.947  35.481  12.068
84846W        W46157  25.979  23.052  11.956
84847W        W46158  14.233  18.227   2.821
84848W        W46159   5.712  27.555   4.663
84849W        W46160  41.903  32.113  13.429
84850W        W46161   7.179  31.111   1.702
84851W        W46162  37.939  30.526   2.242
84852W        W46163  41.471  13.627   1.443
84853W        W46164  30.532  42.956   4.622
84854W        W46165  22.741  27.486   1.364
84855W        W46166  19.739   8.168  13.359
84856W        W46167  42.874  36.989   1.311
84857W        W46168  21.075  37.972   5.793
84858W        W46169  31.433  38.418   2.223
84859W        W46170  35.536  23.676   2.826
84860W        W46171  24.206   7.669   3.663
84861W        W46172  25.654  34.508   2.399
84862W        W46173   8.367   6.702  11.017
84863W        W46174   8.805  41.868  10.982
84864W        W46175  34.121  30.017  14.873
84865W        W46176  43.861  33.548   1.391
84866W        W46177   9.216  31.076  12.872
84867W        W46178  10.752  29.584  12.467
84868W        W46179  35.434   6.190   4.606
84869W        W46180   9.344  11.741   0.801
84870W        W46181  12.650  17.557  10.973
84871W        W46182   6.317  42.444   0.482
84872W        W46183   6.419  24.216  10.952
84873W        W46184   1.774  12.696   3.806
84874W        W46185  14.820   3.379   3.306
84875W        W46186   3.803  14.268   4.191
84876W        W46187  15.594   4.429   1.729
84877W        W46188  10.828  44.333  14.876
84878W        W46189   9.351   5.793   4.817
84879W        W46190   9.817  27.489   0.793
84880W        W46191  17.607  18.090  11.038
84881W        W46192   2.449  10.763  14.416
84882W        W46193  22.118  20.587  11.124
84883W        W46194   1.920  20.746   1.800
84884W        W46195  36.430  10.253  13.012
84885W        W46196  27.621  14.832   4.332
84886W        W46197  26.105  16.234   4.738
84887W        W46198  14.118  33.475   3.234
84888W        W46199   9.300  19.172   2.685
84889W        W46200  23.086  41.944  14.430
84890W        W46201  32.608   1.329  14.397
84891W        W46202  35.373  43.508  13.049
84892W        W46203  27.587   8.661  11.956
84893W        W46204  33.502  39.426   1.347
84894W        W46205  18.709  32.989   1.261
84895W        W46206  42.927  37.957   4.639
84896W        W46207  26.105  20.122   1.397
84897W        W46208  24.552  29.655  14.929
84898W        W46209   9.200  19.628   2.379
84899W        W46210  35.434  35.547   3.867
84900W        W46211  18.565  31.075   3.193
84901W        W46212  15.292   7.818   1.694
84902W        W46213  30.991  22.243   1.413
84903W        W46214  12.806   9.348   0.288
84904W        W46215  29.040  37.438  10.944
84905W        W46216  34.537  33.520  14.461
84906W        W46217  27.476  16.726  13.892
84907W        W46218  17.287  17.647   1.898
84908W        W46219  25.160  40.478   4.304
84909W        W46220  22.643   8.230  10.097
84910W        W46221   0.919  16.579  13.420
84911W        W46222  17.279  43.983   3.196
84912W        W46223  17.127  30.628  11.601
84913W        W46224  14.782  20.124  11.117
84914W        W46225  30.970  11.815   4.651
84915W        W46226  41.928   5.900  10.459
84916W        W46227  32.051  44.827   1.817
84917W        W46228  28.471   0.926   0.885
84918W        W46229  26.650   3.291   2.852
84919W        W46230   4.793   8.707   1.925
84920W        W46231  25.471  32.092   3.328
84921W        W46232  41.038  42.777  13.821
84922W        W46233  27.043  28.117   4.300
84923W        W46234   7.701  26.668   2.291
84924W        W46235   5.193   6.706  14.372
84925W        W46236  26.179   2.807   3.798
84926W        W46237  17.585  38.849   0.956
84927W        W46238  37.490  26.011   0.356
84928W        W46239  16.603  40.883   0.359
84929W        W46240  33.131  33.401  14.332
84930W        W46241   3.745   1.455  12.019
84931W        W46242  35.063  30.118  12.086
84932W        W46243  23.596  32.469   4.148
84933W        W46244   0.399  19.078  14.504
84934W        W46245  29.510  37.830   0.828
84935W        W46246  12.128  15.236   0.959
84936W        W46247  31.560  33.095  10.625
84937W        W46248   4.716   4.253   0.402
84938W        W46249  12.149  36.023  14.424
84939W        W46250  35.371   4.268  13.428
84940W        W46251  11.825  11.727   9.977
84941W        W46252  29.606  10.301   3.715
84942W        W46253  13.309   7.291   5.248
84943W        W46254   7.667   7.332  12.537
84944W        W46255  24.598  13.649  13.548
84945W        W46256  16.684   3.895   1.240
84946W        W46257  11.346  30.560  10.417
84947W        W46258  43.983  12.125  12.927
84948W        W46259  10.222  32.114   1.888
84949W        W46260   9.246  21.028   2.678
84950W        W46261  41.442  43.484  11.586
84951W        W46262   9.210  42.985   5.243
84952W        W46263  12.220  26.663  13.429
84953W        W46264  22.574  16.739   0.436
84954W        W46265  11.757  33.430  14.289
84955W        W46266  12.671  15.092   4.128
84956W        W46267  16.172  19.065   0.373
84957W        W46268   3.738  39.357   1.381
84958W        W46269  28.115  14.319  11.385
84959W        W46270   3.853  18.254   2.396
84960W        W46271   1.326   0.304   1.451
84961W        W46272  16.666  40.444   2.350
84962W        W46273   2.770   4.214   0.405
84963W        W46274  38.539  10.241  11.861
84964W        W46275  15.243   5.430  14.359
84965W        W46276  30.961  44.831   3.288
84966W        W46277   4.306  15.611   2.807
84967W        W46278  13.271   6.367  12.499
84968W        W46279  29.437  12.639   9.957
84969W        W46280   3.788  43.869  13.346
84970W        W46281  41.883  34.432   3.797
84971W        W46282  39.995  15.744   2.227
84972W        W46283  35.365  31.083   0.426
84973W        W46284  41.447  24.185  11.868
84974W        W46285   0.833  20.061  13.435
84975W        W46286  34.529  23.643  12.423
84976W        W46287   5.401  21.205   3.809
84977W        W46288  17.631  23.035  12.434
84978W        W46289   9.261   7.336   4.125
84979W        W46290   8.727  36.377   1.852
84980W        W46291  36.591  43.350  13.449
84981W        W46292  28.574  10.210  11.543
84982W        W46293   1.240   0.783  13.491
84983W        W46294  33.882  29.046  10.469
84984W        W46295   4.262   2.796   0.280
84985W        W46296  41.474  12.816   3.326
84986W        W46297  25.643  39.516  12.073
84987W        W46298  35.019  30.495   2.846
84988W        W46299  17.083  11.773   4.153
84989W        W46300  30.147  39.901  11.426
84990W        W46301  14.222   9.386   2.332
84991W        W46302  41.350  16.798   0.799
84992W        W46303  44.425  21.036   3.698
84993W        W46304  20.595  38.837  14.928
84994W        W46305   3.421  38.549  14.457
84995W        W46306  21.676  31.420   4.254
84996W        W46307  42.289   5.236   1.222
84997W        W46308   2.730  18.565   4.292
84998W        W46309  41.810   2.776   1.215
84999W        W46310  37.831  33.507  14.910
85000W        W46311  15.722  42.520   1.323
85001W        W46312  25.181   6.190   3.871
85002W        W46313  11.681  10.256  13.902
85003W        W46314  27.048  37.062  14.351
85004W        W46315  34.497  15.597  11.542
85005W        W46316  35.967  26.128   4.798
85006W        W46317  35.987  25.581   2.795
85007W        W46318  33.093  15.637   0.787
85008W        W46319  34.988  33.903  11.857
85009W        W46320  37.336  27.949  10.627
85010W        W46321  39.324  36.993  10.057
85011W        W46322  21.072  16.812  13.522
85012W        W46323  22.162  17.266   3.175
85013W        W46324  16.675  17.272   0.786
85014W        W46325  34.603  34.993  11.001
85015W        W46326  26.562   9.680   4.331
85016W        W46327  34.426   7.790   2.693
85017W        W46328  18.782  39.547  14.775
85018W        W46329  21.034  41.887  12.576
85019W        W46330  21.584  23.008  10.498
85020W        W46331  37.073  29.568   3.854
85021W        W46332  19.659  13.190   3.740
85022W        W46333  16.745  41.440   0.772
85023W        W46334  37.996  26.571   3.277
85024W        W46335   9.336  39.060  14.922
85025W        W46336  12.296  38.035  11.083
85026W        W46337  19.649  26.465   2.187
85027W        W46338  18.767  43.290   3.744
85028W        W46339  34.372  14.802  11.931
85029W        W46340  19.255  38.014   4.139
85030W        W46341   0.771  32.582   0.370
85031W        W46342  40.807  29.958   3.813
85032W        W46343   3.395  19.686   0.292
85033W        W46344  11.285  13.615  14.012
85034W        W46345  43.848  15.603  11.543
85035W        W46346  28.044  39.332  11.055
85036W        W46347   0.918  35.585   1.215
85037W        W46348   2.302   4.246  14.818
85038W        W46349  24.560  22.022   9.513
85039W        W46350  24.484  11.242  14.894
85040W        W46351  27.166   0.374   0.897
85041W        W46352  24.170  38.337   0.901
85042W        W46353  32.407  40.805  13.881
85043W        W46354  35.049  39.520   4.142
85044W        W46355  35.869  19.166  12.457
85045W        W46356   7.311   6.344   3.310
85046W        W46357  42.481  43.452  11.913
85047W        W46358  13.779   0.797  13.869
85048W        W46359  11.668  17.771  11.469
85049W        W46360  40.896  14.327   1.838
85050W        W46361  10.296   8.350  14.407
85051W        W46362  39.868  30.439  12.985
85052W        W46363   3.442   9.250   2.665
85053W        W46364  19.269  35.045   0.261
85054W        W46365  14.814  28.028   3.308
85055W        W46366  37.400   5.379  13.816
85056W        W46367   5.364  18.238  14.401
85057W        W46368  28.504  19.099  11.599
85058W        W46369  11.807   7.226  10.510
85059W        W46370  37.575  42.329   4.711
85060W        W46371  19.738  21.614   1.395
85061W        W46372  40.387  36.914   3.320
85062W        W46373  13.723  22.194   0.387
85063W        W46374   0.280   9.809   4.810
85064W        W46375  22.560  35.867   9.998
85065W        W46376  40.378  32.440   4.709
85066W        W46377  17.095  11.264   3.371
85067W        W46378  43.451  15.196  14.501
85068W        W46379   6.270  41.362   5.148
85069W        W46380  10.340  19.689   3.307
85070W        W46381  26.095  36.930  11.947
85071W        W46382  44.769  11.241   0.775
85072W        W46383  24.018   3.260  11.509
85073W        W46384  43.465  40.314   3.211
85074W        W46385  37.354   8.339   0.470
85075W        W46386  30.957  18.686  13.880
85076W        W46387  28.963  31.500  14.924
85077W        W46388  25.059  43.009  14.948
85078W        W46389  15.220  40.402  12.077
85079W        W46390  16.241   3.389  13.351
85080W        W46391  38.411  44.263   2.340
85081W        W46392  32.140  41.906   2.673
85082W        W46393  18.712  25.142   2.251
85083W        W46394  13.727  18.708  13.950
85084W        W46395  39.447  29.665   1.865
85085W        W46396  14.192  29.448   4.729
85086W        W46397  28.506  32.999  11.557
85087W        W46398  31.140  15.097   0.900
85088W        W46399  19.062  18.050   1.371
85089W        W46400  12.630  40.825  12.070
85090W        W46401  42.308  19.221  11.970
85091W        W46402  38.981   0.807   0.316
85092W        W46403  35.889   1.319   1.697
85093W        W46404   3.849  38.835  13.377
85094W        W46405  26.498  18.704  11.077
85095W        W46406  29.043  32.960   0.475
85096W        W46407  30.029  26.677   4.660
85097W        W46408   2.297  44.771   2.870
85098W        W46409  43.406  14.778  14.005
85099W        W46410  39.893  25.519   2.335
85100W        W46411  24.517  37.034   2.900
85101W        W46412  41.018   6.806   0.949
85102W        W46413  20.612  10.805   3.306
85103W        W46414  28.940  32.891   2.854
85104W        W46415  17.672   7.736   2.263
85105W        W46416   5.346  28.607  11.004
85106W        W46417  34.606  16.729  10.941
85107W        W46418  30.104   4.359   1.737
85108W        W46419  19.282  34.479  12.407
85109W        W46420  17.201  40.412  14.942
85110W        W46421  35.995  43.294   0.452
85111W        W46422   4.822   1.926  13.432
85112W        W46423  39.529  43.300   2.688
85113W        W46424  17.682  27.686   3.846
85114W        W46425  18.290  30.468   1.902
85115W        W46426  16.748  18.648  10.454
85116W        W46427   0.313  38.401   2.185
85117W        W46428  30.442  35.587  14.499
85118W        W46429  39.928  43.323   1.362
85119W        W46430  25.048  19.543   0.280
85120W        W46431  22.067  11.625   2.784
85121W        W46432  24.500  43.020  13.531
85122W        W46433  28.085   8.798   0.455
85123W        W46434  12.136  18.241  14.340
85124W        W46435   4.282  36.350  14.910
85125W        W46436  36.436  22.205  12.075
85126W        W46437   5.289  42.815   0.777
85127W        W46438  10.212   2.403  13.919
85128W        W46439  33.117  34.387  10.424
85129W        W46440  38.900  16.772   0.913
85130W        W46441  20.623  22.655   3.633
85131W        W46442   1.758  16.786  14.006
85132W        W46443   3.444  15.740   9.953
85133W        W46444   2.308   7.350  12.577
85134W        W46445   4.405  23.081  13.997
85135W        W46446  15.690  27.559   3.666
85136W        W46447  23.087  33.044   4.719
85137W        W46448  34.910  10.867   3.386
85138W        W46449  21.255  33.894   2.239
85139W        W46450  44.444   2.451  14.362
85140W        W46451  42.345  34.399  13.479
85141W        W46452  40.340  37.841  13.826
85142W        W46453  23.592  18.280  12.464
85143W        W46454  18.761  19.554  11.885
85144W        W46455   3.890  18.646   1.374
85145W        W46456   7.848  16.176   0.873
85146W        W46457  24.977  33.979   3.671
85147W        W46458  11.328  29.023  11.390
85148W        W46459  43.328   8.898  12.015
85149W        W46460   0.429  22.702   3.274
85150W        W46461  34.034  25.148  13.378
85151W        W46462   7.248  23.563   3.370
85152W        W46463   0.279   5.276  12.499
85153W        W46464  10.775  41.042   2.889
85154W        W46465  43.988  28.152  14.795
85155W        W46466  39.319  43.844   3.291
85156W        W46467  10.374  37.910  11.026
85157W        W46468   0.893   3.935   0.351
85158W        W46469  32.087  29.588  10.453
85159W        W46470  38.980   6.215  10.444
85160W        W46471  35.890   1.817   0.794
85161W        W46472  10.766   9.193  11.043
85162W        W46473  15.771   1.821  11.105
85163W        W46474   7.314   6.278   0.954
85164W        W46475   8.269  32.133  10.949
85165W        W46476  41.397  10.230   4.666
85166W        W46477  44.983  23.681  14.438
85167W        W46478  27.572  16.096   2.390
85168W        W46479  39.359   1.772  13.843
85169W        W46480  43.498  34.078  11.945
85170W        W46481   9.867   7.302   4.195
85171W        W46482   7.314  29.093  11.378
85172W        W46483  41.037  39.037  14.766
85173W        W46484  28.090   0.460   4.611
85174W        W46485  42.522   2.819   4.138
85175W        W46486   9.265  33.486   2.765
85176W        W46487   1.745  10.650  11.490
85177W        W46488  11.371  34.453   2.774
85178W        W46489  12.855  19.228  14.944
85179W        W46490  15.310  39.963   0.250
85180W        W46491  11.682  29.618   3.650
85181W        W46492  17.610  34.002  10.581
85182W        W46493  33.886  28.666   4.132
85183W        W46494  10.337   3.718  14.482
85184W        W46495  19.066  35.030   2.717
85185W        W46496  23.717  40.450  10.982
85186W        W46497  16.596  32.057  13.397
85187W        W46498  36.461  22.649  10.467
85188W        W46499  20.211  41.451   4.297
85189W        W46500   5.362  12.359   2.830
85190W        W46501  39.989  37.922  12.450
85191W        W46502   0.984  17.292   4.214
85192W        W46503  15.643   0.952  10.568
85193W        W46504  34.476  16.297  11.864
85194W        W46505  26.638  23.566   9.953
85195W        W46506  28.660  23.169  14.423
85196W        W46507  24.130   3.805  13.485
85197W        W46508  22.214  36.856  14.964
85198W        W46509  38.876  10.253   3.772
85199W        W46510   8.837  43.279   1.777
85200W        W46511  37.396  31.568   0.858
85201W        W46512  28.652  27.063   1.280
85202W        W46513   7.410   0.835  13.946
85203W        W46514  32.039  30.535  13.336
85204W        W46515  15.595  18.109   4.713
85205W        W46516  19.262   9.374   3.162
85206W        W46517  42.019  22.236  13.507
85207W        W46518  23.553  19.673   4.606
85208W        W46519  44.823  31.058   4.159
85209W        W46520  30.629  42.937  13.952
85210W        W46521  17.082  22.014   3.850
85211W        W46522  29.065  35.591   1.279
85212W        W46523  38.880  42.307  13.378
85213W        W46524   1.339  41.950   4.764
85214W        W46525  27.183  17.784  11.432
85215W        W46526   2.863  42.007  11.128
85216W        W46527  26.071  19.753  12.553
85217W        W46528  20.539  28.639  13.854
85218W        W46529  36.418  25.693  10.979
85219W        W46530  39.988  23.210   4.809
85220W        W46531  41.513  11.788   3.678
85221W        W46532  21.182  39.887  12.030
85222W        W46533  16.716   3.846  14.334
85223W        W46534  25.528  29.448   4.265
85224W        W46535  39.823  40.386  12.853
85225W        W46536  26.693  43.273   4.260
85226W        W46537  17.187  28.054  12.510
85227W        W46538   7.702  44.886  11.910
85228W        W46539  39.507  24.595  14.964
85229W        W46540  26.670   9.296  14.378
85230W        W46541  25.099  11.698  12.364
85231W        W46542  23.986  28.559  14.014
85232W        W46543  19.551   7.769   1.295
85233W        W46544  39.556   8.380   3.641
85234W        W46545  11.825   0.337  14.390
85235W        W46546   2.962  25.509  11.555
85236W        W46547   6.846  15.184   9.532
85237W        W46548  30.050  39.996   4.252
85238W        W46549  18.731  12.723  10.424
85239W        W46550  28.665  18.652  13.999
85240W        W46551  43.786  25.496  12.528
85241W        W46552  11.739  42.491   3.694
85242W        W46553  13.317  34.599  13.450
85243W        W46554   7.805  43.816   2.788
85244W        W46555  13.791  38.541   3.687
85245W        W46556   9.888  34.891  14.407
85246W        W46557  40.985  42.955  10.968
85247W        W46558  22.643  30.013   3.744
85248W        W46559  43.772  17.668   0.437
85249W        W46560   0.442  32.625  10.512
85250W        W46561  14.127   8.720  14.379
85251W        W46562   8.818  26.471  14.976
85252W        W46563  29.574   0.923   1.343
85253W        W46564   0.772   0.788  14.959
85254W        W46565  31.023  38.936   9.996
85255W        W46566  27.029  31.018   9.555
85256W        W46567  24.130  17.798   3.679
85257W        W46568  29.036  19.112   2.677
85258W        W46569  24.660  32.900  14.907
85259W        W46570   7.297  10.363   0.335
85260W        W46571  34.114  33.593   3.349
85261W        W46572   6.207  16.154   2.686
85262W        W46573   5.276  25.643  13.054
85263W        W46574   8.250  23.497   1.890
85264W        W46575  11.304  26.601  14.377
85265W        W46576  24.718  16.760  11.551
85266W        W46577   6.836   6.858   2.381
85267W        W46578  39.379   3.372   2.209
85268W        W46579  29.605   1.761  14.829
85269W        W46580  31.413  42.433   3.725
85270W        W46581   5.201  40.940  14.444
85271W        W46582  10.777   9.665  13.545
85272W        W46583   3.845  29.939  13.874
85273W        W46584   3.826  25.569   1.413
85274W        W46585   5.693  43.305  10.618
85275W        W46586  44.372  19.052   2.336
85276W        W46587  25.511  38.829  14.964
85277W        W46588  31.075  39.050  12.451
85278W        W46589  14.696  35.411   4.139
85279W        W46590  15.655   0.928   2.254
85280W        W46591  22.094  35.979   3.153
85281W        W46592  36.990   7.772  13.316
85282W        W46593  31.919  40.976   2.751
85283W        W46594  13.245  12.206  14.974
85284W        W46595  14.816  29.965   4.126
85285W        W46596  44.901  19.185  13.526
85286W        W46597  13.106   8.867  14.447
85287W        W46598  39.053  14.106  11.948
85288W        W46599  12.845  23.644  11.590
85289W        W46600  33.916  40.958  10.448
85290W        W46601   8.715  33.005   4.644
85291W        W46602  39.920  10.799  13.989
85292W        W46603   8.406  32.603   3.716
85293W        W46604   1.404  40.359   4.286
85294W        W46605  19.625   2.339   0.950
85295W        W46606   5.289  11.650   4.719
85296W        W46607  22.015  29.665   0.799
85297W        W46608  32.013  27.481  10.638
85298W        W46609  31.003  28.990  12.929
85299W        W46610  17.224   4.840   9.931
85300W        W46611  11.336  17.641  12.416
85301W        W46612  15.203  17.269   0.301
85302W        W46613   7.720  29.970   0.255
85303W        W46614  28.056  19.111   4.254
85304W        W46615  40.499  23.694  14.795
85305W        W46616  41.297   5.838   4.663
85306W        W46617   4.254  15.301  13.855
85307W        W46618  34.523   6.869   2.290
85308W        W46619  25.708  30.536   0.913
85309W        W46620  13.195   1.420  11.039
85310W        W46621   2.827   3.446  11.409
85311W        W46622  13.622  13.191   4.176
85312W        W46623  37.912  15.742  13.838
85313W        W46624   0.911  12.289  14.309
85314W        W46625   5.688  36.419   1.907
85315W        W46626  32.137  35.911   3.289
85316W        W46627  13.293   2.941  12.909
85317W        W46628   7.774  24.515  13.005
85318W        W46629   1.816  21.740   0.253
85319W        W46630  44.446  39.843   2.683
85320W        W46631   6.400  31.489   3.372
85321W        W46632  36.913  19.707  11.104
85322W        W46633  41.890  33.882   2.790
85323W        W46634  11.722  36.485   2.677
85324W        W46635   8.884  35.028  13.812
85325W        W46636   6.191   2.318   4.597
85326W        W46637  30.416   7.288   1.445
85327W        W46638  16.274   4.256   2.745
85328W        W46639  16.650  13.734  13.978
85329W        W46640  18.094  42.974   0.355
85330W        W46641  10.161  40.021   0.411
85331W        W46642  27.951  27.036   3.346
85332W        W46643  33.419  37.912  11.085
85333W        W46644   5.906   4.912  11.533
85334W        W46645  36.492  41.467  12.543
85335W        W46646  32.991   7.677  11.006
85336W        W46647   7.413  26.513   3.813
85337W        W46648  15.169  44.420   1.874
85338W        W46649  16.736  42.993   1.297
85339W        W46650  23.684  33.892  12.417
85340W        W46651  43.770  38.427   4.255
85341W        W46652  19.672  37.554  11.867
85342W        W46653  20.189  29.577  14.408
85343W        W46654  41.984  20.687  11.949
85344W        W46655   7.741  12.721   0.955
85345W        W46656  36.094   8.347  10.528
85346W        W46657  15.675  37.078   0.833
85347W        W46658  23.623  22.169  14.938
85348W        W46659  19.068   8.864   0.757
85349W        W46660  12.795  24.541  14.489
85350W        W46661  24.982  42.852   1.408
85351W        W46662  33.020  37.526  14.330
85352W        W46663  31.905  44.369   3.735
85353W        W46664   4.325  10.770   1.727
85354W        W46665  40.003  17.207  13.309
85355W        W46666  25.639  35.948   3.705
85356W        W46667  37.527  37.527   5.653
85357W        W46668  27.645  41.895   1.857
85358W        W46669  10.171  33.916   1.439
85359W        W46670  13.241  11.862   0.386
85360W        W46671  16.084   2.756  14.985
85361W        W46672  17.752   7.777  11.060
85362W        W46673  41.506  16.609  10.521
85363W        W46674  26.617   4.383  11.503
85364W        W46675  24.055  18.188  12.450
85365W        W46676  39.859   2.352  12.562
85366W        W46677  22.622  44.806  14.810
85367W        W46678  40.413  11.140   3.682
85368W        W46679  14.649  24.585   1.795
85369W        W46680  26.482   2.963   1.697
85370W        W46681  39.545  21.100   2.181
85371W        W46682  37.023  29.591  10.993
85372W        W46683  36.563  16.695  11.401
85373W        W46684  22.197  42.958  13.931
85374W        W46685  13.753  42.359  14.372
85375W        W46686  29.098   6.320   3.227
85376W        W46687  16.659   3.281   0.402
85377W        W46688  38.435  12.232  11.996
85378W        W46689  25.526  19.572  13.027
85379W        W46690   6.331  24.681   1.315
85380W        W46691  26.504  33.614  10.624
85381W        W46692   1.298   1.379   3.803
85382W        W46693  17.194  22.547  10.900
85383W        W46694  21.585   9.844   4.202
85384W        W46695   2.725   9.734   2.822
85385W        W46696  39.340  38.487   3.665
85386W        W46697  22.152  23.640  12.557
85387W        W46698  22.522   9.662   3.163
85388W        W46699  17.564   9.695   1.373
85389W        W46700   5.899  42.284  11.108
85390W        W46701  37.575   3.351  12.357
85391W        W46702  34.592   1.855  12.465
85392W        W46703  11.675  23.152  11.093
85393W        W46704  33.897  38.924  13.005
85394W        W46705  13.182   5.853   3.631
85395W        W46706  19.614   5.386  12.513
85396W        W46707  10.166  32.487   3.833
85397W        W46708  29.084  24.207  14.382
85398W        W46709  37.072  40.473   3.328
85399W        W46710   8.354  28.659  11.461
85400W        W46711  39.451  17.107  11.948
85401W        W46712  42.341   6.399  14.443
85402W        W46713   0.745  25.680  13.866
85403W        W46714  16.762   7.248   0.397
85404W        W46715  21.226   6.707   1.828
85405W        W46716  23.687  17.141   5.738
85406W        W46717   3.723   8.738  12.936
85407W        W46718  18.160  20.693   2.896
85408W        W46719   0.269   5.824  11.467
85409W        W46720  24.723   1.881  11.478
85410W        W46721  16.710  18.087  12.552
85411W        W46722  36.943  15.806   1.903
85412W        W46723   2.375  37.496   3.763
85413W        W46724  28.002  43.491  12.838
85414W        W46725  23.234   5.690   1.233
85415W        W46726  16.706   7.684   2.671
85416W        W46727  10.289  27.001   3.301
85417W        W46728   7.325  27.943   4.697
85418W        W46729   1.757  41.327   4.778
85419W        W46730  34.866  41.320   0.383
85420W        W46731   5.713   3.322   1.934
85421W        W46732  39.400   5.830  12.936
85422W        W46733   3.234  33.958   0.472
85423W        W46734   1.281   9.328  11.949
85424W        W46735  10.266  27.140   4.270
85425W        W46736   8.731  29.056   0.362
85426W        W46737  43.424   8.725  12.520
85427W        W46738  39.987  42.945   3.277
85428W        W46739  23.125  30.077  14.461
85429W        W46740  24.583  29.452  12.886
85430W        W46741  31.425  40.885   1.812
85431W        W46742  10.366   5.220   4.747
85432W        W46743  27.479  44.934   3.751
85433W        W46744  10.150  44.262  14.306
85434W        W46745  28.470  31.496  11.549
85435W        W46746  18.748  37.869   2.404
85436W        W46747  37.861  31.943  11.535
85437W        W46748   7.763  40.356   2.409
85438W        W46749   8.859   2.858  13.030
85439W        W46750   2.295  42.295  13.469
85440W        W46751  35.437  21.045   4.353
85441W        W46752  44.006   9.371  12.057
85442W        W46753  17.688  17.083  12.529
85443W        W46754  27.957  18.219  10.024
85444W        W46755  36.994  41.972  10.899
85445W        W46756  39.555  16.749  14.499
85446W        W46757  40.942  38.961  13.460
85447W        W46758  24.054  10.309   3.223
85448W        W46759  20.718  44.906   2.221
85449W        W46760  41.429  29.595   3.772
85450W        W46761   5.252  12.717   1.885
85451W        W46762  11.765  14.782   1.392
85452W        W46763  23.514  21.156   1.850
85453W        W46764  12.787  40.040  10.454
85454W        W46765  39.010  36.507  14.925
85455W        W46766  31.439  14.750  11.539
85456W        W46767   7.383   1.743  10.622
85457W        W46768  17.133  37.883   3.675
85458W        W46769  21.086   1.405  13.429
85459W        W46770  16.789  17.281  10.417
85460W        W46771  21.256  32.591  10.131
85461W        W46772  43.458   0.785   1.845
85462W        W46773  33.424  22.722  14.823
85463W        W46774  30.438  21.602   3.176
85464W        W46775  26.588  34.009   4.653
85465W        W46776  24.096   0.855  10.438
85466W        W46777   8.761  44.755  14.869
85467W        W46778  11.749  17.226   2.759
85468W        W46779  33.614  20.643   4.696
85469W        W46780  37.581   4.400   2.208
85470W        W46781  20.109  16.770  10.628
85471W        W46782  15.328  43.908  11.469
85472W        W46783  38.391  15.617   2.839
85473W        W46784  23.543  16.210   1.257
85474W        W46785   0.949  22.035   0.760
85475W        W46786  42.975   3.256   0.942
85476W        W46787   7.752  30.011  11.109
85477W        W46788  31.573  14.192   2.697
85478W        W46789   1.766  25.154   3.195
85479W        W46790  19.234  35.929  13.445
85480W        W46791   1.903  33.513  12.422
85481W        W46792   1.927  10.751  14.866
85482W        W46793  23.184  38.333   5.717
85483W        W46794  38.425  43.483  13.983
85484W        W46795  13.325  35.530   4.315
85485W        W46796  21.604  38.388  13.415
85486W        W46797  11.715  16.652  12.990
85487W        W46798  41.466   1.738  10.572
85488W        W46799  30.640  42.375  14.375
85489W        W46800  21.602  11.205  14.012
85490W        W46801   3.441   2.413   0.956
85491W        W46802  33.950  35.974   0.304
85492W        W46803  31.593   0.364  13.971
85493W        W46804  20.652  37.019  11.046
85494W        W46805  42.345  20.241   0.461
85495W        W46806  41.440  15.746  12.473
85496W        W46807  40.443  35.570   2.403
85497W        W46808  24.980  23.623  13.898
85498W        W46809  15.196  11.812  14.476
85499W        W46810  15.087  36.427   1.260
85500W        W46811  15.790  24.139  11.508
85501W        W46812  21.629  18.664  14.879
85502W        W46813  35.876  14.748  10.895
85503W        W46814  25.047   9.647  14.506
85504W        W46815   6.913   2.759  12.897
85505W        W46816  13.156  27.139  13.947
85506W        W46817  31.572  18.124   4.340
85507W        W46818   9.233  28.560   1.295
85508W        W46819  38.562  23.177  13.010
85509W        W46820  29.974  15.125  14.989
85510W        W46821  33.077  44.859   3.705
85511W        W46822   4.269  18.597  14.786
85512W        W46823   6.899  38.509   0.955
85513W        W46824  33.401  38.366  11.934
85514W        W46825  39.036  28.668  12.574
85515W        W46826  13.641  22.187   4.322
85516W        W46827  35.533  36.078  13.515
85517W        W46828  33.065  32.916   2.264
85518W        W46829  14.702  42.373  13.041
85519W        W46830  14.274  39.824   1.399
85520W        W46831  36.941  36.075   4.800
85521W        W46832  30.632  15.217  10.975
85522W        W46833  11.647  39.994   1.421
85523W        W46834  24.107   0.824   0.862
85524W        W46835  15.107  31.133  11.939
85525W        W46836  13.650  34.057   3.237
85526W        W46837   7.867  38.516  11.506
85527W        W46838  32.593  27.591  13.885
85528W        W46839  20.641   8.880   2.888
85529W        W46840  25.209  18.288  12.564
85530W        W46841  30.968   5.415  13.015
85531W        W46842  22.103  43.280   4.723
85532W        W46843   1.953  40.010   2.858
85533W        W46844  14.660   2.896   4.119
85534W        W46845   7.385  21.702  12.382
85535W        W46846  29.940  41.402   3.217
85536W        W46847  31.962  34.092  13.516
85537W        W46848  27.137  40.003  11.551
85538W        W46849   6.318   0.462  10.435
85539W        W46850  34.610  17.158  14.963
85540W        W46851   7.321  21.530  11.486
85541W        W46852  17.205  11.714   2.271
85542W        W46853  44.356  28.517  12.568
85543W        W46854  22.731  42.430  12.852
85544W        W46855  31.970   3.810  10.617
85545W        W46856  27.041  17.141   2.821
85546W        W46857  43.469  15.319  13.809
85547W        W46858   6.726  26.058  12.957
85548W        W46859  44.980  23.712  12.352
85549W        W46860  29.033   1.884   4.202
85550W        W46861  20.195   3.259  13.388
85551W        W46862  33.452  41.396  12.347
85552W        W46863  16.796  20.658   0.738
85553W        W46864  12.692  16.666   2.812
85554W        W46865  12.772  27.119  11.085
85555W        W46866  23.695  17.118   1.873
85556W        W46867  30.982  19.763   0.961
85557W        W46868  19.560  15.594  11.496
85558W        W46869  10.814  42.350   0.371
85559W        W46870   8.799  31.551  13.877
85560W        W46871  43.895  16.595  11.093
85561W        W46872   6.827  36.919  14.847
85562W        W46873  18.095  27.971  13.020
85563W        W46874   3.772  23.588   4.667
85564W        W46875  19.767  32.983   3.675
85565W        W46876  12.839  44.267   3.807
85566W        W46877   4.904  23.501   2.705
85567W        W46878  43.819  20.236  12.073
85568W        W46879  20.583  25.966   0.339
85569W        W46880  33.603   7.837  11.568
85570W        W46881  11.795  22.587   1.918
85571W        W46882  10.745  24.227   3.807
85572W        W46883  17.752  43.915  10.893
85573W        W46884  27.588  26.208  14.765
85574W        W46885  35.906  30.061  14.819
85575W        W46886  25.552  31.087  14.876
85576W        W46887  16.636   6.919   2.886
85577W        W46888  12.775  34.934   1.332
85578W        W46889  37.055   8.687  12.993
85579W        W46890  31.926  35.436   1.835
85580W        W46891  27.022  32.402  11.022
85581W        W46892  39.474  39.424   3.254
85582W        W46893  27.060  36.452   4.264
85583W        W46894  32.058  43.950  10.890
85584W        W46895  23.723  19.779   1.724
85585W        W46896  18.649  26.166  10.450
85586W        W46897  17.094  30.649   9.982
85587W        W46898  43.414   8.693  14.804
85588W        W46899  15.791  26.169  10.593
85589W        W46900  44.864  23.056   1.331
85590W        W46901  32.111   0.868   2.305
85591W        W46902  30.997   2.886  11.098
85592W        W46903  18.752  17.076  11.606
85593W        W46904  39.539  12.720   4.170
85594W        W46905  24.010  13.160  13.389
85595W        W46906   1.292  30.105  12.361
85596W        W46907   3.817  31.088  11.995
85597W        W46908  37.344  34.057   9.564
85598W        W46909  40.034  15.699  12.055
85599W        W46910  16.171  39.019   2.775
85600W        W46911  21.221   8.333  12.525
85601W        W46912   4.447   4.787   0.342
85602W        W46913  42.866   1.863   0.827
85603W        W46914   9.758   0.982  14.340
85604W        W46915  34.575  37.517   4.819
85605W        W46916   4.918  27.987  14.023
85606W        W46917  42.437   3.325  10.542
85607W        W46918  14.128  38.509  13.468
85608W        W46919   0.300  36.015   1.773
85609W        W46920   0.261  36.591   1.404
85610W        W46921   4.820   6.829  11.414
85611W        W46922  37.429  28.157   3.244
85612W        W46923  19.281  39.979  10.418
85613W        W46924  23.198  13.310  14.429
85614W        W46925  29.947  12.124  12.532
85615W        W46926   4.324  41.835   0.967
85616W        W46927  25.108  15.269  11.989
85617W        W46928  36.079  22.661  11.499
85618W        W46929  10.807  32.601  11.893
85619W        W46930  16.292  20.230   4.774
85620W        W46931  44.432   1.482   4.738
85621W        W46932  41.024  24.604   2.179
85622W        W46933  20.056  17.284  13.527
85623W        W46934  23.609  37.383  12.864
85624W        W46935  39.017   0.494   0.326
85625W        W46936  10.699  36.359  11.879
85626W        W46937   3.389  30.593  11.577
85627W        W46938  36.439  27.483   0.835
85628W        W46939  32.621  24.665   1.738
85629W        W46940  18.203  29.054   0.886
85630W        W46941   2.420  15.107   3.798
85631W        W46942  23.070   6.198  13.336
85632W        W46943  35.853  40.332   3.821
85633W        W46944  22.651  22.252   0.886
85634W        W46945  11.177  25.633   3.285
85635W        W46946  35.934  12.715   2.880
85636W        W46947   7.258  24.055  14.466
85637W        W46948  40.332  13.241  10.423
85638W        W46949   7.701  38.490   3.678
85639W        W46950  44.869  28.564   2.415
85640W        W46951  32.078  23.004   0.757
85641W        W46952  42.342  40.335  12.991
85642W        W46953  15.150   0.338  12.906
85643W        W46954   2.395  13.639   4.718
85644W        W46955  14.697  29.495  10.428
85645W        W46956  30.050   3.252  11.593
85646W        W46957   7.381   6.792   3.678
85647W        W46958  12.203  20.640  10.519
85648W        W46959  34.501   0.468  13.809
85649W        W46960   0.331  35.410  12.440
85650W        W46961  42.850   9.240  11.956
85651W        W46962  20.657  21.663  11.879
85652W        W46963  25.002  10.790  13.434
85653W        W46964  27.655   8.293  11.998
85654W        W46965  10.244  43.325   4.238
85655W        W46966  39.039  39.971  11.407
85656W        W46967  12.632  28.015  14.502
85657W        W46968  29.994  36.997   1.874
85658W        W46969  13.696   3.421   1.428
85659W        W46970  33.975   4.366  13.888
85660W        W46971  16.119  22.077  11.432
85661W        W46972  35.082  17.678  10.906
85662W        W46973   2.292  16.227  12.043
85663W        W46974  40.908  37.390  14.828
85664W        W46975  35.971  43.392   2.372
85665W        W46976  43.292  37.057   1.835
85666W        W46977   8.712  29.496  10.910
85667W        W46978  34.493   2.784  12.899
85668W        W46979  35.494  24.580  14.420
85669W        W46980   9.213  12.221  14.911
85670W        W46981  36.855  28.622  10.152
85671W        W46982  24.031  26.617   1.406
85672W        W46983  17.258   1.279   3.777
85673W        W46984  34.492  41.375   3.263
85674W        W46985   0.938  17.575  11.040
85675W        W46986  27.037  41.969  14.805
85676W        W46987  17.579  31.905   3.739
85677W        W46988   1.882  25.065  11.397
85678W        W46989  37.021  24.483   0.781
85679W        W46990  37.509  38.039   3.742
85680W        W46991   5.296  17.642  14.377
85681W        W46992  12.653  21.198   0.829
85682W        W46993  42.805  41.443  13.858
85683W        W46994  30.597  21.744  10.893
85684W        W46995  41.995  17.233   4.324
85685W        W46996  24.632  33.942  14.845
85686W        W46997  37.858  18.255  12.390
85687W        W46998  26.491  11.809   4.762
85688W        W46999  34.611  42.809   5.094
85689W        W47000  38.510  14.680  13.404
85690W        W47001   6.426  40.824  10.974
85691W        W47002  22.131   9.644  14.799
85692W        W47003   5.912  12.791  10.497
85693W        W47004   4.242   3.771   2.902
85694W        W47005   9.257  17.201   2.290
85695W        W47006  15.810  37.573   1.325
85696W        W47007  13.799  32.999   3.168
85697W        W47008  32.486  21.757   3.772
85698W        W47009  44.928  32.546   0.791
85699W        W47010  10.207   5.750   3.786
85700W        W47011  27.180  14.817  14.758
85701W        W47012  29.550  34.486  12.057
85702W        W47013  23.992  37.529   9.920
85703W        W47014  37.035  41.916   0.874
85704W        W47015  33.437   8.696  11.444
85705W        W47016  23.718   3.872  11.902
85706W        W47017  35.419  30.932   2.340
85707W        W47018  39.518   9.357  12.845
85708W        W47019  35.992  19.573  12.028
85709W        W47020  22.510  22.739   4.737
85710W        W47021  16.315  38.018   2.888
85711W        W47022  16.678  27.447  11.003
85712W        W47023   9.221  16.199  12.056
85713W        W47024  37.830  15.619   2.778
85714W        W47025  15.179  27.510  13.401
85715W        W47026  20.191  10.352   1.749
85716W        W47027  10.790   3.384   0.865
85717W        W47028  24.571   7.263  12.371
85718W        W47029  17.582  26.640   2.885
85719W        W47030  28.486  39.354  14.513
85720W        W47031  28.104   5.878  11.490
85721W        W47032  37.555  15.644  11.593
85722W        W47033  29.162  14.785  14.413
85723W        W47034  11.153  38.412   3.161
85724W        W47035   9.764  38.434   1.245
85725W        W47036   6.717  19.712   1.699
85726W        W47037  33.084  15.744   1.906
85727W        W47038  36.900   6.347   4.770
85728W        W47039  14.832  21.082   4.690
85729W        W47040  41.873  35.981  13.940
85730W        W47041   7.338  34.546   0.831
85731W        W47042  38.344  31.913   0.342
85732W        W47043  14.698  25.662  11.452
85733W        W47044   6.366  19.265   1.284
85734W        W47045  41.467   4.282   0.341
85735W        W47046  26.206  22.565   0.389
85736W        W47047  31.491  41.321  12.454
85737W        W47048  13.254  18.677   2.339
85738W        W47049  16.073  32.140  14.310
85739W        W47050  18.667  15.637  12.871
85740W        W47051  40.406   8.255   1.340
85741W        W47052  21.614  34.973   4.131
85742W        W47053   9.667  24.587  11.914
85743W        W47054   9.676  33.575  12.852
85744W        W47055  12.251   0.876   0.435
85745W        W47056   0.248  39.900  12.542
85746W        W47057  19.064  11.278   3.705
85747W        W47058  17.770  24.585  12.408
85748W        W47059  23.645   7.798  12.535
85749W        W47060   0.259  37.353  13.048
85750W        W47061  15.778  25.556  13.923
85751W        W47062  38.396  43.904  14.457
85752W        W47063  31.402   4.770  11.400
85753W        W47064  29.621  30.135  13.887
85754W        W47065   2.440  40.044  14.904
85755W        W47066  36.091  27.553  11.954
85756W        W47067  34.557  24.050  12.937
85757W        W47068  44.323  38.884   3.787
85758W        W47069  21.644   5.236  10.534
85759W        W47070  44.002  29.519  10.603
85760W        W47071  37.906   7.792  14.018
85761W        W47072  16.112  42.338  13.834
85762W        W47073  24.482  38.948  13.463
85763W        W47074  16.803  43.973   2.192
85764W        W47075  35.365  30.581  11.565
85765W        W47076  17.655   5.824  11.037
85766W        W47077  35.871  19.533   1.846
85767W        W47078   3.799  24.187  14.283
85768W        W47079   7.867   1.795   1.415
85769W        W47080  25.114  33.961   4.744
85770W        W47081  11.623  25.210   2.850
85771W        W47082  33.895  16.809   3.835
85772W        W47083  20.654  11.661   4.699
85773W        W47084  20.058  29.051   3.296
85774W        W47085  17.287  32.606   4.636
85775W        W47086  38.889   0.979   5.267
85776W        W47087  36.020  24.698  11.539
85777W        W47088  38.365  38.494   2.248
85778W        W47089   8.345   7.698  10.959
85779W        W47090  10.261  41.442  12.981
85780W        W47091   9.668   5.734  14.809
85781W        W47092  27.129  14.764  13.442
85782W        W47093  26.182  31.449   0.926
85783W        W47094  12.625  25.477   1.416
85784W        W47095  29.090  18.634   1.412
85785W        W47096   1.914  14.243  13.391
85786W        W47097  11.855  26.584  10.140
85787W        W47098  35.357  34.615   4.695
85788W        W47099  11.730   0.968  13.000
85789W        W47100   0.810   9.168   1.857
85790W        W47101  30.043  16.118   3.782
85791W        W47102  25.681  41.454   4.775
85792W        W47103  26.670  29.458   4.285
85793W        W47104  43.829  10.732  11.475
85794W        W47105  34.993   9.804  11.504
85795W        W47106  30.105  17.131  14.351
85796W        W47107  14.105  15.107  10.501
85797W        W47108  21.045  13.326   3.630
85798W        W47109  38.481  30.514   1.930
85799W        W47110  36.055  21.184  12.874
85800W        W47111  14.272   5.197   3.258
85801W        W47112  13.310   4.710  13.431
85802W        W47113  18.104  44.978  14.348
85803W        W47114  41.891   6.810  13.499
85804W        W47115   0.899   0.800   2.257
85805W        W47116  43.011  40.356  14.440
85806W        W47117  41.895  20.596  13.375
85807W        W47118  29.074  35.893  11.569
85808W        W47119  14.231  37.554   1.774
85809W        W47120  17.127   0.876   9.975
85810W        W47121  22.721  24.163  11.872
85811W        W47122   2.334  10.285  13.546
85812W        W47123  39.334  37.503   3.746
85813W        W47124  25.978   5.225  12.909
85814W        W47125  28.112  17.637  10.984
85815W        W47126  15.252   9.763  11.063
85816W        W47127  38.003  44.492   4.186
85817W        W47128   5.322  41.835   3.159
85818W        W47129  21.026  39.008  12.922
85819W        W47130  12.817   6.916  12.404
85820W        W47131   9.371  14.101   4.642
85821W        W47132  21.632  18.255  10.919
85822W        W47133  23.006  15.148   2.677
85823W        W47134  28.454   6.279  14.889
85824W        W47135  26.099  37.977  13.811
85825W        W47136  21.667  44.822  12.096
85826W        W47137  28.542  26.959  10.560
85827W        W47138  25.603  44.311   0.821
85828W        W47139  44.895  39.005   3.371
85829W        W47140  39.842   7.725   0.837
85830W        W47141   5.832  17.720  14.429
85831W        W47142  32.555   9.725   0.950
85832W        W47143  40.911   6.416   2.681
85833W        W47144  27.617   8.679   4.815
85834W        W47145  40.905  41.529  10.476
85835W        W47146   0.891   0.921   0.397
85836W        W47147  43.901  24.217  12.468
85837W        W47148  43.281  35.952   1.775
85838W        W47149  34.951  13.315   3.670
85839W        W47150  16.079   7.892   2.278
85840W        W47151  34.564  41.431   0.251
85841W        W47152  28.610   6.918  13.496
85842W        W47153  44.260   5.780   3.797
85843W        W47154   9.324   9.293  14.485
85844W        W47155  15.274  16.677   2.295
85845W        W47156  33.537  42.954  11.389
85846W        W47157  42.284  21.734  11.888
85847W        W47158  34.451  30.529   3.780
85848W        W47159  20.197   1.806   2.398
85849W        W47160  16.265  11.128   3.204
85850W        W47161   3.726   0.489  11.886
85851W        W47162  29.054  10.260   4.142
85852W        W47163  28.471  43.511  14.817
85853W        W47164  12.627   6.696   5.200
85854W        W47165  14.588  44.447  11.032
85855W        W47166  39.065   1.838   2.370
85856W        W47167  39.555   2.302  10.990
85857W        W47168  25.604  26.170   1.891
85858W        W47169  29.438  20.540   3.369
85859W        W47170  40.480  29.587   5.249
85860W        W47171   4.786  27.111  12.415
85861W        W47172  34.889  44.285   1.425
85862W        W47173  43.503  20.218   3.322
85863W        W47174  26.613  44.454  11.958
85864W        W47175  43.413  39.844   2.836
85865W        W47176  39.017   6.872   4.289
85866W        W47177   3.810  35.970  14.389
85867W        W47178  17.558  31.969  11.877
85868W        W47179  37.058  27.563  14.984
85869W        W47180  24.708  32.992  13.342
85870W        W47181   1.354  10.150   2.859
85871W        W47182   2.309  29.080   0.419
85872W        W47183  34.562  24.025   0.807
85873W        W47184  24.181   4.853  11.099
85874W        W47185  28.095  33.506   0.393
85875W        W47186  16.202  15.672   2.310
85876W        W47187  18.588  12.787  13.987
85877W        W47188   5.429  21.736   3.322
85878W        W47189  12.255  40.965   4.778
85879W        W47190  27.617  38.471   1.260
85880W        W47191  30.950  18.235   3.859
85881W        W47192  36.442  18.071  12.987
85882W        W47193   3.950  17.282   2.260
85883W        W47194  30.140  24.532   1.317
85884W        W47195   8.357   9.795  11.911
85885W        W47196  18.613   9.781   4.144
85886W        W47197   0.808  19.547  11.880
85887W        W47198  22.661  29.146  10.452
85888W        W47199  32.474  15.100  13.367
85889W        W47200   8.886  41.984  13.385
85890W        W47201  34.091  24.651  10.424
85891W        W47202  23.714   1.309   1.230
85892W        W47203  24.052  11.156   1.415
85893W        W47204  12.199  38.944   2.335
85894W        W47205   1.808  29.635   4.711
85895W        W47206   7.682  15.804   4.691
85896W        W47207  43.806   9.288   3.690
85897W        W47208  42.525  30.545  14.767
85898W        W47209  42.784  30.580   3.179
85899W        W47210  41.324  29.117  14.847
85900W        W47211  44.848   7.306   1.882
85901W        W47212  17.710  25.495   0.826
85902W        W47213   3.906  16.181   4.333
85903W        W47214  21.183  18.565   1.810
85904W        W47215  15.231   7.810   4.235
85905W        W47216   0.364  41.533   4.180
85906W        W47217  40.469  15.211   3.371
85907W        W47218  12.799  33.502  12.007
85908W        W47219   6.721  29.989  12.371
85909W        W47220  29.012  19.544  10.966
85910W        W47221  25.084  19.653   9.990
85911W        W47222  22.185  28.066   0.759
85912W        W47223  12.356   3.443   1.912
85913W        W47224  35.056  16.618   1.764
85914W        W47225  35.099  27.153  13.384
85915W        W47226  10.726  44.279   4.741
85916W        W47227  14.157  21.258   4.739
85917W        W47228  27.959   9.874  12.952
85918W        W47229   7.318  23.173   2.386
85919W        W47230   2.267   6.336  12.834
85920W        W47231  41.490  33.081   1.768
85921W        W47232  41.816  15.196  10.511
85922W        W47233  24.181   4.778   4.273
85923W        W47234   2.821  25.017  13.431
85924W        W47235  36.952  40.900  10.619
85925W        W47236   6.709  17.671   4.782
85926W        W47237  31.629  26.206  14.898
85927W        W47238  36.083  26.505  11.507
85928W        W47239   1.750  35.586   2.663
85929W        W47240  21.071  20.083   0.442
85930W        W47241  23.111  13.756  13.351
85931W        W47242  14.229  44.940  14.888
85932W        W47243  18.202  34.906   3.290
85933W        W47244   5.847   2.935   1.841
85934W        W47245   6.286  15.604   3.384
85935W        W47246  14.635  32.072   1.786
85936W        W47247  20.131  21.693   2.870
85937W        W47248  33.520   5.228  13.500
85938W        W47249  28.125  23.555   2.213
85939W        W47250  33.982  13.730  12.352
85940W        W47251  21.217  44.306   4.311
85941W        W47252  19.175  18.640   1.234
85942W        W47253  13.109   6.397  12.978
85943W        W47254  37.473  44.494  12.447
85944W        W47255  27.163  23.511  12.443
85945W        W47256  15.294  20.714   0.301
85946W        W47257   5.870  12.734  11.425
85947W        W47258  38.845   7.198   4.170
85948W        W47259   5.886  18.120  13.857
85949W        W47260  25.077  43.516  14.944
85950W        W47261  38.850  25.978   2.347
85951W        W47262  21.526  41.867   4.648
85952W        W47263   3.759  14.698   3.840
85953W        W47264  35.082  26.071   3.825
85954W        W47265   9.728  36.869   1.329
85955W        W47266  30.657   0.809  13.829
85956W        W47267  26.103   0.365   0.788
85957W        W47268   7.739  11.307  14.029
85958W        W47269  38.907  34.045  10.962
85959W        W47270  24.032   8.271  13.950
85960W        W47271  34.479  33.928  12.935
85961W        W47272  10.305   5.855   4.814
85962W        W47273  42.375  16.164  14.848
85963W        W47274   2.379   7.749  11.983
85964W        W47275   6.862   7.857  12.492
85965W        W47276  32.394  43.416   0.353
85966W        W47277   9.681  43.423   0.266
85967W        W47278  36.565   0.970   9.935
85968W        W47279  32.519   6.375  10.417
85969W        W47280  37.040  28.003   4.767
85970W        W47281   9.298  23.205   0.842
85971W        W47282   4.824  25.672   2.378
85972W        W47283  22.544  41.448   1.920
85973W        W47284  29.953   7.309  13.866
85974W        W47285  11.180  13.220  14.937
85975W        W47286  36.968  44.393  11.388
85976W        W47287   0.885   5.845   0.869
85977W        W47288  37.398  44.782   4.315
85978W        W47289  16.653  23.698   1.252
85979W        W47290  39.401  31.518   5.287
85980W        W47291  11.231   3.261   2.411
85981W        W47292  21.588  37.923   3.816
85982W        W47293  12.778  24.709  13.318
85983W        W47294   8.818  10.755  12.967
85984W        W47295  13.806  15.800  13.057
85985W        W47296   8.812  39.329   0.864
85986W        W47297  41.304   0.781   1.246
85987W        W47298  34.606  31.589  11.430
85988W        W47299  17.710   7.195  12.024
85989W        W47300  23.140  22.671   3.761
85990W        W47301   1.358  26.589  10.432
85991W        W47302  40.318  35.005   3.377
85992W        W47303  14.181  24.608   0.272
85993W        W47304   6.328  20.768   2.829
85994W        W47305  43.897  13.221  11.517
85995W        W47306  27.609  38.047  12.373
85996W        W47307  23.687  19.658   2.374
85997W        W47308   9.733  19.710   0.351
85998W        W47309  10.382   8.720  14.985
85999W        W47310  11.235  37.024   1.244
86000W        W47311  33.504   9.790  14.340
86001W        W47312  19.720  26.173   0.900
86002W        W47313  42.987  22.164   3.859
86003W        W47314  26.164   9.374   4.804
86004W        W47315  24.683   6.863  14.923
86005W        W47316   4.714  32.586   1.322
86006W        W47317  32.406  35.419   2.405
86007W        W47318   9.813  28.012  12.091
86008W        W47319   2.831  40.982  14.279
86009W        W47320  30.992  25.586   1.849
86010W        W47321  18.614  31.904   3.694
86011W        W47322  26.128  41.858   1.222
86012W        W47323  16.211  25.214   9.953
86013W        W47324   6.290  37.395   5.119
86014W        W47325  24.703  21.131   4.278
86015W        W47326  17.160  39.466   2.879
86016W        W47327  34.928  22.602  11.496
86017W        W47328  33.433  19.244   3.865
86018W        W47329  17.728  20.756  14.379
86019W        W47330  11.846  25.585  14.899
86020W        W47331  23.496  20.090   0.812
86021W        W47332   5.774  28.569  14.482
86022W        W47333  10.758  11.307  12.832
86023W        W47334  38.557  38.017   2.359
86024W        W47335   7.409  13.171  10.941
86025W        W47336  17.680   3.255  14.817
86026W        W47337   3.439  18.246   2.299
86027W        W47338  11.700   8.346  11.425
86028W        W47339  19.227  21.095  10.908
86029W        W47340  24.554  13.730  12.993
86030W        W47341  15.262  33.922   2.346
86031W        W47342   5.897  27.195   1.420
86032W        W47343   4.831   9.213  12.536
86033W        W47344  23.041  17.172   1.285
86034W        W47345   1.434  31.434   3.730
86035W        W47346  32.579  42.032  10.488
86036W        W47347  22.140  21.137  12.936
86037W        W47348  15.272   7.341  11.551
86038W        W47349  17.741  22.219  13.438
86039W        W47350  21.580  31.975  13.861
86040W        W47351  18.102   0.891   0.356
86041W        W47352  12.171  20.181  10.491
86042W        W47353  16.149  32.426   4.768
86043W        W47354  42.797   4.703   2.357
86044W        W47355  31.922  32.632   2.236
86045W        W47356  16.230  21.535   0.298
86046W        W47357   6.852   0.789   4.291
86047W        W47358  42.350  31.081  11.496
86048W        W47359  23.006  15.198  12.475
86049W        W47360  39.042  25.563   0.311
86050W        W47361  17.717  43.897   1.341
86051W        W47362   8.862  23.622   4.194
86052W        W47363  31.974   6.678   9.992
86053W        W47364  19.084   9.723  10.561
86054W        W47365  43.282   0.832   3.677
86055W        W47366  23.103   0.918  13.920
86056W        W47367   7.255  24.523  14.847
86057W        W47368  42.983  12.343  10.989
86058W        W47369  23.217  25.535  14.495
86059W        W47370  35.090  32.915  14.399
86060W        W47371   6.216  34.061  11.540
86061W        W47372  29.139  12.296   1.341
86062W        W47373   3.885  40.471   1.297
86063W        W47374   9.759  26.123  10.580
86064W        W47375  25.546  42.875   3.853
86065W        W47376  11.671  42.890   3.363
86066W        W47377  21.659  34.369  13.830
86067W        W47378  19.606  17.204   4.261
86068W        W47379   8.868   8.329  14.423
86069W        W47380   2.827  33.566  12.361
86070W        W47381   1.262  32.105  12.402
86071W        W47382  27.064  28.587  13.534
86072W        W47383  39.389  43.303  14.385
86073W        W47384  29.930  38.898  10.981
86074W        W47385   4.358   3.438   4.638
86075W        W47386  15.278  12.300   0.788
86076W        W47387  26.670  34.016  11.551
86077W        W47388  12.326  26.203   4.187
86078W        W47389  26.136  13.784  10.645
86079W        W47390  44.364   8.667  10.595
86080W        W47391  15.083  37.078   3.661
86081W        W47392  22.549  42.386   0.333
86082W        W47393  27.142  44.902  13.950
86083W        W47394   9.211  18.753  14.329
86084W        W47395  20.760  23.664   0.309
86085W        W47396  39.992  25.675  10.483
86086W        W47397  24.144  19.778  14.017
86087W        W47398   0.456  44.755   3.355
86088W        W47399  31.119  18.754   4.304
86089W        W47400  22.030  40.531  11.456
86090W        W47401  33.456   2.252  10.544
86091W        W47402  38.571   7.310  14.479
86092W        W47403   7.357  10.707   2.335
86093W        W47404  31.040  18.788  13.376
86094W        W47405  15.084  43.891   3.633
86095W        W47406  27.012  16.261   0.901
86096W        W47407  19.180  33.533  11.091
86097W        W47408  20.748  28.070  11.505
86098W        W47409  18.648  21.151   5.221
86099W        W47410   8.690  25.001   3.706
86100W        W47411   8.311   4.794   2.304
86101W        W47412   9.706  15.304   1.704
86102W        W47413  10.319   4.411   3.369
86103W        W47414  24.214  42.832   2.333
86104W        W47415  18.211   4.357   1.700
86105W        W47416  39.883   0.467  13.365
86106W        W47417  25.620  33.100   0.783
86107W        W47418  40.988   8.751  13.942
86108W        W47419  32.066  42.366  14.892
86109W        W47420   9.285  17.662   1.827
86110W        W47421   7.220   8.295   2.865
86111W        W47422  42.478  32.497   3.340
86112W        W47423   1.846  28.673  10.438
86113W        W47424  32.914  44.794  10.634
86114W        W47425  44.334  37.507   4.333
86115W        W47426  25.509   4.745  10.143
86116W        W47427  44.410  33.622  13.013
86117W        W47428  14.250  27.463  12.091
86118W        W47429  20.222  13.224  12.470
86119W        W47430  22.133  26.978   3.704
86120W        W47431   7.396  13.754   1.776
86121W        W47432  41.482  25.150   2.285
86122W        W47433   2.315  44.812   3.263
86123W        W47434  37.984  23.570   1.897
86124W        W47435  25.664  36.870  14.799
86125W        W47436   6.411   7.324   4.204
86126W        W47437  22.137  33.992   4.237
86127W        W47438   7.676  16.576  14.902
86128W        W47439  26.129  33.938  14.329
86129W        W47440  15.152  34.587   2.276
86130W        W47441  22.252  32.548  12.417
86131W        W47442   6.426   5.791  10.642
86132W        W47443  16.743   0.372  11.098
86133W        W47444  21.575  32.452  11.935
86134W        W47445  29.635  42.451   4.213
86135W        W47446  44.280  13.149   1.315
86136W        W47447  43.511  31.571   0.245
86137W        W47448   6.779   8.816   0.440
86138W        W47449  18.127  29.968  13.007
86139W        W47450  10.873   2.776  14.429
86140W        W47451  15.645   9.856  11.484
86141W        W47452  25.988  43.964  13.499
86142W        W47453  24.703  23.722   1.400
86143W        W47454  32.418  10.845  11.864
86144W        W47455  13.219  39.976   1.821
86145W        W47456  12.793  26.971  13.859
86146W        W47457  36.462  19.170   2.276
86147W        W47458  32.946   9.802   3.269
86148W        W47459   1.343  30.499  10.946
86149W        W47460  10.795  10.777   3.750
86150W        W47461  23.000   9.701  10.517
86151W        W47462  43.354   0.391   3.221
86152W        W47463  17.669  19.266  12.079
86153W        W47464  37.048  29.974  12.943
86154W        W47465  38.353  27.040   0.311
86155W        W47466  24.560  16.796   3.149
86156W        W47467  18.213  42.501   0.467
86157W        W47468   7.208  28.533  14.459
86158W        W47469  44.337  37.516  12.565
86159W        W47470  34.064  33.997  13.828
86160W        W47471  22.691  11.830  14.302
86161W        W47472  18.090   9.678   1.232
86162W        W47473  44.856   1.785   4.194
86163W        W47474   1.467   0.425   0.865
86164W        W47475  28.933  12.213  14.995
86165W        W47476   4.410  42.834   1.322
86166W        W47477  13.804   5.274   1.395
86167W        W47478  20.057   4.423  13.930
86168W        W47479  10.291  33.018   1.401
86169W        W47480  27.657  16.285   2.662
86170W        W47481  22.012  42.910  12.882
86171W        W47482  29.168  29.962   3.254
86172W        W47483   0.862  21.676  11.395
86173W        W47484  33.580  12.149   4.678
86174W        W47485  17.643  24.067  12.958
86175W        W47486   5.210  17.205  12.020
86176W        W47487  17.729   4.441   5.633
86177W        W47488  39.980  14.651   0.950
86178W        W47489  24.626  35.997  12.972
86179W        W47490  40.455  44.904   4.791
86180W        W47491  37.899  27.169   0.296
86181W        W47492  25.510  43.477  13.358
86182W        W47493  34.045  27.993  12.351
86183W        W47494  16.573  37.414   2.392
86184W        W47495  19.116   0.965   4.354
86185W        W47496   3.351   9.208   4.599
86186W        W47497  29.527  14.236   4.696
86187W        W47498  33.544  29.974   1.751
86188W        W47499  16.596  44.868   4.122
86189W        W47500   3.339  35.587   4.808
86190W        W47501  41.917   7.754   1.440
86191W        W47502  11.642  29.439   2.852
86192W        W47503  18.168  26.675  10.567
86193W        W47504   4.817  25.183   1.260
86194W        W47505  38.997  20.535  13.429
86195W        W47506  28.142  30.926   3.175
86196W        W47507  21.145  14.644  13.334
86197W        W47508  14.698  25.128   3.772
86198W        W47509  43.281  41.985   0.412
86199W        W47510  21.673  43.505   1.798
86200W        W47511  18.284   3.248   3.300
86201W        W47512   6.356  44.932  13.545
86202W        W47513  11.158  28.632  13.792
86203W        W47514   1.296   1.882  14.465
86204W        W47515   2.947  42.841  10.975
86205W        W47516  19.173   4.236  11.116
86206W        W47517  22.675  14.591   2.368
86207W        W47518  24.016  23.601  12.861
86208W        W47519  23.141  23.681  11.376
86209W        W47520  27.536   9.785   0.271
86210W        W47521   6.191  25.575   4.149
86211W        W47522  44.957  30.130  11.529
86212W        W47523  18.227  28.138  12.053
86213W        W47524  41.459  32.019   2.350
86214W        W47525   8.809  40.340  13.428
86215W        W47526  23.695  36.548   0.254
86216W        W47527  35.074  21.152  10.408
86217W        W47528  38.473   9.385   0.885
86218W        W47529  20.566  33.960  13.822
86219W        W47530  36.558  30.654  10.498
86220W        W47531  35.485  26.494   1.737
86221W        W47532  30.154  29.013  10.425
86222W        W47533  44.900  44.876  13.449
86223W        W47534  27.604   5.745  13.861
86224W        W47535  44.464  43.958   5.089
86225W        W47536  23.218   6.343  14.890
86226W        W47537   0.355   1.467  11.560
86227W        W47538   4.426   7.304  12.480
86228W        W47539   7.829  16.163  14.991
86229W        W47540  12.309  35.576  11.375
86230W        W47541   7.868   2.801   1.859
86231W        W47542  37.454  40.473  10.567
86232W        W47543   6.408  31.089  12.509
86233W        W47544  35.460  44.955   1.895
86234W        W47545  44.894  41.868   4.310
86235W        W47546  14.592  32.490  14.784
86236W        W47547   2.318  22.548   3.211
86237W        W47548  43.983   3.459   2.250
86238W        W47549  22.100  38.908   2.328
86239W        W47550  31.985  43.477   0.326
86240W        W47551  30.986  12.813  12.474
86241W        W47552  36.044  20.070   2.887
86242W        W47553  16.136   0.443   0.857
86243W        W47554  24.562  26.122   1.423
86244W        W47555  37.069  39.998   0.344
86245W        W47556  30.521   1.737   1.270
86246W        W47557  24.551  38.370  14.835
86247W        W47558  38.848  12.745   2.697
86248W        W47559  38.836  21.709  13.479
86249W        W47560  33.478  44.314  11.455
86250W        W47561  22.221  43.779   0.456
86251W        W47562  23.082  32.123   2.339
86252W        W47563  10.716  25.037   1.735
86253W        W47564   4.771  17.584  11.511
86254W        W47565   9.215  23.043   4.274
86255W        W47566   4.748  21.213  13.541
86256W        W47567  19.672  29.087   4.754
86257W        W47568  43.890  28.570  12.517
86258W        W47569  17.723   0.399  14.461
86259W        W47570  14.752  41.355  11.404
86260W        W47571  25.199  14.783  11.515
86261W        W47572  38.465  43.288   4.260
86262W        W47573   7.895  28.625   4.670
86263W        W47574  13.613  16.081   3.304
86264W        W47575   1.480  21.239   3.811
86265W        W47576  42.940  27.982   1.429
86266W        W47577   0.943   2.390  14.413
86267W        W47578  12.840   3.345   0.447
86268W        W47579  30.050  36.057   4.153
86269W        W47580   6.697  25.031   1.448
86270W        W47581  31.448  16.613  11.028
86271W        W47582   2.260  29.634   3.707
86272W        W47583  33.992   9.669  10.980
86273W        W47584  43.888  16.688  14.432
86274W        W47585  29.662  12.140   0.861
86275W        W47586  44.004  19.185  14.512
86276W        W47587   1.392  28.977  14.861
86277W        W47588  35.492  29.587   9.945
86278W        W47589   4.430  39.442  14.936
86279W        W47590   1.850  18.686  11.598
86280W        W47591  26.686  17.674  12.058
86281W        W47592  15.621  19.681  10.404
86282W        W47593  16.805  17.690  14.442
86283W        W47594  21.063  33.565   0.831
86284W        W47595  34.396  42.834  12.397
86285W        W47596  25.609   7.877   9.951
86286W        W47597  16.587  43.824  11.577
86287W        W47598  38.878  44.818   0.260
86288W        W47599  19.655  12.288   4.654
86289W        W47600   6.357  29.592  14.010
86290W        W47601  31.110  32.622  14.508
86291W        W47602  30.559   6.851  13.036
86292W        W47603  35.410  31.438  13.446
86293W        W47604  31.924  20.224   0.249
86294W        W47605  25.121  26.145   0.913
86295W        W47606   7.330  24.532   2.341
86296W        W47607  40.397  39.991  11.560
86297W        W47608  19.537  19.136  11.126
86298W        W47609  17.769  17.268  14.790
86299W        W47610  42.483  18.661   1.767
86300W        W47611   7.791  33.966   2.266
86301W        W47612  14.143  39.900   0.373
86302W        W47613   7.746   7.892   0.483
86303W        W47614  16.089  11.343  12.352
86304W        W47615   9.792  14.151   4.337
86305W        W47616  25.525  17.668  13.456
86306W        W47617  24.685   1.764   3.706
86307W        W47618  14.289   2.777   3.291
86308W        W47619   3.868  37.424  11.519
86309W        W47620  20.259  10.140  14.822
86310W        W47621  33.416   6.312   9.960
86311W        W47622  38.874  34.537   0.312
86312W        W47623  27.110   3.456   1.923
86313W        W47624   6.247  21.515  13.836
86314W        W47625   1.474  32.549  11.379
86315W        W47626  42.004   7.810   2.860
86316W        W47627  27.655  20.674   2.282
86317W        W47628  15.818   5.781  11.093
86318W        W47629   5.355  13.288   4.826
86319W        W47630  11.777   8.820   0.318
86320W        W47631  26.592   1.434   3.798
86321W        W47632   2.899   8.282  11.480
86322W        W47633   7.745  16.625  11.955
86323W        W47634  42.908  32.033  14.955
86324W        W47635  29.511  16.752  14.309
86325W        W47636  27.144  28.034   2.319
86326W        W47637  21.518  13.773  12.359
86327W        W47638  16.166   1.972  13.457
86328W        W47639  24.574  37.582   5.172
86329W        W47640  37.362   5.729  12.519
86330W        W47641  33.607  13.153  13.448
86331W        W47642   9.799  25.082  13.018
86332W        W47643   1.894  26.110   0.283
86333W        W47644  13.179  14.280  12.864
86334W        W47645  22.107   4.858  12.033
86335W        W47646  35.585  41.875   2.213
86336W        W47647  37.444  26.616  12.508
86337W        W47648  29.173  38.493   0.907
86338W        W47649  39.429  20.160  10.587
86339W        W47650  21.040   9.346  12.927
86340W        W47651  42.325   3.228   4.244
86341W        W47652   7.231  16.155  11.516
86342W        W47653  15.602  32.136  14.499
86343W        W47654  12.710   6.421  10.050
86344W        W47655  24.996  39.436  14.021
86345W        W47656  44.984  20.176   3.271
86346W        W47657  15.634  12.175   4.277
86347W        W47658  12.615   1.922   4.737
86348W        W47659  38.396  36.035   4.162
86349W        W47660  20.612  12.833  14.863
86350W        W47661  24.640  35.477   4.731
86351W        W47662  40.402  11.224   2.807
86352W        W47663  11.259  15.650  11.924
86353W        W47664  26.575  15.301  10.554
86354W        W47665  28.088  42.475  14.837
86355W        W47666  18.583   4.703  11.464
86356W        W47667   3.771  27.086  13.928
86357W        W47668  10.859  39.413   3.164
86358W        W47669  41.830  36.047  13.449
86359W        W47670  39.951  40.495   1.254
86360W        W47671   7.399  37.409   2.822
86361W        W47672   8.178   0.795   1.904
86362W        W47673  39.944  20.223   2.416
86363W        W47674  44.299  25.107   2.267
86364W        W47675  26.058   5.324   4.224
86365W        W47676  39.508  40.901  14.914
86366W        W47677  43.452  17.576  14.372
86367W        W47678  28.623  26.172  10.414
86368W        W47679  43.332  42.975   3.173
86369W        W47680  29.923  28.444   2.799
86370W        W47681  32.977   5.314  14.509
86371W        W47682  22.732  14.793  11.021
86372W        W47683  29.488  32.127   5.210
86373W        W47684  15.748  26.964  12.577
86374W        W47685  43.483  41.824   0.944
86375W        W47686  26.070   6.197  13.477
86376W        W47687  17.291  30.619  11.968
86377W        W47688  41.941   2.299  13.002
86378W        W47689  26.587  40.959   0.877
86379W        W47690  15.797  40.846  11.566
86380W        W47691   6.710  31.902   2.880
86381W        W47692  43.829  28.033  13.020
86382W        W47693  42.368  30.417   2.759
86383W        W47694   2.329  39.340   1.382
86384W        W47695  10.212  36.368   4.754
86385W        W47696  29.587   5.808   2.737
86386W        W47697  37.380   2.870  10.612
86387W        W47698  33.906  44.328  11.128
86388W        W47699   0.285  13.599   2.714
86389W        W47700  32.000  17.708   1.896
86390W        W47701  39.540  44.385  14.854
86391W        W47702  14.808  21.551  13.869
86392W        W47703  13.783  29.005  13.477
86393W        W47704  43.994   6.690   1.438
86394W        W47705  12.236  31.604   2.403
86395W        W47706  33.918   7.762  12.498
86396W        W47707   8.355  36.965   2.334
86397W        W47708  19.778  43.808   1.896
86398W        W47709  42.989  28.060   1.749
86399W        W47710  22.019   1.805  14.994
86400W        W47711  11.148   7.408   1.304
86401W        W47712  11.128   0.494  10.477
86402W        W47713  36.557  18.062   2.832
86403W        W47714  15.578  13.211   2.818
86404W        W47715  44.353   5.712  10.600
86405W        W47716  26.116  22.179  14.370
86406W        W47717  19.250  33.615   0.283
86407W        W47718  37.540  20.114   4.263
86408W        W47719  36.494  42.353  11.984
86409W        W47720  29.052  21.698  14.276
86410W        W47721  34.614  23.111   4.699
86411W        W47722  22.057  22.627   4.149
86412W        W47723  35.931  13.202   5.226
86413W        W47724  17.263  21.726   9.997
86414W        W47725  36.016  19.145  13.812
86415W        W47726  13.341  19.085  11.438
86416W        W47727  43.515  44.333   4.682
86417W        W47728   7.396  32.411  11.904
86418W        W47729  21.164   3.434   2.874
86419W        W47730  38.007  29.427  11.456
86420W        W47731  31.140  12.782  13.520
86421W        W47732  35.391  22.742   1.877
86422W        W47733  44.930   8.850   3.725
86423W        W47734   1.921   0.829  11.438
86424W        W47735  12.316   6.210  10.462
86425W        W47736  19.241  23.612   3.643
86426W        W47737  40.407  34.500   0.772
86427W        W47738  32.585  39.988  12.925
86428W        W47739  26.483   6.377  11.053
86429W        W47740   3.812   4.287   1.436
86430W        W47741   6.835  43.955   4.791
86431W        W47742  41.863   4.231  14.760
86432W        W47743  43.491  13.843  14.814
86433W        W47744  19.767   4.362   2.875
86434W        W47745  23.005  13.276   0.473
86435W        W47746   8.197  35.588   1.225
86436W        W47747   0.251  21.680  12.382
86437W        W47748  38.048  12.245  14.025
86438W        W47749  27.989   1.280  13.351
86439W        W47750  27.523  37.398   1.781
86440W        W47751  26.560  21.112  11.041
86441W        W47752  16.190  36.035  11.894
86442W        W47753  27.557  42.504   3.309
86443W        W47754  13.793  34.868   3.342
86444W        W47755  44.923   8.297  11.907
86445W        W47756   1.456  16.712  10.554
86446W        W47757  34.103  19.239   2.815
86447W        W47758  34.455  40.515  13.514
86448W        W47759  35.106  26.135  10.576
86449W        W47760  11.707  38.388   2.218
86450W        W47761  41.294  11.334  13.492
86451W        W47762   3.839  25.007  14.449
86452W        W47763  29.455  29.082   3.177
86453W        W47764  22.229  29.469  11.084
86454W        W47765  26.082  19.173   1.790
86455W        W47766   8.837  33.970   3.760
86456W        W47767  19.577  12.269  11.526
86457W        W47768  37.508  26.205   2.677
86458W        W47769   4.733  44.924  13.821
86459W        W47770  12.836  44.438   2.322
86460W        W47771  30.562  12.848  10.489
86461W        W47772  41.891  33.571   0.399
86462W        W47773  23.680  10.823  13.939
86463W        W47774  33.973   5.343  14.428
86464W        W47775  37.001  23.629  11.543
86465W        W47776   6.381  27.680  12.038
86466W        W47777   1.326  31.974  13.934
86467W        W47778  35.571  25.568   1.817
86468W        W47779  11.677  42.817  10.453
86469W        W47780  10.295  38.489  11.870
86470W        W47781  14.689   0.850  14.359
86471W        W47782  37.551  21.614  14.015
86472W        W47783  28.054  22.581   5.277
86473W        W47784  44.839   2.736  12.408
86474W        W47785  15.216  13.332  12.912
86475W        W47786   9.257  13.129  11.898
86476W        W47787  22.669  25.988  14.796
86477W        W47788  44.426  17.276   1.929
86478W        W47789   9.335  39.960  13.809
86479W        W47790  40.040   5.897  11.022
86480W        W47791  25.588  32.031   1.422
86481W        W47792  26.487  15.307  12.558
86482W        W47793  22.207  11.270  11.043
86483W        W47794  15.281  29.517  14.835
86484W        W47795  41.795  17.787   1.869
86485W        W47796  25.587  30.968   1.848
86486W        W47797  23.596  35.097  11.082
86487W        W47798  34.507  10.229   4.223
86488W        W47799   8.679   3.241   3.351
86489W        W47800   7.269  11.727   3.756
86490W        W47801  19.039  26.199  10.910
86491W        W47802  27.146  34.510  12.012
86492W        W47803   9.806   4.856  13.461
86493W        W47804  38.338   4.388  14.881
86494W        W47805  38.512   7.695  12.497
86495W        W47806  41.312  10.188  11.107
86496W        W47807   8.675  12.798   0.442
86497W        W47808  18.060  13.650  13.968
86498W        W47809  21.534   9.648   3.347
86499W        W47810  17.146  25.656   0.301
86500W        W47811  25.647  16.796   0.276
86501W        W47812  11.789  37.554  13.378
86502W        W47813  12.737  38.548   4.693
86503W        W47814   3.407  27.188  14.465
86504W        W47815  25.542  21.709  11.068
86505W        W47816  27.623  25.694   2.854
86506W        W47817  18.566   2.842  13.891
86507W        W47818  27.665   1.831   2.838
86508W        W47819  20.045   9.387  11.415
86509W        W47820  26.648  33.585  14.389
86510W        W47821  12.716  37.010   4.144
86511W        W47822  12.628  39.812   2.727
86512W        W47823  14.334  20.589  13.802
86513W        W47824  41.478  25.134   2.812
86514W        W47825  32.963   0.402   3.167
86515W        W47826  19.612   6.681   1.442
86516W        W47827   8.329  31.092  12.945
86517W        W47828  33.611  25.985   1.213
86518W        W47829  14.231  18.619  10.907
86519W        W47830  33.997  20.173   1.935
86520W        W47831  27.059  35.910  10.465
86521W        W47832  16.644  11.275  12.502
86522W        W47833  44.836  44.403  13.851
86523W        W47834  39.490   8.299   3.191
86524W        W47835  44.958  30.460   4.735
86525W        W47836  14.779  19.192   0.305
86526W        W47837  27.480  32.607  14.432
86527W        W47838   9.830  26.137  12.896
86528W        W47839  10.372   3.290  12.348
86529W        W47840   1.785   1.478   4.801
86530W        W47841  16.298  24.199   0.285
86531W        W47842  16.078  41.339   3.326
86532W        W47843   6.739  36.377   0.840
86533W        W47844  32.603  33.592   1.848
86534W        W47845  35.506  25.574   2.733
86535W        W47846  28.076  33.893   0.726
86536W        W47847  27.951   5.923   2.812
86537W        W47848  34.496   3.384   0.370
86538W        W47849   9.713  10.270   0.461
86539W        W47850  17.698  33.457   1.889
86540W        W47851   9.773  22.511   2.189
86541W        W47852  36.910  10.834   4.312
86542W        W47853  29.933   3.806  11.380
86543W        W47854  43.392  32.544   2.265
86544W        W47855  38.386  41.368  12.940
86545W        W47856  20.619  21.106   1.861
86546W        W47857  39.446   2.394   4.231
86547W        W47858  13.687  31.145   4.261
86548W        W47859   3.741   3.937   2.852
86549W        W47860  10.764  34.595   2.225
86550W        W47861  14.741  40.826  10.575
86551W        W47862  29.642  44.824  13.496
86552W        W47863  10.228  41.361  13.483
86553W        W47864  12.178  22.174   1.835
86554W        W47865  38.825  44.439  14.344
86555W        W47866  24.506   9.830  12.924
86556W        W47867  18.742  22.666  11.590
86557W        W47868  28.542  13.319   1.826
86558W        W47869  29.142  34.059   4.634
86559W        W47870   5.728   9.704  14.511
86560W        W47871  42.297  19.241  11.124
86561W        W47872  41.527   7.405   2.359
86562W        W47873   1.270  18.577   2.789
86563W        W47874   0.460  21.521  11.493
86564W        W47875  42.374  23.217  14.454
86565W        W47876  42.510  11.780   0.921
86566W        W47877   2.367  30.929  14.761
86567W        W47878  12.847   2.823  11.398
86568W        W47879   2.801   1.274   0.778
86569W        W47880   4.377   2.916   1.923
86570W        W47881  14.154  22.631   3.752
86571W        W47882   3.290  26.689   1.830
86572W        W47883  18.680  32.427  10.494
86573W        W47884  30.446  20.765  12.477
86574W        W47885  14.719  19.542  14.408
86575W        W47886  22.637  20.191  13.024
86576W        W47887  29.661  11.761   0.874
86577W        W47888  38.072  37.055  13.852
86578W        W47889  17.095  31.969   1.260
86579W        W47890   0.891   0.348   1.412
86580W        W47891  25.628   6.353  13.317
86581W        W47892  13.321  30.052   0.416
86582W        W47893  23.574  32.001  11.070
86583W        W47894  33.588  12.813   1.748
86584W        W47895  18.194   0.465  10.508
86585W        W47896  41.975   3.296  10.486
86586W        W47897  10.710  20.133  11.890
86587W        W47898  35.075  18.786  13.401
86588W        W47899   8.832  35.427  13.868
86589W        W47900  39.052  36.055  14.020
86590W        W47901  23.009  21.199   3.149
86591W        W47902   1.277   9.881   3.178
86592W        W47903  44.806  18.627  11.075
86593W        W47904  10.674   6.410  11.983
86594W        W47905  17.175   9.271  14.368
86595W        W47906  14.317  19.717   2.414
86596W        W47907   7.739  21.679  11.421
86597W        W47908   9.357  21.566   4.622
86598W        W47909  14.713  26.475  10.590
86599W        W47910   0.311  31.106  13.548
86600W        W47911  11.729   5.373  12.358
86601W        W47912  29.613  13.762  11.506
86602W        W47913  31.073  29.553  13.855
86603W        W47914  27.134  28.575   3.761
86604W        W47915  35.073  30.644  11.538
86605W        W47916  35.033  32.520   2.203
86606W        W47917  41.483  25.201  10.910
86607W        W47918  33.110  41.494  14.766
86608W        W47919   4.402  37.425   2.248
86609W        W47920   3.728  37.885   1.233
86610W        W47921  33.891   8.711  11.581
86611W        W47922  42.486  16.744  13.345
86612W        W47923   8.171  34.410  11.118
86613W        W47924  42.916  20.188   3.337
86614W        W47925   9.263  19.589   0.346
86615W        W47926  18.611  14.325  13.357
86616W        W47927  33.395  26.160  13.853
86617W        W47928  29.540   2.870  10.476
86618W        W47929  38.446   5.251   1.286
86619W        W47930  27.049  42.873  12.395
86620W        W47931  26.008  40.884  12.868
86621W        W47932  37.981  11.212   2.739
86622W        W47933  35.916   5.250  10.545
86623W        W47934  17.083   1.249  12.384
86624W        W47935  28.014   4.299   9.449
86625W        W47936  43.473  12.321   2.805
86626W        W47937  43.461   9.289  14.966
86627W        W47938  23.154  41.881  14.927
86628W        W47939  31.040  31.491  11.416
86629W        W47940  35.416  38.348   1.253
86630W        W47941  36.867  19.550   0.394
86631W        W47942  36.507   8.657   9.970
86632W        W47943  42.327  25.490  10.917
86633W        W47944  29.953   2.310   4.354
86634W        W47945   5.380  32.023  13.394
86635W        W47946  11.287  30.949  14.780
86636W        W47947  38.873   2.750   1.758
86637W        W47948   6.835   8.854  13.427
86638W        W47949  34.049  32.033  11.473
86639W        W47950  10.244  10.796   3.676
86640W        W47951  32.961  44.328  14.767
86641W        W47952  11.815  33.421  12.830
86642W        W47953  38.033   7.831  14.866
86643W        W47954  27.194  32.001  11.541
86644W        W47955  18.737   7.705   3.710
86645W        W47956  32.043  16.309  10.584
86646W        W47957   5.292   6.338  11.048
86647W        W47958  42.327  19.682  13.016
86648W        W47959  37.992  10.639  12.561
86649W        W47960   0.310   3.717  10.922
86650W        W47961   5.356  30.459  10.984
86651W        W47962  18.663  26.175  12.509
86652W        W47963  13.138   8.282  13.481
86653W        W47964  11.759  12.612  10.610
86654W        W47965  12.837  35.458   1.711
86655W        W47966  29.968  26.145  12.360
86656W        W47967  23.009   8.256   1.882
86657W        W47968  37.868  38.444  13.340
86658W        W47969   4.420  12.814  11.103
86659W        W47970   4.759   4.743  14.382
86660W        W47971  12.330  35.371   4.784
86661W        W47972  44.936  17.710  11.916
86662W        W47973   2.407  26.133  11.485
86663W        W47974  18.775  31.993  10.909
86664W        W47975  19.667  16.288   0.923
86665W        W47976  30.534  27.623   3.354
86666W        W47977  15.174   4.730  10.924
86667W        W47978  22.052   6.799   0.354
86668W        W47979  31.580   7.676  12.096
86669W        W47980   4.273  24.166   1.381
86670W        W47981  17.262   4.211  11.965
86671W        W47982  36.421   0.340  12.519
86672W        W47983  40.912  42.525   1.923
86673W        W47984  35.508  26.617  13.856
86674W        W47985  22.121   4.915  13.470
86675W        W47986  20.692  16.704  14.945
86676W        W47987  42.975  43.416  13.987
86677W        W47988  39.046  43.373   3.367
86678W        W47989  40.015   9.889   1.430
86679W        W47990   7.867  27.961  12.391
86680W        W47991  26.094  28.035   3.148
86681W        W47992  42.316   9.816  12.444
86682W        W47993  40.956   8.394  11.079
86683W        W47994   8.789  24.189   2.258
86684W        W47995   2.817  25.188  10.564
86685W        W47996  41.496  19.046  10.534
86686W        W47997  30.449  13.807   1.296
86687W        W47998   9.818  21.633  13.941
86688W        W47999  17.687  21.628   0.273
86689W        W48000   2.966  11.829   0.951
86690W        W48001   9.188  11.663   4.773
86691W        W48002  40.918  42.021  12.545
86692W        W48003  38.327  40.441   1.320
86693W        W48004  19.624  31.047   4.682
86694W        W48005  41.023  12.317  12.442
86695W        W48006  10.375  13.256  13.060
86696W        W48007  24.118  24.650  14.902
86697W        W48008   0.460   1.769   2.374
86698W        W48009  15.821   4.380   2.661
86699W        W48010  28.120  43.432   1.445
86700W        W48011  13.161  27.643   1.346
86701W        W48012  16.701  33.031  13.439
86702W        W48013  39.063   2.767  10.082
86703W        W48014  30.618   2.788   1.917
86704W        W48015   8.347  31.452  13.506
86705W        W48016  35.494   2.410  12.555
86706W        W48017  36.452  38.466  12.853
86707W        W48018   8.732  15.736  14.969
86708W        W48019   4.825  29.965   0.758
86709W        W48020  12.295  31.106  14.850
86710W        W48021  28.965  25.211   2.324
86711W        W48022  16.578  16.670   1.331
86712W        W48023  10.332  41.928   3.155
86713W        W48024  16.211  16.304   4.719
86714W        W48025  29.616  22.040   3.759
86715W        W48026  22.081  10.807   2.245
86716W        W48027  42.483  40.930  12.358
86717W        W48028  35.930  21.693   3.742
86718W        W48029   2.772  37.077   3.214
86719W        W48030  27.462  31.621   2.725
86720W        W48031  43.289  33.449   3.189
86721W        W48032   3.932  16.292  11.946
86722W        W48033  24.697  25.964   2.839
86723W        W48034  11.670  19.100   3.151
86724W        W48035  27.187  29.065  11.508
86725W        W48036  19.247  33.126   0.803
86726W        W48037  18.063  12.629   1.696
86727W        W48038  21.227   3.767   3.851
86728W        W48039  40.344  41.440   3.350
86729W        W48040  25.131  37.010  14.456
86730W        W48041  28.976  13.688   2.214
86731W        W48042   8.301  36.896  10.967
86732W        W48043  29.923   7.853   2.231
86733W        W48044  13.140  30.512  10.536
86734W        W48045   3.359  27.526   0.333
86735W        W48046   1.324  39.911   4.156
86736W        W48047  16.251  36.592  11.571
86737W        W48048  26.473  33.596   5.241
86738W        W48049  29.434  37.336   2.669
86739W        W48050  44.972  38.982  13.820
86740W        W48051  18.167  18.664   2.322
86741W        W48052   9.675  22.711   3.379
86742W        W48053   6.278   3.439  11.111
86743W        W48054  36.943  30.607  14.851
86744W        W48055  44.336  20.724   2.278
86745W        W48056  17.743  12.200   3.258
86746W        W48057   1.294  40.847   0.737
86747W        W48058  36.493  28.968   9.935
86748W        W48059  38.848  27.140   3.178
86749W        W48060   1.323  30.135  14.372
86750W        W48061  40.528  33.380  10.592
86751W        W48062   2.967  12.221  11.471
86752W        W48063  30.145  21.181  10.519
86753W        W48064   1.965  16.251   4.173
86754W        W48065  11.233  39.970  12.834
86755W        W48066  27.067   9.768  12.839
86756W        W48067  17.083  13.311  11.914
86757W        W48068  43.923  32.526   2.673
86758W        W48069  10.217   5.786  10.102
86759W        W48070   2.745  35.365   2.233
86760W        W48071  20.064  28.958   1.379
86761W        W48072  15.655  15.215   2.319
86762W        W48073  17.628  33.906   0.457
86763W        W48074  29.945  25.688   1.421
86764W        W48075  37.867   3.847   4.290
86765W        W48076  21.698  15.266  14.510
86766W        W48077  23.034   5.732  14.007
86767W        W48078   4.319  24.547  14.328
86768W        W48079  27.605  13.253  12.922
86769W        W48080  31.427  13.111  12.915
86770W        W48081  31.471  28.488   1.735
86771W        W48082  25.673  14.215  12.877
86772W        W48083  21.678  26.129   0.734
86773W        W48084  38.029  30.600   3.656
86774W        W48085   0.381  16.082   1.236
86775W        W48086  36.481  33.933  14.284
86776W        W48087  19.686  40.437  10.426
86777W        W48088  41.811  27.121   0.424
86778W        W48089  19.086   1.479   0.951
86779W        W48090  28.983   6.760  14.369
86780W        W48091  31.091   3.806  10.567
86781W        W48092   6.398  20.251   2.302
86782W        W48093  39.512  20.580  12.851
86783W        W48094  44.441  39.431   1.309
86784W        W48095  38.355  43.930  11.508
86785W        W48096  42.804  16.590   2.391
86786W        W48097  20.161  31.010  11.068
86787W        W48098  40.873   0.365  12.412
86788W        W48099  12.824   4.757   1.225
86789W        W48100  20.193  20.650  13.315
86790W        W48101  40.909  44.293   1.891
86791W        W48102  41.906   5.415   0.353
86792W        W48103   1.317  31.617   4.628
86793W        W48104  25.713   1.801  14.470
86794W        W48105  29.066   6.300  12.398
86795W        W48106   2.376  30.063  12.382
86796W        W48107  30.090  42.944  10.064
86797W        W48108  10.846  37.456   3.317
86798W        W48109  11.642   1.921   2.315
86799W        W48110   2.248  33.032   0.955
86800W        W48111  17.112  44.847   3.279
86801W        W48112  22.519  29.051   2.744
86802W        W48113   0.915  42.355   2.296
86803W        W48114   7.178   8.895   1.779
86804W        W48115  28.580  30.075  11.862
86805W        W48116   7.713  33.069  11.093
86806W        W48117   2.454   5.421   0.441
86807W        W48118  44.376  40.437  13.913
86808W        W48119   5.407  14.687   3.656
86809W        W48120  34.499  37.970   0.863
86810W        W48121   8.369  27.177   1.393
86811W        W48122  13.190  21.100  13.808
86812W        W48123   5.289  30.130   2.893
86813W        W48124  39.356  42.501  12.858
86814W        W48125   8.745  16.645   1.407
86815W        W48126   2.379  27.196   4.272
86816W        W48127  11.856  22.168   0.276
86817W        W48128  40.514  17.679   4.735
86818W        W48129  21.140   4.700  13.406
86819W        W48130  44.341  37.889  11.411
86820W        W48131   2.294  25.179  10.580
86821W        W48132  27.992  28.012   3.760
86822W        W48133  21.677   0.808  13.801
86823W        W48134  24.602  13.678  14.765
86824W        W48135  21.561  13.322  11.089
86825W        W48136  36.842  11.327  11.441
86826W        W48137   4.896  39.020   0.330
86827W        W48138  17.695  29.473   0.749
86828W        W48139  30.024  29.134   4.285
86829W        W48140   0.351   5.416   3.225
86830W        W48141  13.263  17.095  11.048
86831W        W48142   8.252  32.594  14.489
86832W        W48143  17.280  10.268   4.800
86833W        W48144  31.531   1.920  13.427
86834W        W48145  21.611   0.440   4.137
86835W        W48146  39.836   4.750   1.341
86836W        W48147  19.263  13.766  12.502
86837W        W48148  27.093  18.057   9.995
86838W        W48149  43.345  16.657   4.649
86839W        W48150  23.642  17.182  12.909
86840W        W48151  16.109   5.906  11.103
86841W        W48152  35.561   7.310   2.844
86842W        W48153   3.816  33.547  10.155
86843W        W48154  15.625  38.445  14.876
86844W        W48155  15.282  24.195  14.895
86845W        W48156  27.168   9.824  10.642
86846W        W48157  37.999  17.082   3.857
86847W        W48158  37.995   8.256   2.223
86848W        W48159   9.364  43.331  13.420
86849W        W48160   9.288  15.626  11.944
86850W        W48161  21.574  12.826  13.338
86851W        W48162  30.033  37.435   1.229
86852W        W48163  42.294  31.046   0.286
86853W        W48164  10.305  23.714   3.376
86854W        W48165   3.794  13.618  12.562
86855W        W48166   3.787   9.352   4.239
86856W        W48167  23.215   3.925   1.862
86857W        W48168   8.399  20.225  14.873
86858W        W48169  15.150  21.749   4.798
86859W        W48170  29.468  27.113  12.027
86860W        W48171  31.496   6.196   1.794
86861W        W48172  44.963  35.399   4.197
86862W        W48173  32.064   7.299   1.818
86863W        W48174  24.076  32.535  10.501
86864W        W48175   3.857  37.086  14.404
86865W        W48176  28.170  31.149   0.479
86866W        W48177  19.235  29.954   4.640
86867W        W48178   0.874   8.306  13.847
86868W        W48179  28.587  18.070  14.794
86869W        W48180  31.444  25.485   4.791
86870W        W48181  34.432  15.585   4.161
86871W        W48182  27.942   4.224  14.838
86872W        W48183  44.353  43.870  12.456
86873W        W48184  18.288  28.038  11.458
86874W        W48185   0.270  15.170  13.887
86875W        W48186  24.628  30.521  14.914
86876W        W48187  11.158  27.194   0.927
86877W        W48188  41.892  24.108   4.167
86878W        W48189   9.183  36.966  14.498
86879W        W48190  22.180  11.182  13.329
86880W        W48191  20.194   1.258   4.814
86881W        W48192  10.246   6.271  14.312
86882W        W48193   2.448  42.381   0.466
86883W        W48194   1.347  13.804  13.887
86884W        W48195  35.472   3.826   2.842
86885W        W48196   5.260  17.672   1.404
86886W        W48197  15.203  21.221  13.517
86887W        W48198  14.128  36.994  14.817
86888W        W48199   1.901  34.037  11.929
86889W        W48200   4.808   1.941   2.237
86890W        W48201   5.807  41.034  13.949
86891W        W48202   5.796  29.621  10.444
86892W        W48203  20.095  43.276   4.129
86893W        W48204  35.960  17.592   1.888
86894W        W48205  20.063   6.861  14.348
86895W        W48206  41.504  34.572   2.840
86896W        W48207   5.920   3.387  11.092
86897W        W48208  33.923   1.435   2.899
86898W        W48209  24.637  24.197   0.244
86899W        W48210  16.123  41.038  11.112
86900W        W48211  24.603  39.444  14.781
86901W        W48212  10.741   4.745   0.431
86902W        W48213  42.850  12.795   3.836
86903W        W48214  30.627  20.549  10.521
86904W        W48215  12.706  17.088   0.847
86905W        W48216  34.609  21.541   3.732
86906W        W48217  29.126  22.539   1.313
86907W        W48218  22.642  42.458  10.613
86908W        W48219  44.368   6.251   5.253
86909W        W48220  28.541  39.850   4.735
86910W        W48221  10.867   7.207   1.935
86911W        W48222  28.519  43.878  14.965
86912W        W48223  23.509  28.997  13.064
86913W        W48224   6.835  36.538  12.376
86914W        W48225   7.202  30.063  12.888
86915W        W48226  11.683  39.966  11.955
86916W        W48227  44.323   6.204  12.469
86917W        W48228   4.205  27.014  12.069
86918W        W48229  42.459  18.719  13.456
86919W        W48230  25.159  39.536   3.801
86920W        W48231  12.356  29.520   2.291
86921W        W48232  39.995  34.033   0.864
86922W        W48233  19.198  37.411   2.899
86923W        W48234  33.532  18.074   1.753
86924W        W48235  43.327  21.670  10.460
86925W        W48236  36.400  19.644  11.987
86926W        W48237  40.920  23.534  12.519
86927W        W48238  43.970   3.751   0.358
86928W        W48239  12.829  16.620   1.770
86929W        W48240  29.607  31.583   1.880
86930W        W48241   1.265  37.071  10.447
86931W        W48242  37.406  17.215   1.740
86932W        W48243  39.327  35.001  12.838
86933W        W48244  10.702  10.291  10.156
86934W        W48245  34.885   9.340   1.870
86935W        W48246   0.742  25.216  13.395
86936W        W48247   9.883  42.907  10.541
86937W        W48248  29.139   6.899   3.253
86938W        W48249   1.340  40.350   3.213
86939W        W48250   0.452  19.217  13.503
86940W        W48251   2.755  26.177  14.390
86941W        W48252  15.725  43.502   4.338
86942W        W48253  38.366  29.082  10.981
86943W        W48254   8.751  43.922  12.358
86944W        W48255   8.851  27.100  13.794
86945W        W48256  22.706  34.868  13.906
86946W        W48257  23.596   5.749  12.010
86947W        W48258  26.007   4.439   1.298
86948W        W48259  41.335  27.151   4.678
86949W        W48260  32.029  14.724   4.353
86950W        W48261  16.756  17.216   3.651
86951W        W48262  28.958  18.605   2.271
86952W        W48263  25.976  31.514  12.540
86953W        W48264  16.103  10.696   2.242
86954W        W48265  23.140   8.757  11.548
86955W        W48266  22.624  28.474  12.830
86956W        W48267  33.581  20.746  14.510
86957W        W48268  15.590  20.132   2.381
86958W        W48269  11.859  36.074   1.415
86959W        W48270   6.695  16.241  12.415
86960W        W48271   0.759   6.791  10.909
86961W        W48272  44.504  29.506   3.822
86962W        W48273   7.247  36.059  12.477
86963W        W48274  37.987  40.329  13.498
86964W        W48275  20.121  23.503   5.123
86965W        W48276   8.725  44.952   1.768
86966W        W48277  25.605  20.218   4.338
86967W        W48278  28.557   7.818   4.350
86968W        W48279  39.472  18.575   0.813
86969W        W48280   4.410  19.569   0.751
86970W        W48281  17.622  28.576  10.561
86971W        W48282   1.854  30.978   3.712
86972W        W48283  23.013  26.553   3.660
86973W        W48284  41.480  23.602   3.156
86974W        W48285  21.248  33.912  11.376
86975W        W48286  42.325  16.573  10.897
86976W        W48287  12.314   6.788  11.047
86977W        W48288   9.151   0.303  12.084
86978W        W48289  29.964  32.491   1.228
86979W        W48290  31.415   5.841   4.704
86980W        W48291  21.680  27.570  13.371
86981W        W48292  26.550  21.660   1.915
86982W        W48293  25.682  17.110  12.838
86983W        W48294  35.934  31.405  14.991
86984W        W48295  30.495  37.447   0.321
86985W        W48296  20.659   5.292   2.783
86986W        W48297  21.638   3.781   1.321
86987W        W48298  43.417  44.388   4.328
86988W        W48299  20.673   7.357   1.345
86989W        W48300  23.072  37.477   1.919
86990W        W48301  11.769  17.666  10.540
86991W        W48302  21.238  20.535   4.345
86992W        W48303  20.183  12.296  10.893
86993W        W48304  44.414   0.454  14.295
86994W        W48305  37.489  41.925   1.930
86995W        W48306  35.546  10.646  12.086
86996W        W48307  30.075  30.124  11.393
86997W        W48308  39.353  27.632  14.945
86998W        W48309  30.118  43.275   3.782
86999W        W48310   1.874  30.500  11.380
87000W        W48311  25.188  24.997   2.751
87001W        W48312  37.380  23.141  10.535
87002W        W48313  37.088  30.016   3.259
87003W        W48314  36.859   3.725  14.457
87004W        W48315  13.214  27.997   0.263
87005W        W48316  40.393  14.594  10.541
87006W        W48317  28.476  14.765   4.696
87007W        W48318  30.980  19.218   0.880
87008W        W48319   9.219  24.017  14.278
87009W        W48320  13.310  37.013   3.344
87010W        W48321  22.239   1.814  14.403
87011W        W48322  24.493  33.064   0.428
87012W        W48323   8.826  11.832  13.909
87013W        W48324  33.464  21.621   1.229
87014W        W48325  24.108   6.697   2.793
87015W        W48326  43.400  13.107   1.818
87016W        W48327  38.907   4.737   1.345
87017W        W48328   5.260  17.205  10.621
87018W        W48329   7.705   9.659  12.881
87019W        W48330  11.682   8.743   5.124
87020W        W48331  30.112  31.455  13.867
87021W        W48332  19.554  23.162  12.435
87022W        W48333  39.510  30.923  14.376
87023W        W48334   6.718  44.424  13.984
87024W        W48335  35.569  24.991  12.954
87025W        W48336  41.026  31.122  13.876
87026W        W48337  25.065  29.053  11.446
87027W        W48338  44.955  15.600  11.437
87028W        W48339  13.840  38.058  14.295
87029W        W48340  42.994  10.200   0.372
87030W        W48341  35.008  40.974  11.564
87031W        W48342  40.937  38.388   4.781
87032W        W48343   1.923  17.302   3.292
87033W        W48344  11.166   0.354   0.448
87034W        W48345  27.959   2.374  12.445
87035W        W48346  22.683   3.817  11.529
87036W        W48347  26.675   5.328   3.166
87037W        W48348  18.218  15.291  12.933
87038W        W48349  27.189   1.448  12.943
87039W        W48350  43.893  16.316  14.431
87040W        W48351  22.578  43.272  11.925
87041W        W48352   0.374  17.267   1.869
87042W        W48353  18.721   9.308  10.425
87043W        W48354  13.301   2.321   1.370
87044W        W48355  25.591  40.856   1.311
87045W        W48356   6.854  43.437   1.353
87046W        W48357  13.148  14.224   1.700
87047W        W48358  19.692   0.851   4.225
87048W        W48359  35.931  24.525   4.267
87049W        W48360  12.129  20.144   1.924
87050W        W48361  12.199  15.210  13.800
87051W        W48362  15.743  27.978  13.970
87052W        W48363  13.271  40.009   0.457
87053W        W48364  36.843   2.785   4.782
87054W        W48365  37.469  26.652   1.331
87055W        W48366  13.761  39.824   1.740
87056W        W48367   3.374  22.231  11.907
87057W        W48368  40.039  10.341   3.234
87058W        W48369  10.310   5.859   2.661
87059W        W48370   1.327   1.886  11.940
87060W        W48371  32.137  33.963  12.884
87061W        W48372   8.834  10.659   0.862
87062W        W48373  36.353  20.567  14.483
87063W        W48374  13.759  38.474  10.518
87064W        W48375  42.918  19.680   3.761
87065W        W48376   0.768   5.317   2.321
87066W        W48377   7.887  40.407  14.403
87067W        W48378   9.195  24.223   2.268
87068W        W48379  38.828  23.179   4.733
87069W        W48380  18.557   2.328  10.968
87070W        W48381  26.483  42.286  11.562
87071W        W48382  17.682  31.901  10.520
87072W        W48383  42.014   5.313   3.722
87073W        W48384  28.643  35.889  13.360
87074W        W48385  15.787  44.010   4.278
87075W        W48386  33.053  23.698  13.027
87076W        W48387  24.525  33.022  10.037
87077W        W48388  42.513  38.061   4.210
87078W        W48389  26.533  11.801   5.249
87079W        W48390  22.578  24.029  13.041
87080W        W48391  34.016   0.483   0.370
87081W        W48392  43.286  40.496  11.865
87082W        W48393  21.178  41.871  11.992
87083W        W48394  33.451  34.107  14.346
87084W        W48395  17.611  44.827   3.348
87085W        W48396  43.392  37.358   3.194
87086W        W48397  19.258  23.697   2.303
87087W        W48398  30.103  44.375  14.388
87088W        W48399  41.896  31.479  11.576
87089W        W48400  31.119  27.522   0.327
87090W        W48401   3.775  40.492   0.769
87091W        W48402  41.953  44.947  10.952
87092W        W48403   7.672  30.937   2.190
87093W        W48404  17.771  13.235  12.576
87094W        W48405  14.653   6.761  14.457
87095W        W48406  16.659  19.538  11.594
87096W        W48407   8.174  18.069  12.387
87097W        W48408  33.528  31.581  10.592
87098W        W48409  11.232  38.058   0.278
87099W        W48410  23.543  21.621  12.509
87100W        W48411  37.832  10.745   2.794
87101W        W48412  15.641   7.885   9.983
87102W        W48413  10.382  23.548  14.821
87103W        W48414  16.204  26.101  12.407
87104W        W48415  21.522  31.466   2.355
87105W        W48416  26.083  44.384  13.876
87106W        W48417   7.850   9.211   0.752
87107W        W48418  11.279  14.809  11.067
87108W        W48419  27.996   8.782   4.291
87109W        W48420  43.807  18.778   3.730
87110W        W48421   4.415  42.010  12.906
87111W        W48422  40.962  23.522   3.347
87112W        W48423   8.271  16.711  13.822
87113W        W48424   4.709   1.963  12.481
87114W        W48425  32.928   3.310   4.758
87115W        W48426  24.019  30.588   1.392
87116W        W48427  34.369  17.632   0.729
87117W        W48428  36.020   7.219  13.327
87118W        W48429   3.368  18.690   1.808
87119W        W48430   2.401  12.678  14.395
87120W        W48431   1.836  10.298  14.421
87121W        W48432   9.774  24.097   4.608
87122W        W48433  34.055  39.393  12.448
87123W        W48434  27.103  40.362   2.687
87124W        W48435   0.430  27.557   0.953
87125W        W48436  30.447  28.049   0.419
87126W        W48437  37.047  34.974   3.310
87127W        W48438  21.035  24.067   1.700
87128W        W48439  31.046  40.877  11.960
87129W        W48440  10.186  22.620   2.890
87130W        W48441  10.318  11.182   1.859
87131W        W48442   9.875  14.292  11.555
87132W        W48443   1.915   6.387   4.601
87133W        W48444  24.586  33.424  14.935
87134W        W48445  31.612  36.939   1.777
87135W        W48446  43.450  28.115   2.687
87136W        W48447  10.817   8.302  11.440
87137W        W48448  43.978  29.570   0.358
87138W        W48449  25.575   0.844   4.182
87139W        W48450   7.686   3.837   1.806
87140W        W48451   3.785  18.579   2.197
87141W        W48452  22.667  34.983   4.209
87142W        W48453  39.896  34.931   0.250
87143W        W48454  43.278  11.141  14.777
87144W        W48455  42.475   5.355   2.666
87145W        W48456   1.409  12.344   0.907
87146W        W48457  25.136  22.137   0.880
87147W        W48458  31.952  37.402   0.323
87148W        W48459  26.515  22.244  12.492
87149W        W48460   1.291  15.779  12.426
87150W        W48461  17.568  29.968  11.441
87151W        W48462   7.282  16.156   3.326
87152W        W48463   5.204  26.560  14.012
87153W        W48464  43.416   0.767  14.890
87154W        W48465  33.930  28.512  13.352
87155W        W48466  17.249  41.378  13.362
87156W        W48467  27.505  35.359   1.766
87157W        W48468  18.213  43.385   3.277
87158W        W48469  23.563   6.890   0.816
87159W        W48470   9.252  22.237  14.374
87160W        W48471  17.737  26.692   4.795
87161W        W48472  24.537  28.675   2.812
87162W        W48473  43.782  35.871  10.452
87163W        W48474  39.984   6.748   0.908
87164W        W48475   4.773  36.987   0.419
87165W        W48476  36.973   0.408   2.754
87166W        W48477  13.311   6.740  10.900
87167W        W48478  21.069   4.835   3.359
87168W        W48479  24.570  34.870   0.434
87169W        W48480  25.970  32.583   3.245
87170W        W48481  26.501   2.849   1.375
87171W        W48482   3.263   4.904   4.799
87172W        W48483  26.530  30.456   3.150
87173W        W48484  31.466  10.853  11.489
87174W        W48485  15.168  37.869   1.797
87175W        W48486   2.966   7.187   4.642
87176W        W48487   5.311  25.709   1.802
87177W        W48488  30.927  41.461  13.038
87178W        W48489  13.707   8.668  11.541
87179W        W48490  24.587  40.985  13.511
87180W        W48491  32.974  25.577   2.405
87181W        W48492  29.953   9.824  11.980
87182W        W48493  12.206  24.213   5.156
87183W        W48494   9.712   7.789  14.315
87184W        W48495  39.446  26.703  10.410
87185W        W48496  27.465  40.917  14.818
87186W        W48497  34.096  32.104  14.898
87187W        W48498   3.767  17.183  10.609
87188W        W48499  19.258   3.285   4.695
87189W        W48500   1.822  22.116  10.406
87190W        W48501   5.287  34.868  11.929
87191W        W48502   8.675  35.081   3.651
87192W        W48503  21.734  44.827   4.606
87193W        W48504  19.681  44.493   5.214
87194W        W48505  15.245  23.059  11.508
87195W        W48506   2.927  44.836   0.854
87196W        W48507  20.047  23.569   2.289
87197W        W48508  44.871  43.768   1.842
87198W        W48509   6.766  28.184  12.930
87199W        W48510  36.007   2.850   1.719
87200W        W48511  30.936  35.070  11.862
87201W        W48512  13.317  11.306   1.380
87202W        W48513  39.981  43.505  12.853
87203W        W48514  39.062  19.599   5.170
87204W        W48515  33.093   5.211  13.475
87205W        W48516  11.795  33.615  10.549
87206W        W48517   8.677  41.965   1.915
87207W        W48518  44.481  11.623   3.693
87208W        W48519  43.465  42.465  11.482
87209W        W48520  16.695  31.007  14.974
87210W        W48521   4.276  44.825   4.226
87211W        W48522   6.735   4.372   2.770
87212W        W48523  34.409   5.240   1.419
87213W        W48524  18.707  25.216   1.885
87214W        W48525   4.360  30.032   1.265
87215W        W48526   5.837  16.282   2.320
87216W        W48527  44.920   7.801  12.381
87217W        W48528  10.642  25.207  13.008
87218W        W48529  36.474  27.098   1.712
87219W        W48530  44.424  24.218   2.366
87220W        W48531   4.251  22.605  12.943
87221W        W48532  12.735  32.944   1.816
87222W        W48533  26.074  23.125   2.825
87223W        W48534  43.314   4.772  11.871
87224W        W48535  17.154  38.993  11.554
87225W        W48536  43.918  18.215   3.719
87226W        W48537  26.638  33.616   0.414
87227W        W48538  24.627  10.639   0.277
87228W        W48539   3.946  25.046   2.397
87229W        W48540  18.260  35.024  12.964
87230W        W48541  36.581  27.452  11.553
87231W        W48542   5.206   4.896  10.464
87232W        W48543  37.884  25.560   4.328
87233W        W48544  28.528   4.707   1.708
87234W        W48545  13.750  24.087  11.569
87235W        W48546  11.354  36.427   2.275
87236W        W48547   8.705  21.179  14.397
87237W        W48548  23.187   7.229  12.446
87238W        W48549  22.025   4.250   2.871
87239W        W48550  30.980  19.218  10.637
87240W        W48551  30.612   9.339  12.571
87241W        W48552  17.598   0.484   3.193
87242W        W48553  38.571  12.764  13.900
87243W        W48554  34.074  41.505   2.316
87244W        W48555  17.650  16.801  10.607
87245W        W48556  17.723   6.354   0.407
87246W        W48557  44.904  11.725  10.585
87247W        W48558  20.652  14.147  14.938
87248W        W48559  41.526  18.561  14.450
87249W        W48560  41.368  30.907  12.003
87250W        W48561   9.766   5.308  12.507
87251W        W48562  39.323   0.461  14.030
87252W        W48563  44.925   4.369  10.645
87253W        W48564  28.599  18.689   4.765
87254W        W48565   9.741  15.114   3.254
87255W        W48566  27.663  21.730  12.850
87256W        W48567   7.763   4.800   3.772
87257W        W48568   4.910  32.925   4.273
87258W        W48569  18.714  29.594  10.484
87259W        W48570   0.250  43.849   3.160
87260W        W48571   9.316  40.506  11.868
87261W        W48572  27.179  22.592   4.831
87262W        W48573   3.884  10.843   2.332
87263W        W48574  41.526  39.058  14.956
87264W        W48575  33.485   9.387   5.200
87265W        W48576   2.789   3.231  12.861
87266W        W48577  10.371  12.636  14.956
87267W        W48578  22.667  37.898   0.966
87268W        W48579  29.968  10.794  14.795
87269W        W48580   5.303   9.395  11.096
87270W        W48581   4.764   6.191   3.282
87271W        W48582   4.236  34.039  12.459
87272W        W48583  21.530   0.298  14.327
87273W        W48584  33.077  13.241   0.247
87274W        W48585  17.603   9.778   0.350
87275W        W48586  13.266  41.896   2.362
87276W        W48587  44.435   9.300   3.690
87277W        W48588  40.468  10.780  12.348
87278W        W48589   6.797  44.002   1.322
87279W        W48590  24.575  16.124   2.281
87280W        W48591   5.841  40.879  13.543
87281W        W48592  17.556  30.657  11.401
87282W        W48593  20.719  28.674   0.831
87283W        W48594   0.977  38.001  12.445
87284W        W48595  40.802   5.827  13.534
87285W        W48596  18.706  39.923   1.748
87286W        W48597  31.501  35.030  14.406
87287W        W48598  39.054  20.695  13.020
87288W        W48599   3.459  29.129  13.336
87289W        W48600  39.967  26.962   4.348
87290W        W48601  36.018   4.398  11.582
87291W        W48602   2.433  16.279   2.701
87292W        W48603  30.982  21.604   3.764
87293W        W48604  33.531  43.009   3.150
87294W        W48605   7.396   6.357   5.194
87295W        W48606  44.943   1.976  11.888
87296W        W48607  34.119  33.050  10.630
87297W        W48608   6.684  38.974   4.773
87298W        W48609  44.895  32.409  13.367
87299W        W48610  17.199  19.072   2.320
87300W        W48611  35.544  27.653  12.500
87301W        W48612  18.187  15.307  14.808
87302W        W48613  41.810  31.064  13.922
87303W        W48614  33.027   2.743   2.223
87304W        W48615  30.577   0.373   0.431
87305W        W48616  13.143  36.350   2.193
87306W        W48617  17.690   8.335   1.321
87307W        W48618  24.643  25.111   0.413
87308W        W48619   3.871  11.622  11.591
87309W        W48620  44.928  16.084  14.294
87310W        W48621  44.806  40.015  13.064
87311W        W48622  20.686  29.120   1.830
87312W        W48623  18.175  37.957  12.567
87313W        W48624  40.490  35.919   4.293
87314W        W48625  24.184  36.409   3.334
87315W        W48626  10.197  10.225  13.922
87316W        W48627  34.986  37.955  13.383
87317W        W48628   5.416  40.420  13.920
87318W        W48629  24.486  10.682   3.307
87319W        W48630  17.594  28.462   3.347
87320W        W48631  27.518  26.194  14.480
87321W        W48632  38.484  25.096   2.847
87322W        W48633   5.928   0.828   4.684
87323W        W48634  36.916  31.559   3.770
87324W        W48635  18.622   0.454   1.431
87325W        W48636   8.727  25.472   4.711
87326W        W48637  19.064  37.468  10.975
87327W        W48638  10.720  13.159  14.334
87328W        W48639   9.695  31.112  14.947
87329W        W48640  40.804  44.453   2.689
87330W        W48641  11.252   3.766   2.269
87331W        W48642  40.326  20.726   4.776
87332W        W48643  22.559  33.928  10.583
87333W        W48644  36.410   6.342  11.516
87334W        W48645  18.701   3.350   3.850
87335W        W48646   2.353  12.740   3.775
87336W        W48647  12.137  27.609   1.239
87337W        W48648  32.559  31.140  12.904
87338W        W48649  42.890  35.547  12.053
87339W        W48650  40.321  22.704   2.704
87340W        W48651  22.693   8.330   2.845
87341W        W48652  24.191  14.110  11.031
87342W        W48653  16.750  18.128  14.439
87343W        W48654  32.972  39.357   0.879
87344W        W48655  18.683   0.761   2.342
87345W        W48656  12.341   4.937  12.352
87346W        W48657  16.303   6.266   5.698
87347W        W48658   8.751  43.417  11.033
87348W        W48659   8.839  24.652  13.975
87349W        W48660   6.797  27.968   0.784
87350W        W48661  39.890   7.891   3.371
87351W        W48662  29.042   0.759   0.436
87352W        W48663  30.952  11.632  14.027
87353W        W48664  26.096  22.595  10.890
87354W        W48665  16.289  22.679  11.944
87355W        W48666  35.103  12.731   4.157
87356W        W48667   2.302  11.732  14.982
87357W        W48668  20.145  10.139  11.417
87358W        W48669  33.023  39.442  12.066
87359W        W48670  38.369  38.346   0.373
87360W        W48671   0.341  31.981   0.287
87361W        W48672   5.712  17.292  13.992
87362W        W48673  34.903   9.847   1.903
87363W        W48674  25.982   1.855   3.819
87364W        W48675  21.024   8.894   4.631
87365W        W48676  41.417  25.975   0.926
87366W        W48677  44.351   6.836   0.813
87367W        W48678   2.309  37.556   2.239
87368W        W48679  13.317  25.059   9.985
87369W        W48680  12.853  10.250   3.723
87370W        W48681  23.187   7.379   1.853
87371W        W48682  16.568  33.469   3.810
87372W        W48683   5.719  31.578   3.353
87373W        W48684  41.897  23.664   1.312
87374W        W48685  28.181  30.105   4.159
87375W        W48686  19.549  20.640   3.317
87376W        W48687   9.787  36.537   1.385
87377W        W48688  21.683  14.291   0.873
87378W        W48689  30.440   5.845   1.424
87379W        W48690  38.914  22.107   1.930
87380W        W48691  16.134   1.867  12.474
87381W        W48692  38.450  40.500   0.255
87382W        W48693  35.856  35.084   5.184
87383W        W48694   6.681  39.938   3.386
87384W        W48695  30.115  44.001  14.865
87385W        W48696  30.456   5.216   1.263
87386W        W48697  25.684   0.302  14.288
87387W        W48698  24.147   7.417  11.067
87388W        W48699  44.339  26.562  11.473
87389W        W48700  10.254  21.751   2.879
87390W        W48701  20.684  23.144  13.827
87391W        W48702  19.756   6.777  10.547
87392W        W48703  34.542  18.663   0.338
87393W        W48704   9.391  43.865   1.318
87394W        W48705  12.180  24.060   4.308
87395W        W48706   3.818  30.983  11.526
87396W        W48707  37.861   6.286  13.462
87397W        W48708  31.013  44.315   0.464
87398W        W48709  27.188  29.070  12.479
87399W        W48710  42.489  37.897  14.311
87400W        W48711   2.827   0.893  14.806
87401W        W48712  11.692  42.940   4.167
87402W        W48713   7.855  23.556  11.884
87403W        W48714  11.868  28.538  13.040
87404W        W48715  33.029  23.624   0.307
87405W        W48716  10.296  35.930   2.415
87406W        W48717  23.227   8.779   0.314
87407W        W48718  41.403   9.699   3.868
87408W        W48719  11.838  28.554  12.367
87409W        W48720  21.674  11.857  12.910
87410W        W48721  34.900  29.428  11.436
87411W        W48722   5.352  23.669   2.336
87412W        W48723   8.671  24.086   2.777
87413W        W48724  13.664   9.730   0.789
87414W        W48725  28.180  20.695  10.634
87415W        W48726   7.885  28.543   3.266
87416W        W48727  43.469  41.377   2.861
87417W        W48728  12.316  18.204  13.509
87418W        W48729  38.408  13.105  11.956
87419W        W48730  14.189   7.220  11.868
87420W        W48731   5.752  33.011  11.067
87421W        W48732   3.350  35.966  14.813
87422W        W48733  28.078   4.387  11.035
87423W        W48734   3.906   8.221   3.263
87424W        W48735  27.017  21.541  13.951
87425W        W48736  40.007  41.809   4.248
87426W        W48737  42.325  18.563   2.679
87427W        W48738  44.805  15.184  11.058
87428W        W48739   7.726  32.053   3.746
87429W        W48740  18.706  26.611   4.116
87430W        W48741  44.421  33.461   3.771
87431W        W48742   6.246  44.949   0.446
87432W        W48743  40.901   2.956   3.200
87433W        W48744  32.100  34.426  10.429
87434W        W48745  28.645  29.641  13.058
87435W        W48746  22.696  39.810   1.270
87436W        W48747  11.230  28.031   4.603
87437W        W48748   1.894  34.438  11.605
87438W        W48749  15.185  12.696   2.863
87439W        W48750  30.476  43.817  11.408
87440W        W48751  26.589   1.811  11.888
87441W        W48752  28.952  26.070  11.381
87442W        W48753  14.123  11.140   0.376
87443W        W48754   6.292   8.302  14.889
87444W        W48755  18.545  17.628   1.410
87445W        W48756  16.249  38.895   0.873
87446W        W48757  21.618   2.443  13.862
87447W        W48758  14.592  17.689   1.882
87448W        W48759   4.719  24.662   0.441
87449W        W48760  41.971  24.145   5.256
87450W        W48761  27.944   3.723  11.552
87451W        W48762  29.940   1.896   1.770
87452W        W48763  16.708  29.174  10.551
87453W        W48764  13.636   4.700  12.989
87454W        W48765  13.722  25.483   1.278
87455W        W48766  39.997  39.441  14.481
87456W        W48767  44.300   6.301  13.026
87457W        W48768  17.614  33.986   3.382
87458W        W48769  41.806  42.917   9.999
87459W        W48770  41.889  13.118  11.957
87460W        W48771  33.613   4.832  11.453
87461W        W48772  30.115  40.493  12.942
87462W        W48773  44.813  30.098   4.782
87463W        W48774  15.220  41.844  12.882
87464W        W48775  37.911  21.193   4.745
87465W        W48776   7.786  37.363   3.716
87466W        W48777  19.065  24.544  14.493
87467W        W48778   3.851  40.859  13.996
87468W        W48779  39.476  36.547   1.351
87469W        W48780  42.360  34.455  13.913
87470W        W48781  38.380  28.997   0.899
87471W        W48782  37.057  19.535  13.507
87472W        W48783  14.712   5.915   2.239
87473W        W48784  26.988  25.008  11.920
87474W        W48785  26.186  19.135  12.998
87475W        W48786   8.654  15.111   3.821
87476W        W48787  31.406  36.909   0.869
87477W        W48788   4.315  33.020   3.831
87478W        W48789   1.462  23.551  10.536
87479W        W48790  35.431   9.234  13.003
87480W        W48791  16.780  24.121   2.404
87481W        W48792  23.188  22.085   2.841
87482W        W48793  18.702  24.099   5.110
87483W        W48794  33.414  17.737  14.302
87484W        W48795  33.037  41.366  13.798
87485W        W48796  29.059   8.190  10.635
87486W        W48797  37.857  16.759   3.231
87487W        W48798  35.897   7.416  14.782
87488W        W48799  39.824   4.353  14.366
87489W        W48800  24.722  28.470   1.886
87490W        W48801  23.564  43.428  14.835
87491W        W48802  31.132  21.213  10.971
87492W        W48803  42.858  20.114   3.731
87493W        W48804  13.252  33.051  11.064
87494W        W48805  19.774  28.938   1.761
87495W        W48806  18.670  24.697   3.791
87496W        W48807  12.147  24.557   0.398
87497W        W48808  24.071  16.809  12.486
87498W        W48809  30.461   9.264  11.498
87499W        W48810  30.936  22.600  10.408
87500W        W48811  12.281  33.900   3.685
87501W        W48812   7.818  21.091   4.289
87502W        W48813  17.168  22.587   2.380
87503W        W48814   4.415  25.074  11.488
87504W        W48815  13.312  30.134   3.219
87505W        W48816  14.709  39.017  13.471
87506W        W48817  37.363  38.462   5.616
87507W        W48818   9.312   5.391   1.412
87508W        W48819  30.937  32.585   0.442
87509W        W48820  29.423  31.019   0.259
87510W        W48821  11.185  31.409  14.408
87511W        W48822   7.888  26.188  13.049
87512W        W48823  39.405  42.986  12.066
87513W        W48824   4.721  22.030  12.393
87514W        W48825  22.549  31.435   3.775
87515W        W48826  30.004   3.805   1.374
87516W        W48827   0.421   0.366  14.285
87517W        W48828  44.355  13.683   2.706
87518W        W48829  27.550  28.156   1.801
87519W        W48830  28.466  33.053   4.640
87520W        W48831  18.762  10.308  10.579
87521W        W48832  18.231   0.819  11.878
87522W        W48833  25.669  39.315   0.890
87523W        W48834  37.895  12.297  14.423
87524W        W48835   2.266   6.870  11.933
87525W        W48836  37.030  36.437   1.222
87526W        W48837  22.125  13.760   3.358
87527W        W48838  30.061  41.475  13.791
87528W        W48839  36.986  13.163  10.913
87529W        W48840  44.410  28.663  14.016
87530W        W48841  19.262   1.414  12.341
87531W        W48842  32.552  24.122  10.888
87532W        W48843   7.812  29.606   3.330
87533W        W48844   4.804   4.756  10.597
87534W        W48845  11.332  41.799  13.945
87535W        W48846  35.475  43.012  12.823
87536W        W48847  29.071  17.728  11.412
87537W        W48848   7.730  15.622  14.416
87538W        W48849   2.889  11.771   3.214
87539W        W48850  11.260  40.506   4.303
87540W        W48851  36.856   9.652   3.164
87541W        W48852  31.134  24.081   2.204
87542W        W48853   6.852  34.098   4.196
87543W        W48854  19.041  30.096   3.835
87544W        W48855   8.838  42.409  11.076
87545W        W48856  30.942  35.082   4.213
87546W        W48857  24.171  15.319   3.354
87547W        W48858  37.415  16.589   2.724
87548W        W48859  33.959  13.160  13.044
87549W        W48860  23.686  32.568   0.731
87550W        W48861  25.639  28.438   2.363
87551W        W48862  36.475  35.009   4.229
87552W        W48863  38.448  34.615   4.763
87553W        W48864  21.018  44.003   9.942
87554W        W48865  33.025   8.665  12.517
87555W        W48866   4.934  22.070   1.272
87556W        W48867   0.265  22.676  12.087
87557W        W48868   7.760   4.890   3.210
87558W        W48869   4.421  31.104  13.943
87559W        W48870  19.727  11.149  14.285
87560W        W48871  15.279  24.713   1.797
87561W        W48872   9.798  27.536  13.968
87562W        W48873  26.032  41.872  13.487
87563W        W48874  36.064  15.327   0.313
87564W        W48875  23.202   3.357  11.981
87565W        W48876  33.980  29.018   4.312
87566W        W48877  24.988  35.881  13.812
87567W        W48878  23.038   7.862  12.074
87568W        W48879  41.955  37.371  10.418
87569W        W48880  18.072  18.566  11.406
87570W        W48881  18.719  40.972   0.352
87571W        W48882  32.993  14.339  13.914
87572W        W48883   2.237  44.358  12.363
87573W        W48884  32.982  43.923   1.275
87574W        W48885  39.907  24.154   4.346
87575W        W48886   8.302   8.845   4.718
87576W        W48887   9.351  30.453   0.836
87577W        W48888  24.016  39.367   0.243
87578W        W48889  38.947  10.695   4.177
87579W        W48890  39.988  33.061  11.573
87580W        W48891  20.058  31.451  12.357
87581W        W48892  43.855  36.419   4.217
87582W        W48893  12.662   2.962  14.764
87583W        W48894  35.411   9.210  11.015
87584W        W48895  24.116  35.591   1.364
87585W        W48896  18.558   2.917   2.857
87586W        W48897  25.592  27.020  12.371
87587W        W48898  26.508  34.415  14.420
87588W        W48899   1.825  23.116  14.969
87589W        W48900  32.069  14.698  12.991
87590W        W48901   8.395   5.298   2.372
87591W        W48902  10.366  16.236  12.881
87592W        W48903  10.801  11.735  10.514
87593W        W48904  39.395   9.863   1.820
87594W        W48905  34.416  34.001  14.016
87595W        W48906  25.481  40.917  14.373
87596W        W48907   7.729  19.639  12.092
87597W        W48908  29.512   5.257   3.179
87598W        W48909   3.305  11.265   3.268
87599W        W48910  39.964  35.998   2.872
87600W        W48911  36.000  41.382  12.444
87601W        W48912  43.977  18.655  12.491
87602W        W48913  44.815  29.962   0.830
87603W        W48914  30.525  10.682  11.564
87604W        W48915  17.649   2.738   4.272
87605W        W48916  40.457  10.149   0.254
87606W        W48917  24.484  20.075   4.601
87607W        W48918  44.850   2.798   4.693
87608W        W48919  20.688  17.256   2.354
87609W        W48920  30.457  17.692  14.800
87610W        W48921  34.384  27.644  13.328
87611W        W48922  19.569  22.664  11.938
87612W        W48923   0.324  14.792  14.280
87613W        W48924  41.505  37.862   2.750
87614W        W48925  34.466  41.892  11.466
87615W        W48926  20.678  27.657  11.415
87616W        W48927  30.959  10.721  13.883
87617W        W48928  30.549  13.127   0.817
87618W        W48929  10.661  12.314  14.999
87619W        W48930  29.153   4.239  11.506
87620W        W48931   5.417  44.820  10.620
87621W        W48932  24.984  22.216   4.318
87622W        W48933   9.197  10.315   4.340
87623W        W48934   2.442  32.121   1.816
87624W        W48935  36.527  41.923   1.384
87625W        W48936  22.158  32.985   2.774
87626W        W48937  21.597   0.812   2.875
87627W        W48938  22.569  42.306   3.732
87628W        W48939  23.111  17.301   9.589
87629W        W48940   6.909   7.767   4.650
87630W        W48941  22.098   1.923   1.356
87631W        W48942   9.256  10.360   0.451
87632W        W48943  21.055  27.529   4.601
87633W        W48944  40.882  13.205  12.935
87634W        W48945  34.578  42.892   0.963
87635W        W48946  14.264  26.205   0.843
87636W        W48947  22.055  15.121  14.950
87637W        W48948  37.405  13.129  14.474
87638W        W48949   5.237  24.523   1.767
87639W        W48950  11.151   9.678  11.926
87640W        W48951  19.663  11.831  13.986
87641W        W48952  35.984  20.641  13.433
87642W        W48953  34.561  32.522   1.844
87643W        W48954  11.725  34.498  11.498
87644W        W48955   4.923  30.963  12.349
87645W        W48956  13.794  29.057  11.011
87646W        W48957   1.857  22.516   0.939
87647W        W48958   9.723   7.380   1.274
87648W        W48959  41.409  33.489   1.381
87649W        W48960   0.389  11.674  13.517
87650W        W48961  23.656  29.925   1.919
87651W        W48962   8.227   5.351   3.634
87652W        W48963  31.422   6.874   0.845
87653W        W48964   4.783  18.639   1.432
87654W        W48965   0.272   2.863   1.786
87655W        W48966  26.497  15.306  12.970
87656W        W48967   7.242  35.499  14.354
87657W        W48968  10.277  14.227  11.556
87658W        W48969   1.756  11.309  11.033
87659W        W48970  17.130   8.177  12.571
87660W        W48971  41.000   3.236  10.413
87661W        W48972  44.327  21.205   1.784
87662W        W48973  19.608  28.111   2.674
87663W        W48974  30.638   2.399   4.176
87664W        W48975  42.875   2.858  13.449
87665W        W48976  33.490   0.449   2.250
87666W        W48977  33.961   5.765   2.847
87667W        W48978  16.653  35.552  10.554
87668W        W48979  17.282  38.466  12.477
87669W        W48980  11.722  33.893   9.956
87670W        W48981   8.656  29.650   2.419
87671W        W48982  16.746  33.532   4.607
87672W        W48983  10.180  20.199   3.175
87673W        W48984  20.087   2.342   4.749
87674W        W48985  23.663  19.564  14.502
87675W        W48986  30.049  44.908   3.319
87676W        W48987  27.003  30.567  11.377
87677W        W48988  23.549  36.479   4.694
87678W        W48989   4.240  23.055   0.961
87679W        W48990  16.674  28.590  10.554
87680W        W48991  41.467  20.590  11.485
87681W        W48992  18.619  44.491  12.451
87682W        W48993  40.490  40.877   4.249
87683W        W48994  38.037  39.401  12.977
87684W        W48995  32.603  36.481  13.854
87685W        W48996  29.549  14.795  11.912
87686W        W48997   7.261  17.250   2.814
87687W        W48998  15.174  28.937   3.778
87688W        W48999   2.763  13.266  12.354
87689W        W49000  33.614  15.279  14.320
87690W        W49001  18.214  44.951   3.362
87691W        W49002  39.420  29.022   0.863
87692W        W49003  39.860  17.065  11.017
87693W        W49004  13.175  42.011   2.730
87694W        W49005  10.291   8.708  13.541
87695W        W49006  10.152  28.616   3.261
87696W        W49007  36.570   9.658   3.158
87697W        W49008  12.285  11.824  14.936
87698W        W49009  13.312  41.413  10.516
87699W        W49010  29.999  29.505  10.517
87700W        W49011  16.264  10.722   1.819
87701W        W49012  22.696  42.298   2.720
87702W        W49013  31.909   8.789  13.041
87703W        W49014  19.617   8.841   4.819
87704W        W49015  41.877   5.239   4.190
87705W        W49016  13.283  17.218  13.867
87706W        W49017  13.293  38.067  14.001
87707W        W49018  17.165  15.698   1.838
87708W        W49019  41.820  40.468  11.532
87709W        W49020  13.687   4.754   1.368
87710W        W49021  16.609   9.197   0.835
87711W        W49022  22.172  35.904   4.689
87712W        W49023  23.027  14.692   2.238
87713W        W49024   1.847  14.322   1.352
87714W        W49025  41.845  12.130  13.048
87715W        W49026  29.146   7.728  11.936
87716W        W49027  32.624  19.659   3.841
87717W        W49028   0.476  30.060  11.406
87718W        W49029  20.218  40.393   4.609
87719W        W49030   2.461   3.450   3.719
87720W        W49031  28.975  21.579  11.477
87721W        W49032  25.017  28.048  14.840
87722W        W49033  41.438  44.983  10.468
87723W        W49034  18.164  41.817  10.491
87724W        W49035  19.719  38.021   0.340
87725W        W49036   6.891  35.920  12.849
87726W        W49037   0.365  30.647   4.254
87727W        W49038  39.015  29.531   4.337
87728W        W49039   6.914  24.691   2.415
87729W        W49040  12.146  21.691   0.887
87730W        W49041   5.203  23.716  10.585
87731W        W49042  31.019  37.561   4.798
87732W        W49043  42.803   6.780   3.208
87733W        W49044  40.437  20.095   0.313
87734W        W49045  10.828  21.130   0.920
87735W        W49046  42.382  11.343   3.152
87736W        W49047  34.508  41.303  12.911
87737W        W49048  30.445  38.479  13.835
87738W        W49049  17.225   2.932  14.471
87739W        W49050   9.279  41.803   0.392
87740W        W49051  20.043  30.523   1.410
87741W        W49052  11.776  30.467  12.358
87742W        W49053  11.289  17.209   1.316
87743W        W49054  40.884   4.380   0.342
87744W        W49055   2.952  18.733  10.492
87745W        W49056  31.940  10.853   4.342
87746W        W49057  25.498  42.912  12.450
87747W        W49058  14.198   7.774   1.293
87748W        W49059  28.035  14.214   0.813
87749W        W49060   5.337  44.354  11.564
87750W        W49061  21.201  30.115  12.397
87751W        W49062  26.580   8.844   1.309
87752W        W49063  44.338   7.734   1.428
87753W        W49064  37.374   2.854  13.901
87754W        W49065  35.498  12.658  13.400
87755W        W49066   8.700  44.940  14.280
87756W        W49067  22.716  14.153   5.312
87757W        W49068  12.795  23.037  14.412
87758W        W49069  42.468  24.622   3.163
87759W        W49070  10.178  33.033  13.493
87760W        W49071  17.299  40.305  10.913
87761W        W49072  16.235  26.509   3.728
87762W        W49073  23.655   7.881  10.619
87763W        W49074  43.953  44.791   1.377
87764W        W49075  21.177  14.782  10.483
87765W        W49076  36.972  33.471  11.388
87766W        W49077   3.755  38.043  14.004
87767W        W49078   3.730   6.677   2.191
87768W        W49079  16.169  11.659   1.925
87769W        W49080  14.186   6.264   0.456
87770W        W49081   8.683  14.139  13.518
87771W        W49082  38.407  14.675  11.600
87772W        W49083  30.045  30.951   0.797
87773W        W49084  18.152  11.146  14.822
87774W        W49085  14.780   9.191  14.499
87775W        W49086   8.385  32.942  13.437
87776W        W49087  25.030  14.779  12.923
87777W        W49088  21.726  27.452  12.344
87778W        W49089  35.976  10.350  12.491
87779W        W49090   8.388  13.728  10.616
87780W        W49091  27.964  31.493   3.314
87781W        W49092  38.328  42.903  12.965
87782W        W49093  38.567   0.436   4.823
87783W        W49094  24.522  14.234  12.415
87784W        W49095  17.174  26.077  12.023
87785W        W49096   2.251   9.237  10.491
87786W        W49097  34.567  43.296   3.361
87787W        W49098  44.941  21.645   2.328
87788W        W49099  44.964  44.004   2.767
87789W        W49100   2.870  38.475   2.358
87790W        W49101  18.661  25.510   1.346
87791W        W49102  19.667   2.391  13.022
87792W        W49103  43.013   2.414  12.367
87793W        W49104   7.697  14.202   1.906
87794W        W49105  21.556   2.335  11.918
87795W        W49106  15.202   5.348  13.808
87796W        W49107   9.879  14.633   3.704
87797W        W49108  23.736  37.474  10.639
87798W        W49109  26.529   0.933  14.797
87799W        W49110  14.717  35.446   2.362
87800W        W49111  24.999   8.808   3.163
87801W        W49112  21.703  10.713   0.374
87802W        W49113  10.315  41.940  12.050
87803W        W49114  26.074  26.605  11.920
87804W        W49115  33.960  19.041   4.801
87805W        W49116  44.434   1.823  13.951
87806W        W49117  16.679  38.004   1.918
87807W        W49118   8.398  33.900   4.319
87808W        W49119  40.970  42.403   0.781
87809W        W49120  28.630   1.361   0.765
87810W        W49121   4.856   6.303  11.877
87811W        W49122  13.319  17.606  13.546
87812W        W49123  32.466  42.011   3.721
87813W        W49124  11.859   8.396   3.287
87814W        W49125   7.252  20.536   4.116
87815W        W49126   9.650  38.460   3.737
87816W        W49127  21.674  36.378   0.375
87817W        W49128  35.016  30.471   2.274
87818W        W49129  13.337   8.217  10.632
87819W        W49130   4.351  21.134   1.745
87820W        W49131   2.324  11.296   1.760
87821W        W49132  30.071  26.537   3.203
87822W        W49133  11.743  11.773  10.626
87823W        W49134   2.334  18.154   3.318
87824W        W49135  37.357   7.690   4.256
87825W        W49136   7.766  38.375  13.318
87826W        W49137  40.941   0.318  14.481
87827W        W49138  34.087  12.344   0.799
87828W        W49139  30.162  14.247  14.019
87829W        W49140  26.979  25.497   3.382
87830W        W49141  15.251  13.324  13.448
87831W        W49142  39.987  40.367   3.352
87832W        W49143  31.009  17.240  12.942
87833W        W49144  40.050  39.006  10.576
87834W        W49145  42.969  23.156  12.039
87835W        W49146  32.417  12.145   0.370
87836W        W49147  22.562  30.005   0.914
87837W        W49148  35.473  34.087   0.273
87838W        W49149  22.536  27.035   1.719
87839W        W49150  12.653  32.990   1.385
87840W        W49151  30.102  39.907   2.731
87841W        W49152  15.223  23.032   0.913
87842W        W49153  21.093  35.467  14.841
87843W        W49154  37.987  35.530   2.351
87844W        W49155  32.064   6.401  14.275
87845W        W49156  25.146  27.039   0.814
87846W        W49157   5.715   2.466  11.092
87847W        W49158  31.977   8.394   1.834
87848W        W49159  39.841  15.711   0.399
87849W        W49160  36.522  11.709  10.416
87850W        W49161  10.182   9.869   4.654
87851W        W49162  33.466  25.147   3.208
87852W        W49163   7.382  34.110  12.377
87853W        W49164  43.507  17.744  13.444
87854W        W49165  14.649  26.046  14.961
87855W        W49166   5.848  26.133  14.980
87856W        W49167  34.983  24.538  10.524
87857W        W49168  17.198  19.218   3.208
87858W        W49169  43.352   4.293  12.399
87859W        W49170  18.661  11.329   0.389
87860W        W49171  17.703  20.081   1.388
87861W        W49172  43.794  44.349   0.841
87862W        W49173   7.811   5.319  14.415
87863W        W49174  35.489  38.436   2.805
87864W        W49175  29.110  14.261   2.699
87865W        W49176  20.605  38.061   0.255
87866W        W49177  42.424  18.579   0.330
87867W        W49178   5.395  35.391  10.575
87868W        W49179  30.135  24.480   4.245
87869W        W49180  35.950  32.464  11.874
87870W        W49181  36.887  27.689   1.831
87871W        W49182  15.242  24.103   0.763
87872W        W49183  24.152  27.976   0.450
87873W        W49184  14.643   5.881  11.012
87874W        W49185  30.149  21.619   3.702
87875W        W49186  20.180  41.390  13.976
87876W        W49187  35.077   9.735  14.277
87877W        W49188  32.531  17.204   2.246
87878W        W49189   3.423  40.972   2.859
87879W        W49190  24.510  18.747   3.825
87880W        W49191  27.670  42.839  10.965
87881W        W49192  15.159   7.907  13.901
87882W        W49193   5.242  30.072   3.157
87883W        W49194  21.227  16.788  11.558
87884W        W49195   4.380  13.604  11.430
87885W        W49196   4.294  34.978   0.911
87886W        W49197  27.688  19.229   3.763
87887W        W49198  35.506  20.236   0.357
87888W        W49199   4.916  36.488   1.830
87889W        W49200  26.634  13.698  10.562
87890W        W49201  25.478   6.341  13.795
87891W        W49202  27.146   1.439   3.772
87892W        W49203  26.635   0.871  13.309
87893W        W49204  33.117  39.463  13.847
87894W        W49205   7.342   9.872  11.493
87895W        W49206   5.729  15.154  13.856
87896W        W49207   1.312  43.313  10.600
87897W        W49208  11.155  40.961  14.373
87898W        W49209  14.735   2.431  14.960
87899W        W49210  10.296  37.390  10.920
87900W        W49211   2.774   8.787  14.826
87901W        W49212   3.748   5.317  12.482
87902W        W49213  22.104  20.710  11.965
87903W        W49214  39.043  44.409   0.440
87904W        W49215  18.709   4.708  12.877
87905W        W49216  24.702   7.711   1.870
87906W        W49217  27.094  25.714  10.592
87907W        W49218   7.885  37.559  14.885
87908W        W49219  39.943  20.601   3.799
87909W        W49220  41.365   5.211   2.213
87910W        W49221  17.727  32.098   0.268
87911W        W49222   2.732  31.020  14.916
87912W        W49223  35.572  29.983   0.368
87913W        W49224  36.887  42.862  14.932
87914W        W49225   1.390  11.722   1.777
87915W        W49226  25.101  13.195  11.528
87916W        W49227  31.124   1.954  11.578
87917W        W49228  10.157  37.515  14.505
87918W        W49229  21.057  20.158  10.474
87919W        W49230  25.521  41.408  14.993
87920W        W49231  20.598  22.064   2.734
87921W        W49232  41.841  38.558   0.339
87922W        W49233  10.245  43.381   3.203
87923W        W49234   4.732  32.613  12.389
87924W        W49235  26.955  20.040   9.615
87925W        W49236  23.185  33.603  13.831
87926W        W49237  38.951  19.065   2.667
87927W        W49238  19.667  41.460   3.770
87928W        W49239  10.323  20.239  13.915
87929W        W49240  27.959  12.668   3.359
87930W        W49241   0.257  38.990   0.852
87931W        W49242  36.058  44.949  10.939
87932W        W49243  20.107  26.134  13.358
87933W        W49244  34.968  36.062  10.539
87934W        W49245  11.299  27.685  11.899
87935W        W49246   0.430  25.548   3.293
87936W        W49247  33.903  22.125   0.811
87937W        W49248  42.798  33.039  12.841
87938W        W49249  39.390  44.848   4.789
87939W        W49250  30.576   6.783  13.846
87940W        W49251  14.690  27.673   0.804
87941W        W49252  29.536   7.186  11.935
87942W        W49253  15.148  28.117  12.413
87943W        W49254   2.408  15.616  12.894
87944W        W49255   0.939  43.004   3.318
87945W        W49256  41.804   0.468  10.572
87946W        W49257  29.959   6.826   2.346
87947W        W49258  35.522  17.751   2.842
87948W        W49259  22.594  36.434   0.395
87949W        W49260  35.881  36.410  12.393
87950W        W49261  10.224   6.921   3.703
87951W        W49262  17.629  17.793   4.823
87952W        W49263  16.567  42.996   3.345
87953W        W49264  30.494  24.705  11.024
87954W        W49265  11.315  43.461  14.495
87955W        W49266  39.549  37.474   5.277
87956W        W49267   7.322  10.786   1.736
87957W        W49268  34.584  20.639  12.550
87958W        W49269  28.635  37.076  10.524
87959W        W49270   3.403  11.180   2.814
87960W        W49271  43.882  27.688  14.469
87961W        W49272   4.881  21.252  10.975
87962W        W49273  21.595  19.567  12.025
87963W        W49274  15.268   2.258   1.329
87964W        W49275  11.331  24.644   3.858
87965W        W49276  24.635  18.074   0.295
87966W        W49277  29.561   4.264   1.271
87967W        W49278  11.642   0.415   2.247
87968W        W49279  29.542  13.737  10.533
87969W        W49280  25.195  22.153   3.338
87970W        W49281  12.241   5.196   1.399
87971W        W49282  41.041  41.292   2.842
87972W        W49283  18.154  36.380   3.664
87973W        W49284  29.431  17.264   1.304
87974W        W49285  28.662  30.943   4.224
87975W        W49286  14.169  11.342   4.687
87976W        W49287  28.142  23.176   2.864
87977W        W49288  19.152  14.132  14.865
87978W        W49289  34.087   4.713   4.838
87979W        W49290  41.936  42.846   5.119
87980W        W49291  34.992   0.481   2.883
87981W        W49292  39.335  36.526  11.604
87982W        W49293  16.621  32.021   4.232
87983W        W49294   6.677  13.130  10.952
87984W        W49295  34.484  41.944  13.450
87985W        W49296  17.557  14.703  14.776
87986W        W49297   0.744  34.381  10.540
87987W        W49298   5.231  44.941   0.898
87988W        W49299  35.897  35.479   0.349
87989W        W49300  29.037  40.963   1.426
87990W        W49301  38.410  18.069   2.395
87991W        W49302  10.725  36.455   4.612
87992W        W49303  42.819   7.385  14.956
87993W        W49304  18.107   3.734   3.262
87994W        W49305  39.876  38.856   3.792
87995W        W49306  30.014  36.962   0.373
87996W        W49307  41.008   9.678  14.359
87997W        W49308  38.430  43.975  10.488
87998W        W49309  40.488   2.930  12.517
87999W        W49310  25.574  30.431   5.717
88000W        W49311  24.504  38.547   2.225
88001W        W49312  33.943   9.316   0.930
88002W        W49313  18.138  34.898  13.429
88003W        W49314  40.989  22.713   0.288
88004W        W49315  17.793  42.981   3.835
88005W        W49316  22.128  26.537  12.829
88006W        W49317  12.778  41.320   0.315
88007W        W49318  11.264  10.196   3.151
88008W        W49319  20.034  28.457  12.370
88009W        W49320   7.380  33.073   1.393
88010W        W49321  23.045  22.028   3.203
88011W        W49322  35.566  38.428   3.697
88012W        W49323  41.293   1.950  12.963
88013W        W49324  40.860  26.047  14.989
88014W        W49325  30.586  27.953   5.178
88015W        W49326   7.394  37.576   0.478
88016W        W49327  30.575  43.781   0.305
88017W        W49328  40.472   1.358   2.224
88018W        W49329  33.919  26.600   4.666
88019W        W49330  22.717   6.228  14.812
88020W        W49331  36.076  44.505  13.460
88021W        W49332   2.937  40.345   0.962
88022W        W49333  40.517  33.957   3.639
88023W        W49334   8.225  13.642  12.017
88024W        W49335  22.582  34.394   1.925
88025W        W49336  15.778  44.792  11.868
88026W        W49337  22.134  20.033   3.378
88027W        W49338  32.548  33.592  13.376
88028W        W49339  20.723  24.000   1.843
88029W        W49340   4.810   5.752   0.813
88030W        W49341  43.777  23.733  13.450
88031W        W49342   6.907   7.854   3.824
88032W        W49343   8.223   2.853   3.661
88033W        W49344   1.430  32.530   1.233
88034W        W49345  30.556   3.250  10.911
88035W        W49346   3.330  18.660   5.201
88036W        W49347  31.957  27.016   1.694
88037W        W49348  17.075   8.355   1.435
88038W        W49349  39.482  16.261  12.957
88039W        W49350   1.843  34.584   2.720
88040W        W49351  28.471  22.072  13.947
88041W        W49352   1.741  10.319   3.679
88042W        W49353  30.551  38.413   3.705
88043W        W49354  31.463  38.544  14.030
88044W        W49355  22.715   9.715   9.941
88045W        W49356  35.907  14.788   2.701
88046W        W49357  32.584  23.541   3.159
88047W        W49358  33.889  25.046  13.957
88048W        W49359   1.451   2.369  14.479
88049W        W49360  30.099  23.671  13.394
88050W        W49361  35.075   2.295  14.311
88051W        W49362  16.132  12.656  12.434
88052W        W49363  30.937  33.604  14.848
88053W        W49364  44.438  42.958  14.377
88054W        W49365  29.174  27.997  12.017
88055W        W49366  23.106  18.208   2.297
88056W        W49367   8.379  20.653  11.465
88057W        W49368  12.651  18.208  14.977
88058W        W49369  25.136   9.267   1.787
88059W        W49370  14.335  12.243  13.381
88060W        W49371   4.428  12.243  10.506
88061W        W49372   6.786   7.376   3.802
88062W        W49373  32.547  20.070   1.291
88063W        W49374  31.496   7.774   4.609
88064W        W49375   5.322  24.725   3.668
88065W        W49376  12.846  36.842  13.859
88066W        W49377  13.702  43.437   2.249
88067W        W49378  13.268  29.665   4.671
88068W        W49379  24.210  20.640  14.865
88069W        W49380  14.217  25.158  13.457
88070W        W49381   0.790  14.704  10.547
88071W        W49382   3.428  26.610  14.767
88072W        W49383  44.921  11.779   2.880
88073W        W49384  28.587  40.463   4.633
88074W        W49385  28.554  34.940   4.309
88075W        W49386  18.126  39.854   3.762
88076W        W49387  16.169   0.450  14.871
88077W        W49388  20.153  35.466   3.667
88078W        W49389  16.679  12.711   0.854
88079W        W49390  26.180  13.114  12.383
88080W        W49391  26.975  36.016   1.888
88081W        W49392  20.069  12.144   1.403
88082W        W49393  37.013  14.712   2.218
88083W        W49394   8.233   5.916  14.763
88084W        W49395  35.094  12.721   0.373
88085W        W49396  26.149   6.411  14.507
88086W        W49397  29.428  21.686   4.184
88087W        W49398  26.156  20.105   1.739
88088W        W49399  32.532  39.504   3.253
88089W        W49400  24.009   1.772   2.805
88090W        W49401   4.448  44.259   4.604
88091W        W49402  24.223  10.799  10.517
88092W        W49403  44.470  25.612   9.931
88093W        W49404  14.672  43.963   2.889
88094W        W49405   8.395  29.513   2.805
88095W        W49406  27.655  35.562  13.826
88096W        W49407  20.182  12.674   4.675
88097W        W49408  19.127  35.380   3.230
88098W        W49409   4.828  25.081   9.961
88099W        W49410  18.116  18.723   3.179
88100W        W49411  21.550  19.764   2.381
88101W        W49412  17.286  26.500  13.952
88102W        W49413  37.562  44.403  13.499
88103W        W49414  33.110   5.929   0.291
88104W        W49415   1.461  26.034   1.349
88105W        W49416  14.679   5.200  12.495
88106W        W49417  33.581  22.082  14.435
88107W        W49418   3.840  22.679   4.149
88108W        W49419   8.337   0.335  12.955
88109W        W49420  24.195  39.523  11.925
88110W        W49421  20.586  22.504  13.323
88111W        W49422  11.636  35.928   4.158
88112W        W49423   1.452  29.538  12.380
88113W        W49424  35.580  13.736   0.259
88114W        W49425  30.417  18.767   4.235
88115W        W49426   2.392  11.844   1.448
88116W        W49427   7.377  37.943  14.905
88117W        W49428   7.900  40.983  14.434
88118W        W49429   3.732   3.443   2.287
88119W        W49430  38.052  24.070   0.267
88120W        W49431  43.971   3.309   2.732
88121W        W49432  19.148  21.739  14.923
88122W        W49433   3.296  20.579  12.916
88123W        W49434  14.293  40.907   1.782
88124W        W49435  15.297  40.949  12.940
88125W        W49436  13.648  14.785   3.858
88126W        W49437  36.971  38.041  12.914
88127W        W49438  32.469  36.886   2.249
88128W        W49439  17.255   6.889   3.767
88129W        W49440  39.425  27.491  10.906
88130W        W49441  26.108   1.339  12.833
88131W        W49442  26.540  30.104   2.874
88132W        W49443  23.602  12.628  10.435
88133W        W49444  29.170   1.458   3.181
88134W        W49445  36.846  14.150   3.246
88135W        W49446   0.466  35.936   4.305
88136W        W49447  12.653  30.653   0.914
88137W        W49448  23.637  34.507  11.050
88138W        W49449  33.124  20.226  13.028
88139W        W49450  32.595  14.291  14.496
88140W        W49451  23.136  35.056   4.744
88141W        W49452  44.950  31.026  11.997
88142W        W49453  40.820  25.977  11.003
88143W        W49454  11.368  11.784  12.565
88144W        W49455  42.985  34.607   3.160
88145W        W49456  10.687  14.178  14.944
88146W        W49457  30.523  20.591   1.254
88147W        W49458  19.216  30.470  14.781
88148W        W49459  14.804  28.129   4.692
88149W        W49460  31.507  33.882   1.914
88150W        W49461  21.553  25.624  14.841
88151W        W49462  15.741   4.852  11.978
88152W        W49463  15.786  13.237   3.181
88153W        W49464   8.843  35.425  10.591
88154W        W49465  19.698  10.232  12.390
88155W        W49466  32.516  23.158   1.717
88156W        W49467  27.162   9.796  13.331
88157W        W49468  19.106  29.176   2.404
88158W        W49469  24.136  18.598  14.372
88159W        W49470   2.956   6.396   3.212
88160W        W49471  29.578  20.128  11.079
88161W        W49472   8.274  38.561   2.841
88162W        W49473  14.621   6.822  12.957
88163W        W49474  17.157  17.142   3.161
88164W        W49475  32.031  23.728   1.415
88165W        W49476  42.005   2.318   0.480
88166W        W49477  12.220  36.467  13.382
88167W        W49478  36.424  42.843  13.792
88168W        W49479   0.854   3.843   3.297
88169W        W49480   8.216  34.481   2.335
88170W        W49481  38.409  23.491  10.967
88171W        W49482  15.286   6.899   4.678
88172W        W49483  39.006   3.417   0.841
88173W        W49484  31.117  43.946  11.857
88174W        W49485   2.722  26.597  14.492
88175W        W49486  29.624  18.208   3.708
88176W        W49487  21.059  13.146   1.900
88177W        W49488  11.193  20.105  14.962
88178W        W49489  32.392  11.352   0.827
88179W        W49490   3.307  44.929   2.900
88180W        W49491  11.662  37.376  14.469
88181W        W49492  39.820  15.269   4.805
88182W        W49493   5.356  39.926   4.723
88183W        W49494  35.385  31.490  12.041
88184W        W49495   7.398  18.756  12.463
88185W        W49496  18.254  17.567  10.988
88186W        W49497  30.972  18.161   0.734
88187W        W49498  44.505  36.532  11.516
88188W        W49499  17.686   6.728  12.081
88189W        W49500  27.106  29.112  10.542
88190W        W49501  27.001   0.826   0.875
88191W        W49502  14.229  17.264   1.300
88192W        W49503  35.943  19.637  11.530
88193W        W49504  25.215   2.934  10.465
88194W        W49505  22.155   5.366  10.616
88195W        W49506  36.901  13.187   3.747
88196W        W49507   0.274  28.581  14.902
88197W        W49508  12.139   7.351   4.608
88198W        W49509  38.565  35.064  12.046
88199W        W49510  44.422   4.285  14.826
88200W        W49511  24.142  21.692  11.962
88201W        W49512  23.608  38.455   4.597
88202W        W49513  41.031  12.685   0.467
88203W        W49514   9.864  26.489   0.889
88204W        W49515   5.241  18.143  11.905
88205W        W49516   5.194  22.720  13.525
88206W        W49517  35.590  42.973   2.270
88207W        W49518  28.971  25.600  12.870
88208W        W49519  11.642   7.204   4.312
88209W        W49520  43.887  17.241   2.811
88210W        W49521  14.813  22.631   0.292
88211W        W49522  13.268  42.393  14.774
88212W        W49523  37.917  44.302   1.785
88213W        W49524   8.253  23.124   4.197
88214W        W49525  39.823  32.574   1.876
88215W        W49526  39.861  35.101  12.423
88216W        W49527  42.861  41.335  14.369
88217W        W49528  39.966  11.305   0.465
88218W        W49529  37.083  27.542   5.181
88219W        W49530   7.858  39.826   2.755
88220W        W49531  29.502  11.305  14.278
88221W        W49532   6.188  19.683  11.089
88222W        W49533   9.699   7.804  13.533
88223W        W49534  19.126  23.168  10.545
88224W        W49535  33.978  22.081   0.382
88225W        W49536  42.369  35.108  13.406
88226W        W49537  25.107  43.912  13.831
88227W        W49538  37.864  35.069  13.998
88228W        W49539  43.342   3.422  11.031
88229W        W49540  24.499  41.884   4.354
88230W        W49541  37.011   1.387  10.931
88231W        W49542   8.900  25.589   0.271
88232W        W49543  12.631  44.893  11.457
88233W        W49544  27.072  42.477  12.072
88234W        W49545  41.451   4.219  12.933
88235W        W49546  16.639  12.269   2.891
88236W        W49547   8.285   5.840  12.939
88237W        W49548  37.871  15.236  11.449
88238W        W49549  44.855  35.915   0.415
88239W        W49550  41.337  39.023   3.693
88240W        W49551  44.921  19.563   1.429
88241W        W49552   5.305  18.097  13.873
88242W        W49553  27.990  10.807  12.026
88243W        W49554  19.536   5.348  10.896
88244W        W49555  30.424  23.031  13.977
88245W        W49556  41.472   7.796  14.988
88246W        W49557  14.171  19.711  12.568
88247W        W49558  35.058  28.567   4.151
88248W        W49559  28.183   7.804   3.812
88249W        W49560  32.477  19.241  13.479
88250W        W49561  29.450  36.359  11.895
88251W        W49562  23.534   2.286   1.395
88252W        W49563  37.416  37.028  10.645
88253W        W49564  27.457  22.194   2.690
88254W        W49565   4.809  19.149   1.306
88255W        W49566  26.958   4.362   1.850
88256W        W49567  42.503  13.140   4.208
88257W        W49568   8.773   3.817  14.801
88258W        W49569  35.032  24.563   3.314
88259W        W49570  17.226  30.911   4.337
88260W        W49571  14.737  33.999  13.846
88261W        W49572  19.580  39.008   0.743
88262W        W49573  15.802  12.845  14.764
88263W        W49574  40.881  44.428  13.532
88264W        W49575  24.596  36.903  13.975
88265W        W49576   0.286   5.921  13.345
88266W        W49577  18.571  38.564  14.277
88267W        W49578   4.735  37.364   1.436
88268W        W49579  24.098  23.656   4.740
88269W        W49580   1.327   3.945  12.960
88270W        W49581  31.588   4.708  12.086
88271W        W49582  30.566  20.059  11.544
88272W        W49583  17.673  42.385  13.320
88273W        W49584  44.369  39.402  13.004
88274W        W49585  23.681   0.256  11.855
88275W        W49586  19.216  42.812   0.823
88276W        W49587   9.826  20.540   3.326
88277W        W49588  10.693   4.709   2.362
88278W        W49589   0.269  26.070  14.427
88279W        W49590  10.314  22.514   5.154
88280W        W49591   2.419  30.621  14.962
88281W        W49592   1.825  44.354  12.428
88282W        W49593  27.044  41.482  13.872
88283W        W49594  40.371  42.947   2.865
88284W        W49595  10.797  17.564   1.698
88285W        W49596  44.312  13.684  10.939
88286W        W49597  25.701  15.635   3.727
88287W        W49598  42.802  33.462   2.770
88288W        W49599  22.714  36.992   1.805
88289W        W49600  39.515  13.115  13.960
88290W        W49601  10.302  13.799   1.811
88291W        W49602   3.233  30.954  13.030
88292W        W49603  10.684  25.188   3.830
88293W        W49604  26.469   0.963   3.815
88294W        W49605  30.008   8.748   3.301
88295W        W49606  11.268  43.917  10.529
88296W        W49607  29.051  38.563  11.395
88297W        W49608  25.198  20.598   1.325
88298W        W49609  35.371  41.372   0.374
88299W        W49610  30.421  41.431  14.882
88300W        W49611  10.310  25.690   4.828
88301W        W49612  14.592  35.503   0.335
88302W        W49613  23.064  21.027  11.422
88303W        W49614   5.321   1.932  11.878
88304W        W49615  23.525  35.574   3.696
88305W        W49616  27.672   9.685  10.464
88306W        W49617  33.954  41.991  13.503
88307W        W49618   3.948   7.395  14.875
88308W        W49619  21.595  35.863  14.471
88309W        W49620  42.865  21.695   1.927
88310W        W49621   2.246  10.268   1.262
88311W        W49622  42.905   2.400  11.105
88312W        W49623  20.645   2.430   0.386
88313W        W49624  38.013  31.042   0.909
88314W        W49625  33.536  44.279   2.213
88315W        W49626  11.277   9.681  13.866
88316W        W49627  18.775  43.503  13.823
88317W        W49628  19.174  21.225   3.640
88318W        W49629  11.239  31.587  14.803
88319W        W49630  43.421  33.928   2.826
88320W        W49631  37.987  25.158  13.865
88321W        W49632  38.882  32.045   3.649
88322W        W49633  36.884  20.746   1.837
88323W        W49634   3.235  31.530   3.188
88324W        W49635  37.461  37.534   2.814
88325W        W49636  28.587  12.356   4.631
88326W        W49637  37.984  21.103   0.468
88327W        W49638   5.433  25.690   0.764
88328W        W49639  26.549   6.253  12.051
88329W        W49640  25.055   1.846   0.311
88330W        W49641  12.744  24.018   5.790
88331W        W49642  37.028  13.176   0.961
88332W        W49643  21.600  35.025   1.241
88333W        W49644   8.367  44.488   1.411
88334W        W49645  18.141  12.162  12.914
88335W        W49646  21.640  12.164  14.482
88336W        W49647  21.691   7.860  14.956
88337W        W49648  21.053  39.350   3.788
88338W        W49649  26.465  37.581   1.699
88339W        W49650  13.641  36.002  10.903
88340W        W49651  20.718   4.724   3.719
88341W        W49652  32.069  31.028  13.859
88342W        W49653   6.822   3.715   1.711
88343W        W49654  34.558  37.411   2.831
88344W        W49655   8.667  36.403  10.559
88345W        W49656  14.326  19.283  10.902
88346W        W49657   5.807  19.556   1.380
88347W        W49658   4.450  43.987   3.280
88348W        W49659  19.067  30.429  12.941
88349W        W49660   4.703  38.420   1.334
88350W        W49661   4.213  24.484   0.260
88351W        W49662   8.372  35.109   0.382
88352W        W49663  25.707  26.020   0.390
88353W        W49664  35.080  39.065   0.478
88354W        W49665  27.628  36.037  11.563
88355W        W49666  15.700  34.890   1.267
88356W        W49667  14.119  38.948  14.945
88357W        W49668  17.650  19.195   1.710
88358W        W49669  12.282   1.874  10.588
88359W        W49670  28.048   4.285   4.308
88360W        W49671  43.275  33.572  11.062
88361W        W49672  44.402  14.304   3.822
88362W        W49673  28.636  35.938   2.751
88363W        W49674  34.388  42.890   0.311
88364W        W49675   5.834  25.569   0.863
88365W        W49676  14.597  14.709   4.241
88366W        W49677   2.431  12.147  12.476
88367W        W49678  36.960  22.533   3.310
88368W        W49679  28.456   0.309   0.478
88369W        W49680  14.197  10.735   3.719
88370W        W49681   8.668  34.114   4.687
88371W        W49682   7.175  21.163   0.748
88372W        W49683   2.766   0.755  12.535
88373W        W49684  29.429  26.195  11.434
88374W        W49685  43.809  11.732  14.890
88375W        W49686  27.537  20.245  10.614
88376W        W49687  44.837  34.000   3.173
88377W        W49688  44.344  14.166  10.430
88378W        W49689  15.312  23.552   1.798
88379W        W49690  37.533  40.492  13.035
88380W        W49691  37.451  32.084  12.408
88381W        W49692   4.856  16.273   4.673
88382W        W49693  15.702   1.330   1.913
88383W        W49694  13.714  43.973  12.486
88384W        W49695  20.034  35.391   0.800
88385W        W49696  13.606   1.412  13.859
88386W        W49697  22.165  34.900   3.294
88387W        W49698  31.069  10.164  10.643
88388W        W49699  42.926   0.764   1.799
88389W        W49700   7.337   4.913   0.771
88390W        W49701   6.767  25.667   2.717
88391W        W49702  12.700   0.951   4.680
88392W        W49703   6.184  29.515  14.980
88393W        W49704   7.293  22.037   0.325
88394W        W49705  35.602  23.039  11.991
88395W        W49706  28.614  24.009  11.401
88396W        W49707   5.398  33.545   1.437
88397W        W49708  24.153  29.585  14.022
88398W        W49709  13.751  19.071  12.980
88399W        W49710  28.060  43.930  12.545
88400W        W49711  22.212  10.255   2.833
88401W        W49712  23.490  16.585   1.230
88402W        W49713  25.190  15.794  14.354
88403W        W49714  34.960  39.419   0.462
88404W        W49715   4.443  37.520  11.965
88405W        W49716  26.566  11.818  13.982
88406W        W49717  30.554  26.074   1.349
88407W        W49718  34.563  11.716  11.027
88408W        W49719  23.719  22.537   3.363
88409W        W49720  26.153   2.252  13.395
88410W        W49721  33.595   9.166   2.205
88411W        W49722  19.171  19.636   2.700
88412W        W49723  18.277   3.922   0.322
88413W        W49724  31.951  15.190  13.878
88414W        W49725  25.191  41.378  13.393
88415W        W49726  25.113  22.014  11.408
88416W        W49727  43.810  42.527   0.472
88417W        W49728  41.003  21.062   2.242
88418W        W49729  20.066  35.049   0.314
88419W        W49730   9.392  22.080   1.850
88420W        W49731  24.539  34.980   3.836
88421W        W49732  19.120  21.531   1.331
88422W        W49733  22.536  27.994   3.757
88423W        W49734  15.600  25.176   0.307
88424W        W49735  18.217  12.779   3.696
88425W        W49736  29.103  13.658   4.178
88426W        W49737   8.731   1.961   3.765
88427W        W49738  11.866  28.559  10.425
88428W        W49739   8.765  41.521  10.970
88429W        W49740  11.757  20.046  12.979
88430W        W49741   3.350  13.780   3.751
88431W        W49742  43.320  20.104  10.604
88432W        W49743  35.600  19.557   0.477
88433W        W49744  26.127  20.620  13.381
88434W        W49745  38.058  14.130  14.006
88435W        W49746  22.232  22.226   2.829
88436W        W49747  37.058  24.105   4.608
88437W        W49748  26.019  24.545   2.380
88438W        W49749   7.717  25.983   0.933
88439W        W49750  16.712   6.710   4.324
88440W        W49751   7.789  32.129  10.618
88441W        W49752  27.128  20.056   2.198
88442W        W49753  11.868  31.001   3.179
88443W        W49754  27.184   0.924  13.533
88444W        W49755  27.036  35.893   3.380
88445W        W49756  43.341   8.716  13.909
88446W        W49757  43.929  30.161  14.798
88447W        W49758   0.793  36.472   0.445
88448W        W49759  12.805   1.438  11.604
88449W        W49760   4.848  31.104  11.025
88450W        W49761  41.000  34.538   0.748
88451W        W49762  21.602  17.149   0.772
88452W        W49763  21.663  15.210  13.473
88453W        W49764  11.697  34.959   3.819
88454W        W49765  28.668  43.948  12.032
88455W        W49766   7.843  20.733  13.509
88456W        W49767  26.987  11.367   4.140
88457W        W49768  42.025  38.547   1.911
88458W        W49769   9.823  42.350   0.771
88459W        W49770  42.833  24.619   4.335
88460W        W49771  40.461   0.954  10.479
88461W        W49772   0.762  40.893   1.935
88462W        W49773  10.256  18.555  11.525
88463W        W49774  39.840   3.223  12.020
88464W        W49775  13.338  35.022  12.973
88465W        W49776   9.345  12.119  13.020
88466W        W49777  20.685  33.489   4.341
88467W        W49778   2.252  20.617  11.084
88468W        W49779   8.302  29.954  12.523
88469W        W49780  25.185  25.968  12.451
88470W        W49781  39.964  26.035  12.044
88471W        W49782  12.230  42.836   2.314
88472W        W49783  22.160   8.200  12.862
88473W        W49784   3.264  10.782  11.533
88474W        W49785   0.900  24.992  14.310
88475W        W49786  33.592   6.353  14.925
88476W        W49787  19.203  14.330   3.770
88477W        W49788  36.355  20.759   4.624
88478W        W49789  17.070  23.060   0.776
88479W        W49790   8.284  33.452  14.796
88480W        W49791  33.085  29.094  10.979
88481W        W49792  11.806  14.832   4.133
88482W        W49793  23.685  17.754   0.366
88483W        W49794  34.440  17.166   0.318
88484W        W49795  44.411  40.006   1.358
88485W        W49796  32.116  41.349  10.604
88486W        W49797  25.568  13.172   4.680
88487W        W49798  34.509  13.699  10.530
88488W        W49799  25.651   1.400   3.736
88489W        W49800  26.528  36.579   3.158
88490W        W49801  15.750  11.159  12.095
88491W        W49802   0.766  22.072  11.048
88492W        W49803   3.712   9.858  11.084
88493W        W49804  16.642  16.604   1.815
88494W        W49805  18.682  16.682   2.343
88495W        W49806  23.033   1.453  13.040
88496W        W49807   6.365  23.494  11.515
88497W        W49808   4.718  25.153   2.709
88498W        W49809  31.958  12.831   0.794
88499W        W49810  25.004  36.584   0.391
88500W        W49811  34.961  41.528   1.842
88501W        W49812  33.388  22.508   1.358
88502W        W49813  43.799   7.833   0.467
88503W        W49814   3.858   1.797   5.099
88504W        W49815  19.751  29.575   4.783
88505W        W49816  24.095  37.013   2.178
88506W        W49817  42.320  17.703  14.351
88507W        W49818  39.842  29.979   3.716
88508W        W49819  41.841  33.614  10.533
88509W        W49820  44.444  36.378  13.828
88510W        W49821  23.100  29.621  13.981
88511W        W49822  39.409  21.649  12.425
88512W        W49823   3.863  32.915   0.401
88513W        W49824  24.174   6.902   4.153
88514W        W49825  26.015  24.672   1.766
88515W        W49826  25.130  31.602   3.720
88516W        W49827  17.706   4.444   3.310
88517W        W49828  17.180  32.004   2.871
88518W        W49829  14.716  32.965   3.868
88519W        W49830  11.673  37.915  12.970
88520W        W49831  37.527   1.875  13.040
88521W        W49832  44.420  29.640  14.926
88522W        W49833   5.905  18.112  14.922
88523W        W49834  22.632  28.591  12.457
88524W        W49835  31.629  24.223   4.817
88525W        W49836  18.779   5.319   0.868
88526W        W49837  24.644  18.100   2.896
88527W        W49838  33.940  20.243   2.399
88528W        W49839  39.029  41.372   4.336
88529W        W49840  17.079  10.251   2.322
88530W        W49841   5.719   8.284   3.316
88531W        W49842  23.064   1.352   1.880
88532W        W49843   1.741  15.788   1.445
88533W        W49844  23.512  17.592  11.951
88534W        W49845  28.499   0.748  13.047
88535W        W49846   8.330  12.282  13.794
88536W        W49847  10.279  42.495   2.840
88537W        W49848   2.748  18.743  13.998
88538W        W49849  20.713  18.072  13.955
88539W        W49850  12.273  36.037   1.287
88540W        W49851  26.160   1.286  13.879
88541W        W49852   6.333  26.532  10.520
88542W        W49853  37.449  11.747  13.008
88543W        W49854  15.635  35.520   4.828
88544W        W49855   1.314  29.455   4.270
88545W        W49856  33.621  19.777  12.376
88546W        W49857   7.729   7.417  14.398
88547W        W49858  33.972  39.358   3.810
88548W        W49859   0.872  23.124  11.110
88549W        W49860   2.253   2.804   2.756
88550W        W49861  26.556  43.004   3.681
88551W        W49862  38.892  30.471  11.437
88552W        W49863  30.016  39.886   1.839
88553W        W49864  43.973  24.034  14.474
88554W        W49865   8.178   1.397   1.380
88555W        W49866  20.101   8.169   2.263
88556W        W49867  27.612   1.398   4.145
88557W        W49868  27.132   3.355   5.279
88558W        W49869  23.693  18.791  11.077
88559W        W49870  27.462  27.453   1.931
88560W        W49871  20.179  18.252   0.761
88561W        W49872  10.201  25.079   0.850
88562W        W49873  19.630  25.573  14.516
88563W        W49874   3.785  31.094  14.985
88564W        W49875  24.009  16.072   2.899
88565W        W49876  38.069  36.587  11.109
88566W        W49877   2.817  18.772   2.700
88567W        W49878  26.147  20.142   3.708
88568W        W49879   8.189  25.994  14.771
88569W        W49880   3.453  17.084   2.755
88570W        W49881  10.341   1.270  11.464
88571W        W49882  43.910  43.819  11.562
88572W        W49883   6.813   1.447  10.546
88573W        W49884  43.809  25.500   3.649
88574W        W49885   5.829   8.331  13.014
88575W        W49886  13.282  19.724  14.289
88576W        W49887   9.328  13.319  12.842
88577W        W49888   1.304  10.871  14.476
88578W        W49889  35.096  28.478  13.499
88579W        W49890  34.402   5.762   4.813
88580W        W49891  24.045  21.134   0.252
88581W        W49892  14.106  43.375  12.865
88582W        W49893  44.803  33.940   1.932
88583W        W49894  25.582  40.405   2.737
88584W        W49895  44.440  34.544  12.830
88585W        W49896  40.933  24.721   0.275
88586W        W49897  17.241  29.445   1.886
88587W        W49898  25.530  11.863   4.838
88588W        W49899  12.271  21.581  11.013
88589W        W49900  21.612  31.068   2.254
88590W        W49901   0.449  13.346   1.921
88591W        W49902  12.716  17.600  13.319
88592W        W49903  19.269  29.062  11.033
88593W        W49904   5.843   0.439  13.978
88594W        W49905  36.346  42.510  13.890
88595W        W49906  31.106  19.071   3.296
88596W        W49907  40.837  41.938   1.882
88597W        W49908  36.592  14.121  10.511
88598W        W49909  42.463  33.014  14.355
88599W        W49910  18.618  42.983  13.375
88600W        W49911  30.070   5.898  11.475
88601W        W49912  18.780  33.957   0.820
88602W        W49913  11.165  21.022   2.824
88603W        W49914  19.762  30.485   4.129
88604W        W49915  39.511  14.820   0.347
88605W        W49916  44.464  31.533  13.031
88606W        W49917  10.825   5.295  11.436
88607W        W49918   9.728  30.093  10.470
88608W        W49919  11.201  39.031  12.519
88609W        W49920  32.019   3.408  11.485
88610W        W49921  33.073  39.423   4.675
88611W        W49922  30.453  13.784   3.265
88612W        W49923  42.950  17.608  13.408
88613W        W49924   3.286  35.983  13.368
88614W        W49925  39.486  31.956   2.358
88615W        W49926  26.149  24.095  12.535
88616W        W49927  36.440   7.700  12.917
88617W        W49928  17.689  28.472  11.084
88618W        W49929  36.433   0.336  11.005
88619W        W49930  34.381  28.012  10.625
88620W        W49931   1.746   2.806   0.299
88621W        W49932  26.691  35.602  13.421
88622W        W49933  33.971  31.590   3.866
88623W        W49934  10.735   0.256   0.338
88624W        W49935  17.068  33.907   1.347
88625W        W49936  23.129  41.975  10.484
88626W        W49937  38.444   9.867   3.347
88627W        W49938  23.112   7.314   2.261
88628W        W49939  38.558  13.665   0.372
88629W        W49940  44.313  18.279   5.241
88630W        W49941  44.928  29.524   3.668
88631W        W49942   1.241  37.357  14.869
88632W        W49943  16.117  19.774   4.164
88633W        W49944  32.606  25.610   0.829
88634W        W49945  33.944  12.303   1.815
88635W        W49946  35.595  32.551   3.307
88636W        W49947  10.760  34.495   4.599
88637W        W49948  28.498  42.320   3.158
88638W        W49949  20.641  40.934  12.017
88639W        W49950  35.094  12.741  14.513
88640W        W49951  40.527  32.068  13.322
88641W        W49952  34.086   1.886  12.381
88642W        W49953  43.975  22.562  14.870
88643W        W49954  25.476  17.710   2.762
88644W        W49955  18.724  30.483  10.504
88645W        W49956  44.437  15.254   3.865
88646W        W49957  28.971  33.105   4.282
88647W        W49958  37.898  19.072   2.299
88648W        W49959   1.353  22.579  10.551
88649W        W49960  29.001  44.815   4.666
88650W        W49961   3.915  31.932  10.487
88651W        W49962  39.532  42.316   3.299
88652W        W49963   3.369   3.433  11.602
88653W        W49964  36.520  32.034  12.478
88654W        W49965  26.054  38.857   4.829
88655W        W49966  37.880   8.189  11.426
88656W        W49967  27.633   4.753  14.307
88657W        W49968  29.518   7.205  13.946
88658W        W49969  43.960  41.886   3.381
88659W        W49970  40.358  29.144  10.571
88660W        W49971  34.427  35.483  11.918
88661W        W49972  14.728  41.297   2.382
88662W        W49973  28.439  41.892   3.688
88663W        W49974  41.359   2.469  13.796
88664W        W49975   3.383   8.303  12.078
88665W        W49976  32.076  34.975   4.344
88666W        W49977  11.651  35.402  11.575
88667W        W49978   1.303  24.100  14.865
88668W        W49979  26.646  39.060   1.852
88669W        W49980   1.805  23.107  10.608
88670W        W49981  14.797  44.391  14.495
88671W        W49982  23.986  37.082  12.853
88672W        W49983   2.398  22.029   0.846
88673W        W49984  14.225  32.047  11.070
88674W        W49985  18.142  36.392   0.779
88675W        W49986  10.353  28.584  13.363
88676W        W49987  14.202  32.569   1.787
88677W        W49988  28.483   8.665  14.957
88678W        W49989  38.838  17.616  11.001
88679W        W49990  33.615  20.223   3.865
88680W        W49991   5.702  41.374  11.512
88681W        W49992  22.179  43.450  10.622
88682W        W49993  30.029  27.451   4.697
88683W        W49994  24.183  13.765  13.491
88684W        W49995  13.264  28.017  14.975
88685W        W49996  25.644  35.539  10.484
88686W        W49997   4.396  20.752   0.400
88687W        W49998  30.505  10.348   3.809
88688W        W49999   9.391  36.428  12.477
88689W        W50000  36.401  28.094  10.518
88690W        W50001  27.154  21.537   4.732
88691W        W50002  29.592  31.904   3.277
88692W        W50003  34.987  22.053   2.771
88693W        W50004  32.903  29.128   0.931
88694W        W50005   5.909  13.661   4.832
88695W        W50006  24.093  21.624   4.285
88696W        W50007  19.178  24.029   2.361
88697W        W50008  42.483  19.119  14.988
88698W        W50009  27.478  13.732   0.772
88699W        W50010   8.849  39.554   3.803
88700W        W50011  29.453   9.325  13.321
88701W        W50012  20.035  40.359  10.907
88702W        W50013   8.859  25.652   1.265
88703W        W50014   1.859  21.181   4.141
88704W        W50015  27.960  39.514   0.249
88705W        W50016  41.828  37.502  13.357
88706W        W50017  18.708  30.464   2.750
88707W        W50018  23.138  33.092  13.311
88708W        W50019  35.439   8.848  14.428
88709W        W50020   2.421  18.656   0.370
88710W        W50021  21.552  39.946  14.471
88711W        W50022  16.230  35.441  11.528
88712W        W50023   5.338  35.366  11.112
88713W        W50024  29.595   6.230  14.919
88714W        W50025  42.412  18.728  11.105
88715W        W50026  24.230  13.803  11.440
88716W        W50027   9.821  37.356   3.305
88717W        W50028  32.108  21.231  11.523
88718W        W50029  39.964  40.803   2.864
88719W        W50030  22.650   3.938  13.382
88720W        W50031  16.301  44.443  13.974
88721W        W50032  12.758  33.882  13.538
88722W        W50033  21.067  25.664   4.328
88723W        W50034  31.590  26.985  14.010
88724W        W50035   0.817  30.161  12.535
88725W        W50036  36.006  14.639   3.327
88726W        W50037  34.060  43.961   1.448
88727W        W50038  43.819  34.496   1.410
88728W        W50039  16.761   6.429   1.891
88729W        W50040  14.262  24.205  13.436
88730W        W50041  26.096  31.059   1.249
88731W        W50042  14.805  26.581  14.817
88732W        W50043  37.386  14.289   1.432
88733W        W50044   2.313  24.229   4.231
88734W        W50045   2.258  38.952   3.380
88735W        W50046  39.447  20.230   3.793
88736W        W50047  19.083  21.237  14.445
88737W        W50048  31.030  38.404  11.958
88738W        W50049  14.329   8.357  10.585
88739W        W50050  12.846  39.869   0.934
88740W        W50051  31.103  19.735  10.543
88741W        W50052  28.554  13.841   0.906
88742W        W50053  43.771  21.132  14.907
88743W        W50054   3.865   0.339  12.399
88744W        W50055  31.057   9.785  12.382
88745W        W50056  24.671  10.147  11.408
88746W        W50057   4.366  26.655  12.059
88747W        W50058   4.324  38.346   3.321
88748W        W50059  13.120  37.054   1.404
88749W        W50060  12.339  11.184   4.245
88750W        W50061  32.507   9.835   1.215
88751W        W50062  44.442  25.623   0.775
88752W        W50063  16.124  33.616  12.095
88753W        W50064   2.415  24.161   2.866
88754W        W50065  37.015  31.500   3.320
88755W        W50066  24.162  29.072  12.358
88756W        W50067  21.725  40.997   5.262
88757W        W50068  13.301   1.873   1.894
88758W        W50069  15.708  43.887   1.895
88759W        W50070  19.139  11.127   0.448
88760W        W50071  41.305  11.824   2.262
88761W        W50072   9.887  23.185  11.867
88762W        W50073   1.244  32.055  10.444
88763W        W50074  10.226  13.178   3.664
88764W        W50075  15.122  16.624  13.460
88765W        W50076   4.897  23.993  12.469
88766W        W50077  41.858  17.084  11.445
88767W        W50078  26.087   8.738  13.545
88768W        W50079   6.696  30.446  14.965
88769W        W50080  13.775  22.036  11.059
88770W        W50081  27.151  35.896  13.869
88771W        W50082  26.507   4.362  14.276
88772W        W50083   4.798  22.596  14.878
88773W        W50084  11.776  18.077  11.864
88774W        W50085  35.969  23.134  10.625
88775W        W50086  21.102  36.448  10.895
88776W        W50087  35.049   8.382  11.498
88777W        W50088  35.409  31.995  14.015
88778W        W50089  16.279   6.756   1.346
88779W        W50090  34.928   5.931   3.330
88780W        W50091  13.714  29.094  13.939
88781W        W50092   1.787  25.601  13.872
88782W        W50093  42.481  29.605   4.819
88783W        W50094  42.511  43.465  13.990
88784W        W50095  15.589  35.583  14.330
88785W        W50096  27.967  21.199   4.312
88786W        W50097  18.653  44.466  10.618
88787W        W50098  20.118  11.143   3.713
88788W        W50099  39.964  13.664   3.233
88789W        W50100  25.058   8.244   0.297
88790W        W50101  31.149   2.230   4.205
88791W        W50102  37.973   7.696   4.306
88792W        W50103  36.077   7.867   2.853
88793W        W50104  29.092  31.909   3.155
88794W        W50105  37.415  35.863  12.475
88795W        W50106  26.671   3.228   0.825
88796W        W50107  41.475  15.328  11.038
88797W        W50108  28.046   5.846  13.474
88798W        W50109  28.538  31.081   1.362
88799W        W50110  41.817  32.089  10.459
88800W        W50111  18.094  30.044  14.931
88801W        W50112  43.802  32.620   1.811
88802W        W50113   8.266  17.780   4.771
88803W        W50114   8.865  11.348  14.944
88804W        W50115  26.058  22.995  13.475
88805W        W50116   6.741  39.821  13.495
88806W        W50117  12.316  10.285  12.910
88807W        W50118  10.815  22.538   3.332
88808W        W50119  22.642  39.346  13.040
88809W        W50120   1.276  20.226   0.896
88810W        W50121  43.407  40.832   0.450
88811W        W50122  13.784   3.773   0.330
88812W        W50123  29.443  20.128   1.414
88813W        W50124   3.429  33.516   1.784
88814W        W50125  32.394   1.245   3.313
88815W        W50126  19.724  16.629  12.085
88816W        W50127  10.276  18.207  11.426
88817W        W50128  34.078  33.509  13.820
88818W        W50129  25.125  24.528   2.322
88819W        W50130  19.638  16.745   1.423
88820W        W50131  34.089  24.203  12.955
88821W        W50132  12.359  26.528   3.261
88822W        W50133  35.423   6.712  14.308
88823W        W50134  15.701   6.243   0.287
88824W        W50135  33.064  43.357   2.218
88825W        W50136  26.031  40.961   3.708
88826W        W50137  19.732   4.861  10.131
88827W        W50138   5.420   8.843  11.928
88828W        W50139   0.411  28.174   4.239
88829W        W50140  22.675  34.924   3.296
88830W        W50141  14.834  36.536  11.073
88831W        W50142  33.111   5.251   0.477
88832W        W50143  16.158  11.685   3.156
88833W        W50144  26.006   3.768   0.420
88834W        W50145  21.592  21.757  13.863
88835W        W50146  32.008  34.074   3.792
88836W        W50147  34.911  39.985   2.809
88837W        W50148   0.905  18.118   3.780
88838W        W50149  10.326  34.921   4.636
88839W        W50150  41.947  13.309   1.892
88840W        W50151  12.324  25.191   3.359
88841W        W50152  25.126  16.188   4.781
88842W        W50153  17.302  30.514   4.226
88843W        W50154   0.275   4.768  13.469
88844W        W50155   4.248  29.567   3.250
88845W        W50156   5.794  42.938  14.764
88846W        W50157  43.990  24.577  10.645
88847W        W50158  13.135  20.238   4.291
88848W        W50159  31.094   3.443  12.906
88849W        W50160  30.104  38.335   4.807
88850W        W50161  16.720  12.710   2.280
88851W        W50162  13.754  38.564   1.356
88852W        W50163   7.266  17.788  12.369
88853W        W50164  40.481  20.690   1.264
88854W        W50165  36.356  33.467  12.841
88855W        W50166   8.845  42.449  14.820
88856W        W50167  30.075  20.674   2.888
88857W        W50168   6.378  34.925  10.942
88858W        W50169  12.709  28.635   1.838
88859W        W50170  34.956   0.882  10.120
88860W        W50171   7.869  44.962   0.752
88861W        W50172  31.927   0.852  12.889
88862W        W50173  13.255   0.330   2.723
88863W        W50174  33.618  22.051  11.004
88864W        W50175  26.540   7.743  14.791
88865W        W50176  37.017  38.526  13.440
88866W        W50177  29.518  15.732  14.398
88867W        W50178  17.129   5.816   4.143
88868W        W50179  23.103  31.990  12.509
88869W        W50180   7.828  29.943  13.951
88870W        W50181  29.058  13.807  11.448
88871W        W50182  38.527  39.453  11.470
88872W        W50183   4.938  21.602  12.578
88873W        W50184   5.874  16.667  11.857
88874W        W50185  14.759  18.629  13.009
88875W        W50186  17.762  17.091  10.902
88876W        W50187   2.769  17.789   4.276
88877W        W50188   6.413  33.948   1.927
88878W        W50189  42.885  29.068  11.067
88879W        W50190   3.902  23.492  11.884
88880W        W50191  15.645  16.293   2.296
88881W        W50192  32.529  36.085   0.444
88882W        W50193  35.444  12.635  12.521
88883W        W50194  21.599  15.615   3.825
88884W        W50195  33.606  10.203  14.991
88885W        W50196   9.786  13.702  12.565
88886W        W50197   9.193  37.428  11.426
88887W        W50198  11.341  40.373   2.835
88888W        W50199  34.478   5.724  13.371
88889W        W50200   2.756  10.270  12.908
88890W        W50201  44.434  37.026   4.304
88891W        W50202  20.595  43.457  13.365
88892W        W50203  23.240  22.225   1.861
88893W        W50204  19.612  33.999  11.024
88894W        W50205  33.624   7.786   0.957
88895W        W50206  32.491  25.016   3.194
88896W        W50207  41.041   4.253   3.147
88897W        W50208  14.221   2.767   5.791
88898W        W50209  42.921  39.881  14.964
88899W        W50210  18.071   6.185   1.715
88900W        W50211   5.857  10.689  13.473
88901W        W50212  16.686  26.995   0.867
88902W        W50213   1.924  17.118   4.837
88903W        W50214  35.924  12.774  12.848
88904W        W50215   5.864  19.121   3.640
88905W        W50216  39.361  23.022   0.744
88906W        W50217  38.072  31.412  14.839
88907W        W50218  26.512  13.645   1.783
88908W        W50219  35.084   5.193   1.889
88909W        W50220  22.673  43.817  10.505
88910W        W50221  40.027  16.808  13.811
88911W        W50222  15.665  19.089   2.763
88912W        W50223  35.441  27.648  11.923
88913W        W50224  44.268  41.023   0.427
88914W        W50225   0.386  34.065  10.626
88915W        W50226  39.824  29.646   1.904
88916W        W50227  10.744  20.175  12.937
88917W        W50228  18.669  15.722  13.939
88918W        W50229   5.274  17.801  10.021
88919W        W50230  14.803   6.253  13.334
88920W        W50231  10.327  22.631   2.227
88921W        W50232  24.160  10.289   4.807
88922W        W50233  18.052  11.695  12.996
88923W        W50234  16.670   9.663  10.533
88924W        W50235  10.875   3.369   2.809
88925W        W50236  15.721  31.970   5.264
88926W        W50237  16.718  15.276  13.815
88927W        W50238  36.865  31.549   0.855
88928W        W50239   2.260  14.652  11.417
88929W        W50240  32.577  27.449   0.954
88930W        W50241  38.368   8.196   2.275
88931W        W50242  34.424  20.705   0.368
88932W        W50243  41.841  24.604   4.178
88933W        W50244  38.962  26.593  14.396
88934W        W50245  18.620  41.931   3.760
88935W        W50246   2.456   6.730   2.827
88936W        W50247   2.400  18.292   2.720
88937W        W50248   4.922  29.976   3.719
88938W        W50249  32.577  25.207  11.946
88939W        W50250  30.072  31.087  11.526
88940W        W50251  24.140  15.281   4.243
88941W        W50252  22.697  36.393   2.809
88942W        W50253  43.972  41.989   2.828
88943W        W50254   3.738  29.543  14.898
88944W        W50255  11.848  31.416  13.518
88945W        W50256  32.417  37.488  13.036
88946W        W50257   1.375  10.753   4.795
88947W        W50258  37.846  18.177  12.929
88948W        W50259   2.277  24.169   2.243
88949W        W50260  43.847  25.575  14.411
88950W        W50261   6.820  33.123  11.956
88951W        W50262   4.850   2.930   4.201
88952W        W50263   8.301  37.356   2.352
88953W        W50264   8.750  43.994   4.685
88954W        W50265   0.432  32.981  13.537
88955W        W50266  15.253  16.761  10.474
88956W        W50267  23.044  27.603   0.261
88957W        W50268  23.991  15.327  14.936
88958W        W50269   6.196  20.680  14.886
88959W        W50270   5.844  25.183   4.671
88960W        W50271  41.869  38.886  10.964
88961W        W50272  25.645  31.991  12.460
88962W        W50273  31.641  26.154  11.492
88963W        W50274  17.159  31.593   0.290
88964W        W50275  17.211  11.623   1.347
88965W        W50276  22.129   8.265  14.802
88966W        W50277   0.875   0.985   9.980
88967W        W50278  35.951   7.176  13.927
88968W        W50279  25.085  34.503  10.496
88969W        W50280  12.694  20.225  10.607
88970W        W50281  42.936  31.429   1.787
88971W        W50282  29.565  12.743  14.353
88972W        W50283  28.100  12.721  13.901
88973W        W50284  41.441  12.671  11.418
88974W        W50285  38.917  21.612  12.845
88975W        W50286  17.302  43.460   1.827
88976W        W50287  11.158  23.508   3.333
88977W        W50288  37.031  22.586   2.400
88978W        W50289  27.622  33.392   0.395
88979W        W50290  40.438  35.395   0.831
88980W        W50291   3.277  23.046   3.368
88981W        W50292  31.929  20.583  13.867
88982W        W50293  42.501   5.764  14.858
88983W        W50294  42.344   8.661   3.205
88984W        W50295  42.486   9.301   0.451
88985W        W50296  14.245  14.775   0.957
88986W        W50297  33.562  16.666  11.995
88987W        W50298  19.651  17.087   1.755
88988W        W50299  10.702  16.296  11.609
88989W        W50300  43.923  29.046  12.508
88990W        W50301  34.046  28.983  13.007
88991W        W50302  17.126  41.524   2.408
88992W        W50303  34.599  44.813  10.505
88993W        W50304  37.897  17.581  14.856
88994W        W50305  34.576   4.297  14.800
88995W        W50306  40.016  17.627  12.395
88996W        W50307   2.832   7.315   3.327
88997W        W50308  18.751   1.856  13.483
88998W        W50309   7.284  22.205   3.221
88999W        W50310   1.443  38.436  12.904
89000W        W50311  39.018  27.979  11.609
89001W        W50312  14.204  14.710  11.446
89002W        W50313  31.008  10.268  14.864
89003W        W50314   0.344  39.927   4.350
89004W        W50315  18.283  33.032  12.832
89005W        W50316   6.281  10.326  13.973
89006W        W50317  25.081  24.515  14.854
89007W        W50318  20.561  36.859  12.961
89008W        W50319  16.218   5.877  14.419
89009W        W50320  42.410   6.869  10.569
89010W        W50321   0.965  13.744   3.767
89011W        W50322   8.712  26.089  11.865
89012W        W50323  37.914  36.532  14.916
89013W        W50324   9.177   7.371   4.781
89014W        W50325  12.313  10.651  13.356
89015W        W50326  30.968  43.360   4.785
89016W        W50327   8.762  13.139   1.420
89017W        W50328   6.874   8.192   4.617
89018W        W50329   3.284  23.717   2.861
89019W        W50330  23.682  30.919  10.891
89020W        W50331  38.335   6.867  12.093
89021W        W50332  38.934  22.562   4.707
89022W        W50333  21.021  29.089   3.797
89023W        W50334   0.452  20.641   3.798
89024W        W50335  34.872   8.660   4.134
89025W        W50336   9.695   9.199   3.781
89026W        W50337  42.429  29.048   4.250
89027W        W50338   7.907  22.015  12.341
89028W        W50339  22.176  25.569  14.845
89029W        W50340  31.643   5.215   1.340
89030W        W50341  23.705  36.386   2.247
89031W        W50342  35.392   0.386   2.415
89032W        W50343  21.218   7.298   2.191
89033W        W50344  24.010  36.570   4.763
89034W        W50345  19.708  13.794  11.522
89035W        W50346  15.798  16.268   3.207
89036W        W50347   3.880  38.876  11.884
89037W        W50348   7.689   5.807   1.407
89038W        W50349  44.834  19.072   1.726
89039W        W50350  38.071   6.703   0.428
89040W        W50351   7.301  24.013   0.831
89041W        W50352  35.882  18.112   0.876
89042W        W50353  31.437  40.826  12.457
89043W        W50354  20.719  18.643  10.422
89044W        W50355  20.685  43.999  10.981
89045W        W50356   4.282  21.237  14.302
89046W        W50357  21.600  11.367   4.654
89047W        W50358  32.990  25.537   3.780
89048W        W50359  44.900  25.636   1.281
89049W        W50360   3.832   8.188   2.398
89050W        W50361   6.237  44.434   4.618
89051W        W50362   4.836  14.815  10.510
89052W        W50363   9.200   8.405   2.262
89053W        W50364  11.838  25.483  13.001
89054W        W50365  11.666  29.989   3.293
89055W        W50366  28.654  39.841   3.825
89056W        W50367   1.361  12.821  12.904
89057W        W50368  34.882  17.215  11.926
89058W        W50369  21.192  43.331   2.328
89059W        W50370  29.085  32.472  11.118
89060W        W50371  39.904   9.186  12.546
89061W        W50372  39.827   0.417  14.922
89062W        W50373  39.331  44.764   3.672
89063W        W50374  24.707  14.184   2.370
89064W        W50375   7.822  12.680  14.990
89065W        W50376  23.104  21.631   2.785
89066W        W50377  11.241  21.224  14.296
89067W        W50378  32.074   2.937   1.879
89068W        W50379  20.206  24.212   2.827
89069W        W50380  27.995  36.034   3.710
89070W        W50381  28.574   2.794   4.291
89071W        W50382  22.647  29.141  14.361
89072W        W50383  20.137  35.444  11.584
89073W        W50384  22.236  20.100   1.829
89074W        W50385  20.692  30.922  14.883
89075W        W50386  25.544  43.356  12.497
89076W        W50387   7.189  42.525  10.428
89077W        W50388  34.972  20.056   0.959
89078W        W50389  39.050   4.741  14.973
89079W        W50390  21.104  42.312   3.667
89080W        W50391  16.287  21.057  11.401
89081W        W50392  32.543   1.909  12.485
89082W        W50393  16.645  12.719   4.628
89083W        W50394  25.590   2.803   4.176
89084W        W50395   2.317  42.814   2.714
89085W        W50396  25.161  38.478  14.973
89086W        W50397  40.430  35.070   1.249
89087W        W50398  14.819  28.080  12.389
89088W        W50399  41.881  20.216   0.790
89089W        W50400  40.933  38.025   1.279
89090W        W50401  32.922  30.521  10.482
89091W        W50402  17.785  26.207   1.265
89092W        W50403   1.241  24.104  12.538
89093W        W50404  20.721  42.995   2.276
89094W        W50405  40.966  39.365  11.438
89095W        W50406  28.452  30.624   2.353
89096W        W50407  29.980  12.244   2.793
89097W        W50408  25.081  38.993  10.497
89098W        W50409   0.754  26.069  11.372
89099W        W50410  16.176  39.881   1.317
89100W        W50411  14.162  31.927   3.357
89101W        W50412  28.035  10.805   1.423
89102W        W50413  26.039  27.073  13.938
89103W        W50414  26.682  31.091   1.272
89104W        W50415  43.350  15.105  13.052
89105W        W50416  37.449  32.548  10.532
89106W        W50417  35.038  12.344   0.843
89107W        W50418  35.461  11.701  10.405
89108W        W50419   7.346   4.256  13.810
89109W        W50420   7.809  13.141   2.696
89110W        W50421   1.762   7.759  14.319
89111W        W50422  42.792  31.598   4.607
89112W        W50423   8.285  32.527  13.525
89113W        W50424  23.210  32.027  13.833
89114W        W50425   9.661  22.633   2.841
89115W        W50426   9.264   4.330   2.258
89116W        W50427  24.202   4.384  13.943
89117W        W50428  32.523  37.479   3.708
89118W        W50429  27.089  18.070   3.802
89119W        W50430  26.122  12.634   1.395
89120W        W50431  42.927  31.538  10.611
89121W        W50432  23.113  26.089   4.240
89122W        W50433  32.544  27.460  12.501
89123W        W50434  42.975   3.434   2.301
89124W        W50435   9.176  42.397  11.510
89125W        W50436  41.326  21.123   1.880
89126W        W50437  28.458  22.511   2.232
89127W        W50438   6.256  30.593  12.400
89128W        W50439  27.558  43.862   2.308
89129W        W50440  32.612  22.609   9.997
89130W        W50441  32.430   4.825  12.974
89131W        W50442   2.947  15.201   4.704
89132W        W50443  22.131  24.163  11.612
89133W        W50444  20.607  13.674  10.109
89134W        W50445  38.006  38.894   1.242
89135W        W50446   8.749  25.578   3.158
89136W        W50447  16.750  15.224   1.910
89137W        W50448  10.239  38.413  14.510
89138W        W50449  15.797  32.960   3.718
89139W        W50450  25.627  12.750  11.599
89140W        W50451  28.993  17.156  11.962
89141W        W50452  17.304  38.003  13.425
89142W        W50453  31.521  17.137   2.685
89143W        W50454  25.707  37.071  14.332
89144W        W50455  13.114  19.227  12.377
89145W        W50456  27.638  15.246  13.311
89146W        W50457   1.853  19.691   1.845
89147W        W50458   5.383  28.026   2.696
89148W        W50459  26.643  43.983  12.486
89149W        W50460  33.958  23.059   4.753
89150W        W50461  11.197  13.277   2.392
89151W        W50462  28.103  19.173  10.433
89152W        W50463  19.614  32.501  14.889
89153W        W50464  32.123   9.674  13.832
89154W        W50465  20.137  33.625  11.101
89155W        W50466  29.015  22.122  14.025
89156W        W50467  29.532   4.356   2.322
89157W        W50468   6.375  22.655  11.461
89158W        W50469  17.618   4.920   0.736
89159W        W50470  29.584  44.272  10.076
89160W        W50471  16.774   4.796   0.260
89161W        W50472  29.581  20.243  11.458
89162W        W50473   7.397  40.469  11.489
89163W        W50474  19.194  20.595  14.761
89164W        W50475  10.247   2.427   4.222
89165W        W50476  10.684  42.851  11.026
89166W        W50477  39.509   0.283   0.474
89167W        W50478  13.757  19.127  12.439
89168W        W50479   7.209  16.197   3.641
89169W        W50480  42.287  15.321   2.194
89170W        W50481   2.802   4.319   3.309
89171W        W50482  22.208  39.472  12.972
89172W        W50483  17.773  21.639   4.598
89173W        W50484   6.782  28.950  13.545
89174W        W50485   8.849  32.028  10.585
89175W        W50486  19.246   4.860   4.683
89176W        W50487  23.221  33.007  14.327
89177W        W50488  43.448  16.803  14.338
89178W        W50489  43.337  40.979   0.763
89179W        W50490   4.308  11.753   2.208
89180W        W50491  25.545  18.131   5.100
89181W        W50492  43.846  18.094  10.935
89182W        W50493   7.685  28.535  12.509
89183W        W50494  27.663  30.988   2.249
89184W        W50495  42.775  17.256  11.377
89185W        W50496  17.093   3.850   2.857
89186W        W50497   5.914  28.961   2.735
89187W        W50498  31.897  13.331   5.193
89188W        W50499  29.021  41.885  13.532
89189W        W50500  20.055  10.725   2.785
89190W        W50501   0.435   9.860   2.765
89191W        W50502  27.579  27.007   1.334
89192W        W50503  15.211  11.702   0.927
89193W        W50504  30.470   7.383   3.801
89194W        W50505   2.887  18.121   2.664
89195W        W50506  20.135   5.395   1.700
89196W        W50507   3.861  33.962  11.492
89197W        W50508  39.065  36.055  10.971
89198W        W50509   8.689  10.164  10.059
89199W        W50510   1.794  43.787  12.888
89200W        W50511  37.516  26.513   3.168
89201W        W50512  44.875   9.257   4.785
89202W        W50513  16.105   8.805   3.831
89203W        W50514  28.971  23.728   4.225
89204W        W50515  27.963  29.447   3.318
89205W        W50516  29.538  35.556  12.474
89206W        W50517  30.943  16.258   2.203
89207W        W50518  15.773  12.851  10.411
89208W        W50519  12.332  28.135   4.836
89209W        W50520   7.366  26.620   4.347
89210W        W50521  34.550  31.087   1.307
89211W        W50522  17.062  41.301   3.160
89212W        W50523  10.163  10.718  12.446
89213W        W50524   7.251   4.409  11.408
89214W        W50525  14.110  29.971  12.350
89215W        W50526   0.318  20.660  13.043
89216W        W50527  44.297  40.040   4.627
89217W        W50528  23.109  24.700   0.268
89218W        W50529  31.133   7.375   4.238
89219W        W50530  20.191  22.077  14.345
89220W        W50531  11.674  43.381   3.234
89221W        W50532  40.831  10.655  10.615
89222W        W50533  35.599  15.208   1.784
89223W        W50534  36.949  41.316   3.318
89224W        W50535   0.330  13.328  13.913
89225W        W50536  44.858  15.115  14.949
89226W        W50537  43.346  35.060  10.515
89227W        W50538   2.435  27.020   2.751
89228W        W50539   0.785  11.285   0.749
89229W        W50540  20.036  36.410  14.294
89230W        W50541  37.869   9.856  12.031
89231W        W50542  19.657   5.407  14.280
89232W        W50543  14.268   1.920  14.936
89233W        W50544  12.209  42.022   3.648
89234W        W50545  17.629  33.885  11.551
89235W        W50546  32.138  26.208  12.928
89236W        W50547  31.958   0.843   1.839
89237W        W50548  34.384  36.472  10.410
89238W        W50549  40.341   5.735   0.282
89239W        W50550   7.315  21.607  13.881
89240W        W50551   5.204  36.552  12.421
89241W        W50552   0.877  35.397  13.545
89242W        W50553  41.847  21.565   0.335
89243W        W50554   1.441  39.503   1.825
89244W        W50555   3.762  41.490  10.535
89245W        W50556  32.573   7.303   2.797
89246W        W50557  14.807  30.551   2.208
89247W        W50558  32.069   5.286   4.777
89248W        W50559  12.801  12.214  11.906
89249W        W50560  28.492  21.634   1.731
89250W        W50561   1.902  32.394  11.492
89251W        W50562  36.569  38.542  14.490
89252W        W50563  28.116  35.377  13.812
89253W        W50564   3.339  26.534   4.174
89254W        W50565  10.350  11.325  12.354
89255W        W50566   1.476  19.082   1.699
89256W        W50567  31.518  12.618  13.037
89257W        W50568   1.246  31.916   1.305
89258W        W50569  18.654  26.563  12.415
89259W        W50570  12.183  30.134   1.853
89260W        W50571  27.563  12.737   1.253
89261W        W50572   1.940   1.803   1.294
89262W        W50573  32.977  41.886  11.037
89263W        W50574  23.630   2.357   3.815
89264W        W50575   2.868  26.601   2.809
89265W        W50576  22.556  31.035  11.504
89266W        W50577  35.916  42.860   1.770
89267W        W50578  18.098  23.506   4.773
89268W        W50579  13.166  18.688  12.909
89269W        W50580  31.019  27.978  13.994
89270W        W50581  14.312  39.327   4.320
89271W        W50582   3.866  43.953   1.768
89272W        W50583  13.172  44.947   4.251
89273W        W50584  12.621   7.789  11.518
89274W        W50585   7.224   3.866  12.086
89275W        W50586   4.267  26.200  13.866
89276W        W50587  35.600  17.751  12.926
89277W        W50588  32.927  43.812   4.814
89278W        W50589  38.981  22.185  12.037
89279W        W50590  41.899  34.908  14.015
89280W        W50591  24.608  28.959  10.917
89281W        W50592   6.898  40.304   1.375
89282W        W50593  20.264  37.880  10.601
89283W        W50594  15.208  41.397   3.763
89284W        W50595  18.133  20.660   0.301
89285W        W50596  44.008   0.880   2.417
89286W        W50597   0.398   5.817   0.779
89287W        W50598  13.162  39.028   1.319
89288W        W50599  13.125   9.259   1.303
89289W        W50600   8.274   9.663   1.871
89290W        W50601  39.821  29.575   4.718
89291W        W50602  19.763  25.468  13.811
89292W        W50603  17.175  41.316   1.403
89293W        W50604   0.944  40.923   3.738
89294W        W50605  33.468  12.830   2.887
89295W        W50606  20.670   4.848   2.714
89296W        W50607  15.228  24.974  11.471
89297W        W50608  18.116   9.722  11.974
89298W        W50609   9.837   9.825  11.059
89299W        W50610  33.063   6.197   2.353
89300W        W50611  15.200  14.602   3.327
89301W        W50612  28.058  38.379  14.308
89302W        W50613  35.403  19.278   3.837
89303W        W50614  24.549  17.733  14.435
89304W        W50615  22.732  12.289   0.386
89305W        W50616  43.451  41.960   1.769
89306W        W50617  23.157  30.981   3.203
89307W        W50618  26.172  21.120  13.005
89308W        W50619   6.795  13.280  11.405
89309W        W50620  22.505  44.967  10.624
89310W        W50621  30.433  10.235   1.797
89311W        W50622  41.457  43.422   3.263
89312W        W50623  17.221  11.708  14.862
89313W        W50624   0.402  39.058   3.737
89314W        W50625   4.214   5.789   3.817
89315W        W50626   5.693  38.510   4.653
89316W        W50627  12.182  43.967  14.353
89317W        W50628  23.157  12.761  12.496
89318W        W50629  17.108   3.391  13.319
89319W        W50630  11.759  11.256   2.320
89320W        W50631  38.869  42.389   5.145
89321W        W50632  15.188  37.919  10.511
89322W        W50633  25.636  18.158  13.383
89323W        W50634   2.958  33.394   1.809
89324W        W50635   4.370  25.504   3.639
89325W        W50636  36.990  16.789   4.354
89326W        W50637   8.190  10.351   3.328
89327W        W50638  27.600  20.650  14.859
89328W        W50639  11.672   6.428   4.318
89329W        W50640  38.009  33.949  13.054
89330W        W50641  30.578  20.762   0.352
89331W        W50642  29.513  24.561   1.284
89332W        W50643  37.537  33.956   3.813
89333W        W50644  17.652  28.470  14.872
89334W        W50645  15.627  31.429  14.318
89335W        W50646  42.885  43.407  12.981
89336W        W50647  23.149  10.313  13.022
89337W        W50648  22.706  36.847   0.482
89338W        W50649  44.361  12.718   3.720
89339W        W50650  44.796  19.249   4.296
89340W        W50651  22.110  10.715  14.940
89341W        W50652   9.173  38.046   0.291
89342W        W50653  22.088  42.328  14.905
89343W        W50654  27.015  11.679  10.536
89344W        W50655  25.515  31.996  12.872
89345W        W50656  41.864  15.312  11.980
89346W        W50657   0.926  33.469  13.882
89347W        W50658   2.343   7.812   2.698
89348W        W50659  13.829  26.061  13.319
89349W        W50660  24.660  41.348   9.648
89350W        W50661   9.808  26.561  12.837
89351W        W50662  12.632  22.527  14.372
89352W        W50663  27.681   9.713  12.386
89353W        W50664  36.429  34.044  14.796
89354W        W50665  31.954  21.140   0.385
89355W        W50666  20.667  17.604  11.580
89356W        W50667  17.755  29.539  12.467
89357W        W50668  20.574  22.129   1.273
89358W        W50669  34.416  35.511  13.315
89359W        W50670   4.406   9.359   1.282
89360W        W50671  26.543   1.958   1.287
89361W        W50672  22.599  23.107  12.077
89362W        W50673  10.141  20.216   4.639
89363W        W50674  37.960  44.943  11.609
89364W        W50675  19.566   0.908  11.491
89365W        W50676  23.164  38.382  12.995
89366W        W50677  17.687  38.328  10.480
89367W        W50678  44.856  37.980  11.406
89368W        W50679  10.841   6.220  13.387
89369W        W50680   1.898  35.012   1.253
89370W        W50681  17.300   9.743   2.327
89371W        W50682  35.438  29.164  12.895
89372W        W50683  10.641  25.567   4.199
89373W        W50684  39.426  33.019  14.388
89374W        W50685  10.316   2.726  12.945
89375W        W50686  16.786  33.611  12.388
89376W        W50687  23.024  43.989  10.639
89377W        W50688   0.905  12.646   1.935
89378W        W50689  11.325   0.320  11.540
89379W        W50690  15.806   4.296   9.472
89380W        W50691  23.008  40.345   1.450
89381W        W50692   9.235   4.850  12.552
89382W        W50693  43.906  31.406  12.894
89383W        W50694   5.207  12.239  10.562
89384W        W50695  18.785   7.325  11.502
89385W        W50696  12.664  27.535  12.558
89386W        W50697  16.226  38.336  13.057
89387W        W50698  24.593   0.977   4.345
89388W        W50699  35.012  26.597  11.035
89389W        W50700  40.516   0.295   3.743
89390W        W50701  34.492  35.396   2.215
89391W        W50702   1.366  37.363  12.415
89392W        W50703  11.363   9.713  10.536
89393W        W50704   3.748  19.204  14.005
89394W        W50705  18.238  19.568  14.945
89395W        W50706  12.301  39.848   0.377
89396W        W50707  36.992   6.885  11.378
89397W        W50708   3.433  20.206   1.887
89398W        W50709  24.213  35.960   3.788
89399W        W50710  14.147  36.063  10.155
89400W        W50711   1.247  28.084   0.259
89401W        W50712  35.529  36.009  11.512
89402W        W50713  35.032  30.034  11.436
89403W        W50714  37.019  42.309  10.935
89404W        W50715  44.457  10.827  10.120
89405W        W50716   6.219  11.835   2.810
89406W        W50717  10.225  19.211   2.187
89407W        W50718  32.572  24.022   3.760
89408W        W50719  44.483  18.737  12.359
89409W        W50720  35.023  38.938  11.006
89410W        W50721  30.128   8.659   2.414
89411W        W50722  33.112   8.659   0.745
89412W        W50723  18.083  34.984   0.341
89413W        W50724   3.374  24.219  14.412
89414W        W50725   5.832   4.393   0.862
89415W        W50726  10.688  27.153  11.074
89416W        W50727  43.847  11.815   3.369
89417W        W50728  43.935  13.134   4.119
89418W        W50729  17.161  34.429   5.098
89419W        W50730  34.072  26.548  14.990
89420W        W50731  19.159  41.949  13.880
89421W        W50732  11.716  27.531   1.389
89422W        W50733  32.630  39.950  13.855
89423W        W50734  41.908  18.576   4.302
89424W        W50735  24.184   2.863  12.970
89425W        W50736   5.799  43.314   4.616
89426W        W50737  27.014  20.698   4.176
89427W        W50738  25.655  15.724   0.460
89428W        W50739  19.204   4.870  14.362
89429W        W50740   6.807  23.998   3.790
89430W        W50741  44.784  32.125   3.209
89431W        W50742  20.088  34.068  13.007
89432W        W50743  20.646  14.592   2.900
89433W        W50744  38.354  21.577   4.260
89434W        W50745  17.070   8.804  10.005
89435W        W50746  42.489  30.936   2.884
89436W        W50747  14.197  10.796   2.263
89437W        W50748   1.468  29.518  14.843
89438W        W50749   7.222  24.190  12.468
89439W        W50750   5.691   1.311  14.940
89440W        W50751  42.908  40.506  12.962
89441W        W50752   6.817  22.182   1.869
89442W        W50753   8.323  39.053  14.473
89443W        W50754  43.931  43.294   4.274
89444W        W50755   3.437  36.575  10.989
89445W        W50756  18.054  19.638  14.385
89446W        W50757  26.077  35.024   2.321
89447W        W50758  39.509  26.557  13.041
89448W        W50759  18.606   2.430  12.961
89449W        W50760  13.193  25.654  10.485
89450W        W50761   8.170   8.809  11.963
89451W        W50762   7.404   1.783   2.770
89452W        W50763   1.340   3.297   3.862
89453W        W50764  42.354   1.784  10.625
89454W        W50765  14.138  42.949  11.566
89455W        W50766  22.687   4.846  12.487
89456W        W50767  12.297  15.219  14.320
89457W        W50768  22.523  21.019  11.013
89458W        W50769   3.877  29.995  11.423
89459W        W50770  40.368  15.301   2.407
89460W        W50771  26.997   4.899  12.506
89461W        W50772   7.316  44.885   4.249
89462W        W50773  24.118  26.661   5.154
89463W        W50774  11.182  28.120  11.876
89464W        W50775  30.144  37.554   2.331
89465W        W50776  21.701  42.464   3.337
89466W        W50777  26.466  39.414   0.850
89467W        W50778   3.438   1.289  11.979
89468W        W50779   8.355  43.809   3.306
89469W        W50780   2.305  26.639  10.910
89470W        W50781  43.448   4.727   0.258
89471W        W50782  27.514  12.749   2.900
89472W        W50783   7.769  35.362  13.431
89473W        W50784  24.151   0.797   5.168
89474W        W50785  33.894   7.885   2.777
89475W        W50786  42.412  12.820   4.332
89476W        W50787  38.846  39.966   0.737
89477W        W50788  12.747  35.489   2.382
89478W        W50789  36.482  14.295  12.059
89479W        W50790   3.223  20.253   0.867
89480W        W50791  10.749   0.834   0.452
89481W        W50792   0.441  36.076   0.339
89482W        W50793  11.366  36.098  10.913
89483W        W50794   6.713  19.208   1.716
89484W        W50795  29.004  14.620   1.934
89485W        W50796  22.239  24.201   1.285
89486W        W50797  30.434  24.201   0.946
89487W        W50798   1.379  36.847   2.283
89488W        W50799   8.344   3.344  13.057
89489W        W50800  14.814   1.237   1.321
89490W        W50801  25.211  13.176   5.137
89491W        W50802  30.515   0.406   1.287
89492W        W50803   1.466  39.046  14.858
89493W        W50804  28.140  10.175  11.998
89494W        W50805  43.496   5.852   0.747
89495W        W50806  21.550  31.149   1.268
89496W        W50807  27.115  15.617   2.373
89497W        W50808  17.708   7.330  11.507
89498W        W50809  20.580  31.004  11.517
89499W        W50810  33.513  33.946  13.803
89500W        W50811  25.476  20.672   0.388
89501W        W50812  44.485  36.022  11.388
89502W        W50813  39.992  42.835  11.908
89503W        W50814  25.576  13.834   3.286
89504W        W50815  24.611  20.652  11.993
89505W        W50816  21.050  10.340   9.984
89506W        W50817  34.393   1.782  13.030
89507W        W50818   1.937   1.463   4.246
89508W        W50819   7.845  20.263   4.671
89509W        W50820  20.691  42.947   2.893
89510W        W50821   0.303  42.501   4.708
89511W        W50822  35.577  20.707   0.314
89512W        W50823  36.900  33.600  10.642
89513W        W50824   4.880   1.402   1.851
89514W        W50825  13.136  40.519  13.885
89515W        W50826  44.340  34.432  10.996
89516W        W50827   4.921   1.409  13.374
89517W        W50828  37.380   6.731   4.642
89518W        W50829  15.710  31.580   2.255
89519W        W50830  28.484   4.758  10.615
89520W        W50831  44.482  12.731   0.809
89521W        W50832  11.231   7.896   1.286
89522W        W50833   4.327  44.438   3.869
89523W        W50834   4.326  13.750  12.047
89524W        W50835   1.321   8.738   0.887
89525W        W50836  37.464   3.406   0.796
89526W        W50837  30.420  15.161  14.911
89527W        W50838  39.048  25.171  12.988
89528W        W50839   7.724  39.443   2.311
89529W        W50840  37.551  17.559  13.535
89530W        W50841  22.227  15.616  10.488
89531W        W50842   2.468  41.831   1.935
89532W        W50843  34.566  18.689  13.439
89533W        W50844  29.133  19.253   2.198
89534W        W50845  20.178  18.293   5.179
89535W        W50846  44.817  35.603  11.900
89536W        W50847  41.027  18.609   0.868
89537W        W50848   4.277  10.820   4.600
89538W        W50849  26.201  43.844  10.577
89539W        W50850  26.037  36.479  14.302
89540W        W50851  16.697  22.725  11.495
89541W        W50852  37.405  13.687  10.907
89542W        W50853  32.471  23.183   0.463
89543W        W50854  16.216  28.121   3.318
89544W        W50855  43.807   2.782   0.887
89545W        W50856  18.287   5.367   9.977
89546W        W50857  17.189  12.781  12.485
89547W        W50858   6.797  27.113   0.299
89548W        W50859   3.886   1.329  13.993
89549W        W50860   0.358  39.402  10.492
89550W        W50861   1.844   0.840   2.364
89551W        W50862  16.101   8.309   4.161
89552W        W50863  40.927  18.246   3.212
89553W        W50864  15.801  35.551   1.228
89554W        W50865  21.044  37.440  13.937
89555W        W50866  41.955   8.209  14.491
89556W        W50867  15.260  43.289   4.300
89557W        W50868   0.431   5.896  11.032
89558W        W50869  12.219  20.715   0.429
89559W        W50870  23.191  17.154  11.946
89560W        W50871   4.876  31.989  14.351
89561W        W50872   3.419  18.557   2.394
89562W        W50873  14.799  31.642  13.898
89563W        W50874   3.232   8.668  14.789
89564W        W50875  34.395  38.931   4.339
89565W        W50876  10.253  12.747  11.938
89566W        W50877   7.198  42.802   4.323
89567W        W50878   5.913  43.887  12.391
89568W        W50879   2.435  13.290  10.563
89569W        W50880  17.687  36.856   3.715
89570W        W50881  27.150  39.844   2.719
89571W        W50882  38.063  13.181   3.190
89572W        W50883  23.618  13.845   0.735
89573W        W50884  11.839  43.838  13.311
89574W        W50885  15.165   9.168   3.205
89575W        W50886  27.496  42.780   4.254
89576W        W50887  26.081   2.741  12.532
89577W        W50888   8.756  44.489   0.378
89578W        W50889  17.624  44.408   2.672
89579W        W50890  38.558   5.760   4.788
89580W        W50891   2.934  21.169   3.342
89581W        W50892  19.261  17.158   2.377
89582W        W50893  14.289  33.515  11.942
89583W        W50894   9.338  20.103   3.860
89584W        W50895  43.462  20.252  11.582
89585W        W50896  29.589   8.205  13.848
89586W        W50897  18.616  31.645  13.417
89587W        W50898  11.146  33.614  14.765
89588W        W50899  18.546  24.657   3.186
89589W        W50900  25.177  13.811   1.212
89590W        W50901  33.430  27.534  13.984
89591W        W50902   9.256  18.721  13.921
89592W        W50903  32.451  39.483  11.571
89593W        W50904   4.869  31.410   0.450
89594W        W50905  16.761  25.631   2.800
89595W        W50906  15.225  16.208   1.930
89596W        W50907  34.959  18.706   2.866
89597W        W50908  43.849  19.174   4.793
89598W        W50909  23.083  29.162   3.330
89599W        W50910  10.146   3.804   1.349
89600W        W50911  36.073  28.141  12.882
89601W        W50912  25.697  21.215  11.082
89602W        W50913  36.857   9.189   4.253
89603W        W50914  17.120   1.434  11.059
89604W        W50915  10.710  32.404   3.644
89605W        W50916   5.373  43.882  12.847
89606W        W50917  33.383   1.847   2.903
89607W        W50918  11.626   9.174   4.208
89608W        W50919   1.435  10.243  12.940
89609W        W50920  21.048  20.028   0.915
89610W        W50921  23.095  39.444  14.497
89611W        W50922  22.214  40.941  13.328
89612W        W50923   6.184  11.670  14.347
89613W        W50924   3.844  20.196   2.808
89614W        W50925  37.075  42.888   3.826
89615W        W50926  43.371  31.921  11.989
89616W        W50927  37.361  35.861  11.871
89617W        W50928  31.983  22.592   0.828
89618W        W50929  26.573  40.038   4.727
89619W        W50930  19.245  33.039   3.635
89620W        W50931   2.771  29.999   0.404
89621W        W50932  31.614  23.542  12.952
89622W        W50933  30.163   6.753   9.592
89623W        W50934  24.115   6.813  13.503
89624W        W50935  13.787   8.216   0.308
89625W        W50936   3.358  14.800  14.292
89626W        W50937  31.514   3.830  13.440
89627W        W50938  13.639  41.436  11.497
89628W        W50939  26.015  14.248  11.407
89629W        W50940  37.956  27.149   0.799
89630W        W50941  27.044   1.863  11.954
89631W        W50942  17.678  15.260   4.732
89632W        W50943  34.093   3.868   3.185
89633W        W50944  17.138   4.838  10.959
89634W        W50945  12.311   5.809   4.326
89635W        W50946   5.258  14.610  10.921
89636W        W50947  13.302  10.175   0.800
89637W        W50948  16.701  32.123  13.986
89638W        W50949  42.949   7.736   4.241
89639W        W50950  27.595  26.661   4.264
89640W        W50951  38.476  11.160   4.139
89641W        W50952  31.494  38.053   4.235
89642W        W50953  20.243   6.829   2.276
89643W        W50954  19.247   1.785   4.206
89644W        W50955  43.789  39.956  11.115
89645W        W50956  21.705  25.590  11.075
89646W        W50957  36.074  34.400   1.408
89647W        W50958  29.509   2.882  12.380
89648W        W50959  19.581  24.198  11.381
89649W        W50960  15.192  31.020   1.698
89650W        W50961   2.782   2.860   0.480
89651W        W50962  19.277  41.974  13.000
89652W        W50963   7.281  30.034   4.131
89653W        W50964   9.378  43.021  10.426
89654W        W50965  39.474   3.367  13.063
89655W        W50966   6.420  29.164   2.864
89656W        W50967  36.958   1.455   0.959
89657W        W50968   7.841  20.147   3.863
89658W        W50969  43.793  14.617   3.835
89659W        W50970  20.171  37.343   4.662
89660W        W50971  40.482  23.569  11.961
89661W        W50972  27.533  37.914   2.257
89662W        W50973  38.442  32.622   4.690
89663W        W50974  11.851  20.677   4.673
89664W        W50975  36.460   1.306  11.381
89665W        W50976   8.735  11.199  10.591
89666W        W50977   0.924  21.160  13.971
89667W        W50978  37.354  40.988   5.663
89668W        W50979   9.702  44.005   4.155
89669W        W50980  19.111  33.964   1.786
89670W        W50981  12.812  30.965  14.335
89671W        W50982  32.562  19.042   0.473
89672W        W50983  28.135  21.197   2.356
89673W        W50984  40.352  33.018  13.428
89674W        W50985  37.008  39.953  13.921
89675W        W50986  20.525  25.962  12.064
89676W        W50987  33.070  26.951  13.883
89677W        W50988   4.223   6.427  14.863
89678W        W50989   4.886   1.372   3.832
89679W        W50990  22.232  33.931  12.578
89680W        W50991  25.192  23.620   1.766
89681W        W50992  28.021   8.225  14.827
89682W        W50993  10.872  27.572   0.412
89683W        W50994  43.873  13.625  13.399
89684W        W50995  19.197  25.659  14.999
89685W        W50996  42.844  20.126   2.286
89686W        W50997   8.886  44.803   2.759
89687W        W50998  34.552  26.471  11.129
89688W        W50999  34.918  15.797  13.399
89689W        W51000  43.330  28.114  13.046
89690W        W51001  27.665   1.924   0.380
89691W        W51002   2.284  42.501  13.936
89692W        W51003  21.185   1.323  11.442
89693W        W51004  15.322   1.440   2.270
89694W        W51005  20.176   9.329  11.921
89695W        W51006  28.479   6.834  11.070
89696W        W51007   3.304  20.082   4.305
89697W        W51008  36.505  40.873   4.330
89698W        W51009  13.657  39.462  14.954
89699W        W51010  25.965  10.223  12.473
89700W        W51011   8.324  38.341   0.271
89701W        W51012  38.840   3.917  10.575
89702W        W51013   4.716  34.111   1.909
89703W        W51014  36.096  33.093   4.616
89704W        W51015   2.299  32.611  10.889
89705W        W51016  40.507  11.171   1.797
89706W        W51017  23.233  37.995  14.338
89707W        W51018  20.140  39.949  10.086
89708W        W51019  21.137  38.062   2.738
89709W        W51020   1.939  31.590   0.274
89710W        W51021  37.552  36.919   5.285
89711W        W51022  21.111  32.971  10.433
89712W        W51023  15.084  26.501   2.352
89713W        W51024  42.516   9.329  14.809
89714W        W51025  13.794  26.085   3.179
89715W        W51026  40.438  17.696   1.809
89716W        W51027  41.529  32.504  11.461
89717W        W51028  36.842  18.604  14.021
89718W        W51029  18.718  27.946  10.619
89719W        W51030   2.370   3.268   0.890
89720W        W51031  13.192  39.857  12.520
89721W        W51032  27.973  31.083  14.831
89722W        W51033  17.783  34.460   0.949
89723W        W51034  22.687   4.832  11.104
89724W        W51035  38.550   2.965  14.944
89725W        W51036  41.480  44.867  14.348
89726W        W51037  35.367  34.038  13.932
89727W        W51038  22.121   8.344  13.359
89728W        W51039   1.837  31.490   0.836
89729W        W51040   3.720  43.933  10.967
89730W        W51041  31.152  18.125  14.407
89731W        W51042  26.693  15.223   4.231
89732W        W51043  28.058  42.301  12.899
89733W        W51044  27.169  19.721   4.330
89734W        W51045  40.307  26.598  12.435
89735W        W51046  28.619   3.776   3.684
89736W        W51047  20.731  44.870  14.464
89737W        W51048   4.212  14.608  13.545
89738W        W51049  33.065   7.351   0.483
89739W        W51050  29.120  40.431   3.667
89740W        W51051  34.612  31.642   5.112
89741W        W51052  27.941  18.105  11.486
89742W        W51053   1.944   9.259  10.608
89743W        W51054  15.731  29.998  13.801
89744W        W51055   2.471  33.044   0.377
89745W        W51056  29.070  44.475  14.485
89746W        W51057   7.399  23.177   2.765
89747W        W51058  34.022  11.676   1.367
89748W        W51059  27.167  31.146   3.374
89749W        W51060  37.942  18.697  14.501
89750W        W51061  22.525  32.104   1.383
89751W        W51062  25.042  40.400   1.320
89752W        W51063  16.804  11.205  11.564
89753W        W51064  41.911  23.586  14.361
89754W        W51065  32.475  31.957   1.845
89755W        W51066   7.681  42.322   1.732
89756W        W51067  38.387  22.596   3.631
89757W        W51068  25.049  40.819  11.584
89758W        W51069   5.824  13.777   0.828
89759W        W51070  23.238  44.305   0.917
89760W        W51071  43.946  31.577   4.229
89761W        W51072  42.414   9.875   2.355
89762W        W51073  40.890  21.655  12.532
89763W        W51074  41.367  24.094   2.181
89764W        W51075   1.274   1.875   3.209
89765W        W51076  29.486  26.621   0.743
89766W        W51077  14.158  36.880  12.483
89767W        W51078   5.277   3.741   1.312
89768W        W51079  30.976  15.162  11.881
89769W        W51080  25.623  26.609  12.554
89770W        W51081  22.217  21.538  14.769
89771W        W51082  13.758  26.045  11.569
89772W        W51083  31.965  20.140  10.636
89773W        W51084  31.009  15.247  11.533
89774W        W51085  20.720  23.573   4.756
89775W        W51086  21.733  11.177   4.141
89776W        W51087  20.120  10.804  12.857
89777W        W51088  20.726   6.421  10.595
89778W        W51089  36.939  43.894   1.730
89779W        W51090  44.403  10.727   2.383
89780W        W51091  26.187  15.313  11.608
89781W        W51092  28.999  43.498   0.448
89782W        W51093  44.983  37.853  13.503
89783W        W51094  33.448  24.526  12.529
89784W        W51095   3.802  15.708  10.595
89785W        W51096  23.620   0.934   3.739
89786W        W51097  15.125   3.315   9.991
89787W        W51098   6.266  35.049  14.989
89788W        W51099  14.714  28.527   0.323
89789W        W51100  36.357   8.748  13.997
89790W        W51101   1.808   1.432   3.184
89791W        W51102  42.809  24.691  12.998
89792W        W51103  29.587  18.652   2.879
89793W        W51104  35.455   8.702   2.414
89794W        W51105   5.375   3.767   3.347
89795W        W51106  15.299  36.865  13.439
89796W        W51107  30.998  25.034  13.041
89797W        W51108  40.305   0.815   1.750
89798W        W51109   6.850  22.218  14.352
89799W        W51110   6.191  34.482  12.556
89800W        W51111   0.386  33.598  10.609
89801W        W51112  33.590  37.451   2.761
89802W        W51113  23.538   2.834  13.952
89803W        W51114  13.315  17.689  12.395
89804W        W51115   1.360  22.025  14.930
89805W        W51116  26.691  14.772  13.843
89806W        W51117  24.194   6.808  13.895
89807W        W51118  10.281   4.417  10.445
89808W        W51119  37.501  26.608   3.634
89809W        W51120   1.950  27.969   3.825
89810W        W51121  34.424  21.526  13.802
89811W        W51122  43.797  43.782   0.937
89812W        W51123  17.091  14.719   3.702
89813W        W51124  21.227  18.199  14.302
89814W        W51125  20.218  42.956   3.724
89815W        W51126  12.766   6.399   1.226
89816W        W51127   2.910  39.499   4.277
89817W        W51128  34.891  20.683   1.754
89818W        W51129  20.092  27.131  11.124
89819W        W51130   9.872   7.275   4.724
89820W        W51131  22.627  12.263  11.970
89821W        W51132  36.930   7.844   3.854
89822W        W51133  42.397  32.941   4.700
89823W        W51134  31.942  35.955  14.283
89824W        W51135  31.004  32.605  13.892
89825W        W51136   6.249  16.235   1.419
89826W        W51137  24.539  20.691   2.180
89827W        W51138  35.395  42.515   0.296
89828W        W51139   8.790  29.121  10.931
89829W        W51140  27.125   2.784   3.336
89830W        W51141   5.385   1.890   2.855
89831W        W51142   8.824  36.000  10.930
89832W        W51143   4.299  41.449   3.314
89833W        W51144  23.181  41.391   4.308
89834W        W51145  12.124  29.574   0.342
89835W        W51146  36.955  12.230   3.369
89836W        W51147  16.199  27.076   3.740
89837W        W51148   5.819  42.845  11.571
89838W        W51149  32.413   3.439   0.405
89839W        W51150  24.110   5.899   2.329
89840W        W51151  14.693  28.118   0.473
89841W        W51152  12.151  25.037   5.309
89842W        W51153  34.055   0.411   0.751
89843W        W51154   8.305   4.879   4.292
89844W        W51155   3.389   0.745   2.389
89845W        W51156  38.992  32.520  10.428
89846W        W51157  18.228  34.956   4.798
89847W        W51158   6.337  29.590  12.906
89848W        W51159   5.303  42.454   1.742
89849W        W51160  23.640  19.237   2.323
89850W        W51161  18.772   9.338   2.784
89851W        W51162  10.821  32.589  13.356
89852W        W51163   8.655   4.269   4.198
89853W        W51164  33.029  29.562   4.781
89854W        W51165  35.391   3.766   0.817
89855W        W51166   4.321  30.599  14.997
89856W        W51167  12.122   9.852  11.930
89857W        W51168  24.016  19.543   3.740
89858W        W51169  25.036  31.039   1.809
89859W        W51170  42.787  36.022   4.198
89860W        W51171  22.732  29.472  13.333
89861W        W51172  22.044  34.462  12.356
89862W        W51173  15.629  42.523   1.868
89863W        W51174  20.582   5.916   4.128
89864W        W51175  40.395  15.202   0.817
89865W        W51176   0.412  15.764  11.450
89866W        W51177  13.784  20.694  10.465
89867W        W51178  13.811  40.534   2.190
89868W        W51179   0.822  30.908  11.010
89869W        W51180  35.000  38.506  13.388
89870W        W51181  10.757  30.094  13.828
89871W        W51182  28.979  17.624   4.129
89872W        W51183  15.293  38.374  10.568
89873W        W51184   0.913  15.310  13.064
89874W        W51185  27.173  32.612  14.969
89875W        W51186  14.182  37.918   1.862
89876W        W51187  26.134  38.329   0.733
89877W        W51188  29.993  36.408  12.962
89878W        W51189  41.515  40.941  12.930
89879W        W51190  25.130   2.908   3.871
89880W        W51191  14.138   2.249  13.398
89881W        W51192  13.183   6.824  11.411
89882W        W51193  38.545  26.509  12.894
89883W        W51194  10.312  24.486  11.020
89884W        W51195  25.006   9.721   4.280
89885W        W51196  14.618  28.670   4.322
89886W        W51197  26.208  28.577   1.799
89887W        W51198   3.926  23.490   1.834
89888W        W51199  41.010  33.590   1.818
89889W        W51200  11.329  12.173  10.970
89890W        W51201  33.620  35.402   0.821
89891W        W51202  25.056  44.432   2.252
89892W        W51203  16.794  40.904   4.721
89893W        W51204   6.404   2.847   0.784
89894W        W51205  14.749   3.358   3.760
89895W        W51206  20.188  22.720  14.002
89896W        W51207  24.220   0.385   3.745
89897W        W51208   4.838  18.072  11.555
89898W        W51209  42.962  14.816  11.099
89899W        W51210  14.694  13.696   2.371
89900W        W51211  21.141  30.436   0.244
89901W        W51212   9.196  44.872  12.370
89902W        W51213   6.743  38.910  11.102
89903W        W51214  44.832  27.140  12.065
89904W        W51215  10.716  27.544  13.975
89905W        W51216  25.216   1.271  11.886
89906W        W51217  25.052  26.179   2.891
89907W        W51218   2.806  43.831   1.935
89908W        W51219  20.133  17.626   4.204
89909W        W51220  36.891  15.248   1.292
89910W        W51221  29.083  16.783  11.028
89911W        W51222   4.427   9.735  14.464
89912W        W51223  20.729   2.420   4.817
89913W        W51224  27.610  11.129   4.286
89914W        W51225  34.493  36.843   3.262
89915W        W51226   7.332  35.877   0.300
89916W        W51227  23.086  18.747   0.730
89917W        W51228  28.175  37.080   3.264
89918W        W51229  35.447  30.053  14.501
89919W        W51230  41.329   1.461  12.825
89920W        W51231  10.353  36.870  14.455
89921W        W51232  21.124  13.626   0.286
89922W        W51233  25.670  27.030   0.330
89923W        W51234  43.409  34.410  14.765
89924W        W51235  17.723  42.369   1.790
89925W        W51236   3.458  13.218  13.380
89926W        W51237  20.097  22.055   2.783
89927W        W51238  28.103   6.377   0.869
89928W        W51239  40.877  10.878   2.880
89929W        W51240  35.441  37.030  13.353
89930W        W51241  14.313  16.802   3.674
89931W        W51242  27.089  31.992   0.355
89932W        W51243  15.274   2.379   2.364
89933W        W51244  24.030  22.178  13.855
89934W        W51245  27.675  27.646  14.870
89935W        W51246   3.730  27.955  10.574
89936W        W51247  30.923   5.276  12.356
89937W        W51248  26.151  13.676  12.365
89938W        W51249  29.525   8.843   0.956
89939W        W51250  12.653   6.375  11.577
89940W        W51251  18.197  26.154  10.560
89941W        W51252  27.162  20.706  10.903
89942W        W51253  13.308   3.456  10.572
89943W        W51254  32.050  22.082  11.100
89944W        W51255  23.060  26.504   1.803
89945W        W51256  15.122  33.017   3.647
89946W        W51257  23.495  35.535   4.217
89947W        W51258  42.487  27.065   3.731
89948W        W51259  41.340  27.652  13.936
89949W        W51260  22.095  11.672  14.769
89950W        W51261  43.793  32.552   3.191
89951W        W51262  19.181  24.067  10.436
89952W        W51263   9.345  44.968  11.496
89953W        W51264   5.361   8.690  11.597
89954W        W51265  28.040  10.693  13.342
89955W        W51266  20.696  13.689  14.798
89956W        W51267  40.335  44.450  10.924
89957W        W51268  10.256   0.464   1.365
89958W        W51269  15.118  31.131   2.216
89959W        W51270   0.803   1.268  12.826
89960W        W51271  43.316  43.838   2.408
89961W        W51272  14.716   6.233  14.289
89962W        W51273  43.309   0.260  11.452
89963W        W51274  43.912   1.860   0.901
89964W        W51275  39.490  31.597   0.344
89965W        W51276  12.805   7.724   0.314
89966W        W51277  24.540  32.081  10.557
89967W        W51278  14.201  37.554  11.405
89968W        W51279  23.670  23.561   1.428
89969W        W51280  21.647  17.187  14.022
89970W        W51281  35.565  43.854  11.998
89971W        W51282  12.149  13.177   0.872
89972W        W51283  40.373  39.903   0.276
89973W        W51284  36.916  41.035  14.929
89974W        W51285   3.378  23.642   0.916
89975W        W51286  10.856  39.383  14.515
89976W        W51287   6.309  27.990  11.906
89977W        W51288  12.792  33.420   0.430
89978W        W51289  15.721  25.050  12.092
89979W        W51290  26.204  20.556   2.860
89980W        W51291   5.256  17.585  12.437
89981W        W51292   0.777  44.339   5.218
89982W        W51293   4.419  25.477   4.260
89983W        W51294  16.186  43.365  11.970
89984W        W51295  29.465   4.307   3.345
89985W        W51296  38.447   4.809   2.362
89986W        W51297  36.067  43.844   1.333
89987W        W51298  32.486  42.331  11.577
89988W        W51299   6.800  43.907   2.203
89989W        W51300  20.579  18.272   0.278
89990W        W51301   7.203  38.526   2.259
89991W        W51302   9.362  44.420   0.759
89992W        W51303  39.816  27.646   1.758
89993W        W51304  28.452   3.916   4.835
89994W        W51305  26.678  27.175  13.941
89995W        W51306  12.299  17.575  12.034
89996W        W51307  29.601  29.586  13.811
89997W        W51308  38.348   7.788  14.930
89998W        W51309   1.847   6.778  12.830
89999W        W51310  41.454  40.868   2.286
90000W        W51311  26.191  19.146   1.318
90001W        W51312  44.991  25.576  13.058
90002W        W51313   1.317  27.014   0.813
90003W        W51314  35.007  26.522  13.821
90004W        W51315  11.701  12.198  14.384
90005W        W51316  30.032  40.827  11.922
90006W        W51317  13.728  33.418   1.448
90007W        W51318  31.029  19.770  14.857
90008W        W51319  25.667  34.480   3.201
90009W        W51320   0.318  24.492  11.964
90010W        W51321   6.334  27.466   2.839
90011W        W51322  27.615  44.903  12.075
90012W        W51323  16.584  31.503   4.784
90013W        W51324   7.792  33.552   0.829
90014W        W51325  35.986   4.880  10.484
90015W        W51326  17.138   0.910   1.383
90016W        W51327   5.253  36.370   4.226
90017W        W51328   3.747  31.135  10.459
90018W        W51329  16.136  28.496  13.401
90019W        W51330  32.457  22.104   0.372
90020W        W51331   8.893  14.605  12.913
90021W        W51332  30.073   6.199  11.506
90022W        W51333  13.333  21.142   2.682
90023W        W51334   6.337  12.352   0.359
90024W        W51335  17.694  32.104  13.546
90025W        W51336   8.160   3.948   4.118
90026W        W51337  30.430   7.851   0.341
90027W        W51338  41.532  16.742   3.313
90028W        W51339  37.402  32.408   2.804
90029W        W51340  16.143  43.370   3.173
90030W        W51341  28.989   0.368   4.764
90031W        W51342  35.854  30.465  13.425
90032W        W51343  35.453   8.247   4.246
90033W        W51344  32.412  33.905   2.223
90034W        W51345  29.019  24.017  13.824
90035W        W51346  12.316  15.294  10.496
90036W        W51347  43.788  23.731  10.427
90037W        W51348  40.472   4.926   1.246
90038W        W51349  27.567  29.155   1.741
90039W        W51350  41.456  42.444  14.779
90040W        W51351   0.958   3.943  11.520
90041W        W51352  16.097  42.916   0.772
90042W        W51353   4.448  10.166   4.343
90043W        W51354  19.276  29.579   3.294
90044W        W51355  37.527   9.241  13.472
90045W        W51356  28.483  25.074  14.331
90046W        W51357  34.865  24.973   0.959
90047W        W51358  19.143  28.525   0.398
90048W        W51359  43.506   9.331   2.216
90049W        W51360   7.326  19.578   0.957
90050W        W51361   9.164  41.491  13.990
90051W        W51362   5.796  15.709   2.874
90052W        W51363  21.090  34.575   0.956
90053W        W51364  12.290   9.809  13.819
90054W        W51365  16.233  26.125  11.999
90055W        W51366  19.175   0.933  13.456
90056W        W51367  21.028  34.886   2.699
90057W        W51368   9.723  31.909  14.902
90058W        W51369   9.258  38.503   2.308
90059W        W51370   9.384  13.825  14.374
90060W        W51371  34.371  26.054  14.409
90061W        W51372   0.967  33.542   2.833
90062W        W51373   0.983  34.094   3.229
90063W        W51374  36.432  42.438   1.915
90064W        W51375   5.902  34.465  10.536
90065W        W51376  20.698   1.400   1.419
90066W        W51377  10.344  35.588  12.023
90067W        W51378  32.118   6.393   0.958
90068W        W51379   0.356  44.896   4.725
90069W        W51380   8.297  12.761   0.728
90070W        W51381   8.789  12.735   3.203
90071W        W51382  38.518  26.686  13.964
90072W        W51383  22.701  41.997  10.124
90073W        W51384  38.029  34.966  10.413
90074W        W51385  25.642  15.190   2.403
90075W        W51386  19.198  32.426  12.826
90076W        W51387   4.739  25.181  14.997
90077W        W51388  33.613  10.856  10.469
90078W        W51389  17.171  36.858   4.656
90079W        W51390  42.397  12.183   2.289
90080W        W51391  16.786  38.439  11.891
90081W        W51392  10.765  44.820   2.815
90082W        W51393   8.805  18.714   4.693
90083W        W51394  25.476  28.009  11.053
90084W        W51395   0.322  24.077   1.263
90085W        W51396  40.462   1.871   4.291
90086W        W51397   8.657  11.182   2.729
90087W        W51398  38.968  27.104   2.766
90088W        W51399  26.168  24.506   1.359
90089W        W51400  44.785   9.199   3.149
90090W        W51401  40.949  42.776   2.852
90091W        W51402  34.046  39.905   4.617
90092W        W51403  41.026  34.944   3.817
90093W        W51404  40.807  25.187   1.731
90094W        W51405  14.624  33.459  11.574
90095W        W51406  26.174  30.940   0.358
90096W        W51407   5.706  22.624   1.224
90097W        W51408  12.763  41.519  10.524
90098W        W51409  26.614   8.261   4.629
90099W        W51410  19.084  21.611  13.820
90100W        W51411  10.271  23.137  13.873
90101W        W51412  10.246  32.391   0.380
90102W        W51413  43.971  31.112  12.967
90103W        W51414  28.155   8.683   3.286
90104W        W51415   6.857   9.677  14.278
90105W        W51416   8.847  25.629  14.414
90106W        W51417   7.346   9.385  13.475
90107W        W51418  17.690  14.114   2.330
90108W        W51419   7.401  44.758   2.792
90109W        W51420  18.690  35.908  14.292
90110W        W51421  33.978  40.990   2.225
90111W        W51422  30.579  15.625  10.902
90112W        W51423  10.265  24.162  10.571
90113W        W51424  13.729  20.047   4.742
90114W        W51425  19.154  16.211  14.833
90115W        W51426  34.035  31.125  14.320
90116W        W51427  25.532  38.495   3.354
90117W        W51428  13.204  19.626   4.239
90118W        W51429  21.088  22.567  13.505
90119W        W51430  34.561  24.162   4.661
90120W        W51431   7.400  26.984   0.293
90121W        W51432  21.146  26.472  14.442
90122W        W51433  39.449  17.217  14.984
90123W        W51434  18.553  39.935  10.058
90124W        W51435  26.668   6.342   0.859
90125W        W51436   2.376  29.039   3.296
90126W        W51437  20.270  21.588   2.263
90127W        W51438   7.685  37.018  13.019
90128W        W51439  33.414   3.291  12.492
90129W        W51440   4.328  32.510   3.706
90130W        W51441  30.965  13.137  12.444
90131W        W51442  30.141  37.392  12.372
90132W        W51443  39.489  10.853   0.852
90133W        W51444  14.189   1.340  13.398
90134W        W51445  17.742  12.186  12.352
90135W        W51446  19.206  33.417   2.214
90136W        W51447  38.343   9.805   2.365
90137W        W51448   8.250  12.304   4.686
90138W        W51449  17.226  31.969  14.910
90139W        W51450  16.792   7.903   3.678
90140W        W51451  24.664  31.463   2.383
90141W        W51452  44.349   9.840   0.900
90142W        W51453  29.435  10.277   3.157
90143W        W51454  13.175  43.787  12.433
90144W        W51455  23.590   8.781  11.104
90145W        W51456  32.001  31.555   0.892
90146W        W51457  34.025  38.841   3.857
90147W        W51458   5.207  16.681   3.186
90148W        W51459  11.759  27.575   4.257
90149W        W51460  26.585  16.250  13.349
90150W        W51461  38.494  10.794  10.932
90151W        W51462   2.792  11.711  12.008
90152W        W51463  30.938  34.101   0.841
90153W        W51464  14.737   1.476  11.110
90154W        W51465   8.340  11.315  12.551
90155W        W51466  34.102   0.462   1.299
90156W        W51467   5.326  44.331   0.436
90157W        W51468  10.151  25.713   2.852
90158W        W51469   4.835  13.775  12.870
90159W        W51470  18.163  17.271   2.308
90160W        W51471  33.959   5.242   2.744
90161W        W51472  13.181  19.269   4.802
90162W        W51473  29.048  28.599   0.460
90163W        W51474  34.377  20.271  13.514
90164W        W51475   8.171  18.612  11.074
90165W        W51476   0.943  36.999   2.397
90166W        W51477  11.320   3.245  12.013
90167W        W51478  25.565  18.625   2.890
90168W        W51479  14.728  11.796   0.816
90169W        W51480   8.705  12.781  10.440
90170W        W51481  11.756  33.399   4.126
90171W        W51482  20.616  33.490  10.600
90172W        W51483  40.508  32.399   2.244
90173W        W51484  32.964  18.772  14.500
90174W        W51485  28.969  17.659   1.883
90175W        W51486  24.634  34.988  13.913
90176W        W51487  17.705  13.699   2.819
90177W        W51488  38.412  21.669   0.250
90178W        W51489  30.612  37.395   3.826
90179W        W51490   1.862  44.880   1.267
90180W        W51491   4.249   4.774   2.206
90181W        W51492   6.290  24.975   3.706
90182W        W51493  21.051  22.628  11.599
90183W        W51494  26.676  40.413  14.459
90184W        W51495   4.420  40.902  14.354
90185W        W51496  12.328  15.785   0.477
90186W        W51497   9.888   7.903  13.821
90187W        W51498  26.197  21.043  13.836
90188W        W51499  39.383  29.570   3.691
90189W        W51500   5.435  25.156  14.312
90190W        W51501  36.494  38.498  13.888
90191W        W51502  27.088  31.541  13.027
90192W        W51503  16.575  31.467   2.724
90193W        W51504  15.195  27.104  14.337
90194W        W51505  12.662   3.322  11.430
90195W        W51506  44.413   6.325   1.391
90196W        W51507  28.074  23.644   1.889
90197W        W51508  34.474  19.714   0.767
90198W        W51509   1.353  14.334  13.014
90199W        W51510  41.450  27.162   2.891
90200W        W51511  42.843  17.157   2.267
90201W        W51512  29.107  14.729  12.339
90202W        W51513  18.709  15.311   3.200
90203W        W51514  22.145  30.613  14.422
90204W        W51515  41.838  20.752  12.367
90205W        W51516  27.122   0.413  13.493
90206W        W51517  36.411  18.785   2.313
90207W        W51518  21.697  26.616  10.140
90208W        W51519  21.114  37.372  10.972
90209W        W51520  15.713  26.557   3.209
90210W        W51521  11.255   9.199  12.965
90211W        W51522  22.558  12.850   2.733
90212W        W51523  32.089  41.479  11.097
90213W        W51524  14.715  34.489   4.627
90214W        W51525  38.567  39.973   0.394
90215W        W51526  25.036  11.197   2.738
90216W        W51527   6.747  27.560   4.662
90217W        W51528  38.414  12.263  12.894
90218W        W51529  11.339  10.297   0.881
90219W        W51530  28.022  37.892   1.758
90220W        W51531   1.276  23.137   2.259
90221W        W51532  33.430   1.393  14.771
90222W        W51533   3.409  16.772   2.828
90223W        W51534  24.191  41.506  14.782
90224W        W51535   0.862  38.972   1.364
90225W        W51536  13.640  42.782   3.713
90226W        W51537  22.119   3.262   0.862
90227W        W51538  25.976  32.556   5.240
90228W        W51539  21.096   0.974   0.929
90229W        W51540  24.196  24.031  10.477
90230W        W51541   6.854   5.753  11.062
90231W        W51542   8.879  11.226  14.351
90232W        W51543  35.446  27.961  11.944
90233W        W51544   0.953  44.915   0.319
90234W        W51545  15.694  42.833  14.317
90235W        W51546   4.938  10.669  12.422
90236W        W51547   4.744   8.200   1.700
90237W        W51548  39.523   5.380  14.003
90238W        W51549   5.293  44.451  13.914
90239W        W51550  17.069  25.524  11.429
90240W        W51551   5.436   8.668   2.755
90241W        W51552  38.874  28.636   4.201
90242W        W51553   3.728  40.346  11.411
90243W        W51554  35.510  16.669  12.041
90244W        W51555   3.240  18.215  13.466
90245W        W51556   1.955   8.761   0.781
90246W        W51557   2.233   1.807  10.935
90247W        W51558  19.110   6.788   4.670
90248W        W51559  28.627  25.146  10.917
90249W        W51560  37.930   1.367   1.848
90250W        W51561   2.906  20.252   3.799
90251W        W51562  27.113  43.004   9.937
90252W        W51563   7.374   4.777  13.501
90253W        W51564  28.158   8.221   2.894
90254W        W51565   4.345  35.864   4.262
90255W        W51566  35.019  31.069   3.731
90256W        W51567  11.819   3.266   3.269
90257W        W51568   4.814  39.354   4.830
90258W        W51569  11.785  32.504  11.122
90259W        W51570   9.723  23.536  12.082
90260W        W51571  37.941  40.845   2.721
90261W        W51572  21.023  27.454   4.208
90262W        W51573   6.767  11.823   0.439
90263W        W51574  44.865  36.880   0.401
90264W        W51575  44.467  22.665   1.358
90265W        W51576   8.879  38.330   2.854
90266W        W51577  41.464  19.682  12.431
90267W        W51578  10.802  11.274   1.440
90268W        W51579  32.494  26.476   1.265
90269W        W51580  40.927   9.249   2.862
90270W        W51581  31.917  20.630  14.329
90271W        W51582   0.408  21.644   3.852
90272W        W51583   4.225  37.952   2.863
90273W        W51584  29.492  33.521  10.990
90274W        W51585  28.073   5.232   1.857
90275W        W51586  24.697  20.576  13.450
90276W        W51587  13.257  44.914  14.345
90277W        W51588  39.047  34.614   3.371
90278W        W51589   8.699  10.241   3.676
90279W        W51590  33.404  12.658  13.963
90280W        W51591  35.572  19.135  12.422
90281W        W51592  33.920  30.552  14.003
90282W        W51593  26.988  30.615  10.911
90283W        W51594  37.503  23.200   0.271
90284W        W51595   3.744  26.499   0.864
90285W        W51596  13.825  32.889  10.453
90286W        W51597  31.543  21.623   4.604
90287W        W51598  22.700  21.662  14.462
90288W        W51599  25.060  30.046   0.844
90289W        W51600  37.424  28.971  12.406
90290W        W51601  38.531   1.381   4.259
90291W        W51602   2.810   3.218  11.043
90292W        W51603   8.773  33.619   4.155
90293W        W51604  26.969  29.564   0.946
90294W        W51605   9.823  33.382   3.725
90295W        W51606  32.015  42.438  13.514
90296W        W51607  19.261  27.607  14.383
90297W        W51608  38.906  44.969   3.716
90298W        W51609  41.972  34.031  12.045
90299W        W51610  25.605  37.028  12.420
90300W        W51611  42.404  14.278  14.464
90301W        W51612  25.649  21.173   4.324
90302W        W51613  37.942  13.216  12.432
90303W        W51614  41.834  15.203  12.437
90304W        W51615  23.609  30.649  14.916
90305W        W51616  23.528   6.816   4.207
90306W        W51617  23.679  32.499   4.609
90307W        W51618   6.363   0.341  11.978
90308W        W51619  17.100   2.469  12.426
90309W        W51620  32.408  25.978  14.298
90310W        W51621  35.857  28.969   4.635
90311W        W51622  33.002  22.096   3.252
90312W        W51623   3.312  31.999   1.252
90313W        W51624   3.786   0.890  11.387
90314W        W51625  23.513  39.822   0.294
90315W        W51626  19.196  43.793   2.244
90316W        W51627  24.074  32.521   5.134
90317W        W51628   3.881  38.983  10.988
90318W        W51629  19.226  18.282   3.703
90319W        W51630   4.337  37.510  13.423
90320W        W51631  14.324  43.884   4.147
90321W        W51632  14.325  30.649   1.781
90322W        W51633  35.453  39.880   0.245
90323W        W51634   5.253  22.155   2.402
90324W        W51635  36.471  32.107   2.389
90325W        W51636  13.769  17.734  12.092
90326W        W51637  43.385   9.693   3.773
90327W        W51638  34.528  29.046   1.815
90328W        W51639  35.089   0.377  11.891
90329W        W51640  26.629  12.716   4.335
90330W        W51641  32.418  26.458  13.395
90331W        W51642  17.630   5.828   1.435
90332W        W51643  30.569   3.412  11.415
90333W        W51644  20.653  13.299  14.296
90334W        W51645  21.681  34.453  14.382
90335W        W51646  34.379  12.337   3.155
90336W        W51647   8.752  34.542   2.224
90337W        W51648  15.654  36.049   4.685
90338W        W51649  12.242   4.791  11.599
90339W        W51650  18.782  23.668   0.267
90340W        W51651  33.892  19.747  14.308
90341W        W51652   6.184  21.663   4.164
90342W        W51653  34.378  29.589   4.608
90343W        W51654  15.277  24.697  14.499
90344W        W51655   2.926  17.233   1.261
90345W        W51656  37.956  31.447  14.386
90346W        W51657  14.125  43.292   5.137
90347W        W51658   5.372  11.304  13.486
90348W        W51659  22.147  41.877   9.955
90349W        W51660  40.330  44.418   0.917
90350W        W51661  39.960  43.912   2.840
90351W        W51662   5.895   1.860   4.291
90352W        W51663  36.410  35.053  10.927
90353W        W51664  26.700  37.870  12.433
90354W        W51665  26.093  25.644   4.697
90355W        W51666  38.490   9.222   4.611
90356W        W51667  21.736  39.902  13.438
90357W        W51668  32.536  39.811   1.747
90358W        W51669  32.923   1.391   3.332
90359W        W51670  15.744  32.472   3.718
90360W        W51671  14.637  30.951   1.896
90361W        W51672  11.641   0.977   2.364
90362W        W51673   8.811   8.692   2.837
90363W        W51674  36.544   9.784  13.977
90364W        W51675  39.378  20.698   3.690
90365W        W51676   0.845  27.475   3.227
90366W        W51677  42.008  31.515  14.940
90367W        W51678  34.498  11.769  14.761
90368W        W51679  22.544  22.555  13.462
90369W        W51680   4.938  28.165   1.291
90370W        W51681  28.117   3.813  11.097
90371W        W51682  10.684  27.179   2.812
90372W        W51683  36.083  39.369   1.755
90373W        W51684   7.224  19.538   4.318
90374W        W51685  36.943  30.619   3.827
90375W        W51686  35.497  13.324  14.936
90376W        W51687   7.255   6.354   4.613
90377W        W51688  34.535   3.922   0.923
90378W        W51689  23.061  17.576  10.457
90379W        W51690  26.987  11.767   4.264
90380W        W51691  43.923  31.033   0.781
90381W        W51692  16.798  42.796   3.705
90382W        W51693   8.276   2.264   1.287
90383W        W51694  12.686  27.953  12.000
90384W        W51695  44.285  21.175  11.074
90385W        W51696  30.122  32.462   2.214
90386W        W51697  36.561   2.790  11.446
90387W        W51698  30.029  15.801   1.923
90388W        W51699  10.724  23.077  14.895
90389W        W51700  36.905  30.473   0.728
90390W        W51701  26.680  39.015   1.376
90391W        W51702  21.056  33.399  13.969
90392W        W51703   2.361  25.474  11.405
90393W        W51704  33.400   7.869   1.250
90394W        W51705   3.358  44.801   2.357
90395W        W51706  12.346  11.342  12.418
90396W        W51707  17.169  29.618   0.470
90397W        W51708  22.653   6.690  12.384
90398W        W51709  38.339   3.759  11.515
90399W        W51710  29.960  26.534   3.710
90400W        W51711  20.699  22.714  10.928
90401W        W51712   6.268  13.633  14.332
90402W        W51713  11.128  44.464  12.005
90403W        W51714  41.953   7.882   4.189
90404W        W51715  41.448   9.190   4.255
90405W        W51716   7.906  40.377   0.280
90406W        W51717  35.956  27.153  12.895
90407W        W51718   9.668  43.919  11.494
90408W        W51719   2.795   6.389   2.833
90409W        W51720  37.544  26.553  14.819
90410W        W51721  19.054  32.998   1.312
90411W        W51722  43.513  21.690  11.559
90412W        W51723   9.306  30.614  12.483
90413W        W51724  44.787   9.331   0.920
90414W        W51725  41.505   9.216  10.484
90415W        W51726  18.562  17.562   9.981
90416W        W51727   5.779  36.988   0.755
90417W        W51728  27.446  30.598   3.203
90418W        W51729   7.309  15.227   5.083
90419W        W51730  38.446  31.598   9.959
90420W        W51731  37.473  44.386   3.222
90421W        W51732   7.192   2.341   2.702
90422W        W51733  42.415  21.032   1.853
90423W        W51734   7.668   2.945   2.668
90424W        W51735   1.758   3.290   3.311
90425W        W51736  20.158  27.984  13.458
90426W        W51737  37.844  36.004  13.520
90427W        W51738  20.614  14.249   1.705
90428W        W51739  40.860   9.719   0.428
90429W        W51740  29.956   1.322   3.661
90430W        W51741  28.120   4.776  12.514
90431W        W51742  30.154  17.759  11.501
90432W        W51743  39.318  39.853   1.367
90433W        W51744  39.866  39.455   4.714
90434W        W51745  12.358  42.857  13.323
90435W        W51746  19.210   9.270  10.459
90436W        W51747  40.469  23.179   4.264
90437W        W51748  19.764  40.357  12.849
90438W        W51749  10.712  12.791  12.533
90439W        W51750  42.855  12.839  12.435
90440W        W51751  20.229  10.668  12.532
90441W        W51752  34.059  36.924   2.396
90442W        W51753  10.675  17.115  10.490
90443W        W51754  40.968  11.346  13.935
90444W        W51755  36.089  26.589   2.876
90445W        W51756  14.130   1.420  14.497
90446W        W51757  10.154   0.435   0.946
90447W        W51758  37.066   8.882  13.431
90448W        W51759   0.476  31.095  14.810
90449W        W51760  16.310  10.695  14.878
90450W        W51761   4.701  25.006   4.187
90451W        W51762  26.985  35.510   2.788
90452W        W51763  23.532  19.063   4.129
90453W        W51764  18.277  32.068  11.089
90454W        W51765  29.974   8.270  12.024
90455W        W51766  31.969  34.441   3.378
90456W        W51767  25.212  40.514   0.750
90457W        W51768  19.091  29.927  12.456
90458W        W51769  32.427  37.367   3.182
90459W        W51770  17.687  10.759   3.372
90460W        W51771   9.274  29.425  11.541
90461W        W51772   9.354  39.981   2.732
90462W        W51773  14.253  19.648   1.323
90463W        W51774  13.130  28.042  10.042
90464W        W51775   0.843  22.668   0.296
90465W        W51776  39.809  38.465   2.193
90466W        W51777  17.662  16.158   5.097
90467W        W51778  24.513  25.037  11.949
90468W        W51779   9.180  34.906   4.830
90469W        W51780  25.087  23.696   1.307
90470W        W51781  29.622  35.398   4.625
90471W        W51782  30.533   7.333   4.702
90472W        W51783  19.671   2.454  11.968
90473W        W51784  35.437  35.996  12.455
90474W        W51785  24.993  42.897   0.452
90475W        W51786  11.283  29.525   0.868
90476W        W51787  17.743   1.291   4.185
90477W        W51788  24.041  16.294  14.824
90478W        W51789  16.583  36.051  12.420
90479W        W51790  25.142   9.359   0.370
90480W        W51791  33.449  26.644  10.620
90481W        W51792  15.254  23.078   3.734
90482W        W51793   3.754   9.298  11.910
90483W        W51794  15.657   8.316   0.450
90484W        W51795  35.359  20.710  10.895
90485W        W51796  40.533  32.395  14.454
90486W        W51797  15.181  15.785  13.939
90487W        W51798  34.104  23.711   3.708
90488W        W51799  16.719  40.354   3.338
90489W        W51800  42.908  11.692  11.912
90490W        W51801  43.296  17.211  14.851
90491W        W51802  15.668  28.983   3.325
90492W        W51803  36.894  17.779   4.769
90493W        W51804   9.343  14.332  13.981
90494W        W51805  39.385  18.081   0.443
90495W        W51806  43.864  18.071  13.968
90496W        W51807  34.892  44.378  13.399
90497W        W51808   2.806  36.874  11.391
90498W        W51809  24.717  17.087  13.532
90499W        W51810  16.637  23.659  12.373
90500W        W51811  16.176  38.421  11.437
90501W        W51812  36.453  33.131  11.875
90502W        W51813  21.216  39.999   2.274
90503W        W51814  31.503  14.672  11.877
90504W        W51815   5.762  17.305  14.900
90505W        W51816  27.149  15.324   1.894
90506W        W51817  24.000  25.620   4.302
90507W        W51818  40.906  12.322   1.759
90508W        W51819   2.846  33.453   4.767
90509W        W51820  38.907   2.252   0.478
90510W        W51821  42.362  44.797  12.073
90511W        W51822  20.574  39.438   2.884
90512W        W51823  15.666  22.653  10.912
90513W        W51824  25.180  19.657  11.041
90514W        W51825  15.668   8.774   3.845
90515W        W51826  26.053  21.259  13.356
90516W        W51827  20.551  11.240  11.543
90517W        W51828   7.768  31.439   2.901
90518W        W51829  23.531  21.725   3.705
90519W        W51830  23.135  12.719   2.809
90520W        W51831   3.726  23.147   2.881
90521W        W51832   7.306  15.821   3.723
90522W        W51833  12.303   4.325  12.008
90523W        W51834  39.938  10.326  13.374
90524W        W51835  41.443  24.655  14.980
90525W        W51836  16.789  18.103  13.897
90526W        W51837  38.878  40.377  12.863
90527W        W51838  24.110  31.093   3.188
90528W        W51839  44.361  42.378   0.449
90529W        W51840  32.952  19.065   0.341
90530W        W51841  23.088   5.877   3.795
90531W        W51842  26.521  29.526  11.859
90532W        W51843  18.715  30.517   5.202
90533W        W51844  24.635   0.360  12.350
90534W        W51845  24.536   0.764  14.031
90535W        W51846  26.519  44.896  14.770
90536W        W51847  18.619   0.283   3.635
90537W        W51848  13.833  28.514  14.334
90538W        W51849  35.463   3.793   1.450
90539W        W51850  32.421  20.663  10.587
90540W        W51851  20.673  39.427   1.901
90541W        W51852  35.939   2.731  10.626
90542W        W51853  14.182  10.769   1.296
90543W        W51854  40.385   5.862  13.412
90544W        W51855  18.757  37.996   9.991
90545W        W51856  37.450  16.713   4.697
90546W        W51857  25.216  31.999   1.778
90547W        W51858  21.224   2.240   3.154
90548W        W51859   6.686  28.626   3.303
90549W        W51860  12.622  27.982  10.995
90550W        W51861   2.461   6.870  13.341
90551W        W51862   3.906  27.624  14.365
90552W        W51863  17.186  38.385  10.583
90553W        W51864  21.146   9.834  12.357
90554W        W51865  36.519  15.805  12.555
90555W        W51866  32.084  41.973  12.061
90556W        W51867   4.273  33.510   4.597
90557W        W51868   4.389  40.797   1.236
90558W        W51869  19.613  27.598   1.316
90559W        W51870  25.676   5.871   0.881
90560W        W51871  32.016  18.095  11.905
90561W        W51872  23.660  26.963   2.806
90562W        W51873  15.315   2.312   2.721
90563W        W51874  38.930  15.715   2.838
90564W        W51875  13.116  33.497   2.206
90565W        W51876   2.330  32.918  13.963
90566W        W51877  11.710   0.428  12.057
90567W        W51878  43.373  15.792   4.825
90568W        W51879  29.091  28.068  10.479
90569W        W51880  42.953  22.694  14.400
90570W        W51881  28.514  21.180  11.047
90571W        W51882  24.523  40.988  11.101
90572W        W51883  24.096   9.386  13.467
90573W        W51884  13.165  42.002   3.848
90574W        W51885  44.419  36.449  10.891
90575W        W51886   5.819  22.649  13.055
90576W        W51887   4.236  23.993  11.079
90577W        W51888   8.292  13.151   2.404
90578W        W51889  30.060   0.935   3.301
90579W        W51890   5.281   7.306   1.914
90580W        W51891  41.859  40.459   2.823
90581W        W51892   1.437  44.883   1.300
90582W        W51893  22.610  39.973  12.927
90583W        W51894  28.585  32.019   4.601
90584W        W51895   8.831  34.592  10.898
90585W        W51896  21.158   8.279  13.994
90586W        W51897   9.165   3.816  11.879
90587W        W51898   2.445  26.626   0.366
90588W        W51899  11.841  37.941   1.244
90589W        W51900   2.461  19.572  10.468
90590W        W51901  20.132   9.762  14.030
90591W        W51902   2.790   7.733  11.515
90592W        W51903  37.978  12.685   2.902
90593W        W51904  33.397  25.069   4.164
90594W        W51905  30.627  20.225  12.466
90595W        W51906  27.645   6.220   2.247
90596W        W51907   7.265  27.565   0.866
90597W        W51908  12.654  33.538  14.918
90598W        W51909  11.814  42.791  11.467
90599W        W51910  14.220  24.673   1.842
90600W        W51911  27.026  44.440   2.750
90601W        W51912  43.869  32.564  12.398
90602W        W51913  20.625  13.820  10.519
90603W        W51914  15.731  24.710  10.968
90604W        W51915  14.795   7.772  10.101
90605W        W51916  43.501   8.310  11.418
90606W        W51917  31.957  17.225   2.883
90607W        W51918   0.357  25.540  14.939
90608W        W51919  26.594  19.113  11.037
90609W        W51920  26.465   0.428   4.125
90610W        W51921  20.681  44.998   0.832
90611W        W51922  20.199   1.302   0.874
90612W        W51923  32.591  40.860  14.897
90613W        W51924  38.888  10.640  14.945
90614W        W51925  43.839  43.431   2.243
90615W        W51926  14.636  22.085   0.453
90616W        W51927  41.377  27.993  13.529
90617W        W51928  19.252   5.388  10.590
90618W        W51929  15.718  15.581   4.640
90619W        W51930  22.535  40.844   2.266
90620W        W51931  20.543  23.551   1.793
90621W        W51932  19.041  25.191   4.672
90622W        W51933  43.997  10.283  14.775
90623W        W51934  32.508  15.748   0.276
90624W        W51935  22.653  29.498  11.967
90625W        W51936   9.732  36.457  14.404
90626W        W51937   4.309   2.258   2.878
90627W        W51938   6.790  30.493  11.568
90628W        W51939   4.787  36.348  10.606
90629W        W51940  28.970  41.909   2.837
90630W        W51941  19.058  24.633   4.122
90631W        W51942  44.328   1.888   4.290
90632W        W51943  35.950  35.046   1.763
90633W        W51944  20.172  34.497  12.014
90634W        W51945   8.389   4.367   3.372
90635W        W51946  16.218  11.748  12.444
90636W        W51947  15.284  43.820  11.953
90637W        W51948  31.607  42.378   0.277
90638W        W51949  20.090  14.124   3.868
90639W        W51950   5.435  37.988   3.791
90640W        W51951   7.194  18.090   2.736
90641W        W51952  29.143  33.394  11.374
90642W        W51953   0.454   2.368   0.727
90643W        W51954  30.575  20.271  13.894
90644W        W51955  10.728  36.915   1.322
90645W        W51956  21.222  41.526   0.800
90646W        W51957  41.967  38.872   1.364
90647W        W51958  43.922   7.188  12.963
90648W        W51959  33.495  18.598   3.179
90649W        W51960  41.506   7.357   0.821
90650W        W51961  25.964  20.059   2.322
90651W        W51962  11.666  31.481  11.555
90652W        W51963  27.668  24.570   1.281
90653W        W51964  26.614  42.833   1.434
90654W        W51965  32.442   0.850   1.396
90655W        W51966  44.491  12.169  12.379
90656W        W51967  30.638   8.774   3.380
90657W        W51968   6.678  10.668   4.160
90658W        W51969  43.351  25.199  12.493
90659W        W51970  19.657  25.136   3.828
90660W        W51971  37.526  25.631  13.924
90661W        W51972  32.412  17.784   0.800
90662W        W51973  30.075  39.527  10.449
90663W        W51974  27.164   6.755  11.550
90664W        W51975  42.941  19.724  11.944
90665W        W51976  29.633  19.080   3.282
90666W        W51977  20.217  13.646  12.568
90667W        W51978  38.836   3.310   9.936
90668W        W51979  14.292  44.314   2.768
90669W        W51980   4.332   3.791  12.897
90670W        W51981  33.549  14.279   5.205
90671W        W51982  22.729  15.133  14.445
90672W        W51983  32.128  38.844  10.954
90673W        W51984  43.346  28.967  11.394
90674W        W51985   7.396   5.756  14.924
90675W        W51986  14.230   0.842  14.876
90676W        W51987  10.669  38.505   4.327
90677W        W51988  25.707  33.498  11.955
90678W        W51989  14.128  21.196  12.832
90679W        W51990   0.476  43.319   0.932
90680W        W51991  18.687  11.240   0.838
90681W        W51992  30.418  37.960  11.011
90682W        W51993  36.517  26.197  11.989
90683W        W51994  21.259  36.051   3.195
90684W        W51995  42.858  43.821   4.719
90685W        W51996   5.390  20.235  12.877
90686W        W51997  32.450  42.311   3.645
90687W        W51998  11.372  30.537  11.570
90688W        W51999  27.120  15.271   3.196
90689W        W52000  32.060   6.259   3.823
90690W        W52001  30.528  16.715  11.962
90691W        W52002  27.496   2.235  11.856
90692W        W52003  41.910   2.902   2.898
90693W        W52004  22.641  23.684   3.297
90694W        W52005  33.386  18.190  13.030
90695W        W52006   9.864  34.116   1.887
90696W        W52007  25.581  40.899   0.785
90697W        W52008  11.229  13.263   2.726
90698W        W52009  25.621  26.053   3.746
90699W        W52010  26.640  28.589   1.270
90700W        W52011  38.491  29.495  10.042
90701W        W52012  29.650  31.494  13.006
90702W        W52013  33.620  34.387   1.339
90703W        W52014   2.402  43.317   1.794
90704W        W52015  41.371  20.736  13.311
90705W        W52016   3.843  14.102   0.954
90706W        W52017  31.025   1.770   0.472
90707W        W52018   8.795  30.655  13.935
90708W        W52019  40.923   0.789  13.402
90709W        W52020  31.483  25.112   3.867
90710W        W52021  44.283  37.404  10.975
90711W        W52022   4.344  16.268   1.716
90712W        W52023   8.164  31.534   0.819
90713W        W52024  28.163   9.701  13.960
90714W        W52025  13.313  30.128  12.517
90715W        W52026  16.671  10.637  10.442
90716W        W52027  40.957  10.741  14.010
90717W        W52028  41.349  19.732   0.483
90718W        W52029  10.319  14.229   4.250
90719W        W52030  38.465  37.472  10.629
90720W        W52031  35.540  21.101   1.276
90721W        W52032  32.924  40.021  10.453
90722W        W52033  37.547  39.475  13.792
90723W        W52034  30.646   4.848   4.289
90724W        W52035  15.108  38.918  10.962
90725W        W52036  25.621  29.626  10.937
90726W        W52037  28.590   3.322   5.111
90727W        W52038  24.049   5.884  14.975
90728W        W52039  33.966  13.709   3.273
90729W        W52040  29.175  25.098  14.402
90730W        W52041  22.612  34.922   1.449
90731W        W52042   1.787  15.776  10.891
90732W        W52043   9.192  36.079  14.348
90733W        W52044  29.072  34.955   0.333
90734W        W52045  18.696   4.781  13.896
90735W        W52046  28.679  42.505  11.003
90736W        W52047  42.888   4.891   0.891
90737W        W52048  40.519  10.782  13.419
90738W        W52049  21.084  34.530  12.881
90739W        W52050  35.406   7.882  11.934
90740W        W52051   3.309  23.234   2.414
90741W        W52052  20.155   5.828   0.834
90742W        W52053  35.921  34.606  13.437
90743W        W52054  29.139   1.859   4.656
90744W        W52055  13.797  23.678   0.275
90745W        W52056  38.875  29.136  12.074
90746W        W52057  12.842   6.232   0.832
90747W        W52058   6.871  30.926   1.394
90748W        W52059  18.277  23.524   1.235
90749W        W52060  22.068   3.269  10.973
90750W        W52061  12.652  24.020  13.021
90751W        W52062   3.879   3.325  12.403
90752W        W52063  40.959  37.411   1.254
90753W        W52064  29.058  41.872   1.416
90754W        W52065  31.489  24.483   2.755
90755W        W52066  10.840  25.098   2.210
90756W        W52067  30.126  37.412   3.808
90757W        W52068  38.406  24.210   2.725
90758W        W52069  44.807  18.695   4.277
90759W        W52070  23.992  36.967   4.247
90760W        W52071  24.495   2.269   2.774
90761W        W52072   6.815  29.086   3.374
90762W        W52073   4.719  13.658  13.444
90763W        W52074   5.374  36.529  14.844
90764W        W52075  32.608  25.141  14.408
90765W        W52076  35.105   1.977   3.846
90766W        W52077  44.359   0.392   1.227
90767W        W52078   3.817   4.877  13.455
90768W        W52079   8.741   4.353   3.371
90769W        W52080  31.931  42.794   3.856
90770W        W52081  35.973  37.915   2.414
90771W        W52082  44.273  33.901   1.846
90772W        W52083  38.416   8.305  13.919
90773W        W52084  13.149  40.379   4.316
90774W        W52085  41.447  10.310  14.399
90775W        W52086  33.125  37.469   4.635
90776W        W52087  17.592  23.684   4.272
90777W        W52088  36.497  29.074  12.375
90778W        W52089  27.104  26.492  12.840
90779W        W52090   2.772  41.991  14.332
90780W        W52091   8.262  29.436   4.627
90781W        W52092  44.766  14.603   4.278
90782W        W52093  38.435   7.408  13.946
90783W        W52094  10.686  37.071   3.204
90784W        W52095  11.359  43.811  12.396
90785W        W52096   1.297  35.963   1.426
90786W        W52097   9.258  36.548   1.925
90787W        W52098  26.522  32.009  10.525
90788W        W52099  37.953   7.365   4.340
90789W        W52100  19.149  29.465   1.724
90790W        W52101  24.125   5.321   4.802
90791W        W52102  25.691  35.071   0.400
90792W        W52103  31.010  26.483  10.498
90793W        W52104  35.362  18.744   3.634
90794W        W52105  28.056  19.073  11.490
90795W        W52106   4.809  15.289   0.289
90796W        W52107  12.630  36.510  12.019
90797W        W52108  38.070  32.396   2.180
90798W        W52109   0.965   4.811   3.166
90799W        W52110  21.018  14.276  13.050
90800W        W52111   3.315  28.599   0.406
90801W        W52112   8.736  26.603  10.091
90802W        W52113  28.989  44.371   2.775
90803W        W52114   9.301   1.913   3.697
90804W        W52115  34.504  16.196   4.271
90805W        W52116   1.382  16.149  11.417
90806W        W52117   2.821  33.594   0.847
90807W        W52118  31.444   4.227  11.396
90808W        W52119   8.351  42.527  10.964
90809W        W52120  36.936  37.507  11.867
90810W        W52121  35.461   4.360   1.420
90811W        W52122  18.791  10.356   1.778
90812W        W52123  12.853  42.841  13.327
90813W        W52124  20.754  33.936   2.282
90814W        W52125  40.478  13.137   4.195
90815W        W52126  33.499  19.056  13.537
90816W        W52127  22.558  11.286  13.392
90817W        W52128  37.516   2.862   4.305
90818W        W52129  26.480   5.909  14.299
90819W        W52130  22.193  21.076   1.859
90820W        W52131   6.186  24.596   2.885
90821W        W52132  27.551  23.073   2.670
90822W        W52133   6.778  34.961  12.865
90823W        W52134  12.698  11.853  11.044
90824W        W52135   1.966  37.414   1.702
90825W        W52136  28.469   4.412   5.130
90826W        W52137  40.439  22.662   0.367
90827W        W52138   5.865  23.595   2.346
90828W        W52139  28.589  14.805  12.067
90829W        W52140  26.978  36.944  11.594
90830W        W52141  13.348   7.727  11.963
90831W        W52142  26.590   7.741   2.764
90832W        W52143  44.349  22.612   1.873
90833W        W52144  25.993  26.575  12.564
90834W        W52145  20.650  35.979  10.064
90835W        W52146  12.740  13.757  14.816
90836W        W52147  40.332  43.821   4.723
90837W        W52148   8.191  32.076   2.183
90838W        W52149   3.441  16.629  14.302
90839W        W52150  20.753  25.648  12.464
90840W        W52151  33.082  24.664  14.981
90841W        W52152   3.807  25.983   2.246
90842W        W52153  35.068   8.882   1.430
90843W        W52154  23.039  15.637  11.534
90844W        W52155  44.815  43.883  14.877
90845W        W52156  40.924  23.203  14.964
90846W        W52157  29.109   6.897   0.311
90847W        W52158  17.570  18.172   3.824
90848W        W52159   6.230  14.116   5.247
90849W        W52160  13.140  32.511  14.964
90850W        W52161  10.262  22.636  12.085
90851W        W52162  43.483  40.872  11.102
90852W        W52163  26.520  30.084  10.448
90853W        W52164   8.849  33.496  14.786
90854W        W52165   9.287  37.479  13.438
90855W        W52166  32.077   8.685   4.195
90856W        W52167  36.371  39.064   2.361
90857W        W52168  20.572  18.103  11.928
90858W        W52169   2.896  37.498  13.345
90859W        W52170  33.384  43.889   1.410
90860W        W52171  39.969  33.450  10.606
90861W        W52172  25.634   8.174  13.321
90862W        W52173  32.931  24.177   4.657
90863W        W52174  12.180  27.952   1.713
90864W        W52175  31.984   5.345   2.853
90865W        W52176  16.271  27.620  13.993
90866W        W52177  19.556  27.102   2.757
90867W        W52178  40.003  32.136  12.965
90868W        W52179   8.275  43.302  12.364
90869W        W52180  36.969  33.113  14.998
90870W        W52181  36.908  20.685  14.450
90871W        W52182  16.752  40.329  11.034
90872W        W52183  27.144  42.432  13.527
90873W        W52184  16.695  18.086   0.819
90874W        W52185  25.038   2.242  11.511
90875W        W52186  16.641  37.569   3.261
90876W        W52187  15.214  38.552  12.364
90877W        W52188  32.426  39.034  11.063
90878W        W52189  21.735  26.022  10.488
90879W        W52190  37.391  29.995  11.542
90880W        W52191  18.716   4.397  10.936
90881W        W52192  14.682   1.380  10.005
90882W        W52193  32.984  13.251  13.386
90883W        W52194  22.588  41.296  13.802
90884W        W52195  24.214  37.924  12.377
90885W        W52196  13.310  25.007   1.320
90886W        W52197   1.273  18.245   0.942
90887W        W52198  24.204   0.957   3.197
90888W        W52199  14.326   8.318  14.014
90889W        W52200  12.735  44.482  11.050
90890W        W52201  29.664  24.559   3.228
90891W        W52202  38.436  34.524  13.538
90892W        W52203   1.269  25.192   4.150
90893W        W52204  35.473  10.860  12.369
90894W        W52205  13.175  35.362   0.440
90895W        W52206   8.776   4.719  13.046
90896W        W52207  19.736   7.351   2.690
90897W        W52208   0.370   8.381   4.163
90898W        W52209  16.775  25.642  11.406
90899W        W52210  18.249  42.937   2.686
90900W        W52211  17.188  35.445   1.704
90901W        W52212  33.951  10.691  10.959
90902W        W52213  38.507  19.100   0.863
90903W        W52214  24.228  34.924  13.308
90904W        W52215  22.213  23.137  13.368
90905W        W52216  39.328  37.860  10.992
90906W        W52217  40.377  39.913  12.455
90907W        W52218  43.969  44.900   2.725
90908W        W52219  36.081  27.460   2.344
90909W        W52220  19.252   3.736  13.798
90910W        W52221   5.421  24.028   1.760
90911W        W52222  40.494  35.918  10.012
90912W        W52223  19.636  34.510  13.350
90913W        W52224  28.006   9.387  11.127
90914W        W52225  28.639  13.600   1.934
90915W        W52226  41.846  28.533   0.882
90916W        W52227  28.556  37.893   3.224
90917W        W52228   1.956  36.024  11.524
90918W        W52229  33.987  30.450   5.213
90919W        W52230  42.403  35.437  11.991
90920W        W52231  21.601  15.211  11.087
90921W        W52232  31.057  28.649  11.982
90922W        W52233  22.051   3.884  14.928
90923W        W52234  38.008  28.161  12.341
90924W        W52235  38.400   2.432   3.378
90925W        W52236  39.996  20.247   2.727
90926W        W52237  32.010  42.879  14.789
90927W        W52238  44.480   3.947   1.343
90928W        W52239  32.412  25.498  10.614
90929W        W52240  32.593  31.574   0.252
90930W        W52241   6.367   3.795  12.542
90931W        W52242  19.252  27.577  12.984
90932W        W52243  12.797  15.749  14.367
90933W        W52244  26.961   6.352  14.304
90934W        W52245  24.179   7.321   2.305
90935W        W52246   1.790   6.886   4.697
90936W        W52247  19.726  33.916   1.796
90937W        W52248  22.650   2.234  12.502
90938W        W52249   0.758  26.110   1.446
90939W        W52250   9.715  10.149  13.988
90940W        W52251   2.410  24.597  13.411
90941W        W52252  15.156  26.637   3.831
90942W        W52253   5.927  13.706   1.763
90943W        W52254   5.781  26.071   1.790
90944W        W52255  15.679  31.963   4.826
90945W        W52256   0.957   1.957   3.345
90946W        W52257  11.321  44.864   1.316
90947W        W52258  22.132  32.126  13.378
90948W        W52259  20.728  11.676  12.531
90949W        W52260   7.746  17.584  12.982
90950W        W52261  34.523  19.730   2.889
90951W        W52262  42.431   8.697   2.401
90952W        W52263  42.843  21.733   4.658
90953W        W52264  26.998   6.734  14.358
90954W        W52265   6.370  15.311  12.831
90955W        W52266  16.693  10.643   4.602
90956W        W52267  26.971  28.087  10.605
90957W        W52268   5.707  13.310   0.843
90958W        W52269   6.818   0.421   0.865
90959W        W52270  14.276  38.877   0.928
90960W        W52271  18.781  18.077  11.035
90961W        W52272  39.326   8.841  12.085
90962W        W52273   6.195  16.170   0.946
90963W        W52274  21.125  30.116  11.587
90964W        W52275   9.172  22.201   4.811
90965W        W52276  20.539  29.114   3.262
90966W        W52277  18.676  10.868   3.795
90967W        W52278  15.255  10.794  10.457
90968W        W52279  39.528  11.217   1.735
90969W        W52280  12.243  14.647  11.543
90970W        W52281  38.530  41.819  12.410
90971W        W52282   1.289   1.428  11.068
90972W        W52283  34.983  14.605  12.946
90973W        W52284   7.709  15.326   0.402
90974W        W52285   9.150  25.496  13.896
90975W        W52286  33.105  30.533   4.806
90976W        W52287  35.517  29.063   3.266
90977W        W52288  31.586   3.754  14.480
90978W        W52289   6.237  20.739  10.532
90979W        W52290   1.940   5.866  12.351
90980W        W52291   2.866  24.026   1.756
90981W        W52292  37.372  44.432   1.708
90982W        W52293  24.191   9.245   0.293
90983W        W52294  22.583  28.178   0.962
90984W        W52295  18.642  29.030   4.819
90985W        W52296  14.814  17.691   0.472
90986W        W52297  24.570  19.655   9.486
90987W        W52298  14.770  26.590  13.906
90988W        W52299   7.180  18.703   0.901
90989W        W52300   3.791  38.506  14.847
90990W        W52301  14.194  26.535   0.916
90991W        W52302  13.747  22.189   4.773
90992W        W52303   3.460  43.016   1.920
90993W        W52304  11.242  17.298  10.605
90994W        W52305  32.633  29.497   0.377
90995W        W52306  36.971  37.968  10.909
90996W        W52307  33.494  38.885   1.212
90997W        W52308   8.888  33.479  13.849
90998W        W52309  43.417  36.430  12.061
90999W        W52310  10.200   1.354   1.872
91000W        W52311  44.284   6.343  10.563
91001W        W52312  30.589  41.888   3.771
91002W        W52313  13.338  10.871  10.538
91003W        W52314  43.352  33.583   9.935
91004W        W52315  15.608   3.923   3.841
91005W        W52316  26.992   1.467  12.479
91006W        W52317  32.532   0.293   1.354
91007W        W52318  25.020  15.168   1.883
91008W        W52319  14.252  44.340   5.218
91009W        W52320  17.297  10.851   3.346
91010W        W52321   9.765  33.124   1.398
91011W        W52322  10.235  22.130  10.602
91012W        W52323  16.762  39.962  10.483
91013W        W52324  44.788  31.635   3.804
91014W        W52325  20.035  36.086  14.942
91015W        W52326  25.191  29.449   3.640
91016W        W52327   2.343  44.420  11.009
91017W        W52328  39.996  37.056   0.757
91018W        W52329  25.514  38.533   1.855
91019W        W52330   5.297  28.661  10.436
91020W        W52331  14.150  20.126  13.396
91021W        W52332  35.014  19.620   1.837
91022W        W52333  19.567   3.761   4.181
91023W        W52334  28.029  37.838  12.478
91024W        W52335  28.088  27.059   2.408
91025W        W52336  16.638  20.561   2.266
91026W        W52337  24.720  12.625  12.519
91027W        W52338  37.088   2.737  11.035
91028W        W52339   5.387  28.156   3.321
91029W        W52340   8.799  34.921   5.191
91030W        W52341  42.960  16.701   3.732
91031W        W52342  25.180  15.234   3.760
91032W        W52343   9.210  16.199  10.943
91033W        W52344  30.590   2.742   2.180
91034W        W52345   9.731   4.712   1.913
91035W        W52346  38.527  33.578   4.667
91036W        W52347   0.299  35.909  14.783
91037W        W52348  11.698  10.381   4.346
91038W        W52349  20.586   0.284  11.601
91039W        W52350  22.127  40.973  13.998
91040W        W52351  35.942  44.791  12.997
91041W        W52352   6.712  10.847  13.404
91042W        W52353   3.868  39.980  13.358
91043W        W52354   0.862  32.621  11.051
91044W        W52355   1.481   8.232   4.666
91045W        W52356  27.511  35.443  10.917
91046W        W52357  31.984  18.057  11.125
91047W        W52358  43.785  18.691  13.894
91048W        W52359  37.886  13.257  14.440
91049W        W52360   4.738  11.763   4.646
91050W        W52361  43.002  20.718  14.356
91051W        W52362  17.564  12.362  14.785
91052W        W52363   4.222  22.633   3.670
91053W        W52364   9.713  17.579   0.409
91054W        W52365  42.373  30.142  13.533
91055W        W52366  43.355  43.470  13.971
91056W        W52367   6.283  12.641  14.346
91057W        W52368  42.982   1.401   0.254
91058W        W52369  18.609   2.858   4.296
91059W        W52370  33.099   5.422   3.215
91060W        W52371  42.837  20.196  13.518
91061W        W52372  29.485  18.069  12.570
91062W        W52373  29.560  38.372   2.899
91063W        W52374  35.391  40.840   3.659
91064W        W52375  16.079  44.804  10.600
91065W        W52376   0.781  10.335   2.723
91066W        W52377  12.805  18.548  14.774
91067W        W52378   8.740  30.928   2.287
91068W        W52379   2.327  40.965   0.742
91069W        W52380  12.698  34.437  14.825
91070W        W52381  23.119   2.920   4.688
91071W        W52382  11.801   0.467   1.795
91072W        W52383  34.036  37.407   2.389
91073W        W52384  10.686  27.162  14.510
91074W        W52385  28.485  28.646  13.880
91075W        W52386  38.327  25.613  11.992
91076W        W52387   8.852  31.114  12.553
91077W        W52388  41.322  13.351  12.013
91078W        W52389  13.234  41.375  13.026
91079W        W52390  13.278  14.196   0.825
91080W        W52391  17.595  22.706   4.174
91081W        W52392   5.398  38.995  11.470
91082W        W52393  44.987  34.999  14.294
91083W        W52394   4.891  14.666   3.317
91084W        W52395   7.839  40.943  14.886
91085W        W52396   6.919  18.147   9.985
91086W        W52397  38.933  28.944  13.897
91087W        W52398  23.515  18.172   4.299
91088W        W52399  19.111  30.521   2.271
91089W        W52400  22.180  31.433  10.939
91090W        W52401  41.401  39.889  14.389
91091W        W52402  27.636  25.608   1.795
91092W        W52403  12.306   7.702   3.648
91093W        W52404  18.129  40.371   2.677
91094W        W52405  25.048   6.808  11.585
91095W        W52406  12.296   6.278  13.029
91096W        W52407  13.814  44.849   4.126
91097W        W52408  20.598   2.384  12.893
91098W        W52409  27.508   9.221   3.685
91099W        W52410  41.793   5.415   2.689
91100W        W52411  40.800  43.825  10.565
91101W        W52412  22.548  17.061   0.396
91102W        W52413   8.663  17.629   2.770
91103W        W52414  29.666   2.848   5.115
91104W        W52415   6.908  26.038   4.283
91105W        W52416  41.889  39.835  12.942
91106W        W52417  28.171  25.210   4.309
91107W        W52418   4.847  11.314  13.377
91108W        W52419  31.056  38.884   1.210
91109W        W52420  12.248  36.044   1.732
91110W        W52421  43.359  31.449   0.921
91111W        W52422  39.490  37.380  11.432
91112W        W52423  30.585  14.159  13.445
91113W        W52424  11.143   8.385  11.444
91114W        W52425  42.960  29.575  14.006
91115W        W52426  30.438  42.323  14.872
91116W        W52427  38.459  14.136   4.354
91117W        W52428  41.822   2.763   0.427
91118W        W52429  36.000  34.011  12.497
91119W        W52430  12.236   6.313   1.240
91120W        W52431  32.591  40.902   2.329
91121W        W52432  15.151  34.452  14.990
91122W        W52433  40.387  32.404  11.080
91123W        W52434  44.397   5.924   4.288
91124W        W52435  26.017   2.317   4.172
91125W        W52436  43.948  32.928   0.415
91126W        W52437  26.476  14.236   4.661
91127W        W52438  19.771  43.995   4.176
91128W        W52439  31.117  22.049   4.162
91129W        W52440  41.788  13.795  14.436
91130W        W52441  34.469  20.542  13.963
91131W        W52442  19.064  29.552   4.813
91132W        W52443  39.855   5.272   4.605
91133W        W52444  12.356  32.465   1.414
91134W        W52445  19.163   4.312  12.894
91135W        W52446  27.672  44.259  10.097
91136W        W52447  41.417   5.375  14.408
91137W        W52448  43.887  36.471   3.220
91138W        W52449  35.943  22.023  10.417
91139W        W52450   4.935   4.894  11.935
91140W        W52451   0.264  42.327  10.426
91141W        W52452  40.397  29.443  13.049
91142W        W52453  16.693  43.945   3.339
91143W        W52454  30.518  13.153  13.016
91144W        W52455  14.808  32.133   1.446
91145W        W52456   4.933   0.249   4.683
91146W        W52457  34.568  13.635  13.815
91147W        W52458  13.176  31.004  11.392
91148W        W52459  38.925   3.331   2.332
91149W        W52460  36.998   4.235   1.916
91150W        W52461  12.202  30.020  13.417
91151W        W52462  23.177  17.280   2.301
91152W        W52463  21.103  16.221  10.987
91153W        W52464  32.479   7.256  12.035
91154W        W52465   9.723   6.764   4.672
91155W        W52466  29.939  30.651   2.776
91156W        W52467  38.959  28.175   0.335
91157W        W52468   3.233  40.461  13.802
91158W        W52469  30.519  28.135   4.834
91159W        W52470   7.700  12.179   3.867
91160W        W52471  44.270   3.315  14.807
91161W        W52472  37.831  24.215  13.993
91162W        W52473  37.573   4.722  12.941
91163W        W52474  22.187  29.096   2.367
91164W        W52475  41.461  31.432  11.894
91165W        W52476  29.457   9.170   9.548
91166W        W52477  27.054  34.559  14.935
91167W        W52478  18.757  26.688   5.208
91168W        W52479  14.720  38.974   9.986
91169W        W52480  28.955   7.747  11.407
91170W        W52481  33.623  28.559  10.608
91171W        W52482   2.383   6.424  10.003
91172W        W52483   3.738  17.670  13.791
91173W        W52484  25.625  37.459  14.905
91174W        W52485  24.601  16.720  12.040
91175W        W52486  34.946  16.223  12.446
91176W        W52487  25.511  35.482   3.718
91177W        W52488  20.154  27.135  10.493
91178W        W52489   3.425  21.645   3.154
91179W        W52490  10.379  16.123   9.981
91180W        W52491  23.519  29.083   3.763
91181W        W52492  28.679  28.499  14.322
91182W        W52493  38.398  27.470  14.398
91183W        W52494  14.203  39.541  12.999
91184W        W52495  19.737  19.617   3.846
91185W        W52496  40.907  12.802   2.372
91186W        W52497   5.929  31.147  14.415
91187W        W52498  35.960  30.498   2.743
91188W        W52499   3.736  22.579   4.615
91189W        W52500  12.137  40.046  10.995
91190W        W52501  18.545  35.096   0.955
91191W        W52502  11.154  32.981  13.509
91192W        W52503  42.872  40.507   0.729
91193W        W52504   5.214  41.329   3.200
91194W        W52505   3.376  19.227   2.232
91195W        W52506  41.038  18.744   3.765
91196W        W52507   1.902  19.091  10.545
91197W        W52508  21.637   6.275   3.703
91198W        W52509  42.826   2.812   4.216
91199W        W52510  33.614  14.127   0.422
91200W        W52511  18.286  26.592   2.738
91201W        W52512  28.471  39.555  12.063
91202W        W52513   5.819  44.868   0.816
91203W        W52514  21.722  19.285  12.491
91204W        W52515  29.940  26.030  11.005
91205W        W52516  21.158  11.285   3.672
91206W        W52517  12.646  43.454   4.604
91207W        W52518  29.548  13.235   0.473
91208W        W52519   4.877   8.261   4.800
91209W        W52520  27.479  35.896  10.540
91210W        W52521  33.392  43.019  10.506
91211W        W52522  36.096  40.411  11.599
91212W        W52523   7.789  21.674  14.911
91213W        W52524  16.115  30.490   3.280
91214W        W52525  14.107  44.352   4.234
91215W        W52526  32.889  43.999   3.745
91216W        W52527   8.230  38.001  12.987
91217W        W52528  18.749  35.950   4.702
91218W        W52529   5.439   5.847   0.765
91219W        W52530  17.225  32.501   0.752
91220W        W52531  34.437  13.712  11.529
91221W        W52532  12.829  25.627   4.805
91222W        W52533  12.342  30.438   4.288
91223W        W52534   2.913  23.191   2.699
91224W        W52535  25.170  39.915  13.865
91225W        W52536  33.035  32.468   2.361
91226W        W52537  14.788  14.607  14.870
91227W        W52538  26.596  35.060  14.283
91228W        W52539  12.856  16.769  10.947
91229W        W52540  36.376  36.848   3.735
91230W        W52541  40.920  11.864  14.461
91231W        W52542  12.635  38.890  12.970
91232W        W52543  12.649  38.516  10.592
91233W        W52544  39.533  31.465   2.731
91234W        W52545  44.439  40.441   1.224
91235W        W52546  23.121  40.001  12.415
91236W        W52547  33.455  14.112  14.333
91237W        W52548  30.142  20.524   0.457
91238W        W52549   8.883  33.090  13.345
91239W        W52550  20.562  42.015  11.501
91240W        W52551  39.947  20.145  11.117
91241W        W52552  39.462  42.884  13.821
91242W        W52553   4.239  21.090  12.492
91243W        W52554  21.620  24.478   4.617
91244W        W52555  13.140  31.630  12.981
91245W        W52556  37.079  11.813  13.044
91246W        W52557  21.673   2.912  14.024
91247W        W52558   1.935  33.054   3.380
91248W        W52559  20.088  43.500   4.828
91249W        W52560   8.794  42.831   2.379
91250W        W52561   3.417  18.559   2.885
91251W        W52562  26.151  26.561  11.465
91252W        W52563  20.644  18.288   1.391
91253W        W52564   5.876  44.269   0.466
91254W        W52565  30.995  39.823   0.398
91255W        W52566  44.010  12.358   2.770
91256W        W52567  39.990  24.088  12.970
91257W        W52568  10.313   6.680  12.963
91258W        W52569  39.384  44.889  10.949
91259W        W52570  13.645  20.061  14.342
91260W        W52571  25.641  12.776  13.943
91261W        W52572  38.063   6.879   4.278
91262W        W52573  13.784  29.156  11.599
91263W        W52574  42.973  36.888  11.371
91264W        W52575   6.841  35.427  13.061
91265W        W52576  22.216   2.309   4.299
91266W        W52577   2.388   1.905   2.824
91267W        W52578  11.739  22.227   1.413
91268W        W52579  32.478  42.459   1.726
91269W        W52580  38.542   9.807  14.032
91270W        W52581  34.425  44.395   0.286
91271W        W52582  26.993  36.401  13.951
91272W        W52583  21.586   7.359  11.376
91273W        W52584  33.946  19.129   1.217
91274W        W52585  12.727  23.700   2.875
91275W        W52586  21.234  27.514   2.209
91276W        W52587  28.441   7.225   4.113
91277W        W52588   1.848   4.299  13.327
91278W        W52589  30.521   0.432  13.990
91279W        W52590  36.376  18.598  13.856
91280W        W52591  37.067   1.743  12.447
91281W        W52592  27.955  34.535   0.465
91282W        W52593   6.682   8.806  12.001
91283W        W52594   8.870  26.549   1.300
91284W        W52595  20.134   5.210   2.369
91285W        W52596   5.366   7.230   2.665
91286W        W52597  27.610  11.186   3.671
91287W        W52598  21.163   8.878   4.148
91288W        W52599   1.964  40.539  14.851
91289W        W52600  31.632  41.493  12.978
91290W        W52601  11.748  44.900  14.801
91291W        W52602  20.249   3.910   0.760
91292W        W52603   8.332   0.396   2.833
91293W        W52604  44.435  14.769  10.053
91294W        W52605   2.763  43.798  14.447
91295W        W52606  39.868  34.431  11.492
91296W        W52607  23.217   5.338   2.279
91297W        W52608  29.629  40.852  10.947
91298W        W52609  30.975   9.879   1.372
91299W        W52610  25.988   4.930  12.531
91300W        W52611  37.904   1.289   2.355
91301W        W52612  30.499  18.252   2.804
91302W        W52613  37.887   1.914   9.945
91303W        W52614  26.557   6.360  13.452
91304W        W52615  28.978   7.752   0.479
91305W        W52616  44.437  35.421  12.419
91306W        W52617   2.929  44.473  12.854
91307W        W52618  37.908  14.760   0.918
91308W        W52619  13.334  12.283   0.474
91309W        W52620  11.823  16.615  14.444
91310W        W52621  27.075  24.510  11.611
91311W        W52622  42.401  11.182  10.629
91312W        W52623   4.820  18.790   3.189
91313W        W52624  13.277  27.032  13.335
91314W        W52625  43.305  20.029   4.233
91315W        W52626  43.005  43.925   1.380
91316W        W52627  22.611  39.355  13.411
91317W        W52628   7.364  31.531   0.833
91318W        W52629   5.721  28.987   0.246
91319W        W52630  40.358  30.060  14.347
91320W        W52631   8.199  20.574  13.347
91321W        W52632  19.625  12.312   3.866
91322W        W52633  18.633   2.298   1.813
91323W        W52634  10.194  11.338   4.605
91324W        W52635  10.734  27.642  12.918
91325W        W52636   6.251   5.709  14.851
91326W        W52637  43.958  14.271   3.630
91327W        W52638   1.838  35.565  13.442
91328W        W52639  27.164  42.847   3.791
91329W        W52640  43.799  25.686  11.385
91330W        W52641   6.200   0.481  14.839
91331W        W52642  38.427  40.950   0.841
91332W        W52643   5.744  12.706  12.946
91333W        W52644  29.071  39.036  13.490
91334W        W52645  20.690  29.508   5.775
91335W        W52646  33.932  29.062   1.735
91336W        W52647  33.555  40.324   0.369
91337W        W52648  30.461  19.079  10.575
91338W        W52649  18.729  32.956  12.574
91339W        W52650  25.181  25.195  12.399
91340W        W52651  27.482  38.057  13.535
91341W        W52652  41.291  14.721  13.952
91342W        W52653  39.469  12.823   1.823
91343W        W52654   6.912  22.023  13.535
91344W        W52655   7.228  40.034  11.886
91345W        W52656  41.416  38.917   4.263
91346W        W52657   3.750  12.795  14.312
91347W        W52658  30.494  12.188  10.505
91348W        W52659  25.707   4.801  14.989
91349W        W52660  39.429  19.638   4.250
91350W        W52661  19.236  22.068   0.902
91351W        W52662  20.167   3.844  10.945
91352W        W52663  28.452  42.401   3.716
91353W        W52664  11.635   2.434  11.413
91354W        W52665  30.012  11.270  13.063
91355W        W52666  44.807  17.722  10.634
91356W        W52667  43.279  40.911  13.831
91357W        W52668  34.370  15.134  12.474
91358W        W52669  16.710  22.598   3.789
91359W        W52670  20.536  43.832   2.296
91360W        W52671  19.117   0.352   4.244
91361W        W52672   2.771  31.031   3.327
91362W        W52673  24.172  28.930  10.501
91363W        W52674  28.606  19.544   4.834
91364W        W52675  25.170  17.237  11.421
91365W        W52676  31.917  23.662   3.319
91366W        W52677  24.065  29.059   4.256
91367W        W52678   6.775  44.854   1.895
91368W        W52679  25.188  31.029   0.377
91369W        W52680   0.822  21.019   2.896
91370W        W52681  27.484  44.985   1.809
91371W        W52682  13.180  11.242  10.519
91372W        W52683  33.115  41.446   1.245
91373W        W52684   5.837  36.037   3.679
91374W        W52685   7.832   7.694   4.306
91375W        W52686   2.435   9.203   2.748
91376W        W52687  12.344  15.178   3.684
91377W        W52688  29.021  28.999  11.124
91378W        W52689  29.170  22.028  11.438
91379W        W52690  23.227  28.000  14.333
91380W        W52691  17.173  29.929   2.667
91381W        W52692  16.582  16.149   0.843
91382W        W52693  36.878  19.127  12.388
91383W        W52694  33.587  18.187   4.168
91384W        W52695   4.749   9.217  14.490
91385W        W52696  15.691   2.771  12.097
91386W        W52697  15.659   1.300   3.712
91387W        W52698  32.568  29.115  12.403
91388W        W52699  19.603  33.101   1.280
91389W        W52700  11.262   5.420  14.323
91390W        W52701   2.438  28.631   0.288
91391W        W52702   5.868  44.384  11.537
91392W        W52703  36.368  40.919   4.623
91393W        W52704   3.750   2.350   2.396
91394W        W52705  20.598  37.475  14.001
91395W        W52706  23.648  33.050   2.787
91396W        W52707  24.222  23.128   2.387
91397W        W52708  23.643  38.021   2.257
91398W        W52709  36.390  14.174   1.768
91399W        W52710  24.697  24.616  13.885
91400W        W52711  41.363  15.275  10.448
91401W        W52712  27.058  10.307   4.320
91402W        W52713   3.840  19.623   1.218
91403W        W52714   8.181  36.917   1.749
91404W        W52715   8.686   3.834   2.684
91405W        W52716  17.275  37.572  10.510
91406W        W52717  37.352  32.569   1.360
91407W        W52718  40.875  38.549   3.222
91408W        W52719  30.529  20.625  13.462
91409W        W52720  32.001  21.525  12.052
91410W        W52721  13.709  38.033  12.419
91411W        W52722  16.100  33.112   0.303
91412W        W52723  39.436  19.260  11.530
91413W        W52724  12.856  26.467   5.781
91414W        W52725  26.083  37.582   4.597
91415W        W52726  40.331  41.500  12.421
91416W        W52727   4.354  44.899   2.707
91417W        W52728  33.991  38.890  10.000
91418W        W52729   8.894  31.099  13.538
91419W        W52730  43.987  28.652   0.792
91420W        W52731   7.796  23.507   0.430
91421W        W52732  15.176  39.868  12.428
91422W        W52733  26.502  41.428   0.966
91423W        W52734  36.508  21.190  14.504
91424W        W52735   7.334  32.033  11.475
91425W        W52736   9.851  17.215   1.339
91426W        W52737   3.921  14.691   4.292
91427W        W52738  17.174   4.810   4.222
91428W        W52739  12.723  35.371  14.782
91429W        W52740   2.400   1.389   3.316
91430W        W52741  14.814  18.690  13.833
91431W        W52742  25.575   0.985  10.916
91432W        W52743  16.168  13.629  13.877
91433W        W52744  18.566  23.549   0.911
91434W        W52745  32.139   0.761   1.387
91435W        W52746   4.850  16.218  10.932
91436W        W52747  32.904  41.979   2.809
91437W        W52748   9.691   3.755  14.930
91438W        W52749  16.745  25.531   3.301
91439W        W52750  29.579  42.996   0.898
91440W        W52751  22.198  35.995   1.706
91441W        W52752  43.981  26.127   0.339
91442W        W52753  39.437  41.969  12.069
91443W        W52754  29.117  26.565   5.135
91444W        W52755  22.998  29.440   2.747
91445W        W52756  17.284  32.110   0.477
91446W        W52757  27.602  33.450   2.812
91447W        W52758  10.153   9.176  10.977
91448W        W52759  12.287  29.648  13.978
91449W        W52760  14.791  34.920  13.544
91450W        W52761  44.447   2.890   1.810
91451W        W52762   2.961  28.123  13.925
91452W        W52763  15.702  31.150  13.013
91453W        W52764  10.229   7.330   5.171
91454W        W52765  23.638  37.897  12.573
91455W        W52766   0.883  35.889  12.970
91456W        W52767  41.309  32.889   4.625
91457W        W52768  39.427  35.491   4.136
91458W        W52769   4.750  19.076  11.478
91459W        W52770  15.089  12.615   4.243
91460W        W52771   1.319  37.003   3.838
91461W        W52772   6.213  19.601  14.334
91462W        W52773  31.998  29.084  14.950
91463W        W52774  14.215  42.949  13.966
91464W        W52775  10.324  32.482   1.222
91465W        W52776   1.330  40.034  11.075
91466W        W52777  36.453  19.607  13.333
91467W        W52778   7.381  26.480   1.710
91468W        W52779  39.428  35.543  12.846
91469W        W52780  37.981  39.963  12.503
91470W        W52781   8.684  13.211   0.260
91471W        W52782  21.638  12.825   2.191
91472W        W52783  13.764  29.927   1.256
91473W        W52784  43.882  23.535   2.239
91474W        W52785  20.678  10.848   4.202
91475W        W52786  28.107  27.982  10.626
91476W        W52787  27.528  12.332  13.875
91477W        W52788  12.715  39.507   0.476
91478W        W52789  32.071   0.295  12.013
91479W        W52790   5.233   7.868  11.905
91480W        W52791  33.946  28.533   2.667
91481W        W52792   3.245  39.516   4.681
91482W        W52793  13.782   3.845  11.560
91483W        W52794  15.100   1.472  14.396
91484W        W52795  14.807  21.066  11.569
91485W        W52796  16.239  12.797  13.379
91486W        W52797  37.569  18.097  11.966
91487W        W52798  35.395  31.529  11.439
91488W        W52799  16.159  20.270  13.882
91489W        W52800  10.875  24.482  13.860
91490W        W52801  39.514  44.472  13.023
91491W        W52802  11.685  36.543  11.512
91492W        W52803  37.507  32.409  10.972
91493W        W52804  26.027  18.600   2.814
91494W        W52805  39.850   7.713   2.787
91495W        W52806   8.298  43.922  13.540
91496W        W52807  28.111  38.039   2.878
91497W        W52808   0.909   8.257   2.353
91498W        W52809  42.417  23.029  11.557
91499W        W52810   9.817  14.744   0.248
91500W        W52811   9.375  21.568  12.561
91501W        W52812  11.200   4.922  11.881
91502W        W52813  28.148  30.971  12.346
91503W        W52814  23.218  17.695   4.128
91504W        W52815   8.880  33.016  13.884
91505W        W52816  39.962  41.483   3.647
91506W        W52817  35.452  28.596  10.526
91507W        W52818  42.998  25.698   1.272
91508W        W52819  44.455  31.927  13.796
91509W        W52820  33.879  36.368   1.755
91510W        W52821  40.872  34.016   0.255
91511W        W52822   3.903  33.406   2.310
91512W        W52823  22.101   4.399  11.980
91513W        W52824  29.980  18.238  14.843
91514W        W52825  23.204   1.401  13.920
91515W        W52826  40.491  20.087   1.852
91516W        W52827  14.656  28.047  10.539
91517W        W52828  23.548  37.578  11.444
91518W        W52829  30.995  25.039  12.040
91519W        W52830   7.228  39.845   0.256
91520W        W52831  26.009  15.690  13.381
91521W        W52832  33.412  41.523   3.696
91522W        W52833  29.024  24.149   2.864
91523W        W52834  21.711  44.465  11.004
91524W        W52835  30.654   2.729   2.781
91525W        W52836  25.101  34.019   0.397
91526W        W52837   9.872  26.165   3.825
91527W        W52838  31.601  37.369   0.456
91528W        W52839  29.048  26.133   3.677
91529W        W52840   9.292   8.703  11.877
91530W        W52841  20.231  40.377  12.911
91531W        W52842  42.444  17.722   0.300
91532W        W52843  26.535   8.874   4.227
91533W        W52844  21.566  44.324  13.312
91534W        W52845  32.532  25.082   3.643
91535W        W52846   2.268  27.057  11.611
91536W        W52847  29.995  33.381   3.783
91537W        W52848  18.253  29.617   4.644
91538W        W52849  23.672  32.585  12.414
91539W        W52850   4.320   2.746  10.976
91540W        W52851  24.067   8.320   4.194
91541W        W52852  29.507   5.193   1.859
91542W        W52853  36.099  28.007   3.319
91543W        W52854  36.411   5.397   2.716
91544W        W52855  30.503   8.308   1.386
91545W        W52856  24.002  33.493   0.434
91546W        W52857  10.330  35.001  11.987
91547W        W52858   8.727  29.533  12.386
91548W        W52859   1.312  41.866   3.796
91549W        W52860  30.463  22.617   2.859
91550W        W52861  41.013  25.175   4.167
91551W        W52862  37.392  33.939  12.922
91552W        W52863  12.660  29.624  14.303
91553W        W52864  24.599  12.662   0.402
91554W        W52865  10.310  21.236  10.959
91555W        W52866   1.752  25.562  14.868
91556W        W52867  25.078  35.434  11.453
91557W        W52868   2.888  40.841  12.039
91558W        W52869   0.812  10.737   4.822
91559W        W52870  17.290  18.050  10.019
91560W        W52871  17.283  18.274   2.715
91561W        W52872  10.168  10.853  11.380
91562W        W52873  36.098   7.202   4.312
91563W        W52874  15.817  23.124  11.938
91564W        W52875  44.434  43.002  10.406
91565W        W52876  18.220   3.829   1.326
91566W        W52877  35.875  12.667  13.405
91567W        W52878   2.887  18.612  13.441
91568W        W52879  18.241   7.852   4.691
91569W        W52880  40.525   0.832   0.840
91570W        W52881  41.016  12.130  14.467
91571W        W52882  35.078   8.823   1.720
91572W        W52883  24.082  13.247   2.259
91573W        W52884  34.059  10.636  13.857
91574W        W52885  11.234  43.292  13.966
91575W        W52886  27.049  22.224   4.600
91576W        W52887  20.052  40.872   4.719
91577W        W52888   5.844  33.556   1.912
91578W        W52889   6.201  28.449  14.469
91579W        W52890  38.855   3.348  13.912
91580W        W52891  13.614  31.563  14.859
91581W        W52892  15.757  31.096   4.630
91582W        W52893   2.465  41.525   1.412
91583W        W52894  32.008   2.472   1.304
91584W        W52895  13.286  28.615   1.889
91585W        W52896   4.273  18.150   1.732
91586W        W52897  25.986  35.902  13.883
91587W        W52898   9.225   9.336   3.845
91588W        W52899  22.605  31.421  11.897
91589W        W52900  31.933  13.199  13.052
91590W        W52901  24.074  34.517  12.082
91591W        W52902  34.559  41.805   0.390
91592W        W52903  34.472  29.931  10.580
91593W        W52904  33.505  21.049   4.748
91594W        W52905  41.294  24.009  10.499
91595W        W52906   4.287  17.263  14.859
91596W        W52907  34.553  23.617  14.286
91597W        W52908   7.689  28.145   0.783
91598W        W52909  40.546   7.237   5.245
91599W        W52910  31.606  35.384   4.247
91600W        W52911  16.266  24.555   4.193
91601W        W52912   7.359   2.241   4.286
91602W        W52913   5.221  36.935  14.942
91603W        W52914   2.460  32.978   2.868
91604W        W52915  23.006  34.386  13.812
91605W        W52916  41.452  25.076   4.680
91606W        W52917  22.072   0.945  12.502
91607W        W52918  34.519  41.034  12.836
91608W        W52919  36.463  22.172  12.859
91609W        W52920   2.379   3.307  12.051
91610W        W52921  20.674  32.428  12.001
91611W        W52922   4.279  12.237  14.812
91612W        W52923  41.389  10.848  10.911
91613W        W52924  26.699   2.772  12.445
91614W        W52925  17.726  37.943   1.280
91615W        W52926   9.196  27.537  13.421
91616W        W52927  30.000  28.675  10.534
91617W        W52928   5.823  31.130   1.425
91618W        W52929  44.828  10.780   0.426
91619W        W52930  26.124  32.528  11.587
91620W        W52931  36.505  40.490   0.843
91621W        W52932  17.711  19.617   3.183
91622W        W52933   0.459  11.258   2.735
91623W        W52934   3.219   1.350   0.782
91624W        W52935  22.214  41.895   1.242
91625W        W52936   0.413  31.465   0.456
91626W        W52937  29.432   7.178  14.307
91627W        W52938  25.120  12.345  13.901
91628W        W52939  11.237  14.331  10.951
91629W        W52940  22.124  26.208   2.404
91630W        W52941  33.002  17.258   3.328
91631W        W52942  25.112  14.763   2.755
91632W        W52943  16.772  17.772   1.369
91633W        W52944  30.150  29.432  11.028
91634W        W52945  39.019  10.351  13.006
91635W        W52946  41.489  43.781   2.417
91636W        W52947  42.497   7.413   0.382
91637W        W52948  27.084  44.929   1.914
91638W        W52949   7.688  34.537  11.413
91639W        W52950   2.388  35.971  11.470
91640W        W52951  37.851  21.061   3.350
91641W        W52952  28.015  23.677  12.409
91642W        W52953  24.636  28.596  14.853
91643W        W52954   7.779  21.577   4.224
91644W        W52955   4.383   2.297   0.887
91645W        W52956  27.941  21.131  12.542
91646W        W52957  21.730  21.616   2.737
91647W        W52958  19.741  27.658   2.267
91648W        W52959  29.153  35.870   1.917
91649W        W52960  21.637  38.328  13.872
91650W        W52961  37.896  27.174  12.077
91651W        W52962  23.664  30.555   1.742
91652W        W52963  12.666  39.431   3.147
91653W        W52964  22.021  42.434  13.330
91654W        W52965  16.609  28.630  13.358
91655W        W52966  28.942  14.795  14.779
91656W        W52967  23.181  11.829  14.759
91657W        W52968  35.965  25.568  11.439
91658W        W52969   8.322   3.405   0.419
91659W        W52970  40.879   8.389   0.481
91660W        W52971  29.509  31.413  11.500
91661W        W52972   4.728  20.556   4.258
91662W        W52973  38.022  17.796   0.264
91663W        W52974  18.555  23.016   2.362
91664W        W52975   9.776   2.924   4.697
91665W        W52976  15.234  33.572  12.993
91666W        W52977   7.785  21.197   0.287
91667W        W52978  43.382  30.024   4.323
91668W        W52979  17.789  38.396   1.258
91669W        W52980  11.248  22.016  12.048
91670W        W52981  19.139   1.427   4.217
91671W        W52982  37.925  43.766  14.815
91672W        W52983   1.812  29.024  14.406
91673W        W52984  37.377  10.641   4.345
91674W        W52985  44.945  22.169   4.147
91675W        W52986  38.345  35.922  13.930
91676W        W52987  26.163  10.755   1.917
91677W        W52988  33.977  33.530   4.259
91678W        W52989   2.862  36.858  13.843
91679W        W52990  25.195  15.123   2.272
91680W        W52991  11.629   8.672  14.451
91681W        W52992  39.489  27.540  14.375
91682W        W52993  16.639  17.234   0.472
91683W        W52994  26.627  31.952  11.996
91684W        W52995  38.369   3.789  13.053
91685W        W52996   7.340  42.464   2.226
91686W        W52997  38.960  30.997  14.302
91687W        W52998  42.490  37.994   4.740
91688W        W52999  32.475  36.970  11.603
91689W        W53000  20.536  31.552   3.292
91690W        W53001  33.103  44.453  13.412
91691W        W53002  37.993  18.247   4.722
91692W        W53003  34.919  19.753  14.770
91693W        W53004  22.659  21.168  12.830
91694W        W53005  43.515  44.404   0.308
91695W        W53006  20.527  30.025   2.759
91696W        W53007  27.691  13.827   3.240
91697W        W53008  25.207  27.675   1.804
91698W        W53009  41.320   3.911   2.692
91699W        W53010  36.512   7.794   2.885
91700W        W53011  15.672  21.634  12.020
91701W        W53012  39.424  10.879   4.246
91702W        W53013   8.357  28.676   4.190
91703W        W53014  15.777  27.076   0.751
91704W        W53015  28.633   1.759   0.291
91705W        W53016   8.342   0.441   4.769
91706W        W53017  28.447  16.654  10.944
91707W        W53018  26.049   4.386  14.031
91708W        W53019  42.974  43.942  10.975
91709W        W53020  24.551  26.184  11.122
91710W        W53021  24.497   6.368   3.771
91711W        W53022  29.990   9.268  13.024
91712W        W53023   9.247  20.128  14.939
91713W        W53024   8.224  20.659   2.740
91714W        W53025   9.749  26.091   3.230
91715W        W53026  43.983  34.525   3.264
91716W        W53027  10.846  15.135   1.221
91717W        W53028  25.086  35.000  10.935
91718W        W53029  42.355  33.041  12.460
91719W        W53030  27.681  13.307  14.367
91720W        W53031   8.205  10.235   4.751
91721W        W53032   7.845  10.771  12.038
91722W        W53033  24.551  27.678  12.561
91723W        W53034  30.974  33.547  13.945
91724W        W53035  37.971  12.236  12.068
91725W        W53036  15.593  44.296   1.784
91726W        W53037   1.740   9.677   0.854
91727W        W53038   7.191  32.095  12.916
91728W        W53039  37.398  26.064  14.359
91729W        W53040  14.295   7.208   4.179
91730W        W53041  29.961  21.040  12.387
91731W        W53042   5.203  42.414   2.867
91732W        W53043  33.080  21.108  14.321
91733W        W53044   0.911  14.318   5.138
91734W        W53045  30.970  10.320  11.443
91735W        W53046  13.305  28.989  11.487
91736W        W53047   5.242   2.849  10.442
91737W        W53048  20.654   2.944  13.899
91738W        W53049  24.099  21.088  12.867
91739W        W53050   7.417  15.813   1.814
91740W        W53051  24.503  18.772  14.982
91741W        W53052  27.045  15.083  11.050
91742W        W53053  24.496  17.215  11.406
91743W        W53054  21.239   6.776  13.015
91744W        W53055   9.852  41.326  13.366
91745W        W53056  24.016  19.270   0.957
91746W        W53057  10.835  15.600   0.941
91747W        W53058  14.103  22.519   4.172
91748W        W53059  44.925  16.657  13.489
91749W        W53060  38.538  27.178  12.985
91750W        W53061  29.544  14.301   1.887
91751W        W53062  20.171  22.193  11.885
91752W        W53063  25.020   6.867  12.970
91753W        W53064  17.304  34.874  12.562
91754W        W53065  43.862   9.751  14.334
91755W        W53066  42.792   8.813   1.290
91756W        W53067  29.144  18.206   1.914
91757W        W53068   0.974   7.378  11.596
91758W        W53069   9.672  13.802   4.627
91759W        W53070  42.892  42.032  11.903
91760W        W53071  37.557   3.278   2.785
91761W        W53072  42.372  43.347   0.369
91762W        W53073  20.563  39.406   0.303
91763W        W53074  12.659   8.798  11.510
91764W        W53075  43.352  25.127   3.215
91765W        W53076   2.927  42.985  13.343
91766W        W53077   2.832  14.800   4.652
91767W        W53078   4.843   9.713   5.247
91768W        W53079  18.218   6.772  14.800
91769W        W53080  27.952  41.820  11.864
91770W        W53081  34.422  10.349  14.413
91771W        W53082  24.578  44.831   0.836
91772W        W53083  28.167  35.873  14.998
91773W        W53084  26.043  30.502  14.431
91774W        W53085  27.603  20.228   0.839
91775W        W53086  16.753  28.482  14.797
91776W        W53087  33.056   3.947  10.540
91777W        W53088  36.888  34.542   4.795
91778W        W53089  44.456  38.360   4.308
91779W        W53090  34.990  22.582  10.028
91780W        W53091   2.793  11.866  14.950
91781W        W53092  26.657   0.968   4.183
91782W        W53093  37.837  27.593   3.277
91783W        W53094   9.163  27.484   4.692
91784W        W53095  11.805  42.963   3.791
91785W        W53096  21.740   1.943  12.534
91786W        W53097  34.475  14.682   2.684
91787W        W53098  34.522  14.100  14.818
91788W        W53099  19.081  17.283   3.175
91789W        W53100   3.227  27.024  11.948
91790W        W53101  26.641  35.411   4.114
91791W        W53102  40.502   4.700  11.407
91792W        W53103  41.357  39.404   3.633
91793W        W53104   6.835  17.166  10.424
91794W        W53105   2.324  29.665   0.330
91795W        W53106  29.116   3.778   0.885
91796W        W53107  31.966  29.567  11.078
91797W        W53108  12.816  38.966  14.900
91798W        W53109  24.670  36.919  10.568
91799W        W53110   4.221  41.904  14.372
91800W        W53111  35.019  27.609   2.820
91801W        W53112  29.097  38.852  12.960
91802W        W53113   3.797  15.298  13.314
91803W        W53114  18.256  24.673  11.373
91804W        W53115  16.251  26.642  13.916
91805W        W53116  16.291  31.424   1.801
91806W        W53117   6.405  15.145  10.609
91807W        W53118  28.142  30.599  11.018
91808W        W53119  27.543  29.547  14.007
91809W        W53120  32.539  23.157   3.263
91810W        W53121  40.470  16.146   1.444
91811W        W53122  13.729  34.933   2.333
91812W        W53123  40.348  37.497  11.544
91813W        W53124   6.786  41.930   0.316
91814W        W53125   5.365   7.831  11.005
91815W        W53126  16.584  18.731   0.413
91816W        W53127   9.681  34.450  12.907
91817W        W53128  44.959  14.322   5.127
91818W        W53129  43.381   4.734   2.263
91819W        W53130  18.697  40.319  11.003
91820W        W53131   4.438  40.894   3.859
91821W        W53132  18.259  11.644   4.117
91822W        W53133  24.504  36.878   3.190
91823W        W53134  24.661   3.734   4.604
91824W        W53135  25.485  12.773   3.659
91825W        W53136  16.690  30.488   1.762
91826W        W53137  20.539  11.707   2.196
91827W        W53138   9.770  41.934   0.385
91828W        W53139   7.703  33.402   3.267
91829W        W53140   8.760  35.369   1.251
91830W        W53141  34.526  19.673  11.535
91831W        W53142  12.290  31.421   4.612
91832W        W53143   2.296  43.989   2.821
91833W        W53144  40.539  22.521   4.122
91834W        W53145  16.737   5.704   2.308
91835W        W53146  31.919  35.007   0.766
91836W        W53147  12.144  43.775  12.547
91837W        W53148  39.546   0.437  10.537
91838W        W53149   0.948  34.434  12.008
91839W        W53150  38.386  15.677  14.804
91840W        W53151  13.623  24.086   1.383
91841W        W53152   6.855  31.017  10.424
91842W        W53153  21.251  13.800  13.334
91843W        W53154  11.288  29.920  10.926
91844W        W53155  40.307   2.753   0.311
91845W        W53156  16.248  42.343   4.725
91846W        W53157  24.599  31.421   0.316
91847W        W53158  12.780  34.475  13.028
91848W        W53159  14.589  22.091   3.242
91849W        W53160   0.806  23.006   1.379
91850W        W53161  34.407   9.298   4.838
91851W        W53162  21.194  26.045  12.414
91852W        W53163   1.300  13.268  12.424
91853W        W53164  10.309  29.590   1.445
91854W        W53165  14.789  19.085  12.346
91855W        W53166   3.758  44.267   1.828
91856W        W53167  19.070   8.877  13.055
91857W        W53168   0.404   9.377  13.325
91858W        W53169  28.520  20.151   3.791
91859W        W53170  34.078   4.808  10.620
91860W        W53171  22.161  44.789   0.387
91861W        W53172  21.125  11.756   0.815
91862W        W53173   8.788  28.072  13.319
91863W        W53174  10.258  33.448   4.781
91864W        W53175  11.228   3.947  12.489
91865W        W53176  39.008   4.720  11.080
91866W        W53177   6.189   7.850   0.818
91867W        W53178  35.437  23.116   3.754
91868W        W53179  33.484   8.216  14.401
91869W        W53180  11.696  13.180   0.917
91870W        W53181  38.049  33.901   2.192
91871W        W53182   5.193  25.503   3.684
91872W        W53183  13.622  29.612  13.494
91873W        W53184  35.047  12.285  12.085
91874W        W53185  40.359  40.862  10.986
91875W        W53186  26.060   9.644  12.575
91876W        W53187  29.603  34.925  10.453
91877W        W53188  17.160  16.290   5.140
91878W        W53189  33.969   5.869   0.314
91879W        W53190   0.769  27.634  14.405
91880W        W53191   5.414  24.720   3.178
91881W        W53192  43.511  35.066  10.953
91882W        W53193  38.908  20.726   1.833
91883W        W53194  39.821  23.578   4.228
91884W        W53195  16.568  27.484   3.234
91885W        W53196  14.157  20.540   2.787
91886W        W53197  36.498   2.470   3.372
91887W        W53198  10.198  30.514  10.033
91888W        W53199  24.506  31.050  14.761
91889W        W53200  23.142   8.224   4.333
91890W        W53201   8.307  36.578   1.410
91891W        W53202   9.732  40.964   0.949
91892W        W53203  26.580   5.857   1.264
91893W        W53204   5.224   7.780  13.387
91894W        W53205  36.085  38.490   0.914
91895W        W53206  16.254  19.272   0.728
91896W        W53207  32.978  19.247  10.603
91897W        W53208  29.081  36.578  12.531
91898W        W53209  14.104   3.746  12.896
91899W        W53210  34.512  20.619   3.235
91900W        W53211  11.802   1.251   1.792
91901W        W53212  35.051  43.352   3.269
91902W        W53213  27.154  22.591   0.397
91903W        W53214   5.207  36.488  13.963
91904W        W53215  43.771   8.219  10.536
91905W        W53216  32.542  29.460  12.874
91906W        W53217   7.879   2.839   1.310
91907W        W53218   8.235  38.003  14.772
91908W        W53219  19.618   1.808  13.810
91909W        W53220  28.511  14.687  14.464
91910W        W53221   2.783  36.873   3.791
91911W        W53222   7.878  14.183   4.149
91912W        W53223  23.537  37.073  14.984
91913W        W53224  10.796  26.653  12.933
91914W        W53225   3.709  44.466  13.992
91915W        W53226  29.941  11.786  10.404
91916W        W53227   5.926  22.108  13.878
91917W        W53228  32.953  20.760   3.196
91918W        W53229  33.396  31.429   9.966
91919W        W53230  15.306  29.986   1.350
91920W        W53231  31.041  29.032   1.306
91921W        W53232  17.797  41.013  12.016
91922W        W53233  43.928   0.485   1.263
91923W        W53234  42.986  31.072  13.852
91924W        W53235  17.706  19.652   0.889
91925W        W53236  17.070   9.165   2.200
91926W        W53237   4.748   5.298  14.929
91927W        W53238  36.944  29.519  13.384
91928W        W53239  16.575  10.812  13.537
91929W        W53240  10.351  16.258   2.730
91930W        W53241   5.923  38.513   4.271
91931W        W53242  27.001  25.105   3.760
91932W        W53243   2.956  27.018   1.915
91933W        W53244   7.882  17.084   3.259
91934W        W53245   0.420  29.110   1.356
91935W        W53246  27.962  21.534   2.182
91936W        W53247  12.299  43.853  10.914
91937W        W53248  16.796  13.249   1.214
91938W        W53249  17.121  29.514   0.883
91939W        W53250  17.560  23.710  12.575
91940W        W53251   0.322  33.383   2.742
91941W        W53252  43.022  35.035  14.788
91942W        W53253  22.032  28.681   2.348
91943W        W53254  39.487  33.986   1.361
91944W        W53255   5.735  29.616  13.511
91945W        W53256   6.766  28.127  13.418
91946W        W53257   7.828  10.370  12.477
91947W        W53258   7.309  33.104   3.670
91948W        W53259  31.975  44.448   2.779
91949W        W53260  19.227  42.283  10.483
91950W        W53261   9.350  12.619   4.641
91951W        W53262  37.430  29.125   4.624
91952W        W53263  36.395   9.164  11.079
91953W        W53264  37.911  23.004  10.530
91954W        W53265   2.966  36.587   2.241
91955W        W53266   3.867  24.078   4.255
91956W        W53267  27.678  40.540   1.783
91957W        W53268  24.216  31.920   1.242
91958W        W53269  42.359  25.620  13.923
91959W        W53270   6.878  22.691   1.784
91960W        W53271  15.292  29.938  13.806
91961W        W53272  24.713  19.283  14.459
91962W        W53273  16.126  18.713   2.711
91963W        W53274  31.567  26.503   5.210
91964W        W53275  19.535  41.042  12.468
91965W        W53276  34.931  18.636  14.408
91966W        W53277  39.992   0.327   1.711
91967W        W53278   4.867  13.280   4.125
91968W        W53279  42.810  32.977   1.304
91969W        W53280  44.391  18.217  12.556
91970W        W53281   3.334  42.489   3.221
91971W        W53282  27.533  43.905   4.287
91972W        W53283  18.235  41.983   3.321
91973W        W53284  38.886   1.952  13.922
91974W        W53285  35.952  26.468  12.463
91975W        W53286  37.002  28.136  13.858
91976W        W53287   3.840   9.231  11.036
91977W        W53288  35.867  38.469   2.266
91978W        W53289  15.191  33.620  11.923
91979W        W53290  13.638  26.023   2.326
91980W        W53291  42.504  36.450   0.803
91981W        W53292   5.705  15.187  14.482
91982W        W53293  21.250   8.384   1.815
91983W        W53294  19.204  19.052  10.622
91984W        W53295   2.843  15.770   2.288
91985W        W53296   1.349  17.203   2.846
91986W        W53297   2.869  19.210  10.474
91987W        W53298  18.134   5.771   3.330
91988W        W53299  17.266   4.745   5.105
91989W        W53300   0.487  19.597   1.910
91990W        W53301   9.825  17.249  14.900
91991W        W53302  42.505  11.777  11.947
91992W        W53303  23.651  16.651   3.385
91993W        W53304  30.489   9.665  10.623
91994W        W53305  31.935   2.959   0.408
91995W        W53306  38.534   0.788   0.439
91996W        W53307  29.601  26.543   4.305
91997W        W53308  43.908  39.354   4.218
91998W        W53309   0.975  27.557  14.922
91999W        W53310   4.855  39.930   2.251
92000W        W53311  15.235  38.017  12.022
92001W        W53312   2.808  33.885   3.675
92002W        W53313  17.142   5.821  13.328
92003W        W53314  43.296  23.203   3.758
92004W        W53315  28.127  11.196   4.602
92005W        W53316  32.612  43.779  13.497
92006W        W53317  44.466   1.309   5.309
92007W        W53318  15.132  31.911  10.906
92008W        W53319  42.487  35.909   1.925
92009W        W53320  40.329  41.972  10.032
92010W        W53321   0.286  41.484  11.917
92011W        W53322  33.534  30.585  11.053
92012W        W53323   1.965  23.035   4.245
92013W        W53324  42.351  42.815  14.881
92014W        W53325  11.727  13.699   0.359
92015W        W53326  44.462  23.693  12.476
92016W        W53327  27.521   4.427  11.500
92017W        W53328  39.948   7.827  14.311
92018W        W53329  11.635   3.310   1.261
92019W        W53330  21.262  32.520  12.831
92020W        W53331   7.852   4.430   3.325
92021W        W53332  34.108  28.642   1.336
92022W        W53333  11.714  26.599   1.230
92023W        W53334   0.379  21.732   2.883
92024W        W53335   4.772  43.021   1.283
92025W        W53336  34.112   0.894  13.548
92026W        W53337  23.524  41.330   0.841
92027W        W53338  14.162  27.513  13.858
92028W        W53339  30.649  19.584  12.373
92029W        W53340   7.180  20.545   1.899
92030W        W53341  27.957  17.798   4.655
92031W        W53342  27.690  39.503   4.273
92032W        W53343   6.842  18.291  10.625
92033W        W53344  26.660   6.390   2.848
92034W        W53345  35.423  39.001  14.495
92035W        W53346   5.889   2.817  14.894
92036W        W53347   9.699  34.392  10.593
92037W        W53348  40.430  12.277   1.445
92038W        W53349  43.307   6.233   4.796
92039W        W53350  39.470  29.932   5.163
92040W        W53351   5.435  17.575   2.826
92041W        W53352  24.674  27.611   2.307
92042W        W53353  38.541  31.493   1.223
92043W        W53354  39.826   4.815   9.939
92044W        W53355  21.113  37.515  14.384
92045W        W53356  12.720  36.373   3.213
92046W        W53357  18.605  13.210   0.436
92047W        W53358  37.852  18.289  13.538
92048W        W53359   0.960  17.142  14.399
92049W        W53360  27.064  11.270  14.777
92050W        W53361  26.191   9.155  10.497
92051W        W53362   4.392   0.795   4.641
92052W        W53363  19.576  12.152   1.812
92053W        W53364  31.080   2.927   1.216
92054W        W53365  34.971  21.195   5.315
92055W        W53366  27.983  23.238  12.544
92056W        W53367  24.034  34.416   4.727
92057W        W53368  18.621  11.646   1.272
92058W        W53369  18.677   6.698   2.709
92059W        W53370  18.645  37.380  12.967
92060W        W53371  31.434  31.961  10.518
92061W        W53372   4.284  22.137   3.812
92062W        W53373  15.670  30.617  10.453
92063W        W53374  44.349   0.775   0.449
92064W        W53375  42.313  24.481   1.735
92065W        W53376  17.603  37.349   4.750
92066W        W53377  17.287   5.345   0.385
92067W        W53378  10.260  11.742   1.403
92068W        W53379  43.328  30.051  14.894
92069W        W53380  44.959  35.466   2.366
92070W        W53381  39.558  31.603  11.375
92071W        W53382   0.826  15.255   3.787
92072W        W53383  26.523  31.048   2.310
92073W        W53384  13.671  17.188  14.011
92074W        W53385  30.117  15.776   0.772
92075W        W53386  12.834  39.968   2.240
92076W        W53387  42.358  12.163  10.967
92077W        W53388   0.829  22.041   4.272
92078W        W53389  20.165  30.934   1.934
92079W        W53390  17.679  12.202  11.504
92080W        W53391  20.241   8.176   0.360
92081W        W53392  13.291  30.543  13.386
92082W        W53393  32.133  39.416  14.861
92083W        W53394  23.681  43.926   1.276
92084W        W53395  10.672  17.078  11.432
92085W        W53396  33.094  43.489  13.008
92086W        W53397  33.466  28.941  13.839
92087W        W53398  28.144  23.019   2.312
92088W        W53399  39.486   1.323   1.428
92089W        W53400  22.098   8.811  11.062
92090W        W53401  17.609  37.567  11.121
92091W        W53402   1.782  10.715  10.607
92092W        W53403  23.174  43.851   0.469
92093W        W53404  37.446   2.757  11.407
92094W        W53405  35.923  15.330   2.865
92095W        W53406  14.126  19.699  11.902
92096W        W53407   4.729   3.236  12.444
92097W        W53408  39.559  35.557   0.430
92098W        W53409  19.579  36.863  13.536
92099W        W53410  31.525   4.363   1.218
92100W        W53411  24.222   8.826   2.212
92101W        W53412  11.762  17.609   3.244
92102W        W53413  25.145  38.901  14.019
92103W        W53414  17.197  15.292   2.878
92104W        W53415  22.076  10.793   1.724
92105W        W53416  28.105  18.065  11.022
92106W        W53417  27.043  23.529   2.820
92107W        W53418  32.404  34.479   2.194
92108W        W53419   2.387  12.154   3.630
92109W        W53420  44.951   6.203  10.555
92110W        W53421  15.762   0.847   3.720
92111W        W53422  16.236  29.584   2.292
92112W        W53423  26.653  16.678  10.060
92113W        W53424   0.789   9.153   0.386
92114W        W53425  29.932   8.747   1.427
92115W        W53426  14.752  24.990  11.047
92116W        W53427  42.810  38.477  11.993
92117W        W53428   5.388  18.551  13.455
92118W        W53429   3.887   1.900  12.986
92119W        W53430   4.359  37.574   4.696
92120W        W53431  20.040  25.965   2.331
92121W        W53432  34.107  12.643  14.949
92122W        W53433  33.050  15.186  14.463
92123W        W53434  34.924  26.990   4.172
92124W        W53435  30.575  33.985  14.892
92125W        W53436  23.504  44.370   0.461
92126W        W53437  35.956  33.470   4.175
92127W        W53438   2.917   6.232   0.832
92128W        W53439  32.449  40.356   4.230
92129W        W53440  35.460  30.628  14.293
92130W        W53441   4.314  24.696  12.417
92131W        W53442  30.996  11.240   4.688
92132W        W53443  32.536   9.348   4.657
92133W        W53444  12.619  23.693   3.647
92134W        W53445   1.398  25.030  10.420
92135W        W53446  40.312   3.235   2.684
92136W        W53447  35.456   9.271   0.806
92137W        W53448  20.629   9.365   1.386
92138W        W53449  17.149  10.278   0.382
92139W        W53450  37.962  22.069  13.854
92140W        W53451   5.780  21.106   3.221
92141W        W53452  20.685   5.211   1.213
92142W        W53453  23.013  20.255   0.275
92143W        W53454  10.675  37.432   0.880
92144W        W53455   8.262  19.589  11.857
92145W        W53456   5.241  25.180  11.000
92146W        W53457  20.089  40.444   2.684
92147W        W53458  34.522   7.899  12.921
92148W        W53459  36.513  20.727   0.258
92149W        W53460  37.526  23.017   3.762
92150W        W53461   4.808   5.769   2.295
92151W        W53462  14.747  29.667  14.436
92152W        W53463  41.468  30.939   0.878
92153W        W53464  40.977  19.278  12.393
92154W        W53465   3.287   6.235   3.793
92155W        W53466   7.416   1.890   4.163
92156W        W53467  25.141  24.629   1.395
92157W        W53468   1.786   3.750  11.013
92158W        W53469   6.837  20.266  13.327
92159W        W53470  22.686   2.777  12.093
92160W        W53471  17.147  17.565   2.853
92161W        W53472  40.878  42.496   1.337
92162W        W53473  10.829   2.455   3.751
92163W        W53474  37.025  43.021   5.159
92164W        W53475  20.194  16.787   9.609
92165W        W53476  16.658  17.198   2.686
92166W        W53477  24.682  29.557   2.267
92167W        W53478  42.342  15.260  12.045
92168W        W53479  22.177  25.183   2.228
92169W        W53480   2.460  12.677  10.141
92170W        W53481  16.627   1.846   2.831
92171W        W53482  25.026  19.670  13.018
92172W        W53483  25.077  13.227  10.636
92173W        W53484  37.529  16.225  12.416
92174W        W53485  32.631  37.996  10.515
92175W        W53486  41.345  32.961   1.443
92176W        W53487  24.662   9.786   2.358
92177W        W53488  38.009  38.397   1.781
92178W        W53489  42.850   6.773  12.927
92179W        W53490  43.822  31.468  12.380
92180W        W53491  24.060  43.897   3.801
92181W        W53492  33.431  37.538  13.539
92182W        W53493  14.327  35.438   0.742
92183W        W53494  38.938  43.458   1.931
92184W        W53495  19.267   5.922   1.911
92185W        W53496  35.882  34.388   5.142
92186W        W53497  11.670   8.851   1.313
92187W        W53498   6.879  30.446   3.371
92188W        W53499  43.471  38.833  13.506
92189W        W53500   1.275  41.459  11.003
92190W        W53501   0.317  23.158   3.206
92191W        W53502  38.330  27.571  10.423
92192W        W53503  35.083  11.679   4.639
92193W        W53504   7.383  26.673  11.565
92194W        W53505  35.411  19.266   1.250
92195W        W53506  11.161  25.051   0.453
92196W        W53507  27.170  38.462   0.451
92197W        W53508   2.338  40.413   5.219
92198W        W53509  22.222  40.519  12.873
92199W        W53510  18.604  14.337  12.992
92200W        W53511  43.874  39.514  11.073
92201W        W53512  19.574   5.899  14.508
92202W        W53513  34.101   7.390   4.324
92203W        W53514  29.641  24.672   1.775
92204W        W53515  14.681  30.601  11.976
92205W        W53516  10.787  36.062  13.364
92206W        W53517  27.973  20.725  13.309
92207W        W53518   3.284  39.850  13.797
92208W        W53519   0.858   8.658   3.688
92209W        W53520  17.187  30.133   4.781
92210W        W53521  13.225  38.862  13.811
92211W        W53522   7.257  43.834  11.909
92212W        W53523  41.309  12.665  14.939
92213W        W53524  43.909  38.054   1.718
92214W        W53525  27.503   5.194   3.303
92215W        W53526  37.836  20.661   3.864
92216W        W53527  13.180  34.468   0.331
92217W        W53528  21.152   0.260  12.562
92218W        W53529  13.644  44.406  11.082
92219W        W53530  13.146  40.503  10.488
92220W        W53531  21.226  21.218  11.051
92221W        W53532  22.744  16.778   3.216
92222W        W53533  42.357  42.504  11.495
92223W        W53534  34.876  36.548  12.482
92224W        W53535  23.619  23.093  11.382
92225W        W53536  17.149   2.386   1.801
92226W        W53537  21.037  37.026  14.504
92227W        W53538  36.920  16.170  10.556
92228W        W53539   5.710   1.972  14.913
92229W        W53540   2.227  14.130  12.358
92230W        W53541   7.367   9.653   0.766
92231W        W53542   4.362  17.760  12.564
92232W        W53543  10.283   5.707  12.533
92233W        W53544  35.106  16.075  11.948
92234W        W53545   9.148  20.073   1.368
92235W        W53546  16.264  44.450   3.221
92236W        W53547   8.713  18.689  12.022
92237W        W53548  14.212  44.917   4.707
92238W        W53549  12.641  22.152   1.720
92239W        W53550  32.022   0.310  11.531
92240W        W53551  13.114  28.065   3.379
92241W        W53552  32.478  43.973  13.920
92242W        W53553  26.695  31.533   0.909
92243W        W53554  39.989   1.369   3.693
92244W        W53555  16.264  28.143   2.228
92245W        W53556  41.514  10.693  11.912
92246W        W53557  31.429  38.544  11.967
92247W        W53558  26.118  32.903  12.932
92248W        W53559  14.676  24.141   4.663
92249W        W53560   1.808  37.902   3.630
92250W        W53561  15.618  32.090  13.883
92251W        W53562  37.848  14.755  11.435
92252W        W53563  37.366  36.416  12.431
92253W        W53564   3.811  10.218   3.765
92254W        W53565  26.581   9.275  12.077
92255W        W53566  12.704   1.833  14.030
92256W        W53567  17.264  38.922  12.526
92257W        W53568  40.384  20.153  14.441
92258W        W53569  20.172   8.693  14.427
92259W        W53570  16.678  42.032  13.424
92260W        W53571  14.118  13.639   1.698
92261W        W53572   2.275   3.431  14.366
92262W        W53573  31.131  25.211   3.848
92263W        W53574  41.829  29.097   0.943
92264W        W53575   1.958  32.138   0.452
92265W        W53576   0.345  41.943  14.935
92266W        W53577  13.318  17.776  12.067
92267W        W53578   6.333  33.072   2.844
92268W        W53579  23.568  14.300  12.543
92269W        W53580  11.793  11.345   0.463
92270W        W53581  23.593  29.611  14.894
92271W        W53582  13.295  13.842   3.268
92272W        W53583  16.098  11.850   4.249
92273W        W53584  16.191  27.121  14.778
92274W        W53585   8.328  25.520   2.854
92275W        W53586   3.833  41.835   2.820
92276W        W53587  34.926   7.715   3.825
92277W        W53588  31.084  15.327   1.814
92278W        W53589   5.340  11.183   1.781
92279W        W53590  33.441  15.737   0.373
92280W        W53591   2.427  44.860   3.738
92281W        W53592  26.108   7.388  13.879
92282W        W53593  28.016  42.982  12.984
92283W        W53594  27.489  17.732  14.789
92284W        W53595  12.777  15.662   4.290
92285W        W53596  25.983  14.245  11.927
92286W        W53597  31.014  36.367   2.723
92287W        W53598  34.572  12.634  13.994
92288W        W53599  10.378  13.766  11.964
92289W        W53600  17.795  12.695   9.506
92290W        W53601  41.004  18.230   1.253
92291W        W53602  44.309  11.774  13.945
92292W        W53603  24.587   2.454  11.000
92293W        W53604  20.144  26.561  11.562
92294W        W53605  37.895   5.732  13.849
92295W        W53606  13.845  31.004   3.753
92296W        W53607  26.549  17.119   0.841
92297W        W53608   0.314  26.016   4.783
92298W        W53609  34.492  17.739  11.510
92299W        W53610  10.189  16.774   2.816
92300W        W53611   0.949  16.767   1.742
92301W        W53612  25.664  19.214  14.343
92302W        W53613  35.880  37.905  11.397
92303W        W53614  39.996   8.709   2.718
92304W        W53615  34.944   7.222  11.092
92305W        W53616   8.398  18.139  10.495
92306W        W53617   2.241  12.674   0.411
92307W        W53618  12.235  16.318  12.496
92308W        W53619  27.988  15.800   4.635
92309W        W53620  35.493   2.292   1.363
92310W        W53621  28.681  11.653   9.962
92311W        W53622  27.611  40.452   1.357
92312W        W53623  31.109  24.523   3.207
92313W        W53624  37.571  25.510   0.885
92314W        W53625  32.134  26.613   4.654
92315W        W53626  18.071  36.851  10.954
92316W        W53627  18.150  16.573   4.250
92317W        W53628  17.612  18.600  12.934
92318W        W53629  27.196  20.573   2.679
92319W        W53630  17.614  17.594  11.481
92320W        W53631  33.619  28.020  10.986
92321W        W53632  38.868  36.390  13.010
92322W        W53633   0.961  13.290   2.219
92323W        W53634  38.069  35.094   4.159
92324W        W53635  18.068   7.384   1.814
92325W        W53636  28.508  33.980   4.604
92326W        W53637  35.975  13.709  10.948
92327W        W53638  14.682  27.196   4.733
92328W        W53639   4.333  21.582  14.025
92329W        W53640  36.451  12.159   4.189
92330W        W53641  11.766   0.456   4.643
92331W        W53642  35.583  35.972  11.889
92332W        W53643  16.074  19.630  13.834
92333W        W53644  29.987  10.785  11.064
92334W        W53645  39.376  15.245  11.885
92335W        W53646   8.855   0.828  14.879
92336W        W53647  15.798  33.948   2.732
92337W        W53648  41.993  29.522  12.864
92338W        W53649  29.944  16.789  14.313
92339W        W53650   6.212  41.998  13.825
92340W        W53651  28.673  18.246   2.360
92341W        W53652  13.250  33.072   2.814
92342W        W53653  36.562  36.587  12.426
92343W        W53654  29.558  21.667   4.608
92344W        W53655  34.574  38.459  14.792
92345W        W53656  15.150  43.767  10.503
92346W        W53657  39.835  15.214  14.354
92347W        W53658  40.992  40.534   0.369
92348W        W53659  13.272  16.074   0.809
92349W        W53660  17.646  19.696   1.762
92350W        W53661  15.163   1.237  11.946
92351W        W53662  39.953  15.711   4.327
92352W        W53663  26.633   8.277   2.674
92353W        W53664  26.698  37.410   4.178
92354W        W53665  16.143  25.524  10.437
92355W        W53666  38.865  28.132  10.565
92356W        W53667  16.302  24.534  13.535
92357W        W53668  25.569  37.442  14.030
92358W        W53669  16.176   6.341  12.480
92359W        W53670  14.730   5.419  13.833
92360W        W53671  21.232  38.351  12.496
92361W        W53672   8.761  11.826   3.836
92362W        W53673  20.169  18.292   4.188
92363W        W53674  22.722  16.247   4.263
92364W        W53675   8.825  24.034   4.348
92365W        W53676  33.954  11.661   0.423
92366W        W53677  20.054  12.348  12.452
92367W        W53678   6.849  34.511   1.220
92368W        W53679  17.778  30.154   2.325
92369W        W53680  31.502  24.667  11.472
92370W        W53681  15.114  37.000   1.854
92371W        W53682  19.759  25.025  11.485
92372W        W53683  11.274   4.841   3.363
92373W        W53684   2.453  34.494  13.358
92374W        W53685  14.114   4.769   2.781
92375W        W53686  17.174  25.161  12.084
92376W        W53687  36.555  13.202   4.258
92377W        W53688  10.786  34.092  12.957
92378W        W53689  42.298  17.287   1.289
92379W        W53690  16.236  18.685  13.866
92380W        W53691  29.502  44.291  13.020
92381W        W53692  20.235   2.798  12.070
92382W        W53693  40.840  13.703  10.998
92383W        W53694  33.092  21.165   4.681
92384W        W53695   1.750   1.377  11.557
92385W        W53696  27.513  39.330  14.949
92386W        W53697  44.374  20.040  12.089
92387W        W53698  43.286  30.519   4.252
92388W        W53699  41.814   2.418  11.094
92389W        W53700   5.708  25.069   1.767
92390W        W53701  32.517  28.554  11.120
92391W        W53702  14.332   5.917  10.932
92392W        W53703  11.742  44.873   4.154
92393W        W53704  35.409  10.173  14.936
92394W        W53705  44.265  36.071   3.287
92395W        W53706  40.941   8.246   4.131
92396W        W53707  16.126  42.516   4.177
92397W        W53708  38.502  37.540   3.173
92398W        W53709  21.555  14.281  11.071
92399W        W53710  24.617  13.351   1.390
92400W        W53711  20.087  24.723  10.942
92401W        W53712   5.327  37.403   0.956
92402W        W53713  10.657  13.208   4.745
92403W        W53714  18.129  38.996   4.792
92404W        W53715   7.383   2.256   1.430
92405W        W53716  16.287   5.849  11.988
92406W        W53717  26.464  18.228   1.308
92407W        W53718  23.073   2.282   3.726
92408W        W53719  17.595  15.327   1.800
92409W        W53720   2.267  29.466  10.489
92410W        W53721  12.650  28.073  10.437
92411W        W53722  14.273  21.557  14.303
92412W        W53723  38.516  44.382   1.272
92413W        W53724  25.515  25.155  12.066
92414W        W53725  12.682  41.035   3.762
92415W        W53726   3.235  18.675   4.278
92416W        W53727   6.853  36.380  12.971
92417W        W53728  12.243  16.210  14.301
92418W        W53729  41.342   1.821   4.346
92419W        W53730  44.340   1.404   1.727
92420W        W53731   9.368   4.787   0.337
92421W        W53732  16.260  42.512  14.923
92422W        W53733  21.229  37.516   5.095
92423W        W53734  39.034  37.947  13.952
92424W        W53735  31.925  22.637  12.030
92425W        W53736  38.919  36.552   3.843
92426W        W53737   5.263  31.472  13.055
92427W        W53738  37.375   6.383  12.988
92428W        W53739  27.114  31.563   2.724
92429W        W53740  20.249  15.770  14.913
92430W        W53741  32.039   8.755   2.274
92431W        W53742  34.933  26.054   3.252
92432W        W53743  31.425   2.923   1.421
92433W        W53744   1.356  23.027  12.458
92434W        W53745  11.846   3.936   0.480
92435W        W53746  34.882   5.856  12.933
92436W        W53747  24.989   6.228  14.292
92437W        W53748   0.458   5.807  14.029
92438W        W53749  35.403  29.651  13.394
92439W        W53750  25.622   2.915   2.347
92440W        W53751  27.184  18.687  10.922
92441W        W53752  18.679  32.528   3.167
92442W        W53753   3.884  37.578  10.508
92443W        W53754  33.106  40.426  14.461
92444W        W53755  17.615  31.150   0.437
92445W        W53756   5.796  20.271  10.892
92446W        W53757  43.952   4.780   2.332
92447W        W53758  29.469  29.440  11.558
92448W        W53759  40.877  11.726  12.084
92449W        W53760  38.347   2.270  14.492
92450W        W53761  31.594  19.217   3.671
92451W        W53762  18.639  21.196   4.348
92452W        W53763  34.039  41.939   1.349
92453W        W53764  26.192  39.001  11.941
92454W        W53765  21.557  10.859   0.826
92455W        W53766  20.636  20.042  14.907
92456W        W53767  40.008  34.401   0.960
92457W        W53768  27.160   9.217  10.512
92458W        W53769  18.073   8.719  12.474
92459W        W53770   3.711  34.930  13.002
92460W        W53771  26.142  11.141  11.423
92461W        W53772  12.326  32.034  11.900
92462W        W53773  23.210  23.699  13.515
92463W        W53774   9.804  42.425  14.946
92464W        W53775   3.309  30.967  11.499
92465W        W53776  11.809  25.120   0.263
92466W        W53777  18.268  16.701  14.892
92467W        W53778  26.510   6.723   2.192
92468W        W53779   4.266  15.796   3.721
92469W        W53780  19.571  39.551   2.331
92470W        W53781   7.233   8.300  13.333
92471W        W53782  21.647  16.803   3.856
92472W        W53783   2.357  15.211  11.039
92473W        W53784  42.957  19.713  12.959
92474W        W53785  27.091  34.613   1.267
92475W        W53786  43.863  29.008   3.789
92476W        W53787  14.109  10.156  14.997
92477W        W53788   0.472   4.729  10.580
92478W        W53789  23.074  33.021   4.199
92479W        W53790  32.038  26.520   4.192
92480W        W53791  40.891   1.336   0.823
92481W        W53792   3.775   0.263   3.292
92482W        W53793  30.149   9.197   4.822
92483W        W53794  18.128  23.605  11.944
92484W        W53795  10.250   7.745   1.372
92485W        W53796   3.325  26.678   2.330
92486W        W53797  43.963  14.638  13.971
92487W        W53798  35.420  38.026  11.511
92488W        W53799  14.100   4.360  12.460
92489W        W53800  44.841   4.370   1.369
92490W        W53801   3.266  14.814   4.808
92491W        W53802  10.371   7.309  10.107
92492W        W53803  27.599   3.243   1.399
92493W        W53804  11.676   7.758  12.919
92494W        W53805   3.254  38.563  11.014
92495W        W53806  29.558  33.426  14.768
92496W        W53807  37.408  19.057  12.516
92497W        W53808  12.176   7.266  14.490
92498W        W53809  20.153  37.075   3.729
92499W        W53810   1.271   0.897  14.789
92500W        W53811  38.462  37.520  12.907
92501W        W53812  41.403  15.212   3.737
92502W        W53813  40.425  36.551  14.367
92503W        W53814  34.512  26.045   4.238
92504W        W53815  14.235  39.464   2.342
92505W        W53816  26.654  10.377   1.756
92506W        W53817  13.684  38.972   2.807
92507W        W53818  44.796  44.393  13.507
92508W        W53819   5.748  30.553   3.159
92509W        W53820  15.274  27.504   2.883
92510W        W53821  32.413  36.442   4.704
92511W        W53822  11.166  27.985   2.312
92512W        W53823  39.953  14.284   4.340
92513W        W53824  31.503   2.289  10.453
92514W        W53825  11.657  26.978  10.519
92515W        W53826  19.119  39.933   0.407
92516W        W53827  27.158  28.555  13.930
92517W        W53828   0.468  24.539   0.949
92518W        W53829  12.159  36.563   0.281
92519W        W53830  44.437   5.262   3.706
92520W        W53831  22.537  39.039  12.410
92521W        W53832  32.431  25.091  10.527
92522W        W53833   5.298  32.414   3.188
92523W        W53834  24.098  44.477  13.955
92524W        W53835   7.872  17.239  14.322
92525W        W53836   9.681  12.775   2.188
92526W        W53837  39.449  11.711  11.926
92527W        W53838  38.506  30.951  12.851
92528W        W53839   8.811   1.955  12.520
92529W        W53840  20.250  12.213  12.059
92530W        W53841  11.226  35.899   2.217
92531W        W53842   5.272  39.855   0.792
92532W        W53843  29.059   9.690   1.404
92533W        W53844  35.971  19.649  13.002
92534W        W53845  29.609  22.515   1.743
92535W        W53846  13.156  36.927   2.261
92536W        W53847  13.625  17.597  13.913
92537W        W53848  36.903  26.026   3.352
92538W        W53849  10.659   5.415   1.805
92539W        W53850  38.510  37.396   0.931
92540W        W53851  35.026  15.600  12.502
92541W        W53852   6.279  10.653  12.955
92542W        W53853  28.630  33.910   2.379
92543W        W53854  43.372  13.641   3.292
92544W        W53855   5.787   7.730   4.785
92545W        W53856  23.062  22.114   0.259
92546W        W53857  42.959   4.332   4.703
92547W        W53858  44.951  27.487   4.658
92548W        W53859  37.509  12.323  10.621
92549W        W53860  22.724  26.089   0.839
92550W        W53861  20.110  43.484  11.122
92551W        W53862  24.031  27.166  13.347
92552W        W53863  35.542  29.607  11.513
92553W        W53864  16.569  24.564   2.261
92554W        W53865  40.507  27.172  12.972
92555W        W53866  16.700   6.772  11.993
92556W        W53867   4.911  24.060   0.466
92557W        W53868   2.421  15.211  13.370
92558W        W53869  44.813   7.902   0.340
92559W        W53870  20.192  29.933  13.878
92560W        W53871  22.632  41.824  12.979
92561W        W53872  11.192  25.514  13.426
92562W        W53873  38.036   4.787   3.753
92563W        W53874   6.366  10.363  10.012
92564W        W53875  38.897  30.484  12.537
92565W        W53876  32.939  15.589  14.328
92566W        W53877   1.944  28.603  14.293
92567W        W53878  24.978  29.001  12.478
92568W        W53879   9.887  36.984  11.055
92569W        W53880  18.715  19.283  12.570
92570W        W53881   1.920  13.773  14.910
92571W        W53882  33.564  24.041  10.417
92572W        W53883  27.062  42.981  14.787
92573W        W53884  42.779  17.799  11.998
92574W        W53885  13.193  17.086   3.680
92575W        W53886  14.097  10.241  10.101
92576W        W53887  18.240   9.223   3.354
92577W        W53888   5.230  24.072  14.373
92578W        W53889  32.419  41.406  14.870
92579W        W53890   2.427  32.499   1.365
92580W        W53891   0.402  22.161  12.567
92581W        W53892  44.476   8.723   3.650
92582W        W53893  17.711  32.053   0.849
92583W        W53894  12.273   9.842  14.972
92584W        W53895  22.633  17.787   1.882
92585W        W53896  13.762  19.595   2.771
92586W        W53897  29.492   0.268  14.483
92587W        W53898  42.987  41.824   0.322
92588W        W53899   2.226  14.602   3.267
92589W        W53900  24.216  13.105  12.912
92590W        W53901   0.271  27.043  12.080
92591W        W53902  24.599  19.715   1.869
92592W        W53903  12.125  38.840  13.851
92593W        W53904  14.150  14.264   4.769
92594W        W53905  16.236   6.360   5.305
92595W        W53906  27.620  26.574   2.708
92596W        W53907  21.556   2.792   4.767
92597W        W53908  21.089   9.323   2.356
92598W        W53909  15.737   8.760   0.260
92599W        W53910  41.451  39.889  14.914
92600W        W53911   4.938   0.394   3.361
92601W        W53912  24.674  14.611  10.563
92602W        W53913   3.222  23.119   1.324
92603W        W53914  41.359   7.690  13.829
92604W        W53915  10.356  29.134   0.284
92605W        W53916  19.277   2.865  12.953
92606W        W53917   1.977  19.160   3.683
92607W        W53918  25.492  43.945  14.376
92608W        W53919  23.654  28.013   3.176
92609W        W53920  22.027   0.468  14.299
92610W        W53921  31.012  40.349  11.048
92611W        W53922   9.350  40.893   3.315
92612W        W53923  20.618  31.527   4.830
92613W        W53924  43.820  29.032  12.877
92614W        W53925  36.026  38.535  13.914
92615W        W53926   7.801  13.601  14.870
92616W        W53927   5.868  35.957   0.838
92617W        W53928   3.376  20.614  12.032
92618W        W53929  14.165   0.417  13.485
92619W        W53930   0.896  24.133  13.377
92620W        W53931  24.724  37.404   4.626
92621W        W53932  23.652   3.375  12.463
92622W        W53933   9.821  44.264  11.402
92623W        W53934  29.057  15.109   2.253
92624W        W53935   1.905   9.777   3.351
92625W        W53936  44.396  38.846  13.880
92626W        W53937  26.006   9.736  10.435
92627W        W53938  20.706  29.570  10.608
92628W        W53939  32.459  31.984  13.930
92629W        W53940  23.676  39.940   3.863
92630W        W53941  44.338   7.253  10.944
92631W        W53942  36.902  17.121  11.561
92632W        W53943  30.432   0.320  12.506
92633W        W53944  27.455  21.556   2.280
92634W        W53945   6.254  14.262   0.848
92635W        W53946   7.237  27.640  13.474
92636W        W53947  35.394  20.062   0.870
92637W        W53948   7.317  32.504   4.282
92638W        W53949  39.838  13.841  12.069
92639W        W53950  44.771  38.343  11.028
92640W        W53951  32.917   7.196   2.374
92641W        W53952  33.934  18.217   2.886
92642W        W53953  20.088  31.497  11.572
92643W        W53954  11.275  16.144  10.534
92644W        W53955  24.601   7.871  13.444
92645W        W53956  35.478   0.745  12.434
92646W        W53957  24.164  31.553   2.277
92647W        W53958  10.678  13.230  11.104
92648W        W53959  42.459  30.632  14.326
92649W        W53960   0.343  17.062  10.942
92650W        W53961  17.259  19.135  13.885
92651W        W53962  17.766  23.534  13.333
92652W        W53963  15.157  12.809   3.386
92653W        W53964  41.408  16.680   3.722
92654W        W53965  21.098  41.862   5.756
92655W        W53966  44.874   3.413  12.849
92656W        W53967  30.929   0.424   2.350
92657W        W53968  31.004  13.830   0.436
92658W        W53969  35.377  36.570  14.458
92659W        W53970   4.249  29.940  13.439
92660W        W53971  21.603  21.133  11.514
92661W        W53972  29.533  39.479   2.280
92662W        W53973   6.772  42.501   4.711
92663W        W53974  36.548  27.621   5.239
92664W        W53975  40.979  39.326   2.230
92665W        W53976   2.435  20.585  12.506
92666W        W53977   7.180   8.663   3.162
92667W        W53978  40.907  36.352   3.824
92668W        W53979  29.534  22.642  10.142
92669W        W53980   7.310  44.820   4.731
92670W        W53981  31.064  37.881   4.610
92671W        W53982  17.783  37.440   1.368
92672W        W53983   3.456  38.900   3.231
92673W        W53984  15.664  20.195  13.865
92674W        W53985  35.918  41.899   4.202
92675W        W53986  32.002  17.680  13.891
92676W        W53987  43.357  20.760  12.077
92677W        W53988  40.874   0.333   1.241
92678W        W53989  23.671  31.072  10.493
92679W        W53990   9.674  31.595   4.187
92680W        W53991  25.523  14.337  12.095
92681W        W53992  28.437  31.121  13.991
92682W        W53993  31.091  43.324  14.495
92683W        W53994  10.378  27.635   2.677
92684W        W53995  37.958  35.407  14.462
92685W        W53996  23.568   2.951  14.774
92686W        W53997  37.880  34.005   5.793
92687W        W53998  34.481   3.354   2.333
92688W        W53999  22.605  33.407   3.278
92689W        W54000  10.782  10.772   1.874
92690W        W54001  16.129   9.860  11.451
92691W        W54002  25.557  36.420  14.000
92692W        W54003  20.139  25.968   2.884
92693W        W54004  13.177  24.710  11.913
92694W        W54005  39.887  13.674  14.332
92695W        W54006  44.476   3.288  11.563
92696W        W54007  28.082   6.271  12.844
92697W        W54008  26.081  18.685  10.086
92698W        W54009  43.897  37.021   1.250
92699W        W54010  19.201  26.122  14.897
92700W        W54011   2.229  40.978   1.409
92701W        W54012   4.826  23.994   0.907
92702W        W54013   6.805  41.384   0.319
92703W        W54014  37.877  25.003   3.655
92704W        W54015  27.081  11.240   3.266
92705W        W54016  20.067  24.551   2.781
92706W        W54017  32.575   4.826  10.450
92707W        W54018   9.377  30.056  13.810
92708W        W54019  17.253  22.224  14.884
92709W        W54020   3.456  39.361   2.398
92710W        W54021   9.292  18.725   2.694
92711W        W54022  10.285  33.490  12.546
92712W        W54023  33.514  32.007  14.901
92713W        W54024  16.095  22.036   2.722
92714W        W54025   6.906  43.911   0.841
92715W        W54026   2.469  44.004   0.863
92716W        W54027  21.252   0.452   1.429
92717W        W54028  27.943  22.096  11.932
92718W        W54029  32.428  30.499  12.092
92719W        W54030  22.733  22.570  10.629
92720W        W54031  27.029   1.871  14.479
92721W        W54032  25.503  37.438  10.553
92722W        W54033  35.431   1.875   1.892
92723W        W54034  42.445  24.524   2.228
92724W        W54035  40.450  39.531  14.378
92725W        W54036  17.714   4.331  13.939
92726W        W54037  39.013  12.821   1.887
92727W        W54038  18.703  15.109  11.941
92728W        W54039  17.591   4.759   5.173
92729W        W54040   2.363   2.324  11.500
92730W        W54041  17.684  40.465   3.287
92731W        W54042  42.346  42.862  13.937
92732W        W54043  43.383  36.930   0.432
92733W        W54044   7.856  16.658   2.682
92734W        W54045   9.349  20.577  14.954
92735W        W54046   5.722  10.204   1.406
92736W        W54047   6.278  24.166  13.872
92737W        W54048  23.539  40.361   1.297
92738W        W54049  42.447  33.474   0.850
92739W        W54050   6.863  33.941  10.643
92740W        W54051  14.623   7.678   3.729
92741W        W54052  26.540   9.222   3.749
92742W        W54053  28.087  22.689  13.007
92743W        W54054  27.478  29.175   4.679
92744W        W54055  38.847  26.567   0.266
92745W        W54056   8.247   8.699   0.743
92746W        W54057   3.792   6.261   0.464
92747W        W54058  14.695  22.628  13.349
92748W        W54059  14.160  30.506   0.792
92749W        W54060  11.319  37.992   2.357
92750W        W54061  25.005  40.933   1.874
92751W        W54062  32.063  15.141   0.765
92752W        W54063  22.676   1.400  11.386
92753W        W54064  25.196  32.527   3.374
92754W        W54065  22.596  36.971  12.483
92755W        W54066   4.366  21.597   1.906
92756W        W54067   8.713  44.950   3.149
92757W        W54068   8.284  18.104   1.731
92758W        W54069  26.072  29.151  11.990
92759W        W54070  40.350  26.093  12.001
92760W        W54071  23.063  17.619   2.790
92761W        W54072  20.084   9.260   3.268
92762W        W54073   9.876  12.675  14.879
92763W        W54074  18.636  37.070   1.442
92764W        W54075  27.993  21.610  12.399
92765W        W54076  14.198   1.443   1.728
92766W        W54077  10.810   9.654   1.935
92767W        W54078  31.059  36.034   5.173
92768W        W54079  16.704  21.028  14.017
92769W        W54080  31.988  32.476   1.221
92770W        W54081  30.113   9.283  14.354
92771W        W54082  27.679   8.207  11.532
92772W        W54083  31.942  37.076  10.500
92773W        W54084   3.949  28.666   1.235
92774W        W54085  27.147  35.042  11.927
92775W        W54086  14.247  10.705  13.916
92776W        W54087   1.957  39.013  12.526
92777W        W54088  43.946  12.240  11.421
92778W        W54089  21.138  12.240   3.781
92779W        W54090  41.496  17.119   2.325
92780W        W54091  37.404  23.009  12.570
92781W        W54092  34.979  32.923  11.598
92782W        W54093  43.361  40.378  13.042
92783W        W54094  18.175  35.497  12.431
92784W        W54095  31.140  14.719  13.486
92785W        W54096  21.660  27.005  13.884
92786W        W54097   7.823   7.858   3.317
92787W        W54098  32.472  20.565  10.999
92788W        W54099   6.260  27.105  11.051
92789W        W54100  29.663   0.289  13.901
92790W        W54101  12.195  22.547   4.215
92791W        W54102  36.861  31.513   4.710
92792W        W54103  35.090  31.474   3.806
92793W        W54104  29.120  16.188   1.726
92794W        W54105  33.020   6.809  10.634
92795W        W54106  21.186  41.846   0.291
92796W        W54107  43.012  42.479  12.029
92797W        W54108  44.489  11.169  10.548
92798W        W54109  15.097   3.456  13.937
92799W        W54110  15.187  20.080   0.263
92800W        W54111  40.516  42.786  12.407
92801W        W54112  15.823   5.803  13.514
92802W        W54113  18.084  20.654  12.893
92803W        W54114  37.028  15.769  11.987
92804W        W54115   3.330  14.174   3.148
92805W        W54116  13.262  26.175  12.423
92806W        W54117   2.958  18.564   3.163
92807W        W54118  41.795  19.745  12.976
92808W        W54119  15.205  35.075  11.997
92809W        W54120  36.866  17.307  13.343
92810W        W54121  39.399  30.015  14.811
92811W        W54122   3.350  15.690  14.387
92812W        W54123  32.894   3.458  10.458
92813W        W54124  25.013  44.452   1.291
92814W        W54125   4.412   0.375   3.186
92815W        W54126   5.906  25.675   3.289
92816W        W54127  43.392  20.633   4.758
92817W        W54128  44.993  41.520   3.801
92818W        W54129  31.448   3.826  11.396
92819W        W54130  30.946  26.990  13.875
92820W        W54131   9.722  32.912   1.902
92821W        W54132  14.278  19.186   0.462
92822W        W54133  41.864  13.257   4.723
92823W        W54134  29.444  37.073   2.315
92824W        W54135  26.165   2.902  10.461
92825W        W54136   7.201   6.842  12.454
92826W        W54137   1.842  25.014   0.875
92827W        W54138  17.778  20.610  14.827
92828W        W54139  17.127   1.470   2.260
92829W        W54140  25.510  32.515   0.250
92830W        W54141  44.790  21.659   4.662
92831W        W54142   6.908  35.039  14.375
92832W        W54143  22.135  25.017   0.254
92833W        W54144  13.137  19.285  12.066
92834W        W54145  13.205   4.799  14.358
92835W        W54146  27.567  29.103  12.437
92836W        W54147   5.436  11.221  10.550
92837W        W54148  22.553  41.994  10.917
92838W        W54149  38.441  22.235  13.844
92839W        W54150   8.694  37.483   3.756
92840W        W54151   9.876  26.141  10.933
92841W        W54152   9.291  10.142  10.934
92842W        W54153  27.041   3.824   2.253
92843W        W54154  30.124   3.333  12.556
92844W        W54155   4.932  27.043   0.845
92845W        W54156  41.443   6.301   2.280
92846W        W54157   7.376  10.636  12.435
92847W        W54158  33.603   0.410   4.603
92848W        W54159   4.232  38.945   3.678
92849W        W54160  42.809  36.417   0.959
92850W        W54161   6.413  40.908   4.138
92851W        W54162  21.645  25.696  13.505
92852W        W54163   4.431  26.542   1.450
92853W        W54164  26.607  39.004   4.267
92854W        W54165  24.027   4.787  13.482
92855W        W54166  33.492  44.929   4.703
92856W        W54167  26.479   6.215  12.369
92857W        W54168  39.986  13.756  13.393
92858W        W54169  39.034  29.985  10.968
92859W        W54170  31.979  32.958  14.023
92860W        W54171   2.845   3.918   2.284
92861W        W54172  37.349  20.096   2.874
92862W        W54173  19.254  18.727   4.676
92863W        W54174  30.613  11.729  11.533
92864W        W54175  34.957   7.725  12.388
92865W        W54176   4.824   9.240  12.933
92866W        W54177  10.792  35.086  13.914
92867W        W54178  34.102  30.608   1.234
92868W        W54179  28.004  33.004  13.816
92869W        W54180  39.025  16.770   1.782
92870W        W54181   8.761  19.259  13.548
92871W        W54182  34.977  17.716  13.357
92872W        W54183   7.245  17.797  13.034
92873W        W54184  38.026   7.375  14.801
92874W        W54185   4.214  36.479  12.894
92875W        W54186  31.585  36.893  12.370
92876W        W54187  20.533  34.390   4.208
92877W        W54188  12.625  42.970   5.161
92878W        W54189  35.544  25.567  12.037
92879W        W54190   9.686  37.934   4.655
92880W        W54191  10.382  16.673  14.813
92881W        W54192  29.621  24.000   2.330
92882W        W54193  11.638  21.673   3.214
92883W        W54194  30.446  10.221   2.861
92884W        W54195  40.454  36.516   0.920
92885W        W54196  28.493  23.562  12.978
92886W        W54197  34.004  42.862  13.839
92887W        W54198  18.638  35.409  14.821
92888W        W54199  31.547  31.941  13.030
92889W        W54200  44.895  26.060  12.433
92890W        W54201  31.982  43.429   4.628
92891W        W54202  29.004  10.662   0.278
92892W        W54203  17.304  44.354   2.410
92893W        W54204  15.819  15.230  14.783
92894W        W54205  38.387   8.261   2.882
92895W        W54206  10.729  31.918   4.716
92896W        W54207  42.982   6.225   2.720
92897W        W54208  17.651  13.837  12.842
92898W        W54209  24.100  36.579  14.399
92899W        W54210   6.214  24.612  12.355
92900W        W54211  38.051  43.919  11.935
92901W        W54212   0.897  44.947   1.753
92902W        W54213  17.098  16.585  12.084
92903W        W54214  25.109  23.115   0.731
92904W        W54215  30.484  27.602  13.842
92905W        W54216  33.971  18.202  11.106
92906W        W54217  24.582   2.237   3.288
92907W        W54218  44.366  25.686  13.936
92908W        W54219  16.669   0.897   3.324
92909W        W54220   5.787  36.045  12.523
92910W        W54221  22.130   9.887  13.036
92911W        W54222   8.383  24.509   0.474
92912W        W54223   0.333  38.524  11.902
92913W        W54224  16.617  13.767   2.196
92914W        W54225  27.049  24.671  13.394
92915W        W54226   9.293  32.397   4.741
92916W        W54227  10.652  33.604   0.732
92917W        W54228   5.760  31.484  10.556
92918W        W54229  29.934  15.815  13.347
92919W        W54230   6.922  32.444  10.411
92920W        W54231  26.575  36.497  12.870
92921W        W54232  16.234  26.516   3.378
92922W        W54233   5.795   9.742  12.069
92923W        W54234  17.762   3.852   1.440
92924W        W54235  16.278   2.821  12.877
92925W        W54236  20.663  29.097  10.161
92926W        W54237  12.116  33.475   0.357
92927W        W54238   1.281  40.025   3.727
92928W        W54239  40.381  36.087   2.677
92929W        W54240  38.889  17.249  10.932
92930W        W54241  21.595  31.990  14.777
92931W        W54242  43.885  36.379   2.399
92932W        W54243  38.367  21.554  11.112
92933W        W54244  24.507  14.302   1.784
92934W        W54245  43.898  21.125  13.887
92935W        W54246  13.756  43.940   1.883
92936W        W54247   0.389  29.122   2.895
92937W        W54248   6.392  42.793   1.816
92938W        W54249  44.501  44.919  14.408
92939W        W54250  36.553  14.694  11.924
92940W        W54251   8.199   3.794   0.317
92941W        W54252  22.642   5.429  13.925
92942W        W54253   8.723  39.509  11.979
92943W        W54254   8.725  18.096  14.383
92944W        W54255  19.599  40.902   4.749
92945W        W54256  18.622   5.731   0.808
92946W        W54257  36.941  40.434  14.364
92947W        W54258  20.692  28.573  11.376
92948W        W54259  11.706  37.987  14.777
92949W        W54260   8.329  34.369  12.389
92950W        W54261  13.707  27.609  12.539
92951W        W54262  36.966   3.753  12.549
92952W        W54263  43.515  21.628   0.412
92953W        W54264  41.385  40.394  14.916
92954W        W54265   0.396   0.280   0.842
92955W        W54266  26.499  36.988  14.823
92956W        W54267  34.518   6.227  14.373
92957W        W54268   4.891  13.338  12.879
92958W        W54269  24.677  15.643   2.322
92959W        W54270  20.141   5.308  10.930
92960W        W54271  34.401   1.919   1.701
92961W        W54272  14.230  21.579  13.321
92962W        W54273  21.662  21.670   9.956
92963W        W54274   4.843  25.975   4.141
92964W        W54275  26.981  41.361   0.865
92965W        W54276   2.267  13.213   4.705
92966W        W54277  37.361   2.814   1.707
92967W        W54278  40.317  23.609  12.341
92968W        W54279  23.056   6.893  13.808
92969W        W54280  10.350   6.718  14.358
92970W        W54281  38.914  44.774  10.136
92971W        W54282  27.508  38.382  14.793
92972W        W54283  44.843  11.840  13.885
92973W        W54284  32.063  15.324  12.544
92974W        W54285  41.823  20.051   2.376
92975W        W54286  10.354  12.843   2.277
92976W        W54287   3.797  22.036  10.638
92977W        W54288  27.615  23.560   4.762
92978W        W54289  33.978  33.514  11.041
92979W        W54290  14.621  12.248  14.016
92980W        W54291  33.059  20.190   2.834
92981W        W54292  20.532   4.920   0.327
92982W        W54293  26.587   7.311  14.810
92983W        W54294  28.511  41.928  13.310
92984W        W54295  10.140  13.176   2.178
92985W        W54296  43.479   2.787  11.037
92986W        W54297  41.477   6.814   3.268
92987W        W54298  34.993   8.188  10.605
92988W        W54299  31.022  20.263   1.717
92989W        W54300  25.039   5.901  11.501
92990W        W54301  14.799  32.597   0.433
92991W        W54302  16.090  11.138  10.635
92992W        W54303  44.918  17.292  13.941
92993W        W54304  14.699  40.812  11.392
92994W        W54305   8.744  35.899  14.510
92995W        W54306   6.756  24.090   1.868
92996W        W54307  44.804  25.023  13.364
92997W        W54308  41.311  13.175   2.882
92998W        W54309  25.072   2.866  11.582
92999W        W54310  43.328  28.964   2.780
93000W        W54311   3.457   2.313   3.758
93001W        W54312   6.767  25.128  12.543
93002W        W54313   5.339  28.097  11.963
93003W        W54314   9.215  11.844  14.809
93004W        W54315   4.876  21.019  10.415
93005W        W54316  18.673  34.111   4.743
93006W        W54317  27.103  24.167  13.457
93007W        W54318  11.195  26.476  12.062
93008W        W54319  14.103  23.664  12.966
93009W        W54320   5.863  20.101  13.950
93010W        W54321   6.872  32.603  14.366
93011W        W54322   0.958  27.546  11.940
93012W        W54323  14.686  31.132  13.323
93013W        W54324  16.118   0.886   1.393
93014W        W54325  31.088   2.361  14.857
93015W        W54326  19.278  27.564   4.309
93016W        W54327  12.660  30.508   3.158
93017W        W54328  12.161  38.519  12.554
93018W        W54329  42.298  41.362  14.345
93019W        W54330  25.002  11.211   3.225
93020W        W54331  42.514  10.727   3.650
93021W        W54332  29.952  29.961   4.138
93022W        W54333  12.788  30.530   1.264
93023W        W54334  16.667  41.880   0.731
93024W        W54335  31.641  11.828   3.825
93025W        W54336  17.576  43.342  11.097
93026W        W54337  16.075  18.786  14.780
93027W        W54338   8.857   1.429  10.990
93028W        W54339  43.415  15.197   2.207
93029W        W54340  23.204  35.028  10.589
93030W        W54341  21.067  34.461  11.537
93031W        W54342  12.654  11.337   1.220
93032W        W54343  40.316  25.046  12.990
93033W        W54344  31.478   7.835   4.180
93034W        W54345   1.292   4.409  14.325
93035W        W54346   1.959   0.792  11.070
93036W        W54347   0.916  40.895   0.284
93037W        W54348  30.939  22.641   1.333
93038W        W54349  23.116  34.930  13.336
93039W        W54350  24.558  25.980  12.999
93040W        W54351  11.215  20.242  11.532
93041W        W54352  11.814  43.439   1.772
93042W        W54353  24.607   3.218   1.865
93043W        W54354   0.988  16.646   3.173
93044W        W54355   4.339   2.739   4.158
93045W        W54356   1.859  16.236  12.843
93046W        W54357  28.182  31.567  10.991
93047W        W54358   2.243  18.559  10.564
93048W        W54359   8.245  31.536   3.352
93049W        W54360  24.646   4.742   0.798
93050W        W54361  44.785  28.441   3.823
93051W        W54362  44.005  37.000  14.504
93052W        W54363  38.880   2.244   4.663
93053W        W54364  23.521   6.861   1.401
93054W        W54365  23.639  17.248  11.977
93055W        W54366   3.900  32.635   2.208
93056W        W54367  32.925   2.296   1.347
93057W        W54368  43.853  29.619   3.852
93058W        W54369   7.805  17.279   2.237
93059W        W54370  26.521  18.093  14.951
93060W        W54371  21.076   4.284  13.515
93061W        W54372  19.190   4.911  13.912
93062W        W54373  23.542  40.888  11.897
93063W        W54374  22.684  42.831  13.515
93064W        W54375  33.583  41.508  14.029
93065W        W54376  11.662  19.686   4.207
93066W        W54377   9.394  44.275  10.041
93067W        W54378  44.347  43.978   2.206
93068W        W54379  40.431   6.339  14.403
93069W        W54380   6.711  37.471   4.171
93070W        W54381  32.080  11.714   1.370
93071W        W54382  16.074  23.084  11.890
93072W        W54383   2.917  37.506   3.371
93073W        W54384  24.065  20.643   2.382
93074W        W54385  24.064   8.368  14.863
93075W        W54386   6.692  42.777   0.316
93076W        W54387  36.985  24.090   1.846
93077W        W54388  41.320  43.011   0.381
93078W        W54389  26.095  28.053   1.444
93079W        W54390  28.946   5.207  11.077
93080W        W54391   5.920   9.820  12.578
93081W        W54392  41.862   2.251   1.328
93082W        W54393  14.243   7.771  14.871
93083W        W54394   4.706  39.319   1.729
93084W        W54395  12.252   8.797   1.275
93085W        W54396  16.096  15.185   2.307
93086W        W54397  36.845  38.345   3.245
93087W        W54398  24.044  42.887  10.099
93088W        W54399   1.307  26.554   1.901
93089W        W54400  34.516   4.254  10.602
93090W        W54401  16.199  20.088  13.531
93091W        W54402  18.195  23.026  14.015
93092W        W54403  15.814  28.179  11.030
93093W        W54404  19.158   7.352   2.811
93094W        W54405  41.347  17.193   1.916
93095W        W54406  41.854  38.471   1.214
93096W        W54407  44.298  13.771   3.826
93097W        W54408  10.845  11.729  11.456
93098W        W54409  36.872   0.859   3.734
93099W        W54410  34.096  35.491  13.793
93100W        W54411  39.014   4.699  11.435
93101W        W54412  32.416   5.431  13.484
93102W        W54413  18.283  11.688   2.755
93103W        W54414  17.768  40.313   0.292
93104W        W54415  14.792   8.178  12.828
93105W        W54416  25.706  14.788   1.783
93106W        W54417  28.001   4.869   2.809
93107W        W54418  37.531  37.870  12.840
93108W        W54419   1.811  17.691   3.848
93109W        W54420  39.393   0.772   2.333
93110W        W54421  25.080  40.913  14.394
93111W        W54422  43.415   5.429  10.640
93112W        W54423  43.825  15.603  14.377
93113W        W54424  37.338  16.233  13.505
93114W        W54425   3.240  16.304  11.884
93115W        W54426  16.120  44.838  12.993
93116W        W54427  25.986  40.488  12.006
93117W        W54428  44.929   5.309  10.557
93118W        W54429   5.333   0.773   3.699
93119W        W54430   4.285  13.335  11.412
93120W        W54431  26.152  24.025  10.965
93121W        W54432  39.325  37.931  14.961
93122W        W54433   1.867  23.133  13.398
93123W        W54434  39.036   9.778  11.038
93124W        W54435  39.444  19.102  11.929
93125W        W54436  25.500  11.643  14.380
93126W        W54437  31.062   6.838  13.976
93127W        W54438  44.331  43.509   1.738
93128W        W54439   2.787  28.651  11.038
93129W        W54440   3.809   9.821  14.455
93130W        W54441   5.755  14.771  10.530
93131W        W54442  23.029  23.221  11.438
93132W        W54443  15.603  38.041   2.724
93133W        W54444  39.934  17.136  12.000
93134W        W54445  33.404  10.817   4.778
93135W        W54446  21.694   6.363   4.342
93136W        W54447  23.153  28.120   1.911
93137W        W54448  42.498  34.010  14.023
93138W        W54449   1.786  11.249  12.979
93139W        W54450   0.301  23.178   1.326
93140W        W54451  34.522  42.982  14.003
93141W        W54452  19.185  38.038  12.526
93142W        W54453  19.611  17.262   4.632
93143W        W54454   3.807  23.238  13.888
93144W        W54455  20.583  14.173  10.479
93145W        W54456  31.465   9.798  11.981
93146W        W54457  35.376   2.947   1.869
93147W        W54458  27.062  15.743   2.881
93148W        W54459  44.877   2.751   2.818
93149W        W54460   4.429  27.657  14.880
93150W        W54461   5.759   8.303  10.940
93151W        W54462  43.449  26.654  14.829
93152W        W54463  34.864   5.268  11.451
93153W        W54464  39.864  37.482   1.239
93154W        W54465  35.944  22.690  12.449
93155W        W54466  22.141  11.352  13.954
93156W        W54467   9.848   5.707  12.396
93157W        W54468  20.583  24.559   3.716
93158W        W54469  14.830  21.684   2.664
93159W        W54470   8.730  31.543  12.387
93160W        W54471  13.128  31.407   1.429
93161W        W54472  14.832  27.096  11.491
93162W        W54473  15.285   4.766  14.024
93163W        W54474  35.387  15.681   3.819
93164W        W54475  32.117  13.694   3.694
93165W        W54476  40.013  12.144  11.925
93166W        W54477  28.554  25.106  14.758
93167W        W54478  17.753  14.741   9.495
93168W        W54479   7.752   8.657  11.466
93169W        W54480   5.218   5.314  10.531
93170W        W54481  24.974  21.544   2.417
93171W        W54482  11.709  44.366   3.186
93172W        W54483   8.208  11.258   3.234
93173W        W54484   2.363  11.181  12.443
93174W        W54485  17.688   1.842   3.679
93175W        W54486  24.549  25.572   2.823
93176W        W54487  18.684  13.258   2.299
93177W        W54488  12.186  14.126   2.257
93178W        W54489  13.157   8.381  12.506
93179W        W54490  29.161  11.858   0.458
93180W        W54491   3.358  16.784   3.668
93181W        W54492  42.389   0.422   4.189
93182W        W54493  11.281  11.637   0.364
93183W        W54494   5.877   5.726  13.844
93184W        W54495  16.688  36.435   1.402
93185W        W54496  34.593  28.616   4.246
93186W        W54497  44.481  33.058   4.656
93187W        W54498  38.904  23.095  10.489
93188W        W54499  24.489  27.675  14.921
93189W        W54500  44.490  28.603  12.081
93190W        W54501  11.364  10.232   1.926
93191W        W54502  10.279  19.611   4.701
93192W        W54503  29.076  26.121  11.013
93193W        W54504  29.513  39.396   1.226
93194W        W54505  33.617  28.007   3.856
93195W        W54506  26.195   7.721  10.594
93196W        W54507   9.316  39.839   0.375
93197W        W54508  41.477  22.019  11.954
93198W        W54509  12.782  41.959  10.481
93199W        W54510  26.542  37.511   3.348
93200W        W54511  23.158  31.027  12.481
93201W        W54512  43.792  25.119  12.580
93202W        W54513  37.513  41.494  14.392
93203W        W54514  38.849  31.603  14.898
93204W        W54515  36.495   6.842  10.923
93205W        W54516  28.953  33.436  14.938
93206W        W54517  35.572  15.302   0.885
93207W        W54518  25.122  39.874  14.324
93208W        W54519  18.634  43.338   0.922
93209W        W54520  18.085  33.048   1.362
93210W        W54521  25.080   9.308  11.391
93211W        W54522  36.863  10.331   3.798
93212W        W54523  29.465  35.868   4.658
93213W        W54524  39.908  43.909   4.211
93214W        W54525  40.831  44.295  14.832
93215W        W54526   5.833   8.295  14.449
93216W        W54527   1.441  10.210  14.394
93217W        W54528  10.706  30.025  11.063
93218W        W54529  24.999  26.011   1.857
93219W        W54530  16.682  15.765   1.785
93220W        W54531  43.293  34.068   4.818
93221W        W54532  36.098  37.443   0.251
93222W        W54533  39.524  23.651  14.362
93223W        W54534   2.441  40.833  13.935
93224W        W54535  35.523  40.407   4.291
93225W        W54536  21.020   3.943   1.251
93226W        W54537  25.546   6.821  12.040
93227W        W54538   1.976  34.530   0.429
93228W        W54539   1.828  11.155  13.964
93229W        W54540  14.227   0.249  12.544
93230W        W54541  30.922   6.750   1.423
93231W        W54542   5.294  31.074   2.816
93232W        W54543  40.456   0.912   1.239
93233W        W54544  27.164  41.531   1.897
93234W        W54545  25.179   3.759   4.231
93235W        W54546  33.092  33.896   1.915
93236W        W54547  30.987  20.086  12.088
93237W        W54548  43.355  14.700   1.375
93238W        W54549   8.886  19.742  12.969
93239W        W54550  21.247   3.855   0.738
93240W        W54551  29.059  23.233   3.643
93241W        W54552  19.752  42.419   4.205
93242W        W54553  31.528  21.203  12.928
93243W        W54554  21.727  17.096  13.469
93244W        W54555  29.106  41.884  12.988
93245W        W54556  29.617  34.524   2.202
93246W        W54557  18.595  18.561  13.037
93247W        W54558  17.305  34.981   4.601
93248W        W54559   4.780  37.516   2.665
93249W        W54560   7.880  30.540  14.384
93250W        W54561  33.098  17.714   3.849
93251W        W54562  33.529  19.562   3.226
93252W        W54563   7.688  20.680  14.016
93253W        W54564  29.664  28.478   2.729
93254W        W54565  35.080  13.119  13.053
93255W        W54566  37.846  22.602  14.499
93256W        W54567  23.063  22.039  12.051
93257W        W54568  33.070  35.497   3.821
93258W        W54569  17.657  22.718  10.032
93259W        W54570  25.493  18.685   3.637
93260W        W54571  11.289  18.545  11.897
93261W        W54572   2.855  34.951   4.307
93262W        W54573   0.295  35.092  13.523
93263W        W54574  35.491  37.951   4.647
93264W        W54575  31.487   2.960  13.384
93265W        W54576  26.045  11.790   1.756
93266W        W54577  10.847  20.064  14.887
93267W        W54578  35.490  10.314   3.646
93268W        W54579  30.487  10.763   4.692
93269W        W54580  35.474   0.838   0.778
93270W        W54581   8.190  33.098  11.069
93271W        W54582  33.983   7.172  10.632
93272W        W54583  10.799  41.342   1.705
93273W        W54584   0.875  17.686  10.528
93274W        W54585  12.130   6.401   1.771
93275W        W54586  18.289  44.498   3.223
93276W        W54587  37.964  39.058  12.059
93277W        W54588  37.962  19.253   3.244
93278W        W54589  14.618  35.457  10.923
93279W        W54590  32.029  38.526  13.399
93280W        W54591  29.045   8.165   5.173
93281W        W54592  15.717   7.392  11.008
93282W        W54593  38.570  13.706   4.612
93283W        W54594   5.848  11.784   3.849
93284W        W54595  33.021  42.945  11.430
93285W        W54596  12.639  33.517  14.433
93286W        W54597  24.722   5.332   0.252
93287W        W54598  25.695  28.448   1.304
93288W        W54599   1.877  32.010   4.820
93289W        W54600  41.485  31.989  13.315
93290W        W54601   0.377  42.018   3.781
93291W        W54602  20.571  31.977   1.442
93292W        W54603  30.989  23.694   3.314
93293W        W54604  29.429  28.503   4.345
93294W        W54605   2.226  26.676   2.223
93295W        W54606   4.795  17.657  13.003
93296W        W54607   9.656  25.090   1.754
93297W        W54608  20.132  11.370  10.471
93298W        W54609  20.239  40.487   1.780
93299W        W54610  42.815  24.705  13.474
93300W        W54611   2.779  44.274  14.342
93301W        W54612  36.855   3.732   4.666
93302W        W54613   8.778  36.029   1.822
93303W        W54614  33.480  31.947  10.034
93304W        W54615   1.248  38.824   3.783
93305W        W54616  41.805  26.570  10.935
93306W        W54617  24.159  18.583   1.748
93307W        W54618  31.542  32.084   0.382
93308W        W54619  22.683   5.832   2.372
93309W        W54620  16.779   1.948  11.438
93310W        W54621  28.139  39.905   4.773
93311W        W54622  42.974  30.632  14.483
93312W        W54623   0.398  29.602   2.390
93313W        W54624  22.579  38.472   2.409
93314W        W54625  42.825  25.098   2.416
93315W        W54626  33.962  39.861   0.459
93316W        W54627  35.374  33.456   2.798
93317W        W54628   7.286  33.401  14.776
93318W        W54629  42.985  33.968   2.893
93319W        W54630   1.792  19.262  11.434
93320W        W54631   9.850  14.805   1.695
93321W        W54632  30.928   8.788  14.910
93322W        W54633   7.756  23.091  11.981
93323W        W54634  32.430  24.043  11.935
93324W        W54635  29.562   9.672  13.402
93325W        W54636  17.742  17.781  13.052
93326W        W54637  17.128  24.629  14.792
93327W        W54638  20.216  14.216   2.666
93328W        W54639   3.765  19.141   2.260
93329W        W54640  28.544  32.009   4.335
93330W        W54641  12.160  19.645  13.923
93331W        W54642  12.218  22.557   2.188
93332W        W54643  35.427  43.853  10.898
93333W        W54644   6.874  22.020   4.714
93334W        W54645  31.130  35.454   2.353
93335W        W54646  20.227  33.969  14.861
93336W        W54647  27.011  25.549  13.424
93337W        W54648   2.360  33.409  11.478
93338W        W54649  42.945  19.273  11.956
93339W        W54650  32.525  25.105   5.266
93340W        W54651  15.794  35.989  14.371
93341W        W54652   6.825  18.586  11.059
93342W        W54653   2.826  23.527   3.856
93343W        W54654  20.145  35.100  12.863
93344W        W54655  13.798  25.602   0.396
93345W        W54656  13.151  13.142  11.114
93346W        W54657  27.182   2.908   0.954
93347W        W54658  17.623  31.457  14.981
93348W        W54659   6.779   3.712   0.896
93349W        W54660  22.069  19.244   0.249
93350W        W54661  41.966  12.714  10.911
93351W        W54662   1.313  44.977   0.771
93352W        W54663  17.791  40.359  12.006
93353W        W54664   4.827   0.371  14.503
93354W        W54665   9.277   8.187   0.320
93355W        W54666  34.039  35.484  14.849
93356W        W54667  28.942   3.250  12.939
93357W        W54668  24.539   1.900  12.011
93358W        W54669  44.826   7.684   4.322
93359W        W54670   0.916   2.867  14.320
93360W        W54671   5.873  27.161  11.927
93361W        W54672   5.263  19.085  10.894
93362W        W54673   6.358  29.154  10.551
93363W        W54674  31.580  41.459  14.849
93364W        W54675  40.450   0.473   2.747
93365W        W54676  22.650  23.220   4.628
93366W        W54677   7.852  34.393   4.710
93367W        W54678  17.662  24.682  14.482
93368W        W54679   8.195  44.475  13.454
93369W        W54680  38.059  21.032   0.825
93370W        W54681  16.285  13.768  10.161
93371W        W54682   6.851  26.585  10.890
93372W        W54683  14.171  33.104   2.265
93373W        W54684  12.213   6.692   0.269
93374W        W54685   3.442  11.801  13.033
93375W        W54686   5.350  15.672  11.936
93376W        W54687  15.704  35.586  10.447
93377W        W54688  10.814  21.108   1.873
93378W        W54689   0.903  33.991  13.940
93379W        W54690  34.009   6.204  11.608
93380W        W54691  22.017  42.895   2.839
93381W        W54692  12.324   5.911   2.689
93382W        W54693  40.502  20.189  10.414
93383W        W54694   7.892  10.850  13.983
93384W        W54695   0.771  29.637   4.132
93385W        W54696  10.753  20.083  12.375
93386W        W54697  41.349  14.718   4.175
93387W        W54698  30.096  27.993   1.314
93388W        W54699  39.353  19.196   4.210
93389W        W54700  39.961  40.421   2.281
93390W        W54701  31.532  17.558   1.796
93391W        W54702  31.014  35.425  12.036
93392W        W54703  37.427  20.222   1.815
93393W        W54704  22.162  43.330   3.308
93394W        W54705  25.649  42.322  14.355
93395W        W54706  10.842   2.277   2.325
93396W        W54707   0.281  11.637   4.813
93397W        W54708  30.610  16.260  11.387
93398W        W54709   6.723  24.139  10.904
93399W        W54710  29.494  29.564   4.159
93400W        W54711   1.265  35.995  14.984
93401W        W54712  40.809   9.650   2.668
93402W        W54713   0.957  16.614  10.919
93403W        W54714   9.338  44.786   0.822
93404W        W54715  35.376  32.444  12.577
93405W        W54716   9.394  27.626   2.204
93406W        W54717   0.433   4.823  13.864
93407W        W54718  14.634  42.462   1.373
93408W        W54719  26.178  31.095  14.977
93409W        W54720   6.828  42.853  11.387
93410W        W54721  40.858  37.462  12.040
93411W        W54722  22.178  24.497  10.908
93412W        W54723  13.777   3.318   5.680
93413W        W54724   9.846  23.012   4.340
93414W        W54725  34.530   6.221  13.372
93415W        W54726  41.827  22.667   4.131
93416W        W54727  20.138  43.818  10.469
93417W        W54728  43.327  42.308   3.831
93418W        W54729  20.256  29.620   2.207
93419W        W54730  12.721  27.127  14.955
93420W        W54731   4.721  33.885  13.347
93421W        W54732  24.145  16.232  13.832
93422W        W54733   2.757  11.816  11.482
93423W        W54734  26.195  37.847   3.720
93424W        W54735  27.012  18.548   2.189
93425W        W54736  30.575  37.001   4.250
93426W        W54737  34.894  29.015  12.887
93427W        W54738  35.371  23.197   2.384
93428W        W54739  42.435   6.899  12.380
93429W        W54740   0.367   6.756   2.260
93430W        W54741  16.612   6.192   2.845
93431W        W54742  42.942  23.632  11.557
93432W        W54743  35.888  39.393  12.360
93433W        W54744  12.224   3.936  13.374
93434W        W54745  40.337  15.143  12.028
93435W        W54746  19.640   8.831   0.732
93436W        W54747  10.647  31.115  14.844
93437W        W54748  13.246  14.206   3.682
93438W        W54749  25.657  36.859   1.253
93439W        W54750  14.831  16.617  13.801
93440W        W54751  24.119  35.878   4.230
93441W        W54752  18.159  27.523   1.855
93442W        W54753  15.224   6.763  11.598
93443W        W54754   9.765  38.832   2.242
93444W        W54755   4.390  42.317  13.523
93445W        W54756  22.227  25.025   0.774
93446W        W54757  28.487  36.445  11.956
93447W        W54758  11.309  19.591   2.340
93448W        W54759  24.132  37.405  14.474
93449W        W54760  31.096   6.215   1.385
93450W        W54761  38.353   9.296   3.763
93451W        W54762  39.317  15.709  12.836
93452W        W54763  33.924  14.764  13.392
93453W        W54764  13.224  30.599  14.410
93454W        W54765  18.753  31.929  12.572
93455W        W54766   8.830  20.768  14.876
93456W        W54767  43.918  26.657  13.863
93457W        W54768  18.731  35.521   2.798
93458W        W54769  11.708  27.074   4.187
93459W        W54770  21.160  43.954   2.416
93460W        W54771  43.787   9.753   2.688
93461W        W54772  23.104  36.448  12.436
93462W        W54773  34.380  23.183  13.943
93463W        W54774  10.179   6.372  10.587
93464W        W54775   9.842  35.569  11.512
93465W        W54776  41.446  22.017   1.709
93466W        W54777   0.879  13.204   1.248
93467W        W54778   8.206  22.594  11.922
93468W        W54779  14.256  12.301   2.230
93469W        W54780  21.227  27.555   1.304
93470W        W54781  14.703  28.534  11.026
93471W        W54782   6.788  17.304   5.197
93472W        W54783   6.365  12.323  12.450
93473W        W54784   3.806  15.271   4.820
93474W        W54785   5.403  10.356   3.814
93475W        W54786  11.797  17.621  14.333
93476W        W54787  29.140  17.274   3.749
93477W        W54788  29.972  30.911  12.896
93478W        W54789  28.071  38.367   0.961
93479W        W54790  38.446   4.432   3.223
93480W        W54791  13.111   7.761  11.384
93481W        W54792  40.436  21.118  11.507
93482W        W54793   5.859  23.101   0.305
93483W        W54794  14.153  13.118   0.370
93484W        W54795  27.056  10.202  12.865
93485W        W54796  34.032  33.416   4.614
93486W        W54797  44.365  22.181  10.505
93487W        W54798  12.703  12.846  14.488
93488W        W54799  23.229  21.212   3.693
93489W        W54800  34.919  11.206   0.819
93490W        W54801  40.888  24.092   2.782
93491W        W54802  43.342  20.208  13.483
93492W        W54803  15.661   8.337   4.749
93493W        W54804  18.134   5.772   2.203
93494W        W54805   5.841   5.869   4.300
93495W        W54806  33.451  30.588   3.687
93496W        W54807  44.754  42.884   4.769
93497W        W54808   0.439  17.216  14.443
93498W        W54809  25.479  38.861  13.532
93499W        W54810   1.797  26.110   2.211
93500W        W54811  21.207  12.639   1.873
93501W        W54812   5.255   2.767   1.294
93502W        W54813  37.376  20.214   0.884
93503W        W54814  23.525  42.338  11.114
93504W        W54815  13.119  39.887  11.931
93505W        W54816   7.719  14.189   2.796
93506W        W54817  35.047  28.986   4.177
93507W        W54818  26.139  22.165  14.997
93508W        W54819  42.878  43.818   2.246
93509W        W54820  33.514  29.561  11.983
93510W        W54821  25.974  12.157  10.986
93511W        W54822  14.668  36.444   3.343
93512W        W54823  12.285  14.785   3.868
93513W        W54824  38.443  13.351   4.620
93514W        W54825   6.197  21.091   2.803
93515W        W54826  30.429  35.911  14.496
93516W        W54827  34.414  41.859   1.380
93517W        W54828  26.505  17.762  12.978
93518W        W54829  17.795  38.329   4.724
93519W        W54830  30.933   8.196   2.248
93520W        W54831   7.240  32.119   1.870
93521W        W54832  33.930   5.733  13.414
93522W        W54833  34.392  18.063   3.773
93523W        W54834  37.935   6.338  14.874
93524W        W54835  21.111  22.186   4.316
93525W        W54836  33.066   2.842   0.476
93526W        W54837  16.257  36.033   4.803
93527W        W54838  36.507   6.409   1.802
93528W        W54839  22.679   5.823   4.660
93529W        W54840  18.563  18.171  10.044
93530W        W54841  36.086  38.004   1.821
93531W        W54842  19.237  24.511  12.940
93532W        W54843  18.285  25.199   2.377
93533W        W54844  16.093  19.656  12.988
93534W        W54845  16.274  10.640   3.205
93535W        W54846   4.389  41.869  11.005
93536W        W54847  25.048   7.323  12.028
93537W        W54848  34.987  39.420  10.034
93538W        W54849  20.687  30.036   0.783
93539W        W54850  21.719  18.110   3.661
93540W        W54851   0.288  35.572  11.037
93541W        W54852   8.347  22.058  13.940
93542W        W54853  26.003  31.092  13.994
93543W        W54854  40.544  28.178   0.250
93544W        W54855  13.316   7.760  10.432
93545W        W54856   3.408  28.015   1.321
93546W        W54857  11.246  38.033   4.248
93547W        W54858  19.694  11.183   1.883
93548W        W54859   0.281  40.879   4.329
93549W        W54860   9.694  20.716  13.351
93550W        W54861  21.193  13.621   4.114
93551W        W54862  38.508  34.500  13.926
93552W        W54863  11.218  21.217  11.954
93553W        W54864  20.270  26.493   5.145
93554W        W54865  28.533  41.315   1.748
93555W        W54866  32.076  19.637  13.014
93556W        W54867  32.481   3.863   1.887
93557W        W54868  26.126   3.288   2.779
93558W        W54869  44.830  39.485  13.516
93559W        W54870  27.491   0.302  14.032
93560W        W54871  31.496  36.379  12.419
93561W        W54872  30.064  21.555   2.211
93562W        W54873  19.579  13.670   2.284
93563W        W54874  21.136  30.055   3.791
93564W        W54875  39.516  20.614  12.421
93565W        W54876  24.578  22.584   1.365
93566W        W54877  42.309  23.219   3.295
93567W        W54878  28.144  21.637  12.916
93568W        W54879  30.418  22.165  10.431
93569W        W54880  16.669  13.325  11.032
93570W        W54881   7.868  18.641   3.833
93571W        W54882  36.352  18.772   0.459
93572W        W54883   7.845  40.932   0.309
93573W        W54884   6.806  32.511  12.840
93574W        W54885  20.266  24.046   3.151
93575W        W54886   3.782  43.301  11.533
93576W        W54887  39.003   1.820   2.794
93577W        W54888   7.806   3.361  14.796
93578W        W54889  10.216  11.133  11.579
93579W        W54890  31.039  27.112   1.822
93580W        W54891  18.265  13.213  10.094
93581W        W54892  38.982  35.488   3.646
93582W        W54893  32.056  41.854   0.301
93583W        W54894  16.292  26.967   0.848
93584W        W54895  38.485   3.330  13.921
93585W        W54896  39.370  18.199  14.810
93586W        W54897  21.676  42.832  10.079
93587W        W54898  40.324   0.276  10.644
93588W        W54899  14.100  29.106  13.000
93589W        W54900  25.177   1.332   4.174
93590W        W54901  14.744  33.121  12.020
93591W        W54902  37.520  41.515   3.832
93592W        W54903  16.144   4.286   0.403
93593W        W54904   8.757  44.355  14.002
93594W        W54905  15.645  12.302  14.403
93595W        W54906  37.843  41.942  13.958
93596W        W54907  25.994   2.897  12.082
93597W        W54908  30.558   6.231   3.185
93598W        W54909   3.415  33.013   2.686
93599W        W54910   4.831  14.325  11.507
93600W        W54911  40.455  35.457  14.351
93601W        W54912  29.510   9.311   1.757
93602W        W54913  37.871   1.898   3.802
93603W        W54914   6.719  14.667  11.061
93604W        W54915  31.019  22.511   3.644
93605W        W54916  42.858  43.817   3.743
93606W        W54917  14.611   7.316  10.485
93607W        W54918  30.066  29.041  13.992
93608W        W54919  31.073  26.161   1.910
93609W        W54920  29.523  21.738  13.058
93610W        W54921  44.368  43.931   1.886
93611W        W54922  10.851  21.692  13.924
93612W        W54923  35.524  34.986  12.397
93613W        W54924  34.930   1.803   2.231
93614W        W54925  39.527  27.642   3.705
93615W        W54926   3.215  37.426   1.369
93616W        W54927  16.224   1.470  10.531
93617W        W54928   8.725  44.320   2.682
93618W        W54929  34.454  36.464  11.588
93619W        W54930   4.847  33.528   0.958
93620W        W54931  21.758  22.148  10.460
93621W        W54932  42.823   7.794   0.325
93622W        W54933  25.993  32.543  12.008
93623W        W54934  10.327  14.323   0.954
93624W        W54935  17.159   6.310  11.060
93625W        W54936  43.379   1.478   1.320
93626W        W54937  37.051  33.110  10.102
93627W        W54938  44.851  38.532   3.739
93628W        W54939  12.843  10.641  10.422
93629W        W54940   5.749  16.152  12.020
93630W        W54941  21.527  18.068  14.948
93631W        W54942  23.623   4.310   1.823
93632W        W54943  40.539  42.523   2.230
93633W        W54944  12.125   3.316  11.940
93634W        W54945   9.300  10.249  10.072
93635W        W54946  23.203  21.590   0.872
93636W        W54947  42.341  34.883   0.294
93637W        W54948  44.347  42.314   1.917
93638W        W54949  14.144   6.879   1.344
93639W        W54950   1.801   6.811   3.149
93640W        W54951  44.436  26.026   0.933
93641W        W54952   8.862  31.481   3.272
93642W        W54953   4.925   7.357   4.221
93643W        W54954   8.214  11.792  12.491
93644W        W54955   1.478  10.261  11.868
93645W        W54956   8.711  31.906   3.358
93646W        W54957  42.317   1.777   3.291
93647W        W54958  27.561   2.467  11.404
93648W        W54959  34.869  21.659  13.012
93649W        W54960  36.578  36.458   1.816
93650W        W54961  19.242  34.935   1.730
93651W        W54962  18.214  21.663   2.681
93652W        W54963  12.813  12.277   4.696
93653W        W54964   3.744  42.842  11.425
93654W        W54965  15.811  28.173   0.789
93655W        W54966  30.032  24.606   0.892
93656W        W54967  13.142  30.983  14.435
93657W        W54968  43.288  44.956   2.205
93658W        W54969  44.831  14.803   1.765
93659W        W54970   4.270   0.364  12.889
93660W        W54971  30.439  36.358   3.639
93661W        W54972  24.098   8.672  14.858
93662W        W54973  25.521  42.397  12.422
93663W        W54974  10.264  25.608  12.494
93664W        W54975   7.319  33.497   3.252
93665W        W54976   6.298  38.542  12.035
93666W        W54977   7.304   2.359  13.879
93667W        W54978  32.541   3.288  13.362
93668W        W54979  12.320  10.175   4.816
93669W        W54980  34.085   7.774  14.917
93670W        W54981  27.011  12.353   1.431
93671W        W54982  26.022  24.624  11.564
93672W        W54983  26.502  12.218   2.749
93673W        W54984  39.517  31.123  10.970
93674W        W54985  17.777  36.401   0.337
93675W        W54986  23.195  26.081  11.436
93676W        W54987   4.766  19.093   0.248
93677W        W54988  16.743  30.436  11.095
93678W        W54989  13.762   2.941  11.959
93679W        W54990  44.381   7.399   1.376
93680W        W54991  10.352  26.646  12.536
93681W        W54992  28.172   6.906   2.261
93682W        W54993  44.786  22.715  11.540
93683W        W54994  41.378   4.282   2.710
93684W        W54995  31.961   6.826   2.762
93685W        W54996  14.138  25.595   0.378
93686W        W54997  30.636  10.321   0.777
93687W        W54998  41.938  12.146   3.760
93688W        W54999  20.067  14.215   0.411
93689W        W55000  17.790  25.065   4.780
93690W        W55001  37.393  31.130  12.971
93691W        W55002  10.793  16.081   2.347
93692W        W55003  15.786  16.753   1.342
93693W        W55004  41.812  25.497   1.255
93694W        W55005   0.800  18.562  11.519
93695W        W55006   1.925  29.039  11.594
93696W        W55007  12.159  43.831   2.768
93697W        W55008   8.710  24.125   4.659
93698W        W55009   5.742  32.518   4.170
93699W        W55010  18.226  23.021   4.730
93700W        W55011  35.527  29.639  10.489
93701W        W55012  38.865  41.524  14.922
93702W        W55013  23.536  37.431  14.970
93703W        W55014  42.806  13.691   1.907
93704W        W55015  44.861  23.158  12.996
93705W        W55016  16.129  15.266  11.943
93706W        W55017  10.671  24.994   1.387
93707W        W55018  20.234   4.931   4.245
93708W        W55019  27.942   0.943   1.376
93709W        W55020  26.524   4.247  12.571
93710W        W55021  14.791  39.818  13.849
93711W        W55022  24.552  26.526   2.200
93712W        W55023  11.332  10.872   1.391
93713W        W55024   6.826  31.095   3.732
93714W        W55025  22.634   7.900  10.454
93715W        W55026   5.316  41.515   2.851
93716W        W55027  29.536   5.743   2.373
93717W        W55028   4.752  38.406   0.800
93718W        W55029   7.289  23.556  13.501
93719W        W55030  20.199  10.725  14.846
93720W        W55031  36.356  22.569   1.263
93721W        W55032  39.406   5.248  14.938
93722W        W55033   5.726  26.550  13.852
93723W        W55034   4.945  27.133  13.512
93724W        W55035  23.081   9.698  14.302
93725W        W55036  36.403  30.018   1.366
93726W        W55037  44.832  14.256   2.233
93727W        W55038  20.244  13.708   3.856
93728W        W55039  12.356   0.986   4.135
93729W        W55040  43.508   0.476  13.544
93730W        W55041   3.915  35.403  11.866
93731W        W55042  35.881  44.434   4.200
93732W        W55043  43.015  29.455  10.971
93733W        W55044   5.326  16.785   2.671
93734W        W55045  28.437   5.929  14.929
93735W        W55046   7.753  15.210   1.864
93736W        W55047  11.719  19.070  11.032
93737W        W55048  18.220  37.984  14.862
93738W        W55049  15.672  43.773  12.881
93739W        W55050  28.669  36.869  12.827
93740W        W55051  29.087   2.408   0.385
93741W        W55052  21.632  33.483  11.856
93742W        W55053  11.628   9.705  14.928
93743W        W55054  39.536  37.862   4.240
93744W        W55055   7.365   8.247   1.419
93745W        W55056  40.354   4.760  11.025
93746W        W55057  28.081   0.387   4.186
93747W        W55058  30.087  38.450  11.089
93748W        W55059   0.341  32.075   3.383
93749W        W55060  43.919  12.247  12.472
93750W        W55061  41.817  16.135   0.957
93751W        W55062  42.003   9.270  13.855
93752W        W55063  38.912  29.575  14.479
93753W        W55064  28.470  17.729   0.333
93754W        W55065  44.365  36.573   4.813
93755W        W55066   2.392  23.666  13.861
93756W        W55067   5.257  12.359  11.940
93757W        W55068  10.274   6.345   4.193
93758W        W55069  43.422   1.240   1.709
93759W        W55070  12.219  27.078  13.461
93760W        W55071  22.592  11.698   4.616
93761W        W55072  22.224  26.628  14.031
93762W        W55073  11.724  25.101   9.957
93763W        W55074  43.375   2.294  11.889
93764W        W55075   7.249  20.258   3.750
93765W        W55076  15.749  42.971   3.344
93766W        W55077  13.258  40.878   2.686
93767W        W55078  25.661  14.261   4.313
93768W        W55079  19.186  33.619  14.310
93769W        W55080   9.395  22.610  12.022
93770W        W55081  40.448  44.822   4.227
93771W        W55082  26.696   1.862   2.335
93772W        W55083   5.325  18.650  12.886
93773W        W55084  40.899  37.984  13.350
93774W        W55085  13.346  39.348  12.348
93775W        W55086   3.348  33.396  11.017
93776W        W55087  38.374   0.881  11.997
93777W        W55088   8.342  33.440   0.303
93778W        W55089  27.067  22.719  11.510
93779W        W55090   7.686   7.703  12.410
93780W        W55091  31.561  32.914   4.135
93781W        W55092  33.383  35.968   1.435
93782W        W55093   9.667  12.172  11.045
93783W        W55094   3.801   2.364  14.949
93784W        W55095  35.404  38.461  14.932
93785W        W55096  23.183  44.327  13.378
93786W        W55097  15.276  14.340   5.199
93787W        W55098   7.217  24.681   0.305
93788W        W55099  35.368  18.287   2.359
93789W        W55100  13.691  13.340  11.510
93790W        W55101  25.608  22.166  13.466
93791W        W55102  26.995  34.445  10.459
93792W        W55103  23.684   1.785   0.382
93793W        W55104  11.756  23.074   4.306
93794W        W55105   9.258   3.909  13.908
93795W        W55106   5.799  17.725   0.401
93796W        W55107   7.239  40.462   4.343
93797W        W55108  44.458  30.554   1.444
93798W        W55109  44.409   5.689   1.810
93799W        W55110  20.741  36.897   9.614
93800W        W55111  36.447  34.984   2.737
93801W        W55112   8.175   9.376  10.537
93802W        W55113   2.740  40.010   1.933
93803W        W55114  28.611  38.932  14.909
93804W        W55115   8.757  43.893   0.729
93805W        W55116  11.231   6.293   4.261
93806W        W55117  32.082  28.075  11.923
93807W        W55118  18.203  25.111  13.825
93808W        W55119  31.519  28.150   3.785
93809W        W55120  35.950  19.578   2.333
93810W        W55121   6.403  41.825  14.962
93811W        W55122  14.784  33.875  14.947
93812W        W55123  23.201  23.065   1.731
93813W        W55124  11.182  30.118  11.479
93814W        W55125   7.746  13.303  13.996
93815W        W55126  18.099  30.080   2.818
93816W        W55127  34.541   0.419   1.229
93817W        W55128  29.997  42.801  10.567
93818W        W55129   7.286   5.847  14.306
93819W        W55130  41.843  29.079  12.340
93820W        W55131  38.895  30.420   1.843
93821W        W55132  22.230  11.196   3.181
93822W        W55133  28.979   3.868  12.389
93823W        W55134  32.085  20.635   0.736
93824W        W55135  25.035  34.031   3.251
93825W        W55136  22.729   4.319  13.376
93826W        W55137  21.723   9.279  12.373
93827W        W55138  30.440  29.613  13.482
93828W        W55139   4.385  41.931   1.927
93829W        W55140  22.214   2.929  10.961
93830W        W55141  32.906   8.792   1.814
93831W        W55142   8.879  38.439   1.850
93832W        W55143  42.798   3.254  14.970
93833W        W55144  24.518  37.986  11.458
93834W        W55145   7.708  43.766  10.539
93835W        W55146   0.863  28.505  14.450
93836W        W55147   3.297  25.126   3.654
93837W        W55148  29.159   4.786   2.196
93838W        W55149   0.926  18.620  13.984
93839W        W55150  13.807   0.982  14.850
93840W        W55151  15.203  33.921  11.501
93841W        W55152  27.043   9.309   4.635
93842W        W55153   8.865  28.462  12.986
93843W        W55154  19.233   5.780  11.403
93844W        W55155  33.510  38.440   1.920
93845W        W55156  10.301  40.012  12.880
93846W        W55157  25.703  41.967  13.454
93847W        W55158  16.316   9.764  12.484
93848W        W55159  25.995  37.429  12.859
93849W        W55160  33.914  17.749   0.376
93850W        W55161   0.913  32.600  12.389
93851W        W55162   4.867  12.144   3.191
93852W        W55163  26.475  43.363  13.845
93853W        W55164  20.709  37.548  14.433
93854W        W55165  44.394  38.409  11.545
93855W        W55166  38.963   8.751   0.430
93856W        W55167   7.197  27.476  14.404
93857W        W55168  24.713  28.154  11.018
93858W        W55169  18.100  18.255  10.626
93859W        W55170  21.100  32.468  10.492
93860W        W55171  25.602  18.687  13.507
93861W        W55172   0.265  20.189  14.930
93862W        W55173  24.673  34.013   4.314
93863W        W55174   1.900  25.551   1.787
93864W        W55175  17.726   5.871   2.826
93865W        W55176  12.807  12.805  14.964
93866W        W55177  39.955  21.183   4.200
93867W        W55178  27.461   2.812   3.346
93868W        W55179  14.648  26.964  14.789
93869W        W55180  32.992  29.594   1.272
93870W        W55181   9.225  37.443   3.202
93871W        W55182  15.686  23.540  14.437
93872W        W55183   2.789   5.870   1.448
93873W        W55184  33.059  33.624  14.759
93874W        W55185  29.099   0.359  14.506
93875W        W55186  33.973  11.181   2.784
93876W        W55187  16.237  13.701  13.467
93877W        W55188  39.486  39.992   4.746
93878W        W55189   4.753  21.638  12.074
93879W        W55190   8.760  44.460  14.946
93880W        W55191   2.822  37.081   0.737
93881W        W55192   2.954   4.350   4.628
93882W        W55193  37.043   7.227  14.937
93883W        W55194  36.021  23.991  10.594
93884W        W55195   5.739   9.836   3.294
93885W        W55196  26.623  44.978   4.307
93886W        W55197  15.152  17.562  12.843
93887W        W55198  38.869  42.902   1.903
93888W        W55199  26.682  20.160   5.626
93889W        W55200  36.900  40.308  13.378
93890W        W55201  40.504  32.012   0.845
93891W        W55202  19.583  20.200  13.450
93892W        W55203  19.639  30.978  14.799
93893W        W55204   7.771  19.187  10.422
93894W        W55205  36.447   1.353  11.902
93895W        W55206   1.337  41.365   0.854
93896W        W55207  26.077  40.396   3.236
93897W        W55208  36.092  18.066   4.132
93898W        W55209  34.431  29.527  12.976
93899W        W55210  13.697  35.378   4.760
93900W        W55211  33.060  38.873  13.475
93901W        W55212   9.740  21.041  13.797
93902W        W55213  12.785  11.628   4.240
93903W        W55214  26.477  39.468  14.017
93904W        W55215  13.291  17.253  12.438
93905W        W55216  37.416  30.080   1.861
93906W        W55217  33.128  26.981  11.488
93907W        W55218   1.837  33.125  14.802
93908W        W55219  29.426   9.374  12.469
93909W        W55220  18.103  25.551   3.243
93910W        W55221  34.946   9.225  11.450
93911W        W55222  38.942  24.050   4.710
93912W        W55223   4.326  24.643   0.751
93913W        W55224  11.651  21.591   4.114
93914W        W55225  13.825  37.379  12.877
93915W        W55226   3.283  34.114  11.954
93916W        W55227  38.069  43.307   9.531
93917W        W55228   4.836   1.753   4.297
93918W        W55229  28.616  26.028  12.967
93919W        W55230  13.187   9.682   2.725
93920W        W55231  31.531  15.772  13.044
93921W        W55232  23.177  38.978  11.464
93922W        W55233  18.547  16.753  13.971
93923W        W55234  16.746  31.095   1.355
93924W        W55235  37.894  41.386   4.827
93925W        W55236  19.145  24.973   1.765
93926W        W55237  33.541  31.934   0.442
93927W        W55238  34.533   5.270  11.115
93928W        W55239   7.798  21.181  12.982
93929W        W55240  43.461  15.202  14.914
93930W        W55241  30.062  30.975   2.232
93931W        W55242  27.456  32.477   3.751
93932W        W55243  29.087  36.088  10.465
93933W        W55244   8.825  20.526   0.448
93934W        W55245  16.279  33.462  13.829
93935W        W55246   7.786   3.225  12.041
93936W        W55247  32.140  33.599  10.952
93937W        W55248   2.844  34.467   0.344
93938W        W55249   7.172  15.626   0.455
93939W        W55250  41.838  42.963   2.731
93940W        W55251  43.380  21.143   0.315
93941W        W55252   0.971  29.581   3.336
93942W        W55253  27.510   0.798  13.306
93943W        W55254  11.368   0.471  11.048
93944W        W55255   1.950   2.239  12.548
93945W        W55256  21.743  16.668  12.447
93946W        W55257  26.056  44.983   0.760
93947W        W55258  25.709  30.516   2.343
93948W        W55259  30.049  17.216  13.908
93949W        W55260  39.529  32.115  12.525
93950W        W55261  17.667  44.350   0.966
93951W        W55262  26.088  40.448  13.374
93952W        W55263  34.864  34.386   4.746
93953W        W55264   0.885  23.025  12.468
93954W        W55265  37.579  23.514  11.970
93955W        W55266  16.667  44.929  13.039
93956W        W55267  18.250  14.611  13.989
93957W        W55268  42.471  35.388   2.888
93958W        W55269  30.590  26.121   3.191
93959W        W55270   9.363  16.644   0.736
93960W        W55271  15.098  27.690  10.602
93961W        W55272  31.078  18.144   4.230
93962W        W55273   9.164  38.551  14.991
93963W        W55274  24.127  11.134  13.048
93964W        W55275  13.177  44.005   2.735
93965W        W55276  15.156  41.311  14.490
93966W        W55277  12.285   2.817  12.070
93967W        W55278  41.343   0.454  12.375
93968W        W55279  10.308   5.712  13.873
93969W        W55280   3.737   7.267   3.324
93970W        W55281  33.030  33.469   1.332
93971W        W55282  14.732  39.413   3.258
93972W        W55283  27.155  15.290   3.694
93973W        W55284  28.153  12.123  12.985
93974W        W55285  22.502   6.183   3.316
93975W        W55286  38.349  23.068   1.223
93976W        W55287  36.980  25.580  11.464
93977W        W55288  37.982   4.405   2.798
93978W        W55289  26.579  15.782  10.500
93979W        W55290   9.795  30.968   4.183
93980W        W55291   0.277  14.138   2.417
93981W        W55292   8.806  43.854   3.705
93982W        W55293   4.363  16.654   3.787
93983W        W55294  36.949   5.704   1.271
93984W        W55295  14.249   2.774   1.333
93985W        W55296  20.142  23.556  12.981
93986W        W55297  23.667  18.124  10.900
93987W        W55298   8.276  31.624   4.832
93988W        W55299   6.736   0.309  11.973
93989W        W55300   6.901  37.063  13.525
93990W        W55301  38.860  28.182  11.859
93991W        W55302  22.179  19.774  14.783
93992W        W55303  23.648  22.660   2.280
93993W        W55304   6.826  32.949   4.700
93994W        W55305  15.300  24.133   1.849
93995W        W55306  32.076   0.985   2.823
93996W        W55307   1.368  34.435   2.738
93997W        W55308   8.744   8.693   4.736
93998W        W55309  21.190  11.197  13.530
93999W        W55310   6.351  13.676   1.848
94000W        W55311  41.405  40.020   1.917
94001W        W55312   5.778  18.785   1.377
94002W        W55313  18.688  39.933  11.428
94003W        W55314   6.865   4.323   4.801
94004W        W55315   4.291  21.114   0.338
94005W        W55316  30.007  26.520   5.200
94006W        W55317   1.272   6.703  12.057
94007W        W55318  16.082  17.113   4.142
94008W        W55319   7.394   3.357  14.354
94009W        W55320  18.257  16.741  13.335
94010W        W55321  15.819  23.135   2.733
94011W        W55322  40.899   7.893  14.911
94012W        W55323   3.890   8.896   5.221
94013W        W55324  32.893  35.935   3.692
94014W        W55325  23.546  14.787  13.465
94015W        W55326  23.007  26.161   0.319
94016W        W55327  35.947   6.260   2.270
94017W        W55328  36.923  38.515  12.434
94018W        W55329   5.364  37.886  13.956
94019W        W55330  12.228  40.407  14.317
94020W        W55331  21.194  22.584   4.614
94021W        W55332  25.171   6.874  13.946
94022W        W55333  14.627  42.869  13.432
94023W        W55334   2.325  14.796   0.841
94024W        W55335  39.532  34.407  13.048
94025W        W55336  41.858  33.408   5.215
94026W        W55337  16.674  34.099   3.167
94027W        W55338  19.631  40.844  14.375
94028W        W55339  30.568  20.553  11.955
94029W        W55340   0.856  18.771  12.986
94030W        W55341  11.636   2.394  11.993
94031W        W55342  13.258  24.092  13.419
94032W        W55343  44.872  18.050  11.460
94033W        W55344  11.243  11.868  11.383
94034W        W55345  37.915  41.944  14.328
94035W        W55346  25.611  13.278  11.047
94036W        W55347  29.000  28.106   1.880
94037W        W55348   6.419  28.091  14.502
94038W        W55349  33.393  26.026  12.861
94039W        W55350   8.355  11.692   3.267
94040W        W55351  18.281  18.639   2.743
94041W        W55352   1.361  33.568  10.153
94042W        W55353   5.400   7.670   2.339
94043W        W55354  30.091  37.069   3.781
94044W        W55355  14.816  28.133  10.931
94045W        W55356   1.370   5.771  11.430
94046W        W55357  44.958  14.278   4.760
94047W        W55358  10.267  35.373  13.903
94048W        W55359  40.033  13.255  11.476
94049W        W55360  43.442  15.112  11.604
94050W        W55361  22.675  44.500  12.389
94051W        W55362   0.388   6.286  11.067
94052W        W55363  30.647  15.262   3.266
94053W        W55364  34.483   9.295  14.777
94054W        W55365  10.192  17.125   0.326
94055W        W55366  23.107  12.838  14.424
94056W        W55367   4.413  39.422  12.512
94057W        W55368  37.481  30.094  12.944
94058W        W55369  35.895  12.843   1.761
94059W        W55370  42.408  22.196  11.592
94060W        W55371  42.780  37.467   5.124
94061W        W55372  14.276  17.244   1.712
94062W        W55373  11.653  10.642   1.735
94063W        W55374   8.797  15.674  11.075
94064W        W55375  38.942  42.842   4.704
94065W        W55376  22.093  31.060  14.477
94066W        W55377  37.980   3.432   4.767
94067W        W55378  31.520  42.369   0.864
94068W        W55379  38.533  22.521  10.959
94069W        W55380   2.760  19.712  10.635
94070W        W55381  15.588  29.027  13.899
94071W        W55382  33.597  34.986  10.940
94072W        W55383  12.691  10.666   0.963
94073W        W55384  36.876  30.157   1.720
94074W        W55385   8.267  10.355  13.502
94075W        W55386  26.979  36.416   0.930
94076W        W55387   4.872   3.802   2.890
94077W        W55388  17.284  27.478   2.701
94078W        W55389   0.459  18.128   3.770
94079W        W55390  23.076  22.189  14.323
94080W        W55391  26.020  30.566   5.091
94081W        W55392  27.620  14.139  12.844
94082W        W55393  10.217  31.057   9.928
94083W        W55394   5.291  18.702  14.778
94084W        W55395  35.091  21.050  12.082
94085W        W55396   3.749  29.061   0.332
94086W        W55397  27.627  34.573   4.732
94087W        W55398  32.099  19.723   4.252
94088W        W55399  34.073  37.939  14.820
94089W        W55400  24.622  29.651   2.767
94090W        W55401  40.051  31.078  14.407
94091W        W55402  30.420  21.635  11.882
94092W        W55403   4.778  18.588   0.276
94093W        W55404  10.759  27.055  11.947
94094W        W55405  39.923  32.987  10.927
94095W        W55406  24.197  10.662  11.600
94096W        W55407  29.060  42.518  13.339
94097W        W55408  33.574  44.489  11.119
94098W        W55409  16.712  10.687  14.980
94099W        W55410  40.530  41.800  14.484
94100W        W55411   2.763  32.085  12.526
94101W        W55412  31.149  39.399   2.755
94102W        W55413   7.885  29.974  14.452
94103W        W55414  31.920  39.881   4.678
94104W        W55415  16.163  14.107   3.651
94105W        W55416  32.018  38.846   1.814
94106W        W55417   3.442   9.743  13.052
94107W        W55418  10.297  22.717   4.150
94108W        W55419  43.369  38.346  10.924
94109W        W55420  10.760  19.273   2.192
94110W        W55421   8.740  31.121  13.861
94111W        W55422  17.245  33.458  13.522
94112W        W55423  17.143  30.627   4.634
94113W        W55424  43.966  39.008  14.000
94114W        W55425  39.993  11.230   4.330
94115W        W55426  24.212  27.966   5.640
94116W        W55427   7.361  43.364  12.830
94117W        W55428  29.064  32.138  12.061
94118W        W55429  19.677  23.234  10.589
94119W        W55430  27.680  36.845  12.453
94120W        W55431   2.781  28.492  13.995
94121W        W55432   6.185  12.831  13.541
94122W        W55433   0.311  12.715   4.288
94123W        W55434  35.506  23.123  12.386
94124W        W55435  34.554  16.760   3.689
94125W        W55436  39.555  31.570   5.684
94126W        W55437  32.534   1.746  11.864
94127W        W55438   8.205   9.298  12.544
94128W        W55439   6.184  41.992   1.383
94129W        W55440   7.838  22.203  10.065
94130W        W55441  34.602   6.285  11.860
94131W        W55442  28.031   3.787   3.639
94132W        W55443  14.656  12.732  13.464
94133W        W55444  15.759  28.154  13.314
94134W        W55445  25.521  15.813   3.202
94135W        W55446   0.867  14.718  11.497
94136W        W55447  12.615  38.027  14.437
94137W        W55448  17.272  30.650  14.800
94138W        W55449   3.335  41.467   2.210
94139W        W55450  14.757   3.904  11.974
94140W        W55451  30.575  17.081  12.031
94141W        W55452  14.677  30.020  14.343
94142W        W55453  26.598  35.413   3.675
94143W        W55454  11.784  28.465   2.411
94144W        W55455   1.848  25.099  11.115
94145W        W55456  34.079  36.088   0.786
94146W        W55457  27.665  17.588  10.581
94147W        W55458  37.896   9.795  10.528
94148W        W55459   0.960  33.418   2.293
94149W        W55460  16.294  17.655  10.632
94150W        W55461  20.164   1.429  13.422
94151W        W55462  38.478  36.988   1.745
94152W        W55463   1.780   1.439   3.646
94153W        W55464  36.908  37.559   4.671
94154W        W55465  17.119  30.443   1.717
94155W        W55466  44.390  43.990   4.194
94156W        W55467  21.679  37.885  12.022
94157W        W55468   9.759  39.008  14.847
94158W        W55469  30.122  18.050  12.466
94159W        W55470   7.338  31.459   1.272
94160W        W55471  37.386  21.674   2.186
94161W        W55472  43.332   2.869  13.354
94162W        W55473  36.385  17.728   1.898
94163W        W55474  34.107  15.691  11.546
94164W        W55475   5.869  27.581  13.329
94165W        W55476  29.152  14.825   3.315
94166W        W55477  26.109  22.539   2.279
94167W        W55478  31.960   2.927   2.895
94168W        W55479  16.215  27.672  10.994
94169W        W55480   4.759  40.309  10.947
94170W        W55481  11.740   8.208  13.931
94171W        W55482   1.412   6.831  14.025
94172W        W55483  30.482  33.005  13.860
94173W        W55484  11.147  33.582  13.942
94174W        W55485   8.896  19.285   2.785
94175W        W55486  14.798  24.978  13.970
94176W        W55487  30.074   2.449  14.377
94177W        W55488  17.622  41.821  13.512
94178W        W55489  25.674  20.261  11.069
94179W        W55490  41.521  10.661  12.558
94180W        W55491  10.274  40.885  14.996
94181W        W55492  33.409   7.784   3.204
94182W        W55493   2.311  30.030   0.380
94183W        W55494  42.288  34.867  12.045
94184W        W55495  19.744  39.549  11.492
94185W        W55496  39.905  41.358  13.051
94186W        W55497  39.344  34.446  10.575
94187W        W55498  22.666   7.311   3.271
94188W        W55499   8.377  27.471  10.617
94189W        W55500  13.785  25.593   2.206
94190W        W55501  24.700  25.210   0.922
94191W        W55502  23.521  38.056   4.265
94192W        W55503   3.447   5.806  12.385
94193W        W55504  19.571   3.935   1.393
94194W        W55505  28.502   4.913   2.264
94195W        W55506  36.892   7.302  14.418
94196W        W55507  27.515  27.072   4.672
94197W        W55508  30.598  18.164   3.257
94198W        W55509  39.555   5.232  12.574
94199W        W55510  15.272   8.743  10.433
94200W        W55511  25.065  29.036   3.681
94201W        W55512  14.597  42.448   0.306
94202W        W55513  12.196   8.162  14.765
94203W        W55514  14.635  17.684  14.949
94204W        W55515   3.300   0.379   3.766
94205W        W55516   0.943  23.188   2.889
94206W        W55517  38.457  24.000  12.015
94207W        W55518  34.457  28.519   0.864
94208W        W55519   2.785  28.493  11.924
94209W        W55520  28.630   8.780   3.289
94210W        W55521  29.002  19.556   2.774
94211W        W55522  18.615   3.712  10.483
94212W        W55523  18.617  11.361  14.494
94213W        W55524  25.165   9.866   0.417
94214W        W55525   7.741  35.859  11.436
94215W        W55526  31.986  10.243   3.319
94216W        W55527  43.339   2.401   3.690
94217W        W55528  42.414  31.636   0.251
94218W        W55529   6.240  35.549   0.368
94219W        W55530  37.001   3.299  12.408
94220W        W55531  34.025  36.381   1.345
94221W        W55532  40.412  24.054   2.356
94222W        W55533  36.893   2.402   0.808
94223W        W55534  17.202  36.511  11.015
94224W        W55535   1.847  12.845  12.073
94225W        W55536  29.467   7.827   0.322
94226W        W55537  38.948  19.072   1.869
94227W        W55538  39.994  22.130  12.400
94228W        W55539   0.427  28.037   1.830
94229W        W55540   2.276  42.289   3.244
94230W        W55541  42.846  33.060  14.442
94231W        W55542  30.452  44.803   2.819
94232W        W55543  15.084  30.612   2.830
94233W        W55544   4.762  42.965  12.431
94234W        W55545  42.291  32.434   1.374
94235W        W55546  12.127  27.535  11.549
94236W        W55547  13.834  24.984  10.094
94237W        W55548  32.092  15.155   3.665
94238W        W55549  33.117  43.370  11.108
94239W        W55550  15.610  22.726   3.762
94240W        W55551   7.200  24.227   4.287
94241W        W55552  37.933  19.684   1.931
94242W        W55553  24.660   8.248   1.386
94243W        W55554   1.308  43.402  12.973
94244W        W55555  27.479  39.023  10.431
94245W        W55556   3.460  15.742   2.269
94246W        W55557  30.610  43.385  11.922
94247W        W55558  34.540  18.705   3.859
94248W        W55559   1.421  26.191  12.031
94249W        W55560  17.769  12.828  13.872
94250W        W55561  21.166  39.393  11.555
94251W        W55562  20.220  17.641  12.472
94252W        W55563  39.943  14.171  14.828
94253W        W55564   7.244  32.087   2.378
94254W        W55565  14.208  11.330  10.117
94255W        W55566  20.662  28.511   1.869
94256W        W55567   8.769  23.215  14.382
94257W        W55568  17.754  12.801  11.931
94258W        W55569  32.529   4.431   3.387
94259W        W55570  21.758  33.042   4.753
94260W        W55571  12.732   3.769  10.002
94261W        W55572  15.599  20.041  12.072
94262W        W55573  37.380   8.661  12.411
94263W        W55574  39.406  44.337  13.961
94264W        W55575  44.418  26.490   5.240
94265W        W55576   4.323   5.424  13.414
94266W        W55577   6.916  35.103   4.332
94267W        W55578   2.883  15.752   4.621
94268W        W55579  39.384   2.813   0.278
94269W        W55580   8.892  28.506   2.411
94270W        W55581  40.470   2.866   3.650
94271W        W55582  29.613  40.981   1.882
94272W        W55583  19.754  42.800   2.885
94273W        W55584  26.130  10.178   4.264
94274W        W55585  40.316  36.063   3.865
94275W        W55586  29.097  20.734   2.388
94276W        W55587  33.929  37.063   1.734
94277W        W55588   3.727  12.751   1.770
94278W        W55589  22.706  30.443   0.915
94279W        W55590  20.630  17.590  13.535
94280W        W55591  10.870  36.901  14.907
94281W        W55592  14.736  29.170  12.999
94282W        W55593  18.704  44.862  14.923
94283W        W55594  25.687   2.304   1.290
94284W        W55595  23.498  41.042   2.786
94285W        W55596   9.868  35.965   4.147
94286W        W55597   4.303  10.739  11.465
94287W        W55598  15.677  18.756   4.692
94288W        W55599  40.799  24.696  11.063
94289W        W55600  33.457   1.787   3.861
94290W        W55601  44.411   1.286   3.658
94291W        W55602  25.177  23.733  11.481
94292W        W55603  16.720  32.116   3.239
94293W        W55604  24.112  32.628   3.227
94294W        W55605   0.272   5.867   3.686
94295W        W55606  22.574  18.569   2.673
94296W        W55607  18.655   8.714   0.832
94297W        W55608  43.818  21.691   2.829
94298W        W55609   2.767  29.557   4.718
94299W        W55610   2.936  31.549  13.547
94300W        W55611  32.624  30.002  11.511
94301W        W55612  19.684  30.575  13.451
94302W        W55613   7.878  18.236   4.176
94303W        W55614  41.875  23.018   4.788
94304W        W55615  44.905  40.367   1.335
94305W        W55616   4.399   4.830  14.951
94306W        W55617  40.507  42.966  14.988
94307W        W55618  20.272  34.475  14.477
94308W        W55619   6.269  22.243  12.951
94309W        W55620   1.480   9.226  12.547
94310W        W55621  42.980   1.245  14.468
94311W        W55622  33.876  35.395   2.232
94312W        W55623  36.905  12.261   1.228
94313W        W55624  29.139  25.476   0.840
94314W        W55625  35.891  23.734  11.438
94315W        W55626  33.595  13.292  14.020
94316W        W55627  13.820  26.503  12.528
94317W        W55628  28.041  40.476  12.340
94318W        W55629  10.788  11.351   3.345
94319W        W55630   9.389  25.055  13.533
94320W        W55631  40.345  32.407  12.884
94321W        W55632  13.342   8.176   3.257
94322W        W55633   2.305  24.123  10.435
94323W        W55634  16.669   2.858   9.974
94324W        W55635  22.514  38.986  13.369
94325W        W55636  34.064  22.654  11.884
94326W        W55637   5.763  31.004   4.204
94327W        W55638  32.947  19.765  11.991
94328W        W55639  35.083  15.705   1.849
94329W        W55640  28.610  30.944   3.808
94330W        W55641  37.913  36.432   4.738
94331W        W55642  24.575  29.576   3.292
94332W        W55643  41.324  18.657  12.828
94333W        W55644  35.103  21.195  13.923
94334W        W55645  32.037  25.658  10.639
94335W        W55646  36.506  20.715  11.479
94336W        W55647  44.930   5.396  11.918
94337W        W55648  38.392  35.458   0.451
94338W        W55649   7.308  10.363  10.641
94339W        W55650  28.465  20.583   2.739
94340W        W55651  20.244  26.538  12.934
94341W        W55652  42.418  17.307  10.466
94342W        W55653  17.708  10.352  10.138
94343W        W55654   8.381  37.377   2.739
94344W        W55655  28.092  14.835   3.808
94345W        W55656  32.401   6.697   9.508
94346W        W55657  15.667   5.350   1.796
94347W        W55658  42.856  19.173   4.167
94348W        W55659  28.611   6.188   1.906
94349W        W55660   8.304  33.989   3.186
94350W        W55661  34.395   6.692  11.932
94351W        W55662  34.907  38.484   4.161
94352W        W55663  41.354  13.812   4.171
94353W        W55664  17.719  20.569  11.540
94354W        W55665  41.898  28.608  14.280
94355W        W55666  28.497   0.839   3.661
94356W        W55667  25.579  20.601   0.922
94357W        W55668  33.115  27.018  14.293
94358W        W55669  23.047  10.291   4.821
94359W        W55670  41.392  12.818   0.874
94360W        W55671   1.445  10.328  10.598
94361W        W55672  18.723  18.786  13.310
94362W        W55673  30.961  10.230   1.854
94363W        W55674  24.689  23.152   1.789
94364W        W55675   4.806   3.217   2.214
94365W        W55676   4.751  24.023   4.204
94366W        W55677   6.342  32.526  10.583
94367W        W55678  14.314  23.197  13.345
94368W        W55679  16.265  32.457   3.689
94369W        W55680  18.186  43.291   0.956
94370W        W55681  42.782  37.370   1.357
94371W        W55682   6.238  32.017  12.363
94372W        W55683   3.282   2.310   5.160
94373W        W55684  10.269  40.865   3.818
94374W        W55685   8.333  10.218   4.179
94375W        W55686  26.509   0.874   4.650
94376W        W55687  20.594   3.324   3.271
94377W        W55688  20.581  13.186  10.103
94378W        W55689   8.847  10.814  11.053
94379W        W55690   3.781  14.308  13.897
94380W        W55691  14.280  22.009  14.376
94381W        W55692  14.299   8.725  11.073
94382W        W55693  31.556  21.171  11.008
94383W        W55694  17.304  19.578  10.998
94384W        W55695  43.803  13.639  13.798
94385W        W55696  29.627  40.005  13.338
94386W        W55697   2.934  39.018   3.223
94387W        W55698  34.105  12.758   3.265
94388W        W55699  11.371  24.584   0.761
94389W        W55700  25.666  37.960  10.472
94390W        W55701  19.568   1.894  11.390
94391W        W55702  33.523  12.824  11.593
94392W        W55703   8.841   5.699   1.852
94393W        W55704   1.962  15.136   2.701
94394W        W55705   1.931  16.229  11.498
94395W        W55706   5.756  12.748   1.352
94396W        W55707  22.649  10.243  11.126
94397W        W55708  44.420   5.375  12.071
94398W        W55709  12.265  31.069  10.938
94399W        W55710  21.258  15.096  10.415
94400W        W55711   3.251  16.106   4.776
94401W        W55712  32.618  25.111   1.303
94402W        W55713  12.230  36.564  12.032
94403W        W55714   9.185  39.370  13.334
94404W        W55715  27.639  30.956   2.854
94405W        W55716  12.189  14.739   2.838
94406W        W55717  20.669  24.997  14.883
94407W        W55718   2.301  29.502   1.353
94408W        W55719  39.332  43.296   4.200
94409W        W55720  29.106   1.881   0.420
94410W        W55721   6.912  22.736  11.433
94411W        W55722  20.182  36.500  10.627
94412W        W55723  26.546  39.322   4.192
94413W        W55724  12.825  20.080  13.009
94414W        W55725  25.668   4.704   5.139
94415W        W55726  15.687  37.362  11.944
94416W        W55727   3.751  20.660   1.840
94417W        W55728  15.677  14.793  13.950
94418W        W55729  24.676   8.719   3.755
94419W        W55730   1.240  24.989   2.719
94420W        W55731   7.898   1.866   4.821
94421W        W55732  44.505   8.679  11.486
94422W        W55733  19.618  24.089   3.840
94423W        W55734  21.680  21.705   1.912
94424W        W55735  43.312  41.515   5.262
94425W        W55736  34.005   7.208  14.452
94426W        W55737  41.829  24.522  12.977
94427W        W55738  42.301   4.450   4.654
94428W        W55739  43.764  32.459  14.430
94429W        W55740  11.225  35.368   0.413
94430W        W55741  40.465  36.498   3.218
94431W        W55742  17.302  15.085   3.845
94432W        W55743  25.161  14.692   4.801
94433W        W55744  34.944  10.339  11.558
94434W        W55745   9.838   0.797   0.355
94435W        W55746   3.310  44.958   0.889
94436W        W55747  36.527  32.412  11.396
94437W        W55748  21.709  14.185  10.611
94438W        W55749  25.601  42.443  13.509
94439W        W55750  31.147  10.293  10.045
94440W        W55751  14.659  44.430   1.772
94441W        W55752  16.281  43.923  13.344
94442W        W55753  21.156  17.083  13.323
94443W        W55754  22.606  44.836   2.700
94444W        W55755  44.406   5.314   0.250
94445W        W55756  17.291  43.275  11.975
94446W        W55757  33.071  35.021  12.066
94447W        W55758  33.381  34.391  14.018
94448W        W55759  18.646  36.376   2.809
94449W        W55760  11.262   2.753   2.869
94450W        W55761  37.072  27.065  10.574
94451W        W55762  12.619   4.945   0.334
94452W        W55763  39.340  24.716   0.860
94453W        W55764  15.697  10.819   2.876
94454W        W55765   5.404  22.246  13.419
94455W        W55766  17.735  25.618   5.638
94456W        W55767   0.811  44.806   4.228
94457W        W55768   4.228  31.032   3.359
94458W        W55769  38.951  14.111  13.470
94459W        W55770  22.712  26.497  13.052
94460W        W55771  27.046   4.763   2.892
94461W        W55772   2.290  10.237  14.496
94462W        W55773  17.717  41.329  10.484
94463W        W55774   1.903  39.849  14.504
94464W        W55775  27.603  13.732  14.282
94465W        W55776  33.611  15.769   5.186
94466W        W55777  32.059  17.154  13.881
94467W        W55778  38.364  19.147  12.866
94468W        W55779  11.672   9.783   2.263
94469W        W55780   6.318  26.122   2.880
94470W        W55781  13.309  33.606   1.782
94471W        W55782  39.826  24.154   3.231
94472W        W55783  42.907  32.567   4.610
94473W        W55784  26.974  14.645  12.367
94474W        W55785   2.318  34.022  14.462
94475W        W55786  11.250  17.674  13.902
94476W        W55787   1.256  20.200  14.807
94477W        W55788  32.628  16.779   0.290
94478W        W55789  17.071  22.723  11.951
94479W        W55790  33.406  10.709   1.758
94480W        W55791  28.080   1.277  10.467
94481W        W55792  38.439  33.490  14.886
94482W        W55793   6.404  14.625   2.286
94483W        W55794  24.142   3.259   1.394
94484W        W55795   8.787   7.278   0.306
94485W        W55796  25.477  26.081   2.323
94486W        W55797   1.853   6.804   3.777
94487W        W55798  41.890  18.251   0.312
94488W        W55799  25.022   1.286   4.614
94489W        W55800  35.411  24.039   2.346
94490W        W55801  21.735  30.925  12.004
94491W        W55802  44.826  26.028  10.528
94492W        W55803  14.261  19.564  13.792
94493W        W55804  21.639  24.531  12.511
94494W        W55805  30.033   5.705  13.335
94495W        W55806  35.488  16.689   1.446
94496W        W55807  43.406  41.012  14.447
94497W        W55808  31.534   2.909  10.458
94498W        W55809  23.509  32.417   3.207
94499W        W55810  34.914   1.736   4.181
94500W        W55811  21.570   7.260  14.296
94501W        W55812  29.548  28.058   3.357
94502W        W55813  44.351  25.678  14.275
94503W        W55814  21.123  32.564   2.862
94504W        W55815   6.849  22.034  10.429
94505W        W55816  44.288  38.055   0.759
94506W        W55817  23.083  34.090  11.926
94507W        W55818  27.689  42.833  14.859
94508W        W55819   7.774   7.849   1.341
94509W        W55820  10.837  18.746   4.769
94510W        W55821   3.264  41.519  14.412
94511W        W55822  41.943  30.634  13.391
94512W        W55823  13.313  27.949   5.237
94513W        W55824  36.364  26.163   2.889
94514W        W55825  31.620  39.467  10.998
94515W        W55826  11.339  26.626  12.566
94516W        W55827  10.381  37.027   3.677
94517W        W55828   5.346  17.613  11.441
94518W        W55829  41.475  37.496  14.347
94519W        W55830  43.862  31.978  10.974
94520W        W55831  25.994  29.429   2.404
94521W        W55832  31.977  23.493   0.276
94522W        W55833   2.423  24.497  11.122
94523W        W55834  18.563  20.525   3.327
94524W        W55835  38.412  40.000   3.752
94525W        W55836   9.644  19.583   1.399
94526W        W55837  30.020  32.073  13.034
94527W        W55838  21.116  33.524   4.114
94528W        W55839  23.185  14.748  12.037
94529W        W55840  10.192  42.853  10.956
94530W        W55841  11.352  21.751   3.256
94531W        W55842  38.473  36.064   3.838
94532W        W55843  31.580   7.911   2.759
94533W        W55844  38.855   1.337   1.899
94534W        W55845  24.992  10.376   5.185
94535W        W55846   4.286  34.460   2.733
94536W        W55847  10.354  34.501   2.226
94537W        W55848  10.329   0.354   2.302
94538W        W55849  20.700  12.659   4.247
94539W        W55850  33.415  44.483   3.188
94540W        W55851  39.529  25.506  10.594
94541W        W55852   5.929  25.597  14.984
94542W        W55853  37.981   9.752   3.335
94543W        W55854  32.030   6.734   1.773
94544W        W55855  29.946   9.246   1.445
94545W        W55856   4.335  38.520   4.299
94546W        W55857  23.131  27.947   0.402
94547W        W55858   6.302  10.281   1.724
94548W        W55859  37.975   5.846  11.436
94549W        W55860  27.981  18.217   1.325
94550W        W55861  27.606  10.868  13.312
94551W        W55862  11.135   0.864  11.990
94552W        W55863  44.292  30.111  11.493
94553W        W55864  30.657  33.455  12.050
94554W        W55865  36.905  24.183   3.790
94555W        W55866   1.736   8.305   1.921
94556W        W55867  21.653  21.055   3.157
94557W        W55868  40.395  12.612   3.843
94558W        W55869  33.901  33.058  12.507
94559W        W55870  30.485  30.991   0.244
94560W        W55871  24.715   6.269  14.372
94561W        W55872   7.230   4.740   2.303
94562W        W55873  15.321  15.778   4.666
94563W        W55874  40.976  23.729  13.374
94564W        W55875  41.294  28.050   0.797
94565W        W55876   3.926  38.487   1.921
94566W        W55877  38.058   4.795  13.472
94567W        W55878  10.304  25.649  11.563
94568W        W55879   3.343  37.928  13.996
94569W        W55880  25.129  28.677   2.837
94570W        W55881  10.353  31.141   3.173
94571W        W55882  35.577  22.738   0.922
94572W        W55883  17.094  18.262  14.961
94573W        W55884  26.184  16.812  10.594
94574W        W55885  18.577   9.154  13.982
94575W        W55886  10.245   4.863  12.513
94576W        W55887   2.328  37.554   3.255
94577W        W55888   6.839  17.159   2.352
94578W        W55889  34.064   2.758   4.166
94579W        W55890   9.384  16.249   0.255
94580W        W55891  16.576  36.934   4.322
94581W        W55892  23.169   7.789   3.861
94582W        W55893  19.251  28.522   3.738
94583W        W55894  32.394   9.283   1.712
94584W        W55895  36.040  24.494   2.388
94585W        W55896  37.938  15.673  12.912
94586W        W55897  13.646  44.786  11.010
94587W        W55898  21.201   5.398  12.935
94588W        W55899   8.785   5.765   2.741
94589W        W55900  15.250  32.546   2.750
94590W        W55901  19.622   2.857   2.277
94591W        W55902  13.737  40.511   0.746
94592W        W55903  42.414   3.339   3.794
94593W        W55904  42.960  26.031  11.426
94594W        W55905  32.452  22.661  12.852
94595W        W55906  28.945  29.487   3.761
94596W        W55907  15.193  33.558  12.573
94597W        W55908  43.446   0.793   0.812
94598W        W55909  41.431  37.004  12.038
94599W        W55910  12.729  38.513  11.123
94600W        W55911  40.830  37.898   2.783
94601W        W55912   7.685  44.887  14.929
94602W        W55913  41.885  39.849   3.371
94603W        W55914  22.097  43.467   4.164
94604W        W55915  17.171  27.163   0.273
94605W        W55916  15.136  35.058  10.908
94606W        W55917  13.657   5.239  11.562
94607W        W55918  14.108  29.493   1.722
94608W        W55919  42.331  14.603  13.867
94609W        W55920   3.851  39.016   3.251
94610W        W55921   1.734  22.187  11.969
94611W        W55922  15.795   8.170  13.392
94612W        W55923  43.335  36.399  12.492
94613W        W55924   5.239  36.904   4.755
94614W        W55925  21.561   7.853   2.299
94615W        W55926  41.317  30.017  10.946
94616W        W55927  16.238  17.139   3.726
94617W        W55928  21.522  27.683  10.503
94618W        W55929  27.458  21.017   1.300
94619W        W55930  18.196  21.044  11.958
94620W        W55931  38.937  11.185  12.477
94621W        W55932  13.744  17.559  12.838
94622W        W55933   8.678   7.191  13.457
94623W        W55934  25.475   6.190   0.446
94624W        W55935   9.763  10.726  10.521
94625W        W55936  44.974   3.745   2.691
94626W        W55937   2.935  16.599  12.444
94627W        W55938   3.351  29.551   4.192
94628W        W55939  32.406  29.643  13.415
94629W        W55940  35.078   9.797   4.782
94630W        W55941  28.614  10.164  11.892
94631W        W55942  11.858  37.431  12.074
94632W        W55943  22.689   6.698  10.533
94633W        W55944  19.238   5.741   2.832
94634W        W55945  20.133  42.343  12.950
94635W        W55946  27.677  11.164  11.443
94636W        W55947  12.826  14.148   3.844
94637W        W55948  27.949  35.895  13.405
94638W        W55949  12.118  35.061  13.885
94639W        W55950   1.299  25.034  14.969
94640W        W55951  10.651   3.840  14.345
94641W        W55952  44.872  12.288   3.335
94642W        W55953  26.978  19.575   2.836
94643W        W55954   5.910   8.707   1.851
94644W        W55955  10.281  27.087   2.381
94645W        W55956  36.516  32.483   3.803
94646W        W55957  33.021  26.076  12.920
94647W        W55958   2.314  19.088  13.365
94648W        W55959  20.048   2.350   2.724
94649W        W55960   5.217  17.189   0.243
94650W        W55961  21.601   3.336   4.783
94651W        W55962  12.149  19.598   1.866
94652W        W55963  21.191   1.380   4.775
94653W        W55964  29.004  40.889   2.214
94654W        W55965  43.405  36.058  11.045
94655W        W55966  20.549  25.617  14.455
94656W        W55967  40.952  21.212   0.742
94657W        W55968   5.327  36.424   2.804
94658W        W55969  15.290  15.808  14.304
94659W        W55970   2.732  36.378   1.741
94660W        W55971  30.549  22.225  14.907
94661W        W55972   8.791  40.354  13.954
94662W        W55973  33.086  23.043  12.917
94663W        W55974  14.744  24.164   0.324
94664W        W55975  31.148   2.424  14.290
94665W        W55976  29.083   1.765   0.784
94666W        W55977  43.457   1.973  14.416
94667W        W55978  30.642  44.893  14.007
94668W        W55979  27.113   0.941   9.936
94669W        W55980   3.865   1.791   3.630
94670W        W55981  12.168   5.368   2.222
94671W        W55982  10.160   3.228   3.747
94672W        W55983  16.089  13.158  13.407
94673W        W55984  25.686   0.956  10.060
94674W        W55985  22.161  41.366   0.781
94675W        W55986  30.135   9.748  13.318
94676W        W55987  22.613  40.004  13.840
94677W        W55988  32.066  13.702  10.422
94678W        W55989  21.565  17.580  11.498
94679W        W55990  30.500  21.255  14.382
94680W        W55991  20.151  39.370  12.942
94681W        W55992  40.400  17.102   1.425
94682W        W55993  40.990  41.863  14.330
94683W        W55994   8.676   9.814  10.519
94684W        W55995  26.007  29.491   1.700
94685W        W55996   7.391  38.906   1.833
94686W        W55997  27.494  38.432  12.952
94687W        W55998  21.084  25.192  10.619
94688W        W55999  27.102  15.164   2.752
94689W        W56000  22.069   1.258  12.844
94690W        W56001  38.483  10.810   4.324
94691W        W56002   6.292  34.939  12.525
94692W        W56003   3.447   8.378  11.437
94693W        W56004   9.857   9.357  14.282
94694W        W56005  28.623   7.894   4.780
94695W        W56006   1.342  31.106   4.318
94696W        W56007   9.212  16.184   3.765
94697W        W56008  26.058   4.372  14.985
94698W        W56009  35.445   0.290  14.760
94699W        W56010  21.603   7.263   1.809
94700W        W56011  12.815  20.151  11.382
94701W        W56012  32.437   6.343   4.649
94702W        W56013  19.066  23.569  11.927
94703W        W56014  34.385  14.120  11.517
94704W        W56015  17.066  32.980  14.951
94705W        W56016  42.878  19.604   4.256
94706W        W56017  30.514  31.496  10.482
94707W        W56018   9.205  21.581  11.431
94708W        W56019  30.491  32.067  14.952
94709W        W56020   6.748   8.709   2.274
94710W        W56021  36.399  32.073  11.053
94711W        W56022   6.742   6.333  14.999
94712W        W56023  40.035  35.952   3.838
94713W        W56024   6.813  40.944   0.395
94714W        W56025  37.009  31.643   1.746
94715W        W56026  36.573  37.041  10.897
94716W        W56027  32.112  37.559   5.250
94717W        W56028  14.699  14.182  13.046
94718W        W56029  44.277  33.615  11.003
94719W        W56030  25.058  26.487   2.860
94720W        W56031  30.026  20.534  13.444
94721W        W56032  43.007  26.954   4.680
94722W        W56033  36.872  30.652   1.263
94723W        W56034   2.750  37.973  11.868
94724W        W56035  41.960  44.403  12.556
94725W        W56036   9.333  37.976  12.384
94726W        W56037  12.349   2.439   4.143
94727W        W56038   0.392  21.149  14.992
94728W        W56039  12.143  17.772  12.550
94729W        W56040  25.037  34.864   5.102
94730W        W56041  19.598  18.199  10.034
94731W        W56042  22.176  18.704   0.386
94732W        W56043  21.673  39.891  14.768
94733W        W56044  14.169  41.877  14.453
94734W        W56045  14.819   5.756   4.293
94735W        W56046  32.117   1.798   0.339
94736W        W56047   1.260  14.327   3.369
94737W        W56048   9.878  13.190   2.719
94738W        W56049   2.235  35.369   3.680
94739W        W56050  42.385   8.379   4.313
94740W        W56051  16.750  21.235   3.349
94741W        W56052  25.607  33.421   9.938
94742W        W56053  35.903   6.832   3.369
94743W        W56054   4.231  34.905  14.934
94744W        W56055   6.809  14.769   5.698
94745W        W56056  10.358   4.311   3.792
94746W        W56057   6.339  27.080  14.973
94747W        W56058  41.385  21.734   5.160
94748W        W56059  44.918  34.872  14.985
94749W        W56060  17.641  36.974   2.671
94750W        W56061  34.051  39.965  11.525
94751W        W56062  43.346   8.308  10.640
94752W        W56063   4.741   2.298  14.435
94753W        W56064  26.491  22.139   4.658
94754W        W56065  41.912  21.702   3.660
94755W        W56066  13.297  23.164   1.283
94756W        W56067  44.367   1.298   0.961
94757W        W56068  28.084  14.776   0.460
94758W        W56069  34.485  16.130   2.220
94759W        W56070  38.889  32.047  10.412
94760W        W56071   8.275  12.140   3.821
94761W        W56072  27.033  36.016  11.402
94762W        W56073   3.904  41.424   1.874
94763W        W56074   8.333  44.761   1.784
94764W        W56075  22.156  27.605  13.510
94765W        W56076  10.683  34.519   2.873
94766W        W56077  18.687  34.549  13.384
94767W        W56078   8.342  13.766  12.834
94768W        W56079  18.698  13.117  10.411
94769W        W56080   0.445   6.688  13.455
94770W        W56081   0.342  23.730  10.421
94771W        W56082  41.308  44.311   0.764
94772W        W56083  16.776   6.835   3.181
94773W        W56084   4.328  13.319   1.784
94774W        W56085   3.744  24.511   0.249
94775W        W56086   8.197  20.244   0.366
94776W        W56087   6.723  38.011  14.465
94777W        W56088   4.699   7.307   4.659
94778W        W56089   8.191  10.671   4.665
94779W        W56090  30.609  39.967  14.276
94780W        W56091   2.272  40.873   4.677
94781W        W56092  40.838   4.839   2.731
94782W        W56093  11.293  34.040  13.409
94783W        W56094   1.336  33.014   2.310
94784W        W56095  35.540  12.204   2.808
94785W        W56096   5.392   5.370  12.374
94786W        W56097  25.555  17.564  12.837
94787W        W56098  41.494   6.227  12.090
94788W        W56099  41.376  32.428   2.239
94789W        W56100  31.079  44.370  10.004
94790W        W56101   3.425   0.258   1.365
94791W        W56102  33.979  19.543   2.896
94792W        W56103  44.380  41.993   1.439
94793W        W56104  23.649  40.960   4.701
94794W        W56105  40.348  29.520   1.294
94795W        W56106   3.447   9.759  10.102
94796W        W56107  37.034  25.081   0.325
94797W        W56108  25.642  42.950  13.983
94798W        W56109  34.530  37.550   1.757
94799W        W56110   8.185  13.332   1.277
94800W        W56111  11.762   1.841   3.753
94801W        W56112  41.930   6.766  14.332
94802W        W56113  30.501  31.080  11.865
94803W        W56114  16.730  22.590   3.148
94804W        W56115  17.565  17.769  13.826
94805W        W56116  10.315  40.317   0.328
94806W        W56117  20.262   8.872  13.513
94807W        W56118  25.528   4.818   1.356
94808W        W56119   7.239  20.045  13.873
94809W        W56120  37.008  20.036   3.709
94810W        W56121  30.657  22.142  11.004
94811W        W56122  21.624   6.880  11.963
94812W        W56123   4.842  30.068  11.584
94813W        W56124  43.959  10.713   3.755
94814W        W56125   2.896  43.809  12.416
94815W        W56126  13.179  17.259   3.275
94816W        W56127  21.740  10.738  11.123
94817W        W56128  41.407  25.994   1.701
94818W        W56129  17.093   4.781   0.939
94819W        W56130  23.494  11.661   3.803
94820W        W56131  44.981  12.304  11.455
94821W        W56132  16.185  13.838   3.636
94822W        W56133   8.691  39.860  13.871
94823W        W56134  12.775  37.043   1.786
94824W        W56135  42.992   3.237   3.658
94825W        W56136  34.013  31.119  11.603
94826W        W56137  25.057   9.316  14.997
94827W        W56138  20.171  32.889   2.806
94828W        W56139  12.622  40.813   0.831
94829W        W56140  41.394   3.955   3.364
94830W        W56141  24.547  26.621  10.409
94831W        W56142  39.556  24.540   4.328
94832W        W56143  38.860  26.534  13.373
94833W        W56144   8.656  20.635   1.895
94834W        W56145   3.443  24.224  13.432
94835W        W56146  41.370   0.861   3.276
94836W        W56147  41.796  21.558   4.602
94837W        W56148  22.503  33.121  14.298
94838W        W56149   1.816   2.416   2.193
94839W        W56150  39.832  11.782  12.421
94840W        W56151  32.117  39.042   4.139
94841W        W56152  29.593  19.601   4.279
94842W        W56153  13.740  35.886   0.411
94843W        W56154   3.865  10.658  14.910
94844W        W56155  40.539   4.222  10.437
94845W        W56156  14.178  10.662  14.899
94846W        W56157   8.786  28.968   4.336
94847W        W56158  18.158  32.071  14.922
94848W        W56159  15.138   3.800   2.356
94849W        W56160  13.188   9.306   0.822
94850W        W56161  22.061  31.033  12.438
94851W        W56162  33.928  15.291   3.165
94852W        W56163  29.620  31.434   3.376
94853W        W56164  43.458   3.722   3.692
94854W        W56165  26.580   1.464  11.976
94855W        W56166  31.471  26.565   1.336
94856W        W56167  13.326  43.956   3.657
94857W        W56168  40.360   2.467   4.826
94858W        W56169   9.206  29.642   4.772
94859W        W56170  24.158   4.304  10.595
94860W        W56171   5.708   8.265   1.834
94861W        W56172  15.240   3.237   1.919
94862W        W56173   4.444  10.692   3.253
94863W        W56174  44.757  16.579  11.034
94864W        W56175  19.083  14.160   1.297
94865W        W56176  17.646  35.561  10.529
94866W        W56177  42.511  18.547  10.606
94867W        W56178  27.576  28.674   4.671
94868W        W56179  27.008   5.762   2.260
94869W        W56180  21.165  25.130   3.867
94870W        W56181  43.461  10.209  13.863
94871W        W56182  34.962  27.618  10.634
94872W        W56183  36.085  35.537   3.329
94873W        W56184  19.639  18.695  12.506
94874W        W56185  18.776  26.479   4.749
94875W        W56186  29.918  31.625  11.988
94876W        W56187  21.747  22.688  11.999
94877W        W56188  44.958  25.016  14.970
94878W        W56189  17.652  18.715   1.284
94879W        W56190  26.574  16.580   0.306
94880W        W56191  33.091  21.104   0.730
94881W        W56192  40.347   3.835  14.275
94882W        W56193  11.859  13.605   0.936
94883W        W56194   4.908  11.240  12.855
94884W        W56195  36.044  42.811   2.335
94885W        W56196  22.226  17.190  14.953
94886W        W56197  17.174  36.451  12.933
94887W        W56198  28.932  13.334  10.617
94888W        W56199  41.864  38.476   2.866
94889W        W56200  19.080  28.068   1.794
94890W        W56201  10.815  25.060  14.316
94891W        W56202  40.311  10.756   1.261
94892W        W56203  36.451   1.745  13.892
94893W        W56204  21.629  43.421   2.358
94894W        W56205   5.791   9.275   4.182
94895W        W56206  43.484  29.960   0.253
94896W        W56207   9.209  15.804   1.702
94897W        W56208  44.778  16.595   2.385
94898W        W56209  28.160  26.460  10.601
94899W        W56210  15.328  10.775  14.802
94900W        W56211  33.907  23.204   3.168
94901W        W56212  27.675  25.090  14.300
94902W        W56213  39.420  17.306   2.257
94903W        W56214  36.481  13.330  13.540
94904W        W56215  21.253  19.716   2.321
94905W        W56216  29.921  20.602  12.880
94906W        W56217  40.034  24.598  12.906
94907W        W56218  19.144  40.797   4.808
94908W        W56219  37.426  26.132  11.405
94909W        W56220  19.103  26.458  14.375
94910W        W56221   7.694   5.838   4.296
94911W        W56222  13.321  12.624  12.834
94912W        W56223  33.400  12.183   1.918
94913W        W56224   5.822  31.452  13.901
94914W        W56225  32.943  16.639  14.832
94915W        W56226  22.065  20.190   0.438
94916W        W56227  35.537  11.128  13.061
94917W        W56228  19.043  29.639   3.814
94918W        W56229  37.567  35.090   5.148
94919W        W56230   8.847   3.846  10.567
94920W        W56231  35.987   4.905  14.341
94921W        W56232   0.909  29.036   1.722
94922W        W56233  24.704  42.821   0.729
94923W        W56234  26.606   7.240   1.243
94924W        W56235  14.693  26.606  11.043
94925W        W56236  12.636  22.162   0.464
94926W        W56237   5.872  12.359   2.720
94927W        W56238   3.242  35.063  14.763
94928W        W56239  37.982  24.630  12.577
94929W        W56240  34.375  22.528   1.862
94930W        W56241  21.632  19.772   1.784
94931W        W56242  39.969  29.020  12.865
94932W        W56243  31.036  15.186   4.813
94933W        W56244  28.016  32.036   9.932
94934W        W56245   0.878   5.799  13.911
94935W        W56246   7.229  13.648   3.783
94936W        W56247   2.797  32.527  13.823
94937W        W56248  27.467  18.233   1.706
94938W        W56249  13.311  21.219  14.996
94939W        W56250  21.557   2.275   2.336
94940W        W56251   7.864  14.703  14.279
94941W        W56252  40.984   0.265  14.815
94942W        W56253  25.710   8.372   3.348
94943W        W56254   7.752  36.930   0.824
94944W        W56255  27.121  33.624  11.393
94945W        W56256  22.540   4.918  14.917
94946W        W56257  30.568  23.561  11.519
94947W        W56258   0.969  25.982   4.671
94948W        W56259  38.380   5.201  11.390
94949W        W56260  35.867  35.954   3.634
94950W        W56261  36.034  29.446   2.819
94951W        W56262  33.942  14.644   0.888
94952W        W56263  23.581  28.035   9.952
94953W        W56264  18.174  37.366  12.388
94954W        W56265  32.017  10.367  11.920
94955W        W56266  18.147  33.451  11.491
94956W        W56267  21.625  37.369   2.192
94957W        W56268  21.588   2.459  12.836
94958W        W56269   7.303  24.173   4.784
94959W        W56270  14.131  17.256  11.459
94960W        W56271  29.452  30.101   4.320
94961W        W56272   2.337  39.824   2.680
94962W        W56273  37.483  40.970  12.019
94963W        W56274   8.831  16.635   3.648
94964W        W56275  37.994  27.505  13.491
94965W        W56276  33.427  32.886   1.795
94966W        W56277   0.879  20.716   2.357
94967W        W56278  29.614  40.909   2.304
94968W        W56279  19.135  34.033   2.852
94969W        W56280   8.389   1.869  11.028
94970W        W56281  41.949  11.652   2.195
94971W        W56282  28.003   1.880   3.178
94972W        W56283  22.535  39.349  14.836
94973W        W56284  27.536  42.987   2.880
94974W        W56285  18.652   3.281  11.048
94975W        W56286  33.010  30.093   3.718
94976W        W56287  16.136  24.054  14.780
94977W        W56288  19.736   8.292   0.772
94978W        W56289  34.866   7.353  10.062
94979W        W56290  35.093  38.021  14.415
94980W        W56291  13.806   0.751  13.372
94981W        W56292  35.576  21.077   0.943
94982W        W56293   8.338  31.991  11.557
94983W        W56294  28.130  18.145   3.378
94984W        W56295  41.793  16.649   1.221
94985W        W56296  35.983  41.325   1.827
94986W        W56297  30.139   2.432  10.455
94987W        W56298  13.687  12.680   0.321
94988W        W56299  27.512  43.946  13.010
94989W        W56300   3.882  11.673   4.675
94990W        W56301  16.198  15.711  10.010
94991W        W56302  32.983  39.978   0.478
94992W        W56303  21.051   0.426  11.070
94993W        W56304  10.161  19.538   2.259
94994W        W56305  30.518  23.519   4.233
94995W        W56306  41.791  15.264  10.915
94996W        W56307  36.359  27.980   4.725
94997W        W56308  21.226  34.570   1.839
94998W        W56309  38.343  40.459   3.637
94999W        W56310  18.755  40.875   4.654
95000W        W56311   1.957  40.468  11.391
95001W        W56312  25.647   6.234   4.776
95002W        W56313  20.705  44.852   3.213
95003W        W56314   4.897  16.667  12.079
95004W        W56315  20.570   6.858   1.783
95005W        W56316  12.796  32.610   2.715
95006W        W56317  23.226   2.785   3.867
95007W        W56318  26.509  14.824  12.001
95008W        W56319  22.738  21.601   0.399
95009W        W56320  43.803  14.594   2.373
95010W        W56321  24.044  11.674   1.377
95011W        W56322  11.201   0.788  14.353
95012W        W56323  37.435  37.442  13.307
95013W        W56324  32.911  15.580   1.229
95014W        W56325   1.428  42.013   1.774
95015W        W56326  27.122  39.827  12.426
95016W        W56327  11.307  23.588   1.887
95017W        W56328  37.346   0.453   0.406
95018W        W56329  42.492  30.145  12.072
95019W        W56330   4.753  17.193  11.872
95020W        W56331  21.086  23.664  10.559
95021W        W56332  32.058  36.842   2.342
95022W        W56333  10.353  43.453  12.499
95023W        W56334  33.921  11.244   1.218
95024W        W56335  43.847  34.047  12.376
95025W        W56336  14.183  40.883  13.818
95026W        W56337  16.602  18.688   2.769
95027W        W56338  16.604  17.267   4.262
95028W        W56339  41.967  17.162   4.667
95029W        W56340   1.830   9.704  11.589
95030W        W56341   2.261  43.367  12.037
95031W        W56342  24.678  23.217  12.436
95032W        W56343  30.999   6.416   1.816
95033W        W56344   0.941  35.531  13.824
95034W        W56345  34.100  25.702  11.043
95035W        W56346  44.426  37.370  12.953
95036W        W56347  22.181  15.088  11.889
95037W        W56348  16.669  25.711  10.063
95038W        W56349  24.657  22.638  11.025
95039W        W56350  24.989   5.384   9.966
95040W        W56351  12.738   5.318   2.268
95041W        W56352  26.626   4.307   0.826
95042W        W56353  23.184  40.033   3.384
95043W        W56354  29.509   8.682  14.482
95044W        W56355  43.492  19.744   4.669
95045W        W56356  39.446  34.507  11.388
95046W        W56357  37.950   7.671   3.807
95047W        W56358  20.627   7.912   4.168
95048W        W56359  20.218  27.097   0.891
95049W        W56360   4.814  42.473   4.148
95050W        W56361  16.189  31.019   3.629
95051W        W56362  36.461  23.640   1.321
95052W        W56363  20.142   9.208  10.529
95053W        W56364  29.661  29.150  11.864
95054W        W56365   5.230  18.567  10.944
95055W        W56366  32.506  33.444  10.432
95056W        W56367  40.832  29.965  11.029
95057W        W56368  21.040  14.176  11.946
95058W        W56369  21.564  35.095   3.843
95059W        W56370   0.823  36.044  11.932
95060W        W56371  35.019   6.248  13.358
95061W        W56372  42.874  11.317   1.902
95062W        W56373   9.226  41.334  11.391
95063W        W56374  29.998  42.367  11.593
95064W        W56375  12.656  34.927   1.802
95065W        W56376  11.741  39.849   2.189
95066W        W56377  37.999   4.397  12.491
95067W        W56378  29.075  44.810  13.364
95068W        W56379   1.403   7.195   1.414
95069W        W56380   6.762  17.253  11.910
95070W        W56381  25.598  39.817   9.992
95071W        W56382   9.337   9.705   0.767
95072W        W56383  31.129  14.728   4.224
95073W        W56384  17.575  30.012   0.903
95074W        W56385  28.583   7.320   0.353
95075W        W56386  22.561  37.934  11.980
95076W        W56387  15.146  16.592  11.053
95077W        W56388  25.472  39.879   3.647
95078W        W56389   1.863  18.262   0.258
95079W        W56390   5.787  44.850   1.307
95080W        W56391  29.665   2.915  12.080
95081W        W56392  22.596  13.619   3.196
95082W        W56393   2.901   7.902  14.341
95083W        W56394  39.822   8.802   1.433
95084W        W56395  11.789  21.103   1.228
95085W        W56396   5.231  34.393   1.696
95086W        W56397  19.138  44.851   3.754
95087W        W56398  42.030  39.502  14.296
95088W        W56399  14.806  22.522   4.137
95089W        W56400  31.449  42.308   2.808
95090W        W56401   2.868  27.616   1.350
95091W        W56402  21.611  13.181   1.911
95092W        W56403   1.813  39.986   1.259
95093W        W56404  39.548  13.345   4.221
95094W        W56405  18.229   0.759   2.728
95095W        W56406   0.786  36.472   4.155
95096W        W56407  29.662  28.958  12.523
95097W        W56408   9.383  32.917  14.785
95098W        W56409  32.908   9.762   0.792
95099W        W56410  21.675  27.103   1.279
95100W        W56411  36.053  31.119  14.318
95101W        W56412  43.401   7.785  14.823
95102W        W56413  35.882  13.842   2.745
95103W        W56414   3.719  40.334  11.106
95104W        W56415   2.275   4.917   2.286
95105W        W56416  27.141  31.506  11.067
95106W        W56417  16.728  27.978   3.794
95107W        W56418  18.120  16.718  11.909
95108W        W56419  29.520  31.908   1.399
95109W        W56420  39.972  31.104   0.864
95110W        W56421  40.960   3.361   1.396
95111W        W56422  14.820  16.210   2.196
95112W        W56423   9.644   7.816   2.815
95113W        W56424   2.954  16.622  11.075
95114W        W56425  27.173  28.033   3.699
95115W        W56426  15.637  30.008  12.926
95116W        W56427  20.742  31.404   5.205
95117W        W56428  24.711  10.774  14.011
95118W        W56429  40.929  16.316  14.435
95119W        W56430  28.081   6.403   3.856
95120W        W56431  15.692  31.911   3.260
95121W        W56432   8.345   9.371  13.510
95122W        W56433  11.710  44.932   1.224
95123W        W56434  36.018  24.708   1.321
95124W        W56435  42.936  27.669   3.235
95125W        W56436  15.134   3.952   4.300
95126W        W56437  33.522  13.600   4.663
95127W        W56438  35.391   2.957   4.334
95128W        W56439   2.394  22.697  12.564
95129W        W56440  27.947   5.897   0.915
95130W        W56441  32.409   5.919   2.820
95131W        W56442  34.923  14.188   3.316
95132W        W56443   7.257  35.569   2.388
95133W        W56444  33.612  44.808   0.413
95134W        W56445  10.829  42.484  10.948
95135W        W56446  35.551  12.730   1.707
95136W        W56447  21.133  25.101   4.226
95137W        W56448  27.455  19.558  11.946
95138W        W56449  29.458  23.632   3.353
95139W        W56450  19.205   0.271  12.980
95140W        W56451  32.924  31.626  10.928
95141W        W56452  36.915  13.318   2.827
95142W        W56453  43.876  26.066   3.688
95143W        W56454  25.073  30.535   0.374
95144W        W56455  44.833  19.090   0.960
95145W        W56456  17.174   9.781  10.902
95146W        W56457   8.677   6.294  10.967
95147W        W56458  34.381  25.682  10.446
95148W        W56459  23.149   0.876   2.217
95149W        W56460  19.047  37.556  11.552
95150W        W56461  33.576  27.473  13.432
95151W        W56462  42.015   7.270   2.892
95152W        W56463  38.562   6.321  12.969
95153W        W56464   1.874  29.482  11.462
95154W        W56465  31.581  18.224   0.412
95155W        W56466  31.923  36.506  14.339
95156W        W56467   1.926  21.198  11.494
95157W        W56468  42.519  41.937  14.327
95158W        W56469  20.033  20.678   2.417
95159W        W56470   7.783  12.739   1.403
95160W        W56471   9.778   3.287   4.782
95161W        W56472  13.329  31.912   2.356
95162W        W56473  21.149   4.806  14.339
95163W        W56474   5.704  32.058  12.921
95164W        W56475  15.158  12.849  12.971
95165W        W56476   0.915  22.109   2.871
95166W        W56477   5.747  15.116   5.600
95167W        W56478  21.543  26.577   0.930
95168W        W56479  37.857  23.995   1.764
95169W        W56480  12.132  36.888   4.703
95170W        W56481  24.550  14.595  12.472
95171W        W56482  17.772  32.626  13.848
95172W        W56483   3.308  29.145  14.404
95173W        W56484  15.144  28.537  14.428
95174W        W56485   0.933  11.713  13.061
95175W        W56486   9.306  30.928  14.438
95176W        W56487   9.310  11.255  10.972
95177W        W56488  25.700  28.608  14.820
95178W        W56489  17.596  34.368   1.830
95179W        W56490  44.945   1.856  12.461
95180W        W56491  34.974  41.507  11.023
95181W        W56492  14.281  39.469  13.860
95182W        W56493  13.229  30.568   3.837
95183W        W56494  29.996  21.647  13.422
95184W        W56495   8.210  42.981   1.251
95185W        W56496   6.353   4.778  12.458
95186W        W56497  40.523   7.234  12.447
95187W        W56498  42.935  12.748  11.087
95188W        W56499  21.176  12.829   2.869
95189W        W56500  39.816  28.507   0.738
95190W        W56501   7.321  28.038  12.576
95191W        W56502  37.975  34.589   0.313
95192W        W56503  25.552  15.724   4.166
95193W        W56504  31.642  20.725   0.846
95194W        W56505  29.957  18.699  14.837
95195W        W56506  32.962  15.228   2.377
95196W        W56507  14.645  26.635  14.440
95197W        W56508  12.339   9.674   1.437
95198W        W56509  16.114  36.449   0.914
95199W        W56510  20.057   0.491   3.799
95200W        W56511  36.040  41.011  13.793
95201W        W56512  35.477   5.705   3.378
95202W        W56513  32.897  35.029   1.866
95203W        W56514  35.860   0.470  12.389
95204W        W56515  44.867  15.326  13.426
95205W        W56516  23.509   7.290  11.603
95206W        W56517  14.134  39.932   1.717
95207W        W56518  27.672  30.437  12.066
95208W        W56519   0.481  34.887  12.462
95209W        W56520  32.893   5.243  12.451
95210W        W56521  30.418  10.825  10.542
95211W        W56522  23.004  35.379   1.240
95212W        W56523   6.259   3.450   4.627
95213W        W56524   3.797  37.894   1.782
95214W        W56525  42.403  37.357  14.303
95215W        W56526  19.727  34.989  12.960
95216W        W56527  12.834   9.257   0.770
95217W        W56528  35.899  18.264  11.126
95218W        W56529  14.329  16.229   9.964
95219W        W56530  33.014   6.921  10.949
95220W        W56531  24.579  26.112  12.047
95221W        W56532   5.748  20.745   0.789
95222W        W56533  32.962   4.844   1.358
95223W        W56534   0.897  44.956   1.255
95224W        W56535  38.552   8.658  12.544
95225W        W56536  22.082   5.751  13.046
95226W        W56537  36.512  33.091  14.408
95227W        W56538  14.637   6.298   2.309
95228W        W56539  15.305   1.867  10.077
95229W        W56540   3.932  36.351  13.930
95230W        W56541  21.096  18.788   5.265
95231W        W56542  26.114  30.594   3.194
95232W        W56543  25.532  29.429  14.978
95233W        W56544  42.890   4.293   0.827
95234W        W56545  30.942  22.996  13.907
95235W        W56546  42.395  41.865  10.440
95236W        W56547  43.411   5.432  12.462
95237W        W56548  14.661  42.339   3.184
95238W        W56549   3.388  44.413  13.930
95239W        W56550  22.715  28.120   2.861
95240W        W56551  30.107  42.367   2.295
95241W        W56552   8.690  24.624  12.832
95242W        W56553  16.568  22.251  12.373
95243W        W56554  16.138   5.924   4.632
95244W        W56555  37.362  33.503  12.982
95245W        W56556  10.293   4.386   4.140
95246W        W56557  34.952  12.825  14.773
95247W        W56558  15.601  44.433   3.376
95248W        W56559   7.215   9.723  14.419
95249W        W56560  43.909  21.251  14.331
95250W        W56561  43.008  41.445   1.894
95251W        W56562  17.238  32.932   1.311
95252W        W56563  24.529  31.971   5.732
95253W        W56564  10.870   5.419  10.518
95254W        W56565   6.761  15.615  11.468
95255W        W56566  32.927   5.304  11.018
95256W        W56567  20.212  35.510  12.430
95257W        W56568  15.271  23.133   2.694
95258W        W56569  23.057  30.136  12.519
95259W        W56570  14.142   9.378  10.522
95260W        W56571   1.316  11.287   4.829
95261W        W56572  42.893  32.576   2.715
95262W        W56573  14.633   1.766   0.825
95263W        W56574  21.565   6.779   2.376
95264W        W56575   3.782  38.004   4.301
95265W        W56576  31.127  25.533   3.298
95266W        W56577  43.446  16.617   0.746
95267W        W56578   6.852  23.120  12.432
95268W        W56579  40.889   2.910   4.743
95269W        W56580  41.904  42.955  13.519
95270W        W56581  43.911  16.111  11.466
95271W        W56582  20.090  43.380  14.021
95272W        W56583  34.952  27.010  11.425
95273W        W56584  34.491  28.674  11.071
95274W        W56585  11.315  12.819   0.322
95275W        W56586  43.440  30.999  12.369
95276W        W56587  39.544  34.505  12.458
95277W        W56588   4.700  32.573  14.287
95278W        W56589  21.604   1.768   1.925
95279W        W56590  38.980  24.098   1.924
95280W        W56591  11.214   2.764  13.008
95281W        W56592  26.007  19.283   0.268
95282W        W56593  14.790  22.600  12.876
95283W        W56594  43.337  41.412   3.840
95284W        W56595   8.719  16.210  11.388
95285W        W56596   9.314  44.982   1.930
95286W        W56597  28.112  20.106  11.489
95287W        W56598  16.615  34.515   3.808
95288W        W56599  11.690  28.663  11.607
95289W        W56600  33.427  32.477   1.224
95290W        W56601  40.519   0.924   2.301
95291W        W56602  24.093  20.558  12.046
95292W        W56603  43.983  41.899  10.553
95293W        W56604  14.094  32.117  11.891
95294W        W56605  40.341  29.930   1.398
95295W        W56606  10.289  39.902  12.478
95296W        W56607  10.255  19.193  13.812
95297W        W56608  35.020  41.297  12.005
95298W        W56609  36.049  27.574  10.502
95299W        W56610  25.077  39.460   2.690
95300W        W56611  33.482  37.466   0.351
95301W        W56612  38.429   8.858  12.910
95302W        W56613  28.107   0.975   4.207
95303W        W56614  21.628  36.352  12.962
95304W        W56615  17.781   7.298   0.280
95305W        W56616   9.700  41.377   1.825
95306W        W56617  20.060   4.218  11.049
95307W        W56618  19.646  12.741  14.021
95308W        W56619  17.682  42.872  13.028
95309W        W56620  21.700  12.324   3.674
95310W        W56621  27.095  38.505  12.827
95311W        W56622  35.359  30.460   3.837
95312W        W56623  39.419  37.368   1.924
95313W        W56624  42.515   8.217  13.023
95314W        W56625   3.741  21.020   2.884
95315W        W56626  38.047  43.449   0.844
95316W        W56627  13.192   4.305   0.802
95317W        W56628   1.335  36.408  13.524
95318W        W56629  28.590   2.883   2.190
95319W        W56630  19.762   7.680  10.562
95320W        W56631  33.909  28.457  10.513
95321W        W56632   6.285  41.790   2.215
95322W        W56633  36.440  41.306   1.365
95323W        W56634  18.081  44.943  10.638
95324W        W56635  35.370  13.121  12.953
95325W        W56636  29.112  39.535   3.709
95326W        W56637  25.557  30.574  11.977
95327W        W56638  41.460   7.341  10.908
95328W        W56639  19.757  35.879   2.269
95329W        W56640  41.960  29.088  11.991
95330W        W56641   4.944  40.890  12.032
95331W        W56642  14.667  26.137  10.077
95332W        W56643  14.286  27.687   2.189
95333W        W56644  22.083  33.492   1.409
95334W        W56645  39.817  28.648   1.856
95335W        W56646  44.777   0.835  10.956
95336W        W56647  16.306  25.486   3.777
95337W        W56648   4.399  17.257  14.410
95338W        W56649  31.999  15.817   4.317
95339W        W56650   5.356  33.521   3.831
95340W        W56651  42.790  36.566   3.364
95341W        W56652  12.769  24.979  11.048
95342W        W56653   9.180  31.964   0.293
95343W        W56654  34.032  17.743  12.458
95344W        W56655  11.159   4.892   3.727
95345W        W56656   8.892  10.785   4.802
95346W        W56657  35.585   5.233  11.451
95347W        W56658   6.694  11.222  13.010
95348W        W56659  28.144  44.888  10.518
95349W        W56660  40.006  37.839   4.337
95350W        W56661  29.121  13.640   1.779
95351W        W56662  43.923  15.589  10.998
95352W        W56663  18.563  19.277   4.147
95353W        W56664  32.411  35.931   3.169
95354W        W56665  24.985  15.665   3.225
95355W        W56666   7.239  37.069   4.263
95356W        W56667  21.210  43.442  14.416
95357W        W56668  20.099  15.784  10.518
95358W        W56669  38.390  18.583  14.911
95359W        W56670   3.746  20.100  12.384
95360W        W56671  35.371  39.028   1.834
95361W        W56672  19.082  11.243   1.796
95362W        W56673   8.334   3.436   4.225
95363W        W56674  20.061  13.190   2.250
95364W        W56675  37.847   7.410   0.242
95365W        W56676  44.930   3.347  13.381
95366W        W56677  24.013  16.638   0.816
95367W        W56678  28.546  39.874  10.545
95368W        W56679  11.693  40.421  14.939
95369W        W56680  40.812  22.644  11.077
95370W        W56681  25.598  35.534  11.560
95371W        W56682  14.219  42.338  14.479
95372W        W56683  10.728  25.582   0.244
95373W        W56684   6.886  15.642   1.353
95374W        W56685  19.069  14.259  10.905
95375W        W56686  36.401  26.652   2.780
95376W        W56687  15.104  14.644   2.674
95377W        W56688   1.837   5.226   2.894
95378W        W56689   4.293  43.002   4.783
95379W        W56690  31.593  39.465   0.349
95380W        W56691  29.994  23.054   0.308
95381W        W56692  23.526  41.331   2.898
95382W        W56693   4.826   4.308  10.444
95383W        W56694   8.801  29.523   5.248
95384W        W56695  33.958  30.502  11.574
95385W        W56696  23.116  34.374  11.458
95386W        W56697   5.344  42.503  13.806
95387W        W56698  32.588  20.708   4.304
95388W        W56699   7.814  44.851   1.412
95389W        W56700  17.756  18.077  14.997
95390W        W56701  14.821  26.556   1.891
95391W        W56702  36.566  18.224  11.449
95392W        W56703   6.916   9.657  12.093
95393W        W56704   1.330   6.283   2.199
95394W        W56705   5.931   5.310  14.856
95395W        W56706  10.159   8.722  12.567
95396W        W56707  15.812  35.097  12.065
95397W        W56708  22.014  15.797  14.923
95398W        W56709  17.774  19.190   1.247
95399W        W56710  11.732  27.956   5.082
95400W        W56711  34.999  18.094  12.912
95401W        W56712  27.469  40.392   4.727
95402W        W56713  19.779  18.292   2.295
95403W        W56714  29.953  31.583  10.945
95404W        W56715  15.700  44.788  12.882
95405W        W56716  17.063  44.844   4.189
95406W        W56717   5.413  20.692  13.428
95407W        W56718  23.633  37.050  13.056
95408W        W56719  38.361  14.767   0.925
95409W        W56720  39.944  25.962   2.769
95410W        W56721  24.598  38.362  13.824
95411W        W56722  32.031  19.047  14.287
95412W        W56723  23.717  21.720  13.344
95413W        W56724  24.639   5.832  12.913
95414W        W56725  39.536  22.998   2.665
95415W        W56726  39.480  36.058  14.879
95416W        W56727  19.055  20.522   1.341
95417W        W56728  38.869   7.238  14.856
95418W        W56729  44.436  29.014   0.271
95419W        W56730  17.151  38.328  14.779
95420W        W56731  10.835  15.257   2.825
95421W        W56732  10.266  44.990   0.320
95422W        W56733  40.470  11.814   4.128
95423W        W56734   4.274  33.574   2.677
95424W        W56735  10.833   8.669   3.835
95425W        W56736  15.291  32.968   2.765
95426W        W56737  32.395  26.984  14.505
95427W        W56738  17.715  31.045  12.936
95428W        W56739  39.940  25.033  10.974
95429W        W56740   9.646  33.503  12.078
95430W        W56741  28.973  25.988   0.853
95431W        W56742  33.390  18.623  12.879
95432W        W56743  33.448  14.314  13.434
95433W        W56744   0.256  29.023  11.083
95434W        W56745  19.642  12.247  12.837
95435W        W56746  43.490  30.478   2.226
95436W        W56747  41.917  19.127  13.064
95437W        W56748   4.289  12.268   4.617
95438W        W56749  35.094  20.204   1.310
95439W        W56750  26.967  11.859   0.803
95440W        W56751  26.138  43.818  14.419
95441W        W56752   5.379  33.451   4.787
95442W        W56753  22.998  35.044  10.985
95443W        W56754  39.501   4.359   2.840
95444W        W56755  40.937   1.812   1.770
95445W        W56756  22.743  17.694  13.526
95446W        W56757  24.048  26.635   1.901
95447W        W56758  36.476  17.649   3.653
95448W        W56759  39.005  17.565  13.480
95449W        W56760  19.147  12.223   0.963
95450W        W56761  39.992   8.381   2.251
95451W        W56762  14.098  32.622  14.275
95452W        W56763  14.308  14.785  12.843
95453W        W56764  13.750  17.645   1.245
95454W        W56765  27.171  38.445   0.844
95455W        W56766  19.267  39.504   9.612
95456W        W56767  29.536  22.680   0.268
95457W        W56768  30.094  43.380   1.214
95458W        W56769   9.689  21.066   4.236
95459W        W56770   0.330  19.575  13.431
95460W        W56771  44.920  24.143  13.893
95461W        W56772  22.736  26.165  14.312
95462W        W56773  14.131  39.048  13.364
95463W        W56774  13.693  30.618  10.927
95464W        W56775  39.506   0.370   3.345
95465W        W56776  11.674  14.742  14.920
95466W        W56777   7.298  14.716   3.188
95467W        W56778  22.012  44.483  11.946
95468W        W56779   8.334  38.061  14.390
95469W        W56780  24.546  31.557   3.213
95470W        W56781  31.065  20.221   3.783
95471W        W56782  13.647  39.949  11.126
95472W        W56783  14.105  21.740  12.565
95473W        W56784  10.649   0.263  11.512
95474W        W56785   4.394  37.463  13.987
95475W        W56786  16.689  37.419   4.732
95476W        W56787  32.979  20.757  12.564
95477W        W56788  28.598  36.468   3.294
95478W        W56789   5.751  16.270  13.956
95479W        W56790  22.163   1.282   4.292
95480W        W56791  19.710  20.627   3.791
95481W        W56792  30.148  24.189  13.342
95482W        W56793  38.507  19.675   2.897
95483W        W56794  34.077  27.465   0.370
95484W        W56795   0.263  21.201   2.754
95485W        W56796  20.215  32.404  11.577
95486W        W56797  36.983  22.125  11.610
95487W        W56798   8.197  34.496   3.274
95488W        W56799  24.699   5.911   3.644
95489W        W56800  32.420  34.917  14.787
95490W        W56801  34.399  35.999  12.839
95491W        W56802  34.565   1.883   2.277
95492W        W56803  22.036  10.763   4.177
95493W        W56804  33.099  15.192  11.576
95494W        W56805  37.033  38.501  14.965
95495W        W56806  17.586  22.148  12.352
95496W        W56807  38.352   2.404  12.042
95497W        W56808  16.172  34.415   1.821
95498W        W56809  43.342  31.038   4.266
95499W        W56810  18.750  27.458  14.301
95500W        W56811   9.229  14.624  12.875
95501W        W56812  37.928  13.800  11.566
95502W        W56813   2.741   1.308  14.505
95503W        W56814   5.807  25.578  12.567
95504W        W56815  16.647   0.917  11.411
95505W        W56816  44.373  24.572  14.934
95506W        W56817  19.216   9.750   1.915
95507W        W56818  29.458   2.933   3.306
95508W        W56819   6.844  40.849   3.384
95509W        W56820  35.974   3.400   4.152
95510W        W56821  41.469  23.103   4.339
95511W        W56822   9.242  31.469   3.294
95512W        W56823  16.786  33.452  14.308
95513W        W56824  23.985  44.493   3.214
95514W        W56825  33.402  21.263  14.806
95515W        W56826  13.689  15.276  11.505
95516W        W56827  33.512  44.442  13.044
95517W        W56828  43.325  29.065  12.511
95518W        W56829  29.030   3.324  10.123
95519W        W56830  21.526   9.707  13.921
95520W        W56831  18.267  38.396   0.921
95521W        W56832  32.622  44.284   4.756
95522W        W56833   0.885   2.424   1.713
95523W        W56834  15.212  36.992  14.868
95524W        W56835  19.249  30.506   0.462
95525W        W56836  14.664  39.865  12.926
95526W        W56837  44.882  15.662   4.286
95527W        W56838  42.973  32.466  14.334
95528W        W56839  20.588   8.279   0.829
95529W        W56840   9.812  30.954   2.241
95530W        W56841  36.920  30.562   3.291
95531W        W56842   4.905  32.970   1.423
95532W        W56843  14.265  31.602  10.964
95533W        W56844   5.871  21.255  14.983
95534W        W56845  42.291  15.723  14.445
95535W        W56846   2.365  20.063   1.875
95536W        W56847   7.894  14.293  14.282
95537W        W56848  23.520   5.767   2.235
95538W        W56849  36.032   7.912   4.651
95539W        W56850  41.422  22.173  13.325
95540W        W56851  40.423  11.741   3.774
95541W        W56852  16.736  17.558  11.903
95542W        W56853  25.035  24.607  12.037
95543W        W56854  21.650  42.372  10.524
95544W        W56855   6.416  26.469  12.922
95545W        W56856   8.792   9.736  13.491
95546W        W56857  20.655  27.100  14.954
95547W        W56858  19.114  27.543   0.801
95548W        W56859  30.586  22.150   4.134
95549W        W56860  36.349  14.180  13.012
95550W        W56861  22.197  25.540  13.051
95551W        W56862  21.169  27.581   9.932
95552W        W56863  30.575   6.781   2.806
95553W        W56864  44.785  22.721  14.785
95554W        W56865  44.345  26.115   2.187
95555W        W56866  44.374  41.842   0.372
95556W        W56867  14.292   2.244   0.952
95557W        W56868  36.349  16.718  14.355
95558W        W56869   5.265  13.208   3.285
95559W        W56870  33.973  42.782  14.346
95560W        W56871   9.854  15.625  10.544
95561W        W56872   5.717   5.689  13.392
95562W        W56873  10.184  15.720  10.559
95563W        W56874  38.903  30.095   4.134
95564W        W56875  11.757   6.404  14.985
95565W        W56876  15.819  35.923   3.230
95566W        W56877  20.766  34.377  12.552
95567W        W56878  27.046  25.091  13.826
95568W        W56879  21.039  26.669  11.503
95569W        W56880  32.118  10.877  11.480
95570W        W56881  35.447   3.380   4.806
95571W        W56882  24.637  14.320  14.365
95572W        W56883  38.894  32.084   0.894
95573W        W56884  17.086   5.361   1.836
95574W        W56885  30.498  27.166   4.301
95575W        W56886  26.008  13.826  11.980
95576W        W56887  40.810  26.170  13.357
95577W        W56888  14.617  16.731  11.452
95578W        W56889  12.329   8.771  14.824
95579W        W56890  29.007  30.047  14.955
95580W        W56891  29.094  28.510  11.426
95581W        W56892   2.899  38.490   2.723
95582W        W56893  19.275   6.711   1.330
95583W        W56894   4.707   3.895   4.727
95584W        W56895  44.279  29.615   2.366
95585W        W56896  18.099  39.920  11.388
95586W        W56897  27.971   5.264   2.689
95587W        W56898  14.143  27.185   3.212
95588W        W56899  12.305  32.980   3.780
95589W        W56900  32.937  13.640  14.782
95590W        W56901  14.213   1.844  13.338
95591W        W56902  10.744  27.096  10.532
95592W        W56903  42.396  37.406   0.832
95593W        W56904  19.720  35.604  10.572
95594W        W56905   8.230   6.816   2.329
95595W        W56906  37.563  21.166   3.738
95596W        W56907  10.239  22.649   3.307
95597W        W56908  37.563  25.530   1.903
95598W        W56909   0.253  12.272  11.463
95599W        W56910  12.736   2.864  12.900
95600W        W56911  11.309  28.051   2.800
95601W        W56912  39.390  10.637  12.340
95602W        W56913   1.900  38.331   1.849
95603W        W56914   3.869  39.044  14.814
95604W        W56915  21.516  14.716   2.898
95605W        W56916  38.562  34.971  14.902
95606W        W56917  23.153  19.176  13.928
95607W        W56918   7.888  29.518   2.203
95608W        W56919  29.459  12.709  11.087
95609W        W56920   7.372  41.950  14.783
95610W        W56921   8.182  21.747   4.763
95611W        W56922  11.824  21.619  11.880
95612W        W56923  41.480  42.464   1.743
95613W        W56924  40.892  19.583  13.919
95614W        W56925   4.280  27.037  12.442
95615W        W56926  13.711  41.815  14.417
95616W        W56927   3.443  40.395  13.313
95617W        W56928  32.998   2.963   3.829
95618W        W56929   5.913  11.663   3.237
95619W        W56930   3.416   9.794  13.378
95620W        W56931  20.590  21.740  10.476
95621W        W56932  13.720  41.520   2.852
95622W        W56933   1.814   7.409  13.008
95623W        W56934  28.627  15.668   1.779
95624W        W56935  12.740  36.373  14.417
95625W        W56936   1.445  21.681  11.057
95626W        W56937  44.002  38.056   0.368
95627W        W56938  39.348   0.799  13.010
95628W        W56939  25.128  38.517  10.425
95629W        W56940   2.950  35.060  11.430
95630W        W56941  37.475  18.077   2.326
95631W        W56942   2.813  11.765   1.906
95632W        W56943  24.643  31.063  12.434
95633W        W56944  27.128  21.139  11.390
95634W        W56945  19.153  19.590  12.906
95635W        W56946  17.792  19.593  12.965
95636W        W56947   6.368  22.178  10.013
95637W        W56948   9.733  14.665  13.530
95638W        W56949  11.634  31.557   4.185
95639W        W56950  33.388  42.876  14.784
95640W        W56951   8.815   3.809   1.911
95641W        W56952  26.180  12.754  13.514
95642W        W56953   3.729   0.464   4.631
95643W        W56954  40.363  13.216   4.838
95644W        W56955   4.324  43.835  11.021
95645W        W56956  15.753  31.535  14.006
95646W        W56957  44.263   7.197  12.013
95647W        W56958  13.642   3.352   0.467
95648W        W56959  38.863  42.921   0.429
95649W        W56960  28.013  13.166   1.844
95650W        W56961  42.821  16.566   0.894
95651W        W56962  30.127  21.146  11.886
95652W        W56963  31.500  29.489  12.537
95653W        W56964  40.544  13.301   0.965
95654W        W56965   1.264  14.251  14.845
95655W        W56966  20.740  21.056   3.304
95656W        W56967  42.463  22.622  11.530
95657W        W56968  14.255   0.813  11.380
95658W        W56969  14.156  32.947   2.795
95659W        W56970  22.745  13.784  12.974
95660W        W56971   1.406  20.551   3.801
95661W        W56972  29.033  37.929  10.582
95662W        W56973  15.624  38.047   4.597
95663W        W56974  28.598  41.427   2.853
95664W        W56975  30.649  13.642   4.247
95665W        W56976   1.879  23.648  10.463
95666W        W56977  36.911  21.609  14.474
95667W        W56978   8.169   2.768   4.113
95668W        W56979  28.627  19.713  10.451
95669W        W56980   1.252  27.115   3.386
95670W        W56981   7.236  32.125   4.743
95671W        W56982  23.082  39.405  12.892
95672W        W56983  31.924  25.569   1.838
95673W        W56984  15.086   1.935   3.231
95674W        W56985  12.358  38.554  13.517
95675W        W56986  28.499   3.453   1.378
95676W        W56987  32.598  24.040  10.519
95677W        W56988   2.375   8.298  13.963
95678W        W56989  25.474  22.124  14.408
95679W        W56990  21.231  19.539  10.140
95680W        W56991  21.574  23.551  14.789
95681W        W56992  23.664  25.626   2.246
95682W        W56993  26.037  31.480  13.479
95683W        W56994  42.799  13.636  14.330
95684W        W56995   5.216  18.224   4.351
95685W        W56996   1.380  36.592  11.941
95686W        W56997   1.811  39.042  13.312
95687W        W56998  12.636  35.012   0.417
95688W        W56999  32.894  20.147   3.684
95689W        W57000  32.030  20.543   0.476
95690W        W57001  44.355  40.370  12.870
95691W        W57002  39.862  29.054  13.444
95692W        W57003   5.755   2.251  12.074
95693W        W57004  37.882  39.446  14.499
95694W        W57005  32.632   1.462  12.472
95695W        W57006   6.846  11.846  10.577
95696W        W57007  39.851   0.399  12.855
95697W        W57008  44.288  19.048   4.199
95698W        W57009  35.497  26.603   3.768
95699W        W57010  28.612  39.042  14.359
95700W        W57011   4.259  11.639   0.323
95701W        W57012  19.575  37.997   2.211
95702W        W57013  11.300  41.999  14.310
95703W        W57014  43.953  26.489   2.833
95704W        W57015  42.458  43.864  13.438
95705W        W57016  16.749  24.499   2.867
95706W        W57017  17.150   7.412   0.436
95707W        W57018  10.836  23.728  10.489
95708W        W57019  13.632   0.263  13.431
95709W        W57020  16.230  35.981  14.331
95710W        W57021  18.684  35.530   3.638
95711W        W57022  12.778   7.805   1.407
95712W        W57023  40.820  33.516  10.535
95713W        W57024  11.259  19.123  10.454
95714W        W57025  31.521  36.483   3.265
95715W        W57026  25.993  23.537  13.437
95716W        W57027   4.375  36.005   4.802
95717W        W57028  38.356  36.464  14.798
95718W        W57029   9.698   5.796  13.911
95719W        W57030  27.028   9.168   5.746
95720W        W57031  41.453  37.866   0.898
95721W        W57032  35.382  20.251   3.750
95722W        W57033  28.057  11.794   0.852
95723W        W57034  14.138  30.062   2.372
95724W        W57035  15.174   6.723   9.945
95725W        W57036  14.170  11.631  13.406
95726W        W57037   0.914   8.867   0.825
95727W        W57038  21.100   9.841   1.392
95728W        W57039  16.763  29.944  13.918
95729W        W57040  26.606  34.502   4.148
95730W        W57041  39.437  29.477  14.917
95731W        W57042  19.056   8.843  14.423
95732W        W57043  13.111  23.038   4.661
95733W        W57044   9.298  23.070   1.713
95734W        W57045  40.530  35.480  12.963
95735W        W57046  42.490  22.021  13.024
95736W        W57047   9.744  17.682   1.393
95737W        W57048  12.850   4.223  11.571
95738W        W57049  37.066   5.710   2.334
95739W        W57050  42.337  35.015  11.457
95740W        W57051  28.553   6.689   1.790
95741W        W57052  18.285  25.217  12.366
95742W        W57053  15.214  32.012  14.890
95743W        W57054  18.055  16.679   5.285
95744W        W57055  12.177  12.626  14.288
95745W        W57056  29.101  13.330  13.928
95746W        W57057  23.734  37.056  12.378
95747W        W57058  16.810   8.762  12.945
95748W        W57059  36.030  38.531   5.121
95749W        W57060  40.836  17.141  13.025
95750W        W57061  42.846  27.448   2.389
95751W        W57062   6.343   1.279  11.424
95752W        W57063  38.371  30.162   0.751
95753W        W57064  20.146  21.095   0.836
95754W        W57065   5.861  36.076  11.540
95755W        W57066   6.409  33.885   2.285
95756W        W57067  39.065  13.794   0.471
95757W        W57068  36.914  24.487  12.526
95758W        W57069  43.766  31.469   1.862
95759W        W57070  41.031  39.905   5.150
95760W        W57071  27.012  41.345  10.456
95761W        W57072   2.720  31.945   1.263
95762W        W57073  19.040  34.574   3.859
95763W        W57074  21.039  23.174  14.399
95764W        W57075  41.793  21.154  13.513
95765W        W57076  18.671  33.620  11.040
95766W        W57077  12.738  29.088  12.507
95767W        W57078  13.630  30.994  13.460
95768W        W57079  38.402   5.336   0.943
95769W        W57080  28.448  34.865  12.978
95770W        W57081  43.902   5.226  13.397
95771W        W57082   1.896  14.126   2.388
95772W        W57083  10.699  22.123  14.805
95773W        W57084  36.569  24.059   2.675
95774W        W57085  39.926   3.794  12.457
95775W        W57086  22.009   1.436   3.642
95776W        W57087   8.349  24.105   0.866
95777W        W57088  44.874  10.811  14.462
95778W        W57089  32.510   9.695   3.166
95779W        W57090  27.109  25.470   3.699
95780W        W57091  15.247  13.314  12.476
95781W        W57092  23.679  14.158   2.247
95782W        W57093  36.037  14.180   3.848
95783W        W57094  27.512  15.778  12.398
95784W        W57095  27.949  43.511   2.675
95785W        W57096   8.326   9.320  14.810
95786W        W57097  39.335  27.191   0.760
95787W        W57098  25.968  17.802   3.369
95788W        W57099  17.159  32.487   4.287
95789W        W57100  17.604  36.036  12.509
95790W        W57101  19.136  11.676   2.311
95791W        W57102  21.726   2.908  10.979
95792W        W57103  39.359   6.240  14.389
95793W        W57104  27.999  28.968   2.327
95794W        W57105  28.479  38.966   1.224
95795W        W57106  40.861  20.711   4.283
95796W        W57107   5.767   0.810  14.296
95797W        W57108  26.623  21.725   3.678
95798W        W57109  14.297  15.651  12.348
95799W        W57110  20.042  23.735   1.223
95800W        W57111  30.604  42.862  12.986
95801W        W57112  39.923   7.699  11.431
95802W        W57113  33.444  32.608   4.825
95803W        W57114  11.137  36.502  14.947
95804W        W57115  18.149  22.067   2.323
95805W        W57116   2.846  18.199  14.942
95806W        W57117  42.456   1.452   1.719
95807W        W57118  24.075   1.355   1.831
95808W        W57119  43.423  23.180  14.810
95809W        W57120  10.151  41.339   2.382
95810W        W57121  29.086  34.969   1.765
95811W        W57122   2.759  22.637   3.277
95812W        W57123  33.053   9.167   3.275
95813W        W57124  10.177   2.430   3.214
95814W        W57125  33.924  18.080  14.781
95815W        W57126  22.100  16.252  10.539
95816W        W57127   5.852  35.929   2.765
95817W        W57128  28.101  24.608   3.200
95818W        W57129  28.979   9.335   4.760
95819W        W57130  43.834  12.773   4.254
95820W        W57131  36.075  28.544  13.543
95821W        W57132  41.025  16.583  10.455
95822W        W57133   4.784   3.953  14.290
95823W        W57134  37.956  42.418  13.809
95824W        W57135  30.165   9.674   2.337
95825W        W57136  17.606  19.680  11.507
95826W        W57137  42.878  40.526   1.879
95827W        W57138  15.288  15.226  13.545
95828W        W57139  38.387   4.765  12.427
95829W        W57140   8.172  37.075   3.230
95830W        W57141  42.320  44.976   1.438
95831W        W57142  28.608   3.754  13.355
95832W        W57143  36.554  40.347  13.524
95833W        W57144   0.313   1.361  10.594
95834W        W57145  38.424  44.429   0.404
95835W        W57146  13.626  37.037  10.606
95836W        W57147  39.345  33.920  11.597
95837W        W57148  29.539  13.314  10.912
95838W        W57149  19.687  28.134   4.129
95839W        W57150  24.533  22.032   5.688
95840W        W57151  31.514  41.416  13.438
95841W        W57152  30.449  10.299   2.261
95842W        W57153  17.247  26.181  11.058
95843W        W57154  28.953  44.461  12.007
95844W        W57155  24.627  35.878   4.712
95845W        W57156  34.932   9.208  13.543
95846W        W57157  27.453  26.612  12.964
95847W        W57158  41.858   4.917   1.864
95848W        W57159  34.914   0.924   4.311
95849W        W57160   1.268  11.352   3.378
95850W        W57161  30.583  41.955  13.410
95851W        W57162  36.511  44.828   4.152
95852W        W57163  26.513  40.311   2.700
95853W        W57164  33.583  26.506  11.511
95854W        W57165  44.766  21.125   4.654
95855W        W57166   3.223  37.489   0.852
95856W        W57167  24.575   8.328   4.760
95857W        W57168   4.736  20.636  10.128
95858W        W57169  32.429  43.283  13.806
95859W        W57170  36.547  44.826  14.865
95860W        W57171  30.966  32.986   0.809
95861W        W57172  44.464   4.370   2.700
95862W        W57173  39.363  42.989   3.662
95863W        W57174  40.401  33.007   2.261
95864W        W57175  43.294  19.586  13.815
95865W        W57176  20.721  38.506  14.456
95866W        W57177  18.172  25.630  13.476
95867W        W57178   4.318  26.082  14.820
95868W        W57179  14.326  43.861  12.038
95869W        W57180  40.981   6.308   1.308
95870W        W57181  16.131  43.322   3.813
95871W        W57182  19.633  19.258   1.917
95872W        W57183   1.318  31.501  11.866
95873W        W57184  37.337  29.641  13.842
95874W        W57185  25.985  33.580  12.457
95875W        W57186  37.967  17.608  11.865
95876W        W57187  30.009  15.271  13.427
95877W        W57188  18.215  12.828  12.944
95878W        W57189  43.314  19.064   3.843
95879W        W57190  32.018  41.347  11.940
95880W        W57191  23.676  12.715   1.924
95881W        W57192  25.653  41.535   1.859
95882W        W57193  10.803  30.488   1.243
95883W        W57194   9.889  15.703  14.339
95884W        W57195   6.282  34.977   0.360
95885W        W57196  29.943  26.502  11.868
95886W        W57197  26.136   0.821  13.399
95887W        W57198  31.641  21.018  12.474
95888W        W57199   6.721  12.671   4.238
95889W        W57200   1.385   0.436   2.291
95890W        W57201  19.193  40.399  11.438
95891W        W57202  25.561  28.157   1.708
95892W        W57203  10.312  30.611  11.397
95893W        W57204  22.537  15.183   0.449
95894W        W57205  15.127  18.547  10.532
95895W        W57206  10.200   6.199   1.223
95896W        W57207   4.361  38.516   1.933
95897W        W57208   7.851   6.742  12.898
95898W        W57209  18.137  23.041   2.805
95899W        W57210  14.159  25.987  12.975
95900W        W57211   2.281  17.670  14.474
95901W        W57212  25.966  32.476  13.433
95902W        W57213  28.676  27.166  14.889
95903W        W57214  10.258  13.210  14.771
95904W        W57215  41.815  23.121   2.178
95905W        W57216   9.713   2.854  14.493
95906W        W57217   1.736  27.165  13.914
95907W        W57218   2.796   7.314  11.066
95908W        W57219  12.268   2.299   0.257
95909W        W57220  42.451  38.545  13.357
95910W        W57221  38.852  12.703   4.698
95911W        W57222  19.113  38.553  12.921
95912W        W57223  29.619   0.750   0.893
95913W        W57224  30.463  21.615   1.388
95914W        W57225  24.184   2.780  13.955
95915W        W57226  18.181  17.249  12.891
95916W        W57227   6.748  21.738   0.903
95917W        W57228  42.803   2.965   1.803
95918W        W57229   1.293  20.540   4.301
95919W        W57230  24.995  40.021  12.857
95920W        W57231  25.699  31.982   2.847
95921W        W57232  41.970  20.664   4.715
95922W        W57233  16.199  36.092   2.368
95923W        W57234  26.153  31.412  10.640
95924W        W57235  16.695   1.785  12.960
95925W        W57236   8.354  23.099  10.523
95926W        W57237  24.040  15.752   3.148
95927W        W57238  30.110  20.653   4.752
95928W        W57239   0.885  32.141   4.618
95929W        W57240  18.621  37.864   2.799
95930W        W57241   3.813  16.289  11.076
95931W        W57242  20.531   0.798   2.884
95932W        W57243   8.681   4.333  13.868
95933W        W57244   9.200  42.822  11.018
95934W        W57245   6.348  44.990  11.970
95935W        W57246  16.277  33.621   1.934
95936W        W57247  24.095   3.713   1.267
95937W        W57248  10.797  25.567   1.423
95938W        W57249  30.918  17.656  10.481
95939W        W57250  34.886  35.917   3.689
95940W        W57251  28.489   3.809  10.958
95941W        W57252   6.381   1.836  12.432
95942W        W57253  39.520  28.644  12.491
95943W        W57254  32.604  41.306  13.493
95944W        W57255  40.804  23.618  11.514
95945W        W57256  39.448   2.325   2.322
95946W        W57257   6.851  44.800   0.469
95947W        W57258  12.834  41.311   3.787
95948W        W57259   4.725   2.464  13.473
95949W        W57260  16.664  15.686   3.304
95950W        W57261   2.410  26.624  14.811
95951W        W57262   3.369  19.642   4.773
95952W        W57263  24.580  16.157   3.693
95953W        W57264  22.673  19.777   3.315
95954W        W57265   9.669   5.387  11.387
95955W        W57266   5.223  20.758  12.827
95956W        W57267  17.569   7.172  13.832
95957W        W57268  17.157  29.496  11.951
95958W        W57269   0.387  40.450  14.006
95959W        W57270  18.565   6.797  12.080
95960W        W57271  21.683  26.166  11.883
95961W        W57272   9.360  13.318  11.106
95962W        W57273   8.307   2.268  11.374
95963W        W57274   2.914  38.413   1.749
95964W        W57275  23.155  40.983  14.484
95965W        W57276  44.273  22.668  12.468
95966W        W57277  22.203  24.146  14.486
95967W        W57278   6.301  22.714   3.732
95968W        W57279  15.326  24.040   3.200
95969W        W57280   7.322  11.655   2.193
95970W        W57281   6.832  30.518  13.880
95971W        W57282   8.846   1.838  13.470
95972W        W57283  26.098   9.299   0.473
95973W        W57284  26.582  30.014   4.782
95974W        W57285  28.039  33.433  14.928
95975W        W57286  44.955  34.417   3.662
95976W        W57287  33.607  15.217  13.918
95977W        W57288  18.550   6.817  14.953
95978W        W57289  25.581  14.133  11.533
95979W        W57290   2.942  16.261  12.524
95980W        W57291  17.229  14.099   3.792
95981W        W57292   8.270  22.609  14.028
95982W        W57293   8.863  39.963  13.017
95983W        W57294   0.284  37.437  10.528
95984W        W57295  39.970  21.619   4.126
95985W        W57296  25.572  37.853   2.839
95986W        W57297  36.891   2.468  11.899
95987W        W57298  40.527   2.774  13.470
95988W        W57299  24.661   5.279   3.856
95989W        W57300  16.645  23.020  14.811
95990W        W57301  32.519  35.513   4.191
95991W        W57302  35.960  39.407  14.389
95992W        W57303   6.829  13.786  13.020
95993W        W57304  32.501  17.716   1.848
95994W        W57305   2.437   3.798   0.327
95995W        W57306  35.588  43.432  11.019
95996W        W57307  22.049  25.107   2.893
95997W        W57308  14.762  14.336   4.292
95998W        W57309  15.244   0.800   4.115
95999W        W57310  21.098  29.922   2.364
96000W        W57311  27.961  11.265   0.479
96001W        W57312  23.698  37.560  10.152
96002W        W57313  10.772  42.474   1.352
96003W        W57314  43.833  29.436   1.217
96004W        W57315  10.794  33.612   2.821
96005W        W57316  38.948   8.181   2.674
96006W        W57317   2.725   2.730  11.475
96007W        W57318  22.211  19.199   1.239
96008W        W57319  37.407   8.834  11.937
96009W        W57320  22.211  29.559   3.825
96010W        W57321  40.870   5.417  13.523
96011W        W57322  13.835   5.835  11.898
96012W        W57323  20.646   6.878   4.250
96013W        W57324  29.969  31.567   2.223
96014W        W57325  18.684  20.237  11.104
96015W        W57326   4.743   5.909   4.764
96016W        W57327   7.795  41.395   3.641
96017W        W57328  25.120  24.053  13.951
96018W        W57329   6.201  41.950   3.323
96019W        W57330  15.611  34.979  12.346
96020W        W57331  17.205   1.335  14.480
96021W        W57332  32.894  39.902  12.029
96022W        W57333  15.701  31.418   2.757
96023W        W57334  40.509  16.291  14.916
96024W        W57335  16.671   0.435   2.703
96025W        W57336   4.380  27.635  14.009
96026W        W57337   0.308  20.182  12.388
96027W        W57338  27.192   3.725   4.350
96028W        W57339  28.979   1.313  11.433
96029W        W57340  38.518  38.050   1.382
96030W        W57341  44.947  35.854   1.858
96031W        W57342  43.950   4.394   1.377
96032W        W57343  11.710  23.151   2.726
96033W        W57344  22.689  37.496  11.408
96034W        W57345  19.158  43.788   0.816
96035W        W57346  32.985  27.127  11.928
96036W        W57347  18.151  28.005  13.903
96037W        W57348  26.587   2.766   4.121
96038W        W57349  29.660   3.265  10.579
96039W        W57350  15.102  44.265   3.346
96040W        W57351   6.872   9.803  13.856
96041W        W57352   8.796   3.918   3.235
96042W        W57353  38.980  29.530   4.746
96043W        W57354  22.251   6.846  11.413
96044W        W57355   5.765  42.879  14.337
96045W        W57356  38.887  15.611   4.759
96046W        W57357  23.616  10.208  10.586
96047W        W57358  36.873  12.298   3.780
96048W        W57359  35.538   7.300   0.833
96049W        W57360  23.133  28.146  10.544
96050W        W57361  41.804   4.421  12.998
96051W        W57362  11.290  12.208  14.972
96052W        W57363  38.916  31.903  11.003
96053W        W57364  19.558  34.079  14.491
96054W        W57365   2.773  23.055   1.404
96055W        W57366  37.025  30.069   1.261
96056W        W57367  23.131   6.712   2.896
96057W        W57368  30.935   6.330  13.982
96058W        W57369  17.781  21.681   1.919
96059W        W57370  32.612   5.249   5.289
96060W        W57371  43.377  26.460  12.894
96061W        W57372  38.911  30.506  14.972
96062W        W57373  44.919   6.680  10.962
96063W        W57374  15.797  16.096  14.387
96064W        W57375  29.930   6.196  12.067
96065W        W57376   7.769  44.432  11.403
96066W        W57377  13.278  32.044  11.593
96067W        W57378   7.181   2.266  12.491
96068W        W57379  44.331  35.529  14.305
96069W        W57380   8.829  15.665   2.711
96070W        W57381   8.750  33.611   0.766
96071W        W57382  34.910  17.224   5.251
96072W        W57383  24.711  10.744   3.796
96073W        W57384  36.418  22.151   3.352
96074W        W57385  10.674  36.361  13.852
96075W        W57386  17.589  25.663   1.750
96076W        W57387  43.303   5.309  10.975
96077W        W57388  33.560  36.574  12.911
96078W        W57389  27.055  38.351  14.831
96079W        W57390   0.447   9.710  11.479
96080W        W57391  44.353  27.661  14.343
96081W        W57392   9.372   4.750  14.866
96082W        W57393   9.837  23.682   3.701
96083W        W57394  32.020  41.822  10.585
96084W        W57395  34.561  35.409   2.826
96085W        W57396   3.260  11.724   4.243
96086W        W57397  29.617  32.895  13.989
96087W        W57398  24.050   0.371  12.088
96088W        W57399   0.906  26.028   0.732
96089W        W57400  31.916  35.396   1.214
96090W        W57401   3.254  34.599  12.488
96091W        W57402  39.820  40.880  11.454
96092W        W57403  17.252  36.938  12.926
96093W        W57404   2.834  43.819   1.261
96094W        W57405  37.042   0.352  11.476
96095W        W57406   4.397  38.824  13.008
96096W        W57407  21.247  26.544   4.838
96097W        W57408   1.975  42.867  12.399
96098W        W57409  19.200  13.169  13.030
96099W        W57410  10.711  44.988  10.993
96100W        W57411  40.337  17.264  14.881
96101W        W57412   9.764   8.234  11.004
96102W        W57413  30.493   5.278   3.326
96103W        W57414  44.486  37.454  14.783
96104W        W57415  23.692  20.270  11.072
96105W        W57416  39.422  43.500  12.041
96106W        W57417   3.435  18.678  11.008
96107W        W57418  38.557  37.480  14.979
96108W        W57419  39.948   1.834  12.064
96109W        W57420  43.813  11.350  12.560
96110W        W57421  19.264   7.386   3.288
96111W        W57422  38.005  31.456   0.349
96112W        W57423  39.026  18.652  10.060
96113W        W57424  13.632  16.604   0.760
96114W        W57425  17.301   7.177   3.192
96115W        W57426  27.516  38.055   2.857
96116W        W57427  14.208  22.605   5.141
96117W        W57428   4.388  35.383  12.384
96118W        W57429  29.161  42.349   2.815
96119W        W57430  29.546  42.017   2.274
96120W        W57431  22.247   6.913   3.726
96121W        W57432   3.896   7.365  14.454
96122W        W57433   0.793  19.107   2.266
96123W        W57434  39.975  35.585  11.439
96124W        W57435  23.047  24.179  14.492
96125W        W57436  28.595  42.903   1.250
96126W        W57437   1.811  35.532   2.416
96127W        W57438  37.369  13.631   3.302
96128W        W57439  37.841  35.438   1.881
96129W        W57440  12.134   5.408  14.005
96130W        W57441  24.480  33.529   1.273
96131W        W57442  34.530   9.703   1.919
96132W        W57443  27.583  37.004  13.307
96133W        W57444  22.164  41.476  13.038
96134W        W57445  40.045   1.298  13.816
96135W        W57446  16.150  44.913  14.843
96136W        W57447  13.335  36.069   3.194
96137W        W57448  13.169   6.848   2.400
96138W        W57449  26.198  21.564  10.454
96139W        W57450  37.830  31.508  12.491
96140W        W57451  21.172  28.534   1.930
96141W        W57452  31.503  41.858   0.891
96142W        W57453  35.601  40.802  14.441
96143W        W57454  22.511  13.715   0.763
96144W        W57455  30.431  32.616  10.641
96145W        W57456   5.760   1.438   3.729
96146W        W57457  22.557  12.856  11.080
96147W        W57458  24.005  13.150   3.207
96148W        W57459   1.479   3.457  11.012
96149W        W57460  12.804  25.041   9.604
96150W        W57461   3.874   7.386   4.123
96151W        W57462  19.275  43.331  11.076
96152W        W57463  13.817   0.904  11.107
96153W        W57464  38.058  40.523   3.377
96154W        W57465  10.865  41.336   0.478
96155W        W57466  18.702  38.924   3.366
96156W        W57467  28.495  11.234   2.279
96157W        W57468  19.207   4.766  10.513
96158W        W57469   2.866  42.789  10.623
96159W        W57470  24.998   8.778   1.416
96160W        W57471   7.310  11.272  11.399
96161W        W57472  30.088  16.149   0.281
96162W        W57473  30.002   4.789   4.191
96163W        W57474  12.140  35.367  14.884
96164W        W57475  44.925  11.295  14.842
96165W        W57476  42.402  42.460   2.710
96166W        W57477  23.523  22.235  11.036
96167W        W57478  14.272  14.618   2.181
96168W        W57479  22.112  35.511  14.488
96169W        W57480  28.572  29.061  13.801
96170W        W57481  37.993  34.527  10.953
96171W        W57482  25.658  14.798   3.209
96172W        W57483   4.727  17.099   3.775
96173W        W57484  12.843  11.844   2.896
96174W        W57485  40.957   2.452   3.800
96175W        W57486  36.998  28.174   1.744
96176W        W57487  42.345  31.981  10.050
96177W        W57488  32.558   7.264   3.278
96178W        W57489  19.145  38.379   4.266
96179W        W57490  38.922  29.543  11.111
96180W        W57491   6.899  12.753  14.964
96181W        W57492  36.019   5.414  14.504
96182W        W57493  33.422   6.426  11.384
96183W        W57494  13.814  42.903   0.864
96184W        W57495  15.626  39.825   0.931
96185W        W57496   5.868   4.336  13.409
96186W        W57497  18.740  12.666  11.987
96187W        W57498  17.692   4.734  14.909
96188W        W57499   0.905  18.098   2.243
96189W        W57500   4.914  13.774   1.885
96190W        W57501  38.909  26.136  14.506
96191W        W57502  13.297  27.560  11.543
96192W        W57503  42.358  20.759  13.847
96193W        W57504  42.958  31.413   0.372
96194W        W57505  10.269   8.820   0.412
96195W        W57506  38.461   7.773   4.681
96196W        W57507   4.237  24.131  11.405
96197W        W57508  30.990  25.647   4.691
96198W        W57509   2.373   9.387   2.351
96199W        W57510   0.453  40.014  14.368
96200W        W57511  42.005  35.959  10.973
96201W        W57512   5.200  38.341  13.992
96202W        W57513  43.484  15.755  14.469
96203W        W57514  29.950  22.050   4.305
96204W        W57515  30.485  37.563  14.479
96205W        W57516  24.705  34.931  10.517
96206W        W57517   6.406   4.775   0.403
96207W        W57518  34.378  37.003   1.728
96208W        W57519  32.070  29.503   2.247
96209W        W57520  27.630  16.221  12.071
96210W        W57521  12.832  25.115   3.219
96211W        W57522  28.548  30.577   2.883
96212W        W57523  38.570  35.024  10.959
96213W        W57524  16.153  11.685   2.788
96214W        W57525  21.205  24.141   4.804
96215W        W57526  20.677  29.651   5.176
96216W        W57527  20.609   4.264   1.766
96217W        W57528   2.270  27.080  10.977
96218W        W57529  41.525  41.008  11.022
96219W        W57530  16.154  19.244   3.283
96220W        W57531  11.622   2.935  14.834
96221W        W57532  32.436  37.028   2.678
96222W        W57533   4.771  37.880   3.694
96223W        W57534  39.916  42.983   1.397
96224W        W57535  39.976   4.350  14.923
96225W        W57536  42.436  33.404   3.682
96226W        W57537  34.952  18.679  10.957
96227W        W57538  20.671  35.087  12.860
96228W        W57539  44.790  35.579  11.594
96229W        W57540  12.198  17.666  14.514
96230W        W57541  24.161  17.162   0.277
96231W        W57542  26.465  40.944   3.668
96232W        W57543   6.344   9.669   0.900
96233W        W57544  37.842  39.980   3.267
96234W        W57545  28.988   5.688   0.268
96235W        W57546   3.243  24.973   2.407
96236W        W57547  21.567  22.193   2.733
96237W        W57548  40.458  37.344   3.212
96238W        W57549   6.354  29.944  13.540
96239W        W57550   3.322  42.950   2.184
96240W        W57551  29.163  24.649  14.331
96241W        W57552   9.363  22.009   0.827
96242W        W57553  24.610  22.021   3.253
96243W        W57554  27.520   7.862   0.377
96244W        W57555  17.658   4.347   4.832
96245W        W57556  34.114  35.060  11.386
96246W        W57557  43.962  14.778   0.357
96247W        W57558  11.322  15.308   3.288
96248W        W57559  29.024   5.733   3.667
96249W        W57560  20.028  44.345   4.608
96250W        W57561  28.066  13.721   9.956
96251W        W57562  40.893  26.984   0.841
96252W        W57563  23.188  15.697   2.320
96253W        W57564  26.592  32.903   4.345
96254W        W57565  12.340  22.216   3.853
96255W        W57566  11.368  32.600   1.877
96256W        W57567  13.241  27.107  11.459
96257W        W57568  42.948   9.296   4.252
96258W        W57569  25.053  19.602   3.676
96259W        W57570   5.923  26.978  12.891
96260W        W57571  35.046  14.736   4.156
96261W        W57572  19.270  40.845   0.812
96262W        W57573  19.250  39.429   2.700
96263W        W57574  30.141  41.838   2.674
96264W        W57575  17.298  37.422  13.822
96265W        W57576  11.316   5.730   0.357
96266W        W57577  25.610   4.729  11.869
96267W        W57578   9.776   9.264  12.401
96268W        W57579   0.332  27.161  12.842
96269W        W57580  26.507   1.752   3.240
96270W        W57581   1.894  30.975  12.403
96271W        W57582  16.123  44.927   0.271
96272W        W57583  44.394   9.238   0.371
96273W        W57584  23.529  20.037  12.850
96274W        W57585  30.442  38.371   4.240
96275W        W57586   6.852  36.474  13.900
96276W        W57587   6.353  23.201   4.829
96277W        W57588   0.801  25.516  12.363
96278W        W57589   1.409  22.628   1.864
96279W        W57590   5.835   6.766   3.641
96280W        W57591  26.003  31.635   1.448
96281W        W57592   1.289  31.930  11.493
96282W        W57593  35.488  15.102  13.457
96283W        W57594  26.628  40.952  10.589
96284W        W57595  37.549  34.906   0.949
96285W        W57596   0.907  23.698  10.949
96286W        W57597  37.007  30.969  11.949
96287W        W57598  24.013  36.494   1.788
96288W        W57599   4.884   1.752   0.841
96289W        W57600  23.663  24.989   0.745
96290W        W57601  40.878  33.099   4.629
96291W        W57602  33.017  23.133   4.243
96292W        W57603   5.224  13.752   1.735
96293W        W57604   5.727   2.292  14.456
96294W        W57605   2.812  31.953  14.283
96295W        W57606  34.558  20.555   4.693
96296W        W57607  31.527  16.285   1.899
96297W        W57608  30.515   9.777   2.680
96298W        W57609  36.562  39.349   3.371
96299W        W57610   9.208   4.699  12.908
96300W        W57611  40.906  40.843   3.723
96301W        W57612  43.497  28.168  13.844
96302W        W57613  35.365  10.651   0.246
96303W        W57614  34.941  29.562   3.310
96304W        W57615  21.213   2.776   3.854
96305W        W57616  41.480  31.546   2.769
96306W        W57617   0.960  12.721  10.482
96307W        W57618  33.620   7.684  14.279
96308W        W57619  24.688  37.355   4.140
96309W        W57620  17.184  37.342  13.320
96310W        W57621  12.181   2.467   0.890
96311W        W57622  28.529  18.114   1.387
96312W        W57623  26.601  21.732  13.531
96313W        W57624  35.532   5.790   4.217
96314W        W57625  20.241  44.771   2.813
96315W        W57626  19.183  41.440  14.846
96316W        W57627  36.551  22.665   2.758
96317W        W57628  20.092  23.645  11.391
96318W        W57629  33.875   8.703   3.805
96319W        W57630  32.023  32.133  10.953
96320W        W57631  35.044  39.989  14.320
96321W        W57632  25.178  37.346  11.435
96322W        W57633  41.509   8.899   3.857
96323W        W57634  15.152  43.310   3.798
96324W        W57635  20.625  17.279  11.954
96325W        W57636   7.699   2.783  10.985
96326W        W57637   7.372   8.269   4.738
96327W        W57638  26.493  40.819  11.378
96328W        W57639   9.158  23.706   0.757
96329W        W57640   5.224  14.636  14.493
96330W        W57641  28.504  38.446  13.918
96331W        W57642  43.876  26.050  13.018
96332W        W57643  37.384  31.144  10.039
96333W        W57644   4.857  33.582   3.161
96334W        W57645  25.028  32.064  13.031
96335W        W57646  22.682  23.654  14.770
96336W        W57647   6.404  30.937  12.915
96337W        W57648  29.053  21.145   2.258
96338W        W57649  28.142   4.309  13.043
96339W        W57650  13.820  35.392   0.387
96340W        W57651  12.682   0.269  11.887
96341W        W57652  13.180  13.333   1.756
96342W        W57653  37.480   7.391   0.766
96343W        W57654  31.147  43.890   3.670
96344W        W57655  26.003  31.510  13.957
96345W        W57656  34.420  30.021  10.962
96346W        W57657  30.147  24.510   3.183
96347W        W57658   8.235  41.341   2.872
96348W        W57659  40.874  43.843  12.522
96349W        W57660  37.355  20.764   1.763
96350W        W57661  23.068  14.198   1.214
96351W        W57662  26.595  12.174  13.450
96352W        W57663  11.837  43.854   3.651
96353W        W57664  30.143  23.693  11.383
96354W        W57665   8.393   0.964   4.819
96355W        W57666   9.194  25.095   0.317
96356W        W57667   6.900  42.921   4.122
96357W        W57668   7.227  44.433   2.868
96358W        W57669  24.988  39.555  10.525
96359W        W57670  28.066  42.863   4.671
96360W        W57671  20.041   9.237  14.391
96361W        W57672  20.601  12.813  12.008
96362W        W57673   6.210  13.203   4.732
96363W        W57674  34.533  26.574   4.158
96364W        W57675  37.581  23.161  13.913
96365W        W57676  14.212  24.090  14.951
96366W        W57677  39.369  15.681   1.428
96367W        W57678  26.122  42.902   0.959
96368W        W57679  35.925  22.742   2.356
96369W        W57680   8.762  14.752   0.795
96370W        W57681  29.933  27.654   0.262
96371W        W57682  37.008   0.900  11.517
96372W        W57683   9.875  22.634  13.044
96373W        W57684  11.203  37.037  11.548
96374W        W57685  40.490   3.760  14.968
96375W        W57686   5.285  25.038   1.449
96376W        W57687  15.201  44.925  11.084
96377W        W57688  35.478  34.043  12.347
96378W        W57689   5.822  29.459  12.907
96379W        W57690  10.637  22.530   4.732
96380W        W57691   1.452  44.403  10.947
96381W        W57692  18.233   9.707  11.514
96382W        W57693   8.656  25.210   4.813
96383W        W57694  26.553  23.568  11.564
96384W        W57695  36.947   6.716   3.803
96385W        W57696  10.277  36.573   3.681
96386W        W57697  32.911   4.890   2.383
96387W        W57698   8.228  41.308   0.947
96388W        W57699   1.800   9.298   4.116
96389W        W57700  33.009  16.598   0.429
96390W        W57701  38.822  11.804   1.803
96391W        W57702  42.348  37.059  13.806
96392W        W57703  14.761  36.451   4.700
96393W        W57704   4.782  35.565  10.954
96394W        W57705   3.290  14.651  14.946
96395W        W57706  36.941  14.210  14.815
96396W        W57707  32.011   2.834  14.299
96397W        W57708  33.941  16.631   2.374
96398W        W57709  44.326   0.297   0.930
96399W        W57710  38.464  13.633  13.878
96400W        W57711  32.479  39.039   4.275
96401W        W57712  41.859  14.227  11.078
96402W        W57713   3.354  34.468  10.939
96403W        W57714  26.987  27.479   0.845
96404W        W57715  40.318  16.657   2.181
96405W        W57716  15.584   5.921   4.801
96406W        W57717  24.559  44.275  10.615
96407W        W57718  42.910  31.079  10.436
96408W        W57719  34.948   1.411  12.861
96409W        W57720  11.647   1.910   0.397
96410W        W57721  13.335   3.719   1.447
96411W        W57722  35.530  26.668   0.868
96412W        W57723  38.408  36.014  13.450
96413W        W57724  42.333  10.170   2.700
96414W        W57725  40.392   9.865   2.873
96415W        W57726  43.347  39.425   3.196
96416W        W57727  40.035  24.491  11.586
96417W        W57728  10.291  42.290  14.350
96418W        W57729  23.171  38.553  13.495
96419W        W57730  29.029  30.429  12.991
96420W        W57731   2.260   3.274  14.948
96421W        W57732   9.712  41.015  13.924
96422W        W57733  29.984  34.043   2.784
96423W        W57734  39.556   3.274  12.410
96424W        W57735  35.597  36.453  11.911
96425W        W57736  24.003  39.816   2.809
96426W        W57737  17.222   2.347  12.976
96427W        W57738  15.158  23.076  10.014
96428W        W57739  16.142  31.630   4.810
96429W        W57740  32.540  31.116  11.948
96430W        W57741  39.371  15.302   3.229
96431W        W57742  31.641  43.356   3.844
96432W        W57743  42.776  13.835   1.420
96433W        W57744   8.741  31.603   4.652
96434W        W57745   7.257  37.036   3.856
96435W        W57746  14.608  11.784  14.441
96436W        W57747   0.335   4.871  12.873
96437W        W57748  30.634  34.420   4.783
96438W        W57749  37.028   6.787  12.908
96439W        W57750  13.616  39.559   4.348
96440W        W57751  41.793  16.571  12.918
96441W        W57752  20.688  43.434   3.772
96442W        W57753  11.178  13.734   2.183
96443W        W57754  31.562  42.506  10.414
96444W        W57755  41.043  35.395  12.084
96445W        W57756  15.207  26.584  10.912
96446W        W57757   3.930  16.722   0.827
96447W        W57758  29.448  24.548  11.378
96448W        W57759  34.518  26.672  10.459
96449W        W57760   4.931  21.744   2.728
96450W        W57761   6.864  19.159  10.887
96451W        W57762  10.313  39.315  10.122
96452W        W57763  14.338  15.781  14.284
96453W        W57764  36.035  29.619  12.003
96454W        W57765   3.871   2.844  14.903
96455W        W57766   6.250  13.350   4.169
96456W        W57767  37.365  17.678  13.884
96457W        W57768  44.381  32.056   3.768
96458W        W57769  21.517  16.129   3.834
96459W        W57770  14.707  31.535  10.603
96460W        W57771  41.974  21.593  13.840
96461W        W57772  41.956  31.616  10.547
96462W        W57773  42.835  36.875  12.039
96463W        W57774  29.089  13.153  10.906
96464W        W57775  17.131  36.500   0.957
96465W        W57776  22.525  29.639  14.780
96466W        W57777  18.083  28.094  12.431
96467W        W57778  41.329  34.934   0.479
96468W        W57779   1.307  26.969  12.507
96469W        W57780   3.374  27.979   0.815
96470W        W57781  25.043  24.003  12.392
96471W        W57782   0.884  11.803  11.895
96472W        W57783  23.167  14.643  12.846
96473W        W57784  10.852   8.377   4.607
96474W        W57785  12.209  43.849  11.579
96475W        W57786  10.650  18.707  13.994
96476W        W57787   4.899  13.216  14.779
96477W        W57788   3.800  40.487  12.884
96478W        W57789  12.852  15.788  10.028
96479W        W57790  21.138   5.348  11.581
96480W        W57791  28.660  33.422   4.708
96481W        W57792  23.512  22.655  10.031
96482W        W57793  10.219  23.179  12.462
96483W        W57794  12.745   1.884  14.830
96484W        W57795   6.766  14.634   3.639
96485W        W57796   8.323  41.309   1.861
96486W        W57797  18.112  36.549  14.009
96487W        W57798  11.699  10.290   2.741
96488W        W57799  34.525  25.469   1.256
96489W        W57800  25.710   5.882  10.507
96490W        W57801  34.109  12.157  10.404
96491W        W57802  33.474  15.110  12.493
96492W        W57803   7.319   2.893  11.470
96493W        W57804  37.977  10.876   4.615
96494W        W57805  17.572  26.060  13.050
96495W        W57806  44.888  10.208  13.044
96496W        W57807   0.812   7.842  12.951
96497W        W57808  15.701  39.409  12.051
96498W        W57809  10.749   6.864   3.208
96499W        W57810  41.511  14.754  14.390
96500W        W57811  36.049  31.406  11.948
96501W        W57812  35.536   0.449   0.291
96502W        W57813  37.345   1.745  11.502
96503W        W57814   7.215   0.341   1.215
96504W        W57815  21.600  10.364   2.798
96505W        W57816  29.068  37.575   4.337
96506W        W57817  21.695  43.359  13.043
96507W        W57818  28.944   6.902   4.132
96508W        W57819  21.683  12.307   4.741
96509W        W57820  38.563  12.855   2.867
96510W        W57821  12.286   8.356   2.839
96511W        W57822  25.618  24.218  10.420
96512W        W57823  36.580  20.070  10.415
96513W        W57824  14.179  21.209  11.551
96514W        W57825   7.320  15.781  12.971
96515W        W57826  23.013   9.755   0.956
96516W        W57827  32.047  24.611  12.834
96517W        W57828   6.400  42.828   5.226
96518W        W57829  28.511  27.984  13.819
96519W        W57830  31.103  40.894  13.347
96520W        W57831  16.640  12.281   9.993
96521W        W57832   8.319   7.778   3.262
96522W        W57833  27.523  14.786  12.058
96523W        W57834  44.289  30.117   1.336
96524W        W57835  25.527   9.332  11.472
96525W        W57836   6.238  32.555   3.785
96526W        W57837  40.508  30.573   1.824
96527W        W57838  24.230  18.142   0.381
96528W        W57839  38.480   8.655  11.934
96529W        W57840  34.046  25.495  11.489
96530W        W57841  31.625  33.989  14.510
96531W        W57842   1.752   8.869   4.211
96532W        W57843  26.681  40.317  11.453
96533W        W57844  31.070   7.356  10.491
96534W        W57845  22.671  37.035   0.823
96535W        W57846  12.223  24.587  12.849
96536W        W57847  42.410  24.000  11.455
96537W        W57848  17.690  18.780   2.333
96538W        W57849  33.385  34.978  11.521
96539W        W57850  16.142  12.659  11.591
96540W        W57851  18.227  29.063  13.478
96541W        W57852   1.446  25.675   2.219
96542W        W57853  44.318  42.979   3.804
96543W        W57854  40.306  12.314  10.991
96544W        W57855  13.250  21.682  13.980
96545W        W57856  44.889  43.355  11.882
96546W        W57857  39.935  40.934   3.809
96547W        W57858  10.649  22.202   0.751
96548W        W57859  17.744  37.417  12.974
96549W        W57860  36.949  23.718  10.462
96550W        W57861  18.222  44.278  11.954
96551W        W57862   4.402  28.065  13.831
96552W        W57863   9.740   2.355   0.813
96553W        W57864   5.287  17.582  11.090
96554W        W57865  38.349  42.513  13.365
96555W        W57866  20.589   7.813   1.894
96556W        W57867  16.649  36.907  12.400
96557W        W57868  32.135  24.716  12.048
96558W        W57869  11.820  32.116   5.318
96559W        W57870  10.168  30.442   0.410
96560W        W57871  18.073  24.108   0.738
96561W        W57872  26.005  15.626  11.440
96562W        W57873  37.048  23.202  12.074
96563W        W57874   0.977  17.757  13.857
96564W        W57875  32.973   0.854   1.400
96565W        W57876  44.351  32.579  10.417
96566W        W57877  18.260  39.386   2.232
96567W        W57878  42.852  41.481   0.318
96568W        W57879  37.440  10.302  11.039
96569W        W57880  16.151  42.446   2.389
96570W        W57881  35.928  16.151   4.277
96571W        W57882  24.091   4.252   0.306
96572W        W57883  40.376  22.179   1.757
96573W        W57884  28.982  27.601   1.313
96574W        W57885  16.648  42.987   0.249
96575W        W57886  14.136   6.886   2.762
96576W        W57887   2.323  33.083  12.475
96577W        W57888  23.675  28.167  14.994
96578W        W57889  31.563   2.919   4.616
96579W        W57890  14.206  20.262  12.484
96580W        W57891   2.395  17.618   0.726
96581W        W57892  18.585  16.799  12.558
96582W        W57893  44.386  12.679  11.553
96583W        W57894  13.702  40.511   3.699
96584W        W57895  18.782  32.439   4.222
96585W        W57896  29.619  33.091   3.846
96586W        W57897  40.011   6.778  12.010
96587W        W57898  15.617  14.635  14.395
96588W        W57899  41.360  26.158   1.396
96589W        W57900  24.722  41.343   3.189
96590W        W57901  44.877  23.105  14.777
96591W        W57902  26.967   9.260   3.278
96592W        W57903  17.231  12.202  14.762
96593W        W57904  26.584  14.098   2.320
96594W        W57905   0.914  40.993   2.233
96595W        W57906   0.341   0.755  10.963
96596W        W57907  21.651  33.013  11.572
96597W        W57908   7.199  35.940  13.945
96598W        W57909   0.826   7.828  12.430
96599W        W57910  19.735  41.957   2.787
96600W        W57911  20.740  39.861  12.091
96601W        W57912  35.891   6.897   1.935
96602W        W57913  12.624  18.192  10.618
96603W        W57914   5.853  10.182   1.902
96604W        W57915  29.523  11.687  14.299
96605W        W57916  33.554  14.711  11.977
96606W        W57917   1.959   6.392  10.630
96607W        W57918  37.837   5.695   0.770
96608W        W57919   9.783  40.916   1.305
96609W        W57920  24.528   4.409   1.390
96610W        W57921  11.228   8.364   0.856
96611W        W57922  11.295   9.696   4.325
96612W        W57923   9.732   5.734   2.410
96613W        W57924  18.155  23.025  11.014
96614W        W57925  19.615  29.509   2.208
96615W        W57926  25.142  28.648  12.381
96616W        W57927   9.395  10.655   4.245
96617W        W57928  31.138  21.524  11.430
96618W        W57929  35.385   6.211   3.679
96619W        W57930   2.452  27.048  14.495
96620W        W57931  24.680  25.679  10.576
96621W        W57932   8.242   2.428   3.270
96622W        W57933  36.849  44.432  13.355
96623W        W57934  26.141  42.466  11.908
96624W        W57935   4.278  33.619  10.992
96625W        W57936  24.519  24.225  11.085
96626W        W57937  38.331  27.002  14.436
96627W        W57938  37.467  13.152   2.363
96628W        W57939   4.821  17.647  13.428
96629W        W57940   6.729  34.465   1.737
96630W        W57941  16.088  16.676  13.459
96631W        W57942  36.872   3.761   1.871
96632W        W57943  30.653  26.472   3.248
96633W        W57944  40.849  32.633   2.362
96634W        W57945  24.540  15.712   3.379
96635W        W57946   8.740  26.472  14.432
96636W        W57947  44.822  44.884   0.431
96637W        W57948  31.519  35.478  11.011
96638W        W57949  21.693   2.907  12.452
96639W        W57950  24.651  18.224  13.050
96640W        W57951   1.785  24.174  13.369
96641W        W57952  19.052  36.944   1.726
96642W        W57953  42.510  39.527  14.960
96643W        W57954  20.755   6.720  14.761
96644W        W57955   3.399  21.026   1.829
96645W        W57956  16.227  20.748   1.710
96646W        W57957   8.309  23.631  11.012
96647W        W57958  21.580   5.865  13.414
96648W        W57959  31.641  42.492   3.247
96649W        W57960  24.541  16.607   1.846
96650W        W57961   9.263  14.649  12.390
96651W        W57962  41.913  12.352   1.419
96652W        W57963  32.630  20.619   0.954
96653W        W57964  43.988  41.522   3.767
96654W        W57965  32.908  44.470   2.311
96655W        W57966  32.462  33.052  14.974
96656W        W57967  10.647  31.101   1.899
96657W        W57968  18.133  30.488   0.765
96658W        W57969   5.920  15.734  14.406
96659W        W57970   8.765  30.587  11.898
96660W        W57971   6.874   8.346  11.052
96661W        W57972  13.633  40.913  13.917
96662W        W57973  18.650  26.675   0.306
96663W        W57974  20.096  37.360   3.824
96664W        W57975  17.090  24.193   2.736
96665W        W57976  27.105  26.023  13.447
96666W        W57977  24.650  10.661  11.383
96667W        W57978  11.701   9.280  13.007
96668W        W57979  25.972  40.910   4.610
96669W        W57980  23.663  40.000   0.794
96670W        W57981   8.849  13.728  11.121
96671W        W57982  14.141  41.299  14.488
96672W        W57983  15.300   9.358   1.799
96673W        W57984   3.258  11.253   4.642
96674W        W57985  12.802  22.588  13.969
96675W        W57986   3.430  25.192  14.831
96676W        W57987  27.472   4.882   5.223
96677W        W57988   3.807  22.524  10.936
96678W        W57989  28.096  34.545   4.146
96679W        W57990  14.784  24.606  14.989
96680W        W57991  23.163  14.778  11.555
96681W        W57992  26.972  38.458   3.152
96682W        W57993   7.398   6.727   4.665
96683W        W57994   4.867  36.057   3.826
96684W        W57995  33.065  32.424   2.689
96685W        W57996  26.994  17.305  12.908
96686W        W57997  12.720  26.019   4.758
96687W        W57998  19.156  42.988  14.277
96688W        W57999  44.899  18.767  13.925
96689W        W58000   4.699   4.204   3.258
96690W        W58001   4.837  25.667  11.433
96691W        W58002  14.720  18.287  13.350
96692W        W58003  42.785   8.883   0.934
96693W        W58004  15.222  24.505   3.251
96694W        W58005  44.839  16.566  11.415
96695W        W58006   5.228  29.137   2.368
96696W        W58007  16.090  10.790  12.880
96697W        W58008   4.440  33.471  13.537
96698W        W58009  35.555  42.426  13.544
96699W        W58010  36.999  34.116  11.002
96700W        W58011  15.230  32.405   3.288
96701W        W58012  25.167  20.270  10.471
96702W        W58013  42.028  38.500  10.495
96703W        W58014  14.818  20.032   3.193
96704W        W58015  14.662  19.738  12.068
96705W        W58016  39.443   1.817   0.923
96706W        W58017  42.418   7.373   0.731
96707W        W58018  41.849  23.019  10.591
96708W        W58019  44.404   6.394   3.655
96709W        W58020   2.809   8.690  10.469
96710W        W58021   5.305   8.217  12.966
96711W        W58022   0.440  20.219  13.878
96712W        W58023  38.858  18.051  13.034
96713W        W58024  31.054   4.422   4.718
96714W        W58025  25.523  17.600  11.596
96715W        W58026   2.836  34.863   4.722
96716W        W58027  19.166   0.794   2.307
96717W        W58028  20.636  39.396  11.414
96718W        W58029  35.881  42.992   0.330
96719W        W58030  25.969  28.169   2.753
96720W        W58031  13.252  14.199   2.768
96721W        W58032  29.480   4.899   0.787
96722W        W58033  41.465  39.892  10.951
96723W        W58034  43.469  30.053  13.926
96724W        W58035  42.429  15.185  10.418
96725W        W58036  37.418  41.350   4.201
96726W        W58037   3.878  31.025  13.413
96727W        W58038   5.396   8.822  11.048
96728W        W58039   5.418   4.764   3.261
96729W        W58040  11.849  18.551   2.813
96730W        W58041  30.469  15.608   4.332
96731W        W58042  11.637  38.848  14.452
96732W        W58043   3.907  40.922  11.373
96733W        W58044  24.026   5.787  13.838
96734W        W58045  23.518  20.748   3.727
96735W        W58046  40.019  23.205   4.279
96736W        W58047  43.444  31.009  12.914
96737W        W58048  28.501  24.651   4.745
96738W        W58049  20.163   2.923   4.710
96739W        W58050  35.056  43.431  13.968
96740W        W58051  24.043  42.999   3.870
96741W        W58052  42.338  24.219  10.927
96742W        W58053  35.022  22.027  14.912
96743W        W58054   3.781   5.788   1.733
96744W        W58055  35.484  19.188   1.935
96745W        W58056  21.512  19.081   1.933
96746W        W58057  28.667  44.496  12.933
96747W        W58058  11.257   3.792  11.094
96748W        W58059  44.870  18.583   3.264
96749W        W58060  21.060  31.147   3.178
96750W        W58061   9.331   6.293  12.007
96751W        W58062   2.752  26.009  10.592
96752W        W58063   1.455  28.970   3.772
96753W        W58064  13.768  40.871   1.210
96754W        W58065  29.556   7.385   0.826
96755W        W58066  20.231  36.536  12.964
96756W        W58067  26.963  38.488  11.426
96757W        W58068   8.857  26.980  11.455
96758W        W58069  13.223   5.361   4.267
96759W        W58070  31.625  26.081   2.418
96760W        W58071  34.979   4.363  14.944
96761W        W58072  36.520   3.856   2.854
96762W        W58073  15.170  27.509   3.684
96763W        W58074  15.300  16.243   0.899
96764W        W58075  26.665  40.899  14.027
96765W        W58076  39.845  37.505  11.453
96766W        W58077   8.721  21.155  11.872
96767W        W58078   5.408  37.575   3.639
96768W        W58079  40.445  33.418  12.022
96769W        W58080  25.071  38.438  11.540
96770W        W58081   6.217  24.094   2.749
96771W        W58082  29.129  31.923   2.410
96772W        W58083  29.545   3.836   2.714
96773W        W58084  25.475   4.236  10.541
96774W        W58085   1.756  15.328   1.337
96775W        W58086  37.561  38.388  11.490
96776W        W58087  27.172  40.382  10.958
96777W        W58088   0.841  29.168   0.764
96778W        W58089  24.217   2.867   3.703
96779W        W58090  33.469  32.467   2.295
96780W        W58091  25.024  39.362   0.831
96781W        W58092  21.188  43.804   4.633
96782W        W58093  17.281  19.200  14.851
96783W        W58094  17.780   3.423   9.921
96784W        W58095  24.640  20.657   1.879
96785W        W58096  37.975  37.336  13.855
96786W        W58097  18.253  10.369   4.624
96787W        W58098   2.812  16.570   3.267
96788W        W58099   3.807  27.455   4.294
96789W        W58100  18.262  18.072   2.664
96790W        W58101  28.557  17.628  10.523
96791W        W58102  40.350  33.604   0.267
96792W        W58103   4.873   4.823   2.859
96793W        W58104  26.104   3.314  14.436
96794W        W58105  20.542   5.920   1.808
96795W        W58106  16.569  27.042   3.821
96796W        W58107   4.363   6.214  13.504
96797W        W58108  32.539  18.264   1.289
96798W        W58109  27.528  20.097   0.457
96799W        W58110  18.200  21.232  11.080
96800W        W58111   9.201   5.845  14.375
96801W        W58112  41.925  12.774  14.848
96802W        W58113  31.128  27.176  14.329
96803W        W58114  32.604  12.358  11.491
96804W        W58115  22.112  17.699  13.369
96805W        W58116  26.024   5.192  11.109
96806W        W58117  14.733   5.907  10.511
96807W        W58118  18.571  31.613  11.492
96808W        W58119   2.766  19.166  14.835
96809W        W58120  38.824  29.663   2.749
96810W        W58121  22.052  29.124   5.617
96811W        W58122  19.750  35.882   0.952
96812W        W58123   7.777  26.965  13.437
96813W        W58124  31.092  15.699   4.684
96814W        W58125   6.901  11.685   1.308
96815W        W58126  10.727  19.762  13.479
96816W        W58127  32.136  26.684   0.427
96817W        W58128  43.503   6.308  13.944
96818W        W58129   4.221  31.075   4.834
96819W        W58130   4.248  39.033  10.639
96820W        W58131  19.584  14.244   0.728
96821W        W58132  22.078   8.765   4.730
96822W        W58133   1.827  33.008  12.020
96823W        W58134  41.402  25.164   4.236
96824W        W58135  34.924   0.308  14.811
96825W        W58136  34.490  38.871  14.440
96826W        W58137   6.817  12.787  11.488
96827W        W58138   8.261  13.211  10.960
96828W        W58139  16.212  15.314  14.500
96829W        W58140  34.037  13.120  12.575
96830W        W58141  11.286  33.124  13.823
96831W        W58142  33.093  41.953  14.435
96832W        W58143  39.947  41.906  13.487
96833W        W58144  10.368   8.305   4.239
96834W        W58145  24.646   2.358   1.427
96835W        W58146  21.035  26.695   1.885
96836W        W58147  28.173  22.089  14.430
96837W        W58148  23.154  10.331  14.422
96838W        W58149  17.156  14.652   0.814
96839W        W58150   8.226  13.148  14.423
96840W        W58151  23.531  40.950   1.300
96841W        W58152  29.006  18.711   1.851
96842W        W58153  19.630  33.580  13.487
96843W        W58154   1.432   9.772   2.745
96844W        W58155   0.743   7.196   4.832
96845W        W58156  43.991  14.646  13.543
96846W        W58157  42.397  39.545   2.688
96847W        W58158  34.506  44.463   0.882
96848W        W58159   9.199  42.516  10.633
96849W        W58160  29.624  12.659  12.980
96850W        W58161  34.391  42.447   0.315
96851W        W58162  28.022  33.495   5.250
96852W        W58163  32.409  41.417   0.483
96853W        W58164   4.857  29.518   0.480
96854W        W58165   0.836  38.014  10.434
96855W        W58166  24.516  39.419  12.459
96856W        W58167  38.979   4.217  10.458
96857W        W58168   3.871  17.760   0.896
96858W        W58169  31.150  10.861   4.352
96859W        W58170  44.755  24.152  11.502
96860W        W58171   7.906   3.225   2.823
96861W        W58172   7.721  34.116   0.785
96862W        W58173  28.975   7.314  12.487
96863W        W58174  30.102  31.477  13.368
96864W        W58175  25.115  33.446  11.051
96865W        W58176  25.070  25.164   0.303
96866W        W58177  39.033  28.547  13.489
96867W        W58178   2.872   0.419  10.641
96868W        W58179  14.172   8.723   0.727
96869W        W58180   5.318  11.633   1.344
96870W        W58181  32.473   5.336  14.800
96871W        W58182   7.814  36.533   0.937
96872W        W58183  14.701  19.611   3.675
96873W        W58184  42.972   3.891   1.823
96874W        W58185  15.156  34.474   3.670
96875W        W58186  10.735   1.746   1.745
96876W        W58187  27.589   6.411  11.444
96877W        W58188  41.430  41.366   2.818
96878W        W58189  14.672  42.989   2.892
96879W        W58190   9.192  36.988   4.740
96880W        W58191  24.142  20.535  13.486
96881W        W58192  44.851  44.878  14.839
96882W        W58193  24.989  41.412   3.224
96883W        W58194   5.349  23.110   4.231
96884W        W58195   3.279  31.588   2.222
96885W        W58196  22.674  23.006   2.354
96886W        W58197  21.666   8.398   3.811
96887W        W58198  33.605   8.367   0.825
96888W        W58199  43.966   7.181  12.576
96889W        W58200   6.702  28.635  13.491
96890W        W58201  27.461  33.097   2.328
96891W        W58202  43.764  30.106   1.421
96892W        W58203  37.408  43.386  14.897
96893W        W58204   6.683  15.652   2.889
96894W        W58205  15.127  25.021   2.249
96895W        W58206  21.042  30.017  10.581
96896W        W58207  31.543  31.976  14.823
96897W        W58208  28.008  30.094  13.835
96898W        W58209  43.870  37.499  13.832
96899W        W58210  20.689  41.916  12.074
96900W        W58211  13.726  27.175   2.826
96901W        W58212  41.318  12.238  11.044
96902W        W58213  25.485   8.227   3.704
96903W        W58214  30.075  32.092  11.875
96904W        W58215  43.833  38.452   3.860
96905W        W58216  40.362   1.340   1.730
96906W        W58217  38.539   1.812   2.752
96907W        W58218   9.674  38.467   2.329
96908W        W58219   0.310  18.100  13.425
96909W        W58220   1.968  30.526   0.896
96910W        W58221   1.413  44.291  13.857
96911W        W58222  11.132  13.345  11.409
96912W        W58223  36.403   4.237   0.913
96913W        W58224  16.569  39.318  11.005
96914W        W58225  13.696   7.702  11.062
96915W        W58226  28.598  37.894   2.305
96916W        W58227   5.700   9.216   0.467
96917W        W58228  25.542  44.284  10.428
96918W        W58229  42.430   7.271   1.913
96919W        W58230  14.103   2.362  12.442
96920W        W58231  12.239   2.467  14.439
96921W        W58232  26.650   1.391   4.117
96922W        W58233  23.683  18.261   0.906
96923W        W58234  39.401  36.927   2.340
96924W        W58235  13.190  22.556  14.896
96925W        W58236  25.510   6.186  13.039
96926W        W58237  43.995   5.320   2.833
96927W        W58238  16.140   3.363   3.178
96928W        W58239  14.170   6.763   2.210
96929W        W58240  17.136   3.219  11.585
96930W        W58241  36.061  24.613  14.980
96931W        W58242  18.617  25.567   1.738
96932W        W58243  15.284  27.596  14.990
96933W        W58244   5.295   0.831   1.404
96934W        W58245   2.243   0.929  11.458
96935W        W58246  43.392  25.189  10.599
96936W        W58247  10.846  38.830   2.704
96937W        W58248   2.296  43.358  10.597
96938W        W58249  15.113  14.149   3.831
96939W        W58250  11.621  29.938   1.918
96940W        W58251  43.987  27.476   2.702
96941W        W58252  29.647  14.307  12.476
96942W        W58253   9.196  32.957  11.603
96943W        W58254  32.534  32.623   1.425
96944W        W58255  19.606  22.528   5.191
96945W        W58256  44.493  38.329  13.311
96946W        W58257  35.999  40.316  12.379
96947W        W58258   3.262  22.655   0.938
96948W        W58259  20.170   8.723   0.817
96949W        W58260  23.208   0.918  13.511
96950W        W58261  38.390  25.205  13.844
96951W        W58262  34.061  22.130  14.443
96952W        W58263  25.976  39.870  14.392
96953W        W58264  10.799  25.074  10.577
96954W        W58265  44.887  19.263   2.310
96955W        W58266  17.083  22.145   2.363
96956W        W58267  11.334  17.292  12.534
96957W        W58268   0.813  18.177  12.096
96958W        W58269  16.664  36.528  12.339
96959W        W58270  24.630  36.952   0.454
96960W        W58271  38.447  30.037   0.426
96961W        W58272  23.729  21.630  10.434
96962W        W58273  32.026  16.624  13.544
96963W        W58274  29.616  13.781   0.394
96964W        W58275  22.576   6.200  12.549
96965W        W58276  15.263  34.564   4.607
96966W        W58277  26.113   0.486  13.375
96967W        W58278   4.386  43.944  11.541
96968W        W58279  33.002  22.079  13.351
96969W        W58280  35.953   1.433  13.406
96970W        W58281  24.556  31.492  12.873
96971W        W58282  44.505  19.541   1.834
96972W        W58283  32.542  20.221  14.443
96973W        W58284  14.614   3.733   3.326
96974W        W58285  33.414  37.429  14.954
96975W        W58286   7.791   8.181   2.363
96976W        W58287  15.675  30.435   4.159
96977W        W58288  39.339  14.727  12.433
96978W        W58289   9.727  41.380  12.359
96979W        W58290   4.815  41.039   3.671
96980W        W58291  33.980  24.577  13.537
96981W        W58292  35.381  28.982   0.352
96982W        W58293   0.393  21.693   4.822
96983W        W58294  19.124  30.531   3.324
96984W        W58295  27.037  26.601   2.236
96985W        W58296   0.904  32.588   1.832
96986W        W58297  44.269  25.114  10.982
96987W        W58298  37.002   4.895  10.472
96988W        W58299   6.416  12.690   1.800
96989W        W58300  37.422  42.976  14.839
96990W        W58301   1.237  37.569   1.931
96991W        W58302   1.846  20.045   5.161
96992W        W58303  20.633  38.458  13.434
96993W        W58304  43.774  37.517   3.667
96994W        W58305  17.132  23.620  13.356
96995W        W58306  18.626  29.448   5.216
96996W        W58307  34.864  30.613  11.880
96997W        W58308  14.241  20.617  10.510
96998W        W58309  20.527  41.340  11.452
96999W        W58310  43.350   5.927   4.136
97000W        W58311  37.946   5.353   3.665
97001W        W58312  20.220   0.876  11.046
97002W        W58313  30.636   1.298   2.342
97003W        W58314  13.283  34.067   4.734
97004W        W58315  20.200   2.309  11.578
97005W        W58316   8.246  13.209  14.868
97006W        W58317  20.743   8.891  14.506
97007W        W58318  22.609   4.703   3.763
97008W        W58319  43.944  18.237  12.963
97009W        W58320  18.154  36.399  10.933
97010W        W58321  41.968  27.529  13.995
97011W        W58322  35.377  17.254   3.321
97012W        W58323  36.452  31.463  13.801
97013W        W58324  16.151  33.100  13.435
97014W        W58325  38.876  44.279  12.514
97015W        W58326  22.077  12.654  11.088
97016W        W58327   0.404  10.333  12.916
97017W        W58328  19.164  28.045   2.288
97018W        W58329  24.564  23.565   3.732
97019W        W58330  15.257  15.223  14.768
97020W        W58331  39.933  24.571   1.737
97021W        W58332   2.836  38.947   2.327
97022W        W58333   2.299   8.203   1.299
97023W        W58334  41.011   3.425   3.281
97024W        W58335  28.035  33.069   4.758
97025W        W58336  12.172  29.643  14.282
97026W        W58337  20.090   3.459   0.772
97027W        W58338  27.518  23.702   0.377
97028W        W58339  22.619  26.650  10.562
97029W        W58340   5.713   2.357   2.793
97030W        W58341  18.251  10.649  12.434
97031W        W58342  13.111  43.812  11.016
97032W        W58343  38.386  20.587   2.414
97033W        W58344  12.843  43.427  13.983
97034W        W58345  22.594   1.786  10.437
97035W        W58346  21.056  10.852   2.689
97036W        W58347  16.222  30.982  14.764
97037W        W58348   6.256   2.886  14.994
97038W        W58349   9.255  17.085   5.794
97039W        W58350  36.046   0.792  14.924
97040W        W58351  41.471   5.415   0.392
97041W        W58352   0.796  11.812   3.688
97042W        W58353  18.294  21.115   2.415
97043W        W58354  23.054   1.914  13.862
97044W        W58355  22.615  20.043   3.833
97045W        W58356  27.470  34.072   1.335
97046W        W58357  34.088  23.202  10.449
97047W        W58358  34.081  26.492   2.357
97048W        W58359  25.469  18.266  10.129
97049W        W58360  23.183  18.086  13.902
97050W        W58361  26.021  34.455  10.470
97051W        W58362  27.561  30.978  13.481
97052W        W58363  13.348  18.191   1.741
97053W        W58364  24.227  28.112   0.933
97054W        W58365  15.150  15.150  14.282
97055W        W58366  39.864  22.665  10.968
97056W        W58367   0.387   0.391   2.414
97057W        W58368  36.444   8.858  13.440
97058W        W58369  35.074  36.405   3.721
97059W        W58370  37.832  17.587   1.269
97060W        W58371  19.710  28.156  14.887
97061W        W58372  33.484  18.568  13.528
97062W        W58373  31.406  10.787  14.017
97063W        W58374  30.556   4.307  13.904
97064W        W58375  30.435  33.487   0.957
97065W        W58376  20.560  29.639   3.803
97066W        W58377  22.743  11.865   0.401
97067W        W58378  16.120  38.053  11.389
97068W        W58379  20.572  25.697   1.378
97069W        W58380  34.575  39.065  11.387
97070W        W58381  20.645  15.128   9.523
97071W        W58382  27.979   8.662  11.378
97072W        W58383  27.477  36.535  12.007
97073W        W58384  38.501  23.662  10.453
97074W        W58385   3.854   9.824  11.866
97075W        W58386   2.234  44.800  12.082
97076W        W58387  22.583  26.057  12.857
97077W        W58388  18.586   0.396  14.280
97078W        W58389  42.404  26.011   2.751
97079W        W58390   3.258  35.050   4.275
97080W        W58391  43.381  26.695  12.007
97081W        W58392   4.377   3.352  13.437
97082W        W58393  40.969  41.334   1.296
97083W        W58394  41.492  19.039   2.409
97084W        W58395  13.829  18.673  10.937
97085W        W58396  37.065  19.535  14.003
97086W        W58397   5.706   1.944   2.244
97087W        W58398  17.607   2.235  12.419
97088W        W58399   6.305  11.142   0.362
97089W        W58400   2.465   3.734  13.402
97090W        W58401  14.286   5.934   2.238
97091W        W58402  14.765  43.864   1.250
97092W        W58403  10.268  43.850  12.537
97093W        W58404  11.758   2.289  11.006
97094W        W58405  42.968  13.647  10.487
97095W        W58406  23.236  23.024   5.702
97096W        W58407  29.129  35.934  11.862
97097W        W58408  32.911  38.403  12.512
97098W        W58409  31.639  12.675   0.832
97099W        W58410  23.008  25.484   2.227
97100W        W58411  23.152  38.436   2.370
97101W        W58412  12.185  28.466   3.297
97102W        W58413  10.209  37.482   5.086
97103W        W58414  23.672  23.111   1.894
97104W        W58415  43.835  26.994  14.970
97105W        W58416   8.740  25.966   2.383
97106W        W58417  15.644  24.151   0.249
97107W        W58418  40.489   0.879  10.043
97108W        W58419  26.161  26.148   0.949
97109W        W58420  24.556  33.597   2.314
97110W        W58421   4.744  36.572  12.091
97111W        W58422  21.176  30.433   0.796
97112W        W58423  41.383  29.447   2.776
97113W        W58424  35.089   8.731   2.708
97114W        W58425  40.801   6.195   1.833
97115W        W58426  40.969  42.330  12.487
97116W        W58427  36.463  44.438  14.794
97117W        W58428  20.117  26.546  10.445
97118W        W58429  33.113  11.817  11.543
97119W        W58430  17.801  31.150  11.063
97120W        W58431   6.710  28.031   0.282
97121W        W58432  26.514  25.502   1.276
97122W        W58433  34.031   8.236   2.286
97123W        W58434   8.854  34.875  12.853
97124W        W58435  31.045  30.070   1.765
97125W        W58436  24.158  24.000  12.839
97126W        W58437  20.551  21.621  12.529
97127W        W58438  37.040  29.638   4.816
97128W        W58439  14.210   6.407   2.819
97129W        W58440  12.651  44.974   3.736
97130W        W58441  25.666  44.339   0.276
97131W        W58442   4.866  37.465  12.516
97132W        W58443  41.412  37.431  13.818
97133W        W58444   5.359  10.637  10.459
97134W        W58445  35.584  16.292   0.944
97135W        W58446   5.757  37.534  10.420
97136W        W58447  15.797  20.089   4.324
97137W        W58448  26.488  11.850   2.212
97138W        W58449  19.749  19.566  14.513
97139W        W58450   9.331  18.210  12.004
97140W        W58451  21.523  31.593   1.702
97141W        W58452  13.296   9.788  10.477
97142W        W58453   0.870  25.963  12.451
97143W        W58454   3.821  44.754  12.941
97144W        W58455  37.940  43.498   1.321
97145W        W58456  18.722  40.525  14.399
97146W        W58457  34.972  29.068  14.367
97147W        W58458  10.796  28.939  14.481
97148W        W58459  31.152  41.324  13.925
97149W        W58460  32.939  13.209   4.145
97150W        W58461   4.261  30.071  11.601
97151W        W58462   9.375   3.925   2.814
97152W        W58463  31.075   5.711   3.356
97153W        W58464  40.949  31.565  14.765
97154W        W58465  43.795  27.684   3.767
97155W        W58466  41.413  18.076   4.311
97156W        W58467  30.487   3.765  13.988
97157W        W58468  33.569  14.760  12.838
97158W        W58469  24.622  13.298  14.371
97159W        W58470  27.030   4.825  10.532
97160W        W58471  42.343   1.313   4.311
97161W        W58472  20.093  24.134   4.695
97162W        W58473  20.739  31.604  10.131
97163W        W58474  11.766  26.644   4.214
97164W        W58475  17.175  17.101  12.551
97165W        W58476  23.602  32.456   5.752
97166W        W58477  10.289   5.414   1.356
97167W        W58478   1.317  35.595  12.928
97168W        W58479   7.713  40.473   9.966
97169W        W58480  28.487   9.748   0.399
97170W        W58481  41.377  20.079  12.955
97171W        W58482  21.723   1.782   1.309
97172W        W58483  16.139  22.126   3.381
97173W        W58484  16.684  31.566  13.339
97174W        W58485  37.545   1.894   4.135
97175W        W58486  17.666  25.576  14.017
97176W        W58487  44.763  43.435   3.847
97177W        W58488  34.087  40.466   3.645
97178W        W58489  31.475  11.819   2.832
97179W        W58490  41.998   2.802   4.710
97180W        W58491  37.357  40.348   5.161
97181W        W58492   8.321   8.362   3.697
97182W        W58493  29.585   8.712  14.937
97183W        W58494  11.299  21.633   0.257
97184W        W58495  26.129   1.275  10.539
97185W        W58496  37.515  32.140  14.846
97186W        W58497  27.473  39.449  11.439
97187W        W58498  27.627  14.291   0.315
97188W        W58499  14.690  12.225  12.070
97189W        W58500  29.622   1.462   3.352
97190W        W58501  25.102   8.781  10.457
97191W        W58502  23.511  28.975   9.477
97192W        W58503  11.835   3.715  11.557
97193W        W58504  23.565  41.432  14.822
97194W        W58505  15.635  38.442  11.988
97195W        W58506  39.315  28.964   4.134
97196W        W58507  29.549  34.586  11.440
97197W        W58508  38.332   4.788   3.671
97198W        W58509  18.697  23.029   3.203
97199W        W58510   0.338  33.952  13.336
97200W        W58511  11.261  19.730   1.786
97201W        W58512  20.119   8.727  12.552
97202W        W58513  33.400  19.233  10.455
97203W        W58514  11.190  13.725   2.745
97204W        W58515   9.838   9.177   1.890
97205W        W58516  18.169  33.579  14.972
97206W        W58517  38.829   0.302  13.434
97207W        W58518  32.031  42.945  10.097
97208W        W58519   0.757  25.568   4.756
97209W        W58520  11.177  40.894  12.580
97210W        W58521  29.931  12.309  10.477
97211W        W58522  27.144   8.688   4.207
97212W        W58523   3.875  37.341   4.251
97213W        W58524  27.961  34.576   2.315
97214W        W58525  14.639   2.409  13.492
97215W        W58526  34.974  43.350  14.892
97216W        W58527   2.368  17.290  13.996
97217W        W58528  44.451   5.726  14.436
97218W        W58529  40.460  10.167   2.193
97219W        W58530   9.665  16.700  14.875
97220W        W58531  37.930  10.272  13.032
97221W        W58532  34.595  23.632   1.853
97222W        W58533  44.822  44.862  13.795
97223W        W58534  20.223   8.386   3.630
97224W        W58535   6.896  44.421  11.518
97225W        W58536   4.856  16.110   3.282
97226W        W58537  31.086  18.225  12.558
97227W        W58538  20.069  19.051   2.254
97228W        W58539  33.012  22.592  14.309
97229W        W58540  29.540  13.322  14.338
97230W        W58541  10.667  26.023  13.821
97231W        W58542   5.820  28.467  10.633
97232W        W58543  43.365  33.918   1.286
97233W        W58544  32.418   1.275   4.808
97234W        W58545  35.539  13.832  13.045
97235W        W58546  44.006   9.701   3.332
97236W        W58547   8.249  28.945  11.456
97237W        W58548  19.724  21.522  10.899
97238W        W58549  25.134   0.927   0.865
97239W        W58550  10.342  32.558  10.913
97240W        W58551  36.382   3.432   0.359
97241W        W58552  28.459  19.655  11.097
97242W        W58553  26.052  43.393   3.715
97243W        W58554  22.718  23.082   3.199
97244W        W58555  11.776   6.685   9.939
97245W        W58556  10.798  14.235   2.785
97246W        W58557  35.400  16.601   0.925
97247W        W58558  12.702   1.330  14.312
97248W        W58559  28.513  42.483   1.271
97249W        W58560  12.823  28.122  11.447
97250W        W58561  10.289   4.224   1.787
97251W        W58562  38.328   9.752  12.581
97252W        W58563  20.570  28.130  12.899
97253W        W58564  40.380  38.476  10.889
97254W        W58565  17.625  28.122  14.867
97255W        W58566  44.804  19.198   4.682
97256W        W58567   9.817  35.512   2.821
97257W        W58568   4.827  15.175  13.935
97258W        W58569  37.529  16.670  14.491
97259W        W58570   5.207  26.178   0.764
97260W        W58571   3.252  32.073  10.596
97261W        W58572  36.908  10.284  13.311
97262W        W58573  28.541  27.680  13.928
97263W        W58574  35.100   1.945   1.285
97264W        W58575  15.751  32.059   4.349
97265W        W58576   6.799  29.070  10.423
97266W        W58577   6.877  33.125  10.409
97267W        W58578  37.863  12.270  10.452
97268W        W58579  26.601  35.976  13.878
97269W        W58580  34.411  12.117  14.898
97270W        W58581  21.028  35.991   3.739
97271W        W58582  26.177  28.033   0.310
97272W        W58583  10.374  14.763   5.108
97273W        W58584   7.811  37.983   3.188
97274W        W58585  20.222  40.370  10.565
97275W        W58586  31.534  18.209  12.961
97276W        W58587  25.072  24.150   4.157
97277W        W58588  33.449   9.741  13.939
97278W        W58589   4.702  22.596  13.451
97279W        W58590  22.094   8.757   0.919
97280W        W58591  17.791  37.886   4.603
97281W        W58592  31.991  38.418  11.892
97282W        W58593  34.605  10.871  12.842
97283W        W58594   8.843  43.943   0.265
97284W        W58595  39.841   1.951   3.845
97285W        W58596  26.485  12.635   0.379
97286W        W58597  35.043  22.596  13.388
97287W        W58598  33.880   3.360  11.914
97288W        W58599   6.306  11.351  14.279
97289W        W58600   3.921   9.865  12.895
97290W        W58601  12.727  24.106  14.816
97291W        W58602  14.625  34.420  13.482
97292W        W58603   8.863  35.502  11.579
97293W        W58604  43.340  14.652   0.286
97294W        W58605  21.191   2.369   3.847
97295W        W58606  43.300  36.996  10.902
97296W        W58607  10.171  39.353  12.011
97297W        W58608  33.970   5.834   0.861
97298W        W58609  16.723   9.233   3.352
97299W        W58610  30.598  44.372   3.795
97300W        W58611  27.592  36.470  13.928
97301W        W58612  42.883  21.173   1.865
97302W        W58613  27.149   6.219  11.451
97303W        W58614  26.148  24.588  14.408
97304W        W58615  39.552  28.181   0.821
97305W        W58616  23.540  23.589  12.547
97306W        W58617  37.482  37.336   0.409
97307W        W58618  22.635  30.629   2.369
97308W        W58619  28.512  42.022  14.441
97309W        W58620  20.191  10.169   5.210
97310W        W58621  21.683  32.079   2.824
97311W        W58622   6.395  36.046   0.887
97312W        W58623  11.724   3.283   4.262
97313W        W58624  37.833  14.259  11.053
97314W        W58625   8.805  31.900   0.789
97315W        W58626  25.662  43.821  13.810
97316W        W58627  20.609  10.819   2.833
97317W        W58628  38.898  15.127  13.062
97318W        W58629   8.170  30.933   1.408
97319W        W58630   5.320  43.364   1.724
97320W        W58631   3.849  11.635   1.237
97321W        W58632   9.262   9.772  13.484
97322W        W58633  44.357  34.980   0.735
97323W        W58634  18.691  23.656  13.861
97324W        W58635  26.640   8.752   5.109
97325W        W58636  36.990  40.526  10.471
97326W        W58637  16.103  44.306   0.462
97327W        W58638   2.759   3.735   0.931
97328W        W58639  29.635  26.147  13.907
97329W        W58640  21.061  21.072   0.361
97330W        W58641  43.288   5.367   0.367
97331W        W58642   9.652   1.861   3.378
97332W        W58643  21.672   4.836  10.584
97333W        W58644  39.992  27.600   4.690
97334W        W58645   1.920  15.324  14.907
97335W        W58646  33.537  40.923  10.030
97336W        W58647  36.568  37.034  12.518
97337W        W58648  22.093  17.582   1.737
97338W        W58649  23.652  42.916   0.853
97339W        W58650  32.119  31.918  14.357
97340W        W58651  34.067   1.935   1.727
97341W        W58652  16.670  33.116  14.501
97342W        W58653  27.483  18.067   0.471
97343W        W58654  14.094  28.511  11.967
97344W        W58655  20.702  40.928  11.576
97345W        W58656   1.970  43.466  11.390
97346W        W58657  13.314  30.659   1.768
97347W        W58658  20.707  24.979   3.702
97348W        W58659  37.575   8.259   4.701
97349W        W58660  23.570  34.958  13.458
97350W        W58661  39.919   4.910   3.160
97351W        W58662  16.621  10.717   0.751
97352W        W58663  10.271  19.666  13.377
97353W        W58664  10.827   9.171   3.324
97354W        W58665  28.958  35.405   2.756
97355W        W58666  26.599  13.229   1.747
97356W        W58667  34.599   0.400  12.868
97357W        W58668  20.631  38.433  14.834
97358W        W58669  33.617  10.284  10.003
97359W        W58670  33.547  27.196  10.062
97360W        W58671  29.618  37.057  11.409
97361W        W58672  23.534  38.416   9.947
97362W        W58673  26.010  38.070  10.477
97363W        W58674  21.132  32.479   3.382
97364W        W58675  44.780  28.120  11.092
97365W        W58676  26.504  23.124  13.940
97366W        W58677   4.866   4.372  14.835
97367W        W58678   1.802  22.665  11.887
97368W        W58679  11.295  22.695   0.840
97369W        W58680  15.254   4.770   3.367
97370W        W58681   1.928   8.786  14.941
97371W        W58682  17.723  40.909   2.238
97372W        W58683  11.324  34.067  11.976
97373W        W58684  44.007  22.554   0.894
97374W        W58685   7.259  42.977  12.020
97375W        W58686  19.163  12.637  13.807
97376W        W58687   3.777  19.248   9.596
97377W        W58688  10.298   6.911  13.910
97378W        W58689  41.460  19.253   1.275
97379W        W58690  15.747  25.997   4.835
97380W        W58691  34.474  19.720   3.783
97381W        W58692  25.586   1.852   3.857
97382W        W58693  24.153  11.337   4.329
97383W        W58694  25.598   6.220   1.223
97384W        W58695  26.205  31.441   2.718
97385W        W58696  25.642  10.747  13.420
97386W        W58697  37.009  18.627  14.769
97387W        W58698  36.368  12.334  12.823
97388W        W58699   3.441  24.693   1.375
97389W        W58700  39.413  30.076   1.744
97390W        W58701   7.319  31.454   4.291
97391W        W58702   7.713  11.839  14.316
97392W        W58703   8.688  18.604  11.444
97393W        W58704  23.506  16.616   0.779
97394W        W58705  43.400  26.553   2.229
97395W        W58706  20.552  19.122   1.334
97396W        W58707  39.511  10.259  10.466
97397W        W58708  29.980  25.637  12.504
97398W        W58709  34.546  31.955   3.684
97399W        W58710  41.444  33.588   4.731
97400W        W58711  31.025  24.535  12.011
97401W        W58712  10.341  19.039  11.373
97402W        W58713  10.345   8.758   2.336
97403W        W58714  35.967  36.976   0.312
97404W        W58715  36.893   9.651  12.880
97405W        W58716   6.718   7.238  14.882
97406W        W58717  39.009  12.735   2.203
97407W        W58718  10.335  22.189  14.860
97408W        W58719  38.036  19.198   1.383
97409W        W58720  32.483  23.198  14.903
97410W        W58721   9.169   5.898   3.712
97411W        W58722   1.940  41.016   4.606
97412W        W58723  27.533  18.571   4.795
97413W        W58724  12.795  22.504   0.436
97414W        W58725  30.028  20.051   4.659
97415W        W58726   8.181   8.266   3.355
97416W        W58727  43.432   4.388  12.984
97417W        W58728  36.569  23.216   0.792
97418W        W58729  11.691  23.074   1.378
97419W        W58730  21.244  37.457  11.992
97420W        W58731  24.988  27.063   3.743
97421W        W58732  37.437  17.187  11.450
97422W        W58733   4.343   5.901   2.394
97423W        W58734  10.694   2.932  11.588
97424W        W58735  41.462  27.656   3.180
97425W        W58736  26.045  15.598  10.959
97426W        W58737  41.480  13.173   2.401
97427W        W58738  41.999  18.258   2.666
97428W        W58739   7.318   4.860   2.898
97429W        W58740  41.308  30.908  13.318
97430W        W58741   2.830   1.965   0.284
97431W        W58742  17.274  41.799   3.705
97432W        W58743  14.630  42.472   3.733
97433W        W58744  32.981  39.350  13.471
97434W        W58745   1.382  30.953   1.383
97435W        W58746  38.374  13.761   0.912
97436W        W58747   9.690  10.149  10.573
97437W        W58748  22.696  13.238   2.326
97438W        W58749  33.541  24.627  13.323
97439W        W58750   2.876  41.012   0.246
97440W        W58751   5.314  41.363   1.855
97441W        W58752   9.656  35.998   0.424
97442W        W58753  15.317  17.126  12.085
97443W        W58754   9.733   8.802  11.059
97444W        W58755  28.945  21.244  13.494
97445W        W58756   5.323  14.154   0.420
97446W        W58757  18.108   7.209   2.375
97447W        W58758  32.077  22.517  14.281
97448W        W58759  21.214  42.405   0.316
97449W        W58760  38.367  39.920   1.321
97450W        W58761  42.317   8.273   3.702
97451W        W58762  31.637  34.951   3.658
97452W        W58763  14.748   3.907  12.963
97453W        W58764  29.516  34.580   1.747
97454W        W58765  37.520  44.902   1.841
97455W        W58766   4.812   3.343  10.939
97456W        W58767   3.392  38.464   3.320
97457W        W58768  34.111  15.767   3.749
97458W        W58769  41.507  10.355  10.474
97459W        W58770  28.533  25.550  13.521
97460W        W58771  18.687  23.992  11.004
97461W        W58772   7.413  36.066   3.719
97462W        W58773  35.052  15.161   1.850
97463W        W58774  37.358   4.277  15.000
97464W        W58775  25.627  20.556   4.227
97465W        W58776  19.576   9.205  11.996
97466W        W58777   3.332   6.305   2.737
97467W        W58778  42.776  13.256   0.773
97468W        W58779   5.432  38.882  14.777
97469W        W58780  34.537  23.077   0.823
97470W        W58781  42.288   5.432  14.282
97471W        W58782  18.790  19.283  11.572
97472W        W58783  31.493  23.003  13.510
97473W        W58784   7.736  13.259  14.836
97474W        W58785  38.028  39.020  13.415
97475W        W58786  29.080  12.727   0.270
97476W        W58787   0.744   0.272   3.661
97477W        W58788   1.878  30.519   0.312
97478W        W58789  14.720  35.585  12.574
97479W        W58790  16.202  38.373  10.969
97480W        W58791  26.969  13.638  12.049
97481W        W58792  26.639   2.306  14.999
97482W        W58793  16.806  12.199   5.699
97483W        W58794  42.345  20.551  11.511
97484W        W58795  25.537  11.745   2.236
97485W        W58796  25.539  31.071   1.332
97486W        W58797  42.385  40.521  11.864
97487W        W58798   0.344  13.728   0.377
97488W        W58799  10.851   4.376  13.307
97489W        W58800  37.378   3.257   4.662
97490W        W58801  21.153  14.608   3.382
97491W        W58802  23.690  27.582  10.609
97492W        W58803   5.826  17.562  11.589
97493W        W58804  38.828   3.438  12.931
97494W        W58805  42.299   2.885  12.400
97495W        W58806  21.526  44.836   3.379
97496W        W58807  41.502  41.510  12.079
97497W        W58808  25.139  11.744   0.472
97498W        W58809  13.674  13.286  12.417
97499W        W58810   8.738  20.594   3.179
97500W        W58811  25.139  15.756   3.834
97501W        W58812  17.633  42.323  14.411
97502W        W58813  32.101  39.058  13.879
97503W        W58814  36.081  42.298   2.369
97504W        W58815   8.783  18.190   4.266
97505W        W58816  10.876  30.652  10.906
97506W        W58817  13.269  23.718   2.369
97507W        W58818  40.971  20.194  12.521
97508W        W58819  35.002  28.508   1.338
97509W        W58820  28.618  37.339  10.514
97510W        W58821  26.985  43.340  12.030
97511W        W58822  32.466  31.616  13.810
97512W        W58823  32.530  22.187  10.486
97513W        W58824  42.988  10.754   0.774
97514W        W58825  26.059  37.477  12.553
97515W        W58826  18.723  43.355  14.794
97516W        W58827  38.977  39.360  12.395
97517W        W58828  12.713  10.647   4.762
97518W        W58829   0.363  31.976  14.937
97519W        W58830  43.326  16.175  10.616
97520W        W58831   8.729  16.103  10.065
97521W        W58832  16.187  41.307  12.008
97522W        W58833   7.688  40.482   0.805
97523W        W58834   4.749  31.007  12.935
97524W        W58835  25.496  15.227   4.727
97525W        W58836  34.944  27.988   3.291
97526W        W58837   0.318  41.500   4.806
97527W        W58838  39.948  21.659   3.680
97528W        W58839   1.418   5.889   3.783
97529W        W58840  13.127  29.493  10.901
97530W        W58841  26.993  44.344  12.554
97531W        W58842   6.756   1.816  10.522
97532W        W58843  19.101  30.018  12.879
97533W        W58844  15.795  37.532   2.384
97534W        W58845   8.872  27.659   3.829
97535W        W58846  20.074  19.250   4.713
97536W        W58847  20.072  12.773   0.423
97537W        W58848  38.938  27.680   4.609
97538W        W58849  26.150  11.191   1.769
97539W        W58850  39.520  29.494  10.483
97540W        W58851  29.431  36.866  12.573
97541W        W58852   1.870  23.016   1.910
97542W        W58853  14.625  27.107  10.643
97543W        W58854  13.703  12.117  12.063
97544W        W58855  19.732  44.958  14.341
97545W        W58856  28.679   4.924   2.816
97546W        W58857  38.041  12.771  12.906
97547W        W58858  17.189   0.478  12.440
97548W        W58859  38.451   2.251   1.438
97549W        W58860   8.871  28.603   4.804
97550W        W58861   2.765  38.465   4.197
97551W        W58862  25.561  36.995   0.804
97552W        W58863  38.841  28.098   0.936
97553W        W58864  38.828  12.641   0.305
97554W        W58865  29.970  10.359   0.272
97555W        W58866  18.225  36.095  12.571
97556W        W58867  24.551   3.276   4.745
97557W        W58868  42.458  38.359  10.976
97558W        W58869  12.300  33.558   1.366
97559W        W58870  32.397   7.825  14.009
97560W        W58871  39.967  30.427   2.230
97561W        W58872  33.888  12.776   0.469
97562W        W58873   8.737  15.684   4.745
97563W        W58874  20.618   3.779  14.871
97564W        W58875  44.002   1.296  10.560
97565W        W58876  36.453   3.423   2.748
97566W        W58877   6.849  37.980   4.633
97567W        W58878  14.210  29.084   3.159
97568W        W58879   6.840  16.572  10.609
97569W        W58880  21.511  11.151  11.947
97570W        W58881   3.722  38.844   2.817
97571W        W58882  33.452  18.659   4.749
97572W        W58883  12.247  35.372   4.292
97573W        W58884  31.550  38.962   2.718
97574W        W58885  43.457   7.171   1.898
97575W        W58886  35.419   9.786   0.268
97576W        W58887   9.875  18.293  12.005
97577W        W58888  28.588  21.136   1.410
97578W        W58889  41.985   5.311   2.339
97579W        W58890  40.965  40.426   9.955
97580W        W58891   7.792  22.660   0.257
97581W        W58892  22.503  43.428   2.358
97582W        W58893  29.948   2.900  10.426
97583W        W58894   4.881  22.234  10.920
97584W        W58895   1.480  17.204   2.315
97585W        W58896   1.953  23.225   3.799
97586W        W58897  27.139   4.935   1.834
97587W        W58898  36.024  11.132   4.674
97588W        W58899   7.349  37.053   2.202
97589W        W58900  24.615  41.375  12.074
97590W        W58901  26.123   9.372   0.780
97591W        W58902  12.119   7.900   0.826
97592W        W58903  35.541  18.689  13.952
97593W        W58904   2.948   4.445   1.266
97594W        W58905  30.498   2.415   2.388
97595W        W58906  12.722  23.648   9.981
97596W        W58907   4.438  35.908  12.362
97597W        W58908  36.399  37.900   2.748
97598W        W58909  14.757   9.828  10.635
97599W        W58910  21.756  33.586   0.747
97600W        W58911  26.571  36.098   3.631
97601W        W58912  12.193  10.663   0.865
97602W        W58913  41.451  11.150   0.904
97603W        W58914   9.356  19.135   4.229
97604W        W58915   6.705   8.709  11.534
97605W        W58916   7.740  43.825   0.915
97606W        W58917  38.948  23.181   4.154
97607W        W58918  44.809  24.507  11.506
97608W        W58919  18.055   8.826  11.430
97609W        W58920  43.451  41.367  10.483
97610W        W58921   5.361  16.300  11.520
97611W        W58922  37.084  16.647   0.726
97612W        W58923  22.647  29.121  12.022
97613W        W58924  11.157  24.480  12.549
97614W        W58925  22.712   8.360  11.077
97615W        W58926   6.279   6.238  10.976
97616W        W58927  31.026  11.778  11.409
97617W        W58928  30.013  20.083  10.953
97618W        W58929  35.449  14.275   4.756
97619W        W58930   0.374  23.997   3.726
97620W        W58931  27.019  24.580   3.335
97621W        W58932   1.452  28.967   4.775
97622W        W58933  16.293  21.715  12.492
97623W        W58934  12.839  36.584  12.531
97624W        W58935   2.331  13.283   1.288
97625W        W58936  41.912   6.267   1.215
97626W        W58937  15.593  42.879   2.345
97627W        W58938   8.699  19.565   4.796
97628W        W58939  36.846   5.732   0.778
97629W        W58940  31.468  19.541   4.659
97630W        W58941   3.788  36.016  13.023
97631W        W58942  27.954   6.738   3.213
97632W        W58943  37.886  25.591  14.419
97633W        W58944  24.513  42.006   1.316
97634W        W58945  15.718  16.709   0.732
97635W        W58946  24.567   3.726  12.529
97636W        W58947   3.943   4.382   2.838
97637W        W58948   7.274  17.663   1.876
97638W        W58949  23.671  10.823   4.662
97639W        W58950  36.939   0.455   1.249
97640W        W58951  39.894  25.159  12.489
97641W        W58952  17.202   2.816   4.142
97642W        W58953  18.626  17.593   4.243
97643W        W58954  32.066  34.052   4.834
97644W        W58955  34.870  39.897   4.610
97645W        W58956  35.418  35.008  12.072
97646W        W58957   5.408  16.791   2.216
97647W        W58958  13.153  23.010   0.905
97648W        W58959   6.244  34.467   3.247
97649W        W58960  12.710  25.197  14.981
97650W        W58961   7.330   2.804  14.986
97651W        W58962  11.165  18.649   2.663
97652W        W58963   1.242  32.933  11.380
97653W        W58964  44.300   0.960  10.021
97654W        W58965  26.589   9.212  14.859
97655W        W58966  27.065  14.302   1.748
97656W        W58967  21.076  32.562   1.768
97657W        W58968  28.662  20.107   0.859
97658W        W58969   7.770  36.031   0.270
97659W        W58970   0.372  35.859   1.449
97660W        W58971   2.265  24.166  12.964
97661W        W58972  19.673  29.497   3.366
97662W        W58973  42.850  32.943   3.669
97663W        W58974   4.715   8.708  11.402
97664W        W58975  29.039  18.097  14.451
97665W        W58976  15.651  35.983   1.365
97666W        W58977  38.434  38.000   0.426
97667W        W58978  37.417  30.468   1.918
97668W        W58979  10.165  10.685  13.436
97669W        W58980  32.466  11.238  12.457
97670W        W58981  12.334  18.253  14.000
97671W        W58982  14.306  34.480   2.308
97672W        W58983  17.185  31.120  14.445
97673W        W58984  20.241  31.515  11.026
97674W        W58985  42.900  29.175   3.821
97675W        W58986  14.770  42.415   0.744
97676W        W58987  18.706  23.674  14.456
97677W        W58988  23.535   4.403  12.390
97678W        W58989  12.754  13.649   4.182
97679W        W58990  21.596  23.157   3.715
97680W        W58991   9.270  41.318  14.415
97681W        W58992  43.969  40.991   3.703
97682W        W58993  37.069  27.664   5.778
97683W        W58994  11.174   2.794  14.811
97684W        W58995  36.950  31.136   1.237
97685W        W58996  23.162   0.282  12.902
97686W        W58997  17.227   0.955   4.737
97687W        W58998  29.113  23.094   4.242
97688W        W58999  18.663  13.608   0.878
97689W        W59000  41.316  34.506   3.784
97690W        W59001  20.083  40.402  11.529
97691W        W59002  34.420  24.680  13.526
97692W        W59003   6.733   8.843   3.809
97693W        W59004  24.155   0.360   1.771
97694W        W59005  27.057   2.402  13.498
97695W        W59006  29.570  26.615  10.968
97696W        W59007  25.571  34.992   1.712
97697W        W59008  14.213  33.983  13.429
97698W        W59009  42.338  32.945   3.333
97699W        W59010  29.440  15.631   0.825
97700W        W59011  39.389  15.669  11.110
97701W        W59012   2.396  23.623  12.970
97702W        W59013  39.060  39.341   2.737
97703W        W59014   5.319  10.285   4.822
97704W        W59015   2.828  23.603   1.384
97705W        W59016  32.920   7.846   0.453
97706W        W59017  39.465  17.170  12.851
97707W        W59018  30.652  33.050   2.192
97708W        W59019  16.164  39.902   3.731
97709W        W59020  28.553   7.893  11.377
97710W        W59021  15.652  31.914  12.480
97711W        W59022  29.083  30.019   1.850
97712W        W59023  33.610   8.712  11.990
97713W        W59024   3.427   1.783  12.502
97714W        W59025  34.099  30.116   3.290
97715W        W59026  18.096  12.295   4.604
97716W        W59027  17.659  10.854  13.939
97717W        W59028   6.345  14.719  10.629
97718W        W59029   3.776   4.259   4.192
97719W        W59030  40.974  18.179  11.576
97720W        W59031  38.364   1.865  13.917
97721W        W59032  27.978  22.610  11.496
97722W        W59033  23.205   7.347  11.086
97723W        W59034  13.792   1.803  13.969
97724W        W59035  30.525  36.019  11.035
97725W        W59036  40.413  34.443   4.236
97726W        W59037  11.649  27.612   1.767
97727W        W59038  23.733  14.326  13.028
97728W        W59039  28.593  17.790  11.434
97729W        W59040  25.500   0.942   4.610
97730W        W59041  24.999  15.717  11.492
97731W        W59042  21.671   9.860  12.560
97732W        W59043   2.423  19.628  12.027
97733W        W59044  40.375  34.945   4.236
97734W        W59045  12.756   3.942   0.801
97735W        W59046  12.232  25.629   1.784
97736W        W59047  18.079  34.428   4.661
97737W        W59048  42.526  43.771  14.326
97738W        W59049  28.518   0.820   1.890
97739W        W59050  37.962   6.857  12.533
97740W        W59051  13.204  36.904   4.232
97741W        W59052  20.223  43.984  13.848
97742W        W59053  39.486  21.605   2.311
97743W        W59054  38.334  13.647   3.274
97744W        W59055   5.266  29.091  11.602
97745W        W59056  22.624  32.921   1.309
97746W        W59057   5.253  34.961  14.971
97747W        W59058  28.005  19.174  12.472
97748W        W59059   0.387  11.310  14.841
97749W        W59060  12.786  43.400  13.425
97750W        W59061   4.911  23.225  13.857
97751W        W59062   5.772  38.016  11.996
97752W        W59063  41.538  41.472   3.305
97753W        W59064  23.736  27.562   4.181
97754W        W59065  18.702   2.792   1.277
97755W        W59066   5.769   3.856   4.723
97756W        W59067  30.553  13.744   4.759
97757W        W59068  34.949  41.825  14.999
97758W        W59069  11.860  30.081   4.125
97759W        W59070   4.799  12.672  10.548
97760W        W59071  22.721   2.234   4.779
97761W        W59072  39.952  20.692  13.800
97762W        W59073   7.731  21.167   0.872
97763W        W59074  37.473  39.052  12.065
97764W        W59075  11.817  19.259   4.761
97765W        W59076  14.262  19.745  11.532
97766W        W59077  41.957  19.055  12.431
97767W        W59078  31.971   7.382   3.704
97768W        W59079  21.223  21.520  12.838
97769W        W59080  28.078  24.511  14.416
97770W        W59081  38.418  16.194  13.831
97771W        W59082   1.467  26.701   2.834
97772W        W59083  30.623   0.463  10.553
97773W        W59084  34.584   7.371   2.687
97774W        W59085  28.556   4.938  10.110
97775W        W59086  37.493  24.001   3.756
97776W        W59087  28.591  25.506   0.948
97777W        W59088  16.183  21.610   4.142
97778W        W59089  35.039  10.358   1.447
97779W        W59090  42.967  37.358  10.541
97780W        W59091  33.933  12.629  11.390
97781W        W59092  14.770  33.986  12.085
97782W        W59093  40.968  24.053   2.325
97783W        W59094  27.573  22.533   3.680
97784W        W59095  28.541   7.390   4.748
97785W        W59096  28.124  41.530  14.442
97786W        W59097  32.448  28.013  13.499
97787W        W59098  22.673   4.272   1.359
97788W        W59099  27.499  18.791  14.831
97789W        W59100  29.621  19.548  13.333
97790W        W59101  43.859  31.095  12.009
97791W        W59102   2.241  28.605  14.453
97792W        W59103  37.997  22.138   3.698
97793W        W59104  41.445  30.423   2.378
97794W        W59105   9.370  26.515  14.423
97795W        W59106  43.431  38.940   1.903
97796W        W59107  31.420  20.247  14.369
97797W        W59108   2.881  35.373  13.523
97798W        W59109  37.007  18.696   1.427
97799W        W59110  38.554  10.711   4.831
97800W        W59111  19.192  20.202  13.340
97801W        W59112  15.745  35.549  12.946
97802W        W59113   5.773   3.313  13.062
97803W        W59114  38.893  15.274  10.607
97804W        W59115   5.310  14.306   0.785
97805W        W59116   5.848  23.241   4.631
97806W        W59117  30.534  18.173   1.255
97807W        W59118  20.159   9.328  12.834
97808W        W59119  10.754  35.096   0.348
97809W        W59120  26.015  28.152   1.863
97810W        W59121  17.703   2.377   0.310
97811W        W59122   2.825  16.625  11.927
97812W        W59123  23.078  40.859   3.329
97813W        W59124   3.272   0.846   4.650
97814W        W59125  12.332  19.218   0.873
97815W        W59126  24.018  17.638  13.375
97816W        W59127  29.436   8.170  13.062
97817W        W59128  34.909  41.877   2.871
97818W        W59129  26.502  35.023   0.850
97819W        W59130  44.922  39.022   1.698
97820W        W59131   0.334  24.016  12.986
97821W        W59132  33.978  28.452  14.479
97822W        W59133  27.681  27.115  10.581
97823W        W59134  29.081   2.246   4.765
97824W        W59135  35.529   9.359   2.886
97825W        W59136  24.016  13.174   1.219
97826W        W59137  29.610   1.479  14.785
97827W        W59138  14.283  41.796   4.712
97828W        W59139  36.961  42.852   4.310
97829W        W59140   9.238  14.130  14.888
97830W        W59141  38.901  30.436  14.511
97831W        W59142  20.046  31.593  13.402
97832W        W59143  34.061  13.350   1.915
97833W        W59144  34.596   7.902  13.992
97834W        W59145  33.936  37.401   4.636
97835W        W59146  24.198  30.628   3.812
97836W        W59147  19.107  18.094   4.597
97837W        W59148  22.057   0.436  13.887
97838W        W59149  17.180   7.676  14.362
97839W        W59150  34.076   0.359  14.862
97840W        W59151   9.717   7.175  11.420
97841W        W59152  11.352  39.460   4.729
97842W        W59153  21.591  41.407   2.677
97843W        W59154   7.249  22.571  10.894
97844W        W59155  42.977   7.288  12.023
97845W        W59156   1.936  36.880  14.486
97846W        W59157   8.689  43.883   2.698
97847W        W59158  14.247  34.612  14.920
97848W        W59159  11.308   5.324   0.336
97849W        W59160  35.015  35.964   9.994
97850W        W59161  10.190  26.070   0.384
97851W        W59162  24.697  17.582  10.487
97852W        W59163   3.224  42.501   2.831
97853W        W59164  43.297  25.624   3.815
97854W        W59165   8.860  10.272   3.241
97855W        W59166   8.330  32.930  14.776
97856W        W59167   9.229   4.732   2.700
97857W        W59168  35.601  39.008  11.589
97858W        W59169  27.645   0.813   2.361
97859W        W59170  13.232  17.177  12.042
97860W        W59171  18.717  30.525   3.832
97861W        W59172  38.940  24.225  13.797
97862W        W59173  29.489   4.847  12.983
97863W        W59174  10.701   1.476   3.385
97864W        W59175  15.159  39.518   2.705
97865W        W59176   3.460  26.149  14.937
97866W        W59177   0.361  12.244   2.738
97867W        W59178   7.720  15.298   4.750
97868W        W59179  25.974  23.569  12.350
97869W        W59180  11.224  15.189   0.731
97870W        W59181  24.682  34.115   4.726
97871W        W59182  18.155  12.807  10.124
97872W        W59183  18.138  16.197  11.393
97873W        W59184  11.233  10.672  14.963
97874W        W59185  16.294  11.797  14.421
97875W        W59186  22.246   4.945   2.315
97876W        W59187  19.582  38.482  12.450
97877W        W59188  23.068  26.988  10.917
97878W        W59189  27.585  43.375  13.548
97879W        W59190   3.341  21.144  13.379
97880W        W59191  24.668  37.946  13.039
97881W        W59192  29.520  32.546  11.868
97882W        W59193  20.660   4.816   1.732
97883W        W59194   1.862   8.885   3.708
97884W        W59195  27.182  24.688   2.715
97885W        W59196  38.376  41.813   2.317
97886W        W59197  36.030  35.937  12.551
97887W        W59198   2.885  15.798   0.898
97888W        W59199  34.876   6.281  11.082
97889W        W59200  12.669  18.147   1.782
97890W        W59201  21.617  28.585   0.876
97891W        W59202  28.031  40.031   5.119
97892W        W59203   9.356   5.387   0.798
97893W        W59204   5.748  27.587   4.153
97894W        W59205  13.292  22.589  11.018
97895W        W59206  34.080  25.997  13.448
97896W        W59207  34.025  25.106  14.432
97897W        W59208  32.494  15.167  13.892
97898W        W59209  28.612  16.252  10.976
97899W        W59210  33.431  34.533   0.902
97900W        W59211  31.619  20.651   1.210
97901W        W59212  18.603   2.924   4.610
97902W        W59213   9.373  42.393   2.800
97903W        W59214  15.165  34.874  14.779
97904W        W59215   1.865  35.996  11.078
97905W        W59216  26.618  34.992   3.669
97906W        W59217  41.856  22.108   3.772
97907W        W59218  44.398  19.097  12.447
97908W        W59219  39.325  37.870  12.905
97909W        W59220   7.286   7.701  10.933
97910W        W59221  23.584   6.794  10.951
97911W        W59222  23.240  43.984  12.983
97912W        W59223   4.793  40.851   0.267
97913W        W59224  27.105  33.440   2.404
97914W        W59225  26.604  42.327   2.216
97915W        W59226  29.096  39.843  13.367
97916W        W59227   6.427  35.406  12.411
97917W        W59228   5.822  28.539  12.951
97918W        W59229  27.640   7.172  13.992
97919W        W59230  27.455   1.767  13.806
97920W        W59231  15.135  30.588   0.753
97921W        W59232  31.012   4.206   1.298
97922W        W59233   7.332  22.225   4.774
97923W        W59234  28.608  26.187  11.602
97924W        W59235  10.714   3.936   2.182
97925W        W59236  17.079  13.116   1.800
97926W        W59237  10.844  13.615  12.533
97927W        W59238  16.149  37.979   1.298
97928W        W59239  42.789   3.896  14.861
97929W        W59240   8.656   4.362   1.924
97930W        W59241  17.214  17.742   2.292
97931W        W59242  30.094   8.356  14.909
97932W        W59243  35.997   6.336   1.927
97933W        W59244  11.745   7.297   0.881
97934W        W59245  44.882  38.842  13.063
97935W        W59246  26.049   5.732   0.423
97936W        W59247  14.678   1.266  13.367
97937W        W59248   7.792  20.095  13.413
97938W        W59249  19.561  42.441  12.859
97939W        W59250  20.581  28.987  11.497
97940W        W59251  27.534  18.191   2.710
97941W        W59252   5.436  16.698  13.954
97942W        W59253  23.988   1.418  13.882
97943W        W59254  13.622  23.101  14.283
97944W        W59255  14.217  40.971   0.774
97945W        W59256  20.196  34.526   2.852
97946W        W59257  13.135  20.726  10.608
97947W        W59258   0.396  24.975   3.789
97948W        W59259  27.490  38.436  11.048
97949W        W59260  35.884   7.264   1.430
97950W        W59261  27.586  29.016   2.809
97951W        W59262   8.731  29.049  13.806
97952W        W59263  25.087  28.571   3.689
97953W        W59264  28.020  35.547  14.992
97954W        W59265  32.942   3.331  14.276
97955W        W59266  40.013  26.111   0.256
97956W        W59267  27.154  14.641   0.305
97957W        W59268  31.107  11.221   0.744
97958W        W59269  20.701  11.295   2.823
97959W        W59270  10.801  16.310  10.440
97960W        W59271   3.927  11.863   2.244
97961W        W59272  27.045  26.607   3.705
97962W        W59273   6.236  20.063  10.473
97963W        W59274   5.858  37.527   0.831
97964W        W59275  37.431  20.168  12.510
97965W        W59276  43.925  14.172  10.984
97966W        W59277  30.133  35.366  10.918
97967W        W59278  31.583  38.467   3.657
97968W        W59279  43.465  10.380   3.173
97969W        W59280  31.938   7.317  10.478
97970W        W59281   7.723  30.034  13.504
97971W        W59282  11.800  13.130  11.126
97972W        W59283  12.805  28.003   1.885
97973W        W59284   5.432  36.087   4.234
97974W        W59285   3.826  41.441   1.249
97975W        W59286  43.789  32.547  13.908
97976W        W59287  16.812  28.580  12.974
97977W        W59288  18.723  16.254  14.490
97978W        W59289   4.879  25.496   0.905
97979W        W59290  20.678  36.495   2.824
97980W        W59291  21.716  10.865  13.544
97981W        W59292  36.074  40.987   3.218
97982W        W59293  36.579   6.418  13.479
97983W        W59294  24.674   1.291  12.402
97984W        W59295  16.231  33.085  13.937
97985W        W59296  12.234  42.514  12.538
97986W        W59297  26.591   9.262  10.008
97987W        W59298  37.051  15.664  13.359
97988W        W59299  43.862  40.817   0.303
97989W        W59300  30.448  36.371  11.963
97990W        W59301  16.092  30.610  11.999
97991W        W59302  42.914  14.107   2.672
97992W        W59303   0.847  40.378   3.376
97993W        W59304  27.141  18.715   4.837
97994W        W59305  25.618  10.343   3.335
97995W        W59306   3.842  33.010  14.463
97996W        W59307   1.334   1.362   1.784
97997W        W59308   8.256  30.919  10.625
97998W        W59309  31.553  20.700  13.000
97999W        W59310   6.210  31.497   0.276
98000W        W59311   4.279  11.351   2.691
98001W        W59312  24.986   1.761  10.126
98002W        W59313  11.827   4.406   1.240
98003W        W59314  41.342   4.433   3.830
98004W        W59315  41.357  40.423  14.375
98005W        W59316  22.632  25.146  13.875
98006W        W59317  44.442  42.019  11.993
98007W        W59318  17.155  30.630  14.426
98008W        W59319  19.246   1.455  11.933
98009W        W59320  23.026  13.192  14.841
98010W        W59321  27.500   3.415   0.335
98011W        W59322  41.795   0.471   1.289
98012W        W59323  37.381  18.658  10.562
98013W        W59324   5.728   3.263  12.497
98014W        W59325  18.181  32.895  11.117
98015W        W59326   8.253   5.918   3.781
98016W        W59327  10.336  29.524   0.757
98017W        W59328  13.649  44.451   3.290
98018W        W59329  27.031  26.523   2.796
98019W        W59330   5.702  25.180  11.983
98020W        W59331  17.282  39.031   0.394
98021W        W59332  24.688  22.170  14.348
98022W        W59333   3.863  22.118   2.795
98023W        W59334  34.992   9.804   2.679
98024W        W59335  39.976  12.339  12.448
98025W        W59336  13.799  30.029  10.595
98026W        W59337  21.758  44.791  11.065
98027W        W59338  33.430  17.237   5.283
98028W        W59339  26.686  40.799   4.825
98029W        W59340  28.073  24.603  13.048
98030W        W59341   2.303  26.465   1.857
98031W        W59342  21.084  23.127   2.300
98032W        W59343   4.702   1.838   3.675
98033W        W59344  17.253  20.263  11.438
98034W        W59345  11.145   7.252  14.383
98035W        W59346   5.287  21.527   1.232
98036W        W59347  33.994  12.731  12.979
98037W        W59348  17.172   2.792  10.931
98038W        W59349  23.158   7.896  14.833
98039W        W59350  23.054  22.064  14.920
98040W        W59351   0.388  16.756   1.911
98041W        W59352  35.414  24.577  11.017
98042W        W59353  41.914  32.493  11.038
98043W        W59354  31.001   6.241   2.281
98044W        W59355   3.402  26.622  13.842
98045W        W59356  26.165   2.361   2.391
98046W        W59357  32.594  13.217  12.571
98047W        W59358  39.442  21.083   1.896
98048W        W59359  23.561  19.189  11.407
98049W        W59360  36.489  33.537  11.948
98050W        W59361  19.774  39.980  11.998
98051W        W59362   8.738  43.970  11.998
98052W        W59363  14.287  13.292   4.649
98053W        W59364   2.426   1.740  10.512
98054W        W59365  28.547  31.436  11.971
98055W        W59366  16.155  22.095  11.011
98056W        W59367  37.931   1.910   4.809
98057W        W59368  15.787  30.616  11.886
98058W        W59369  32.060  42.478  12.986
98059W        W59370  26.982  26.576  10.580
98060W        W59371  37.896   0.387   3.381
98061W        W59372  11.252  15.790  10.026
98062W        W59373  42.860  43.863  13.022
98063W        W59374  13.180  22.190  14.962
98064W        W59375   7.672  35.982   0.765
98065W        W59376  27.099  19.573   1.804
98066W        W59377  35.996   1.823  12.889
98067W        W59378  44.397  20.707  14.780
98068W        W59379  37.349   8.847   2.774
98069W        W59380  21.560   7.891  10.948
98070W        W59381  29.649   7.808  13.015
98071W        W59382  32.987   8.668  13.991
98072W        W59383  28.955  16.241   0.364
98073W        W59384  36.424  21.214   0.877
98074W        W59385  37.999   9.874   4.271
98075W        W59386  43.952  34.047   0.346
98076W        W59387  11.664  19.640   2.791
98077W        W59388  36.957  13.653   2.806
98078W        W59389  31.078   8.670   0.946
98079W        W59390  24.560  24.018   1.347
98080W        W59391  25.579  40.375   5.227
98081W        W59392  18.293  32.463  13.032
98082W        W59393  36.447  30.558   4.285
98083W        W59394  39.935  37.337  13.922
98084W        W59395  36.363  31.113   2.712
98085W        W59396  28.094  39.360  14.372
98086W        W59397  25.022  10.835   1.748
98087W        W59398   4.867  14.105  14.361
98088W        W59399  31.078  15.666   0.412
98089W        W59400  31.434  33.624  13.363
98090W        W59401  28.607  29.117   1.848
98091W        W59402   5.300  42.453  14.457
98092W        W59403  27.135  44.990  13.421
98093W        W59404  15.716  30.921   2.276
98094W        W59405  29.159  17.767  14.405
98095W        W59406  29.542  36.070   5.292
98096W        W59407   1.753  22.239   0.750
98097W        W59408  22.198  11.271   2.319
98098W        W59409  38.377  29.571  11.879
98099W        W59410  29.523  35.860   0.904
98100W        W59411  21.591  31.957  11.992
98101W        W59412  41.430  35.492   2.752
98102W        W59413  38.874  41.953   2.254
98103W        W59414  39.931  16.195   2.232
98104W        W59415  23.558  41.532  13.059
98105W        W59416  31.602  41.919   3.215
98106W        W59417  44.946  40.018   1.838
98107W        W59418  44.861   7.905  10.440
98108W        W59419  37.073   4.705   0.391
98109W        W59420  29.015  37.836   4.661
98110W        W59421   5.753  24.571  13.396
98111W        W59422  32.573   6.266  12.449
98112W        W59423  30.589  38.445  13.526
98113W        W59424  26.470   2.865   2.337
98114W        W59425  34.929  39.014  11.609
98115W        W59426  23.206  19.780   3.764
98116W        W59427  37.988   2.811   0.426
98117W        W59428  27.588   4.776   4.113
98118W        W59429  29.962  14.180   3.666
98119W        W59430  16.676  10.767  10.955
98120W        W59431  22.019   9.248   3.275
98121W        W59432  25.120  15.647   0.759
98122W        W59433  42.291  13.705   2.848
98123W        W59434  13.730  31.508   4.833
98124W        W59435  27.524   8.678  12.453
98125W        W59436   2.924  15.291   1.918
98126W        W59437  38.937  15.662  14.797
98127W        W59438  21.544  11.219   1.696
98128W        W59439  19.139  18.128  12.009
98129W        W59440   1.340   1.374  10.603
98130W        W59441  32.526  21.226  10.154
98131W        W59442   0.414   0.425  11.865
98132W        W59443  11.670   6.193  11.448
98133W        W59444   3.785  40.328  11.978
98134W        W59445   6.203  31.432   2.279
98135W        W59446  18.248  33.382   2.320
98136W        W59447  12.786  33.422  12.351
98137W        W59448  11.356  11.131  12.851
98138W        W59449  22.577  20.767   1.819
98139W        W59450  22.164  41.032  14.902
98140W        W59451  27.973  28.933  13.802
98141W        W59452  18.628  27.456  12.914
98142W        W59453  44.267  33.046   1.222
98143W        W59454  12.128  23.577  13.544
98144W        W59455  30.021  12.321  11.917
98145W        W59456   1.967  40.039   3.325
98146W        W59457  35.873   2.780   0.377
98147W        W59458   9.748  14.181  11.006
98148W        W59459  41.818  37.001   0.890
98149W        W59460  18.631  33.914   0.375
98150W        W59461   8.313  18.590  14.789
98151W        W59462  41.407   4.328   3.240
98152W        W59463  38.961  29.606  14.781
98153W        W59464  20.524  21.596  13.949
98154W        W59465  26.187  11.819  14.030
98155W        W59466  35.485  31.097   0.759
98156W        W59467  44.356  28.674   4.299
98157W        W59468  44.296   2.880  11.950
98158W        W59469  41.818   3.218   3.762
98159W        W59470  25.586  41.537  11.477
98160W        W59471  40.491  38.046  11.918
98161W        W59472  17.604   0.944  10.435
98162W        W59473  27.468  12.857   4.127
98163W        W59474  37.854  18.095  14.909
98164W        W59475  31.072  41.493   0.880
98165W        W59476  37.460  29.424   3.706
98166W        W59477   0.438  42.304  12.001
98167W        W59478   7.334  42.994   4.692
98168W        W59479  17.070  30.647   1.253
98169W        W59480  28.938  12.245  13.453
98170W        W59481   7.282  21.744   0.732
98171W        W59482  15.209  44.892  13.863
98172W        W59483  35.957  17.203  14.767
98173W        W59484  33.557   9.247  13.810
98174W        W59485  19.763  20.211  11.544
98175W        W59486  43.409  15.258   3.700
98176W        W59487  38.333  24.993   3.837
98177W        W59488  30.627  32.602  11.515
98178W        W59489   1.285  37.568   0.280
98179W        W59490  20.767  21.071  10.583
98180W        W59491  18.285  42.441   1.373
98181W        W59492  35.415  41.458  12.561
98182W        W59493  42.918  21.098  11.910
98183W        W59494  18.210  36.967  14.359
98184W        W59495  36.382  13.632   4.226
98185W        W59496  29.470  23.692  10.492
98186W        W59497  22.218  36.352  10.530
98187W        W59498  40.910  20.229   0.905
98188W        W59499   9.286  31.483  14.434
98189W        W59500  42.878   2.295   5.236
98190W        W59501  14.825  28.182   4.259
98191W        W59502  21.123  10.349   5.296
98192W        W59503  16.732  40.460   3.738
98193W        W59504   1.960  31.565   4.620
98194W        W59505  11.712  33.107  11.062
98195W        W59506  39.349  28.617  11.001
98196W        W59507   4.431  42.518  11.107
98197W        W59508  37.893  14.314  14.761
98198W        W59509  43.770  29.058   4.687
98199W        W59510   0.896  25.020   1.854
98200W        W59511   0.848   8.875  13.528
98201W        W59512  15.771  39.808   2.370
98202W        W59513  15.723  43.440   0.350
98203W        W59514  43.354  32.129   1.318
98204W        W59515   2.446  26.029  13.330
98205W        W59516  24.190  34.439   5.222
98206W        W59517   4.806  28.616  11.420
98207W        W59518  37.380  41.449  11.559
98208W        W59519  12.794  16.187  13.435
98209W        W59520   5.711  31.497   0.276
98210W        W59521  30.478   0.759   2.245
98211W        W59522  41.466  44.774   1.782
98212W        W59523  40.413  18.712  13.546
98213W        W59524  29.010   8.314  14.450
98214W        W59525   6.262  15.321   2.387
98215W        W59526  33.883  44.472   2.669
98216W        W59527  35.432  40.417   2.193
98217W        W59528  27.985   1.828  14.925
98218W        W59529  32.986  33.098   1.396
98219W        W59530  22.642  34.443   0.740
98220W        W59531   3.908  44.868  11.580
98221W        W59532  26.080  34.993  12.041
98222W        W59533   5.927   4.244   1.293
98223W        W59534  15.265  12.738  13.512
98224W        W59535  26.070  11.260   0.256
98225W        W59536  18.139  10.239  14.282
98226W        W59537  28.617  13.318   3.269
98227W        W59538   8.700  34.426   2.752
98228W        W59539   0.830  19.567  10.941
98229W        W59540  43.857  10.328   4.205
98230W        W59541  35.074  19.078  11.990
98231W        W59542  13.787  15.202   3.752
98232W        W59543  37.984   4.421  14.883
98233W        W59544   9.321  35.425  11.975
98234W        W59545  35.010   9.844  12.848
98235W        W59546  28.144  33.403  11.512
98236W        W59547  23.591   0.346   4.656
98237W        W59548   9.864  26.524  13.475
98238W        W59549  23.056  37.955   2.742
98239W        W59550  13.792  36.504  14.028
98240W        W59551  24.225  44.826   3.256
98241W        W59552  20.748   8.820   4.187
98242W        W59553  39.876  42.375  12.350
98243W        W59554  20.647  28.491  10.475
98244W        W59555  22.183  12.835  13.924
98245W        W59556   0.413  44.786   1.214
98246W        W59557   0.852  42.911   4.610
98247W        W59558  26.193  44.906   1.706
98248W        W59559   3.800  40.918  12.860
98249W        W59560  25.674  28.549  10.921
98250W        W59561  15.660   0.879   2.763
98251W        W59562  16.310  36.931  11.438
98252W        W59563   6.414  16.197  14.315
98253W        W59564  44.895  32.437   3.374
98254W        W59565  15.259  38.935   2.740
98255W        W59566  40.478   7.731  14.297
98256W        W59567  12.770  10.739  11.053
98257W        W59568   6.724  16.676  11.934
98258W        W59569  43.432  37.883   1.771
98259W        W59570  40.952  44.951  14.926
98260W        W59571  27.542   7.265   1.849
98261W        W59572  16.799   5.856  14.317
98262W        W59573   9.347  11.867   2.374
98263W        W59574   7.265  18.616   2.410
98264W        W59575  39.919  31.979  13.411
98265W        W59576   1.955  14.195   3.355
98266W        W59577   1.836   9.323   4.812
98267W        W59578  44.803  30.550  12.517
98268W        W59579  16.766   8.369   2.773
98269W        W59580  24.142   6.893   1.889
98270W        W59581  25.122  15.754   5.309
98271W        W59582  28.461  30.459  14.973
98272W        W59583  13.641   1.253   4.615
98273W        W59584  37.504  21.737   2.744
98274W        W59585   1.978   5.414   3.743
98275W        W59586  22.037  42.296  11.907
98276W        W59587  29.942  28.522  13.816
98277W        W59588  15.695  32.138   0.919
98278W        W59589  40.455  21.141  14.810
98279W        W59590   1.237  20.579   3.171
98280W        W59591   9.281  34.378  11.492
98281W        W59592   7.715  16.109  11.985
98282W        W59593  42.895  33.404   3.732
98283W        W59594  21.544   1.253   2.898
98284W        W59595  44.882  39.441   2.714
98285W        W59596  32.457   9.190  13.403
98286W        W59597   8.741  27.581  11.426
98287W        W59598   2.914  11.360  13.510
98288W        W59599  27.190   7.236  13.505
98289W        W59600   6.694  26.651   0.444
98290W        W59601   5.439  38.339  12.393
98291W        W59602  20.616  13.669  11.473
98292W        W59603   9.173  11.137   0.838
98293W        W59604  34.393  14.138   0.957
98294W        W59605   5.857   4.283   3.232
98295W        W59606  43.866  20.692  14.889
98296W        W59607  12.692  27.618   4.325
98297W        W59608   0.428  23.569   0.321
98298W        W59609  29.989  35.499  12.997
98299W        W59610  17.626   2.826   2.779
98300W        W59611  30.105   7.244  13.335
98301W        W59612  11.324  22.669  11.597
98302W        W59613   2.359  16.567   4.792
98303W        W59614  11.311  10.750  11.962
98304W        W59615  18.730  26.606   9.960
98305W        W59616  26.475  33.461  12.965
98306W        W59617  18.158  25.583  10.489
98307W        W59618  21.514  41.808   4.175
98308W        W59619  22.513  11.712   1.309
98309W        W59620   5.770   4.230   2.270
98310W        W59621  22.028  24.637   0.841
98311W        W59622  18.604  10.297   4.328
98312W        W59623  40.937  44.259  12.917
98313W        W59624  40.910  11.657   1.710
98314W        W59625  30.042  38.831   2.296
98315W        W59626  19.545  28.177   1.419
98316W        W59627   0.290  38.487   2.804
98317W        W59628   4.355  10.314  14.945
98318W        W59629  30.981  21.042  13.937
98319W        W59630  43.447   5.352  13.937
98320W        W59631  25.624   3.237   0.302
98321W        W59632  17.226  37.560  11.498
98322W        W59633  25.679  33.012   3.163
98323W        W59634  37.569  35.520   3.171
98324W        W59635  22.090  31.648   2.863
98325W        W59636  25.656  29.529   3.712
98326W        W59637  43.492  41.987  14.307
98327W        W59638   0.268  39.322   0.886
98328W        W59639  29.970   5.288   9.453
98329W        W59640  31.596   3.242   0.422
98330W        W59641  39.511  38.568  10.469
98331W        W59642   6.295  38.865  10.985
98332W        W59643  40.546   7.835   4.827
98333W        W59644  35.877  23.050  14.452
98334W        W59645  14.261  27.008   5.146
98335W        W59646  19.273  39.964  11.505
98336W        W59647  23.098  18.211  11.572
98337W        W59648   5.383   2.396  14.017
98338W        W59649  22.592  37.431   3.821
98339W        W59650  11.333  43.344   0.759
98340W        W59651  21.168  26.131  13.319
98341W        W59652  19.187  36.870  12.423
98342W        W59653   7.298  21.520  11.081
98343W        W59654  28.043  10.878  10.546
98344W        W59655  37.081   4.798  13.536
98345W        W59656  22.178  26.990   1.358
98346W        W59657   7.743  25.571   0.850
98347W        W59658  13.294  26.474   0.812
98348W        W59659  40.951   3.877   0.968
98349W        W59660  24.081   5.891   4.803
98350W        W59661   6.201   1.912  13.355
98351W        W59662  16.675  29.624  13.845
98352W        W59663  41.367  37.465  11.093
98353W        W59664  36.046  25.615  13.479
98354W        W59665  11.772  26.556  14.859
98355W        W59666  14.787  35.951   1.781
98356W        W59667  18.181   1.246  10.483
98357W        W59668  36.859   3.764   1.310
98358W        W59669  40.889  16.183  13.818
98359W        W59670  25.677  10.757  12.456
98360W        W59671  30.079   8.879  14.032
98361W        W59672  40.410  21.517  13.006
98362W        W59673  32.981  30.603   0.862
98363W        W59674  10.181  31.414  13.915
98364W        W59675  19.671  27.614   0.756
98365W        W59676   8.893  18.587   3.649
98366W        W59677  17.641  26.979  10.474
98367W        W59678  28.646  10.349  10.058
98368W        W59679  29.451  13.700   4.188
98369W        W59680  41.500   3.737   2.353
98370W        W59681  11.834  24.216   1.881
98371W        W59682  35.561  29.165  14.020
98372W        W59683  31.515  38.844   2.347
98373W        W59684  40.856   5.754  10.441
98374W        W59685  41.453  15.596  13.806
98375W        W59686  21.070   2.402   4.123
98376W        W59687  32.013  35.423  14.460
98377W        W59688  26.188  29.670   3.695
98378W        W59689  13.224  38.558   4.779
98379W        W59690  25.488  16.794   3.209
98380W        W59691  25.120  17.758   0.784
98381W        W59692  21.512  19.623  11.039
98382W        W59693  37.886   3.915   2.221
98383W        W59694   4.888   1.468  12.407
98384W        W59695  15.729  15.711  13.417
98385W        W59696  24.086  28.524  11.893
98386W        W59697  13.647  17.575  11.486
98387W        W59698   4.871  44.461  14.491
98388W        W59699  34.614  17.799  13.417
98389W        W59700  43.431  43.386   2.261
98390W        W59701   3.437   6.842  14.861
98391W        W59702   8.720   4.834   1.342
98392W        W59703  35.390   9.374  10.423
98393W        W59704  16.154  33.979   0.895
98394W        W59705   0.260  14.098   1.285
98395W        W59706  15.609   8.803  13.840
98396W        W59707  38.015  43.357  10.010
98397W        W59708  14.623  16.125   3.676
98398W        W59709  31.947  32.953   3.296
98399W        W59710  31.932   5.770   4.730
98400W        W59711  27.050  31.111  12.483
98401W        W59712  11.800  34.874  12.931
98402W        W59713  11.168   4.247  12.539
98403W        W59714  41.335  28.182   0.427
98404W        W59715  32.965  42.370  13.930
98405W        W59716   3.402  12.702  14.859
98406W        W59717  27.180  16.615  12.936
98407W        W59718  21.193   7.784  10.638
98408W        W59719  38.553  30.000  10.642
98409W        W59720  31.409  39.467  14.290
98410W        W59721  42.469   7.284  11.051
98411W        W59722  27.496   7.313  10.985
98412W        W59723  11.327  42.325  11.090
98413W        W59724   1.306  13.203  12.978
98414W        W59725  12.228  15.288   4.143
98415W        W59726  24.572  11.646  14.946
98416W        W59727   8.773  13.650   4.729
98417W        W59728  14.616   1.871   1.855
98418W        W59729  29.992  41.992  13.958
98419W        W59730  28.558  27.192   0.955
98420W        W59731  11.770  13.629  11.514
98421W        W59732   1.375  19.544   2.768
98422W        W59733  13.132  38.062  12.039
98423W        W59734  42.434  44.914   2.672
98424W        W59735  15.320  34.534   4.169
98425W        W59736  23.705  36.494   0.943
98426W        W59737  14.638  25.136   0.931
98427W        W59738   6.269  10.694  13.950
98428W        W59739   3.335  36.571   1.798
98429W        W59740  43.814  15.171  14.346
98430W        W59741  14.100   9.709   2.243
98431W        W59742  20.107  12.226  10.606
98432W        W59743  12.293  32.023   4.775
98433W        W59744  25.690  27.063   1.286
98434W        W59745  28.153  36.500  13.861
98435W        W59746  44.871  36.376   2.732
98436W        W59747  32.020   5.751   3.639
98437W        W59748  41.006  13.772   2.840
98438W        W59749  16.241   6.266  13.512
98439W        W59750  19.648  10.841   1.408
98440W        W59751  23.198   7.194  12.954
98441W        W59752  41.952  41.830  12.011
98442W        W59753  32.121  31.151   4.151
98443W        W59754  17.577  11.339  10.470
98444W        W59755  16.274  34.104  14.897
98445W        W59756  17.255  27.675   4.198
98446W        W59757  39.996  42.291  14.488
98447W        W59758   8.287  37.483  10.531
98448W        W59759  42.943  34.054   0.418
98449W        W59760  23.503  43.856   0.337
98450W        W59761  27.979  41.893   4.766
98451W        W59762  38.064  43.807   1.370
98452W        W59763  25.079  19.594   1.301
98453W        W59764  37.957   6.370  11.005
98454W        W59765  36.848  29.130   2.269
98455W        W59766  16.581  32.920  14.815
98456W        W59767  13.114  32.511   0.286
98457W        W59768  22.056  24.528  12.558
98458W        W59769  32.893  10.851  11.441
98459W        W59770  30.592  12.627   2.303
98460W        W59771  10.363  33.010  11.569
98461W        W59772  27.013  28.503  11.871
98462W        W59773  37.387  12.253  11.445
98463W        W59774  35.874  37.557   2.683
98464W        W59775   9.245  27.593   0.817
98465W        W59776  11.704  37.077   0.904
98466W        W59777  27.176   1.960  11.566
98467W        W59778  30.096  38.012   0.908
98468W        W59779  34.392  27.018  12.360
98469W        W59780   4.240   0.974  14.813
98470W        W59781  37.408  17.165  10.494
98471W        W59782   2.813  23.993   1.369
98472W        W59783  31.023  12.717   1.851
98473W        W59784  34.087  20.723  14.996
98474W        W59785   6.854  37.906   2.355
98475W        W59786   2.281  29.592   5.248
98476W        W59787  29.960   7.241   1.409
98477W        W59788  40.050   7.275  10.606
98478W        W59789   0.946  36.863  11.964
98479W        W59790  40.421  41.888  12.972
98480W        W59791  28.020  43.941   1.796
98481W        W59792  34.015  27.190   0.425
98482W        W59793  31.531  37.459   2.798
98483W        W59794  36.015  23.028  11.978
98484W        W59795   8.720  39.926  11.491
98485W        W59796  15.285  42.444   3.230
98486W        W59797  17.800  18.061   3.303
98487W        W59798   0.971  40.349  12.949
98488W        W59799  26.475  44.845   2.396
98489W        W59800   7.784  35.527  10.546
98490W        W59801  36.391  39.816   1.913
98491W        W59802  11.733  38.382  13.031
98492W        W59803  26.651  19.609   2.319
98493W        W59804  18.565  33.462   9.972
98494W        W59805  26.186  37.494   2.278
98495W        W59806  24.007  44.361  14.942
98496W        W59807   8.161  20.647  10.910
98497W        W59808  18.628  29.122  14.908
98498W        W59809  13.123   0.426   9.948
98499W        W59810  16.575  16.263  14.862
98500W        W59811  44.782  30.646  11.119
98501W        W59812  17.182   1.952  13.480
98502W        W59813  43.893  41.370  13.929
98503W        W59814  40.437  31.416   0.464
98504W        W59815  20.626   1.967  12.923
98505W        W59816  24.511  39.829  14.285
98506W        W59817  18.556  28.447   2.227
98507W        W59818  13.302  44.444   2.346
98508W        W59819  43.918  28.604  10.463
98509W        W59820  24.693  42.476  14.456
98510W        W59821  44.871  23.054  10.509
98511W        W59822  14.259  21.152   5.096
98512W        W59823  30.638  17.579  10.934
98513W        W59824  40.481  40.331   0.376
98514W        W59825   3.769  28.598   3.364
98515W        W59826   2.239   9.669   3.828
98516W        W59827   9.850  38.534  14.765
98517W        W59828  27.478  34.015  12.923
98518W        W59829  20.104  30.045   1.392
98519W        W59830  40.969  21.214   3.349
98520W        W59831  36.941  22.201  12.842
98521W        W59832  37.419  34.517   3.209
98522W        W59833   6.908  41.019  14.992
98523W        W59834  12.140   7.831   4.787
98524W        W59835  31.993  12.843  13.505
98525W        W59836  28.995  12.311   1.933
98526W        W59837  27.033  15.640   1.370
98527W        W59838  10.709  35.105   4.698
98528W        W59839  37.393  14.168  11.126
98529W        W59840  27.149  13.717  14.447
98530W        W59841   6.194  32.070  11.516
98531W        W59842  23.535   0.411  14.421
98532W        W59843  18.155   8.871   4.748
98533W        W59844  25.091   9.247  13.333
98534W        W59845  27.014   7.247  12.977
98535W        W59846  20.196  36.959   4.777
98536W        W59847   0.270  18.615   1.830
98537W        W59848  15.312   7.261  11.965
98538W        W59849  18.124  24.489   2.703
98539W        W59850  12.176  34.420   4.305
98540W        W59851  36.009  42.522  12.036
98541W        W59852  32.476  15.634   0.929
98542W        W59853  24.531  30.968   3.774
98543W        W59854  40.467  13.753   1.236
98544W        W59855   9.383  24.686   2.744
98545W        W59856  24.696  24.681   4.137
98546W        W59857  19.670   3.331   3.685
98547W        W59858  22.638   1.742   2.720
98548W        W59859  23.667  14.251   1.858
98549W        W59860  12.316  37.495   0.894
98550W        W59861   4.761  10.164   4.765
98551W        W59862  26.121  18.050   2.869
98552W        W59863  26.540  28.650   3.708
98553W        W59864  35.489  44.453   2.197
98554W        W59865  10.842   1.897   4.608
98555W        W59866  36.556  33.038   1.718
98556W        W59867  38.074  32.001   3.796
98557W        W59868  24.146  23.509  14.478
98558W        W59869  29.593  32.949   3.238
98559W        W59870  17.273   7.223  14.391
98560W        W59871  38.416  43.354   4.672
98561W        W59872  11.648   2.409   3.219
98562W        W59873  38.996   9.819  12.966
98563W        W59874  23.648  28.612   4.176
98564W        W59875   2.347  33.901  11.067
98565W        W59876  36.879  17.681   2.303
98566W        W59877   0.373  42.948   0.372
98567W        W59878  19.259  29.999   1.262
98568W        W59879  42.869   0.426   2.358
98569W        W59880  37.932  10.799   2.361
98570W        W59881  36.551  35.427  10.433
98571W        W59882  27.122  10.711   4.209
98572W        W59883  15.190  26.594  13.038
98573W        W59884   7.343  11.741   0.383
98574W        W59885  14.320  16.098  13.971
98575W        W59886  15.640  27.009  14.449
98576W        W59887   8.265  36.033  14.767
98577W        W59888  43.909  21.571   0.768
98578W        W59889  15.148   8.817  11.101
98579W        W59890   8.395   0.385  10.617
98580W        W59891  35.099  43.860  13.313
98581W        W59892  35.056  34.601  10.049
98582W        W59893  13.702  43.993   3.640
98583W        W59894  34.595  20.146   2.680
98584W        W59895   3.888   0.871   0.855
98585W        W59896  35.425  15.683   0.286
98586W        W59897  25.108  44.488   3.386
98587W        W59898  37.896  27.586   4.133
98588W        W59899   7.671  21.513  12.053
98589W        W59900   4.813   5.714  14.982
98590W        W59901  21.218   3.373   4.600
98591W        W59902  29.446  21.246   5.124
98592W        W59903  26.995  11.251  11.017
98593W        W59904  15.774  29.040  11.612
98594W        W59905  31.012  15.672  11.998
98595W        W59906   9.677  25.045  11.107
98596W        W59907   7.321  10.740   0.901
98597W        W59908  10.873  34.512  11.923
98598W        W59909  19.549  21.260   3.217
98599W        W59910  43.402  44.850  14.363
98600W        W59911   7.318   6.784  14.984
98601W        W59912  25.597  12.285   1.928
98602W        W59913   8.848  26.146   0.364
98603W        W59914  34.595  43.303  13.357
98604W        W59915   3.383  29.034   2.770
98605W        W59916  44.810   7.313   4.708
98606W        W59917  39.444  37.056   3.232
98607W        W59918   9.716   8.851  11.607
98608W        W59919  39.011  34.530  11.575
98609W        W59920  38.849  29.622  12.349
98610W        W59921   1.955  25.669  12.352
98611W        W59922  27.457  17.087   0.265
98612W        W59923  44.009  37.051  13.499
98613W        W59924  14.308  23.061   9.505
98614W        W59925  26.036   8.241  11.537
98615W        W59926  35.014  19.551   2.285
98616W        W59927  18.576  11.294  13.032
98617W        W59928  22.513  18.200   2.885
98618W        W59929  20.110  26.148  11.946
98619W        W59930  20.732  37.005   5.163
98620W        W59931  18.562  17.110  10.901
98621W        W59932  25.700   0.378   1.756
98622W        W59933  11.727   9.327   3.276
98623W        W59934  20.637  15.660   1.697
98624W        W59935  41.923  25.543   1.932
98625W        W59936  26.124  31.082  12.035
98626W        W59937  26.640   4.739   3.839
98627W        W59938  20.151  22.085   0.793
98628W        W59939  39.350  30.599   3.155
98629W        W59940  43.340  27.977   4.240
98630W        W59941  37.074  20.548  12.827
98631W        W59942   3.949  16.166   0.452
98632W        W59943  41.443  15.248   3.224
98633W        W59944  14.177  43.510  14.785
98634W        W59945  42.448  24.134   2.853
98635W        W59946  30.637  43.988  14.511
98636W        W59947  28.982  13.723  12.932
98637W        W59948  15.150  13.829   4.189
98638W        W59949   8.404  43.841   0.430
98639W        W59950   9.378  32.995   1.931
98640W        W59951  20.151  20.715   3.202
98641W        W59952   5.734  44.360  13.316
98642W        W59953  21.520  20.220   2.712
98643W        W59954  23.058  44.930  11.381
98644W        W59955  14.768  17.649   1.426
98645W        W59956  17.745  36.034   2.864
98646W        W59957  24.482  40.505  11.001
98647W        W59958  35.442  44.358   4.214
98648W        W59959  16.745  24.997  13.038
98649W        W59960  35.972  35.086   3.175
98650W        W59961  41.955  33.507   1.714
98651W        W59962  37.560  40.040  10.506
98652W        W59963   8.291  25.175   1.728
98653W        W59964  18.583  37.948   0.275
98654W        W59965  36.547  21.745  12.407
98655W        W59966  28.085  25.710  10.436
98656W        W59967  23.630   9.173   2.678
98657W        W59968  36.390  13.636  13.940
98658W        W59969  12.788   2.312  14.315
98659W        W59970  13.177  32.922  13.421
98660W        W59971  24.035  10.688  10.909
98661W        W59972  38.529   1.471  14.426
98662W        W59973  37.887  24.037  11.113
98663W        W59974  38.406   0.299  10.928
98664W        W59975  15.701  39.349   4.776
98665W        W59976  26.140  35.462   0.248
98666W        W59977   1.945  43.437   1.418
98667W        W59978  22.652   4.831   1.307
98668W        W59979  17.665  16.171   1.803
98669W        W59980  30.430  28.183  14.937
98670W        W59981  33.435  40.514  12.094
98671W        W59982  41.410  37.082  10.440
98672W        W59983   9.351   9.747  12.475
98673W        W59984  23.166   7.731   4.300
98674W        W59985  21.028  28.541  10.423
98675W        W59986   0.306   7.336  10.985
98676W        W59987  17.708  12.703   3.147
98677W        W59988  17.740  43.788   3.158
98678W        W59989   1.847   2.954  14.003
98679W        W59990  39.974  19.736  13.924
98680W        W59991   3.450   9.796   1.409
98681W        W59992  30.558  39.819  10.442
98682W        W59993   9.320  39.045  10.491
98683W        W59994  21.745  27.947  12.448
98684W        W59995  33.125   3.897   0.456
98685W        W59996  24.577  42.510   4.139
98686W        W59997   8.351  20.704  13.976
98687W        W59998  32.955  23.655  10.409
98688W        W59999  40.884  28.011   0.472
98689W        W60000  35.861   0.835   4.158
98690W        W60001   2.327  18.139  11.092
98691W        W60002  26.570  13.599   1.418
98692W        W60003   5.691  15.292   2.288
98693W        W60004  37.450  40.943   3.825
98694W        W60005  30.008   5.814   1.349
98695W        W60006  11.138  20.070   0.337
98696W        W60007  29.972  38.960   1.769
98697W        W60008  43.967  19.171  13.841
98698W        W60009   6.189  31.057  10.612
98699W        W60010  34.383  37.030   0.760
98700W        W60011  26.171  24.014   2.369
98701W        W60012  31.994  30.424  10.128
98702W        W60013  39.926  35.408   1.263
98703W        W60014  11.254  16.635   4.295
98704W        W60015  33.888  14.116  13.488
98705W        W60016  34.457   5.698  13.967
98706W        W60017  16.314  44.333  12.904
98707W        W60018  32.623  23.194  12.003
98708W        W60019  33.103  21.607   0.358
98709W        W60020  21.089  13.220   0.883
98710W        W60021  15.814   9.836   4.753
98711W        W60022  43.867  43.959   0.262
98712W        W60023  19.664  20.256   3.737
98713W        W60024  10.731  42.860   3.714
98714W        W60025  12.689  34.088  10.453
98715W        W60026  35.967  15.264  11.568
98716W        W60027  43.383  39.008   0.434
98717W        W60028  27.005  39.481   4.126
98718W        W60029   0.444  31.443   4.691
98719W        W60030  31.560  17.107   1.403
98720W        W60031  10.676   4.739  11.412
98721W        W60032   3.307  21.189  12.057
98722W        W60033   6.867  42.287   2.827
98723W        W60034  24.199  19.110   2.674
98724W        W60035   0.320  44.294  14.485
98725W        W60036  34.610  19.276  10.595
98726W        W60037   5.277  13.184   2.363
98727W        W60038  19.589  16.099   3.699
98728W        W60039  18.210  10.676   4.779
98729W        W60040  35.958  19.168  10.449
98730W        W60041   6.721   4.258  12.375
98731W        W60042  11.707  16.281   4.293
98732W        W60043  19.644   4.919   3.239
98733W        W60044  19.676  42.481   3.158
98734W        W60045   1.415  44.826   0.482
98735W        W60046  17.797  30.974  11.517
98736W        W60047  41.837   9.779  10.984
98737W        W60048  33.438   9.245  11.486
98738W        W60049  24.634   8.172  14.467
98739W        W60050  38.846  42.982   0.928
98740W        W60051  28.929  42.822  13.918
98741W        W60052  15.230   7.717  10.573
98742W        W60053  24.054   6.695  11.084
98743W        W60054  40.952  44.859  10.590
98744W        W60055  20.677  37.006   2.763
98745W        W60056  41.930   3.310   0.760
98746W        W60057  23.527  30.102  12.540
98747W        W60058   2.346  39.066  14.943
98748W        W60059   9.844  22.149   3.245
98749W        W60060  10.182  41.506  12.565
98750W        W60061   6.769  44.801   4.749
98751W        W60062  37.042  11.228  13.320
98752W        W60063  21.089  28.439   3.157
98753W        W60064  39.812  36.974  12.451
98754W        W60065  14.187  29.118   1.244
98755W        W60066   7.367  36.885   1.337
98756W        W60067  44.002  12.227  10.532
98757W        W60068  24.032  17.101  13.919
98758W        W60069  22.745  37.900   1.401
98759W        W60070  17.564  32.471  10.448
98760W        W60071  44.364  27.496  11.507
98761W        W60072  16.202   7.330   1.914
98762W        W60073  44.483   5.364  13.476
98763W        W60074  25.183  29.427   0.745
98764W        W60075  27.974  35.971   2.391
98765W        W60076   3.851   1.927   4.614
98766W        W60077  27.972  22.518  14.976
98767W        W60078  41.390  32.560  10.596
98768W        W60079  17.106   4.314  12.433
98769W        W60080  34.484  31.120  10.000
98770W        W60081   7.258  32.459   3.245
98771W        W60082  19.219  32.520   1.837
98772W        W60083  19.750  16.683   3.189
98773W        W60084  14.734   3.233   2.345
98774W        W60085  36.944  41.384   9.675
98775W        W60086  32.015  20.238   2.894
98776W        W60087  39.972  31.424  12.016
98777W        W60088  36.058  13.263   0.936
98778W        W60089  15.641  43.971   0.851
98779W        W60090  30.031  43.318   4.727
98780W        W60091  42.402  33.493   2.276
98781W        W60092  38.400  17.242  14.350
98782W        W60093  43.894  41.333  12.339
98783W        W60094  38.830  20.111   4.123
98784W        W60095  33.615  30.488  11.436
98785W        W60096  39.900   6.745   1.864
98786W        W60097   5.870  34.097  13.496
98787W        W60098  16.181  21.168   3.667
98788W        W60099  15.600  13.626  12.853
98789W        W60100  14.212  25.637   0.824
98790W        W60101  22.111   1.311  13.813
98791W        W60102  10.728   8.821  10.618
98792W        W60103  28.974  35.007  11.946
98793W        W60104  32.405  21.074  14.786
98794W        W60105  28.143   3.714  12.066
98795W        W60106  37.007  11.143   0.873
98796W        W60107  24.164  39.990   3.178
98797W        W60108  40.518   4.247   1.361
98798W        W60109  32.100  25.099  11.592
98799W        W60110  37.411  40.310   3.722
98800W        W60111   0.910  35.103   3.374
98801W        W60112  35.946  33.878  10.606
98802W        W60113  40.948  40.463  13.461
98803W        W60114  25.656  41.482   2.864
98804W        W60115  11.742   2.332   0.812
98805W        W60116  29.126  39.038   2.758
98806W        W60117  34.116  35.415   0.362
98807W        W60118  44.492  23.996  13.481
98808W        W60119  17.649  37.981   3.701
98809W        W60120  14.621  44.322   2.264
98810W        W60121  24.499   9.259   2.255
98811W        W60122   0.342  21.048   3.828
98812W        W60123  27.506   1.350   1.403
98813W        W60124   5.776  23.992  12.579
98814W        W60125  25.494  23.229  14.456
98815W        W60126  36.845  27.082  11.022
98816W        W60127  35.384  43.877  14.372
98817W        W60128  17.151  35.923   0.291
98818W        W60129  40.518  38.478   3.690
98819W        W60130  16.161  20.610  11.602
98820W        W60131  26.475  11.216   3.632
98821W        W60132  35.375  17.278  14.809
98822W        W60133   6.845   7.220   2.419
98823W        W60134  30.513  37.351  11.066
98824W        W60135  40.799   4.747  13.018
98825W        W60136  23.597  33.473   4.770
98826W        W60137  21.186  41.300  11.956
98827W        W60138  33.457  28.537  14.935
98828W        W60139  13.714  32.026  14.934
98829W        W60140  39.024  40.423   1.736
98830W        W60141   5.851  33.572  14.842
98831W        W60142   0.779  17.657   3.353
98832W        W60143   0.457  32.979  13.988
98833W        W60144  36.408   1.889  11.589
98834W        W60145  32.058  39.954   3.246
98835W        W60146  43.007  29.645  11.574
98836W        W60147   7.355  42.990  12.543
98837W        W60148  17.307  35.911  14.802
98838W        W60149   2.318   0.287  13.442
98839W        W60150  12.678  14.686  11.451
98840W        W60151  27.069  21.168   3.647
98841W        W60152   6.223  39.025   4.268
98842W        W60153  31.059  12.830   4.248
98843W        W60154  13.750   9.260  13.518
98844W        W60155  22.644  16.242  13.874
98845W        W60156  12.706   8.175  11.460
98846W        W60157  37.976  13.649   4.673
98847W        W60158  41.818  16.126   3.308
98848W        W60159  14.254  18.550  12.036
98849W        W60160  21.605  44.901  12.855
98850W        W60161  38.365  22.593  11.901
98851W        W60162  39.837  27.484   4.353
98852W        W60163  33.545  35.425   1.336
98853W        W60164  27.996  23.002  10.566
98854W        W60165  39.415   9.819   3.687
98855W        W60166  26.174   1.970  13.906
98856W        W60167  13.290  12.689  12.360
98857W        W60168   3.909  14.597   2.389
98858W        W60169  25.655  12.214   3.806
98859W        W60170  12.678  25.561  12.919
98860W        W60171  31.638  42.282   2.306
98861W        W60172  22.065  23.202   1.396
98862W        W60173  29.949  16.113  10.979
98863W        W60174  24.162  41.305   0.471
98864W        W60175  31.127  27.019  13.008
98865W        W60176  41.332  28.464   3.656
98866W        W60177  27.986  24.498  13.316
98867W        W60178  30.970  30.986   3.232
98868W        W60179  33.974  42.971   2.271
98869W        W60180   0.271  34.455   2.706
98870W        W60181  31.631  20.719  12.419
98871W        W60182  34.479  23.044   3.739
98872W        W60183  22.080  38.344  14.388
98873W        W60184  42.401  42.426   1.213
98874W        W60185  26.623  17.135   2.814
98875W        W60186   6.884  17.661  13.508
98876W        W60187   8.790  32.909  10.942
98877W        W60188  35.424  23.194   1.429
98878W        W60189  29.918  42.418  14.330
98879W        W60190  26.137   5.700   1.247
98880W        W60191  19.639  25.159   1.275
98881W        W60192   6.386  42.865  11.560
98882W        W60193  14.257  38.022  11.559
98883W        W60194   4.802  29.167   5.280
98884W        W60195  20.165  18.232  11.944
98885W        W60196  19.640   2.791  12.827
98886W        W60197   6.826  26.554  12.880
98887W        W60198  31.552  10.770   1.856
98888W        W60199  26.610  26.648   4.729
98889W        W60200  41.483  43.764  12.062
98890W        W60201  23.660  13.735   2.289
98891W        W60202  19.114  21.111  11.457
98892W        W60203   1.251  39.482   3.787
98893W        W60204  23.589  10.242   0.922
98894W        W60205  39.493  39.034  14.426
98895W        W60206  20.766  26.064   0.939
98896W        W60207  12.629  32.050  14.996
98897W        W60208  14.312  11.193   2.691
98898W        W60209  37.986  36.956   4.144
98899W        W60210  39.446  15.583  11.430
98900W        W60211  12.627  20.603   3.315
98901W        W60212  32.544  27.944   9.999
98902W        W60213  42.338  10.666  14.326
98903W        W60214  38.928  41.528   0.388
98904W        W60215   8.819  17.618  11.065
98905W        W60216  40.319  37.370  12.069
98906W        W60217   4.274  19.223  14.810
98907W        W60218  43.364  15.187   0.908
98908W        W60219  38.067  14.159   4.641
98909W        W60220  29.486  40.415  11.109
98910W        W60221  27.953  35.982  11.972
98911W        W60222  13.769   0.276  12.863
98912W        W60223  24.218  29.943  11.478
98913W        W60224   8.330  41.931  12.382
98914W        W60225   1.824  19.637  11.107
98915W        W60226  42.359  16.240  11.577
98916W        W60227  28.597   6.344   2.275
98917W        W60228  30.112  27.964  13.808
98918W        W60229  31.060  24.011   0.951
98919W        W60230  15.632  28.167  10.416
98920W        W60231  22.207  44.862  14.385
98921W        W60232  20.105   3.713  11.908
98922W        W60233  41.039   1.353   1.445
98923W        W60234   6.782  31.583  13.480
98924W        W60235  33.988  34.981  13.052
98925W        W60236   0.833  35.367   3.330
98926W        W60237   4.365   5.252   0.898
98927W        W60238  35.999  12.338  13.864
98928W        W60239  11.756  12.638   2.364
98929W        W60240  32.887  24.523   0.898
98930W        W60241  16.643  24.691  14.824
98931W        W60242  35.512  34.419  12.852
98932W        W60243   9.350  30.453   1.414
98933W        W60244  13.339  38.927  12.547
98934W        W60245  18.664  29.940   2.823
98935W        W60246  19.162  26.010  12.949
98936W        W60247  24.153  29.127   1.402
98937W        W60248  28.639  25.174  13.338
98938W        W60249  18.175  14.835   1.865
98939W        W60250  16.571  12.222   1.736
98940W        W60251   3.797  31.033   0.462
98941W        W60252   5.906  20.267   9.658
98942W        W60253  38.823  38.404  14.798
98943W        W60254   5.367  10.140  14.794
98944W        W60255   0.319  13.601  12.469
98945W        W60256   4.888  28.652  14.765
98946W        W60257  32.007  10.196  12.942
98947W        W60258  34.534  13.625   4.202
98948W        W60259  43.288  27.053  12.393
98949W        W60260  21.538   8.745   0.840
98950W        W60261   9.219  38.928  12.037
98951W        W60262  17.693  35.452   3.729
98952W        W60263  27.636  32.399  14.841
98953W        W60264  31.559  18.610   1.211
98954W        W60265  34.605  16.792   2.414
98955W        W60266   0.314  25.145   0.430
98956W        W60267   5.387  13.251  14.999
98957W        W60268   3.899  33.921   2.381
98958W        W60269  17.696  27.024   2.235
98959W        W60270   5.934  13.708  11.501
98960W        W60271  36.980  34.963  13.049
98961W        W60272   8.183   7.183  10.545
98962W        W60273  40.954  21.094  13.470
98963W        W60274  37.577  43.943  11.907
98964W        W60275  18.219  36.002   1.387
98965W        W60276   6.268   5.257  12.884
98966W        W60277  41.503  12.174   4.183
98967W        W60278  32.475  20.115  10.601
98968W        W60279   8.681  23.659   0.755
98969W        W60280  11.211  40.475   3.276
98970W        W60281  25.620  27.161  12.875
98971W        W60282  38.953  17.740   3.230
98972W        W60283   9.823   4.810   0.473
98973W        W60284  43.475   0.860   2.823
98974W        W60285  18.689  21.702  11.391
98975W        W60286  33.573  20.076  10.502
98976W        W60287  35.566  29.439  11.933
98977W        W60288  15.731   4.271   9.939
98978W        W60289  13.629  22.197   5.182
98979W        W60290  26.029  42.466   0.903
98980W        W60291  12.781  27.994   2.820
98981W        W60292  11.835   0.324   0.350
98982W        W60293  36.441  23.620   2.337
98983W        W60294  18.156  17.763   2.414
98984W        W60295  20.189  25.542   0.860
98985W        W60296   0.904  25.511   1.878
98986W        W60297   1.472  42.453   3.212
98987W        W60298  41.493  25.624   0.747
98988W        W60299  41.466  23.532   4.147
98989W        W60300  40.908  16.082   0.774
98990W        W60301  31.031  17.601  11.060
98991W        W60302  40.437   9.670   4.717
98992W        W60303  41.959   3.865  11.010
98993W        W60304  20.147  21.166   3.759
98994W        W60305  39.912   1.966   0.788
98995W        W60306  15.665  28.444   9.929
98996W        W60307  31.506  31.025   3.841
98997W        W60308  25.204  11.762  14.502
98998W        W60309  42.888  30.967   3.324
98999W        W60310  17.266  13.127   0.353
99000W        W60311  30.448  41.855   0.336
99001W        W60312  23.029  35.865   4.259
99002W        W60313  35.428  37.449   2.279
99003W        W60314   7.368  12.768   3.826
99004W        W60315   7.337  43.429  14.901
99005W        W60316  44.908   5.345  13.478
99006W        W60317  13.786  42.415   1.333
99007W        W60318  26.126  30.450   3.644
99008W        W60319  33.108  14.681   0.860
99009W        W60320  12.189  24.977  14.430
99010W        W60321  42.283  26.204  13.014
99011W        W60322  22.628   6.345  11.478
99012W        W60323   9.799   0.461  12.472
99013W        W60324   6.821  21.218   0.946
99014W        W60325  13.656  43.498  14.334
99015W        W60326  39.517   1.858  12.884
99016W        W60327  18.763  34.099   1.894
99017W        W60328   5.833  14.177  12.061
99018W        W60329   9.251  12.251   3.203
99019W        W60330  16.192   2.381   4.599
99020W        W60331  21.702  27.447   3.811
99021W        W60332  39.954  35.477   3.217
99022W        W60333  12.662   0.296   4.796
99023W        W60334  12.719  19.226  13.818
99024W        W60335  10.365  21.246  11.898
99025W        W60336   3.802  34.412  13.972
99026W        W60337  21.186  24.139   0.895
99027W        W60338  27.083  31.037   2.901
99028W        W60339  20.744  44.777  12.832
99029W        W60340   6.368  14.769  12.509
99030W        W60341  32.468  19.556   3.177
99031W        W60342  15.215   0.763  13.466
99032W        W60343  29.986  31.402  10.540
99033W        W60344   4.826  14.597   0.741
99034W        W60345  22.053  34.863   1.270
99035W        W60346  11.757   5.310  10.430
99036W        W60347  13.300  40.931   4.621
99037W        W60348  19.102  43.829   4.233
99038W        W60349  36.456  27.982   3.637
99039W        W60350  11.283   1.451  13.866
99040W        W60351  31.980   7.404  12.466
99041W        W60352  23.984  30.477   0.798
99042W        W60353  43.386  23.541  13.468
99043W        W60354  14.287  41.476   4.669
99044W        W60355   3.279  34.592   0.812
99045W        W60356  37.528  15.781   3.214
99046W        W60357  37.408  31.510  14.911
99047W        W60358   4.700  34.891   3.853
99048W        W60359  32.427  38.511   1.232
99049W        W60360   3.882  42.456   2.266
99050W        W60361  43.329  40.035   1.818
99051W        W60362   0.260  16.121  14.348
99052W        W60363   6.428  36.844   3.722
99053W        W60364  40.480  31.078  12.475
99054W        W60365   4.911  33.040  13.827
99055W        W60366  40.501  35.045   2.253
99056W        W60367  33.876  39.827   4.201
99057W        W60368  27.626  42.355   4.763
99058W        W60369  32.580  41.354   3.268
99059W        W60370   2.827  30.907  10.981
99060W        W60371  42.436  34.955  13.990
99061W        W60372  18.639  15.149   9.937
99062W        W60373  31.938   5.343   4.278
99063W        W60374  36.033  24.096   0.899
99064W        W60375  16.134  37.918  12.010
99065W        W60376  29.574  10.231   1.405
99066W        W60377  20.754   3.304   1.379
99067W        W60378  24.036  13.835  10.915
99068W        W60379  29.433  43.965  14.339
99069W        W60380  29.154  42.817  12.579
99070W        W60381   7.309  43.305   4.333
99071W        W60382   6.822  29.116  14.777
99072W        W60383  31.995   4.929   3.834
99073W        W60384  21.755  35.929   5.266
99074W        W60385  28.655  22.648   3.774
99075W        W60386  31.406  14.299  10.543
99076W        W60387  24.997   4.271  12.488
99077W        W60388  30.053  21.706   0.762
99078W        W60389   2.762  34.458  11.885
99079W        W60390  18.672  13.259   1.759
99080W        W60391  32.496   5.786  14.792
99081W        W60392  20.231   2.454  11.899
99082W        W60393   9.733  21.734   0.420
99083W        W60394  31.905  11.256  11.946
99084W        W60395  34.101  14.171   0.924
99085W        W60396  33.000  28.044   1.928
99086W        W60397   9.882   7.673   2.375
99087W        W60398  10.236  27.528  11.909
99088W        W60399  39.973   1.483  12.579
99089W        W60400  33.522  16.095   2.291
99090W        W60401  23.671   3.767   2.416
99091W        W60402  30.027   2.770   0.851
99092W        W60403   0.899  42.934   0.872
99093W        W60404  40.452  21.743   2.738
99094W        W60405  25.176  32.548  14.858
99095W        W60406  37.000  22.206   2.877
99096W        W60407  41.880   1.884  12.465
99097W        W60408  39.508   9.242  10.530
99098W        W60409  26.094  23.580   1.819
99099W        W60410  24.484  16.285  14.483
99100W        W60411  10.821  35.426   1.292
99101W        W60412  25.686  28.039   2.733
99102W        W60413  41.465  26.593  14.884
99103W        W60414  24.724  44.003   1.276
99104W        W60415  27.194   9.183  11.586
99105W        W60416   5.709  35.979  10.474
99106W        W60417  21.575   9.164   3.701
99107W        W60418  31.597  36.077  12.905
99108W        W60419  28.155  35.918  13.048
99109W        W60420  18.622  25.174  10.081
99110W        W60421  34.611  34.495  13.330
99111W        W60422  20.047  26.476   1.382
99112W        W60423  12.789  43.808   4.762
99113W        W60424   7.879   1.912  10.642
99114W        W60425   0.840  28.500   4.139
99115W        W60426  27.182  15.710  12.080
99116W        W60427  14.627  21.021   2.862
99117W        W60428  37.484  20.715   3.300
99118W        W60429   4.346  32.928   4.256
99119W        W60430   4.808  20.605   3.227
99120W        W60431  36.001   2.419   4.343
99121W        W60432  36.589  43.811  13.036
99122W        W60433  24.200  37.469  13.496
99123W        W60434  10.356  12.242   4.815
99124W        W60435   7.383  18.683  12.908
99125W        W60436  34.458  17.274   1.395
99126W        W60437  36.906   5.864   4.831
99127W        W60438   5.248  42.476   2.190
99128W        W60439   7.348   0.442   4.203
99129W        W60440  39.363  15.214   4.319
99130W        W60441  21.235   5.722   1.409
99131W        W60442  28.461  40.483  13.880
99132W        W60443  21.045  35.091   3.228
99133W        W60444  43.780   4.863   3.149
99134W        W60445  23.531   7.769  11.511
99135W        W60446  16.131  18.136  14.836
99136W        W60447   0.473  26.000  12.525
99137W        W60448  28.937   9.265   0.800
99138W        W60449  24.086  22.178  10.888
99139W        W60450   9.664  17.296   0.818
99140W        W60451  31.031  26.529   3.707
99141W        W60452  38.054   8.172   4.604
99142W        W60453  17.214  14.772   4.285
99143W        W60454   5.809  15.750   0.930
99144W        W60455  34.579  19.076  14.316
99145W        W60456  16.779  10.379   2.758
99146W        W60457  37.041   3.227  14.790
99147W        W60458  41.364   2.728   2.870
99148W        W60459   1.799  11.197  11.414
99149W        W60460  43.512   2.228  13.502
99150W        W60461  37.472  21.045  13.355
99151W        W60462   9.323  31.086   4.730
99152W        W60463   5.399  41.942  13.425
99153W        W60464  26.523   5.915   3.323
99154W        W60465   1.451   9.756  11.991
99155W        W60466  10.331  11.731  12.491
99156W        W60467  42.424  14.244   0.807
99157W        W60468   6.869  19.165   2.713
99158W        W60469  35.044  22.233   2.399
99159W        W60470  25.047  20.038  11.025
99160W        W60471  31.527  21.241   0.910
99161W        W60472   4.889  15.706  13.015
99162W        W60473  24.140  18.267   3.225
99163W        W60474  11.185  31.479   3.794
99164W        W60475  14.143  29.108  12.434
99165W        W60476  19.270  36.531   0.924
99166W        W60477  32.126   8.840  11.001
99167W        W60478  33.423  22.639  10.530
99168W        W60479  36.046  42.828  10.975
99169W        W60480   9.836   7.353  11.964
99170W        W60481  24.186  22.148  13.472
99171W        W60482  41.514  14.699   1.319
99172W        W60483  13.649   0.791  13.044
99173W        W60484  21.719   6.373  10.436
99174W        W60485  20.722   6.772  11.498
99175W        W60486  21.225  16.139  10.479
99176W        W60487  44.307  15.766   3.798
99177W        W60488   2.907   5.285  10.488
99178W        W60489  33.065  16.260   1.421
99179W        W60490   4.701  29.490  13.054
99180W        W60491  26.980  13.311   4.723
99181W        W60492  15.309  38.551   1.800
99182W        W60493  13.771   6.702   3.772
99183W        W60494  44.788  25.033   1.870
99184W        W60495  31.532  30.138  11.582
99185W        W60496  29.496  12.283  13.396
99186W        W60497  24.677  24.631  13.491
99187W        W60498  41.938  32.547   2.213
99188W        W60499   4.234  39.516  11.967
99189W        W60500   3.732  20.741   3.287
99190W        W60501  34.955  21.536   2.827
99191W        W60502  28.935  17.097   2.759
99192W        W60503  38.503  32.012   0.865
99193W        W60504  22.637  24.218  11.007
99194W        W60505   0.970  13.344   4.716
99195W        W60506  39.357  43.002   4.306
99196W        W60507  21.123   6.393  13.989
99197W        W60508  33.944  14.698   4.715
99198W        W60509  14.829   0.944   0.840
99199W        W60510  21.663  28.001   0.839
99200W        W60511  35.913   0.953   1.749
99201W        W60512  37.087  33.893  12.037
99202W        W60513   4.893   4.323  10.026
99203W        W60514  30.589  21.729   4.675
99204W        W60515   7.904  26.608  11.946
99205W        W60516  35.506  16.795   2.743
99206W        W60517   3.380  35.595  10.623
99207W        W60518   8.276  20.677   1.857
99208W        W60519  42.389  37.522  12.380
99209W        W60520  24.607  38.399   3.313
99210W        W60521   5.230  12.157  11.534
99211W        W60522  23.138  29.443  13.466
99212W        W60523  16.087  19.203   4.629
99213W        W60524  37.565  22.639   0.774
99214W        W60525  12.618  18.736   3.822
99215W        W60526  37.443  13.751  11.379
99216W        W60527  32.967  21.735   4.818
99217W        W60528  15.091  36.520  10.503
99218W        W60529  28.103  39.470   2.402
99219W        W60530  37.560  12.842   3.284
99220W        W60531  14.626   0.350   5.192
99221W        W60532   7.862  19.286   4.687
99222W        W60533  18.062  22.058  14.903
99223W        W60534   6.877  23.989   0.313
99224W        W60535  15.692   1.391   2.379
99225W        W60536  39.329   7.311   0.300
99226W        W60537   0.817   5.378  14.284
99227W        W60538  17.619  30.010   2.790
99228W        W60539   1.781  21.263   2.752
99229W        W60540  28.070  30.148  11.406
99230W        W60541  38.389   5.200  14.973
99231W        W60542  14.741  16.263   5.293
99232W        W60543  32.435  27.684  14.849
99233W        W60544   3.795  27.122   2.721
99234W        W60545   7.904   5.419   0.356
99235W        W60546  21.754  19.712  11.453
99236W        W60547  40.007   2.355   2.897
99237W        W60548   9.156   2.722   0.404
99238W        W60549   1.298  40.023  10.636
99239W        W60550  43.885  38.490  13.401
99240W        W60551  22.245  12.685  14.399
99241W        W60552   1.282  36.889  11.989
99242W        W60553  12.830  11.189  12.454
99243W        W60554  30.948  37.452  13.502
99244W        W60555  17.072   9.889   1.908
99245W        W60556   9.290  13.659   0.769
99246W        W60557  31.482  29.596  13.056
99247W        W60558  21.024  29.513  12.974
99248W        W60559  14.800   2.961  14.298
99249W        W60560   3.875   6.342   1.445
99250W        W60561   9.389  20.266  10.526
99251W        W60562  34.913  35.479  14.388
99252W        W60563  14.225  38.545  11.922
99253W        W60564  26.119  15.765  14.375
99254W        W60565  33.895  39.848  12.568
99255W        W60566  42.846  41.446  10.549
99256W        W60567  32.495  38.826   1.436
99257W        W60568  10.347  37.082   2.359
99258W        W60569  28.604  18.660   3.646
99259W        W60570   3.918  32.094   4.772
99260W        W60571  17.585  13.301  10.502
99261W        W60572  22.232  31.426  13.931
99262W        W60573  37.051   5.285   4.717
99263W        W60574  24.150   9.338   1.371
99264W        W60575   0.988  15.321   3.377
99265W        W60576  30.912  20.189   4.602
99266W        W60577  10.228   4.733   3.260
99267W        W60578  27.133  35.361  14.488
99268W        W60579  38.835   6.238   3.860
99269W        W60580  22.680   0.846   2.281
99270W        W60581  12.122  27.497   3.343
99271W        W60582   4.704  20.717   1.725
99272W        W60583  10.175  22.500   1.359
99273W        W60584  37.925  23.159   1.377
99274W        W60585   7.778  35.028   0.351
99275W        W60586  38.029  32.996   2.866
99276W        W60587  37.926   5.848  12.053
99277W        W60588  42.014   8.880   3.173
99278W        W60589   9.766  18.776   3.743
99279W        W60590   9.741  34.061  14.827
99280W        W60591   6.681  22.632   3.278
99281W        W60592   0.490   2.786  13.508
99282W        W60593   4.888  18.737  13.012
99283W        W60594  38.933  30.957   0.300
99284W        W60595   3.857  19.108  14.504
99285W        W60596  12.124  30.036   0.790
99286W        W60597   5.279  13.331   0.744
99287W        W60598  16.720   7.801  12.045
99288W        W60599  39.822   2.948  13.422
99289W        W60600   6.293  30.555  14.354
99290W        W60601   0.390  22.151  13.335
99291W        W60602  31.974  32.002   3.335
99292W        W60603  37.960   5.422  11.975
99293W        W60604   7.248  21.724  14.304
99294W        W60605   7.890   3.443  13.978
99295W        W60606  36.007  18.630  13.936
99296W        W60607   2.245   4.309  12.863
99297W        W60608  42.443   7.282   4.770
99298W        W60609  17.104  10.692  12.959
99299W        W60610  36.946   7.377  13.853
99300W        W60611  39.380  34.016  12.932
99301W        W60612  38.875  38.911   0.292
99302W        W60613  11.686  13.715  14.825
99303W        W60614   2.433  26.083   0.329
99304W        W60615  26.163  12.654   4.709
99305W        W60616  24.993  44.324  14.369
99306W        W60617  30.974  43.401   3.327
99307W        W60618  29.644  37.837  14.298
99308W        W60619  23.229   1.293  14.860
99309W        W60620  28.959  18.121  11.456
99310W        W60621  35.966  29.140   3.161
99311W        W60622   5.246  29.550  11.378
99312W        W60623  42.376   4.905   0.446
99313W        W60624  34.070  13.688   3.637
99314W        W60625  31.429  27.980  11.906
99315W        W60626  44.297  33.584   3.281
99316W        W60627  42.904  41.793  14.994
99317W        W60628  43.296  26.657   5.118
99318W        W60629   5.781  38.856  12.552
99319W        W60630  20.258  21.019   2.852
99320W        W60631  13.626  41.801  10.990
99321W        W60632   2.358  11.849  13.978
99322W        W60633  15.256  37.353   4.825
99323W        W60634  44.370   7.381  12.410
99324W        W60635  17.625  27.134  11.127
99325W        W60636   6.198  27.090   2.205
99326W        W60637   2.835   2.346  14.504
99327W        W60638  38.521  24.997  13.001
99328W        W60639  39.499  40.873  11.885
99329W        W60640  43.374  18.737  11.932
99330W        W60641  40.858   6.847   3.334
99331W        W60642  32.468  32.426   3.378
99332W        W60643  18.189  37.015   1.836
99333W        W60644  29.570  42.898  13.952
99334W        W60645  25.709   6.409   2.196
99335W        W60646   7.903  11.658   2.304
99336W        W60647  31.964  37.975  14.783
99337W        W60648  13.754   9.160   3.324
99338W        W60649   0.410  18.635   3.146
99339W        W60650  28.550  20.570   3.256
99340W        W60651  28.108  20.044  14.322
99341W        W60652  35.902   6.831   3.855
99342W        W60653  18.113  29.134   4.120
99343W        W60654  28.576  14.127   1.716
99344W        W60655  28.152  34.987   4.669
99345W        W60656  30.958   6.766   5.234
99346W        W60657  20.628   6.365   2.367
99347W        W60658  26.521  23.656   1.875
99348W        W60659   5.214  39.909   2.186
99349W        W60660   5.326  37.024  10.955
99350W        W60661  28.087   0.853  14.957
99351W        W60662  36.966  15.320   2.747
99352W        W60663  25.116   8.672   2.887
99353W        W60664  23.115  22.592   2.214
99354W        W60665  24.085   4.394   0.898
99355W        W60666  24.537  17.737   1.921
99356W        W60667  35.472  38.945  14.891
99357W        W60668  13.186  18.146   0.897
99358W        W60669  44.772  29.621   1.417
99359W        W60670   8.706  17.209   1.805
99360W        W60671  30.611  44.895   2.235
99361W        W60672  23.079  19.603  14.838
99362W        W60673   3.246  40.040   4.182
99363W        W60674  32.551  44.487   2.792
99364W        W60675  11.268   0.866   4.654
99365W        W60676  41.508  12.782  14.322
99366W        W60677   0.361  30.013   1.916
99367W        W60678  27.130   3.927  12.980
99368W        W60679  27.156  30.531   1.238
99369W        W60680  10.705  40.492   3.153
99370W        W60681  26.623  41.341  14.898
99371W        W60682   5.430  17.728  12.880
99372W        W60683  15.648   3.286   2.384
99373W        W60684  15.683  38.823   2.724
99374W        W60685  43.334  26.504  10.412
99375W        W60686  31.612  27.115  12.531
99376W        W60687  29.102   9.854  14.321
99377W        W60688  34.587  10.295  10.496
99378W        W60689  40.827  39.538  13.360
99379W        W60690  31.995  32.034   4.752
99380W        W60691  36.934   2.841  12.888
99381W        W60692  41.035  16.712   4.263
99382W        W60693  17.646   3.812  14.365
99383W        W60694  32.531  43.334  11.398
99384W        W60695   6.423   2.769   4.629
99385W        W60696  12.321  42.428   3.770
99386W        W60697  26.001   3.350  12.938
99387W        W60698   7.340  26.595  10.508
99388W        W60699  29.092  30.130   4.752
99389W        W60700   8.337   8.663   0.363
99390W        W60701  42.814  20.197  12.844
99391W        W60702  25.654  13.129  11.545
99392W        W60703  42.520  26.635   4.200
99393W        W60704  11.674   1.251   4.291
99394W        W60705   9.806  29.935  14.308
99395W        W60706  44.469  36.996  11.939
99396W        W60707  10.310  38.565   1.881
99397W        W60708  29.020  11.200   0.769
99398W        W60709  37.345  36.560   2.389
99399W        W60710  38.437  30.161  11.395
99400W        W60711  11.749  19.186   2.799
99401W        W60712   5.306   2.926   2.326
99402W        W60713  33.517   3.401   5.086
99403W        W60714  13.148  28.137  11.459
99404W        W60715  24.485   0.383  11.920
99405W        W60716  35.358   3.460  10.492
99406W        W60717  32.933  12.787  12.012
99407W        W60718  14.655  15.278  12.487
99408W        W60719  12.762  22.235  13.320
99409W        W60720  34.051  40.989   2.664
99410W        W60721  27.659   8.347   2.719
99411W        W60722  32.937  10.280  13.323
99412W        W60723  17.773  23.588  12.932
99413W        W60724  18.620  34.017   3.653
99414W        W60725  26.032  19.749   4.618
99415W        W60726  41.856  29.131   2.217
99416W        W60727  24.568  31.136  12.972
99417W        W60728  11.827  15.688  13.809
99418W        W60729  24.547  37.897  14.362
99419W        W60730  13.772  29.658   2.337
99420W        W60731  16.747  34.968  10.413
99421W        W60732  13.752   2.891   2.778
99422W        W60733  21.651   6.873  11.518
99423W        W60734  40.334  15.110  10.910
99424W        W60735  19.756   5.302  14.827
99425W        W60736  25.120  39.970   3.192
99426W        W60737  23.057   5.806   2.207
99427W        W60738  42.302  43.971   3.803
99428W        W60739  40.371  41.301   4.681
99429W        W60740  42.291  28.122  14.330
99430W        W60741   7.875  44.970   4.629
99431W        W60742  35.442  37.360   1.304
99432W        W60743  33.884  20.179  12.853
99433W        W60744   3.907   0.414  10.941
99434W        W60745  42.988  22.727  13.036
99435W        W60746  40.882  44.450   1.428
99436W        W60747  21.017  22.136  12.078
99437W        W60748  43.396  37.477   2.860
99438W        W60749  14.321   4.789   1.734
99439W        W60750  26.110  35.951   0.350
99440W        W60751  26.205  44.279   3.671
99441W        W60752   4.217   3.385  12.357
99442W        W60753  30.439  40.009  13.838
99443W        W60754   1.429  42.442   2.294
99444W        W60755  19.657  28.665   2.789
99445W        W60756  29.621   1.861   0.757
99446W        W60757  42.971  44.982   4.227
99447W        W60758   2.276  23.000  11.935
99448W        W60759   6.293  14.140  10.002
99449W        W60760   6.913  37.987   2.690
99450W        W60761  39.020  32.003   0.463
99451W        W60762  44.980  10.757   0.915
99452W        W60763  28.968  21.092   3.357
99453W        W60764  27.133  24.202  11.531
99454W        W60765  43.939  15.642   2.410
99455W        W60766  44.323  17.273  11.071
99456W        W60767  33.022  12.717  13.374
99457W        W60768  19.589  36.493   4.717
99458W        W60769  28.158  24.169   4.288
99459W        W60770  27.020  38.006  12.002
99460W        W60771  12.619   1.911   4.351
99461W        W60772  23.731  27.559   5.301
99462W        W60773  42.341  35.470  10.471
99463W        W60774   7.383  40.000  11.479
99464W        W60775  40.886  43.958  14.898
99465W        W60776  27.131  25.655   0.726
99466W        W60777  26.661  16.672   2.197
99467W        W60778  11.135   4.319   4.275
99468W        W60779  13.615  27.600   2.818
99469W        W60780  21.696  17.655   3.725
99470W        W60781  38.507   8.704  13.500
99471W        W60782  38.405  18.138  14.820
99472W        W60783  42.471  37.559   2.312
99473W        W60784  17.198   6.216  14.880
99474W        W60785  21.195  11.322  14.366
99475W        W60786   0.325  16.306   2.799
99476W        W60787  15.204  39.473   0.795
99477W        W60788  41.889  43.808   4.776
99478W        W60789   4.786  28.663  11.097
99479W        W60790  42.962  13.815  11.058
99480W        W60791  40.398  44.764  11.956
99481W        W60792  27.029   3.932   1.785
99482W        W60793  31.042  16.587  13.870
99483W        W60794   7.256  20.766  14.959
99484W        W60795   9.205  12.719  10.900
99485W        W60796  40.862   4.282  12.568
99486W        W60797  17.124  16.131  14.785
99487W        W60798   8.899  22.146   1.729
99488W        W60799  35.096  43.933   0.893
99489W        W60800  31.025  11.201   3.652
99490W        W60801  20.219  40.926   3.353
99491W        W60802  33.943   6.240   2.666
99492W        W60803  43.864   0.349  10.432
99493W        W60804  19.082  21.175  12.007
99494W        W60805  12.659   5.797   0.397
99495W        W60806  40.546  16.649  11.473
99496W        W60807  23.582  20.167  11.881
99497W        W60808   9.834  21.183  14.496
99498W        W60809  27.979   4.728  13.004
99499W        W60810  24.539  30.496  10.436
99500W        W60811  41.995  13.659  12.496
99501W        W60812  23.142  26.153   3.725
99502W        W60813   5.760  43.993  12.981
99503W        W60814  29.092  42.947   2.411
99504W        W60815  42.292  26.702   9.985
99505W        W60816  14.831   7.397   4.221
99506W        W60817  35.063   9.386  13.996
99507W        W60818   2.354  39.847   9.997
99508W        W60819  18.243  39.997  10.578
99509W        W60820  21.624   1.448  12.888
99510W        W60821  39.420  22.245   2.340
99511W        W60822  29.064  37.948  13.334
99512W        W60823  13.702  37.483   2.407
99513W        W60824  27.635  27.593   2.380
99514W        W60825   7.291   2.269  11.060
99515W        W60826  34.525  32.008  11.081
99516W        W60827  38.067  16.086   2.672
99517W        W60828  42.325  23.234  12.457
99518W        W60829  33.411  17.119  12.986
99519W        W60830  23.538  19.222   1.449
99520W        W60831  39.465  39.034   1.402
99521W        W60832  28.514  43.806   4.333
99522W        W60833  36.495  18.612  12.567
99523W        W60834   6.321   6.182  13.834
99524W        W60835  33.077  26.581  12.979
99525W        W60836  22.217  34.996  12.546
99526W        W60837  28.035  19.264  11.096
99527W        W60838  21.223  20.162  14.985
99528W        W60839  26.081  13.231   1.706
99529W        W60840   5.816  24.514   2.673
99530W        W60841  35.547  16.237   1.261
99531W        W60842  41.819  15.775  10.062
99532W        W60843  41.474  15.746   4.315
99533W        W60844  13.135  37.582   3.361
99534W        W60845  16.285  34.025  10.586
99535W        W60846  10.185  27.544  12.541
99536W        W60847  27.488  23.715  13.412
99537W        W60848  13.266  40.445  10.966
99538W        W60849   6.916  19.672  12.448
99539W        W60850  21.055  13.264   2.283
99540W        W60851  35.978   6.888   2.242
99541W        W60852   4.402   0.265   4.297
99542W        W60853  36.349  16.077   0.446
99543W        W60854  30.003  21.174  14.491
99544W        W60855  42.898  38.375   1.366
99545W        W60856  32.910  11.675  10.597
99546W        W60857  43.977  30.098   1.755
99547W        W60858  13.162  25.012   3.705
99548W        W60859  44.364  25.177   4.687
99549W        W60860  19.118  32.551   3.708
99550W        W60861  25.590  26.654  13.824
99551W        W60862  17.116  41.979   1.809
99552W        W60863   5.859  29.525   1.812
99553W        W60864  23.623   9.752  11.567
99554W        W60865  15.784  30.655  14.454
99555W        W60866   0.840  35.074  11.084
99556W        W60867  30.145  44.811  13.447
99557W        W60868  33.440   4.853   2.794
99558W        W60869  41.004   3.225  13.328
99559W        W60870  16.604  34.499  13.041
99560W        W60871  31.473   3.883   0.937
99561W        W60872  21.718  33.436   4.299
99562W        W60873  41.838  39.393  11.028
99563W        W60874  37.441   8.390  10.578
99564W        W60875  17.095  10.328  13.516
99565W        W60876  33.467   3.315   4.183
99566W        W60877  22.713   9.384   3.375
99567W        W60878   1.306  13.610  12.501
99568W        W60879  30.624  30.465  14.806
99569W        W60880  18.283  13.255  12.043
99570W        W60881  33.575  41.326  11.390
99571W        W60882  23.141  38.051   1.291
99572W        W60883  24.724  29.108  13.542
99573W        W60884  42.916  12.829  10.125
99574W        W60885  12.614  26.457  14.967
99575W        W60886  25.485  40.964  13.059
99576W        W60887  19.156  38.873   5.309
99577W        W60888  11.661  37.453  12.435
99578W        W60889   1.890  32.116  12.929
99579W        W60890  14.649  28.964   4.642
99580W        W60891   4.324  21.107  12.890
99581W        W60892   4.220  30.058   3.293
99582W        W60893  20.549  33.456   1.760
99583W        W60894  33.467  35.901   0.786
99584W        W60895  40.910  29.424   1.325
99585W        W60896   1.815   8.362   4.345
99586W        W60897  13.111  37.041   1.903
99587W        W60898  26.463  10.324   3.743
99588W        W60899  41.863   4.208   1.216
99589W        W60900   6.886  36.922  13.968
99590W        W60901  10.186  25.199   1.449
99591W        W60902   2.952  11.626  12.476
99592W        W60903  18.678  27.949  11.970
99593W        W60904  18.063  13.642   0.894
99594W        W60905  19.239  27.615  14.972
99595W        W60906   9.757   2.279   4.703
99596W        W60907  35.465  18.575  14.351
99597W        W60908   5.843  10.148  11.062
99598W        W60909   2.746   7.199   4.203
99599W        W60910  34.946  35.898   5.236
99600W        W60911   2.883   9.221   1.932
99601W        W60912  33.475   5.826  10.127
99602W        W60913   6.404  18.244   3.198
99603W        W60914  28.457  38.015   1.266
99604W        W60915  14.333  32.392   0.727
99605W        W60916  28.608  10.673   1.746
99606W        W60917  27.166   0.486   1.802
99607W        W60918  36.955  11.176   4.187
99608W        W60919  11.313  44.830   0.478
99609W        W60920  36.401  34.461   4.273
99610W        W60921  22.635  41.827   1.371
99611W        W60922  29.134  30.518  12.361
99612W        W60923  19.274  23.632   4.299
99613W        W60924  15.305  35.946   0.775
99614W        W60925   8.285  43.457  10.992
99615W        W60926  39.889  23.235  14.375
99616W        W60927  42.883   6.864  11.392
99617W        W60928  37.950  15.155  10.901
99618W        W60929  14.638  18.697   0.739
99619W        W60930   9.168  29.040   1.701
99620W        W60931  23.595  21.252   5.131
99621W        W60932  13.619  24.491  13.968
99622W        W60933  15.321   2.723  12.366
99623W        W60934  22.589  12.358   1.933
99624W        W60935  15.586  17.694   1.389
99625W        W60936   8.282  38.446   1.410
99626W        W60937  16.646   7.696  12.479
99627W        W60938  29.506   9.299   0.860
99628W        W60939  36.480  10.713  11.555
99629W        W60940   4.285  20.753   3.860
99630W        W60941  25.488  42.980  12.828
99631W        W60942  17.144  42.449  11.040
99632W        W60943  15.196   8.243  13.501
99633W        W60944  15.618  26.589   3.793
99634W        W60945  25.652  12.294  13.847
99635W        W60946  31.547   1.743  11.494
99636W        W60947  17.104   9.157   1.426
99637W        W60948  27.197   9.840   3.841
99638W        W60949  14.337  15.147   3.374
99639W        W60950  10.649  28.591  13.378
99640W        W60951   0.373  22.128  12.991
99641W        W60952  24.136  26.572  12.005
99642W        W60953  23.675   1.359   1.823
99643W        W60954  35.037  36.898  13.522
99644W        W60955  10.818   9.192  12.858
99645W        W60956  15.617   5.395  12.509
99646W        W60957  24.005  30.133   0.479
99647W        W60958  19.065  33.964   3.328
99648W        W60959  20.217  39.405  14.296
99649W        W60960  31.448  21.141  13.503
99650W        W60961  32.580   5.693   1.733
99651W        W60962  35.392  37.048  12.007
99652W        W60963  14.269  29.507  12.937
99653W        W60964   4.359  27.192   3.713
99654W        W60965   1.856  37.891   1.752
99655W        W60966   8.219   0.448   4.285
99656W        W60967  43.491  26.085   3.794
99657W        W60968  12.201   7.727   2.311
99658W        W60969  22.533  37.846   2.748
99659W        W60970  19.226  36.414   4.810
99660W        W60971  17.076  19.101   4.164
99661W        W60972  34.041  42.479   1.387
99662W        W60973  16.148  25.088   5.098
99663W        W60974  26.545  37.950   2.889
99664W        W60975  20.567  21.251   4.202
99665W        W60976   5.403  44.345  14.881
99666W        W60977  43.976  22.086   2.347
99667W        W60978  24.110   9.736  10.426
99668W        W60979  32.405  38.059  11.906
99669W        W60980   9.361  31.604   3.820
99670W        W60981   9.159   3.865  13.046
99671W        W60982   7.910  42.345  14.322
99672W        W60983  32.542  10.159  13.855
99673W        W60984  32.121  10.803  13.439
99674W        W60985   9.855  41.315  11.989
99675W        W60986  38.406  24.088   0.367
99676W        W60987  22.514  12.842   0.841
99677W        W60988  34.611  35.415  11.462
99678W        W60989  15.098   2.291   4.307
99679W        W60990  32.131  11.654   4.240
99680W        W60991  31.930  14.673  14.320
99681W        W60992  23.585  31.153  13.415
99682W        W60993  17.736   4.335   2.779
99683W        W60994  42.913   5.328  14.950
99684W        W60995   8.889  14.245   0.481
99685W        W60996  11.759  25.596   4.623
99686W        W60997  37.480  19.725   2.362
99687W        W60998  31.595  29.511  14.394
99688W        W60999   7.247  31.409   3.655
99689W        W61000  28.460  24.574   0.416
99690W        W61001  25.035  43.994   3.248
99691W        W61002   4.437  22.164   1.793
99692W        W61003  17.668  25.678  13.000
99693W        W61004  17.753  20.638  13.313
99694W        W61005   5.206  41.444  13.374
99695W        W61006  39.857  34.074   2.234
99696W        W61007  20.104  13.822   1.811
99697W        W61008  34.931   9.221  10.479
99698W        W61009  39.442  21.088   2.664
99699W        W61010   9.704  20.210  10.428
99700W        W61011  23.234  39.986  10.617
99701W        W61012   5.912   1.879  13.006
99702W        W61013  36.471  10.718  13.534
99703W        W61014  37.572   8.360   4.214
99704W        W61015  28.548   8.693  13.017
99705W        W61016  39.861  12.118  11.511
99706W        W61017   9.878  33.968  14.481
99707W        W61018  26.120  10.853   3.860
99708W        W61019  16.243  33.936   4.261
99709W        W61020  42.355  42.464   4.145
99710W        W61021  34.119  43.291  11.092
99711W        W61022  27.587  42.876  14.459
99712W        W61023  10.287  14.610  13.337
99713W        W61024  40.481  11.847   5.266
99714W        W61025  17.208  18.570  10.922
99715W        W61026  16.227  37.065   1.295
99716W        W61027  44.400  11.330   1.352
99717W        W61028   8.248  14.751   1.447
99718W        W61029   0.328  17.571   0.295
99719W        W61030  41.036  31.499  13.840
99720W        W61031   0.274  22.118   3.216
99721W        W61032  19.145  36.497  11.477
99722W        W61033  20.240  17.767  11.408
99723W        W61034  29.952  38.561   2.386
99724W        W61035  34.613   1.807  11.535
99725W        W61036   2.924  21.753  14.768
99726W        W61037  41.993   1.928   0.966
99727W        W61038  11.340   2.854   2.348
99728W        W61039  15.587  12.673   0.271
99729W        W61040  43.333  15.219   2.676
99730W        W61041  39.419  11.705   9.941
99731W        W61042  23.507  10.743   0.428
99732W        W61043   9.817  19.047   1.707
99733W        W61044  22.139  27.457   0.383
99734W        W61045  38.056  37.336  14.783
99735W        W61046  27.570  31.089  14.377
99736W        W61047  35.413  20.540  11.602
99737W        W61048  21.163  25.057   2.250
99738W        W61049  37.382   2.392  14.858
99739W        W61050   9.843  18.285  13.987
99740W        W61051  41.420  34.898  14.395
99741W        W61052  42.915  22.012   0.317
99742W        W61053  10.348  35.524   1.271
99743W        W61054  24.018  12.203   2.311
99744W        W61055  10.636  14.747  12.000
99745W        W61056  34.394  30.503   5.108
99746W        W61057  11.820  20.258   3.638
99747W        W61058  27.978  33.626   3.386
99748W        W61059  39.315  26.701   3.747
99749W        W61060  17.642  20.755   3.834
99750W        W61061  16.273  28.945  14.410
99751W        W61062  16.678  18.665   1.231
99752W        W61063   0.358  14.818  13.459
99753W        W61064  14.694  24.618   0.779
99754W        W61065  43.270  10.696   1.767
99755W        W61066  18.670  17.589  11.511
99756W        W61067   9.662  30.040   3.379
99757W        W61068  43.341  13.259   4.666
99758W        W61069  12.774   0.834  10.936
99759W        W61070  28.508  30.522  11.533
99760W        W61071  31.603  16.767  11.940
99761W        W61072  34.378  34.968   2.798
99762W        W61073  41.488  43.505  14.945
99763W        W61074  26.184   8.291  10.438
99764W        W61075  20.553  22.217  14.408
99765W        W61076  19.173  34.015   0.776
99766W        W61077   3.314   1.245   2.887
99767W        W61078  37.842  13.240  10.463
99768W        W61079   9.773  18.693  10.553
99769W        W61080  21.185  37.872  13.411
99770W        W61081  30.993   4.445  11.449
99771W        W61082  32.985  27.607   2.317
99772W        W61083  29.958  44.261   4.242
99773W        W61084  40.014  23.046  10.505
99774W        W61085  18.661  37.980  13.486
99775W        W61086   1.433  25.527   1.773
99776W        W61087  31.402  22.996   0.775
99777W        W61088  11.296  44.333   0.871
99778W        W61089   5.737   4.941   4.601
99779W        W61090  43.786  20.533   0.786
99780W        W61091   3.326   1.356   4.261
99781W        W61092  23.548  15.777  11.893
99782W        W61093   3.337  17.280  14.430
99783W        W61094  33.954   0.791  13.027
99784W        W61095  43.289   0.874  12.891
99785W        W61096  10.315  35.074  13.048
99786W        W61097  16.667  41.949  11.392
99787W        W61098   0.445   6.182   0.470
99788W        W61099   0.388  44.328   3.718
99789W        W61100  12.702  14.150  13.006
99790W        W61101   7.191   9.837  10.502
99791W        W61102  18.215  31.067   2.223
99792W        W61103  27.553  14.140  11.461
99793W        W61104  28.670   1.459   4.182
99794W        W61105  44.758   9.823   0.452
99795W        W61106  29.628  15.161  14.480
99796W        W61107   7.239  31.529  13.994
99797W        W61108  10.237  19.082  12.060
99798W        W61109  17.287   9.716  12.942
99799W        W61110  33.615  12.176  12.095
99800W        W61111  39.897   6.725   2.393
99801W        W61112  36.535  35.862   1.321
99802W        W61113   8.283  27.143   4.206
99803W        W61114  34.096  44.849  11.539
99804W        W61115  42.351  13.322   4.813
99805W        W61116   8.807  11.133  10.158
99806W        W61117  26.698  30.632   1.778
99807W        W61118  12.233  39.437   2.756
99808W        W61119  37.021  41.411  14.350
99809W        W61120   8.727  26.154   4.791
99810W        W61121  20.190  23.993  11.387
99811W        W61122  18.641  15.242  12.465
99812W        W61123   7.402  35.964  11.476
99813W        W61124  33.903  14.658   3.383
99814W        W61125  44.001  20.125  14.438
99815W        W61126  29.582  28.123  13.333
99816W        W61127   4.440  20.222  10.415
99817W        W61128  33.887   4.270   2.688
99818W        W61129  13.108  40.867  14.298
99819W        W61130  32.026  21.154  13.539
99820W        W61131   5.303  18.075   3.274
99821W        W61132  31.034  31.138  14.881
99822W        W61133   7.355  37.420   0.817
99823W        W61134  19.553  27.489   1.817
99824W        W61135  24.069  41.008   1.233
99825W        W61136  30.068  36.091  14.805
99826W        W61137  17.122   8.297  12.835
99827W        W61138  44.881   7.688   1.416
99828W        W61139   3.356   1.793   0.263
99829W        W61140   3.375  30.134   2.284
99830W        W61141   6.783   9.715  11.105
99831W        W61142  40.328  29.087  14.941
99832W        W61143  40.355  44.878  11.495
99833W        W61144  18.762   7.381   1.839
99834W        W61145  41.484  30.657  14.916
99835W        W61146   0.494  29.976  13.841
99836W        W61147  19.608  41.869   1.911
99837W        W61148  24.506   8.841  12.986
99838W        W61149  41.523   3.857   4.816
99839W        W61150  18.118  29.083   1.873
99840W        W61151   9.785  11.846  14.346
99841W        W61152  35.586   2.872  14.948
99842W        W61153   4.379  33.560   1.785
99843W        W61154  38.925  28.943  14.317
99844W        W61155  31.611  16.628  13.407
99845W        W61156   5.307  43.394  14.315
99846W        W61157   3.242  42.863  12.363
99847W        W61158  27.466  40.019  12.410
99848W        W61159   1.817  24.647   0.258
99849W        W61160   1.473   1.760   4.665
99850W        W61161   5.757   5.778  12.412
99851W        W61162  10.186  18.617   1.897
99852W        W61163  30.493  19.110   4.818
99853W        W61164  31.954  33.490  10.522
99854W        W61165  28.955  20.150  12.957
99855W        W61166  27.099  30.149  13.384
99856W        W61167  30.467  12.700  11.504
99857W        W61168  30.998  28.572  13.949
99858W        W61169   0.472   6.366   4.605
99859W        W61170  22.576  32.912  10.969
99860W        W61171   7.742  28.459   1.447
99861W        W61172   6.383  18.558  10.571
99862W        W61173   0.782  44.297  11.527
99863W        W61174  34.435  13.292   3.763
99864W        W61175  34.475  22.607  11.496
99865W        W61176   5.923  17.289   2.387
99866W        W61177  43.317  26.519   0.840
99867W        W61178  10.359  22.680   3.712
99868W        W61179   7.770   2.435   0.472
99869W        W61180  23.127  10.346   2.351
99870W        W61181  25.495  34.380   0.963
99871W        W61182  21.090  29.471  13.891
99872W        W61183   7.677  27.003   0.756
99873W        W61184   1.297   7.672  12.915
99874W        W61185   6.854  34.451   2.401
99875W        W61186  22.038  12.175  13.478
99876W        W61187  43.369   7.740   2.804
99877W        W61188  41.982  19.777   3.355
99878W        W61189  27.142  13.603  11.542
99879W        W61190  18.135  34.579   1.876
99880W        W61191   2.362  30.645  14.405
99881W        W61192  37.504  13.105  11.454
99882W        W61193   9.775   9.889   3.307
99883W        W61194  10.840   5.828  13.961
99884W        W61195   4.268  25.138   3.383
99885W        W61196  10.144  29.125   1.841
99886W        W61197  37.499  21.746   1.436
99887W        W61198  33.476  19.172   1.764
99888W        W61199  12.755  41.360  12.413
99889W        W61200  24.016  21.678   1.870
99890W        W61201  20.712  17.115  14.349
99891W        W61202  26.482  28.475   3.203
99892W        W61203   4.384  24.533  11.964
99893W        W61204  21.607   3.357  10.916
99894W        W61205  41.323   3.269  14.849
99895W        W61206  34.422   2.471  13.850
99896W        W61207   8.757  13.842  12.403
99897W        W61208  40.943  31.900   2.671
99898W        W61209   7.843  32.581   3.337
99899W        W61210  10.771  29.496   0.845
99900W        W61211  19.741  18.204  10.500
99901W        W61212  43.895  20.109   3.733
99902W        W61213   2.744  24.060  13.876
99903W        W61214  30.597  35.910   4.691
99904W        W61215  16.233  27.117   2.238
99905W        W61216  31.582  39.985   0.437
99906W        W61217  26.678  42.922  12.509
99907W        W61218  41.859  20.225   4.254
99908W        W61219  28.446   2.852  13.990
99909W        W61220   5.689  27.513   0.871
99910W        W61221   5.199  25.213  11.424
99911W        W61222   0.881  40.891  13.052
99912W        W61223   7.290  30.504   2.205
99913W        W61224  29.001  32.469   3.685
99914W        W61225  24.108  17.275   4.221
99915W        W61226  28.625   6.829   2.374
99916W        W61227   6.748  39.434  10.952
99917W        W61228  31.428  19.180   1.432
99918W        W61229   9.266  42.406   4.299
99919W        W61230  23.087  18.124   2.729
99920W        W61231  27.100  34.076   0.817
99921W        W61232  36.458   2.383   0.257
99922W        W61233  13.732   1.779  14.358
99923W        W61234  19.051  35.587  14.879
99924W        W61235  29.047  29.067   1.779
99925W        W61236  18.222   8.823   2.886
99926W        W61237  20.105  32.401  13.051
99927W        W61238  15.652   6.870  12.492
99928W        W61239   4.877   0.341   0.475
99929W        W61240  21.019  17.749   3.799
99930W        W61241  11.199   4.227  10.444
99931W        W61242  16.799  30.609  12.045
99932W        W61243   2.919  29.648  13.971
99933W        W61244  35.514  14.159   3.161
99934W        W61245   8.872  19.578   3.832
99935W        W61246  13.631  29.136   2.407
99936W        W61247  27.961  26.117  11.974
99937W        W61248  39.816  36.374   4.740
99938W        W61249   9.813   9.384   1.362
99939W        W61250  24.483  33.417  10.913
99940W        W61251  20.753  29.940   1.213
99941W        W61252  17.629  27.196   2.717
99942W        W61253  38.417  26.132  11.107
99943W        W61254  26.991  41.041  14.324
99944W        W61255   7.183  41.429   0.779
99945W        W61256  13.337  27.685  14.848
99946W        W61257  32.973  24.133  11.444
99947W        W61258  28.055   0.848  13.848
99948W        W61259  37.848  24.050   3.160
99949W        W61260   0.288   0.380   0.282
99950W        W61261  32.427   3.823   0.417
99951W        W61262   1.896  18.722  11.916
99952W        W61263   1.308  39.392  11.463
99953W        W61264  33.557   1.324   0.284
99954W        W61265  43.802  15.128  10.967
99955W        W61266  10.822  31.456  12.489
99956W        W61267   6.801   4.231  14.371
99957W        W61268  41.855  16.220   1.430
99958W        W61269  33.885  44.770  10.440
99959W        W61270  15.587   2.787   3.662
99960W        W61271  36.951  42.916   9.512
99961W        W61272  28.559   9.331   1.275
99962W        W61273  13.617  16.806  14.014
99963W        W61274   0.352  38.378   1.244
99964W        W61275  28.465  42.797   3.862
99965W        W61276  20.096  38.843   3.649
99966W        W61277  28.965  30.945   1.328
99967W        W61278  22.109   7.887   0.289
99968W        W61279  14.750  38.331  13.523
99969W        W61280   6.380  34.488  14.953
99970W        W61281   3.893  33.110  10.567
99971W        W61282  33.004  27.597  14.986
99972W        W61283  43.906  30.112   0.734
99973W        W61284  16.670  12.714  11.901
99974W        W61285   9.818  12.123   2.219
99975W        W61286   6.238  36.953   2.365
99976W        W61287  44.009  42.511   1.835
99977W        W61288  11.746  42.924  10.893
99978W        W61289  10.651   3.872  11.956
99979W        W61290  34.478  13.279   0.877
99980W        W61291  21.549   4.383  12.441
99981W        W61292  28.550  38.861   4.680
99982W        W61293   8.383  30.943  12.074
99983W        W61294   2.295  21.649   4.822
99984W        W61295   3.839  26.528  10.106
99985W        W61296  20.756   1.471   0.467
99986W        W61297  30.458  39.051  10.406
99987W        W61298   6.328   7.730  14.011
99988W        W61299  38.933  28.537  13.806
99989W        W61300   1.828  11.757   3.172
99990W        W61301   4.727  44.004   9.951
99991W        W61302  29.510   7.848  10.028
99992W        W61303  37.579   9.864  13.992
99993W        W61304   6.771  19.538   0.965
99994W        W61305  38.566  11.777   2.676
99995W        W61306   8.286  12.196  14.448
99996W        W61307  21.063  24.505   3.157
99997W        W61308  25.128  27.969  14.479
99998W        W61309  35.376   5.735  10.493
99999W        W61310  22.177  44.450  14.450
    0W        W61311  16.801  41.828  12.874
    1W        W61312  24.589  35.919  11.377
    2W        W61313  21.584  37.428   2.889
    3W        W61314  38.372  14.646   4.348
    4W        W61315  12.700  15.230  12.444
    5W        W61316  25.579  14.300   1.734
    6W        W61317  42.970  21.697  13.007
    7W        W61318  13.135  43.877  13.812
    8W        W61319  43.464  44.917  10.479
    9W        W61320  24.086  17.176   1.918
   10W        W61321  30.652   8.786   1.215
   11W        W61322  27.474  11.695  12.475
   12W        W61323  37.461  40.532   0.854
   13W        W61324  18.728   2.276  12.520
   14W        W61325  14.672  30.989   4.812
   15W        W61326  32.582  11.189  10.554
   16W        W61327   3.888  41.791  14.855
   17W        W61328  28.950   9.268   1.851
   18W        W61329  23.619  27.533  11.108
   19W        W61330   4.871  23.078   3.634
   20W        W61331  11.289   6.721  12.346
   21W        W61332  20.064   9.702  11.013
   22W        W61333  12.722  43.475   4.346
   23W        W61334  36.096  20.271   4.331
   24W        W61335  27.022   5.336   9.669
   25W        W61336  43.005  32.501  13.841
   26W        W61337   1.477  11.838  11.995
   27W        W61338  36.950  14.592   0.313
   28W        W61339  22.605  15.700  13.410
   29W        W61340  31.574  42.926  14.993
   30W        W61341  35.385   6.758  13.951
   31W        W61342  29.123  21.567  12.379
   32W        W61343  20.653  14.202   3.688
   33W        W61344  26.469   7.685   1.935
   34W        W61345  39.497  32.442   1.729
   35W        W61346   3.320   0.352  13.445
   36W        W61347  41.854  35.379   2.324
   37W        W61348   8.661   5.363  14.409
   38W        W61349  30.481  20.557  11.383
   39W        W61350  31.414  38.333  12.972
   40W        W61351  22.606  13.122   9.964
   41W        W61352  37.486   9.149   3.768
   42W        W61353   2.447  35.529  10.607
   43W        W61354   5.286  16.724   3.653
   44W        W61355  42.855   5.727   3.159
   45W        W61356   9.233  10.813  13.955
   46W        W61357  41.024  37.876   4.136
   47W        W61358  23.720   8.824  11.494
   48W        W61359  29.081  18.172  12.546
   49W        W61360  43.814  35.070   3.757
   50W        W61361  28.053  44.839  12.535
   51W        W61362  24.036  21.226   3.247
   52W        W61363  12.116  20.134   2.352
   53W        W61364   8.880   7.392   2.274
   54W        W61365  32.959  14.101  10.490
   55W        W61366  20.044  33.469   3.327
   56W        W61367   0.938  26.552  12.498
   57W        W61368   5.710  14.249  14.358
   58W        W61369  29.532  13.599   1.700
   59W        W61370  20.662  30.989  10.417
   60W        W61371  11.289  25.643  10.602
   61W        W61372   8.820  10.252   1.932
   62W        W61373   8.275  12.156   4.249
   63W        W61374  38.934  17.724  11.402
   64W        W61375  37.487  36.035   4.797
   65W        W61376  29.979  12.176  12.980
   66W        W61377  18.218  30.518  14.380
   67W        W61378  14.654  10.269  10.498
   68W        W61379  28.516  22.099  14.760
   69W        W61380  40.307   8.808   5.217
   70W        W61381   0.374  36.096  12.092
   71W        W61382  16.735   2.331   2.305
   72W        W61383  39.026   6.899   0.965
   73W        W61384   1.358   2.455  11.512
   74W        W61385   8.255  34.935  10.891
   75W        W61386  21.192  11.653   3.839
   76W        W61387   5.809  19.746   0.476
   77W        W61388  29.141  35.592  11.946
   78W        W61389   1.329  43.880   2.709
   79W        W61390  41.478  20.680   0.322
   80W        W61391  36.477   0.984  14.466
   81W        W61392  19.086  33.125   3.190
   82W        W61393  27.495  42.515  11.381
   83W        W61394  12.191  38.846  13.351
   84W        W61395  19.577   4.315   3.783
   85W        W61396  30.140  36.979  10.982
   86W        W61397  42.411  35.016   2.712
   87W        W61398  16.771   0.409   4.724
   88W        W61399  10.297  10.370   4.774
   89W        W61400  27.038  28.063  10.120
   90W        W61401  21.600  29.072   4.304
   91W        W61402  44.383  38.917   4.293
   92W        W61403  28.104  40.304   1.397
   93W        W61404  29.921  39.326  11.592
   94W        W61405  15.255  15.725  13.030
   95W        W61406  35.411  25.674   0.303
   96W        W61407  44.949  27.691   3.264
   97W        W61408  25.194  21.215   2.662
   98W        W61409  12.827  40.494   2.179
   99W        W61410  23.120  35.981  14.821
  100W        W61411  37.565  24.976  12.068
  101W        W61412   0.898   2.820   0.253
  102W        W61413  30.957   5.235  14.401
  103W        W61414  17.622  24.557  13.535
  104W        W61415  40.549  16.735   1.275
  105W        W61416  44.998  22.027   4.716
  106W        W61417  40.417   7.201   4.647
  107W        W61418  26.689  32.578   5.150
  108W        W61419  22.601  22.535  11.955
  109W        W61420   2.869  11.829   1.322
  110W        W61421  19.762  38.483   4.800
  111W        W61422   1.393  17.298  10.919
  112W        W61423  31.123  24.035   0.278
  113W        W61424  40.495   4.204  14.028
  114W        W61425  31.504  30.455   1.279
  115W        W61426  42.401   4.895   4.182
  116W        W61427  30.561  30.074   2.737
  117W        W61428  25.178   3.351  13.036
  118W        W61429  10.196   7.302   0.939
  119W        W61430  35.386   9.886  12.454
  120W        W61431  16.084  22.593  11.558
  121W        W61432   1.347  15.297   0.386
  122W        W61433  39.497  29.166  14.786
  123W        W61434  34.046   4.823   2.832
  124W        W61435   7.286  44.297  13.051
  125W        W61436   7.211  17.270   0.353
  126W        W61437   9.766   5.304  10.571
  127W        W61438  32.124  33.620   2.214
  128W        W61439  27.496  16.170  13.458
  129W        W61440  37.403  14.699   3.652
  130W        W61441   8.259   7.899   1.868
  131W        W61442  40.448  33.901   1.771
  132W        W61443  33.101  14.669  12.893
  133W        W61444  16.104   2.928   3.758
  134W        W61445   5.893   1.254   4.720
  135W        W61446   5.296   3.403   2.724
  136W        W61447   6.888  22.590   0.326
  137W        W61448  10.722  18.557   3.375
  138W        W61449  43.319  11.774   3.372
  139W        W61450  43.807  27.179  12.392
  140W        W61451  33.463  29.987   5.153
  141W        W61452   9.243  19.044  10.519
  142W        W61453  31.027   1.376  11.116
  143W        W61454  31.472  36.020  14.493
  144W        W61455   8.780   2.763   2.215
  145W        W61456  10.170  40.494   3.311
  146W        W61457  28.578  27.028  11.040
  147W        W61458  32.110  15.649  11.530
  148W        W61459  37.913  19.147   0.271
  149W        W61460  38.473  31.074   2.866
  150W        W61461  23.235  43.449  14.402
  151W        W61462  42.935  31.962  12.392
  152W        W61463  32.423  28.611  11.958
  153W        W61464  40.495  22.132  10.601
  154W        W61465  18.784  44.911   1.711
  155W        W61466  41.535   1.748  13.485
  156W        W61467  34.934  34.866   4.347
  157W        W61468   3.818   0.320  14.800
  158W        W61469  35.585  16.311   4.325
  159W        W61470   8.686  41.393   4.265
  160W        W61471  44.463   1.796   1.832
  161W        W61472  42.984  31.084  13.482
  162W        W61473   5.404   6.398  14.958
  163W        W61474  11.827   3.361  14.349
  164W        W61475   3.742  39.558   1.855
  165W        W61476  15.211  43.936   4.183
  166W        W61477  31.052  44.393  12.919
  167W        W61478  31.628  33.498  14.502
  168W        W61479  19.681  17.190   3.828
  169W        W61480  35.601  16.598   3.271
  170W        W61481  18.636  19.618  14.016
  171W        W61482  35.403   8.195   4.783
  172W        W61483  28.929  41.528   4.672
  173W        W61484  34.075  17.061   0.263
  174W        W61485  30.435  24.002   4.662
  175W        W61486  26.051   2.309   0.430
  176W        W61487  13.227  13.235   2.762
  177W        W61488  16.116  38.396   1.807
  178W        W61489  41.453  40.424   2.743
  179W        W61490  29.593  37.081  13.349
  180W        W61491   7.175  15.667  13.973
  181W        W61492  15.109  33.084   1.839
  182W        W61493   7.824  38.548  10.483
  183W        W61494  36.455  20.533  13.443
  184W        W61495  21.563   0.454   1.309
  185W        W61496  28.475   8.295   4.625
  186W        W61497  43.790  33.618  13.877
  187W        W61498  42.370  43.860   4.289
  188W        W61499  33.458   1.241  11.586
  189W        W61500   2.233  34.542   2.414
  190W        W61501  30.938   4.837  13.403
  191W        W61502  26.081  38.853   4.183
  192W        W61503  26.028  26.116   3.776
  193W        W61504  28.997  24.193   4.313
  194W        W61505  40.404  38.546  14.850
  195W        W61506  11.709   5.228  14.395
  196W        W61507  33.533  21.187  12.360
  197W        W61508  35.596  43.908  13.923
  198W        W61509  34.456   3.277   4.639
  199W        W61510  44.429  37.403   1.752
  200W        W61511  26.125  32.539   2.412
  201W        W61512  35.539  40.545   3.268
  202W        W61513  17.681   2.849   0.299
  203W        W61514  37.451  32.515   3.829
  204W        W61515  43.923  11.279  13.915
  205W        W61516  43.398  25.496  11.021
  206W        W61517  14.163  17.290   2.311
  207W        W61518  31.479  27.565   4.658
  208W        W61519  38.011  29.495  11.074
  209W        W61520  32.593   3.931  14.849
  210W        W61521  43.975  44.835  13.973
  211W        W61522  20.655  27.680  13.832
  212W        W61523  26.579  35.525   4.748
  213W        W61524  19.267   9.283   4.311
  214W        W61525  28.591   3.720  14.769
  215W        W61526   1.363   5.246   3.243
  216W        W61527  44.768  17.589  12.988
  217W        W61528   8.387  26.556  12.576
  218W        W61529  20.043  24.622   3.213
  219W        W61530  42.295  18.093   0.259
  220W        W61531  31.489  29.014  12.422
  221W        W61532   5.373   4.229   4.164
  222W        W61533   9.655  26.954  14.962
  223W        W61534  13.254   7.192  13.984
  224W        W61535  24.150  27.637   5.234
  225W        W61536  31.490  12.158   3.793
  226W        W61537  38.835  30.428   3.358
  227W        W61538   3.914  11.215  13.362
  228W        W61539   6.185  10.169   3.146
  229W        W61540  41.435   8.305   2.402
  230W        W61541   9.709  40.895   4.608
  231W        W61542  20.091  12.248  14.820
  232W        W61543  43.892  17.612  12.966
  233W        W61544  21.250  16.194   1.901
  234W        W61545  35.003  24.072  10.518
  235W        W61546  40.878  25.487   2.241
  236W        W61547  28.988  39.003   3.852
  237W        W61548  38.395  38.410  14.895
  238W        W61549   0.767  43.430   4.329
  239W        W61550  35.953  14.299   0.911
  240W        W61551  11.688   4.807  11.866
  241W        W61552  20.036  14.708   0.264
  242W        W61553   1.295  37.516  13.060
  243W        W61554  13.273  22.565   4.230
  244W        W61555  24.154  38.051   2.855
  245W        W61556   4.418   8.196  13.524
  246W        W61557  40.483  17.584  14.458
  247W        W61558  17.273  21.594  12.986
  248W        W61559  20.106  32.407  14.804
  249W        W61560  11.787  27.196  12.966
  250W        W61561   6.260  26.500  13.450
  251W        W61562   8.220  15.099   4.222
  252W        W61563  21.658  21.240   5.163
  253W        W61564  31.473  36.474   3.651
  254W        W61565  11.633   3.238  11.061
  255W        W61566   9.327  15.255  11.534
  256W        W61567  43.883  30.048  13.989
  257W        W61568  27.488  31.979   1.398
  258W        W61569   2.447   9.801  14.787
  259W        W61570  34.465  32.452   4.794
  260W        W61571  31.613  32.490  13.397
  261W        W61572  15.122  10.176   1.841
  262W        W61573   0.795  41.535  14.833
  263W        W61574  19.115   3.901  12.358
  264W        W61575  42.879  22.731   5.118
  265W        W61576   0.430  41.917   2.683
  266W        W61577   9.875  23.610  12.499
  267W        W61578  13.274  38.893  10.897
  268W        W61579  27.177  24.979  11.474
  269W        W61580   9.293  44.830  10.529
  270W        W61581  41.512   2.329   3.808
  271W        W61582  20.543  26.958  13.328
  272W        W61583  17.794   3.713  13.795
  273W        W61584  19.284  31.525   1.214
  274W        W61585  16.784  27.684  10.533
  275W        W61586   0.319   3.751  13.892
  276W        W61587  13.822   1.431   0.766
  277W        W61588  11.129  34.919   1.864
  278W        W61589  18.706  14.265   2.350
  279W        W61590  16.800   8.782  11.869
  280W        W61591  38.420  14.199   1.377
  281W        W61592  41.346  34.482  12.896
  282W        W61593  26.492  28.038   3.149
  283W        W61594  43.495  29.971   1.443
  284W        W61595  34.089  11.731  14.960
  285W        W61596  22.587   3.363   3.789
  286W        W61597  34.039  20.272  10.904
  287W        W61598   1.971  14.633   1.766
  288W        W61599  33.921  43.790   0.270
  289W        W61600  17.194   3.948   3.849
  290W        W61601  38.850   1.788   0.951
  291W        W61602  18.091   3.421  10.042
  292W        W61603  32.932  44.281   4.216
  293W        W61604  44.483  10.256  13.821
  294W        W61605  29.618  18.779  12.507
  295W        W61606  12.752  37.964  14.771
  296W        W61607  34.434  39.425   1.769
  297W        W61608  33.914  37.359   0.420
  298W        W61609  42.919  15.612  10.645
  299W        W61610  17.680  23.103  13.469
  300W        W61611  26.632  39.917  11.069
  301W        W61612  29.491  18.096   0.769
  302W        W61613  36.944  23.112   2.886
  303W        W61614  33.089   9.290   2.323
  304W        W61615  11.210  10.640  13.475
  305W        W61616  34.376  32.525   4.159
  306W        W61617  22.031  11.864   3.766
  307W        W61618   4.293  20.681   0.836
  308W        W61619  28.680   1.293   4.783
  309W        W61620  35.012  38.947   3.632
  310W        W61621  10.766   4.743   0.751
  311W        W61622   4.352  37.402   3.772
  312W        W61623  20.044  10.383  10.934
  313W        W61624  25.085  15.220   0.866
  314W        W61625  33.581  12.350   4.122
  315W        W61626  26.956  10.374   1.350
  316W        W61627  33.023   7.393  14.001
  317W        W61628  40.307  35.933  11.937
  318W        W61629  14.631  19.042   4.313
  319W        W61630   1.292  37.880   0.839
  320W        W61631   7.258  41.339   4.308
  321W        W61632  18.688  12.630   2.185
  322W        W61633  13.296  22.637  14.400
  323W        W61634  27.630  20.043  12.020
  324W        W61635  11.198  37.441   2.239
  325W        W61636  20.163  14.767   3.765
  326W        W61637  15.144  32.468  11.551
  327W        W61638   3.784  11.258  10.525
  328W        W61639  18.575   5.369   3.284
  329W        W61640  37.023   8.386  11.870
  330W        W61641  22.620  33.005  10.642
  331W        W61642  18.287  38.054  10.918
  332W        W61643   1.353  33.980   0.243
  333W        W61644  21.203  42.299  14.326
  334W        W61645  34.571  27.089  13.903
  335W        W61646  27.132  25.140   2.182
  336W        W61647   6.393   4.790  10.039
  337W        W61648  31.439  27.641   2.191
  338W        W61649  31.066  11.784   3.757
  339W        W61650  37.040  11.274  10.487
  340W        W61651   0.466  11.150   1.257
  341W        W61652  27.121  17.648   1.780
  342W        W61653  10.674  36.383  11.595
  343W        W61654  28.031  26.973  11.856
  344W        W61655  16.191   3.390   1.374
  345W        W61656  17.287  23.546   2.690
  346W        W61657  35.425  41.846  13.435
  347W        W61658  43.890   8.362   4.156
  348W        W61659   2.809  36.082  12.847
  349W        W61660  30.974  21.210   2.329
  350W        W61661  28.500  40.377   2.307
  351W        W61662  42.315  38.494   1.237
  352W        W61663  16.617  43.895   2.793
  353W        W61664  41.030   8.838  12.504
  354W        W61665  22.197   9.382  11.515
  355W        W61666   5.298  14.265  13.048
  356W        W61667  31.053  29.128   9.951
  357W        W61668  22.098   7.885  10.633
  358W        W61669  20.263  29.081   1.894
  359W        W61670  30.016   3.233   0.802
  360W        W61671  27.501  20.037  11.494
  361W        W61672  30.049  23.716   1.273
  362W        W61673   9.697  31.472  12.384
  363W        W61674  21.710  44.452  11.566
  364W        W61675  36.424  29.968   2.270
  365W        W61676  35.499  41.927  11.003
  366W        W61677  36.543  12.794  13.470
  367W        W61678  30.108   8.901   1.791
  368W        W61679  20.266  26.494  11.095
  369W        W61680   7.897  25.989   2.312
  370W        W61681  35.985  11.849   0.320
  371W        W61682  39.532  32.114   0.862
  372W        W61683  34.375  40.364  13.871
  373W        W61684  30.912  14.759  13.895
  374W        W61685  19.274  41.492  11.914
  375W        W61686   2.335  16.756   0.285
  376W        W61687  34.952  37.895   0.760
  377W        W61688  39.369  25.685  11.972
  378W        W61689   0.322  27.446  12.391
  379W        W61690  38.920  17.655  14.431
  380W        W61691  31.579  26.185  12.932
  381W        W61692  29.440   6.702   1.379
  382W        W61693  10.681  12.280  12.970
  383W        W61694  31.966  20.143   0.877
  384W        W61695   5.344  10.690   2.767
  385W        W61696  27.944   7.350   3.663
  386W        W61697  17.073  39.374   3.779
  387W        W61698   3.226  24.161   0.858
  388W        W61699  42.421  35.959  13.314
  389W        W61700  41.505  36.361   3.278
  390W        W61701  42.517  38.496   2.184
  391W        W61702  12.243   4.758   0.304
  392W        W61703  10.849  14.722   4.703
  393W        W61704  30.522   9.885  11.963
  394W        W61705   9.160  33.036  10.414
  395W        W61706  44.754  37.864   2.189
  396W        W61707   2.377   8.833  10.028
  397W        W61708  44.800  15.289  14.025
  398W        W61709   7.353  39.995  12.440
  399W        W61710  44.376   4.839   3.637
  400W        W61711  21.703  26.201   4.310
  401W        W61712  42.375   9.686  11.536
  402W        W61713  41.942  28.516  10.893
  403W        W61714  14.266  35.985  10.974
  404W        W61715  37.846  16.579  11.444
  405W        W61716   6.369  13.194  13.837
  406W        W61717  16.170  11.302   0.296
  407W        W61718  42.813  35.422  10.573
  408W        W61719  38.327  26.082   3.778
  409W        W61720  20.670  32.992   3.779
  410W        W61721  28.104  17.109   3.234
  411W        W61722   2.457  36.364  12.381
  412W        W61723  27.513  29.959  13.407
  413W        W61724  23.729   6.897  11.529
  414W        W61725   9.701   5.851   1.695
  415W        W61726  13.685  42.909  12.404
  416W        W61727  20.065  17.667   1.905
  417W        W61728  34.417   2.303   2.350
  418W        W61729  28.937  29.621   2.887
  419W        W61730   8.828   4.851   3.790
  420W        W61731  13.805  36.928   0.244
  421W        W61732   6.406   8.900   0.415
  422W        W61733  18.720  43.779   0.330
  423W        W61734  22.714  17.589  12.579
  424W        W61735  16.074  16.080  13.793
  425W        W61736  24.097  23.490   3.827
  426W        W61737  28.997  17.618  12.850
  427W        W61738   4.298  31.054   4.260
  428W        W61739  36.856  37.899   0.307
  429W        W61740  27.646  40.468   2.185
  430W        W61741  17.096  33.566   3.838
  431W        W61742  35.914  26.507  13.901
  432W        W61743  15.110  21.530  10.437
  433W        W61744   7.753  10.311  14.926
  434W        W61745  28.552  17.094   0.894
  435W        W61746  18.673  24.707  12.491
  436W        W61747  19.150  35.951  14.427
  437W        W61748  35.884  22.572  14.414
  438W        W61749  19.665   8.207  12.947
  439W        W61750  21.213  35.108   2.318
  440W        W61751  24.127  25.128  12.424
  441W        W61752  41.943  27.188   3.193
  442W        W61753  36.369  39.348   0.841
  443W        W61754  37.851  11.669  10.898
  444W        W61755   3.398  29.952   3.209
  445W        W61756  30.061   7.720   3.193
  446W        W61757   5.776  39.421   0.882
  447W        W61758  44.375  16.696  14.369
  448W        W61759  32.590   5.325   1.249
  449W        W61760  30.960  13.181   1.355
  450W        W61761   9.765  39.318   0.907
  451W        W61762   7.193  43.485   0.242
  452W        W61763  20.701  32.397  14.486
  453W        W61764  30.534  41.006  14.021
  454W        W61765  38.522  27.048   4.155
  455W        W61766  21.044  16.182  13.519
  456W        W61767   6.810  25.661   3.256
  457W        W61768  28.082  34.078   3.194
  458W        W61769  19.273  11.702  12.382
  459W        W61770   0.769  29.931  11.962
  460W        W61771  43.015   3.247   4.172
  461W        W61772  16.208   7.829  12.044
  462W        W61773  44.846  14.803  14.869
  463W        W61774  21.564  27.517   1.811
  464W        W61775  35.535   7.385   1.228
  465W        W61776  42.993  27.497  14.342
  466W        W61777  41.441  28.499  13.962
  467W        W61778  25.998  17.663   1.355
  468W        W61779   1.866  29.587  11.942
  469W        W61780  12.685  18.247  12.411
  470W        W61781  28.994  34.479  13.929
  471W        W61782  16.290  29.433   2.860
  472W        W61783   6.268  37.047  11.414
  473W        W61784  21.045  22.120   1.275
  474W        W61785  23.162  27.473   2.717
  475W        W61786  38.840  40.974  12.480
  476W        W61787  17.229  37.479   2.693
  477W        W61788   8.255   8.204  11.435
  478W        W61789  34.408  36.931  13.387
  479W        W61790  20.184  21.574  10.925
  480W        W61791  28.488  42.837  11.411
  481W        W61792  32.395   0.256  13.049
  482W        W61793  17.797   3.411  12.357
  483W        W61794  31.921   2.433   2.677
  484W        W61795   5.206   8.236  10.454
  485W        W61796  15.099  32.121  12.910
  486W        W61797  23.492  16.783  13.409
  487W        W61798  35.914   4.850  12.051
  488W        W61799  21.583  42.866   1.293
  489W        W61800  15.195  25.991   4.175
  490W        W61801  22.187  28.078   4.641
  491W        W61802  15.300  27.495   1.247
  492W        W61803  43.893  10.849   1.913
  493W        W61804  33.512  34.865   2.885
  494W        W61805   7.326  16.788   3.791
  495W        W61806   7.793  22.054   0.848
  496W        W61807  22.641  31.923   0.445
  497W        W61808  28.545  25.172  12.011
  498W        W61809  23.186  33.522  13.520
  499W        W61810   4.335   6.227  11.060
  500W        W61811  14.589  24.046  12.455
  501W        W61812  20.764  30.621   2.810
  502W        W61813  44.787   3.935   4.353
  503W        W61814   9.309   7.311  14.823
  504W        W61815  19.770  41.927   0.744
  505W        W61816   6.377  35.854   4.739
  506W        W61817  43.472   4.892  10.507
  507W        W61818   4.428   9.337   1.845
  508W        W61819   7.669   1.435   4.685
  509W        W61820  29.537  31.402   0.763
  510W        W61821  11.844  19.230  11.988
  511W        W61822  30.437  39.370  13.919
  512W        W61823  43.510  37.371   3.670
  513W        W61824  11.260  42.301  14.483
  514W        W61825  43.367   9.376   1.718
  515W        W61826  43.455  37.536  13.974
  516W        W61827  37.026  21.093  14.780
  517W        W61828  11.271   9.300  11.485
  518W        W61829  11.173  36.939   4.308
  519W        W61830   4.884   1.390  10.559
  520W        W61831   0.884  23.149  14.984
  521W        W61832  27.656  18.600  14.467
  522W        W61833  11.787  19.776  11.110
  523W        W61834   7.361  35.045  13.364
  524W        W61835  43.300  38.326   0.854
  525W        W61836  32.560   0.922   2.762
  526W        W61837  32.064  24.508  11.075
  527W        W61838   9.228  19.757   1.801
  528W        W61839  15.707  30.103   3.260
  529W        W61840  16.107  21.661  13.028
  530W        W61841  20.096  22.159   0.440
  531W        W61842  16.760   0.444  14.869
  532W        W61843   8.171   9.814  13.818
  533W        W61844  26.023  24.614  12.389
  534W        W61845  23.162  38.536  10.064
  535W        W61846  19.160   7.670   1.775
  536W        W61847  24.030  34.932  11.004
  537W        W61848   4.447  10.183   2.894
  538W        W61849   4.280  43.475   0.766
  539W        W61850  18.693  21.529  13.452
  540W        W61851  29.925  38.359  14.317
  541W        W61852  30.141  27.061  12.374
  542W        W61853   1.394   4.923  11.128
  543W        W61854  37.979   3.896  14.846
  544W        W61855   1.409  29.579   2.374
  545W        W61856  27.501  32.140   3.370
  546W        W61857  28.992  44.290   4.121
  547W        W61858   0.968  15.115  14.798
  548W        W61859  14.700  25.526   1.718
  549W        W61860   8.695  39.005   0.737
  550W        W61861   1.837  35.398  13.882
  551W        W61862  12.734   0.296  13.411
  552W        W61863   5.739  33.614   2.291
  553W        W61864  12.744  15.662   1.280
  554W        W61865  38.035  32.509   4.668
  555W        W61866  36.951  37.868  12.568
  556W        W61867  24.207  34.422   2.750
  557W        W61868  10.365  17.718  11.411
  558W        W61869  39.047  40.909   2.415
  559W        W61870  29.173   9.797  12.954
  560W        W61871  41.838  41.435  12.850
  561W        W61872   9.333   3.912  13.459
  562W        W61873  39.485  36.406  12.011
  563W        W61874  15.262  36.514   0.438
  564W        W61875  40.540  18.570  11.952
  565W        W61876   1.853  38.050  13.335
  566W        W61877  17.778  31.982   3.239
  567W        W61878  29.116  20.678   3.864
  568W        W61879  44.404   2.879   0.281
  569W        W61880  25.991   6.214   3.769
  570W        W61881  39.461  39.326   3.869
  571W        W61882  28.000  21.755   0.880
  572W        W61883  38.994  34.549   4.240
  573W        W61884  37.566  16.712   0.455
  574W        W61885   7.843  36.537  11.518
  575W        W61886  32.568  24.688  14.403
  576W        W61887   7.857  36.523   2.250
  577W        W61888  41.842  38.967   4.342
  578W        W61889  19.557   2.292  14.781
  579W        W61890  13.651  22.510  11.009
  580W        W61891   4.284   3.945   0.849
  581W        W61892   1.774  24.532  14.779
  582W        W61893  31.043   5.232  11.949
  583W        W61894   6.922  38.882   0.409
  584W        W61895  10.705   5.253   4.336
  585W        W61896  36.873  21.665   0.888
  586W        W61897  41.980  36.412  13.309
  587W        W61898  13.347  39.353  13.029
  588W        W61899  12.200  23.240  11.076
  589W        W61900  36.051  24.151   3.217
  590W        W61901  35.980  35.484  11.048
  591W        W61902  39.361  35.931  13.016
  592W        W61903   0.482  32.545   1.411
  593W        W61904  11.240  30.629   1.391
  594W        W61905  26.101  30.519  12.947
  595W        W61906  26.071   5.224   1.883
  596W        W61907  41.387  39.013   1.814
  597W        W61908  24.581  33.103  12.068
  598W        W61909  10.857  38.998  13.820
  599W        W61910  27.591  18.285  14.835
  600W        W61911   7.300  25.491  14.319
  601W        W61912  19.143   3.337  11.046
  602W        W61913  10.216   1.318  14.475
  603W        W61914  13.149  44.825  11.397
  604W        W61915  41.835  12.776   1.377
  605W        W61916   7.832  29.090   4.749
  606W        W61917   1.408   3.947   3.201
  607W        W61918  10.751  43.438   2.383
  608W        W61919  43.004  34.922  13.802
  609W        W61920  31.570  12.190   2.341
  610W        W61921  28.930  17.704  13.463
  611W        W61922  33.001  24.712   1.262
  612W        W61923  18.067  40.469  12.433
  613W        W61924  37.397  13.255  12.531
  614W        W61925  30.041  30.436  12.035
  615W        W61926  29.539  16.574  14.816
  616W        W61927  35.953   0.356  13.813
  617W        W61928   4.832  17.286  14.309
  618W        W61929  19.216  17.657  11.002
  619W        W61930  23.649   7.682   1.922
  620W        W61931  31.906  14.833  12.375
  621W        W61932   0.264  10.728  11.992
  622W        W61933  35.920  34.925  13.410
  623W        W61934  13.292  44.001  13.442
  624W        W61935  19.706  10.340   0.401
  625W        W61936  39.369  43.968   4.230
  626W        W61937  28.524  15.143  11.050
  627W        W61938  15.112  21.571   1.874
  628W        W61939  44.997   9.310   0.427
  629W        W61940  29.466   2.870  13.846
  630W        W61941  11.185  26.658  10.496
  631W        W61942  36.562   8.891   4.723
  632W        W61943   8.179  27.654   4.319
  633W        W61944  22.655  11.323  13.890
  634W        W61945   9.686   6.424   1.444
  635W        W61946   4.215  37.959   4.311
  636W        W61947   6.678   2.740  11.064
  637W        W61948  34.996  29.051   3.377
  638W        W61949  20.559   1.833   2.300
  639W        W61950   4.926  19.636   4.251
  640W        W61951  26.960  31.047   1.727
  641W        W61952  14.708  14.303   2.278
  642W        W61953  26.518  14.302  14.475
  643W        W61954  33.065  23.217   0.397
  644W        W61955  29.613   9.804   0.446
  645W        W61956   3.783  26.637   3.760
  646W        W61957   3.932  36.018   0.350
  647W        W61958   7.349  43.876   1.791
  648W        W61959  37.433  36.575   0.762
  649W        W61960   0.831   9.188  11.610
  650W        W61961   2.724  11.249   3.736
  651W        W61962  14.210  28.043  10.482
  652W        W61963  20.746  44.400  13.878
  653W        W61964   2.837   9.736  13.920
  654W        W61965   5.921  27.169   0.963
  655W        W61966  42.298  39.478   4.311
  656W        W61967  37.378  37.968  12.416
  657W        W61968  39.464   1.839   1.745
  658W        W61969  27.597  24.606  13.908
  659W        W61970  33.940  27.987   3.255
  660W        W61971   1.356  19.207   4.275
  661W        W61972  39.545   5.819  13.441
  662W        W61973  10.207  33.904  14.276
  663W        W61974   9.823  28.519   3.175
  664W        W61975  35.908  33.097   3.295
  665W        W61976  42.294  15.084   2.803
  666W        W61977  22.189  42.315   0.843
  667W        W61978  25.498   9.768  12.896
  668W        W61979   7.731  26.126   3.658
  669W        W61980  24.521  44.852  12.867
  670W        W61981  20.054  12.360  13.792
  671W        W61982  16.286  43.436  13.468
  672W        W61983  13.723   2.882  11.420
  673W        W61984  31.972   5.335  13.002
  674W        W61985  18.701  27.101   2.669
  675W        W61986  43.373   9.366   4.131
  676W        W61987  30.429  42.810   4.126
  677W        W61988  28.055   4.408  10.023
  678W        W61989  37.009  11.626   3.739
  679W        W61990  39.891  34.526   4.287
  680W        W61991  34.614  44.794   3.313
  681W        W61992   9.335  39.462   2.381
  682W        W61993  37.034  41.982  14.465
  683W        W61994   1.760  40.325  11.063
  684W        W61995   9.165   6.252   3.635
  685W        W61996  14.797  30.656   5.306
  686W        W61997  31.023  29.518  13.464
  687W        W61998   1.325  33.477  11.454
  688W        W61999  16.318  24.608   2.893
  689W        W62000  31.086  24.639  11.498
  690W        W62001  30.492  40.911  11.397
  691W        W62002  25.062  14.771   1.849
  692W        W62003   9.725  22.081   1.801
  693W        W62004  17.235  32.944  10.997
  694W        W62005  15.231  16.700  14.451
  695W        W62006  26.011  22.166  10.588
  696W        W62007  34.949  17.738  11.938
  697W        W62008  29.155   3.382  13.985
  698W        W62009  26.206   2.275  12.874
  699W        W62010  40.869  33.558   4.317
  700W        W62011   2.893  41.949   2.407
  701W        W62012  10.635  22.234  11.965
  702W        W62013   4.837  33.013   2.852
  703W        W62014  33.411  19.131  12.446
  704W        W62015  31.634  17.215   2.259
  705W        W62016  26.508   7.173   0.277
  706W        W62017  11.221  30.569   2.409
  707W        W62018  16.793  24.156   0.429
  708W        W62019   2.867   8.823  13.843
  709W        W62020  23.217  43.856   4.237
  710W        W62021  29.625  10.856  12.083
  711W        W62022  37.563   1.244  13.524
  712W        W62023  23.202  15.276  14.467
  713W        W62024  30.479  23.504  10.997
  714W        W62025   3.735  37.074   2.196
  715W        W62026  40.896  26.487  14.982
  716W        W62027  14.250   1.906   0.332
  717W        W62028  19.643  44.896  10.630
  718W        W62029  12.355   0.348  10.509
  719W        W62030  37.384  28.448   2.846
  720W        W62031  23.720  13.162  14.806
  721W        W62032  44.311  36.896  14.979
  722W        W62033  39.434  20.568  14.450
  723W        W62034  32.044  37.048   4.766
  724W        W62035  21.606   9.166   4.827
  725W        W62036  10.820  12.291   4.348
  726W        W62037  33.931  37.873  12.870
  727W        W62038  26.008  31.050  14.408
  728W        W62039  17.707  38.059  14.514
  729W        W62040  41.800  11.208   3.632
  730W        W62041  36.868   2.366  13.538
  731W        W62042  38.967   7.216   2.207
  732W        W62043   8.212  15.651  12.995
  733W        W62044  15.316  25.580   5.161
  734W        W62045  25.614   5.871   0.276
  735W        W62046  33.064  31.642  14.898
  736W        W62047  18.174  42.517  14.778
  737W        W62048  18.287  31.500   2.288
  738W        W62049  38.540   1.458  13.905
  739W        W62050  16.317  24.674   3.255
  740W        W62051  31.461  29.967  13.412
  741W        W62052  30.596  36.503   1.368
  742W        W62053  21.757   4.887  12.001
  743W        W62054   0.408  38.997   4.296
  744W        W62055  15.729   7.906  11.059
  745W        W62056  25.207  21.586  11.102
  746W        W62057   4.933  23.715  13.457
  747W        W62058  36.956  14.285   4.657
  748W        W62059   2.834   6.739  12.449
  749W        W62060  13.763  28.186   1.308
  750W        W62061   0.861  18.203  13.939
  751W        W62062  18.614   6.818  14.371
  752W        W62063  25.072  14.150  12.916
  753W        W62064  41.351  35.417  11.452
  754W        W62065   7.189  41.520  14.278
  755W        W62066   7.377  36.476  14.890
  756W        W62067   3.729  25.669   0.362
  757W        W62068  28.092  23.670  10.609
  758W        W62069  32.484  25.603  12.579
  759W        W62070  29.598  19.557   0.923
  760W        W62071  15.740   4.854   2.827
  761W        W62072  28.612   9.361  11.404
  762W        W62073  38.019  13.337   3.769
  763W        W62074  24.654   9.202  11.519
  764W        W62075  21.017  10.689   0.316
  765W        W62076   8.326  28.007   4.270
  766W        W62077  18.144  39.839   3.221
  767W        W62078  26.542  12.175   3.243
  768W        W62079  12.758   9.706  10.489
  769W        W62080   6.234   7.201   5.132
  770W        W62081  31.109  27.117  11.953
  771W        W62082  34.965   2.839  13.006
  772W        W62083  36.949  38.522  13.912
  773W        W62084  29.926   9.378   0.455
  774W        W62085  41.346  41.329  13.892
  775W        W62086  16.624  35.949   1.279
  776W        W62087  17.747   3.813   5.805
  777W        W62088  14.763   7.729  13.396
  778W        W62089   2.868   6.315  11.096
  779W        W62090  25.216  30.445  13.956
  780W        W62091  31.517   5.249   0.851
  781W        W62092  37.873  28.562  12.475
  782W        W62093  26.518  36.587  14.922
  783W        W62094  20.028  15.211  14.514
  784W        W62095  20.232  35.918   2.254
  785W        W62096  39.054  10.817  13.970
  786W        W62097  39.503   5.403  12.058
  787W        W62098  24.682  17.186  11.016
  788W        W62099  11.701  16.655  11.079
  789W        W62100  38.568  29.033   1.267
  790W        W62101  21.083  26.628  12.375
  791W        W62102   6.344  10.833   3.863
  792W        W62103  40.900  22.208  11.509
  793W        W62104  44.758   9.804  11.923
  794W        W62105  38.529  44.949  14.510
  795W        W62106  37.933   7.874  10.610
  796W        W62107  33.463  42.468   2.871
  797W        W62108  27.171  17.182  10.089
  798W        W62109  40.035  36.404   1.268
  799W        W62110  24.047  28.053   3.681
  800W        W62111  11.344   6.362   2.873
  801W        W62112  22.603   3.335  12.490
  802W        W62113   7.377  12.796  10.954
  803W        W62114  30.927   9.680  13.940
  804W        W62115  29.030  25.152  13.008
  805W        W62116  13.628  18.160  14.485
  806W        W62117  42.924   1.821   2.397
  807W        W62118   6.417   3.395  11.967
  808W        W62119  14.102   9.190  13.056
  809W        W62120  12.851  35.583   0.373
  810W        W62121  39.313  14.740  11.859
  811W        W62122  29.072  22.637   2.841
  812W        W62123  31.125  11.854   5.102
  813W        W62124  20.602  17.677  12.928
  814W        W62125   2.251  32.573  14.027
  815W        W62126  13.733  13.323   1.803
  816W        W62127  31.906   0.880  11.947
  817W        W62128  10.853  10.319   0.761
  818W        W62129  24.982  30.096  13.941
  819W        W62130   2.919  43.945  11.372
  820W        W62131  31.965  20.523   3.326
  821W        W62132  35.463   5.772   3.856
  822W        W62133   5.414   8.835  10.524
  823W        W62134   4.370  10.357  10.640
  824W        W62135   6.780  26.593  10.541
  825W        W62136  41.434  37.014  11.458
  826W        W62137  35.401  10.194  13.342
  827W        W62138   6.421  29.613   1.435
  828W        W62139  41.474   1.852  12.055
  829W        W62140   7.816   7.910  14.967
  830W        W62141   6.914  13.629  11.007
  831W        W62142  28.996  36.051  12.450
  832W        W62143   5.870  25.975   4.324
  833W        W62144  39.026  28.062   3.372
  834W        W62145  31.644   6.825   4.336
  835W        W62146  25.016  25.064  11.000
  836W        W62147  19.259  25.002   1.244
  837W        W62148  19.110  21.216  10.578
  838W        W62149   6.409   2.409  12.553
  839W        W62150  11.710   3.303   0.802
  840W        W62151   2.386   3.348  12.393
  841W        W62152  38.556  15.707  11.519
  842W        W62153  36.050   0.868  11.515
  843W        W62154  21.208   1.963  11.083
  844W        W62155  11.771  33.391   0.877
  845W        W62156   1.814   5.757  10.426
  846W        W62157  18.588  37.350   4.307
  847W        W62158  38.981  16.145   1.322
  848W        W62159  39.526  26.664  14.874
  849W        W62160  25.162   4.816  11.591
  850W        W62161  34.009  12.658   1.926
  851W        W62162  43.881  39.957  12.376
  852W        W62163  32.457  29.994   2.243
  853W        W62164  10.820  40.435   1.890
  854W        W62165   7.286   2.893  12.568
  855W        W62166  13.768  29.983  12.419
  856W        W62167  43.294   0.984   4.604
  857W        W62168   9.203  13.600  12.397
  858W        W62169   5.717  32.551  14.437
  859W        W62170  26.115  28.479  12.917
  860W        W62171  30.622  13.333  12.009
  861W        W62172   5.700  36.081   1.361
  862W        W62173  21.143  34.606  12.438
  863W        W62174  19.052  22.627   1.225
  864W        W62175   6.410  13.769   3.687
  865W        W62176   0.493  22.658  12.441
  866W        W62177  30.924  28.494   1.849
  867W        W62178  20.153  36.881  12.498
  868W        W62179  41.005  22.521  12.356
  869W        W62180   5.839  33.450  12.474
  870W        W62181  21.104  24.117   3.182
  871W        W62182  22.096  36.975   2.780
  872W        W62183  29.516  26.686   2.781
  873W        W62184   0.938  33.959   4.147
  874W        W62185  21.088  13.110   0.406
  875W        W62186  41.420  40.310   0.782
  876W        W62187   0.403  37.936   2.886
  877W        W62188  33.120  34.039  11.997
  878W        W62189   1.371  37.008   3.232
  879W        W62190  17.799   4.896   3.639
  880W        W62191  34.606  44.765   3.704
  881W        W62192   7.676  17.625  12.033
  882W        W62193  15.281  42.848   0.817
  883W        W62194   9.842  11.841  14.014
  884W        W62195   1.927  43.993  11.128
  885W        W62196  30.612  31.551   4.641
  886W        W62197  39.933  41.034   0.254
  887W        W62198  13.259  13.340  14.854
  888W        W62199  34.076  12.353   2.351
  889W        W62200  34.885  28.451  14.280
  890W        W62201  11.722  35.072   4.329
  891W        W62202  10.158   2.800   1.329
  892W        W62203  18.159  33.118   2.775
  893W        W62204  44.312  36.435  13.392
  894W        W62205  22.091  20.087  12.535
  895W        W62206  44.963  21.079   1.732
  896W        W62207  44.788  12.671   2.777
  897W        W62208   0.906  27.479   2.330
  898W        W62209  32.620  18.118   0.374
  899W        W62210  44.898  31.107  12.536
  900W        W62211  23.151  30.127  11.943
  901W        W62212  14.296  24.533   2.743
  902W        W62213  33.076  38.329  14.498
  903W        W62214  44.318  44.279   2.249
  904W        W62215  38.876  34.106   4.722
  905W        W62216  28.031  17.700  11.457
  906W        W62217   4.812  13.659   1.319
  907W        W62218  38.490   0.844   3.211
  908W        W62219   3.440  12.673  13.849
  909W        W62220  24.131   8.796   4.838
  910W        W62221  38.557  24.092  12.536
  911W        W62222  23.985  30.431  13.905
  912W        W62223  34.417  40.801   3.206
  913W        W62224   8.262  31.044   2.726
  914W        W62225  23.555  30.082  10.566
  915W        W62226  15.698  33.053  12.967
  916W        W62227  37.521  40.356  14.313
  917W        W62228  14.339  24.993  12.835
  918W        W62229   8.663  30.081  10.441
  919W        W62230  44.371  38.339  11.081
  920W        W62231  25.101  32.620  12.831
  921W        W62232  37.053  41.451  11.396
  922W        W62233  14.706  32.566  14.408
  923W        W62234  34.006  42.985   0.253
  924W        W62235  40.367   4.399  14.861
  925W        W62236  19.679  33.979   1.332
  926W        W62237  41.855  14.297  14.844
  927W        W62238  23.148  15.676   2.786
  928W        W62239  38.911  19.714  13.809
  929W        W62240  18.784  24.218  14.780
  930W        W62241   3.341   8.371  12.976
  931W        W62242  43.792  19.703   3.194
  932W        W62243   3.390  24.563  14.475
  933W        W62244  19.575  30.127  12.824
  934W        W62245  43.992  19.691   2.769
  935W        W62246   2.435  11.212  11.384
  936W        W62247  24.612  20.107   0.826
  937W        W62248  10.774  44.768  13.846
  938W        W62249   7.388  33.045   4.292
  939W        W62250  36.034  27.558   2.863
  940W        W62251  28.622  44.439   2.235
  941W        W62252  28.119   6.897   1.269
  942W        W62253  21.029  41.330   0.447
  943W        W62254  42.483  30.095   3.283
  944W        W62255  34.993   8.773  12.938
  945W        W62256  16.763  11.129   2.878
  946W        W62257  41.847  24.165  11.480
  947W        W62258  32.555  23.620  12.905
  948W        W62259  24.575  35.037  11.542
  949W        W62260   8.825  39.925   9.972
  950W        W62261   3.832  14.672  11.098
  951W        W62262  24.664  44.273  13.422
  952W        W62263   3.451  20.616   3.765
  953W        W62264  24.506  12.681   3.276
  954W        W62265  25.648  41.890  14.007
  955W        W62266   5.370  33.066  12.068
  956W        W62267  28.027  22.066  10.554
  957W        W62268   5.315  14.263  13.915
  958W        W62269  23.535  17.794   2.382
  959W        W62270  43.424  35.517   3.374
  960W        W62271  32.499   4.925   1.739
  961W        W62272  44.782  25.689  10.493
  962W        W62273  12.292  20.566   4.260
  963W        W62274  39.417  42.874   2.398
  964W        W62275  32.088  22.727  11.439
  965W        W62276  12.759   7.772  14.357
  966W        W62277  20.234  38.830   0.296
  967W        W62278   0.949  23.044  13.449
  968W        W62279  27.183  30.077  12.975
  969W        W62280  26.619  29.458   4.626
  970W        W62281   9.686  38.996   2.678
  971W        W62282  16.154  16.110   1.305
  972W        W62283   4.813  43.375  14.446
  973W        W62284   6.271  25.096   1.818
  974W        W62285  13.221   0.987  11.020
  975W        W62286  27.991  44.379  12.075
  976W        W62287  35.853  22.110  12.459
  977W        W62288  42.027   8.212   4.308
  978W        W62289  16.078   0.867  14.301
  979W        W62290   6.844  15.227  13.501
  980W        W62291  42.974   8.677  10.409
  981W        W62292   8.179  14.295   3.818
  982W        W62293  37.505  19.278   0.475
  983W        W62294  15.658  26.059   2.240
  984W        W62295  30.153   9.246  11.895
  985W        W62296  30.982  21.237  11.555
  986W        W62297   3.220  33.424   0.838
  987W        W62298  41.889  37.970   0.861
  988W        W62299  39.903   2.861  13.917
  989W        W62300  26.095  42.794   0.289
  990W        W62301  21.633  32.029  10.579
  991W        W62302  12.799   8.823  12.851
  992W        W62303   4.327  32.475  12.827
  993W        W62304   8.392  25.032   4.278
  994W        W62305   4.816   4.848   1.368
  995W        W62306  42.974  14.260   2.353
  996W        W62307   9.787   4.724   0.871
  997W        W62308  33.892  36.842  12.563
  998W        W62309  12.334  11.638   1.837
  999W        W62310  23.062  15.768   0.870
 1000W        W62311  27.520  18.204  12.966
 1001W        W62312  24.128  10.215   2.787
 1002W        W62313  12.184   7.172   1.403
 1003W        W62314   6.355  28.559   2.767
 1004W        W62315  41.524   1.878  13.840
 1005W        W62316  39.913  24.014  13.865
 1006W        W62317  18.586   0.752   0.846
 1007W        W62318  43.503  30.554   1.699
 1008W        W62319  43.944  41.333   3.378
 1009W        W62320   6.779  41.819  13.827
 1010W        W62321  40.988  16.174   2.875
 1011W        W62322  14.301  19.559  14.816
 1012W        W62323   5.715   0.460   1.315
 1013W        W62324   4.406   4.230  13.395
 1014W        W62325  13.747  29.444   0.743
 1015W        W62326  27.593  37.383   3.746
 1016W        W62327  37.082  17.252  12.552
 1017W        W62328  34.599  11.299   0.851
 1018W        W62329  33.481  44.884  14.951
 1019W        W62330  39.454  27.551   1.739
 1020W        W62331  12.179  39.326  14.896
 1021W        W62332  19.773   0.747   4.772
 1022W        W62333   1.902  32.433  14.365
 1023W        W62334  28.562  36.385  14.955
 1024W        W62335  28.647  26.628  11.019
 1025W        W62336  15.128  27.634  13.973
 1026W        W62337  42.522  38.821  10.916
 1027W        W62338  18.102  26.083   1.844
 1028W        W62339  29.964  35.508   3.667
 1029W        W62340  41.933  21.155  11.526
 1030W        W62341  23.097  14.608  10.433
 1031W        W62342  35.584  34.561  11.435
 1032W        W62343  35.457  25.710  12.905
 1033W        W62344  30.130  33.398  11.060
 1034W        W62345   7.270   0.965   1.749
 1035W        W62346  25.157  44.866  13.810
 1036W        W62347  25.532  23.020  12.863
 1037W        W62348  39.949  12.326   1.444
 1038W        W62349  36.922  44.943   1.885
 1039W        W62350  22.644  34.890  14.876
 1040W        W62351  25.178  34.966   4.138
 1041W        W62352  39.489  30.976   3.680
 1042W        W62353  14.099  11.161   3.347
 1043W        W62354   0.823  33.544   0.947
 1044W        W62355  33.430   8.195   1.805
 1045W        W62356  35.876  35.071  10.987
 1046W        W62357  20.692  36.906  10.019
 1047W        W62358  20.543  28.932   1.308
 1048W        W62359  39.926  41.895   2.249
 1049W        W62360   9.382  20.674   4.224
 1050W        W62361  10.279  43.453   2.711
 1051W        W62362  37.006  34.098   0.311
 1052W        W62363  14.138  16.193   1.730
 1053W        W62364  43.896  39.991   2.277
 1054W        W62365  43.448  38.408   4.623
 1055W        W62366  16.660   3.395   5.668
 1056W        W62367   1.429   5.869   2.348
 1057W        W62368  42.922  43.471   0.471
 1058W        W62369  41.397   9.198  13.961
 1059W        W62370  16.720   5.399  11.401
 1060W        W62371  30.597  26.618  12.844
 1061W        W62372  36.434  23.225  14.415
 1062W        W62373  36.869  29.146  13.852
 1063W        W62374  26.460  10.331   5.285
 1064W        W62375  41.985  38.417   2.370
 1065W        W62376  11.679  34.536   2.301
 1066W        W62377  20.135  40.434   3.848
 1067W        W62378  20.206  24.067  14.814
 1068W        W62379  20.083  17.750   2.769
 1069W        W62380   1.778  36.871  13.965
 1070W        W62381   1.847  39.999   1.915
 1071W        W62382  27.473  19.746  14.895
 1072W        W62383  14.761  38.069  11.858
 1073W        W62384   9.852  12.154  11.596
 1074W        W62385  27.949   1.308  10.961
 1075W        W62386  39.318  32.109  14.347
 1076W        W62387  17.759   3.234   1.735
 1077W        W62388  14.611  24.535   0.278
 1078W        W62389  32.576  32.048   4.255
 1079W        W62390   5.400  36.933   1.435
 1080W        W62391  23.556  39.324  11.405
 1081W        W62392  28.484   7.399   0.938
 1082W        W62393  27.649  30.113  14.460
 1083W        W62394   6.739  27.066   0.855
 1084W        W62395  38.424  18.760   4.288
 1085W        W62396  31.638  25.521  10.453
 1086W        W62397  25.022  41.925   1.451
 1087W        W62398  38.057  27.152  12.504
 1088W        W62399  36.031  10.636   0.878
 1089W        W62400  26.649  42.849   3.289
 1090W        W62401   3.268  26.013   3.639
 1091W        W62402  11.624  26.490   0.261
 1092W        W62403   2.282  17.679   3.843
 1093W        W62404   2.890  19.761  13.996
 1094W        W62405  13.743  43.783  14.944
 1095W        W62406   6.190  35.082  11.538
 1096W        W62407   7.322   5.867   2.775
 1097W        W62408  14.280   3.461  14.778
 1098W        W62409  17.648  17.107  11.564
 1099W        W62410   0.405   4.365   1.301
 1100W        W62411  21.741   4.761   4.271
 1101W        W62412  12.205   5.430  14.844
 1102W        W62413  23.589  14.102   0.331
 1103W        W62414  32.898   3.923  14.339
 1104W        W62415  39.028  31.425  14.013
 1105W        W62416  28.032  32.034   5.223
 1106W        W62417  43.017  24.710   2.202
 1107W        W62418  20.753  26.101   1.710
 1108W        W62419   9.261  26.180   0.441
 1109W        W62420   7.870   5.302  12.456
 1110W        W62421   1.938  13.839   2.252
 1111W        W62422   1.475  17.683   1.303
 1112W        W62423  27.964   2.806  12.935
 1113W        W62424  19.081  11.727   3.312
 1114W        W62425   2.765  18.761  14.351
 1115W        W62426  19.210  38.869   3.649
 1116W        W62427   6.397  16.205  13.028
 1117W        W62428  27.048  44.766   4.742
 1118W        W62429  23.694  21.131   1.292
 1119W        W62430  20.247  39.057  11.393
 1120W        W62431  39.873   8.337   0.275
 1121W        W62432  20.680  43.944  14.403
 1122W        W62433   3.763  30.047   2.860
 1123W        W62434  11.269  16.082   0.838
 1124W        W62435  27.026  24.983   0.261
 1125W        W62436  17.673  35.074  10.479
 1126W        W62437  43.480  36.534   1.407
 1127W        W62438  17.731  14.792   1.828
 1128W        W62439  12.724  26.180  10.900
 1129W        W62440  26.111   6.679  11.543
 1130W        W62441  17.647   5.771  11.924
 1131W        W62442   5.785  34.560  14.308
 1132W        W62443  10.701  32.936  11.611
 1133W        W62444  16.130  10.161   4.795
 1134W        W62445   7.897  38.930   0.727
 1135W        W62446  41.470  26.625  11.977
 1136W        W62447  32.596   0.826  12.526
 1137W        W62448   9.681   7.294   0.299
 1138W        W62449  28.655  31.641  13.351
 1139W        W62450   5.371  21.067  10.888
 1140W        W62451  14.142  34.605  12.898
 1141W        W62452  21.172  42.029   3.769
 1142W        W62453  18.289  34.867  12.517
 1143W        W62454   9.167  16.625   0.276
 1144W        W62455   2.875  22.178   0.434
 1145W        W62456  33.616  36.916  11.051
 1146W        W62457   4.888  34.460  12.986
 1147W        W62458  15.147  18.128   3.206
 1148W        W62459  30.543  33.920  12.550
 1149W        W62460  44.472  44.279  11.522
 1150W        W62461  33.583  24.198   1.310
 1151W        W62462  20.691  37.001  14.919
 1152W        W62463   8.819  27.513  12.912
 1153W        W62464  43.940  37.394  11.095
 1154W        W62465  24.002  22.072   4.314
 1155W        W62466  36.848  12.179  10.430
 1156W        W62467   8.176  27.475  13.379
 1157W        W62468  42.366   7.320  10.476
 1158W        W62469  15.680   5.317   4.220
 1159W        W62470  10.198  25.055   3.187
 1160W        W62471   1.259  28.058  12.969
 1161W        W62472  18.188  19.174  12.379
 1162W        W62473  26.030  35.416   2.339
 1163W        W62474  40.386  16.285  13.967
 1164W        W62475   4.944  29.651   1.273
 1165W        W62476   1.441  15.086   4.811
 1166W        W62477  39.527  20.228   1.337
 1167W        W62478   9.237   2.238  13.816
 1168W        W62479  33.013  12.705   1.372
 1169W        W62480  36.005  24.648  10.581
 1170W        W62481  38.901  11.743  14.812
 1171W        W62482  16.587   0.307   1.754
 1172W        W62483  43.009  21.232  14.352
 1173W        W62484  28.982  43.283  12.988
 1174W        W62485  10.303   6.696   0.273
 1175W        W62486  31.089  12.168  14.808
 1176W        W62487  44.978  11.830  14.446
 1177W        W62488  42.993  15.120   1.922
 1178W        W62489   1.953  32.006   1.443
 1179W        W62490  32.984  43.883  13.437
 1180W        W62491  21.740  20.246   4.284
 1181W        W62492  25.503  18.168   4.705
 1182W        W62493  32.954  44.360  12.481
 1183W        W62494  31.925  34.402  13.527
 1184W        W62495  32.889  10.743  10.632
 1185W        W62496  21.595   4.373   4.344
 1186W        W62497  30.435   7.211  14.980
 1187W        W62498   5.377  38.488  11.883
 1188W        W62499  19.260   7.901  13.933
 1189W        W62500  25.654  30.062  12.388
 1190W        W62501   8.815  43.962  11.575
 1191W        W62502  39.874   9.881   2.409
 1192W        W62503  29.601  19.217  10.910
 1193W        W62504  33.118  23.608  13.913
 1194W        W62505  38.819   0.274  14.838
 1195W        W62506  44.448   0.812   0.936
 1196W        W62507   5.840   4.367  14.767
 1197W        W62508  18.585  38.020  14.330
 1198W        W62509   3.395  38.853  14.516
 1199W        W62510  41.309  39.913   0.449
 1200W        W62511  39.437  40.820   1.857
 1201W        W62512  32.974  27.149   3.783
 1202W        W62513   3.411   4.358  11.601
 1203W        W62514  42.443  10.166   0.249
 1204W        W62515  29.071   0.320   4.189
 1205W        W62516  43.894  15.734   4.313
 1206W        W62517  18.126  43.820   0.400
 1207W        W62518  33.121  20.663  10.632
 1208W        W62519   9.861  40.347  11.015
 1209W        W62520  36.464   1.871  12.955
 1210W        W62521   8.729  26.111  11.560
 1211W        W62522  37.362  39.359  12.489
 1212W        W62523  13.705  13.254  14.493
 1213W        W62524  13.333  30.154   0.836
 1214W        W62525  26.575  15.159  14.490
 1215W        W62526   5.850  41.886   0.898
 1216W        W62527  31.542  20.180   3.267
 1217W        W62528   5.364  24.973  12.917
 1218W        W62529   8.876   2.376  11.039
 1219W        W62530  14.249  28.123   3.780
 1220W        W62531  25.195  20.246  12.515
 1221W        W62532   4.780  39.014  13.044
 1222W        W62533  14.734   7.403   2.901
 1223W        W62534  19.618  13.624  10.435
 1224W        W62535  13.755   7.221   2.737
 1225W        W62536  17.099  24.126  11.096
 1226W        W62537  14.754  19.175   3.809
 1227W        W62538  13.287  34.958   0.469
 1228W        W62539  32.495   4.280  14.939
 1229W        W62540  12.263  16.725  10.513
 1230W        W62541   7.335  35.597   4.624
 1231W        W62542   6.893  28.583   0.325
 1232W        W62543  22.514  42.779   4.764
 1233W        W62544   8.822  24.586   3.655
 1234W        W62545   1.833   6.277  12.504
 1235W        W62546  39.827  42.435   4.329
 1236W        W62547  37.021  34.491  14.901
 1237W        W62548  26.623  43.378  12.969
 1238W        W62549   3.266   7.332   1.705
 1239W        W62550  29.931  14.185   0.460
 1240W        W62551  14.818  36.045   0.955
 1241W        W62552  43.828  21.516  14.473
 1242W        W62553   1.747  31.114  11.488
 1243W        W62554  39.361  37.877  11.498
 1244W        W62555  11.636  40.409   3.385
 1245W        W62556  20.680  10.751  13.800
 1246W        W62557   8.373  26.643   4.704
 1247W        W62558  44.961  36.405   0.482
 1248W        W62559  32.950  33.986   3.189
 1249W        W62560  34.101  17.307  13.998
 1250W        W62561  21.607  23.179  12.949
 1251W        W62562  30.496   5.266   0.334
 1252W        W62563  35.547  30.973   3.714
 1253W        W62564  27.575  10.294  10.152
 1254W        W62565   1.756  38.368  14.351
 1255W        W62566  14.288  10.355  10.597
 1256W        W62567  36.478  28.082   1.893
 1257W        W62568  28.603  24.111   1.242
 1258W        W62569   1.459   1.286  13.945
 1259W        W62570   5.363  21.044   2.296
 1260W        W62571  18.699   6.337   3.765
 1261W        W62572   0.872  41.874   4.721
 1262W        W62573  41.804  34.014  14.988
 1263W        W62574  26.499  32.928  13.458
 1264W        W62575  22.017   1.874  13.967
 1265W        W62576  37.442   9.772   3.807
 1266W        W62577   5.250  10.795   0.382
 1267W        W62578   6.780  20.630   1.335
 1268W        W62579  33.587   4.243  14.455
 1269W        W62580  41.537  33.926   3.186
 1270W        W62581  16.609  43.283   3.182
 1271W        W62582  15.122  22.014   4.743
 1272W        W62583   9.805  19.707  13.792
 1273W        W62584  38.045   3.391   1.871
 1274W        W62585  43.443  14.252   3.649
 1275W        W62586  18.629  29.970  11.918
 1276W        W62587  13.726  17.607  14.976
 1277W        W62588  30.581  41.989  10.434
 1278W        W62589  28.113  32.982  10.154
 1279W        W62590  24.098  38.419   2.276
 1280W        W62591  27.570  27.147   3.718
 1281W        W62592  33.456  25.209   1.855
 1282W        W62593   7.702  10.184   1.220
 1283W        W62594  27.665  36.894   2.302
 1284W        W62595  41.851  24.668   0.912
 1285W        W62596  19.254  43.980  13.877
 1286W        W62597   0.260  40.458   4.216
 1287W        W62598   4.858  25.642  12.417
 1288W        W62599  17.662  22.009   4.293
 1289W        W62600  33.548  36.070  14.902
 1290W        W62601  42.796  28.637   2.235
 1291W        W62602  29.984  17.144   1.834
 1292W        W62603   5.784   0.916  11.078
 1293W        W62604  29.157  17.736   2.685
 1294W        W62605   9.207  14.816  11.586
 1295W        W62606  29.548  24.574  13.959
 1296W        W62607  21.198  40.457   1.780
 1297W        W62608   5.382  14.330  14.842
 1298W        W62609  42.524  19.088   1.832
 1299W        W62610  26.073  27.566   2.379
 1300W        W62611   8.295  11.800   3.714
 1301W        W62612  43.494   1.408   3.341
 1302W        W62613  27.556  10.655  12.012
 1303W        W62614   7.877  23.997   2.339
 1304W        W62615   7.694  27.512  11.024
 1305W        W62616  26.162  31.043  13.475
 1306W        W62617  31.028  31.628  14.381
 1307W        W62618  31.035  20.737  10.432
 1308W        W62619  32.998  20.053  14.284
 1309W        W62620  41.845  28.021   0.878
 1310W        W62621   8.882   7.746   5.084
 1311W        W62622  20.042  13.177  13.481
 1312W        W62623   9.301  23.664  11.989
 1313W        W62624   9.668  31.467  13.013
 1314W        W62625  10.689  37.362   1.733
 1315W        W62626  33.412  29.935  12.366
 1316W        W62627  31.009  27.990  12.937
 1317W        W62628  20.240   3.788  13.489
 1318W        W62629   8.203   3.444   0.881
 1319W        W62630  31.060  15.679  13.496
 1320W        W62631  19.652  25.536  11.557
 1321W        W62632  25.598  27.071  13.957
 1322W        W62633   3.820  23.186   0.955
 1323W        W62634   3.315  43.902  13.911
 1324W        W62635  27.454  17.694   4.771
 1325W        W62636  23.239  24.062   4.144
 1326W        W62637  39.481  41.461  12.052
 1327W        W62638  10.344   6.904   0.822
 1328W        W62639  17.687   3.360   3.300
 1329W        W62640  19.605  10.351   0.735
 1330W        W62641  13.176  34.490   4.705
 1331W        W62642   5.435   5.206  10.971
 1332W        W62643  35.510  24.138   4.773
 1333W        W62644  39.500  28.157  12.884
 1334W        W62645  37.982  28.552  12.844
 1335W        W62646  38.361  26.518   1.257
 1336W        W62647   8.211   4.412   4.785
 1337W        W62648  42.972  32.942   2.388
 1338W        W62649  19.577  28.582  12.994
 1339W        W62650  27.948   6.424   3.162
 1340W        W62651  26.602  13.207  14.362
 1341W        W62652   9.390  23.566  10.141
 1342W        W62653  31.420  39.057  11.385
 1343W        W62654  24.164  23.011  14.820
 1344W        W62655  35.946  17.738  14.867
 1345W        W62656  36.892  24.500   0.266
 1346W        W62657  27.120  31.035  13.377
 1347W        W62658  13.780  23.563  12.930
 1348W        W62659  11.137  43.855   2.809
 1349W        W62660  34.918  43.360  12.504
 1350W        W62661  37.435  43.328   9.477
 1351W        W62662   3.816  12.359   4.723
 1352W        W62663  41.397  15.176  13.861
 1353W        W62664  36.968  43.271   3.316
 1354W        W62665  38.939   7.677  14.810
 1355W        W62666  40.548  37.528   3.790
 1356W        W62667   6.338  13.243  13.432
 1357W        W62668  26.570  35.448  14.889
 1358W        W62669  26.199   9.307  14.904
 1359W        W62670   4.310   0.429  10.535
 1360W        W62671  31.954  33.091  10.552
 1361W        W62672  13.343  10.833   1.809
 1362W        W62673  29.987  36.420   0.783
 1363W        W62674  29.621  35.065   1.732
 1364W        W62675  24.616  30.428   2.667
 1365W        W62676  34.039  41.816  11.479
 1366W        W62677  39.401  27.070  12.457
 1367W        W62678  20.679  35.591   2.714
 1368W        W62679  42.823  43.943  13.988
 1369W        W62680   8.887  34.610  12.464
 1370W        W62681   3.786   4.271  11.040
 1371W        W62682   9.161   3.835   0.906
 1372W        W62683  21.618  38.510  11.430
 1373W        W62684  19.254   3.401  12.454
 1374W        W62685  31.584   4.886  14.943
 1375W        W62686  42.983  26.680  13.427
 1376W        W62687  25.001  27.143   1.702
 1377W        W62688  15.765  21.655   2.393
 1378W        W62689  12.161  39.463  12.835
 1379W        W62690  17.612  21.542  10.561
 1380W        W62691  28.448   2.783  10.602
 1381W        W62692  38.476  21.536   1.235
 1382W        W62693   3.928  32.061  11.036
 1383W        W62694   7.299  42.448  12.060
 1384W        W62695  32.909   5.201  11.383
 1385W        W62696  43.917  14.311   1.829
 1386W        W62697  12.249   7.177  14.811
 1387W        W62698  37.068  13.210   0.333
 1388W        W62699   3.945  33.465   0.304
 1389W        W62700  40.408   7.885   4.266
 1390W        W62701   8.738   8.182   4.711
 1391W        W62702  15.186  30.995   4.657
 1392W        W62703  12.673   8.880  14.782
 1393W        W62704  38.901  18.774   2.261
 1394W        W62705  39.425  34.097   4.197
 1395W        W62706   6.796   3.854   2.672
 1396W        W62707   5.261  13.653  10.959
 1397W        W62708  16.080  27.508   0.335
 1398W        W62709  32.441   0.827  14.411
 1399W        W62710  40.432  11.258   3.286
 1400W        W62711  13.663  12.677  13.403
 1401W        W62712  33.601  40.806  14.347
 1402W        W62713   3.777   1.313  13.485
 1403W        W62714  26.056  16.572   4.647
 1404W        W62715  40.364  14.196   0.424
 1405W        W62716  23.014  22.501   0.365
 1406W        W62717  20.033   6.301  12.928
 1407W        W62718  39.999  10.877   3.344
 1408W        W62719  12.126  39.856   2.289
 1409W        W62720  28.634   7.256  10.599
 1410W        W62721  11.140   8.213   1.807
 1411W        W62722   8.344  11.657  12.868
 1412W        W62723  29.457   6.186   3.694
 1413W        W62724  26.480  20.577   3.645
 1414W        W62725   0.793  23.666   4.726
 1415W        W62726  42.461  13.773   0.337
 1416W        W62727   0.864  30.015  11.449
 1417W        W62728  24.051   4.397   2.756
 1418W        W62729  10.194  39.484   4.331
 1419W        W62730  34.012  10.728  14.867
 1420W        W62731   1.296  40.946  13.016
 1421W        W62732   7.218  31.933  13.397
 1422W        W62733   5.766  13.243   2.305
 1423W        W62734  25.610  18.788  12.076
 1424W        W62735  15.259  29.533  13.988
 1425W        W62736  36.564  40.518  11.928
 1426W        W62737   1.249   8.186   4.330
 1427W        W62738  41.516  33.579  11.956
 1428W        W62739  33.414  21.126   1.265
 1429W        W62740  21.079  44.395  11.586
 1430W        W62741  36.884  28.611  11.939
 1431W        W62742  33.576  22.201   3.745
 1432W        W62743  12.328  41.904  10.945
 1433W        W62744  44.360  17.702  13.935
 1434W        W62745  17.108   7.903  11.910
 1435W        W62746   8.892   4.326  11.602
 1436W        W62747  34.018  37.916   2.400
 1437W        W62748   1.785  27.673   4.656
 1438W        W62749  27.570  17.734   1.406
 1439W        W62750  43.462  19.136   3.172
 1440W        W62751  42.811  15.149  14.944
 1441W        W62752  10.746  39.005  10.066
 1442W        W62753  13.725  36.387   1.884
 1443W        W62754  32.507  20.756  11.417
 1444W        W62755  24.213  31.937  14.883
 1445W        W62756   2.375  40.937   2.271
 1446W        W62757   7.403  42.890  14.377
 1447W        W62758  30.944   6.823  13.370
 1448W        W62759  10.654  43.822   1.257
 1449W        W62760  36.851  26.200   3.819
 1450W        W62761  43.883  41.927  14.966
 1451W        W62762  40.321  18.288  10.961
 1452W        W62763   1.934  17.100   3.870
 1453W        W62764  21.076   2.351   5.294
 1454W        W62765  36.985  35.945   4.347
 1455W        W62766  41.311  30.023   2.718
 1456W        W62767  10.379  20.619   5.188
 1457W        W62768   1.767  11.707   1.377
 1458W        W62769  23.151  43.351  14.803
 1459W        W62770   6.881   2.287  13.859
 1460W        W62771  36.416  38.420   0.396
 1461W        W62772  12.725  30.982   2.871
 1462W        W62773  19.672  42.396   2.696
 1463W        W62774  25.537   8.887   4.742
 1464W        W62775  31.916  32.472   4.130
 1465W        W62776  17.089  16.764   3.175
 1466W        W62777   4.899   8.818  14.787
 1467W        W62778   3.245   7.840  12.057
 1468W        W62779   7.707  41.832  13.805
 1469W        W62780  31.483   9.207  10.579
 1470W        W62781   4.330  21.699   2.690
 1471W        W62782  10.660  31.487  10.520
 1472W        W62783   1.433  33.049  14.307
 1473W        W62784  34.510   0.260   4.791
 1474W        W62785   4.425   5.869  12.578
 1475W        W62786   8.836   8.206   0.965
 1476W        W62787  27.609  37.533   0.442
 1477W        W62788  31.088  32.107   4.327
 1478W        W62789   0.478   9.799  11.864
 1479W        W62790  39.860  14.225   2.188
 1480W        W62791   9.279  35.070  13.540
 1481W        W62792  31.508  21.610   0.841
 1482W        W62793  29.919  15.126   4.697
 1483W        W62794  40.884   5.361  14.813
 1484W        W62795   5.253  23.019  14.824
 1485W        W62796  23.132  11.810   0.892
 1486W        W62797  31.451  44.992   0.389
 1487W        W62798  42.888  39.055   4.637
 1488W        W62799  27.128  30.440   4.161
 1489W        W62800  17.639  34.079   3.818
 1490W        W62801   1.335  13.680  14.439
 1491W        W62802  30.050  22.558   4.191
 1492W        W62803  31.061  11.681   1.259
 1493W        W62804   3.284  12.236  11.609
 1494W        W62805  33.512  39.846   0.421
 1495W        W62806   2.447  19.062  11.571
 1496W        W62807  32.450  42.032   3.210
 1497W        W62808  29.593  35.021   1.323
 1498W        W62809  17.657  25.707  13.424
 1499W        W62810  38.366  44.860  10.577
 1500W        W62811  34.432  34.875  10.509
 1501W        W62812   8.361  42.024  11.087
 1502W        W62813  10.825  35.077   3.325
 1503W        W62814  23.632  32.971   3.769
 1504W        W62815  34.524   8.785   1.731
 1505W        W62816  41.500  11.328   3.760
 1506W        W62817   9.850  36.050  10.566
 1507W        W62818  10.728  29.163  10.982
 1508W        W62819  29.439  29.435   5.220
 1509W        W62820  34.875  16.646   3.793
 1510W        W62821  11.781   0.859  10.595
 1511W        W62822  11.770   3.883   4.328
 1512W        W62823  22.706  10.176   0.417
 1513W        W62824  36.569  22.549   2.288
 1514W        W62825  18.151  35.052   0.772
 1515W        W62826  13.177   7.363   0.293
 1516W        W62827  42.326  22.720   4.205
 1517W        W62828  39.891  39.924  10.009
 1518W        W62829  40.808  39.063  10.083
 1519W        W62830   4.839  44.881  11.888
 1520W        W62831  12.811  19.216   4.825
 1521W        W62832  18.196  29.493  11.512
 1522W        W62833   2.245   4.860   5.086
 1523W        W62834  20.051  11.684  14.284
 1524W        W62835  38.564  20.237  12.420
 1525W        W62836  32.596  10.779  13.913
 1526W        W62837  19.540  37.570   4.756
 1527W        W62838  33.621  41.319  14.987
 1528W        W62839   1.309  25.211   1.779
 1529W        W62840  30.030  22.531   3.191
 1530W        W62841   1.759  11.797  11.901
 1531W        W62842  38.369  12.132  14.008
 1532W        W62843  34.422   4.399  11.117
 1533W        W62844  10.663  38.565  13.548
 1534W        W62845  17.246  29.170   3.355
 1535W        W62846  17.269  27.980  14.837
 1536W        W62847  34.020  19.057  10.506
 1537W        W62848  11.365  32.022  12.549
 1538W        W62849  34.596  24.056   2.714
 1539W        W62850  42.489  37.940   1.809
 1540W        W62851  30.098   8.821  12.866
 1541W        W62852  39.836  27.133   1.896
 1542W        W62853   4.802  16.113  14.821
 1543W        W62854   9.220  32.522   1.300
 1544W        W62855  44.394  38.016  12.480
 1545W        W62856  28.086  36.365  14.478
 1546W        W62857  14.614  19.192   1.285
 1547W        W62858  13.795  18.126   4.783
 1548W        W62859  17.139  34.924   0.419
 1549W        W62860  18.244  31.442  10.961
 1550W        W62861  40.964  14.753   0.898
 1551W        W62862   1.305   0.467  11.456
 1552W        W62863   7.843   0.831  10.973
 1553W        W62864   0.371  15.701  14.006
 1554W        W62865  36.855  28.441   3.288
 1555W        W62866  33.966  26.066   0.745
 1556W        W62867  17.144   5.430  14.030
 1557W        W62868  31.002  42.345   4.145
 1558W        W62869  39.050   5.345  12.914
 1559W        W62870  21.513  22.016   3.255
 1560W        W62871  17.709  44.799  14.508
 1561W        W62872   9.318  43.880  11.908
 1562W        W62873   9.376   7.192   9.942
 1563W        W62874  10.271  24.207   4.160
 1564W        W62875  32.439   7.822   4.347
 1565W        W62876  27.527  39.378  13.399
 1566W        W62877   8.394  14.664  13.447
 1567W        W62878  20.651   3.924  12.088
 1568W        W62879  37.011  18.724   4.604
 1569W        W62880  27.089  23.158   2.839
 1570W        W62881  41.814  40.002  14.499
 1571W        W62882  19.670  19.677   2.215
 1572W        W62883  36.517  41.421  14.006
 1573W        W62884  38.962   7.264   3.759
 1574W        W62885  30.428   6.319  12.892
 1575W        W62886  19.581  14.167  11.916
 1576W        W62887  34.470  27.560  11.490
 1577W        W62888   9.857   4.839   3.312
 1578W        W62889  25.539   6.219  12.429
 1579W        W62890  39.365  15.113  14.980
 1580W        W62891  31.523   1.358  14.958
 1581W        W62892   4.834  15.754   0.897
 1582W        W62893  25.086   9.351   3.791
 1583W        W62894  35.096  11.708  14.406
 1584W        W62895  25.208  28.623   0.341
 1585W        W62896  13.814   2.471  10.610
 1586W        W62897  40.016   9.823  12.529
 1587W        W62898   3.878  33.606  14.468
 1588W        W62899  38.819   0.742   0.954
 1589W        W62900  36.499  23.176  11.098
 1590W        W62901  31.026  34.048   1.281
 1591W        W62902  33.928  19.070   3.288
 1592W        W62903  27.961  24.676  13.964
 1593W        W62904  42.954  16.634  11.413
 1594W        W62905  13.201   9.312   1.883
 1595W        W62906  12.239  12.729   2.281
 1596W        W62907  14.815  26.027   0.839
 1597W        W62908  15.585  35.588  12.001
 1598W        W62909  31.631   4.844   3.185
 1599W        W62910   5.783  20.753   0.366
 1600W        W62911   9.374  42.856   4.308
 1601W        W62912  33.586  37.356   3.773
 1602W        W62913  22.552  18.689   1.252
 1603W        W62914  41.893  22.611  12.557
 1604W        W62915   0.980  15.188  11.094
 1605W        W62916   3.330  24.597  14.796
 1606W        W62917  14.710  19.279  12.002
 1607W        W62918   3.720   3.829   4.811
 1608W        W62919   0.841  11.842  10.904
 1609W        W62920  31.434  30.088  13.924
 1610W        W62921  20.578   5.201  12.576
 1611W        W62922  30.095  25.713  13.950
 1612W        W62923  22.150  15.256   1.810
 1613W        W62924  18.584  35.369  11.500
 1614W        W62925  41.484  41.923  14.455
 1615W        W62926  41.353   7.820  13.485
 1616W        W62927   9.330  13.682   3.322
 1617W        W62928   4.239  19.179   1.820
 1618W        W62929   0.950  22.709  10.574
 1619W        W62930  22.600  28.496  13.834
 1620W        W62931  28.650  32.020   2.878
 1621W        W62932   2.827  32.932   2.809
 1622W        W62933  11.848   6.898  13.470
 1623W        W62934   8.764  31.468   3.852
 1624W        W62935   2.458  18.135   4.349
 1625W        W62936  34.486  34.480   2.187
 1626W        W62937  11.279   3.834   3.716
 1627W        W62938  34.431  43.354  14.398
 1628W        W62939  36.521  23.632   0.476
 1629W        W62940  17.278  40.539   5.320
 1630W        W62941   4.384   6.309  12.392
 1631W        W62942  39.841  12.258  14.339
 1632W        W62943   5.747  29.143  12.024
 1633W        W62944  20.199   8.359  10.955
 1634W        W62945  32.075   7.704   0.282
 1635W        W62946  23.992  39.820  13.474
 1636W        W62947  23.564  22.159   1.416
 1637W        W62948  37.538  28.016  11.898
 1638W        W62949   7.909   6.325  10.593
 1639W        W62950  37.006   0.391   0.480
 1640W        W62951   0.942   8.887  11.955
 1641W        W62952  12.636  43.827  10.467
 1642W        W62953  19.074  34.954  10.566
 1643W        W62954  22.564  19.073  14.487
 1644W        W62955  35.049   3.431  11.960
 1645W        W62956  10.645  20.067  10.567
 1646W        W62957  33.970  21.033   0.365
 1647W        W62958   6.688  18.637  13.814
 1648W        W62959  38.505   2.779  12.503
 1649W        W62960  36.059  18.689   1.225
 1650W        W62961  26.665  31.500  10.412
 1651W        W62962  39.894  25.102   0.380
 1652W        W62963  10.716  14.661   0.737
 1653W        W62964   3.427  10.212   1.274
 1654W        W62965   1.330  24.156  14.010
 1655W        W62966  10.334  23.026   2.680
 1656W        W62967  12.768  17.569  12.355
 1657W        W62968  30.543  27.566   1.251
 1658W        W62969  20.158  43.317   0.790
 1659W        W62970   1.860   6.848  14.318
 1660W        W62971  10.270  14.684   3.859
 1661W        W62972   1.442   8.797   1.351
 1662W        W62973  29.578  17.290  11.415
 1663W        W62974  21.635  10.333  14.926
 1664W        W62975  39.516   8.297   1.710
 1665W        W62976  33.930  31.075   4.606
 1666W        W62977  35.862  21.168  10.590
 1667W        W62978  31.520   4.263  13.928
 1668W        W62979   4.287  12.838   2.712
 1669W        W62980   9.663   5.852   2.765
 1670W        W62981   3.781  43.377   0.933
 1671W        W62982  42.512  23.661  12.492
 1672W        W62983  15.322   4.356   1.354
 1673W        W62984  32.949  18.171   0.807
 1674W        W62985  36.937  27.494   2.745
 1675W        W62986  22.198  39.361   3.189
 1676W        W62987  11.655  26.143  11.435
 1677W        W62988  20.625  41.465   0.296
 1678W        W62989  29.619  25.046  13.886
 1679W        W62990  18.241  17.721  14.995
 1680W        W62991   0.432  16.231  11.913
 1681W        W62992  34.529  41.002  11.064
 1682W        W62993   1.465  43.841  10.613
 1683W        W62994   2.452   4.216  14.474
 1684W        W62995  33.104  11.251  10.992
 1685W        W62996   6.185  32.597  14.483
 1686W        W62997  32.923  15.291  12.978
 1687W        W62998  18.061  35.522   4.184
 1688W        W62999  25.683  17.559  14.351
 1689W        W63000  36.028   9.211   0.447
 1690W        W63001  33.106  36.504   1.788
 1691W        W63002  38.333  24.581   0.411
 1692W        W63003  39.826   0.328  14.015
 1693W        W63004   8.740  15.102  14.007
 1694W        W63005   3.248  39.053   5.257
 1695W        W63006  33.490  27.557  12.474
 1696W        W63007  11.289  22.087   0.883
 1697W        W63008  38.426  12.192   3.212
 1698W        W63009  13.727   9.830  12.566
 1699W        W63010  12.315  19.657   2.321
 1700W        W63011  23.674   2.742   4.739
 1701W        W63012  37.580  19.734  11.867
 1702W        W63013  32.963  20.619   1.704
 1703W        W63014  26.151   6.799   4.794
 1704W        W63015  44.434   7.313   4.784
 1705W        W63016  21.538  13.802   4.132
 1706W        W63017  39.387  19.574   4.808
 1707W        W63018   0.336  35.074   0.851
 1708W        W63019   5.719  19.236   3.267
 1709W        W63020   5.279   9.746  14.278
 1710W        W63021  21.112  10.167  11.426
 1711W        W63022  40.317   9.320  12.392
 1712W        W63023  21.205  39.534  13.061
 1713W        W63024  43.286  36.415  14.893
 1714W        W63025  25.011  37.468   1.263
 1715W        W63026  27.021  14.339  14.465
 1716W        W63027  25.652  40.345   1.384
 1717W        W63028  37.561  39.339   9.624
 1718W        W63029  24.049  17.690   2.385
 1719W        W63030  10.171   2.805  11.099
 1720W        W63031  44.772  17.097   1.764
 1721W        W63032  28.495  25.181  13.963
 1722W        W63033  32.135  10.260   0.865
 1723W        W63034  41.876  14.247   4.189
 1724W        W63035  18.116  20.123   1.826
 1725W        W63036  20.547  12.202  14.419
 1726W        W63037  15.595  41.019  13.062
 1727W        W63038  19.677  33.413   4.776
 1728W        W63039  39.454  31.518   1.802
 1729W        W63040  20.073  29.931  12.013
 1730W        W63041  21.750  15.703  12.416
 1731W        W63042  28.129  24.194   0.307
 1732W        W63043  37.405  33.494  12.471
 1733W        W63044  24.011   1.329  11.952
 1734W        W63045  31.151   8.837  12.037
 1735W        W63046  21.582  43.289  11.040
 1736W        W63047  20.530  31.932   3.665
 1737W        W63048   8.874   2.746  11.963
 1738W        W63049   3.893  43.791  12.441
 1739W        W63050   7.691  20.171   0.874
 1740W        W63051  36.844  13.254  13.964
 1741W        W63052  10.780  13.643  13.403
 1742W        W63053  23.628  30.104   2.799
 1743W        W63054  26.614  37.861   0.330
 1744W        W63055  15.111  36.507  10.991
 1745W        W63056   6.406  40.971   4.774
 1746W        W63057  12.710  15.594   4.686
 1747W        W63058  34.423  15.665  13.892
 1748W        W63059  23.073  40.444   2.706
 1749W        W63060  17.128  25.213  11.477
 1750W        W63061   6.230  13.208   1.799
 1751W        W63062  27.032  27.101   2.871
 1752W        W63063  14.684  13.270  10.460
 1753W        W63064   9.729  24.560   4.178
 1754W        W63065  11.649   7.890   1.893
 1755W        W63066  30.493  13.113  14.390
 1756W        W63067   6.793   4.921   0.310
 1757W        W63068   5.892  33.902  10.952
 1758W        W63069  19.052  42.319   3.204
 1759W        W63070  36.349  19.282   4.115
 1760W        W63071   9.757  27.586  12.886
 1761W        W63072  33.975  24.191  14.438
 1762W        W63073   3.856  32.066  11.518
 1763W        W63074  20.586  12.708   1.925
 1764W        W63075   4.416  30.496  11.859
 1765W        W63076  21.706  21.544  10.619
 1766W        W63077   7.301  34.960   0.332
 1767W        W63078  24.184  39.977   0.385
 1768W        W63079   5.421   4.861  14.487
 1769W        W63080  24.660   8.171   0.958
 1770W        W63081  11.697  20.704   3.824
 1771W        W63082  20.729   6.901  14.464
 1772W        W63083   6.314   9.393   2.315
 1773W        W63084  26.036  34.106   1.261
 1774W        W63085  37.555  39.964   1.747
 1775W        W63086  32.496   0.372   3.807
 1776W        W63087  14.597  22.604   2.889
 1777W        W63088   0.428  14.655  14.831
 1778W        W63089  10.219   7.365  10.574
 1779W        W63090  43.280   7.771  13.462
 1780W        W63091  12.666   3.770   2.272
 1781W        W63092  40.508   3.243   4.178
 1782W        W63093  21.658  12.241   4.333
 1783W        W63094  21.542   0.375  12.375
 1784W        W63095  31.908  44.926  10.982
 1785W        W63096  34.875  40.893  11.999
 1786W        W63097  37.881  35.429  12.878
 1787W        W63098  29.587  28.650   0.945
 1788W        W63099  25.006   1.278  13.954
 1789W        W63100  14.199   1.974   4.154
 1790W        W63101  20.131   4.847   3.314
 1791W        W63102  38.822  10.263  11.025
 1792W        W63103  42.290  25.191  10.533
 1793W        W63104  30.512  14.702  14.465
 1794W        W63105   6.743  35.394  14.022
 1795W        W63106  42.822   6.282  14.884
 1796W        W63107  31.026  27.162  13.439
 1797W        W63108   5.826  27.951   0.473
 1798W        W63109  35.872   4.430  13.320
 1799W        W63110  25.158  41.888   3.193
 1800W        W63111  39.425  22.585  10.099
 1801W        W63112  13.654  11.695   3.774
 1802W        W63113   9.234   7.301  10.540
 1803W        W63114  17.624  29.595   1.312
 1804W        W63115  22.607  17.639   2.225
 1805W        W63116  11.156  44.838  12.944
 1806W        W63117   6.355  30.044   3.379
 1807W        W63118  37.539  14.689  12.372
 1808W        W63119  19.756   8.248   2.763
 1809W        W63120  44.490  28.053   2.859
 1810W        W63121  16.603   0.369   2.350
 1811W        W63122  39.431  29.997   4.125
 1812W        W63123  19.752  11.210  13.799
 1813W        W63124  42.493  41.884   3.154
 1814W        W63125  27.169  33.568   4.617
 1815W        W63126  22.701  42.944   3.660
 1816W        W63127  12.286  37.513   2.810
 1817W        W63128  25.582  21.623  10.042
 1818W        W63129   9.218  17.770  12.856
 1819W        W63130  19.554   5.370   0.746
 1820W        W63131  26.639   7.179  10.603
 1821W        W63132  20.549  35.545   1.794
 1822W        W63133  20.181  43.492   2.841
 1823W        W63134  30.604   3.904   1.331
 1824W        W63135  13.756  21.533  10.900
 1825W        W63136  17.690  28.462   0.463
 1826W        W63137  29.088  10.713  14.937
 1827W        W63138   8.808  12.641   1.822
 1828W        W63139  14.822  30.040   0.367
 1829W        W63140  31.634   1.246   1.753
 1830W        W63141  32.463   6.889   4.807
 1831W        W63142  16.619  32.897   0.299
 1832W        W63143   0.316   0.746  14.945
 1833W        W63144   1.244  30.936   0.954
 1834W        W63145  20.089   3.882  13.854
 1835W        W63146  34.379   5.788  11.001
 1836W        W63147  21.063   5.809   4.344
 1837W        W63148  16.146  36.958  13.396
 1838W        W63149  11.820  44.336  13.990
 1839W        W63150  18.595  28.081   3.681
 1840W        W63151   4.751  11.647  10.957
 1841W        W63152  34.100  31.402  12.967
 1842W        W63153  29.109   5.324   2.396
 1843W        W63154   1.933  40.837  13.941
 1844W        W63155  13.714  34.486  10.436
 1845W        W63156   9.771  42.874   4.268
 1846W        W63157  25.530  10.782   3.205
 1847W        W63158  43.903  14.245  13.841
 1848W        W63159   7.874   8.385  13.371
 1849W        W63160  43.018  33.621   9.954
 1850W        W63161  27.152  30.966   3.671
 1851W        W63162  31.010  41.988  13.030
 1852W        W63163   5.800  41.422  13.868
 1853W        W63164   2.349  13.249  12.536
 1854W        W63165   0.882   3.320   3.646
 1855W        W63166  26.961  10.187   9.997
 1856W        W63167   9.372  29.537  10.452
 1857W        W63168  13.292  23.010   5.149
 1858W        W63169  15.273  18.668   1.708
 1859W        W63170  42.343  12.304  13.025
 1860W        W63171   2.801  15.214   1.289
 1861W        W63172  41.872  18.706  11.957
 1862W        W63173  35.588  36.346   1.366
 1863W        W63174  29.028  14.771   4.253
 1864W        W63175  13.135   5.706  14.880
 1865W        W63176   3.822   4.282  12.425
 1866W        W63177  25.991  40.942  11.531
 1867W        W63178  35.005  23.612  12.071
 1868W        W63179  20.065  26.188  12.437
 1869W        W63180  16.803  22.205   4.329
 1870W        W63181   5.755   6.875  12.521
 1871W        W63182  23.706  16.289  10.602
 1872W        W63183  43.892  38.974   2.272
 1873W        W63184  44.326  16.622   0.254
 1874W        W63185  15.822  40.347   4.826
 1875W        W63186  29.021  12.809  10.408
 1876W        W63187  31.085  32.952   4.829
 1877W        W63188   4.833  33.923   4.638
 1878W        W63189  19.546  41.958   4.642
 1879W        W63190   7.691  16.306   3.209
 1880W        W63191  27.013   1.336   4.245
 1881W        W63192   8.404  27.471   2.862
 1882W        W63193  33.624  21.635   4.671
 1883W        W63194  25.557  29.083   4.182
 1884W        W63195  34.873  42.887   1.295
 1885W        W63196  16.318   0.958  13.964
 1886W        W63197  41.447  28.985  11.522
 1887W        W63198  43.827  28.604  13.962
 1888W        W63199  28.002  37.493  13.926
 1889W        W63200   3.782  18.630   0.323
 1890W        W63201  40.422  31.624   4.267
 1891W        W63202  10.721   0.746  14.462
 1892W        W63203  19.154  35.867   4.143
 1893W        W63204  41.328  31.023   3.791
 1894W        W63205  14.127  21.617   3.374
 1895W        W63206  13.119  34.564  12.422
 1896W        W63207  37.843  21.513   3.831
 1897W        W63208  31.090   5.871   3.775
 1898W        W63209  29.557  32.925   2.336
 1899W        W63210  18.756   3.283   4.175
 1900W        W63211  29.532  17.279  13.349
 1901W        W63212  33.950  13.300  11.488
 1902W        W63213  20.687  16.177  11.880
 1903W        W63214  11.672  38.848   4.625
 1904W        W63215  29.438  11.335  13.019
 1905W        W63216  25.576  41.954  11.896
 1906W        W63217  18.119  18.205  14.820
 1907W        W63218  35.916  26.467   3.862
 1908W        W63219  34.050   9.784   1.272
 1909W        W63220   7.829  17.242   2.726
 1910W        W63221  12.833  44.979   0.304
 1911W        W63222  42.927  10.814  12.522
 1912W        W63223  28.976   9.678  14.955
 1913W        W63224  20.629   2.770   3.693
 1914W        W63225  38.423  13.315   1.251
 1915W        W63226  16.591  23.535  11.572
 1916W        W63227   8.232  29.605  13.820
 1917W        W63228  43.845  20.693  10.432
 1918W        W63229  32.003  12.272  14.318
 1919W        W63230  34.989  22.672   5.182
 1920W        W63231  11.214   0.315   3.324
 1921W        W63232  20.129  41.818  10.909
 1922W        W63233  22.065  36.553   2.723
 1923W        W63234  10.667  13.783  14.954
 1924W        W63235  34.569  32.951   0.439
 1925W        W63236  40.042   9.353   1.854
 1926W        W63237  28.653  30.916   1.776
 1927W        W63238   4.926  12.216   0.950
 1928W        W63239  27.131  24.169   2.760
 1929W        W63240  15.730   5.849   3.360
 1930W        W63241  37.401  37.021   1.389
 1931W        W63242  10.830  34.460  14.776
 1932W        W63243   1.334  33.447   2.787
 1933W        W63244  26.999  43.939   0.958
 1934W        W63245  10.877  30.445   1.826
 1935W        W63246  34.039  19.583   1.349
 1936W        W63247  37.079  36.013  13.958
 1937W        W63248  11.197  39.874   2.872
 1938W        W63249  42.786  11.697   2.333
 1939W        W63250  34.523  26.132   3.287
 1940W        W63251  44.980  36.923   2.273
 1941W        W63252  29.610  10.156  14.318
 1942W        W63253  11.310  11.744   3.383
 1943W        W63254   3.219   5.927  14.823
 1944W        W63255  17.211  15.670   4.733
 1945W        W63256  28.503  34.519   2.768
 1946W        W63257  39.380   8.669  10.580
 1947W        W63258  16.700  15.817   2.889
 1948W        W63259  25.696  27.571   3.637
 1949W        W63260  39.541  13.751   3.183
 1950W        W63261  23.650  23.006  11.900
 1951W        W63262  40.974  21.070   0.458
 1952W        W63263  33.934  14.254   4.231
 1953W        W63264   8.406  41.021  12.978
 1954W        W63265  18.677  21.050   0.379
 1955W        W63266  18.262  20.577  11.906
 1956W        W63267  29.653  11.138  13.433
 1957W        W63268  21.162  38.419   3.718
 1958W        W63269  22.212  27.446   1.886
 1959W        W63270  14.731  32.001  11.080
 1960W        W63271  39.429  25.153  14.491
 1961W        W63272  10.377  20.158   1.363
 1962W        W63273  18.702  13.720   3.276
 1963W        W63274  36.056  22.076   4.209
 1964W        W63275  23.105  40.926  11.472
 1965W        W63276  10.710   1.384   2.213
 1966W        W63277  31.489  30.971   2.253
 1967W        W63278  19.219  25.665   2.250
 1968W        W63279  21.658  39.932   3.668
 1969W        W63280  43.906  44.498   4.146
 1970W        W63281  40.331  22.532   3.289
 1971W        W63282  44.286  16.750  11.969
 1972W        W63283   3.951  18.771   2.766
 1973W        W63284  28.146   4.444   2.862
 1974W        W63285  23.006  25.986  12.477
 1975W        W63286   4.780  22.030  14.026
 1976W        W63287  12.701  34.878   3.280
 1977W        W63288  21.060   6.388   2.745
 1978W        W63289  44.441  22.136   4.665
 1979W        W63290  22.585  17.093  12.366
 1980W        W63291  41.943  38.868  13.420
 1981W        W63292  22.244   1.458  10.462
 1982W        W63293  31.594  36.884  14.821
 1983W        W63294  20.583  26.631   0.264
 1984W        W63295  14.140  14.830   1.230
 1985W        W63296   9.217  24.100   4.800
 1986W        W63297  11.645  15.261   1.373
 1987W        W63298  19.671  37.340   3.276
 1988W        W63299   1.852  15.666   4.181
 1989W        W63300  40.932  27.966   4.672
 1990W        W63301  35.081  40.343   2.699
 1991W        W63302  39.517  29.494   3.161
 1992W        W63303  35.010  14.300   9.969
 1993W        W63304   2.342  33.424   2.254
 1994W        W63305  44.923  21.225  14.438
 1995W        W63306  16.219  33.002   0.875
 1996W        W63307  40.480   0.335   2.333
 1997W        W63308   3.377   7.895  14.768
 1998W        W63309  12.207  28.037   0.242
 1999W        W63310  41.381  26.655   2.218
 2000W        W63311  41.885   6.217   3.151
 2001W        W63312   3.810  31.590   3.688
 2002W        W63313   6.750  31.901  11.867
 2003W        W63314  10.815  21.019   3.350
 2004W        W63315  19.050  27.039  11.431
 2005W        W63316   2.295  44.010  10.425
 2006W        W63317  37.841   8.846  11.126
 2007W        W63318  18.135  42.432  10.619
 2008W        W63319  25.045  30.526  14.345
 2009W        W63320  24.096   5.416   3.686
 2010W        W63321  23.091   7.884   1.223
 2011W        W63322  36.422   7.222  14.290
 2012W        W63323  15.258   0.746  12.392
 2013W        W63324  26.205  16.100   3.228
 2014W        W63325  29.571  18.064  10.626
 2015W        W63326  20.262  11.714   3.775
 2016W        W63327  13.685   8.662  14.834
 2017W        W63328  30.916  21.042   1.426
 2018W        W63329  19.595  38.848  13.421
 2019W        W63330  39.044   9.815  10.571
 2020W        W63331  40.051   8.743   1.840
 2021W        W63332  44.979   2.815   2.336
 2022W        W63333   2.795  40.942  12.410
 2023W        W63334  41.020  28.156  10.497
 2024W        W63335  24.018   3.789   2.375
 2025W        W63336  25.002  44.403  14.836
 2026W        W63337   9.166  39.875   3.857
 2027W        W63338  15.227  19.226   0.867
 2028W        W63339   4.385  31.544  14.025
 2029W        W63340  13.135  43.491  13.462
 2030W        W63341  21.254   4.258   0.295
 2031W        W63342  16.294   7.333  13.057
 2032W        W63343  30.935  13.824  11.577
 2033W        W63344  36.862  40.969  10.935
 2034W        W63345  11.746  31.960  12.912
 2035W        W63346  34.978   1.798   9.969
 2036W        W63347  30.962  27.653  14.507
 2037W        W63348   9.320  27.624  10.956
 2038W        W63349   2.722   8.773  11.929
 2039W        W63350  31.423   0.971  11.399
 2040W        W63351  10.851  40.829  11.984
 2041W        W63352  17.290  14.654   2.875
 2042W        W63353   0.944  23.128   4.709
 2043W        W63354   5.278  21.067  10.616
 2044W        W63355  42.504  24.197  10.425
 2045W        W63356  23.000  10.272   3.770
 2046W        W63357  27.479  41.957   2.399
 2047W        W63358   8.828  27.103  14.904
 2048W        W63359  39.921  42.969  14.869
 2049W        W63360  18.196  35.029  14.009
 2050W        W63361   8.713  33.483  12.435
 2051W        W63362   3.226  19.591   3.242
 2052W        W63363  29.571  35.514  13.451
 2053W        W63364   9.825  34.399   0.325
 2054W        W63365  15.276  30.960  10.979
 2055W        W63366  25.994  11.179   0.909
 2056W        W63367   5.861  39.320   4.348
 2057W        W63368  30.140  21.629   1.857
 2058W        W63369  25.100  31.534  14.951
 2059W        W63370  35.602  14.814  14.760
 2060W        W63371  28.461  40.516  12.033
 2061W        W63372  26.137  10.355   2.681
 2062W        W63373  27.079   3.219  12.467
 2063W        W63374   3.720  35.463  13.036
 2064W        W63375   7.315   8.697   3.721
 2065W        W63376  25.674  36.347   0.733
 2066W        W63377   3.452   7.370   4.342
 2067W        W63378  34.867  14.833   3.167
 2068W        W63379   4.441  32.622   0.458
 2069W        W63380   9.284  26.191  12.052
 2070W        W63381  11.830  13.281  13.924
 2071W        W63382  38.961  38.834   3.200
 2072W        W63383  38.378  10.383   4.221
 2073W        W63384  19.554  25.512   2.362
 2074W        W63385   0.833  19.250  13.464
 2075W        W63386  27.081  39.464   2.697
 2076W        W63387  17.276  43.398   1.402
 2077W        W63388   5.391  10.282  14.311
 2078W        W63389  29.019   3.248   0.370
 2079W        W63390  25.691  34.587  14.474
 2080W        W63391   9.240  38.051   2.672
 2081W        W63392  13.670  27.094   1.706
 2082W        W63393  37.460  38.051  11.101
 2083W        W63394  11.335  30.948  12.417
 2084W        W63395  42.029  39.053   2.697
 2085W        W63396   6.782  22.563   0.926
 2086W        W63397  25.969  39.821  14.831
 2087W        W63398  38.505   5.343  10.997
 2088W        W63399   4.766  36.462  11.379
 2089W        W63400  41.437  28.939   1.399
 2090W        W63401  13.749  11.358  10.938
 2091W        W63402  38.824   1.308   0.846
 2092W        W63403  36.961   7.280  12.554
 2093W        W63404  33.896   0.906   4.653
 2094W        W63405  36.060  18.263   3.322
 2095W        W63406  37.938  33.391  12.044
 2096W        W63407  16.780   9.653   1.302
 2097W        W63408  26.138   0.896  11.052
 2098W        W63409  20.649   1.731  13.823
 2099W        W63410  35.959  44.324  11.453
 2100W        W63411   9.683  31.469  14.861
 2101W        W63412  24.104  43.476   4.307
 2102W        W63413   5.418  23.657  14.430
 2103W        W63414  29.470  30.656   3.831
 2104W        W63415  42.406  43.789  14.807
 2105W        W63416  23.724  12.274  13.319
 2106W        W63417  34.557   7.342  14.894
 2107W        W63418  41.500   9.371   4.751
 2108W        W63419   1.834  12.758   3.162
 2109W        W63420  41.511  29.624   1.739
 2110W        W63421   5.370  37.933   4.268
 2111W        W63422   8.264  43.998   4.692
 2112W        W63423  37.349   6.274   5.156
 2113W        W63424  31.024  27.956   3.384
 2114W        W63425  42.879  21.174   0.243
 2115W        W63426  17.220  12.701  11.466
 2116W        W63427  43.840   0.909  11.967
 2117W        W63428  34.576  21.060   2.347
 2118W        W63429  20.143  21.752   1.428
 2119W        W63430  43.467  24.120   4.817
 2120W        W63431  41.365  31.086   1.250
 2121W        W63432   2.238  28.123  11.464
 2122W        W63433  16.664   6.685  13.061
 2123W        W63434  20.040   1.416   1.807
 2124W        W63435  23.539  29.131  12.401
 2125W        W63436   8.358   7.904  13.340
 2126W        W63437  35.943   2.830   1.294
 2127W        W63438  42.356  37.852  13.532
 2128W        W63439  19.691  35.064   4.198
 2129W        W63440   4.360  11.147  10.445
 2130W        W63441  29.587  30.105   1.409
 2131W        W63442  23.705  11.367  14.855
 2132W        W63443  11.682  43.495   0.845
 2133W        W63444  12.147  41.032  11.593
 2134W        W63445  17.178  42.316   0.778
 2135W        W63446  28.599  34.968   3.848
 2136W        W63447  18.719  12.185   4.133
 2137W        W63448  32.604   6.839  14.410
 2138W        W63449  20.714  15.138  14.277
 2139W        W63450  33.604  24.042  12.895
 2140W        W63451  10.329  40.884   2.228
 2141W        W63452  39.538  13.323  11.047
 2142W        W63453   9.320  17.643  10.057
 2143W        W63454  24.573   0.378  11.577
 2144W        W63455  34.594  38.009   4.311
 2145W        W63456  38.955  22.647   1.408
 2146W        W63457   7.248  15.170   3.732
 2147W        W63458  33.019  44.831   2.880
 2148W        W63459  15.279  17.203  12.899
 2149W        W63460  37.339  44.813   4.605
 2150W        W63461  20.216  39.384  14.021
 2151W        W63462  17.761  17.307   2.247
 2152W        W63463  41.911  42.852  11.439
 2153W        W63464  12.620  42.803   4.242
 2154W        W63465  28.054  10.764  10.979
 2155W        W63466  22.566  39.834   5.573
 2156W        W63467  10.703  10.787  11.410
 2157W        W63468  21.086   9.804  11.466
 2158W        W63469  13.604  19.112   0.258
 2159W        W63470  34.045  35.540  14.390
 2160W        W63471   0.383  38.957   1.724
 2161W        W63472   3.711  21.059   4.603
 2162W        W63473  18.629  36.999   4.149
 2163W        W63474  30.554  11.697   0.886
 2164W        W63475   9.395  39.869  14.348
 2165W        W63476   6.688  20.133   3.151
 2166W        W63477  35.524  37.003   9.541
 2167W        W63478  29.142  12.318  14.505
 2168W        W63479  28.109  25.108   4.734
 2169W        W63480  18.187  26.102  12.844
 2170W        W63481  30.947   9.730   2.851
 2171W        W63482   2.280  39.488   4.673
 2172W        W63483  42.403  37.052   0.378
 2173W        W63484  27.071  21.235   2.389
 2174W        W63485   1.402   7.719  11.090
 2175W        W63486  43.981  40.963  11.935
 2176W        W63487  19.270  28.036  13.525
 2177W        W63488  39.937  18.735  14.350
 2178W        W63489  24.154  42.799  13.019
 2179W        W63490  26.599  32.426  13.468
 2180W        W63491  26.198  33.485  14.876
 2181W        W63492  13.116  24.209   1.747
 2182W        W63493   0.331   2.422   4.254
 2183W        W63494  12.240  32.119  13.004
 2184W        W63495  26.951  40.969   4.712
 2185W        W63496  41.346   9.306  13.394
 2186W        W63497  30.011   0.449  11.933
 2187W        W63498  23.698  32.891  14.019
 2188W        W63499  31.896  22.744   5.137
 2189W        W63500  10.298  22.506  10.413
 2190W        W63501  17.733  18.595  10.633
 2191W        W63502  21.577  19.135   2.298
 2192W        W63503  43.852  10.826  10.575
 2193W        W63504  44.789  30.613   3.764
 2194W        W63505  14.229  41.969  11.408
 2195W        W63506   7.361  19.095   0.908
 2196W        W63507   4.879  23.706   1.807
 2197W        W63508   6.868   3.896  13.839
 2198W        W63509  16.193  32.392  10.997
 2199W        W63510   7.717  24.667   3.839
 2200W        W63511  12.687  31.956   2.697
 2201W        W63512  22.680  25.553  14.840
 2202W        W63513  19.636  29.524  13.038
 2203W        W63514  34.439  24.558   1.764
 2204W        W63515  25.199  43.391  13.978
 2205W        W63516  13.817  38.843   2.332
 2206W        W63517  11.847  25.015   0.776
 2207W        W63518   1.841  30.574  13.423
 2208W        W63519  44.437  22.210   2.897
 2209W        W63520  41.452  14.263   3.318
 2210W        W63521  41.531  43.009  11.944
 2211W        W63522  23.134  16.590   5.184
 2212W        W63523  41.371  27.954   1.389
 2213W        W63524  43.817   8.815   5.155
 2214W        W63525   7.697  25.581  11.963
 2215W        W63526  32.480  11.370   1.754
 2216W        W63527  10.274   5.211  12.042
 2217W        W63528  33.472  26.594  12.360
 2218W        W63529  24.643  21.125   3.699
 2219W        W63530  20.566  18.074  10.032
 2220W        W63531  43.813  43.402  13.363
 2221W        W63532  10.705   2.251  13.923
 2222W        W63533  38.913  21.157  10.901
 2223W        W63534  43.849  23.069   3.649
 2224W        W63535   8.662  39.057  14.822
 2225W        W63536   5.299  36.001   4.767
 2226W        W63537  34.582   0.871  13.944
 2227W        W63538  20.145  14.223   4.664
 2228W        W63539  27.123  31.534  10.007
 2229W        W63540   7.399  40.470  14.778
 2230W        W63541  15.302  13.297   1.303
 2231W        W63542  44.461   0.897  13.803
 2232W        W63543   2.927   8.169  10.409
 2233W        W63544  24.577   1.298  14.977
 2234W        W63545  20.648   0.833   3.754
 2235W        W63546  13.108  43.928  13.009
 2236W        W63547  40.484   8.221  14.832
 2237W        W63548  37.370  12.748  11.498
 2238W        W63549   7.885  38.929  12.574
 2239W        W63550  29.598  37.029   2.677
 2240W        W63551   0.423  28.937   3.178
 2241W        W63552  40.480  35.884  10.905
 2242W        W63553  33.027  12.281  14.900
 2243W        W63554  22.107  21.562   1.865
 2244W        W63555  32.415  34.976  10.487
 2245W        W63556  30.636  38.501   2.414
 2246W        W63557  23.988  21.523   0.745
 2247W        W63558  20.065  43.847  11.384
 2248W        W63559   2.258  33.047   1.795
 2249W        W63560  12.817  37.526   5.313
 2250W        W63561  13.837   6.403   4.151
 2251W        W63562  39.004  31.408  11.958
 2252W        W63563  35.416  13.301  12.453
 2253W        W63564  34.422  40.548   2.255
 2254W        W63565   5.714  27.621  11.429
 2255W        W63566  31.501   9.161   3.866
 2256W        W63567  31.514   7.718  14.350
 2257W        W63568  24.988   8.345   3.238
 2258W        W63569  33.622  10.708   0.266
 2259W        W63570  22.202   5.865  11.390
 2260W        W63571  16.591  10.333  13.846
 2261W        W63572   0.758  33.578   0.474
 2262W        W63573  16.256  19.697   3.357
 2263W        W63574  32.974  16.107  13.008
 2264W        W63575   8.401  28.478   1.335
 2265W        W63576  24.982   4.231   3.818
 2266W        W63577   3.318  12.317  13.547
 2267W        W63578   6.914   2.266  12.342
 2268W        W63579   1.297  38.561  11.075
 2269W        W63580   0.423   1.300   2.731
 2270W        W63581  31.434  34.440   1.722
 2271W        W63582   0.759   9.285  11.869
 2272W        W63583   3.276  39.910   3.632
 2273W        W63584  31.490   2.344  11.873
 2274W        W63585  41.916  41.786  11.547
 2275W        W63586  18.615  35.970   2.758
 2276W        W63587  44.319  19.766   4.202
 2277W        W63588  18.582  33.436   5.229
 2278W        W63589  19.549  41.900  10.431
 2279W        W63590  17.630  30.951   2.805
 2280W        W63591  44.906  31.989   0.768
 2281W        W63592  19.160  13.697  13.331
 2282W        W63593  21.598  38.072   1.331
 2283W        W63594   6.371  14.716   1.220
 2284W        W63595  13.629  14.759   3.159
 2285W        W63596  20.059  38.489   5.627
 2286W        W63597  17.120  38.426  10.983
 2287W        W63598  23.999  19.151  11.878
 2288W        W63599  12.666  14.590   1.736
 2289W        W63600  35.578  34.888  10.575
 2290W        W63601  29.518  11.190  11.895
 2291W        W63602   2.279   9.884  10.969
 2292W        W63603  19.699  29.137  11.419
 2293W        W63604   9.156  12.150   0.908
 2294W        W63605  13.688  16.214   3.726
 2295W        W63606  17.564  13.245  12.910
 2296W        W63607  10.657   1.469  14.859
 2297W        W63608   5.848  10.678   1.893
 2298W        W63609  19.752  27.135  11.486
 2299W        W63610  41.859  41.483  14.349
 2300W        W63611  15.321  29.559  11.531
 2301W        W63612  29.507  15.757   4.641
 2302W        W63613  41.430  31.911   3.735
 2303W        W63614  32.116   6.699   4.128
 2304W        W63615  27.004  28.013  11.395
 2305W        W63616  34.567  28.614   4.652
 2306W        W63617   6.417  10.668  11.887
 2307W        W63618  37.016   0.926   4.822
 2308W        W63619  28.174  20.139  13.922
 2309W        W63620  44.474  26.463   2.748
 2310W        W63621  28.934  12.250   0.766
 2311W        W63622   0.832  37.405   2.364
 2312W        W63623   9.195  21.205  10.503
 2313W        W63624  33.971  26.954   1.410
 2314W        W63625  23.656  21.194   3.830
 2315W        W63626   2.390  20.725   3.170
 2316W        W63627  35.017  22.247  12.892
 2317W        W63628  11.317  18.092   3.710
 2318W        W63629  44.470  19.610  14.887
 2319W        W63630  19.545  31.068  11.571
 2320W        W63631  24.139   2.927   0.354
 2321W        W63632  32.077  36.097   1.302
 2322W        W63633  32.579  35.917  11.100
 2323W        W63634  20.716  30.495   0.839
 2324W        W63635  13.688  19.747   4.212
 2325W        W63636   7.216  32.987   0.854
 2326W        W63637  35.983  17.232   2.391
 2327W        W63638   0.267  43.933  12.378
 2328W        W63639  32.070  38.074  14.430
 2329W        W63640  24.670   3.231   0.277
 2330W        W63641   3.344  41.899   4.787
 2331W        W63642  42.427  42.415   3.168
 2332W        W63643  25.036  23.618  13.548
 2333W        W63644  26.576  22.673  11.601
 2334W        W63645  13.821  30.427  14.285
 2335W        W63646  21.582  29.146   3.679
 2336W        W63647  34.425  26.956  14.906
 2337W        W63648  15.579   5.745   2.886
 2338W        W63649   6.381  25.654  10.617
 2339W        W63650  15.585  22.549  12.441
 2340W        W63651  43.853   9.358   1.926
 2341W        W63652  17.739  26.053  10.927
 2342W        W63653  19.572  37.938   4.207
 2343W        W63654  17.670  25.535   4.268
 2344W        W63655  15.744  33.937  11.457
 2345W        W63656  17.113   1.367  13.001
 2346W        W63657  14.283  37.983  11.026
 2347W        W63658  31.582   2.321  12.858
 2348W        W63659  27.496   2.958  12.533
 2349W        W63660  27.497  38.409  11.450
 2350W        W63661  26.194  25.109   2.226
 2351W        W63662  31.141  37.436  13.054
 2352W        W63663  22.547  14.329   3.643
 2353W        W63664  39.532  17.637  10.532
 2354W        W63665  29.918  36.525  14.926
 2355W        W63666  41.976  25.005   9.972
 2356W        W63667  30.011  24.025   1.432
 2357W        W63668  23.503   3.878  13.535
 2358W        W63669  31.077  27.127  12.549
 2359W        W63670  19.558  29.034  10.476
 2360W        W63671  14.327  29.007   4.755
 2361W        W63672  10.825  29.011  13.320
 2362W        W63673   5.828  20.702   1.222
 2363W        W63674   0.463  28.110  14.398
 2364W        W63675  38.334  16.256  12.008
 2365W        W63676  35.071  21.184   2.265
 2366W        W63677  21.099   3.922  11.430
 2367W        W63678  16.266  27.501  12.971
 2368W        W63679  27.969  38.993  11.494
 2369W        W63680  35.970   8.332   4.204
 2370W        W63681  40.023  44.970  12.546
 2371W        W63682  19.556  15.205  12.860
 2372W        W63683  15.302  36.505  13.928
 2373W        W63684  40.048  10.697  10.961
 2374W        W63685  26.044   0.263  12.467
 2375W        W63686  20.273  21.058  13.880
 2376W        W63687  31.095  15.775  13.047
 2377W        W63688   2.471   9.839   0.312
 2378W        W63689   9.196  15.783   3.765
 2379W        W63690  18.147  35.501   4.802
 2380W        W63691  24.501  34.022  11.462
 2381W        W63692  39.052  36.999   0.778
 2382W        W63693  28.520  28.438   2.825
 2383W        W63694  38.413  10.637   1.856
 2384W        W63695  38.380  30.023  13.407
 2385W        W63696   6.214  40.363  12.420
 2386W        W63697  25.644  16.108   3.272
 2387W        W63698  19.645  35.977  11.048
 2388W        W63699  36.412  11.312   1.237
 2389W        W63700  34.391  29.617  12.498
 2390W        W63701  18.238  10.686   4.134
 2391W        W63702  33.548  35.405   1.762
 2392W        W63703  11.710  31.095  12.357
 2393W        W63704  35.999   7.736  14.896
 2394W        W63705  20.722  26.111   3.332
 2395W        W63706  11.704  29.165  13.027
 2396W        W63707  18.778  19.084   0.839
 2397W        W63708   1.302  41.013  14.022
 2398W        W63709  27.019  24.148  14.453
 2399W        W63710  33.930  12.353   4.776
 2400W        W63711   8.184   2.839  12.537
 2401W        W63712  35.432  37.839  10.456
 2402W        W63713  16.661  40.921  11.420
 2403W        W63714  28.460  43.910   4.830
 2404W        W63715  13.601  30.974  14.281
 2405W        W63716  25.596  41.430  13.460
 2406W        W63717  39.388  19.668  14.329
 2407W        W63718   6.251  27.160  10.484
 2408W        W63719  26.153   9.697   2.253
 2409W        W63720  39.953  28.573   2.770
 2410W        W63721   4.395  41.352   4.334
 2411W        W63722   9.779  37.494   3.754
 2412W        W63723  15.793  20.151   3.322
 2413W        W63724  12.729  37.472   1.307
 2414W        W63725  43.966  35.925   4.113
 2415W        W63726  35.026  25.693   0.787
 2416W        W63727  14.204  44.423   0.742
 2417W        W63728   5.248  27.049  12.018
 2418W        W63729   4.941  38.480   4.344
 2419W        W63730  11.299   8.258  14.483
 2420W        W63731  43.801  18.590   1.260
 2421W        W63732  24.054  28.929   5.259
 2422W        W63733  18.194  10.874   3.829
 2423W        W63734  13.726   5.292  13.957
 2424W        W63735  20.544   9.868   3.790
 2425W        W63736   5.398   8.884   2.379
 2426W        W63737  16.644  28.959   4.201
 2427W        W63738   0.348  26.568   3.220
 2428W        W63739  16.681  35.507  13.496
 2429W        W63740   9.386   5.267  13.464
 2430W        W63741  11.675  12.783   4.782
 2431W        W63742  11.635   5.923  12.871
 2432W        W63743  44.451  40.881  11.959
 2433W        W63744  24.180  39.892  14.983
 2434W        W63745  30.640  27.685  12.862
 2435W        W63746   3.839   4.408   1.934
 2436W        W63747  24.980  27.048  12.423
 2437W        W63748  15.241  19.149  11.547
 2438W        W63749   3.274  38.556   4.235
 2439W        W63750  20.215  21.697  14.912
 2440W        W63751   5.929   9.316   2.745
 2441W        W63752  25.626  32.530   1.221
 2442W        W63753  29.615  23.597   1.895
 2443W        W63754   0.265  13.756  10.454
 2444W        W63755  36.038  13.666  13.996
 2445W        W63756  43.516  39.878   1.285
 2446W        W63757   7.298  30.946   3.789
 2447W        W63758   1.269  28.000  14.466
 2448W        W63759  44.942  12.851  11.049
 2449W        W63760  14.779   7.217  14.018
 2450W        W63761  23.680  35.521  14.454
 2451W        W63762  26.030  21.696   3.235
 2452W        W63763  15.250  21.543  14.790
 2453W        W63764  27.943  36.961   3.861
 2454W        W63765  37.546  34.440  11.569
 2455W        W63766  14.792   9.368  11.463
 2456W        W63767  42.380  30.092  10.580
 2457W        W63768  36.002  15.643   2.850
 2458W        W63769  24.649  40.916   4.136
 2459W        W63770  19.119   2.837   3.749
 2460W        W63771  26.150  27.060   4.822
 2461W        W63772  40.347  34.489   1.834
 2462W        W63773  18.296  18.773   4.213
 2463W        W63774  39.870  44.914   3.836
 2464W        W63775  26.685  17.101  10.951
 2465W        W63776   5.827   5.910   2.315
 2466W        W63777  23.008  22.634   0.880
 2467W        W63778  16.721   2.439  14.907
 2468W        W63779   2.326   8.160  14.870
 2469W        W63780   1.956  14.286   1.794
 2470W        W63781  24.066  10.281  14.872
 2471W        W63782  35.409  30.502   1.372
 2472W        W63783  17.789  37.418  14.800
 2473W        W63784  32.633  34.018   3.328
 2474W        W63785  27.974  34.607   3.666
 2475W        W63786   4.756  39.474   2.213
 2476W        W63787  28.439  32.541  13.490
 2477W        W63788  36.458  36.418   0.815
 2478W        W63789  12.361  19.695  13.362
 2479W        W63790  36.564  39.031   0.439
 2480W        W63791   5.253  13.732  14.343
 2481W        W63792  22.555  14.264  11.047
 2482W        W63793  11.706  12.289   1.877
 2483W        W63794  19.584  20.114  13.922
 2484W        W63795  39.322  18.648  13.475
 2485W        W63796  22.619  34.963   2.852
 2486W        W63797  41.927   7.681   0.807
 2487W        W63798   7.706  11.826  11.043
 2488W        W63799  24.084  21.122  13.963
 2489W        W63800  43.958  40.862  13.482
 2490W        W63801  24.226  32.932  12.558
 2491W        W63802  12.643  14.271  12.065
 2492W        W63803  16.648  37.987  12.548
 2493W        W63804  38.075  32.455  11.974
 2494W        W63805  36.579   5.837   4.613
 2495W        W63806   8.759  29.523  10.631
 2496W        W63807   1.456  15.686  13.530
 2497W        W63808   3.752  26.587   4.142
 2498W        W63809  32.572  35.550   2.732
 2499W        W63810  38.486  34.431   4.154
 2500W        W63811  16.617   2.278  14.412
 2501W        W63812  16.160  20.588   2.376
 2502W        W63813   3.264   6.768   2.757
 2503W        W63814  30.003  24.047  10.959
 2504W        W63815  23.206  12.649   4.118
 2505W        W63816  21.589  16.272  10.926
 2506W        W63817  38.532  37.875  12.968
 2507W        W63818   3.273  14.286  12.421
 2508W        W63819  37.466   3.775  11.448
 2509W        W63820  39.324   4.334   3.841
 2510W        W63821  36.991  27.023   4.625
 2511W        W63822  18.122  10.850   0.295
 2512W        W63823  16.788  28.497   3.282
 2513W        W63824  17.130  38.395  14.466
 2514W        W63825  19.546  44.453   1.425
 2515W        W63826  20.633  12.162  12.947
 2516W        W63827   9.760  26.996  13.023
 2517W        W63828  12.323  44.777   1.852
 2518W        W63829  43.902  36.520  14.897
 2519W        W63830  40.977   2.964  12.877
 2520W        W63831  43.996  25.631   1.741
 2521W        W63832  30.648  11.804  12.427
 2522W        W63833   9.155  19.560  14.295
 2523W        W63834  36.453  16.605   3.667
 2524W        W63835  34.876   3.822   3.813
 2525W        W63836  37.067  38.896   1.418
 2526W        W63837  10.225   3.452   4.333
 2527W        W63838  23.987  28.671   9.526
 2528W        W63839   7.229  28.971  12.910
 2529W        W63840   7.707  39.812   4.177
 2530W        W63841  12.342   1.351   1.424
 2531W        W63842  32.618  33.093  12.864
 2532W        W63843   0.361  23.163  14.894
 2533W        W63844  21.239  18.290  12.457
 2534W        W63845  20.090  22.693  14.947
 2535W        W63846   4.897  38.383  13.950
 2536W        W63847  42.804   4.698   5.292
 2537W        W63848   1.906  25.168  13.894
 2538W        W63849  15.624  11.693   3.376
 2539W        W63850  40.355   2.448  10.628
 2540W        W63851  38.571  24.077   0.910
 2541W        W63852  16.266  20.725  12.937
 2542W        W63853   6.370  15.273   4.692
 2543W        W63854  10.252  18.778  13.856
 2544W        W63855  29.542  16.277   3.343
 2545W        W63856  30.490  14.187   0.375
 2546W        W63857   7.814   9.678   3.180
 2547W        W63858   4.295   3.858   0.389
 2548W        W63859  10.761  16.149   3.767
 2549W        W63860  40.327  22.021   4.242
 2550W        W63861  28.465  29.428   1.878
 2551W        W63862  31.588  36.086   3.240
 2552W        W63863  31.559  24.523  13.445
 2553W        W63864  34.990  20.204   0.403
 2554W        W63865  24.039  21.700  14.324
 2555W        W63866  10.792  31.562   1.704
 2556W        W63867  21.049   6.799  14.949
 2557W        W63868  16.077  23.119  12.543
 2558W        W63869  26.510  34.041  12.462
 2559W        W63870  41.874  33.580  12.868
 2560W        W63871  42.851   8.358  12.471
 2561W        W63872  27.485  19.063   2.812
 2562W        W63873  27.152  22.714  10.467
 2563W        W63874  41.417  24.191   0.875
 2564W        W63875  38.340  34.548   1.448
 2565W        W63876  24.991  43.407   0.273
 2566W        W63877  40.438  24.077   4.809
 2567W        W63878  15.096  26.663   1.760
 2568W        W63879  20.638  29.435  10.979
 2569W        W63880  42.933  24.066  12.017
 2570W        W63881  18.647  44.758  11.905
 2571W        W63882  36.449  21.175   2.243
 2572W        W63883  28.546  30.546   4.220
 2573W        W63884  15.128  31.634   0.921
 2574W        W63885  30.601  40.436  13.457
 2575W        W63886  18.122  38.955  12.998
 2576W        W63887   6.224  17.691   2.758
 2577W        W63888  28.136  33.880   2.376
 2578W        W63889  21.584  21.513  11.474
 2579W        W63890  33.522   4.390   1.884
 2580W        W63891  24.220  40.358  11.947
 2581W        W63892   0.900  30.479   4.699
 2582W        W63893   1.279  18.630  12.849
 2583W        W63894  11.225  16.242  12.533
 2584W        W63895  24.085  44.776  12.075
 2585W        W63896  11.150  24.587   0.412
 2586W        W63897   4.863  13.152   2.796
 2587W        W63898  18.669  21.057   2.705
 2588W        W63899  12.276  40.917  13.470
 2589W        W63900  11.357   5.419   3.775
 2590W        W63901  10.176  39.880   3.303
 2591W        W63902  12.145  20.182  13.500
 2592W        W63903  23.092  13.820  13.881
 2593W        W63904   4.371  23.596  12.565
 2594W        W63905  13.114  10.352   4.786
 2595W        W63906  23.718   3.954  12.973
 2596W        W63907   8.742  42.994   3.652
 2597W        W63908   1.369  11.224  14.825
 2598W        W63909   4.309  18.580  13.326
 2599W        W63910  42.001  30.023  13.513
 2600W        W63911  20.110  31.588  12.969
 2601W        W63912  16.156  20.226  14.878
 2602W        W63913   2.262  39.987  12.501
 2603W        W63914   7.745  29.920  14.841
 2604W        W63915  19.646   3.435  14.459
 2605W        W63916  39.845  13.676   2.882
 2606W        W63917   2.248   1.409  11.396
 2607W        W63918  20.654  42.932   3.761
 2608W        W63919  21.556   2.724   1.370
 2609W        W63920  12.194  33.605  14.392
 2610W        W63921   9.253   3.791   4.680
 2611W        W63922  39.049  17.277  10.462
 2612W        W63923  24.010  15.697  14.018
 2613W        W63924  39.866   4.735  14.286
 2614W        W63925  32.423  43.950   0.845
 2615W        W63926  19.706  36.849  12.390
 2616W        W63927   1.307  23.100   4.608
 2617W        W63928  29.104   3.252   4.632
 2618W        W63929  24.700  19.062   0.316
 2619W        W63930  43.845  10.744   3.295
 2620W        W63931   9.703  12.668   2.890
 2621W        W63932  13.183  23.734   9.952
 2622W        W63933  14.682  10.738  11.542
 2623W        W63934  35.467  36.097  12.993
 2624W        W63935   1.958  43.484  12.023
 2625W        W63936  38.387  43.953  10.959
 2626W        W63937  37.573  25.162  13.518
 2627W        W63938  12.242  39.875  13.435
 2628W        W63939  26.078  42.785  13.334
 2629W        W63940  36.014  17.302  10.457
 2630W        W63941  36.395  22.217   0.860
 2631W        W63942  34.863  44.770   1.233
 2632W        W63943   0.463   4.823   4.794
 2633W        W63944  16.076  37.936   3.771
 2634W        W63945  14.820   9.222  13.328
 2635W        W63946  17.076  19.076  12.339
 2636W        W63947   2.472  26.096   1.818
 2637W        W63948  25.133  20.162  13.034
 2638W        W63949  21.670  30.502  12.522
 2639W        W63950  25.516  20.635   4.597
 2640W        W63951  18.120  32.968  14.972
 2641W        W63952  31.451   4.208  11.917
 2642W        W63953   8.840  27.042   2.690
 2643W        W63954  43.422  41.915   2.818
 2644W        W63955  16.072  32.444  10.613
 2645W        W63956  26.006  25.193   3.387
 2646W        W63957  30.516  22.732   2.217
 2647W        W63958   6.194   9.251   4.675
 2648W        W63959  26.125   6.770   2.847
 2649W        W63960  44.456  24.089  11.895
 2650W        W63961   5.208  20.266  14.448
 2651W        W63962  32.598  23.578  12.079
 2652W        W63963  24.025  41.327   4.656
 2653W        W63964   9.775  16.751  12.089
 2654W        W63965   3.284  32.582   0.265
 2655W        W63966   3.758   4.708  11.076
 2656W        W63967  13.171  42.875   3.337
 2657W        W63968  22.673  13.821  13.841
 2658W        W63969  30.487  27.191  11.546
 2659W        W63970  24.126  27.982  14.989
 2660W        W63971  34.054  27.169   1.695
 2661W        W63972  41.435  43.321  13.416
 2662W        W63973  27.155  31.901  12.497
 2663W        W63974   3.731  37.506   0.933
 2664W        W63975  32.412  44.985  11.411
 2665W        W63976  32.514  10.322  14.453
 2666W        W63977   1.887   1.463   2.411
 2667W        W63978   4.427  38.074  13.390
 2668W        W63979  27.546  31.531  11.860
 2669W        W63980  30.644  22.105  13.429
 2670W        W63981  14.137   1.920   4.727
 2671W        W63982   8.775  19.680  11.894
 2672W        W63983   1.404   2.435   0.911
 2673W        W63984   3.742  37.504   3.267
 2674W        W63985  20.159  39.879   1.702
 2675W        W63986   6.355  29.554   4.176
 2676W        W63987  10.679  25.190  14.819
 2677W        W63988   5.244  16.783  12.051
 2678W        W63989  36.086  11.839  10.456
 2679W        W63990  36.856  39.436  11.022
 2680W        W63991  21.240   2.343  14.950
 2681W        W63992  11.315  34.010   2.882
 2682W        W63993  11.712  27.115  13.864
 2683W        W63994  39.541  42.408   1.325
 2684W        W63995   0.353  15.224   3.295
 2685W        W63996  27.037  22.165  11.480
 2686W        W63997  44.802   1.912   3.172
 2687W        W63998  33.436   3.430   0.789
 2688W        W63999   8.238  17.724   0.250
 2689W        W64000   5.819  35.024   0.391
 2690W        W64001  33.939  22.731   4.717
 2691W        W64002  23.705   0.288  13.381
 2692W        W64003  18.228  19.114   1.720
 2693W        W64004  28.505  26.079  12.505
 2694W        W64005  16.086  11.829   4.687
 2695W        W64006  27.550   8.348  13.441
 2696W        W64007   7.742  10.192  13.010
 2697W        W64008  22.228  13.346  11.960
 2698W        W64009  23.530  25.522  14.008
 2699W        W64010  44.987   5.899   3.204
 2700W        W64011  29.632  16.787  13.027
 2701W        W64012  37.578  36.991  13.369
 2702W        W64013  30.065  22.617  11.491
 2703W        W64014  33.101   8.190   1.331
 2704W        W64015  20.118  28.509  12.093
 2705W        W64016  12.696   8.829   0.446
 2706W        W64017   1.952   4.363   3.148
 2707W        W64018  35.994  16.188  13.379
 2708W        W64019  20.609  21.054  14.425
 2709W        W64020  39.529  26.140   1.355
 2710W        W64021  28.582   3.737   4.343
 2711W        W64022  16.240   4.310  13.932
 2712W        W64023  28.660  28.027  12.969
 2713W        W64024  39.500   3.263   1.381
 2714W        W64025  33.398   4.403   1.391
 2715W        W64026  15.721  37.062   1.750
 2716W        W64027  38.042  41.791   3.217
 2717W        W64028  24.108   0.376  14.910
 2718W        W64029  15.711  41.021   2.342
 2719W        W64030  27.184  30.008  14.499
 2720W        W64031  20.249  34.109  14.513
 2721W        W64032   7.879  23.686  10.906
 2722W        W64033  35.551  35.895   3.236
 2723W        W64034   7.719  27.992   1.764
 2724W        W64035   2.853   1.785   4.154
 2725W        W64036  20.566  22.557  11.957
 2726W        W64037  36.031  25.203  13.500
 2727W        W64038   7.295  15.717  14.852
 2728W        W64039  37.042  21.103   1.847
 2729W        W64040  11.792  44.832   2.376
 2730W        W64041  27.131  12.621   0.435
 2731W        W64042  16.286  29.016  13.933
 2732W        W64043  33.523  25.665  14.824
 2733W        W64044   4.351  17.286   3.234
 2734W        W64045   7.336  29.459  12.478
 2735W        W64046  19.071  44.335  13.417
 2736W        W64047   8.731  39.429   2.838
 2737W        W64048  36.888  42.796  11.983
 2738W        W64049  13.171  12.190  11.594
 2739W        W64050  23.038   8.285   0.357
 2740W        W64051  20.758   7.821   1.258
 2741W        W64052  19.223  30.909   0.312
 2742W        W64053  13.657  41.922   2.717
 2743W        W64054  22.538   2.889  10.626
 2744W        W64055  10.812  29.037  12.457
 2745W        W64056   5.925   1.918  14.359
 2746W        W64057   8.311   2.740   2.341
 2747W        W64058  28.652  16.147   1.732
 2748W        W64059   1.345  19.776   4.296
 2749W        W64060  19.124  31.405  14.374
 2750W        W64061  36.964  28.015  12.362
 2751W        W64062   9.759  10.853   4.702
 2752W        W64063  39.416  22.015   4.349
 2753W        W64064  19.268  38.984   9.537
 2754W        W64065  37.935  43.831   3.659
 2755W        W64066  35.013  23.509   0.918
 2756W        W64067   1.746  27.992   0.483
 2757W        W64068  38.516  14.178  12.864
 2758W        W64069  28.550   9.712  11.426
 2759W        W64070  31.947   8.250  12.975
 2760W        W64071  23.212  33.403   3.293
 2761W        W64072  35.097  25.711   3.368
 2762W        W64073  15.601   5.418   3.835
 2763W        W64074   0.936   4.238  11.498
 2764W        W64075  42.326  16.239  12.969
 2765W        W64076  33.415  12.360   2.268
 2766W        W64077  25.003  41.354   0.375
 2767W        W64078  32.530  13.120   1.852
 2768W        W64079  16.640  31.601   0.275
 2769W        W64080  23.035  41.478   1.314
 2770W        W64081  33.426  31.132   1.738
 2771W        W64082  23.169  35.026   1.223
 2772W        W64083   7.877  33.906  12.572
 2773W        W64084  10.175  12.278   0.288
 2774W        W64085  19.691  41.355  11.016
 2775W        W64086  24.134  31.604   1.733
 2776W        W64087   8.406  16.182  13.955
 2777W        W64088  14.321  29.039  14.001
 2778W        W64089  39.376  34.044   4.692
 2779W        W64090  18.063   2.288  14.020
 2780W        W64091  30.619  15.723  13.457
 2781W        W64092  37.336  43.347   2.732
 2782W        W64093  44.301  23.057   0.469
 2783W        W64094  12.290  39.818   1.333
 2784W        W64095  37.960  17.626  13.413
 2785W        W64096  36.080  23.605   2.881
 2786W        W64097   0.977  44.310   3.690
 2787W        W64098  11.190  32.575  12.837
 2788W        W64099   4.267  37.081   3.157
 2789W        W64100  29.043  18.699  11.562
 2790W        W64101  35.521   8.256  13.876
 2791W        W64102   8.805   0.851   1.808
 2792W        W64103  36.499  27.509   9.544
 2793W        W64104  17.708  26.648  13.990
 2794W        W64105  26.090  35.375  10.411
 2795W        W64106  41.042   5.855   4.694
 2796W        W64107  21.161  10.201  11.908
 2797W        W64108   9.174  38.983   2.843
 2798W        W64109  11.252  36.413   4.781
 2799W        W64110  42.776   1.435   4.646
 2800W        W64111  27.987  19.092  14.788
 2801W        W64112  28.165  38.548  14.871
 2802W        W64113  33.986  44.336  13.848
 2803W        W64114   0.371  38.332  14.776
 2804W        W64115  39.828   1.948   1.343
 2805W        W64116  19.604   1.832   1.784
 2806W        W64117  22.139  26.676   2.336
 2807W        W64118   6.688  38.555  11.496
 2808W        W64119  14.657  20.213   1.376
 2809W        W64120  12.785   3.856   3.820
 2810W        W64121   4.288   2.309  12.354
 2811W        W64122  36.062  31.629   1.328
 2812W        W64123  11.311  40.541  11.523
 2813W        W64124   0.262  10.750   2.810
 2814W        W64125  27.493  35.068   0.870
 2815W        W64126  42.429  12.720  11.498
 2816W        W64127  20.674  18.062  12.914
 2817W        W64128  26.504  43.476  12.578
 2818W        W64129   4.262  20.702  12.095
 2819W        W64130  33.046  21.150  11.989
 2820W        W64131  32.971  38.908  10.443
 2821W        W64132  11.341  30.592  14.781
 2822W        W64133   6.205  26.592  14.511
 2823W        W64134  12.786   4.351   2.806
 2824W        W64135  41.409  11.348   2.246
 2825W        W64136   3.376  23.644   4.785
 2826W        W64137  42.334  27.523  14.425
 2827W        W64138  10.775  19.575   1.740
 2828W        W64139  16.086  20.046   1.384
 2829W        W64140  18.684  35.555  12.866
 2830W        W64141  29.042  44.319  14.806
 2831W        W64142   6.765   5.886   1.433
 2832W        W64143   5.748   0.824   2.896
 2833W        W64144  35.387   3.821   3.833
 2834W        W64145  33.948  43.488  14.363
 2835W        W64146  17.760   7.855  13.404
 2836W        W64147  37.934  28.015  12.065
 2837W        W64148  36.901  13.123   4.700
 2838W        W64149  27.172  13.628  12.542
 2839W        W64150  40.811  27.577   1.881
 2840W        W64151  26.500  22.146   0.805
 2841W        W64152  40.922  14.755   2.399
 2842W        W64153  38.433  43.510  14.417
 2843W        W64154  23.228  11.168   4.757
 2844W        W64155  38.982   1.455  13.502
 2845W        W64156   5.786  24.024  10.511
 2846W        W64157  26.049  36.390   0.442
 2847W        W64158  16.284  21.138   3.174
 2848W        W64159  26.681  43.463   1.853
 2849W        W64160  11.266   7.305  11.964
 2850W        W64161  16.788  38.930  11.613
 2851W        W64162  16.604  25.703  12.028
 2852W        W64163  34.913  32.633  13.820
 2853W        W64164  39.902  14.161  12.427
 2854W        W64165  43.951  33.042  12.998
 2855W        W64166  28.061  12.770   2.254
 2856W        W64167  14.299  41.997   1.290
 2857W        W64168  28.955   8.765  12.474
 2858W        W64169  38.332  12.613   0.743
 2859W        W64170  39.451  34.080   2.304
 2860W        W64171   1.941  40.047   4.671
 2861W        W64172   7.839  13.695   0.286
 2862W        W64173  24.030  26.479   3.185
 2863W        W64174  36.073  18.728  14.863
 2864W        W64175  44.890   0.404  11.060
 2865W        W64176  23.586   0.290  12.930
 2866W        W64177  18.147  38.952   3.781
 2867W        W64178  18.790   5.767   1.254
 2868W        W64179  24.677  34.397   3.789
 2869W        W64180   6.824   8.364   0.274
 2870W        W64181  38.456   2.238  14.785
 2871W        W64182  16.737   4.815  11.508
 2872W        W64183   9.290  40.807  14.478
 2873W        W64184  22.662  32.527  14.275
 2874W        W64185   4.206  22.209  12.512
 2875W        W64186  17.213  33.088  13.390
 2876W        W64187  37.892  24.608   1.292
 2877W        W64188  36.032   4.935   0.943
 2878W        W64189  38.902   2.760  12.077
 2879W        W64190  38.414  44.908   0.266
 2880W        W64191  44.941  32.507   2.724
 2881W        W64192  21.712  27.001   4.254
 2882W        W64193  12.661  26.503  13.924
 2883W        W64194  13.742  12.292   4.723
 2884W        W64195  40.468  36.014   3.286
 2885W        W64196  23.209   7.762   0.316
 2886W        W64197  32.537  19.581   2.205
 2887W        W64198  22.523  22.546   2.805
 2888W        W64199  31.935  29.627   4.698
 2889W        W64200  16.289   9.843   3.246
 2890W        W64201   6.703  14.319   4.764
 2891W        W64202  11.726  32.007   3.150
 2892W        W64203  21.114  35.979   4.816
 2893W        W64204  25.032   6.230  12.847
 2894W        W64205  22.622  32.121  10.902
 2895W        W64206  21.212  11.684   1.409
 2896W        W64207  20.123  42.297  11.919
 2897W        W64208  12.850  16.218  10.460
 2898W        W64209  19.638  14.791   2.685
 2899W        W64210   4.365   0.969  12.022
 2900W        W64211  22.653  32.134  12.928
 2901W        W64212   5.411  39.848  11.883
 2902W        W64213   8.684  16.242   3.802
 2903W        W64214  42.778  38.975   0.799
 2904W        W64215   2.386  30.103   2.310
 2905W        W64216  13.687  30.610  11.961
 2906W        W64217  30.041   0.416  13.958
 2907W        W64218  33.032  34.992  11.609
 2908W        W64219  11.675  17.722  10.083
 2909W        W64220  36.021   3.739   5.288
 2910W        W64221   7.259  29.955   0.893
 2911W        W64222   8.305   2.383  10.516
 2912W        W64223   1.311  32.121   5.108
 2913W        W64224  42.850  32.898  11.591
 2914W        W64225  20.124  26.158   0.451
 2915W        W64226   1.267  36.395   0.377
 2916W        W64227  40.474  15.715  13.828
 2917W        W64228  31.016   8.391   5.196
 2918W        W64229  17.229   0.817   2.380
 2919W        W64230  30.084  13.721  10.645
 2920W        W64231  29.074  29.531   1.746
 2921W        W64232  39.442  22.072  12.869
 2922W        W64233  20.225  44.870  14.419
 2923W        W64234  29.992  14.823   2.357
 2924W        W64235   6.320  25.663   1.229
 2925W        W64236  13.239  14.185   2.260
 2926W        W64237   5.283  39.006  12.968
 2927W        W64238  32.951  44.982   4.186
 2928W        W64239   9.778  28.652   1.710
 2929W        W64240  16.728  16.252  13.994
 2930W        W64241  14.828  42.948   4.745
 2931W        W64242   1.256  37.479   4.258
 2932W        W64243  11.333   3.883  14.958
 2933W        W64244  23.622  19.058  10.970
 2934W        W64245  16.614   0.804  13.519
 2935W        W64246  33.888  32.130   4.624
 2936W        W64247  27.190  36.512  14.828
 2937W        W64248  28.129  22.008  13.892
 2938W        W64249   4.322  16.139  10.626
 2939W        W64250   2.363  18.608   0.889
 2940W        W64251  28.929  32.108  13.386
 2941W        W64252  12.673  35.520  13.407
 2942W        W64253  34.047  14.636  12.835
 2943W        W64254  24.614  17.206  14.338
 2944W        W64255   5.238  36.397  13.433
 2945W        W64256  26.952  29.047   9.619
 2946W        W64257   3.426  14.792   3.858
 2947W        W64258   8.305  29.053   1.405
 2948W        W64259  34.098   2.864   0.365
 2949W        W64260   6.387  34.114   4.224
 2950W        W64261  12.760  44.843  13.369
 2951W        W64262  37.997  12.856  13.538
 2952W        W64263  42.499   0.420   1.919
 2953W        W64264   2.895  13.152  14.473
 2954W        W64265   5.301  10.818   2.409
 2955W        W64266  24.188  11.162  13.533
 2956W        W64267  12.206   0.767   4.619
 2957W        W64268  40.825  18.100   1.799
 2958W        W64269  34.984   6.282   3.694
 2959W        W64270  30.084  21.646   1.288
 2960W        W64271   6.353  34.526  12.841
 2961W        W64272  21.132  20.670  13.370
 2962W        W64273  18.689  26.144  14.807
 2963W        W64274   5.869  42.410  12.564
 2964W        W64275  13.796   2.341   1.782
 2965W        W64276  38.979  43.936  12.987
 2966W        W64277  37.866  19.644  11.982
 2967W        W64278  44.858   1.432  12.437
 2968W        W64279  41.817  16.218   1.776
 2969W        W64280  25.626  43.303   1.389
 2970W        W64281  30.588  40.360  12.011
 2971W        W64282  43.298  42.883   2.903
 2972W        W64283  43.411   4.874  13.812
 2973W        W64284  37.982  39.959  14.774
 2974W        W64285  35.569   9.180  14.961
 2975W        W64286   3.333  41.824  11.890
 2976W        W64287  43.449  24.583  13.505
 2977W        W64288  22.054  12.326   4.724
 2978W        W64289  44.374  32.574  14.483
 2979W        W64290   7.756  42.373  10.893
 2980W        W64291  39.553   5.432   3.768
 2981W        W64292  39.057  40.393  14.347
 2982W        W64293   6.201   5.278  14.371
 2983W        W64294  17.166   9.334  10.985
 2984W        W64295  16.771  26.066   1.243
 2985W        W64296  15.787  29.088   0.772
 2986W        W64297  41.528   5.308   4.625
 2987W        W64298  40.822  33.548   3.768
 2988W        W64299  26.464  19.689  13.422
 2989W        W64300  23.139  33.529  12.997
 2990W        W64301  39.386  24.053   3.633
 2991W        W64302  35.558   7.770  13.031
 2992W        W64303  27.060   8.202   3.330
 2993W        W64304  10.832  16.133   1.868
 2994W        W64305  37.423  19.658  10.559
 2995W        W64306   9.822  28.624  13.483
 2996W        W64307  13.175  18.226   1.349
 2997W        W64308  15.588   7.814   3.721
 2998W        W64309  16.274   1.301   4.115
 2999W        W64310  31.424  34.530  12.445
 3000W        W64311  21.609   8.683   3.687
 3001W        W64312  36.908  39.317   4.164
 3002W        W64313  22.614  13.325   1.721
 3003W        W64314  27.953   3.711   9.502
 3004W        W64315   0.897   0.395  13.041
 3005W        W64316  36.402  23.684  11.091
 3006W        W64317  13.772   7.717   2.312
 3007W        W64318  24.682   8.348   0.383
 3008W        W64319  25.522  36.976   2.259
 3009W        W64320  26.504   2.281  12.917
 3010W        W64321   3.369  10.144  11.396
 3011W        W64322   2.899  25.527   0.834
 3012W        W64323  34.590  17.172   0.743
 3013W        W64324  31.941  18.289   3.234
 3014W        W64325   4.868  44.274  10.588
 3015W        W64326  43.776  17.786  12.468
 3016W        W64327  10.861  26.147   4.352
 3017W        W64328  25.113   6.781  12.424
 3018W        W64329   7.299  27.522   3.170
 3019W        W64330  34.999   8.215   2.761
 3020W        W64331  13.109  40.046   3.633
 3021W        W64332  42.470  41.938  13.473
 3022W        W64333  38.054  30.140   2.279
 3023W        W64334  40.991  22.671  11.583
 3024W        W64335  15.747  39.853  14.358
 3025W        W64336  14.251  44.965   2.896
 3026W        W64337   9.266  25.081  12.961
 3027W        W64338  43.395  41.998  12.579
 3028W        W64339  18.769   1.321   0.390
 3029W        W64340   1.304  26.048   2.329
 3030W        W64341   7.729  38.519   4.172
 3031W        W64342  17.282  41.335  10.527
 3032W        W64343  29.569  11.298  11.425
 3033W        W64344  22.735  21.175  12.433
 3034W        W64345  18.663  24.556  11.913
 3035W        W64346  28.658  43.419   1.404
 3036W        W64347  40.542  40.505  12.082
 3037W        W64348   7.404  40.524  13.889
 3038W        W64349  27.536  39.061   3.835
 3039W        W64350   4.859   7.837   5.190
 3040W        W64351  16.195  10.182  10.410
 3041W        W64352  40.362  36.468  13.818
 3042W        W64353  13.323  10.331  11.078
 3043W        W64354  42.948   9.729   1.781
 3044W        W64355  19.163   6.426  13.850
 3045W        W64356  36.018  31.150  12.456
 3046W        W64357  28.132   5.336   0.862
 3047W        W64358  36.964   5.795   1.763
 3048W        W64359  34.451  24.167   3.279
 3049W        W64360  25.469   5.806  12.981
 3050W        W64361   6.727  10.197  11.592
 3051W        W64362   1.262   6.743   3.165
 3052W        W64363  36.932  13.699   0.780
 3053W        W64364   9.223  14.598   3.262
 3054W        W64365  30.914   9.263  14.840
 3055W        W64366  34.612   7.874  10.902
 3056W        W64367  44.434  39.367  10.502
 3057W        W64368  33.946  26.471   0.951
 3058W        W64369   9.774  16.264   4.143
 3059W        W64370  31.607  32.083  13.491
 3060W        W64371   3.410  31.955   5.112
 3061W        W64372  44.474  17.091  11.376
 3062W        W64373  30.047   7.306   4.791
 3063W        W64374  32.099  14.126  10.049
 3064W        W64375  14.741  10.741  13.911
 3065W        W64376   1.785   4.912  11.056
 3066W        W64377  40.308   9.384  14.868
 3067W        W64378   8.272  17.285  12.851
 3068W        W64379  19.076   2.272   1.891
 3069W        W64380  16.119  14.759   2.818
 3070W        W64381  17.090  43.767   2.763
 3071W        W64382  17.617  22.080   3.809
 3072W        W64383  39.818  21.154  14.446
 3073W        W64384  24.989  33.446   4.654
 3074W        W64385  30.495  31.609  13.965
 3075W        W64386   1.892  31.480   2.700
 3076W        W64387   7.377  40.315   2.887
 3077W        W64388  40.821  35.541   2.808
 3078W        W64389  41.987  26.679   2.272
 3079W        W64390  29.458   9.844  11.076
 3080W        W64391  12.670   0.892   2.779
 3081W        W64392  14.816  34.405  13.024
 3082W        W64393   7.748  14.215   2.350
 3083W        W64394  18.068  17.595   1.878
 3084W        W64395  11.257  22.039  14.374
 3085W        W64396  33.955  30.090  12.863
 3086W        W64397  35.449   8.234  13.460
 3087W        W64398  10.821  17.579   3.281
 3088W        W64399  37.388  29.488  11.424
 3089W        W64400  18.087  33.890  11.508
 3090W        W64401  42.805  28.671  13.519
 3091W        W64402   8.742  42.387   0.396
 3092W        W64403  42.286  40.395   1.246
 3093W        W64404   8.679  20.164   1.726
 3094W        W64405   1.251  42.404   1.863
 3095W        W64406  43.428  36.585   2.232
 3096W        W64407  14.267  28.587  14.933
 3097W        W64408  26.558  10.173  11.529
 3098W        W64409   6.404   3.385   5.123
 3099W        W64410   2.854  25.484   0.287
 3100W        W64411  32.044  20.649  13.461
 3101W        W64412  29.463  37.027  10.982
 3102W        W64413  16.606  15.181   2.250
 3103W        W64414   3.439   7.716   4.720
 3104W        W64415  24.513   9.855  11.526
 3105W        W64416  39.468  34.876   0.277
 3106W        W64417  14.658  26.567  13.376
 3107W        W64418  16.770   6.770   4.679
 3108W        W64419  15.749  25.148  14.837
 3109W        W64420  34.894  25.175   4.699
 3110W        W64421  34.109  10.206   2.246
 3111W        W64422  20.666  37.070  12.391
 3112W        W64423  17.755  34.373  13.045
 3113W        W64424  34.481  32.007  13.905
 3114W        W64425  43.811  23.491  14.499
 3115W        W64426  10.151   4.251   0.308
 3116W        W64427  17.633  34.380   3.730
 3117W        W64428  43.321  40.466   2.313
 3118W        W64429  44.893  38.461   4.336
 3119W        W64430  22.165  11.135   0.857
 3120W        W64431  24.101   1.890  12.359
 3121W        W64432  29.991  40.449  12.461
 3122W        W64433  40.875  28.466  13.852
 3123W        W64434   3.746  29.668  11.128
 3124W        W64435  40.349  11.155  14.789
 3125W        W64436  32.393   3.278   5.247
 3126W        W64437  28.662  28.506   3.834
 3127W        W64438  26.205   7.188   3.807
 3128W        W64439   9.734  39.475   3.833
 3129W        W64440  31.409  27.993   2.861
 3130W        W64441  12.313  12.142  14.973
 3131W        W64442  28.103  21.688  13.415
 3132W        W64443  39.372   9.768   2.335
 3133W        W64444  27.161  23.107   1.326
 3134W        W64445  13.260   4.404   0.464
 3135W        W64446   8.773  31.972   0.469
 3136W        W64447  38.994  39.519   3.681
 3137W        W64448  25.036  40.308  13.858
 3138W        W64449  15.637  15.294   3.741
 3139W        W64450  40.377  24.517  11.994
 3140W        W64451  34.037  21.562   3.306
 3141W        W64452  13.692  20.550   0.907
 3142W        W64453  39.990  16.164  11.039
 3143W        W64454  32.983  13.822  12.398
 3144W        W64455   2.869  14.607  11.901
 3145W        W64456  19.749  29.575   3.759
 3146W        W64457  37.365  21.687   4.653
 3147W        W64458   2.824  36.021  13.917
 3148W        W64459   9.326  20.087   0.458
 3149W        W64460   9.660  25.668  13.342
 3150W        W64461  42.821  18.740   3.181
 3151W        W64462  39.444  16.072   0.763
 3152W        W64463  27.946  44.904   1.402
 3153W        W64464  43.899  30.514  11.515
 3154W        W64465  21.591  40.043  10.143
 3155W        W64466  40.311  26.690  14.998
 3156W        W64467  35.523  24.153   2.870
 3157W        W64468  39.819  38.962  12.830
 3158W        W64469  42.920  38.906   0.357
 3159W        W64470  25.104  33.076   2.707
 3160W        W64471  36.959   9.163  13.052
 3161W        W64472  18.776   8.242   2.289
 3162W        W64473  18.248   4.760  12.361
 3163W        W64474  37.404  30.544   3.835
 3164W        W64475  19.255  41.398  14.310
 3165W        W64476  24.482   4.286   0.399
 3166W        W64477  26.557  18.789   4.660
 3167W        W64478  31.047  40.017  13.526
 3168W        W64479  19.537  16.661  14.883
 3169W        W64480  27.196  16.230   3.362
 3170W        W64481   4.233  17.218  12.537
 3171W        W64482  21.557  40.034  11.409
 3172W        W64483   3.279  23.230   4.643
 3173W        W64484  28.592  15.669   3.754
 3174W        W64485  27.965  38.838  12.012
 3175W        W64486  17.707  24.190   0.319
 3176W        W64487  30.491  37.380  11.424
 3177W        W64488  15.124  42.985  13.401
 3178W        W64489  24.653  21.678   2.353
 3179W        W64490  35.996   6.206  10.904
 3180W        W64491  37.865  39.337  11.597
 3181W        W64492  30.054  37.569  13.900
 3182W        W64493  39.556  41.859  11.530
 3183W        W64494  13.777  20.082   4.228
 3184W        W64495  17.651   0.283   2.741
 3185W        W64496   6.677   3.718   0.268
 3186W        W64497  44.300   8.874   4.755
 3187W        W64498   3.320   5.925   3.692
 3188W        W64499   6.752  34.865   1.747
 3189W        W64500  24.977  22.711   3.259
 3190W        W64501  20.766   8.354  13.386
 3191W        W64502   9.719  23.228  12.857
 3192W        W64503  18.588   0.266  10.994
 3193W        W64504   0.918  11.326  10.459
 3194W        W64505  39.062  21.260  14.912
 3195W        W64506  13.668  16.144  13.332
 3196W        W64507  22.746  12.151   2.304
 3197W        W64508  39.380  17.696   1.332
 3198W        W64509  23.699  27.657  11.991
 3199W        W64510  15.140   4.397   0.855
 3200W        W64511   4.303  44.361   1.278
 3201W        W64512  17.126  14.125  13.925
 3202W        W64513  23.151  21.193   4.616
 3203W        W64514  22.152  22.657   1.301
 3204W        W64515  20.200  30.644   4.126
 3205W        W64516  39.929   6.193  13.895
 3206W        W64517  17.758   9.878   0.921
 3207W        W64518  43.464  36.020   0.845
 3208W        W64519  44.422   0.901   3.684
 3209W        W64520  22.079  43.981   2.364
 3210W        W64521  25.973  25.537   3.161
 3211W        W64522  27.446  31.521  10.632
 3212W        W64523  10.255  15.138   4.267
 3213W        W64524  12.320  16.079   0.852
 3214W        W64525   4.348  16.093   0.327
 3215W        W64526  12.676  41.401   0.769
 3216W        W64527  28.948  39.857  12.498
 3217W        W64528  31.571  22.112   1.444
 3218W        W64529   2.884  26.170  13.369
 3219W        W64530  21.603  29.584  12.843
 3220W        W64531  12.782   6.737  14.419
 3221W        W64532  11.809  33.425   2.390
 3222W        W64533  37.452  44.419   2.797
 3223W        W64534  25.097  35.888   4.137
 3224W        W64535  33.104   8.320  11.499
 3225W        W64536   0.912  32.011  14.954
 3226W        W64537  21.188  29.455   4.292
 3227W        W64538  38.065   1.974   4.344
 3228W        W64539  42.842  40.854  12.902
 3229W        W64540  41.487  25.187  10.629
 3230W        W64541  26.613  11.247  14.299
 3231W        W64542  34.882  43.313   4.146
 3232W        W64543  29.663  43.877   1.446
 3233W        W64544  24.068  12.119  14.807
 3234W        W64545  36.458   2.441  11.570
 3235W        W64546  25.475  26.693   4.602
 3236W        W64547  11.199  19.075   0.413
 3237W        W64548  10.344  44.801   2.278
 3238W        W64549  16.648  27.968  14.000
 3239W        W64550   7.245  31.984   1.417
 3240W        W64551  12.221   3.912  10.068
 3241W        W64552  13.704   6.188   1.930
 3242W        W64553  31.086  21.708   0.312
 3243W        W64554   6.192   2.361   2.410
 3244W        W64555   2.909   2.361   4.253
 3245W        W64556  43.821  22.022   3.208
 3246W        W64557  18.233  18.182   0.412
 3247W        W64558  33.437  28.029  11.869
 3248W        W64559  27.455   8.892   0.940
 3249W        W64560   8.242  14.662  11.005
 3250W        W64561   4.409   8.657  14.369
 3251W        W64562  44.918  12.165  14.395
 3252W        W64563  31.510  38.054  11.957
 3253W        W64564  38.036   3.911  10.949
 3254W        W64565  32.987  26.514  12.374
 3255W        W64566  14.654  37.395   1.299
 3256W        W64567  28.520   4.234   2.723
 3257W        W64568  16.654  40.407  13.448
 3258W        W64569   5.289   4.422   3.652
 3259W        W64570  38.393   5.222  14.419
 3260W        W64571  25.993  30.036  14.379
 3261W        W64572   2.272  21.163  11.917
 3262W        W64573  42.303  10.770   4.187
 3263W        W64574  10.175  37.518   3.760
 3264W        W64575  36.428  38.009   1.216
 3265W        W64576   3.334  22.560   0.475
 3266W        W64577  19.184  42.514  13.326
 3267W        W64578  15.271   0.742  11.445
 3268W        W64579  16.651  11.809   1.314
 3269W        W64580  39.529  25.477   0.890
 3270W        W64581  43.900  14.279  13.542
 3271W        W64582  44.761  31.984   2.305
 3272W        W64583  13.328  13.647  11.919
 3273W        W64584   1.752   0.887  14.008
 3274W        W64585  22.532  29.101  12.500
 3275W        W64586  26.589  42.341   0.808
 3276W        W64587  12.335  11.346  14.286
 3277W        W64588  40.842  34.593   0.479
 3278W        W64589  41.475  25.069  11.567
 3279W        W64590  36.951  20.130  14.473
 3280W        W64591  29.949   2.423  14.997
 3281W        W64592  19.735  27.594  11.907
 3282W        W64593  17.748  41.338  12.417
 3283W        W64594   3.266  38.352   1.284
 3284W        W64595  43.778   8.711  12.466
 3285W        W64596  26.038  18.141  14.787
 3286W        W64597  21.233  19.630   0.912
 3287W        W64598  28.441  12.733  12.967
 3288W        W64599  21.206   4.912  10.638
 3289W        W64600  36.914  34.530  13.353
 3290W        W64601  21.632  30.010  11.012
 3291W        W64602   3.255   7.413  12.878
 3292W        W64603  30.050   8.706   4.205
 3293W        W64604  12.209   1.863  12.496
 3294W        W64605  21.676  17.175  12.896
 3295W        W64606  44.833  26.999  10.516
 3296W        W64607  15.191  33.381  13.378
 3297W        W64608  22.652  27.190  13.868
 3298W        W64609   4.293  41.031  13.505
 3299W        W64610  27.474  22.014  14.839
 3300W        W64611   9.212  23.657  13.546
 3301W        W64612  37.540  16.218   1.397
 3302W        W64613  14.259  14.619   4.661
 3303W        W64614  32.935  26.651  10.599
 3304W        W64615  12.784   5.904  13.826
 3305W        W64616  16.613   4.914   3.336
 3306W        W64617  32.437  37.554  14.999
 3307W        W64618  40.547  22.635  13.991
 3308W        W64619   9.662  13.182   4.751
 3309W        W64620  21.589   8.180  11.023
 3310W        W64621   4.788  23.572  11.577
 3311W        W64622  13.820   0.846   4.643
 3312W        W64623  32.962  14.284   1.720
 3313W        W64624  18.565  30.915  12.446
 3314W        W64625  44.457  35.511   4.165
 3315W        W64626   9.192  17.632   0.933
 3316W        W64627  33.612  35.379   3.279
 3317W        W64628  40.371  19.633   3.333
 3318W        W64629  43.927  18.135   2.223
 3319W        W64630  29.059  44.288  11.544
 3320W        W64631  26.551  23.671  10.904
 3321W        W64632  44.373  14.821  13.352
 3322W        W64633  38.337  16.665   1.386
 3323W        W64634  34.542  41.996  10.076
 3324W        W64635   5.240   8.317  11.983
 3325W        W64636  16.074  40.916  14.439
 3326W        W64637  19.582  43.288  10.420
 3327W        W64638  11.261  10.318   2.779
 3328W        W64639   2.391  43.910   4.672
 3329W        W64640  12.209   9.648   4.251
 3330W        W64641  38.858  33.999  13.322
 3331W        W64642  19.652   4.897   2.256
 3332W        W64643  24.724  23.079  13.057
 3333W        W64644  20.199   4.342   1.445
 3334W        W64645  14.661  28.052  10.020
 3335W        W64646  14.794  19.671  11.572
 3336W        W64647  20.607  10.855   2.184
 3337W        W64648  18.125  12.293  11.047
 3338W        W64649   6.763  25.626   1.378
 3339W        W64650  14.193  34.966  10.519
 3340W        W64651  13.228  27.629   2.850
 3341W        W64652  28.459  11.286  11.579
 3342W        W64653  39.847  43.442   3.291
 3343W        W64654   8.292   3.324  12.359
 3344W        W64655  36.421  32.555  13.339
 3345W        W64656  41.803  40.009  12.360
 3346W        W64657  19.691  38.047  13.507
 3347W        W64658  18.660  27.196  10.638
 3348W        W64659  41.431  18.682  13.989
 3349W        W64660  31.102  24.044  12.497
 3350W        W64661   5.696  22.060   1.702
 3351W        W64662  36.859  18.124  14.869
 3352W        W64663   4.844  10.688  13.478
 3353W        W64664  24.197  26.636  14.293
 3354W        W64665   1.919  25.194  14.315
 3355W        W64666   0.787  15.111   1.873
 3356W        W64667  26.463   0.821   0.959
 3357W        W64668  24.484  14.734  13.374
 3358W        W64669  27.988  39.987   0.460
 3359W        W64670  16.704  38.363   3.787
 3360W        W64671  16.086  18.135  11.521
 3361W        W64672  14.307   9.170  13.889
 3362W        W64673   5.272  39.507  10.553
 3363W        W64674   8.310  34.955   1.244
 3364W        W64675  37.966  41.860  11.448
 3365W        W64676   3.445  41.385   0.445
 3366W        W64677  24.696  40.517   4.637
 3367W        W64678  38.073  26.186   1.288
 3368W        W64679  35.875  40.344   1.717
 3369W        W64680   7.727  14.589  13.523
 3370W        W64681   5.871  34.485   0.384
 3371W        W64682  10.799  33.874   0.746
 3372W        W64683  22.548   2.455   1.913
 3373W        W64684  17.564  27.170   4.270
 3374W        W64685   6.259  32.019   3.230
 3375W        W64686   4.238  33.611   3.779
 3376W        W64687  33.906  14.201  11.967
 3377W        W64688   9.760   3.296   0.399
 3378W        W64689  18.073  41.520   1.883
 3379W        W64690  23.049  35.553   4.602
 3380W        W64691  14.142   8.258   3.705
 3381W        W64692  33.038  31.054  13.430
 3382W        W64693  44.896  40.467   2.318
 3383W        W64694   0.977  10.645  12.415
 3384W        W64695  15.322  20.045   4.813
 3385W        W64696   3.396  36.517   0.905
 3386W        W64697  40.008  10.693   1.870
 3387W        W64698  24.043   4.877   1.366
 3388W        W64699  22.181  15.669  11.611
 3389W        W64700  43.905   0.743   2.759
 3390W        W64701  42.933  34.594   3.777
 3391W        W64702  21.158   2.345  10.411
 3392W        W64703  27.653  37.896  14.386
 3393W        W64704  13.219  27.647  12.954
 3394W        W64705  14.726  44.761  11.399
 3395W        W64706   1.320  43.404   1.783
 3396W        W64707   7.714  30.112   1.238
 3397W        W64708  43.330  14.284   0.262
 3398W        W64709  13.172  19.064  14.023
 3399W        W64710   3.868  31.939   3.652
 3400W        W64711  30.921  30.112  13.436
 3401W        W64712  22.180  23.239  12.479
 3402W        W64713   9.352   7.291  13.883
 3403W        W64714  10.746  38.351   0.355
 3404W        W64715  11.162   6.208  13.894
 3405W        W64716  36.939  34.929   0.455
 3406W        W64717   9.354  28.499   2.223
 3407W        W64718  21.086   8.761   1.741
 3408W        W64719  44.260  13.188  11.471
 3409W        W64720  36.929  32.424  14.774
 3410W        W64721  14.241   6.853  10.912
 3411W        W64722  41.795  29.933  14.461
 3412W        W64723  19.212  16.208  11.538
 3413W        W64724  24.064  14.307  10.431
 3414W        W64725  40.467  41.987  10.454
 3415W        W64726  22.195   9.284   4.717
 3416W        W64727   5.436  19.176  14.342
 3417W        W64728  37.021  20.038   4.315
 3418W        W64729  44.873  43.402  12.560
 3419W        W64730  40.870  27.624   2.279
 3420W        W64731  14.204  31.069   1.888
 3421W        W64732   7.327  35.447   1.824
 3422W        W64733   2.450  16.651   2.300
 3423W        W64734   3.372  44.860   3.274
 3424W        W64735   0.441  37.357  11.535
 3425W        W64736   9.293   3.802  11.090
 3426W        W64737   2.250  35.541  14.980
 3427W        W64738  14.280  18.068  14.884
 3428W        W64739  38.055  38.010   4.797
 3429W        W64740  39.845  37.909   4.639
 3430W        W64741  31.959  39.461   1.261
 3431W        W64742  40.517  11.727   3.353
 3432W        W64743  10.740   7.310  14.013
 3433W        W64744  44.292  39.543  12.395
 3434W        W64745  25.587   8.774  11.962
 3435W        W64746  34.996  13.603  11.904
 3436W        W64747  34.112  38.410   0.449
 3437W        W64748  28.059  36.016   0.361
 3438W        W64749  31.416   2.347  14.284
 3439W        W64750  37.410   3.854   3.167
 3440W        W64751  22.617  21.241   2.901
 3441W        W64752  16.138  42.369  12.855
 3442W        W64753  42.995   3.401   1.282
 3443W        W64754   5.898   8.794  13.345
 3444W        W64755  39.002  29.928  12.889
 3445W        W64756  17.245  36.418   3.653
 3446W        W64757  12.714  24.600   0.794
 3447W        W64758   1.281  23.686  13.965
 3448W        W64759  30.141  41.299  12.039
 3449W        W64760   8.742  24.650  13.419
 3450W        W64761   3.806  15.760   0.287
 3451W        W64762  19.095  29.154   4.235
 3452W        W64763  44.868  25.572  12.083
 3453W        W64764  10.773   9.331  11.959
 3454W        W64765  13.810  16.222   1.279
 3455W        W64766  34.077  24.003   3.332
 3456W        W64767  43.419   0.415  13.906
 3457W        W64768  40.491  26.118   0.348
 3458W        W64769  30.972   7.833   4.816
 3459W        W64770  29.118  42.910  14.830
 3460W        W64771  26.083  27.040  14.287
 3461W        W64772  43.893  11.201   4.245
 3462W        W64773   2.904  14.254   2.882
 3463W        W64774  17.612  39.456   0.739
 3464W        W64775   0.930  19.202   0.956
 3465W        W64776  14.241  20.620   1.775
 3466W        W64777   4.260  34.497   1.306
 3467W        W64778  11.658  19.165   1.784
 3468W        W64779   0.906  42.797   4.265
 3469W        W64780  33.956  21.131   1.389
 3470W        W64781   9.230   0.372   2.878
 3471W        W64782  40.417   3.881   4.315
 3472W        W64783  11.278   8.782   3.790
 3473W        W64784  44.363  40.977  12.428
 3474W        W64785  22.678  20.566  12.389
 3475W        W64786  23.229  26.134   2.292
 3476W        W64787  14.228  42.902   0.745
 3477W        W64788  44.965   5.331   1.821
 3478W        W64789  43.398  40.516   0.936
 3479W        W64790  31.465  16.256   3.199
 3480W        W64791  14.824   0.418   2.354
 3481W        W64792   9.282  15.228  14.788
 3482W        W64793  32.420   5.315   5.749
 3483W        W64794  42.986  26.993  11.884
 3484W        W64795  33.492   5.193  14.418
 3485W        W64796   8.228   8.796   2.726
 3486W        W64797   6.827  33.422  14.835
 3487W        W64798  26.511  39.957   0.747
 3488W        W64799   0.287  34.469   4.255
 3489W        W64800  20.184  44.759  14.800
 3490W        W64801  25.121   5.757   2.387
 3491W        W64802  23.091   4.290   4.287
 3492W        W64803  36.043  21.126  11.004
 3493W        W64804   5.833  19.604   3.825
 3494W        W64805  18.591   4.919  10.033
 3495W        W64806  24.675  12.270  11.548
 3496W        W64807  13.204  30.165  12.889
 3497W        W64808  17.228  23.580   1.223
 3498W        W64809  16.272  25.658  11.534
 3499W        W64810  26.637   2.319  12.389
 3500W        W64811  24.629  17.572   0.394
 3501W        W64812   8.793  30.652   2.293
 3502W        W64813  31.154  30.439  12.404
 3503W        W64814  31.988  22.150  13.384
 3504W        W64815  20.620  39.335   3.150
 3505W        W64816   7.351  36.557  11.951
 3506W        W64817   7.174  41.436   3.756
 3507W        W64818   2.884  31.515  11.856
 3508W        W64819  43.949   6.220  10.642
 3509W        W64820   7.293   7.413   0.306
 3510W        W64821  30.461  10.721  14.834
 3511W        W64822  21.017  14.248  13.546
 3512W        W64823  35.065   2.776   3.861
 3513W        W64824   0.291   9.331   3.322
 3514W        W64825   4.372  43.965   3.751
 3515W        W64826  14.731  22.640   0.760
 3516W        W64827  23.593  31.992   0.462
 3517W        W64828   5.727  10.663  10.566
 3518W        W64829  37.579  17.776   1.297
 3519W        W64830  42.362  39.538  10.574
 3520W        W64831   3.393  24.524  13.513
 3521W        W64832  38.442   7.679   1.358
 3522W        W64833  33.883  24.647  14.889
 3523W        W64834  38.497  23.603   3.374
 3524W        W64835  15.256  12.135  10.445
 3525W        W64836  10.686  17.243  11.036
 3526W        W64837  39.934  28.600  12.467
 3527W        W64838   9.208   5.250   2.373
 3528W        W64839  10.644  26.009  10.559
 3529W        W64840  41.793  26.964   1.871
 3530W        W64841  28.946  23.668  10.492
 3531W        W64842   8.298  10.649   0.770
 3532W        W64843   5.237  10.337   5.170
 3533W        W64844  18.618  42.860  10.436
 3534W        W64845  35.431  26.620  11.857
 3535W        W64846  42.807  25.023  14.396
 3536W        W64847  14.333  12.338   1.741
 3537W        W64848   5.403   0.977  10.432
 3538W        W64849  11.245  12.743  14.813
 3539W        W64850  25.055  32.026   0.863
 3540W        W64851   8.342  35.575   4.639
 3541W        W64852  44.449  12.802   2.221
 3542W        W64853  41.011  18.651   4.338
 3543W        W64854  21.693   7.315   0.863
 3544W        W64855  40.823   5.251  14.321
 3545W        W64856  36.021  26.045   1.314
 3546W        W64857  31.087  17.649  11.428
 3547W        W64858   7.295   2.256  14.419
 3548W        W64859  41.883  32.949   2.354
 3549W        W64860  44.857  10.779   3.723
 3550W        W64861   4.444  28.985   3.213
 3551W        W64862  31.476  35.383  13.511
 3552W        W64863  23.717  18.217   0.420
 3553W        W64864  25.564  23.685  11.391
 3554W        W64865  34.018  41.029  14.014
 3555W        W64866  31.945  42.307   4.226
 3556W        W64867   2.271  16.201   0.795
 3557W        W64868  31.511  25.178   1.239
 3558W        W64869   6.375  43.935   4.610
 3559W        W64870  36.996  38.519  10.924
 3560W        W64871  12.330  20.545   4.773
 3561W        W64872  30.960   2.936  11.960
 3562W        W64873  12.343  44.959  12.505
 3563W        W64874  33.462  18.570   1.212
 3564W        W64875  40.998  41.924  13.317
 3565W        W64876   0.789   3.889   2.835
 3566W        W64877  21.024  25.674   1.230
 3567W        W64878  25.005  35.563  11.077
 3568W        W64879  38.383  37.448   4.746
 3569W        W64880  44.377  28.506  14.793
 3570W        W64881  39.560  37.008   5.298
 3571W        W64882  18.635  24.219   4.181
 3572W        W64883  38.511  16.727  13.942
 3573W        W64884   2.309  13.216   4.348
 3574W        W64885  22.608  39.887  14.493
 3575W        W64886  17.795  37.487  12.402
 3576W        W64887  18.623  16.316  13.497
 3577W        W64888  41.369  10.714   4.317
 3578W        W64889  39.430   0.396   1.908
 3579W        W64890   4.859   6.781   3.850
 3580W        W64891  33.504  35.028   4.760
 3581W        W64892  43.419  37.083  13.328
 3582W        W64893  10.747  19.677  10.590
 3583W        W64894  43.428  32.042  10.463
 3584W        W64895  21.598  33.602  14.021
 3585W        W64896  10.717  14.128  11.481
 3586W        W64897  41.408   3.324   4.343
 3587W        W64898   9.378  29.614   0.948
 3588W        W64899  25.069  30.506  13.450
 3589W        W64900  42.517  44.981   1.758
 3590W        W64901  23.107  23.640   0.842
 3591W        W64902  39.040  24.217  10.409
 3592W        W64903  30.555  34.964  10.948
 3593W        W64904  32.448  23.521  11.492
 3594W        W64905  22.047  28.052  13.920
 3595W        W64906  32.555   6.764  11.395
 3596W        W64907  22.560  44.411   2.688
 3597W        W64908  41.358   3.845  12.576
 3598W        W64909   6.748  18.560   2.854
 3599W        W64910  27.553  10.850  10.893
 3600W        W64911  12.131  42.835  12.939
 3601W        W64912   8.821  27.675   1.306
 3602W        W64913  25.561  33.574   3.273
 3603W        W64914   4.258  33.586   0.875
 3604W        W64915  37.442  37.505   3.750
 3605W        W64916  19.152  32.079  11.503
 3606W        W64917   0.822   8.728   4.241
 3607W        W64918  39.479  20.205  14.778
 3608W        W64919  33.624  39.916  12.579
 3609W        W64920  24.677  39.941   1.403
 3610W        W64921  12.844  33.959   1.740
 3611W        W64922  41.941  32.597   1.368
 3612W        W64923   6.318  34.058   4.764
 3613W        W64924  18.183  26.645  11.409
 3614W        W64925  36.923  36.855  14.897
 3615W        W64926  13.727  25.473  11.447
 3616W        W64927   8.740  16.737  12.997
 3617W        W64928  20.534  27.577   3.804
 3618W        W64929  21.037  43.016   2.699
 3619W        W64930   7.798  39.884   3.361
 3620W        W64931  25.499   4.242   1.697
 3621W        W64932   0.277   4.247   0.933
 3622W        W64933   5.774  16.120  14.331
 3623W        W64934   7.384  38.965   3.151
 3624W        W64935  43.876  13.348   0.926
 3625W        W64936  21.193  38.071   5.141
 3626W        W64937  42.341  19.611   2.242
 3627W        W64938   0.290  29.984   0.783
 3628W        W64939  36.046  29.524  13.368
 3629W        W64940  25.570  33.536   3.740
 3630W        W64941   4.926  20.530  12.021
 3631W        W64942  20.040  17.694  13.942
 3632W        W64943   8.169  22.628   0.741
 3633W        W64944  21.211  15.669  13.860
 3634W        W64945  20.568   4.402   4.697
 3635W        W64946   0.307  37.582   4.142
 3636W        W64947  12.773  32.061   9.922
 3637W        W64948  22.577  26.010   1.415
 3638W        W64949  30.043  23.497   2.257
 3639W        W64950  12.831  38.570  14.494
 3640W        W64951  36.531   1.305  14.987
 3641W        W64952  28.137   9.740  12.073
 3642W        W64953   7.225   9.880  14.851
 3643W        W64954  34.079  41.022  14.445
 3644W        W64955  34.592  26.599   0.386
 3645W        W64956  40.016  35.464  14.335
 3646W        W64957  28.665  35.011  14.400
 3647W        W64958  15.201   8.217   3.379
 3648W        W64959  20.035  12.713   1.425
 3649W        W64960  38.424   7.276  12.467
 3650W        W64961  17.296  39.314   1.789
 3651W        W64962  41.947  17.074   5.229
 3652W        W64963   7.697  22.689  10.998
 3653W        W64964  26.090  39.983   4.116
 3654W        W64965  29.539   5.727   3.244
 3655W        W64966   3.288  34.943  10.418
 3656W        W64967  35.364  23.578  13.817
 3657W        W64968  36.492   0.964   0.933
 3658W        W64969  30.036  26.026  13.056
 3659W        W64970  12.341  30.566  12.568
 3660W        W64971  18.176  42.366  12.545
 3661W        W64972  33.114  15.272   2.781
 3662W        W64973  14.282   7.827  10.626
 3663W        W64974   2.759  27.465  14.873
 3664W        W64975  35.569  25.128   1.863
 3665W        W64976   0.318  19.776  12.460
 3666W        W64977  13.260  41.382   0.823
 3667W        W64978   0.765  12.297  14.864
 3668W        W64979  24.508  23.649   1.877
 3669W        W64980   0.413  22.078   2.804
 3670W        W64981   6.233  38.888   2.395
 3671W        W64982  11.208  36.087   4.184
 3672W        W64983   3.787  14.125   2.299
 3673W        W64984  22.163  16.288   1.424
 3674W        W64985  24.542  30.076  11.391
 3675W        W64986  13.764  43.325  13.991
 3676W        W64987   6.686  43.009  12.850
 3677W        W64988   3.285  27.568  14.405
 3678W        W64989  24.116  18.290  12.851
 3679W        W64990  34.896  11.311  14.282
 3680W        W64991   1.355  36.911  13.868
 3681W        W64992  35.368   2.828  10.977
 3682W        W64993   7.252   2.907   0.912
 3683W        W64994   0.748  27.630   4.623
 3684W        W64995  17.637  43.323   0.281
 3685W        W64996  29.977  19.615   0.288
 3686W        W64997  37.888  19.279  13.861
 3687W        W64998   6.845  25.660   4.650
 3688W        W64999  29.146   0.976   1.839
 3689W        W65000   8.391  34.926  13.034
 3690W        W65001  17.185  20.593  12.983
 3691W        W65002  36.918  34.944   2.735
 3692W        W65003  21.642  14.620   1.754
 3693W        W65004  18.257  40.856   3.250
 3694W        W65005  26.128   5.294   2.823
 3695W        W65006  10.335  41.993  12.990
 3696W        W65007   0.440  17.701  13.982
 3697W        W65008  16.763   1.249   3.350
 3698W        W65009  21.027  36.986   4.189
 3699W        W65010   3.857  36.450  10.463
 3700W        W65011  31.948  28.667  11.024
 3701W        W65012   6.900  23.598  13.917
 3702W        W65013   1.307  13.144   1.710
 3703W        W65014  37.534  13.249   1.397
 3704W        W65015   9.710  27.468  11.479
 3705W        W65016  15.195  23.985  13.920
 3706W        W65017   5.220  35.381   4.715
 3707W        W65018  29.157  31.548   3.311
 3708W        W65019   6.756  13.842   4.829
 3709W        W65020  29.669  28.998   1.752
 3710W        W65021  38.914  35.594   0.867
 3711W        W65022  40.383  40.366  13.896
 3712W        W65023   9.318  34.075   1.812
 3713W        W65024   2.801  38.395  13.852
 3714W        W65025  26.651  14.692   4.127
 3715W        W65026   8.822   7.711  13.842
 3716W        W65027  35.044  37.059  11.956
 3717W        W65028  38.977  29.013   3.867
 3718W        W65029  13.746  27.995   2.289
 3719W        W65030   1.833   1.266  14.929
 3720W        W65031   1.871  38.832  11.413
 3721W        W65032  28.657  18.559   1.919
 3722W        W65033   3.330  32.477  12.487
 3723W        W65034  13.600   2.391   0.888
 3724W        W65035  25.655  22.734   2.405
 3725W        W65036  32.487  35.996  13.433
 3726W        W65037   4.282  16.172   2.221
 3727W        W65038  20.548  16.167   4.678
 3728W        W65039  16.609   5.784  12.956
 3729W        W65040  27.031  11.130  10.602
 3730W        W65041  11.291  33.529   1.389
 3731W        W65042  20.034   9.362   3.781
 3732W        W65043  18.547  23.130  14.833
 3733W        W65044  15.137   3.920   9.964
 3734W        W65045  17.236  32.630  13.944
 3735W        W65046   5.332  43.322  13.903
 3736W        W65047  19.678  30.075  11.954
 3737W        W65048  32.078  24.165   4.772
 3738W        W65049  25.542  25.206  12.966
 3739W        W65050  43.318  15.652  13.426
 3740W        W65051  12.710   8.884   4.311
 3741W        W65052  14.218  19.122  12.474
 3742W        W65053  17.767  32.904   2.670
 3743W        W65054  14.692   7.835   4.694
 3744W        W65055  30.443  44.852  11.030
 3745W        W65056  42.014  21.229   4.149
 3746W        W65057  43.473  27.065  10.595
 3747W        W65058   4.816   0.921  11.089
 3748W        W65059  10.341   2.359  11.579
 3749W        W65060   7.716  26.109  11.498
 3750W        W65061  20.705   9.740  10.531
 3751W        W65062  15.768  37.963   3.692
 3752W        W65063  34.481  20.091  10.585
 3753W        W65064  18.136  27.986   1.226
 3754W        W65065  27.586  34.020  11.000
 3755W        W65066  42.399  26.128   3.250
 3756W        W65067   6.729  41.002   1.753
 3757W        W65068  12.177  37.472   3.384
 3758W        W65069  43.426  43.279   3.716
 3759W        W65070  13.109  15.139  13.511
 3760W        W65071  26.001  38.995   1.772
 3761W        W65072  29.048  38.540   0.293
 3762W        W65073  20.523  24.016   0.900
 3763W        W65074  11.685   5.345   1.218
 3764W        W65075   4.333  32.019  12.450
 3765W        W65076   5.368   0.416  14.758
 3766W        W65077   3.397  19.698  11.545
 3767W        W65078  32.937  30.637   2.754
 3768W        W65079   7.406  15.662  11.941
 3769W        W65080  21.131  31.593   0.826
 3770W        W65081  24.981   3.796  11.041
 3771W        W65082  42.362  15.703   1.215
 3772W        W65083  39.365  35.431   1.819
 3773W        W65084  12.186  32.885  13.835
 3774W        W65085  11.695  18.711   2.269
 3775W        W65086   3.295  30.948  12.398
 3776W        W65087  42.883  17.190  13.022
 3777W        W65088   9.163  14.679   2.852
 3778W        W65089   4.441   6.229  11.488
 3779W        W65090  23.212   2.381  10.460
 3780W        W65091   3.379  39.491   0.279
 3781W        W65092   5.799  35.068   2.890
 3782W        W65093   8.186  44.765  13.314
 3783W        W65094  23.512   6.331   0.419
 3784W        W65095  40.999  10.738  11.535
 3785W        W65096  16.142   2.856   2.184
 3786W        W65097  18.281  18.146   9.558
 3787W        W65098  10.192  21.681  12.887
 3788W        W65099   5.366  11.630   0.387
 3789W        W65100   9.676  28.134   2.835
 3790W        W65101  13.225  26.567  12.066
 3791W        W65102  11.140  37.989   4.718
 3792W        W65103  22.739  33.987   4.329
 3793W        W65104  12.711  17.177   4.352
 3794W        W65105  23.660  43.428  13.314
 3795W        W65106  37.525  36.090  11.128
 3796W        W65107  19.224  26.021  14.275
 3797W        W65108  20.157  11.198  11.375
 3798W        W65109   7.250  21.062  10.443
 3799W        W65110  13.834  32.488  12.379
 3800W        W65111  42.409  11.763  13.537
 3801W        W65112  33.381   4.705   0.262
 3802W        W65113  13.214  26.969  11.968
 3803W        W65114  36.536  31.122  11.906
 3804W        W65115  23.092   2.943   1.835
 3805W        W65116   8.779  42.419   4.229
 3806W        W65117   5.760  22.225  11.089
 3807W        W65118   2.304   9.879  12.075
 3808W        W65119   0.826  21.176   4.315
 3809W        W65120  24.636  11.370   4.598
 3810W        W65121  29.076  13.239   3.324
 3811W        W65122  40.916   1.299   2.831
 3812W        W65123  17.660  25.600   1.339
 3813W        W65124  40.385   0.473  12.566
 3814W        W65125   8.219  35.014   3.171
 3815W        W65126  23.174  34.378   3.190
 3816W        W65127   3.427  28.988  12.388
 3817W        W65128  36.467  17.274   5.194
 3818W        W65129  32.973  16.800   0.898
 3819W        W65130  43.400  13.653  11.935
 3820W        W65131   8.865  23.156   1.314
 3821W        W65132  27.028   8.256  10.913
 3822W        W65133  34.475  36.899   0.469
 3823W        W65134  23.048  19.707  12.930
 3824W        W65135  21.129  39.019  11.444
 3825W        W65136  17.627   1.900  12.376
 3826W        W65137  12.818  44.871  10.955
 3827W        W65138   2.349  17.162  12.485
 3828W        W65139  43.350  29.986  13.021
 3829W        W65140   1.774  28.032   1.879
 3830W        W65141  25.060  40.470   2.398
 3831W        W65142  27.667  26.999  14.819
 3832W        W65143  32.030  21.040  12.380
 3833W        W65144  34.914  13.164   0.844
 3834W        W65145   0.781  14.824   4.156
 3835W        W65146  24.685  31.057  11.445
 3836W        W65147  14.619   6.217   4.712
 3837W        W65148   2.807  28.501  12.459
 3838W        W65149  20.224  28.634  12.865
 3839W        W65150  25.490   8.220   2.325
 3840W        W65151  23.125   1.790   1.380
 3841W        W65152  31.569  23.736   3.289
 3842W        W65153   8.879  24.649   0.473
 3843W        W65154  22.073  27.018   3.379
 3844W        W65155  44.317  14.713   1.916
 3845W        W65156  38.885  14.155   2.835
 3846W        W65157  35.971  36.061   3.229
 3847W        W65158  18.228  23.539  14.855
 3848W        W65159   2.935  16.280  14.304
 3849W        W65160  10.173   0.354  13.038
 3850W        W65161  17.786  41.321   0.399
 3851W        W65162  44.976  41.364   4.236
 3852W        W65163  14.722  31.996  12.863
 3853W        W65164  30.546  28.964   2.406
 3854W        W65165  41.869  33.571   0.940
 3855W        W65166   4.339  40.409  11.602
 3856W        W65167  39.954  19.283  11.044
 3857W        W65168  19.269  33.426  13.315
 3858W        W65169  42.418  11.151   0.319
 3859W        W65170   6.777  22.070   1.261
 3860W        W65171   8.375  41.817   4.246
 3861W        W65172   0.287  24.204  13.890
 3862W        W65173   4.241   5.266  12.898
 3863W        W65174  27.077  30.600  13.824
 3864W        W65175  40.868  31.432   0.793
 3865W        W65176   2.308   1.438   0.278
 3866W        W65177   3.955  13.836  11.098
 3867W        W65178  43.491  12.120   4.781
 3868W        W65179  23.564  24.016  12.994
 3869W        W65180   8.402  10.185  11.042
 3870W        W65181  16.766  38.495  13.337
 3871W        W65182   0.887  14.694  14.363
 3872W        W65183   4.268  28.528  13.804
 3873W        W65184  10.287  19.735   0.951
 3874W        W65185  43.498  27.180  14.018
 3875W        W65186  23.499  38.956   0.478
 3876W        W65187   1.926  40.940  13.406
 3877W        W65188  36.526  11.250  11.492
 3878W        W65189  44.874  21.634   3.710
 3879W        W65190  43.418  21.090   3.157
 3880W        W65191  10.272   6.726   1.435
 3881W        W65192  35.023  15.724   9.948
 3882W        W65193  39.412  40.355  14.499
 3883W        W65194  38.934  34.614  11.100
 3884W        W65195  17.207  32.987  10.640
 3885W        W65196   5.759  40.329   2.181
 3886W        W65197   3.773  32.486   3.868
 3887W        W65198  39.838  13.120  11.900
 3888W        W65199  15.143  20.185   1.764
 3889W        W65200  17.087   3.382   5.152
 3890W        W65201  17.150  11.747  11.004
 3891W        W65202   7.783   3.315   0.903
 3892W        W65203  36.941   0.833  12.011
 3893W        W65204  24.994  25.575   2.755
 3894W        W65205   9.377  20.251   2.761
 3895W        W65206   4.325  14.160  12.963
 3896W        W65207  41.494  22.602  11.524
 3897W        W65208  13.680  42.973   1.231
 3898W        W65209  19.708   4.345  13.879
 3899W        W65210  19.644  41.898  13.511
 3900W        W65211  11.284  20.756   4.733
 3901W        W65212  22.679   9.650   3.782
 3902W        W65213   3.373  21.714  11.874
 3903W        W65214  35.899  27.645   0.412
 3904W        W65215  34.866   3.363  10.946
 3905W        W65216  11.706  39.490  12.442
 3906W        W65217   1.745   6.807  13.547
 3907W        W65218  33.409  26.049  11.438
 3908W        W65219  24.511   1.451  11.005
 3909W        W65220  37.865  25.602   1.857
 3910W        W65221  11.228   7.858   4.620
 3911W        W65222  21.197  44.810   3.640
 3912W        W65223   2.302  33.532  12.042
 3913W        W65224  15.677  33.923  10.546
 3914W        W65225  31.404   2.334   0.876
 3915W        W65226   4.260   5.372  12.095
 3916W        W65227   3.780  25.043  10.937
 3917W        W65228  33.099  34.913  13.975
 3918W        W65229  35.054  31.958   4.114
 3919W        W65230  21.153  26.964   3.662
 3920W        W65231  18.609  40.841   5.283
 3921W        W65232   4.937  37.084   1.275
 3922W        W65233  10.273  33.965  12.893
 3923W        W65234   7.806  39.978  12.949
 3924W        W65235   5.289  22.609  10.418
 3925W        W65236  25.652  33.436  14.311
 3926W        W65237  37.028  12.612   2.292
 3927W        W65238   6.278   3.832   2.387
 3928W        W65239  24.111  35.068   0.243
 3929W        W65240  11.134  16.087  12.834
 3930W        W65241  41.940   4.732  10.453
 3931W        W65242  21.698   6.419  14.310
 3932W        W65243  13.825  36.432   0.326
 3933W        W65244   2.423  13.183   3.209
 3934W        W65245  19.070  40.917  14.296
 3935W        W65246   9.231   0.867   2.749
 3936W        W65247  18.653  24.592   4.809
 3937W        W65248  27.529  29.977  14.956
 3938W        W65249  12.313  36.441  14.021
 3939W        W65250  26.673   1.792  13.828
 3940W        W65251   1.833  23.502  13.343
 3941W        W65252  14.697   8.204   3.347
 3942W        W65253  35.551  41.856   0.758
 3943W        W65254   3.271  21.144  11.375
 3944W        W65255  44.478  25.130  12.950
 3945W        W65256  12.267  24.187   2.281
 3946W        W65257   2.761  22.714  12.836
 3947W        W65258  16.787  25.007   3.228
 3948W        W65259  39.316  39.879   3.239
 3949W        W65260  11.325  43.425   4.761
 3950W        W65261  42.460  42.354  12.932
 3951W        W65262  19.655   6.211  13.518
 3952W        W65263  14.619  10.381   1.759
 3953W        W65264  10.788  42.394  13.530
 3954W        W65265  31.920  42.448  12.370
 3955W        W65266   7.886   0.747   1.409
 3956W        W65267   6.798  40.862   2.239
 3957W        W65268  41.880  43.765   0.360
 3958W        W65269  36.433  22.609  13.007
 3959W        W65270   9.690  27.669  14.819
 3960W        W65271   6.248   0.287   0.789
 3961W        W65272  14.171   0.309   2.788
 3962W        W65273  42.309  38.568   3.853
 3963W        W65274  11.633  21.182  12.375
 3964W        W65275  12.843   2.463  10.973
 3965W        W65276  44.891   7.235   1.408
 3966W        W65277   9.789   7.765   0.758
 3967W        W65278   3.449  44.927  12.442
 3968W        W65279  37.883  12.268  13.527
 3969W        W65280  10.789  22.181   2.309
 3970W        W65281  18.620  25.510   4.166
 3971W        W65282  44.381  16.631   3.797
 3972W        W65283  15.175  37.083   2.752
 3973W        W65284  26.193  14.636  11.418
 3974W        W65285  34.451  39.943  10.944
 3975W        W65286  13.228  31.481  13.922
 3976W        W65287  11.285   5.841  13.364
 3977W        W65288  31.404  30.104   2.829
 3978W        W65289   6.896  29.143   3.632
 3979W        W65290  24.061  29.987  13.447
 3980W        W65291  38.051  16.659  12.891
 3981W        W65292  20.658   0.274   2.675
 3982W        W65293  12.347  20.069   3.182
 3983W        W65294  22.691  40.815  13.388
 3984W        W65295  30.914  37.506  12.491
 3985W        W65296  20.524  26.666   3.296
 3986W        W65297  10.163  14.706  11.061
 3987W        W65298  20.075  32.116  11.112
 3988W        W65299  10.744  37.420   0.308
 3989W        W65300  36.369  30.116  14.812
 3990W        W65301  14.747  25.544   0.917
 3991W        W65302  17.214  23.156   3.246
 3992W        W65303  15.706  26.041   0.408
 3993W        W65304  25.652  17.205  11.580
 3994W        W65305  44.840  44.835   1.266
 3995W        W65306  15.173  18.665   0.802
 3996W        W65307   9.665  44.757   3.335
 3997W        W65308  12.633   3.896  13.024
 3998W        W65309  18.782  15.635  14.364
 3999W        W65310  22.707  19.262  12.925
 4000W        W65311  18.678  41.522   3.826
 4001W        W65312  22.203  30.086  14.030
 4002W        W65313  21.138   0.455   4.184
 4003W        W65314  10.752   5.689  10.429
 4004W        W65315   6.802  42.778  14.369
 4005W        W65316  44.352  23.696   2.283
 4006W        W65317   9.193  30.448  14.892
 4007W        W65318  31.907  28.659   2.726
 4008W        W65319  29.957   6.919   1.788
 4009W        W65320   4.928  11.313   0.891
 4010W        W65321  27.664  30.451   3.842
 4011W        W65322  13.808  22.052   3.800
 4012W        W65323  30.421  15.740   0.268
 4013W        W65324  38.554  29.947   4.170
 4014W        W65325  14.760  15.137   4.352
 4015W        W65326  29.599  42.287   1.281
 4016W        W65327   3.290  42.303  11.098
 4017W        W65328  32.930  13.108   4.707
 4018W        W65329  30.121  16.608   4.803
 4019W        W65330  14.662  39.443  13.505
 4020W        W65331  29.571  38.957  11.044
 4021W        W65332  15.091  13.840   3.183
 4022W        W65333  16.256   8.819   4.606
 4023W        W65334  17.095  40.913   1.429
 4024W        W65335  13.796   5.884  12.577
 4025W        W65336  30.092  41.793   1.221
 4026W        W65337  29.470   4.204  10.563
 4027W        W65338  17.163  37.550   1.735
 4028W        W65339  18.103  40.052  12.078
 4029W        W65340  39.403  29.035  12.389
 4030W        W65341  29.969   6.384  14.380
 4031W        W65342  33.567   5.907   0.806
 4032W        W65343  15.664   2.934  13.314
 4033W        W65344  11.748  12.841  12.855
 4034W        W65345  25.110  18.094   1.789
 4035W        W65346   3.370  11.811  12.064
 4036W        W65347  41.417  11.671  11.049
 4037W        W65348  38.900  13.776   3.169
 4038W        W65349  29.134   4.911  11.083
 4039W        W65350  24.093  26.999  12.352
 4040W        W65351  23.660  42.439   0.925
 4041W        W65352  16.194  33.976  14.383
 4042W        W65353  43.988  23.044  12.861
 4043W        W65354   6.233   0.963  13.795
 4044W        W65355  26.666  29.088  13.932
 4045W        W65356   0.364  41.494  13.926
 4046W        W65357  13.231   4.780  14.963
 4047W        W65358  20.219   2.262   2.243
 4048W        W65359  15.153  41.330  12.840
 4049W        W65360  26.489  10.822  14.834
 4050W        W65361  15.189  33.557   4.157
 4051W        W65362  19.666   7.881  11.033
 4052W        W65363  12.174  32.456  14.437
 4053W        W65364  36.009   3.432  13.038
 4054W        W65365  22.104  40.536  12.508
 4055W        W65366  38.408  11.136   3.824
 4056W        W65367  28.516  16.599   1.699
 4057W        W65368  11.349  38.366   3.655
 4058W        W65369  18.630  18.274   4.661
 4059W        W65370  41.889  13.340   2.845
 4060W        W65371  15.099  20.165   2.668
 4061W        W65372  21.189  18.079   2.377
 4062W        W65373  22.583  10.232  14.851
 4063W        W65374  14.260  12.651  13.374
 4064W        W65375   2.349  25.108   1.285
 4065W        W65376   5.359  11.339  13.934
 4066W        W65377   2.950   6.772  12.094
 4067W        W65378  13.619   7.329  10.615
 4068W        W65379   3.255  19.087  11.399
 4069W        W65380  31.621  43.866   1.751
 4070W        W65381  43.382  40.855  11.888
 4071W        W65382  37.862  11.679   4.263
 4072W        W65383  20.249  44.857  10.933
 4073W        W65384  26.070  42.467  13.325
 4074W        W65385  25.585  39.496   2.298
 4075W        W65386  34.613  29.971  11.522
 4076W        W65387  33.569  22.103  12.045
 4077W        W65388   5.234  13.309  11.539
 4078W        W65389  40.888  11.174  14.840
 4079W        W65390  17.175   7.196   1.805
 4080W        W65391  31.523  17.263   4.150
 4081W        W65392   4.351  13.152  12.496
 4082W        W65393  34.598   8.301  11.037
 4083W        W65394   1.941  24.062   3.306
 4084W        W65395  21.539  14.612  14.434
 4085W        W65396   1.774   5.288  12.511
 4086W        W65397  36.462   1.467   3.862
 4087W        W65398   1.768  19.679   0.462
 4088W        W65399  44.502  34.922   0.401
 4089W        W65400  34.004  25.558  12.969
 4090W        W65401  23.136  39.516   3.870
 4091W        W65402  33.562  24.573  14.942
 4092W        W65403  40.379   0.250   1.324
 4093W        W65404  43.376   2.840  10.628
 4094W        W65405  36.973  44.456   3.846
 4095W        W65406  28.060  29.925   0.382
 4096W        W65407  23.566  20.163   3.828
 4097W        W65408   4.874  32.614   4.220
 4098W        W65409  13.602  41.330   2.193
 4099W        W65410  39.989  39.392  13.985
 4100W        W65411   9.298  34.594  14.766
 4101W        W65412  27.978  42.381  13.965
 4102W        W65413  34.955  11.653  10.892
 4103W        W65414   6.351  22.205  13.337
 4104W        W65415  22.661   3.916   3.189
 4105W        W65416  23.616  12.844  13.810
 4106W        W65417  44.960  23.635   3.203
 4107W        W65418  34.522   6.330   3.213
 4108W        W65419   9.273   6.384   2.875
 4109W        W65420  25.578  25.520   4.600
 4110W        W65421   3.262  12.821  10.410
 4111W        W65422  30.436  29.029   4.186
 4112W        W65423  13.148  11.345  14.844
 4113W        W65424  41.334  14.835   2.374
 4114W        W65425  30.457   2.813  12.531
 4115W        W65426  27.057  41.468  11.403
 4116W        W65427  41.826   0.916   9.970
 4117W        W65428  42.311   2.875   0.372
 4118W        W65429  27.580  44.990   4.131
 4119W        W65430  44.364  25.978   4.731
 4120W        W65431   7.736   1.792   3.368
 4121W        W65432  35.093  43.499  13.424
 4122W        W65433   2.336  11.845  12.978
 4123W        W65434  21.692   3.362  13.901
 4124W        W65435  23.101  31.111  13.319
 4125W        W65436  16.764   7.309  11.949
 4126W        W65437  16.102  10.255   3.241
 4127W        W65438  22.519   2.792   1.717
 4128W        W65439  30.152  12.327   1.805
 4129W        W65440   8.248  18.713  11.950
 4130W        W65441  12.320  26.167  14.806
 4131W        W65442  28.012  19.713  13.836
 4132W        W65443  21.046  23.989   3.792
 4133W        W65444   4.795  39.877  13.926
 4134W        W65445  20.634   7.409  13.388
 4135W        W65446  16.301  30.462   2.816
 4136W        W65447  24.643  40.893   2.299
 4137W        W65448  24.128  16.264   9.984
 4138W        W65449   7.202  36.360   0.764
 4139W        W65450   5.221   9.833  10.641
 4140W        W65451  14.192  20.614  12.964
 4141W        W65452  12.672  22.595   3.204
 4142W        W65453  15.175  24.654   2.221
 4143W        W65454  23.057  43.283   1.394
 4144W        W65455  18.056   7.402  11.947
 4145W        W65456  21.585  39.025   3.372
 4146W        W65457  31.540   4.922   0.825
 4147W        W65458   8.259   6.709  12.989
 4148W        W65459  21.238  41.901  13.354
 4149W        W65460  28.164  23.520  12.885
 4150W        W65461   4.228  40.502   0.336
 4151W        W65462  35.450  14.157   2.859
 4152W        W65463  32.905  25.099   4.633
 4153W        W65464  44.338  40.465  14.980
 4154W        W65465   3.830   1.858   1.807
 4155W        W65466   6.200  36.000  14.324
 4156W        W65467   4.816   4.222  12.078
 4157W        W65468  43.451  31.050   1.393
 4158W        W65469  38.468  27.128   3.312
 4159W        W65470   0.921  21.068   4.704
 4160W        W65471   1.289  38.067  12.951
 4161W        W65472  15.289   6.858   3.253
 4162W        W65473   3.909  26.165   1.929
 4163W        W65474   1.430  29.604  11.423
 4164W        W65475   3.851   9.234   0.768
 4165W        W65476  34.502  11.150   3.753
 4166W        W65477  36.534  24.203  11.416
 4167W        W65478  42.833  21.187  13.954
 4168W        W65479  38.896  17.678   3.859
 4169W        W65480   8.349  30.135   2.829
 4170W        W65481  33.465  13.638  14.277
 4171W        W65482  22.077   5.324  14.435
 4172W        W65483  44.910  35.454  13.912
 4173W        W65484   1.851  13.758  11.041
 4174W        W65485   4.241  28.665   2.197
 4175W        W65486   1.241  26.961   4.289
 4176W        W65487   0.386  10.739  13.492
 4177W        W65488  36.948  14.311   0.909
 4178W        W65489   7.709   3.941   2.738
 4179W        W65490  28.182   7.324   1.745
 4180W        W65491  21.081  30.555   3.723
 4181W        W65492   8.322  17.137   2.900
 4182W        W65493  30.926   3.859  14.490
 4183W        W65494   4.430  15.804   4.598
 4184W        W65495  41.325  17.784   3.356
 4185W        W65496   8.732  40.515   0.935
 4186W        W65497   4.273  39.988   1.287
 4187W        W65498  11.167  40.361   0.746
 4188W        W65499  40.344  21.633   2.248
 4189W        W65500  15.799   1.961  14.944
 4190W        W65501  10.240  14.809   1.372
 4191W        W65502  15.694  35.524  11.103
 4192W        W65503  44.262  18.546   2.226
 4193W        W65504  13.245  36.513  12.927
 4194W        W65505  15.132  41.028  10.916
 4195W        W65506   0.438  35.476  13.814
 4196W        W65507   2.730   4.918  12.971
 4197W        W65508  35.384  42.309  10.575
 4198W        W65509  11.242   6.857  14.923
 4199W        W65510  27.187   8.223   1.901
 4200W        W65511  11.280  12.633   2.244
 4201W        W65512  26.639  29.113   3.324
 4202W        W65513   7.901  27.040  13.874
 4203W        W65514  15.790  13.230  13.383
 4204W        W65515  10.838  12.196   3.650
 4205W        W65516  30.500  43.769   2.253
 4206W        W65517   0.934  39.400  13.497
 4207W        W65518  41.525  32.023  11.900
 4208W        W65519  20.715   2.722  11.071
 4209W        W65520  25.144  35.480  10.642
 4210W        W65521   7.775  15.134  11.101
 4211W        W65522  39.482  31.597   3.213
 4212W        W65523  16.154  36.939  12.475
 4213W        W65524  38.020  37.023  10.614
 4214W        W65525  44.900  22.150  12.548
 4215W        W65526  19.140   0.882   0.413
 4216W        W65527   6.419   6.885   1.870
 4217W        W65528  20.243  41.468   1.732
 4218W        W65529  28.503  27.557   4.674
 4219W        W65530  34.950   7.280  12.018
 4220W        W65531   8.173  17.699  11.930
 4221W        W65532  44.290  36.523  12.417
 4222W        W65533  32.568  25.562   2.703
 4223W        W65534  12.821  41.931  13.853
 4224W        W65535  34.539  36.029   1.383
 4225W        W65536   5.722  36.851  12.003
 4226W        W65537  19.591  18.247   5.139
 4227W        W65538  44.495  38.047  10.568
 4228W        W65539   2.860  30.022   2.890
 4229W        W65540  17.141  14.307  11.488
 4230W        W65541  26.085  22.642   4.113
 4231W        W65542  18.270   9.678   4.194
 4232W        W65543  35.583  35.397  11.421
 4233W        W65544  23.718  32.574  11.033
 4234W        W65545  17.163  37.471   4.601
 4235W        W65546  35.899  27.545  13.034
 4236W        W65547   1.917  12.661  13.411
 4237W        W65548  12.298  29.621  13.497
 4238W        W65549  29.023  35.568  12.981
 4239W        W65550  27.192  41.811  10.949
 4240W        W65551  21.126  35.865   9.932
 4241W        W65552   1.316  40.357  11.122
 4242W        W65553  19.228  11.203  11.483
 4243W        W65554  15.723  19.264   3.644
 4244W        W65555  39.935  12.752  11.938
 4245W        W65556   9.305   7.194   0.365
 4246W        W65557  33.583  32.072  10.512
 4247W        W65558  18.662   7.196   3.296
 4248W        W65559  24.523  23.012   0.444
 4249W        W65560   8.799  18.705  12.495
 4250W        W65561  33.934  40.948  10.122
 4251W        W65562   8.883  30.923   1.701
 4252W        W65563  12.706  20.194   3.254
 4253W        W65564  32.559  28.131  10.582
 4254W        W65565  15.281  40.927  14.939
 4255W        W65566  18.702  21.578   0.918
 4256W        W65567  43.769  15.806  13.502
 4257W        W65568  30.616  32.599   2.352
 4258W        W65569   8.371  16.797   3.186
 4259W        W65570  11.797   2.250  12.994
 4260W        W65571  24.119   8.325  11.864
 4261W        W65572   5.827   5.276  11.573
 4262W        W65573  15.247  20.085   0.785
 4263W        W65574   0.348  23.575  12.998
 4264W        W65575  23.225  14.326   1.906
 4265W        W65576   5.260  25.524  13.541
 4266W        W65577  26.525  24.201   5.285
 4267W        W65578  12.651  21.060  11.417
 4268W        W65579   1.271  42.897  13.953
 4269W        W65580  10.145  38.834  11.894
 4270W        W65581  42.919  29.126  13.330
 4271W        W65582  16.174  20.574  13.368
 4272W        W65583  29.038  35.013  14.356
 4273W        W65584   3.236  38.951   4.751
 4274W        W65585  24.545  27.945   3.851
 4275W        W65586  20.617  11.760  13.345
 4276W        W65587   5.798  21.129   0.387
 4277W        W65588  11.261  44.791   1.776
 4278W        W65589  10.815  23.655  14.474
 4279W        W65590  37.833  32.452  12.875
 4280W        W65591  25.659  35.367  14.901
 4281W        W65592   7.760  42.449   0.284
 4282W        W65593  19.752  38.560   2.364
 4283W        W65594  15.823  39.554  10.455
 4284W        W65595  35.036  26.690  10.476
 4285W        W65596   0.256  13.664  13.877
 4286W        W65597  35.092  37.065  12.440
 4287W        W65598  33.413  41.974  11.038
 4288W        W65599   1.816  26.604  11.595
 4289W        W65600  14.195  19.534  10.899
 4290W        W65601  26.199  11.190   4.211
 4291W        W65602  40.394  43.478  11.002
 4292W        W65603  43.818  33.979   3.228
 4293W        W65604  14.687  24.536   1.345
 4294W        W65605  24.660  20.208  12.499
 4295W        W65606   2.951  16.722  14.969
 4296W        W65607  36.910  11.371   3.832
 4297W        W65608  22.704  26.041   2.216
 4298W        W65609  43.294  36.858  12.418
 4299W        W65610  43.768  40.973   1.771
 4300W        W65611  33.587  31.615   3.345
 4301W        W65612  22.655  19.061   2.902
 4302W        W65613  29.476  16.283   0.308
 4303W        W65614   7.803  13.730   2.891
 4304W        W65615  19.186  28.956  12.899
 4305W        W65616  43.842  15.590  12.938
 4306W        W65617  44.470  11.338  14.465
 4307W        W65618   8.753   1.968  14.389
 4308W        W65619  35.417  21.690   3.343
 4309W        W65620   9.368  18.676  11.560
 4310W        W65621  11.305  15.110  12.885
 4311W        W65622  43.991  37.347   0.441
 4312W        W65623   2.909   1.279   4.646
 4313W        W65624  12.821  26.037  14.486
 4314W        W65625   3.871  31.906  14.314
 4315W        W65626  36.536  36.022   1.836
 4316W        W65627  29.926   1.854  14.973
 4317W        W65628  10.221   4.715   0.894
 4318W        W65629  39.513  38.507   1.319
 4319W        W65630  37.919   1.870  14.493
 4320W        W65631   5.916  12.294  12.513
 4321W        W65632  36.498  38.372  12.375
 4322W        W65633  19.770  21.632   3.697
 4323W        W65634  23.721  26.099   0.307
 4324W        W65635  20.047  42.413  11.491
 4325W        W65636  25.485  38.861   0.305
 4326W        W65637  15.089  22.541  12.541
 4327W        W65638  35.582  15.084   4.187
 4328W        W65639  43.800  24.681  10.912
 4329W        W65640  21.256  25.151   4.668
 4330W        W65641   3.738  44.352   2.259
 4331W        W65642  20.086   7.834  13.912
 4332W        W65643  36.900  16.717  13.537
 4333W        W65644  42.482  38.388   1.704
 4334W        W65645  34.042  38.327   5.206
 4335W        W65646   0.780  27.038  13.465
 4336W        W65647   0.449  32.513   4.159
 4337W        W65648  25.503  16.264   4.133
 4338W        W65649   2.916  27.473   3.270
 4339W        W65650   2.761  36.449  14.784
 4340W        W65651  28.513  31.065  13.495
 4341W        W65652  42.425  32.934   2.822
 4342W        W65653   2.264  27.973   4.732
 4343W        W65654  19.555  44.918   0.959
 4344W        W65655  30.439  40.858  11.922
 4345W        W65656  43.352  30.967  11.496
 4346W        W65657  12.844  43.908   1.745
 4347W        W65658   6.243  34.379   4.778
 4348W        W65659  23.502  41.905   2.789
 4349W        W65660  44.431  44.378  12.071
 4350W        W65661  37.043  41.854   0.399
 4351W        W65662   3.830  10.325  14.851
 4352W        W65663  32.500  27.183  14.767
 4353W        W65664  28.586  21.566  12.025
 4354W        W65665   0.811  26.525   1.255
 4355W        W65666  18.723  35.985   0.294
 4356W        W65667  30.633  33.018  11.905
 4357W        W65668   5.227  11.811  10.533
 4358W        W65669  13.196  30.432  13.815
 4359W        W65670  35.499  33.058   0.745
 4360W        W65671  33.604  18.269  14.804
 4361W        W65672  38.328  16.811   4.831
 4362W        W65673  16.650  39.858   1.757
 4363W        W65674  10.323  25.962  14.995
 4364W        W65675   9.217  32.453   0.848
 4365W        W65676  33.600  27.054   4.654
 4366W        W65677   0.796   0.889  11.041
 4367W        W65678  37.432  34.484  11.928
 4368W        W65679  16.799  22.025   2.228
 4369W        W65680   9.341  23.546  13.863
 4370W        W65681   8.872  21.523  12.957
 4371W        W65682  10.154  26.463  10.127
 4372W        W65683  42.003  43.870  11.523
 4373W        W65684  37.948  18.182   3.365
 4374W        W65685  40.807   2.323   4.690
 4375W        W65686  19.761  13.790  10.939
 4376W        W65687  42.297  10.785   2.727
 4377W        W65688  12.288   9.246  12.885
 4378W        W65689  33.877  44.312   3.829
 4379W        W65690   2.380  34.995   4.830
 4380W        W65691   9.868  21.524   2.237
 4381W        W65692  13.781  41.483   3.248
 4382W        W65693   4.302  27.996  14.278
 4383W        W65694  27.471  14.756  13.941
 4384W        W65695  28.055  31.592   4.274
 4385W        W65696   0.885   9.188  10.983
 4386W        W65697  21.545  18.210  12.078
 4387W        W65698  41.977  19.741  12.479
 4388W        W65699  27.950  35.367  11.537
 4389W        W65700  33.427  43.855  13.407
 4390W        W65701  28.053  37.561  11.964
 4391W        W65702  21.047   8.782   3.793
 4392W        W65703  11.169  11.360  12.535
 4393W        W65704   2.869   9.347   1.237
 4394W        W65705  15.671  23.101   3.639
 4395W        W65706  36.902  19.595  14.357
 4396W        W65707  21.676  21.550  14.381
 4397W        W65708  22.515  21.669  11.041
 4398W        W65709  39.372  32.119   3.255
 4399W        W65710  35.036   3.930   0.257
 4400W        W65711   1.286  30.964   2.800
 4401W        W65712  44.417  17.263   0.731
 4402W        W65713  32.443  14.229  12.342
 4403W        W65714  40.423  31.566  11.436
 4404W        W65715   3.853  12.306   1.271
 4405W        W65716  10.281  42.992  12.429
 4406W        W65717  10.285  42.502   1.714
 4407W        W65718  21.626   7.405   4.276
 4408W        W65719   9.814  39.024  12.921
 4409W        W65720  20.062   7.788   3.728
 4410W        W65721  26.647  14.700  11.526
 4411W        W65722  27.987  23.662   9.976
 4412W        W65723  22.606  36.063   1.714
 4413W        W65724  43.447  25.589  14.945
 4414W        W65725  10.299  21.067  14.012
 4415W        W65726  14.717  11.304   2.179
 4416W        W65727   4.416  23.200  11.884
 4417W        W65728   4.934   4.748  14.908
 4418W        W65729   7.183  39.376   2.883
 4419W        W65730   8.879  15.116   4.620
 4420W        W65731  17.758  40.327  10.611
 4421W        W65732  42.347  23.241   1.397
 4422W        W65733   3.259  21.055   1.420
 4423W        W65734  12.186   9.648   4.733
 4424W        W65735  11.362  12.226   3.738
 4425W        W65736  33.442  14.590  12.506
 4426W        W65737  40.826  28.532  13.373
 4427W        W65738   8.239  17.115  13.928
 4428W        W65739   2.805  40.045   2.884
 4429W        W65740   5.305   2.893  12.867
 4430W        W65741  31.926  19.235   2.236
 4431W        W65742  26.089  14.777  12.408
 4432W        W65743  29.451   7.269  11.558
 4433W        W65744  32.492   0.330   3.374
 4434W        W65745  42.305  18.718  13.912
 4435W        W65746  17.688  34.931  13.452
 4436W        W65747  10.636  42.472   1.713
 4437W        W65748  35.358  44.314  14.777
 4438W        W65749  15.249  10.787   3.811
 4439W        W65750   2.295  43.797  10.908
 4440W        W65751   0.938   1.402   1.758
 4441W        W65752  21.752   8.354  12.964
 4442W        W65753  18.717   0.297   2.793
 4443W        W65754  42.431  11.766   4.722
 4444W        W65755  26.996  44.946   2.218
 4445W        W65756  42.412  27.503   2.214
 4446W        W65757   3.448  14.182  10.149
 4447W        W65758  37.956   2.228  13.409
 4448W        W65759  20.604  18.119  11.058
 4449W        W65760  27.047   5.418   4.692
 4450W        W65761   6.741  26.046  11.373
 4451W        W65762  28.022   3.388   4.597
 4452W        W65763  28.046  36.947  13.489
 4453W        W65764   7.778  27.169   0.276
 4454W        W65765  27.519  36.531   1.260
 4455W        W65766  15.277  36.588  13.500
 4456W        W65767  40.002  37.336  12.411
 4457W        W65768   3.808  21.685   0.881
 4458W        W65769   6.346  15.213  12.509
 4459W        W65770  18.077  23.002   4.203
 4460W        W65771   9.655  11.365  12.494
 4461W        W65772  29.989  28.665  12.578
 4462W        W65773  18.159  40.381   0.794
 4463W        W65774  15.595  28.107   1.893
 4464W        W65775  17.577  14.148  13.420
 4465W        W65776  36.894   1.248  11.426
 4466W        W65777  19.170  36.581   3.245
 4467W        W65778  22.160  35.099  13.418
 4468W        W65779  27.680  20.078   2.218
 4469W        W65780  38.924  16.574   3.340
 4470W        W65781  44.466   1.256  11.118
 4471W        W65782  31.511  16.670  14.329
 4472W        W65783   1.757  39.021   2.666
 4473W        W65784  19.725  40.420   0.244
 4474W        W65785  20.122  18.146  12.472
 4475W        W65786  26.604   2.873  14.835
 4476W        W65787   3.324  43.324   4.299
 4477W        W65788  24.229  27.005  14.390
 4478W        W65789  33.625  25.488   0.387
 4479W        W65790  38.058  12.638   0.305
 4480W        W65791  22.713   1.295  12.573
 4481W        W65792   3.956   7.412   0.281
 4482W        W65793  17.301  42.446  11.515
 4483W        W65794  38.568  31.531   3.320
 4484W        W65795  19.077  33.962   3.688
 4485W        W65796  35.518   8.761  10.987
 4486W        W65797  39.336  33.511  14.024
 4487W        W65798   4.415  32.451  11.918
 4488W        W65799   2.387  15.803  13.974
 4489W        W65800  28.171  26.115   1.357
 4490W        W65801  19.058  40.008   2.290
 4491W        W65802  14.770   7.227   5.188
 4492W        W65803  29.960   2.392   0.965
 4493W        W65804   3.886  40.837   2.414
 4494W        W65805   4.320  32.909   2.395
 4495W        W65806   6.222  25.535   3.800
 4496W        W65807  35.366  10.159   4.254
 4497W        W65808  42.991  27.557  13.307
 4498W        W65809  34.953  25.555  14.422
 4499W        W65810   6.213  23.570  12.576
 4500W        W65811  19.087   6.283   1.813
 4501W        W65812  31.565   6.712  10.408
 4502W        W65813  38.326   7.702  13.439
 4503W        W65814  18.688  36.405  11.992
 4504W        W65815  23.028  34.376   2.825
 4505W        W65816  22.616  24.665  12.950
 4506W        W65817  34.045   5.776   1.421
 4507W        W65818   4.264  42.368  10.405
 4508W        W65819   5.396  15.688  10.506
 4509W        W65820  40.851  26.676   0.301
 4510W        W65821  35.442  19.221   3.215
 4511W        W65822  16.106  37.999  13.484
 4512W        W65823  24.724  25.591   0.839
 4513W        W65824  22.214  29.023   2.862
 4514W        W65825   9.240  23.217  12.455
 4515W        W65826   1.794  16.096   4.637
 4516W        W65827  40.320  32.940   2.808
 4517W        W65828  28.948  16.652  14.398
 4518W        W65829  21.098  14.600  10.941
 4519W        W65830  16.283  23.120   4.347
 4520W        W65831  23.547  24.046   4.742
 4521W        W65832  37.996   3.239  14.994
 4522W        W65833  16.756  30.126  12.444
 4523W        W65834  13.705  14.731   2.696
 4524W        W65835  35.909  37.031   1.881
 4525W        W65836  26.039  42.440  14.427
 4526W        W65837  25.977  36.415   4.628
 4527W        W65838   1.796  35.950   2.800
 4528W        W65839  39.407  33.393   2.777
 4529W        W65840  27.010  37.412  14.475
 4530W        W65841  24.025   4.824   2.850
 4531W        W65842  41.525  26.177   3.166
 4532W        W65843  11.725  42.986   5.097
 4533W        W65844   4.296  28.586  14.326
 4534W        W65845  41.940  21.064  14.310
 4535W        W65846  36.589  16.238  12.454
 4536W        W65847  13.650  34.416  12.976
 4537W        W65848  27.068  25.089   4.805
 4538W        W65849  20.158  43.872   0.730
 4539W        W65850   0.834  15.325   1.351
 4540W        W65851   0.934   3.284  14.011
 4541W        W65852  14.607  11.231   0.838
 4542W        W65853  27.999  35.065   4.271
 4543W        W65854  44.497  15.322   1.229
 4544W        W65855  11.221   3.415  14.024
 4545W        W65856   6.773   5.891  11.883
 4546W        W65857   3.803  13.220   3.191
 4547W        W65858  41.949  25.983  10.431
 4548W        W65859  42.380  42.929  10.456
 4549W        W65860  27.607  24.587  11.572
 4550W        W65861   5.430   8.239  11.071
 4551W        W65862  45.000   0.332  13.328
 4552W        W65863   7.701  26.978  14.889
 4553W        W65864  16.592  43.831   0.940
 4554W        W65865  25.570  10.194   0.300
 4555W        W65866  36.005  27.542   0.729
 4556W        W65867  26.967  25.115   0.893
 4557W        W65868  25.037  40.943  12.049
 4558W        W65869  15.609  36.519  14.797
 4559W        W65870  35.550  23.506  11.500
 4560W        W65871  11.235  43.402   1.737
 4561W        W65872  40.885  39.821  13.043
 4562W        W65873  22.050  10.776  14.322
 4563W        W65874  26.117  39.334   3.714
 4564W        W65875  16.679  35.988   3.773
 4565W        W65876  38.014  42.416  13.053
 4566W        W65877   8.678  28.024  12.549
 4567W        W65878   3.807  18.072  14.760
 4568W        W65879  35.108  42.385  13.049
 4569W        W65880  34.562   7.279   4.235
 4570W        W65881  41.972  30.647   4.116
 4571W        W65882  21.614  25.016  11.071
 4572W        W65883  34.109   6.427   4.722
 4573W        W65884   9.820  10.635  10.919
 4574W        W65885  42.907  12.319  11.964
 4575W        W65886  32.614  43.936   2.253
 4576W        W65887  28.509  33.027   0.961
 4577W        W65888  34.582  41.478   2.227
 4578W        W65889   1.240  12.649   1.361
 4579W        W65890   9.197   6.893   0.259
 4580W        W65891  20.236  17.231   0.445
 4581W        W65892  29.172   4.868   0.783
 4582W        W65893  19.231  38.838  14.008
 4583W        W65894   4.421  38.824   2.386
 4584W        W65895  26.538  34.416   2.197
 4585W        W65896  41.037  21.185  11.934
 4586W        W65897  34.376   8.406  11.484
 4587W        W65898   2.382   7.269  10.045
 4588W        W65899  19.666  37.417  12.956
 4589W        W65900  21.621  27.943   2.897
 4590W        W65901  39.433  32.058   1.280
 4591W        W65902  20.715  16.683  12.420
 4592W        W65903  16.308  40.823   1.795
 4593W        W65904  14.757  14.720  10.514
 4594W        W65905  35.012  34.596   2.200
 4595W        W65906   3.949   5.799   4.718
 4596W        W65907   2.758  17.062  12.969
 4597W        W65908  42.445  43.805   1.257
 4598W        W65909  35.467   6.286   0.475
 4599W        W65910  14.637  21.127  13.926
 4600W        W65911   4.344  34.024   1.922
 4601W        W65912  34.994  34.467  14.513
 4602W        W65913   2.873  17.200   3.648
 4603W        W65914   3.378  36.934   3.237
 4604W        W65915   6.407  41.377   4.252
 4605W        W65916  29.959   7.316  12.886
 4606W        W65917  13.192   2.258  13.343
 4607W        W65918  32.910  44.808  12.029
 4608W        W65919  36.392  42.417   3.327
 4609W        W65920  27.979  39.481   2.778
 4610W        W65921  33.964  24.701   0.771
 4611W        W65922   5.329   3.883   2.826
 4612W        W65923  29.604  41.416   2.369
 4613W        W65924  32.581   4.801  13.364
 4614W        W65925  24.594  40.491   3.632
 4615W        W65926  18.273  32.487   1.904
 4616W        W65927  24.629  11.341   2.240
 4617W        W65928  13.805   2.784  14.995
 4618W        W65929  15.596  17.232   4.768
 4619W        W65930   2.349  15.188   2.179
 4620W        W65931  11.190  10.742   3.761
 4621W        W65932   2.409  16.711  11.539
 4622W        W65933  34.075  40.991   1.737
 4623W        W65934  19.251  36.483   4.273
 4624W        W65935  28.517  15.676  15.000
 4625W        W65936   8.339  28.566   2.839
 4626W        W65937  14.337  41.959   2.331
 4627W        W65938  24.142  13.710   3.361
 4628W        W65939   7.231  38.070   3.693
 4629W        W65940  44.416  13.600  10.518
 4630W        W65941  13.171   1.968   4.675
 4631W        W65942  19.703   3.352  13.528
 4632W        W65943  26.951   9.796   4.622
 4633W        W65944   0.414  37.438   2.761
 4634W        W65945  42.392  32.886  13.388
 4635W        W65946  14.211  15.667   0.396
 4636W        W65947  12.296   8.655   0.728
 4637W        W65948  33.615  42.362  11.924
 4638W        W65949  29.997  31.133   0.324
 4639W        W65950  24.712  23.128  13.940
 4640W        W65951  33.543  35.102  10.123
 4641W        W65952  19.710  31.475   1.244
 4642W        W65953  36.938  10.321  11.129
 4643W        W65954   9.377   3.735  14.887
 4644W        W65955  36.056  23.057   3.675
 4645W        W65956  20.047  26.988   3.774
 4646W        W65957  29.587  32.529  10.483
 4647W        W65958   6.268  42.403  14.840
 4648W        W65959  17.767  32.455  11.390
 4649W        W65960   7.272   8.657  12.403
 4650W        W65961  24.012  11.166  10.936
 4651W        W65962   6.775  14.132   2.677
 4652W        W65963  27.663  37.018  13.024
 4653W        W65964  23.092  43.983   3.212
 4654W        W65965  27.647  31.513  14.416
 4655W        W65966  28.564  43.917  13.442
 4656W        W65967  20.029  25.212   4.148
 4657W        W65968  18.685  14.763   0.421
 4658W        W65969   2.886  24.555   1.866
 4659W        W65970  35.871  43.480   0.770
 4660W        W65971  16.276   5.322  13.430
 4661W        W65972  33.590   4.830  10.934
 4662W        W65973  36.469   5.810  11.946
 4663W        W65974   8.193  11.144   0.862
 4664W        W65975  11.831  43.825  12.563
 4665W        W65976   3.267  21.635  10.948
 4666W        W65977  26.168  27.668  11.057
 4667W        W65978  33.437  26.465  14.947
 4668W        W65979   8.202  40.410  13.509
 4669W        W65980   2.390  15.255  14.316
 4670W        W65981  41.788  40.995   3.756
 4671W        W65982  41.339  22.244  12.844
 4672W        W65983  42.828  38.841  11.435
 4673W        W65984  25.122   0.949  10.889
 4674W        W65985  33.103  22.517   3.166
 4675W        W65986  28.978  20.058  11.917
 4676W        W65987  19.595   1.456   4.303
 4677W        W65988   8.763  13.329  13.519
 4678W        W65989  23.557   8.837   3.735
 4679W        W65990  41.858  35.075  11.576
 4680W        W65991   9.668  35.957   1.275
 4681W        W65992  37.404  35.993   9.983
 4682W        W65993  21.160  29.058  13.927
 4683W        W65994  28.526  30.464   0.951
 4684W        W65995  21.130  31.627   5.589
 4685W        W65996  16.226   9.332   3.795
 4686W        W65997  34.092   2.306  12.454
 4687W        W65998  14.220  27.662  12.373
 4688W        W65999  12.129   3.275  12.404
 4689W        W66000  23.562   7.222  11.912
 4690W        W66001  22.501  17.201   4.319
 4691W        W66002  44.790   8.308   4.630
 4692W        W66003  25.543   0.353   4.291
 4693W        W66004  20.224  21.217  13.348
 4694W        W66005  24.615   3.398   3.233
 4695W        W66006   0.881   6.694   4.748
 4696W        W66007  24.719  32.585   1.737
 4697W        W66008   0.411  10.354   0.895
 4698W        W66009  42.783  27.139   0.817
 4699W        W66010  35.563  42.459  14.369
 4700W        W66011  26.577   6.880   1.794
 4701W        W66012  32.047  27.089  13.389
 4702W        W66013  18.050  13.274   5.266
 4703W        W66014   9.823  42.508  12.918
 4704W        W66015  29.516  32.523   3.677
 4705W        W66016  44.977   2.826   3.683
 4706W        W66017   5.429  18.050   0.331
 4707W        W66018  42.867  30.588  10.133
 4708W        W66019  41.005  29.153   2.369
 4709W        W66020  29.456  29.504   4.779
 4710W        W66021  21.241  44.829  14.902
 4711W        W66022  30.971   8.842   4.623
 4712W        W66023  31.087  19.076   4.308
 4713W        W66024  28.526  43.281  10.480
 4714W        W66025   7.351  37.476  12.986
 4715W        W66026  10.330  39.464  14.306
 4716W        W66027   7.795  20.744  14.948
 4717W        W66028  20.662  10.684  12.945
 4718W        W66029   5.202  18.171  12.448
 4719W        W66030  40.394  42.354  10.549
 4720W        W66031  42.486   0.485   0.484
 4721W        W66032  15.277  27.118   4.601
 4722W        W66033   1.404  31.642  14.868
 4723W        W66034  13.253   5.369  10.633
 4724W        W66035   2.328  20.561   1.367
 4725W        W66036  23.558  20.757  10.105
 4726W        W66037  14.272  44.326   3.242
 4727W        W66038  39.423  31.502  12.411
 4728W        W66039   9.657  13.272  11.512
 4729W        W66040  15.278  26.461   0.251
 4730W        W66041  27.494  27.060  11.461
 4731W        W66042  18.761  22.235   1.906
 4732W        W66043  32.990  27.172  12.926
 4733W        W66044  39.849   8.669   4.179
 4734W        W66045  43.889   6.788   4.130
 4735W        W66046  38.987  24.572   2.840
 4736W        W66047  15.694  26.644   2.265
 4737W        W66048   3.239  27.954   3.270
 4738W        W66049  11.147  40.895   1.257
 4739W        W66050  43.884   3.922   4.700
 4740W        W66051  42.388  35.596   4.796
 4741W        W66052  35.107  40.451  13.913
 4742W        W66053   6.343  12.789  13.947
 4743W        W66054  34.040  13.201   2.208
 4744W        W66055  39.456  24.590  10.488
 4745W        W66056  19.191  36.568  13.440
 4746W        W66057  33.109  34.088   2.747
 4747W        W66058  26.465   0.812   0.438
 4748W        W66059  31.497  29.455  11.582
 4749W        W66060  22.020  14.796   1.331
 4750W        W66061   3.385   3.404   3.747
 4751W        W66062   7.820   7.858  10.420
 4752W        W66063  11.150  40.879   0.405
 4753W        W66064  42.884  42.309  12.558
 4754W        W66065  14.205   3.735   3.765
 4755W        W66066  18.569   8.169  13.387
 4756W        W66067  41.396   7.871   3.195
 4757W        W66068  21.607  29.473   1.853
 4758W        W66069  22.059   4.813   1.859
 4759W        W66070   4.224   6.408   0.784
 4760W        W66071  20.709  17.128   3.240
 4761W        W66072  26.595  43.470  14.969
 4762W        W66073  23.088  32.572  13.798
 4763W        W66074  34.036  44.347  14.278
 4764W        W66075  17.710  37.443  14.482
 4765W        W66076  26.139  38.953  12.459
 4766W        W66077  19.211  27.529   3.213
 4767W        W66078  23.538  11.277   1.801
 4768W        W66079  25.196   1.427  14.416
 4769W        W66080   3.870  39.916   2.752
 4770W        W66081  24.054  28.492   3.811
 4771W        W66082  13.746  25.026   0.395
 4772W        W66083  42.447  34.003  11.059
 4773W        W66084  26.540  31.548   1.930
 4774W        W66085  17.086   3.251   0.846
 4775W        W66086  26.597  36.844  10.924
 4776W        W66087   4.776  16.646  11.538
 4777W        W66088  17.595  26.597  11.982
 4778W        W66089  30.942  36.010   3.189
 4779W        W66090  43.383  38.930  11.090
 4780W        W66091  27.080   5.221   2.865
 4781W        W66092  18.603   1.241  13.048
 4782W        W66093  34.105  36.389   2.779
 4783W        W66094  36.939  25.610  14.493
 4784W        W66095  33.878  31.031  12.436
 4785W        W66096  22.530   2.341   5.211
 4786W        W66097  28.075   8.661  10.093
 4787W        W66098  20.610   2.955  13.399
 4788W        W66099   2.257  12.681  13.347
 4789W        W66100  44.829   0.339  13.989
 4790W        W66101   5.931   7.346  14.341
 4791W        W66102  36.999  21.131  11.893
 4792W        W66103  30.120  24.569  14.822
 4793W        W66104  33.954  23.157  13.052
 4794W        W66105  43.425   7.843  10.453
 4795W        W66106  42.328  26.028   2.384
 4796W        W66107  39.064  24.536  10.635
 4797W        W66108  33.467  36.496   0.927
 4798W        W66109  39.960  25.061   3.744
 4799W        W66110   5.373  27.036   0.770
 4800W        W66111  37.065  11.781   4.267
 4801W        W66112   2.805  13.206  10.997
 4802W        W66113  18.098   5.832  11.507
 4803W        W66114  37.478  28.501   4.813
 4804W        W66115  12.299  23.706  11.023
 4805W        W66116  33.486  17.578   1.266
 4806W        W66117  20.204  39.536  11.929
 4807W        W66118  21.642  35.106  12.372
 4808W        W66119  43.911   2.879  11.892
 4809W        W66120  41.365   2.471  10.456
 4810W        W66121  20.274   1.393  11.047
 4811W        W66122  12.209   9.354   2.294
 4812W        W66123  43.898  38.968   2.704
 4813W        W66124  26.095  25.144   4.169
 4814W        W66125  31.106  26.175   2.239
 4815W        W66126  33.062  19.608   1.412
 4816W        W66127  10.647  22.663   1.730
 4817W        W66128  13.736  33.911  14.854
 4818W        W66129  42.426   7.883   0.776
 4819W        W66130  26.129  28.165   0.812
 4820W        W66131  17.216  18.652   0.332
 4821W        W66132  43.430  32.580  14.912
 4822W        W66133  44.505  22.706  10.565
 4823W        W66134  20.735  27.659  11.096
 4824W        W66135  41.957  32.397   3.304
 4825W        W66136  37.536  20.558   0.431
 4826W        W66137  44.376  37.480  13.533
 4827W        W66138  33.061  30.016   5.731
 4828W        W66139  31.492   0.920  13.015
 4829W        W66140  16.615   4.765  14.907
 4830W        W66141   7.857   1.415  12.378
 4831W        W66142  15.244  23.530   2.187
 4832W        W66143  26.010  42.798  14.782
 4833W        W66144  41.042  10.733   0.423
 4834W        W66145  13.735  18.594   1.890
 4835W        W66146   5.389   4.698   2.692
 4836W        W66147  25.685  25.075   4.780
 4837W        W66148  40.312   8.779   1.916
 4838W        W66149   8.859  29.425   2.770
 4839W        W66150   9.287  28.071  14.491
 4840W        W66151  44.859  32.920   1.294
 4841W        W66152  18.664  28.033  12.557
 4842W        W66153  30.634  13.344  13.415
 4843W        W66154  44.767  33.042   0.270
 4844W        W66155  11.316  22.744  12.977
 4845W        W66156  42.849   6.709  10.621
 4846W        W66157  17.089   6.794  13.353
 4847W        W66158  20.526  33.917  11.477
 4848W        W66159  31.024  25.560  11.969
 4849W        W66160  44.265  25.709  13.377
 4850W        W66161  33.092  39.428  14.859
 4851W        W66162  17.765   1.305   3.201
 4852W        W66163  30.616   8.797  12.506
 4853W        W66164  26.479   1.364   0.753
 4854W        W66165  43.394   3.292  14.975
 4855W        W66166  18.763  37.569  10.548
 4856W        W66167  10.658  15.739  10.446
 4857W        W66168  37.912  25.146   3.167
 4858W        W66169   2.292  37.996   2.334
 4859W        W66170  43.415  22.049   2.196
 4860W        W66171  31.927  30.575   0.429
 4861W        W66172   2.298   3.815   3.347
 4862W        W66173  19.637  22.176  14.776
 4863W        W66174  43.785   3.714  14.916
 4864W        W66175  20.698  36.487   5.267
 4865W        W66176  13.787  36.450   3.347
 4866W        W66177  40.319  30.625  10.050
 4867W        W66178  35.419  13.709  10.504
 4868W        W66179  16.788  35.484   1.723
 4869W        W66180  12.175   6.805  10.429
 4870W        W66181  19.041  32.116   1.276
 4871W        W66182  21.674  18.152   2.249
 4872W        W66183  41.813  41.993  12.356
 4873W        W66184  12.815  21.512  11.409
 4874W        W66185  13.287  17.143   2.312
 4875W        W66186   2.758  31.496   0.748
 4876W        W66187  24.695  15.785  13.984
 4877W        W66188  31.527   5.814  14.437
 4878W        W66189  26.970  15.313   2.309
 4879W        W66190  31.538   7.204  14.001
 4880W        W66191  35.589  34.570  13.802
 4881W        W66192   2.724  16.120   2.724
 4882W        W66193  16.215  24.195   2.687
 4883W        W66194  36.577  20.678   2.685
 4884W        W66195  27.684  20.556   1.228
 4885W        W66196  34.115  26.109   2.287
 4886W        W66197  24.601  41.433  13.838
 4887W        W66198  41.928  24.048  12.416
 4888W        W66199  27.662  10.294  11.494
 4889W        W66200  17.148  38.932  14.511
 4890W        W66201  22.157  22.163   3.703
 4891W        W66202  43.848  25.664  13.516
 4892W        W66203   4.239  25.494  11.979
 4893W        W66204  18.727  35.470  14.422
 4894W        W66205  32.399  14.293   2.708
 4895W        W66206  39.905  40.907  14.848
 4896W        W66207  15.767   1.263  13.328
 4897W        W66208  26.688  43.492  14.445
 4898W        W66209  21.113  37.878  10.991
 4899W        W66210  25.625   1.243  13.901
 4900W        W66211  13.659  25.627   3.330
 4901W        W66212  36.501  31.988   2.721
 4902W        W66213  32.575  16.097  12.931
 4903W        W66214   7.405  33.473  10.960
 4904W        W66215   2.447  11.241   2.895
 4905W        W66216   4.902   9.879   4.661
 4906W        W66217  18.624   7.833   4.215
 4907W        W66218  11.256  44.795   0.947
 4908W        W66219  36.371  17.141  14.368
 4909W        W66220  40.447  35.444   2.742
 4910W        W66221  11.776  43.975   0.818
 4911W        W66222   2.935   0.284  13.824
 4912W        W66223  34.481  35.545   4.138
 4913W        W66224  30.069  42.997   2.676
 4914W        W66225   9.210  28.598  14.769
 4915W        W66226   3.397  31.922  13.045
 4916W        W66227  16.087  32.536  12.408
 4917W        W66228  15.249  11.143  11.990
 4918W        W66229  19.593  36.558   1.877
 4919W        W66230  44.774   7.908  13.865
 4920W        W66231  14.095  18.107  14.021
 4921W        W66232  22.118   1.950   2.345
 4922W        W66233  15.587  27.508  14.494
 4923W        W66234  16.659  13.689   2.840
 4924W        W66235   0.894  10.227  11.122
 4925W        W66236  30.424  39.336   2.862
 4926W        W66237  39.324  38.452   2.181
 4927W        W66238  28.029  24.129  12.456
 4928W        W66239   6.339   1.734   0.367
 4929W        W66240  34.441  22.529   0.894
 4930W        W66241   0.864   6.771  11.509
 4931W        W66242  24.106  27.131   3.845
 4932W        W66243  24.010  27.579   3.709
 4933W        W66244  14.283  18.057  12.464
 4934W        W66245  30.626  27.118   1.297
 4935W        W66246  41.859  39.483  13.518
 4936W        W66247   4.828  17.261   1.874
 4937W        W66248  29.007  21.668   3.657
 4938W        W66249  25.154  31.582  11.573
 4939W        W66250  18.064  37.012  13.309
 4940W        W66251  41.949  42.336  12.907
 4941W        W66252  37.895   3.930  13.374
 4942W        W66253  10.363  24.227  12.087
 4943W        W66254  39.460  31.109   3.361
 4944W        W66255   0.298  38.949   3.196
 4945W        W66256  11.835   8.197   0.350
 4946W        W66257  17.295   4.219   9.443
 4947W        W66258  10.765  26.987   2.418
 4948W        W66259  16.810  28.478   1.229
 4949W        W66260  18.702  32.528   1.365
 4950W        W66261   6.361  39.892  12.830
 4951W        W66262  40.800  31.983   0.938
 4952W        W66263  19.050  28.511   2.225
 4953W        W66264  20.067  27.565   2.832
 4954W        W66265   0.923  40.023  14.322
 4955W        W66266   5.861  21.213   1.898
 4956W        W66267  15.297  33.426   4.641
 4957W        W66268   4.915  12.301  12.387
 4958W        W66269  42.526  34.879   3.265
 4959W        W66270  38.946   3.232   0.321
 4960W        W66271   9.781  11.266  14.395
 4961W        W66272   0.953  23.675  14.488
 4962W        W66273   6.754  35.457  10.523
 4963W        W66274  12.795  19.611  11.384
 4964W        W66275  29.474   2.425  13.038
 4965W        W66276  11.176  16.712  11.960
 4966W        W66277  18.724  13.317   1.323
 4967W        W66278  44.388  21.246  11.932
 4968W        W66279  15.302  14.217   2.828
 4969W        W66280  40.381  24.090  13.031
 4970W        W66281  12.292  17.230  14.461
 4971W        W66282  12.323   0.853  14.969
 4972W        W66283  35.867  32.511   0.731
 4973W        W66284  27.173  41.536   4.157
 4974W        W66285  28.930  23.099  12.023
 4975W        W66286  17.205   8.210  10.922
 4976W        W66287  32.626   6.711   3.251
 4977W        W66288  14.784   7.818   0.945
 4978W        W66289   8.248  12.718   1.446
 4979W        W66290  36.402  38.934  12.493
 4980W        W66291  41.939  32.468   4.340
 4981W        W66292  36.372  27.486   4.730
 4982W        W66293  38.045  36.389   0.750
 4983W        W66294   5.271  41.485   0.418
 4984W        W66295  16.797  33.568   0.917
 4985W        W66296  37.341  27.031  14.830
 4986W        W66297   3.395  10.353  13.815
 4987W        W66298  37.560  18.126  14.932
 4988W        W66299  11.308  34.511  13.333
 4989W        W66300   5.834  44.444   9.938
 4990W        W66301  13.794  21.588   3.315
 4991W        W66302   3.260  21.237   0.323
 4992W        W66303  21.685  30.544   0.924
 4993W        W66304   8.176   6.389  12.454
 4994W        W66305  30.551   2.795  14.492
 4995W        W66306  12.616  30.426   1.721
 4996W        W66307  17.794  14.592   1.444
 4997W        W66308   6.869  14.125   1.897
 4998W        W66309  23.134   9.770   3.667
 4999W        W66310  21.584  15.622   4.237
 5000W        W66311  12.228   8.785   0.317
 5001W        W66312  32.141  43.910   3.323
 5002W        W66313  32.526  40.957   0.728
 5003W        W66314   7.262  38.056   1.768
 5004W        W66315  23.716  17.743   1.277
 5005W        W66316  27.089  14.741   1.818
 5006W        W66317  37.433  41.483   4.732
 5007W        W66318  38.383   9.650   4.657
 5008W        W66319   7.191  36.972  10.609
 5009W        W66320  23.620  19.070   0.298
 5010W        W66321  35.397   0.749  10.955
 5011W        W66322  13.810  39.419   3.288
 5012W        W66323   5.716  42.884  12.386
 5013W        W66324  14.604  38.828   1.327
 5014W        W66325   6.897  36.914   1.898
 5015W        W66326  32.034  28.091  13.823
 5016W        W66327  17.642  24.223  10.949
 5017W        W66328  11.182  28.070  11.560
 5018W        W66329  28.058  33.596   0.932
 5019W        W66330   5.430   4.222   2.715
 5020W        W66331   5.768   1.761   3.184
 5021W        W66332  42.304  10.714   0.396
 5022W        W66333  12.637   5.363  10.914
 5023W        W66334  41.448  42.296   4.633
 5024W        W66335  24.180  11.800   2.361
 5025W        W66336  16.682  39.039  12.402
 5026W        W66337  42.971   5.405   3.809
 5027W        W66338  41.897  34.462   0.448
 5028W        W66339  42.860   8.275  13.982
 5029W        W66340  33.049   9.361  13.485
 5030W        W66341  16.231  21.721   3.661
 5031W        W66342  21.088  31.031  14.327
 5032W        W66343  19.697  10.230   1.791
 5033W        W66344  26.206  40.364  10.932
 5034W        W66345  12.778   0.289   3.689
 5035W        W66346   6.284  38.070   1.933
 5036W        W66347  25.630  29.017   1.700
 5037W        W66348  18.229  17.221  14.767
 5038W        W66349  36.576  23.223  13.795
 5039W        W66350  32.967  39.475   4.213
 5040W        W66351  11.259  31.030   4.770
 5041W        W66352   2.731  43.495   0.365
 5042W        W66353  40.916  43.282  13.341
 5043W        W66354  12.622  10.281  12.517
 5044W        W66355  38.963   9.168   0.759
 5045W        W66356  39.392  34.013  11.959
 5046W        W66357  14.816  33.406   3.644
 5047W        W66358  27.144  40.865   0.243
 5048W        W66359  15.250   0.351  13.908
 5049W        W66360  13.791   1.267   3.341
 5050W        W66361   1.285  43.801   1.801
 5051W        W66362  11.138  35.446   3.637
 5052W        W66363  40.891  43.489  11.922
 5053W        W66364  28.180  38.414  10.965
 5054W        W66365  43.902  23.143   1.210
 5055W        W66366  14.696   7.187   0.924
 5056W        W66367  30.571  15.584  11.556
 5057W        W66368  11.336  38.943   1.308
 5058W        W66369  26.952  18.162  11.600
 5059W        W66370  25.191  38.410   2.757
 5060W        W66371  17.181  42.818   3.183
 5061W        W66372   3.799  28.053   0.802
 5062W        W66373  13.821  30.155  11.007
 5063W        W66374   5.276  13.829  13.866
 5064W        W66375  26.027   1.378   4.188
 5065W        W66376  37.976  33.465   2.707
 5066W        W66377   5.842   9.884   3.822
 5067W        W66378  40.874   6.760   4.781
 5068W        W66379   7.197  32.966  12.544
 5069W        W66380  10.171  21.079   3.751
 5070W        W66381  15.691  27.076   1.277
 5071W        W66382  12.635  19.535   0.922
 5072W        W66383  33.083  17.717  14.804
 5073W        W66384  22.731  35.358   4.729
 5074W        W66385  36.862  43.817  14.489
 5075W        W66386   0.943  40.439  13.429
 5076W        W66387  39.515   5.415  14.418
 5077W        W66388   7.881  30.510   0.886
 5078W        W66389  38.415   3.818   3.774
 5079W        W66390  19.708  42.337   0.347
 5080W        W66391  24.501  30.605  14.507
 5081W        W66392  35.395  24.696  11.425
 5082W        W66393  18.152  17.652  13.537
 5083W        W66394  17.569  40.965  12.486
 5084W        W66395   0.267   0.287   1.392
 5085W        W66396  27.681  24.555   4.760
 5086W        W66397   3.752  10.704   4.251
 5087W        W66398  20.734  33.556   0.906
 5088W        W66399   7.762  25.537   2.693
 5089W        W66400  12.632  30.015   3.345
 5090W        W66401  24.109  38.555   3.222
 5091W        W66402  39.339   9.372   4.645
 5092W        W66403  19.673   8.851  14.978
 5093W        W66404  32.025   7.364   4.345
 5094W        W66405  13.801  23.177  12.452
 5095W        W66406  36.424  16.197   1.386
 5096W        W66407  20.036  18.623  14.830
 5097W        W66408  12.213  38.498  10.640
 5098W        W66409   9.314  38.824  12.450
 5099W        W66410  22.162  36.368   2.290
 5100W        W66411  38.006  12.348  12.402
 5101W        W66412  40.391  43.811  14.767
 5102W        W66413  37.952   8.340   2.876
 5103W        W66414  31.637  26.535   4.693
 5104W        W66415  44.896   4.214   1.807
 5105W        W66416  15.820  30.088   2.232
 5106W        W66417   1.241  26.091   3.743
 5107W        W66418  34.389  43.987  13.856
 5108W        W66419   6.274   7.246   1.915
 5109W        W66420   7.771  22.186  13.473
 5110W        W66421  11.751  29.000  10.506
 5111W        W66422   3.910  30.062  12.506
 5112W        W66423  18.625  36.564   1.841
 5113W        W66424  21.684   1.425  11.921
 5114W        W66425   5.795  38.969  11.907
 5115W        W66426  17.675  19.139   2.901
 5116W        W66427  37.062  44.878   2.799
 5117W        W66428  14.094  20.234   5.242
 5118W        W66429  43.880  22.054   4.826
 5119W        W66430  40.822  40.515  12.476
 5120W        W66431  40.039  13.289  14.286
 5121W        W66432  15.815  37.005  11.117
 5122W        W66433  28.952   0.768  14.276
 5123W        W66434  28.442  12.784  10.503
 5124W        W66435   6.314  29.489  11.594
 5125W        W66436  28.022   6.795  12.438
 5126W        W66437  28.991  20.162  14.513
 5127W        W66438  42.904  38.514   1.933
 5128W        W66439  24.615  26.155   2.374
 5129W        W66440  17.199   3.269   4.701
 5130W        W66441  33.394  40.411   4.785
 5131W        W66442  13.279  11.343  13.805
 5132W        W66443  12.656  40.377  14.360
 5133W        W66444  37.507   2.722  14.338
 5134W        W66445  24.506  41.040  12.994
 5135W        W66446  21.527  38.564   3.844
 5136W        W66447  11.215  11.860   1.290
 5137W        W66448   9.320  28.624   0.785
 5138W        W66449  16.198  25.710  14.996
 5139W        W66450  36.576   3.346  14.888
 5140W        W66451  38.836  21.632   1.819
 5141W        W66452  11.242  13.723   4.283
 5142W        W66453   9.792   0.289   4.637
 5143W        W66454   3.804  35.003  11.609
 5144W        W66455  34.023   5.400   3.711
 5145W        W66456   7.807  33.016  10.430
 5146W        W66457   0.305  23.087   2.201
 5147W        W66458  23.703  29.555  12.480
 5148W        W66459   6.885  40.887  11.605
 5149W        W66460  12.354  28.150   3.342
 5150W        W66461  31.631  25.098   3.381
 5151W        W66462  32.051  37.868   2.181
 5152W        W66463  35.566  43.882  12.424
 5153W        W66464  23.002  19.742  12.396
 5154W        W66465   0.436  43.510  11.929
 5155W        W66466  31.577   5.403  11.589
 5156W        W66467  31.542  10.721   3.261
 5157W        W66468  37.085   5.273   2.836
 5158W        W66469  32.479  42.779   4.597
 5159W        W66470  24.024  10.751   1.862
 5160W        W66471   4.739   9.867  11.049
 5161W        W66472  25.486  26.538   3.693
 5162W        W66473  15.214  13.635  13.907
 5163W        W66474  10.844   2.278  11.391
 5164W        W66475  42.406  24.508   0.953
 5165W        W66476  38.997  15.677  11.536
 5166W        W66477  40.894  28.076   1.716
 5167W        W66478   4.797  18.272   1.893
 5168W        W66479  41.503  43.021   5.217
 5169W        W66480  39.948  23.531   4.736
 5170W        W66481  26.660  13.282   3.791
 5171W        W66482   0.782   3.377  14.990
 5172W        W66483  40.422  26.011  12.533
 5173W        W66484  37.366  24.505  13.307
 5174W        W66485  20.768  30.634  12.499
 5175W        W66486  16.679  34.106   4.825
 5176W        W66487  11.830  17.715   0.962
 5177W        W66488  35.039  28.442   0.390
 5178W        W66489   0.383  26.058   1.719
 5179W        W66490  17.689  25.517   3.271
 5180W        W66491  31.437  32.922  10.959
 5181W        W66492  21.086   7.190   3.855
 5182W        W66493  30.559  37.052  11.013
 5183W        W66494  24.013  12.192  12.430
 5184W        W66495  43.918  33.545   4.252
 5185W        W66496  22.697  14.213  12.872
 5186W        W66497  11.302   4.211  12.839
 5187W        W66498  14.248  24.588   3.222
 5188W        W66499  34.528  18.634  13.989
 5189W        W66500  33.553   8.743  14.481
 5190W        W66501  30.021   2.803   4.275
 5191W        W66502   9.254  26.642  10.549
 5192W        W66503  40.875  15.128   1.722
 5193W        W66504   5.688  39.445  10.482
 5194W        W66505  43.483  14.653   4.146
 5195W        W66506  44.376  25.632  14.960
 5196W        W66507  18.718  27.488   1.437
 5197W        W66508  38.059   8.382   3.831
 5198W        W66509  29.979  22.224   0.857
 5199W        W66510  29.659  32.635   2.234
 5200W        W66511  30.526  21.592   0.855
 5201W        W66512  29.565   7.343  13.031
 5202W        W66513   5.838  36.025   4.691
 5203W        W66514  17.783  10.823   4.298
 5204W        W66515  34.896   0.892  12.518
 5205W        W66516   0.839   8.694  12.488
 5206W        W66517  14.742   7.285   3.839
 5207W        W66518  37.978  12.258  11.475
 5208W        W66519  33.905  18.790   0.308
 5209W        W66520  29.090   3.775  13.309
 5210W        W66521  31.428  31.567   1.378
 5211W        W66522  24.713  29.646  13.533
 5212W        W66523  22.551   9.845   4.275
 5213W        W66524  19.618  43.411   3.840
 5214W        W66525  39.925   7.680  13.970
 5215W        W66526  29.065  43.912   4.277
 5216W        W66527  22.728  41.851   3.808
 5217W        W66528   5.930  17.675   5.134
 5218W        W66529   0.915  10.264   4.675
 5219W        W66530  10.255  38.937   5.185
 5220W        W66531   0.986  15.705   2.890
 5221W        W66532  35.392  32.570  12.976
 5222W        W66533  44.856  44.949  10.525
 5223W        W66534  14.226  33.973  11.070
 5224W        W66535  23.657  28.590   1.798
 5225W        W66536  28.989  23.011   3.167
 5226W        W66537  10.373   5.379   2.237
 5227W        W66538  18.287   6.379   3.807
 5228W        W66539  16.254  18.685   0.933
 5229W        W66540  17.717  26.693  10.965
 5230W        W66541  13.620  18.759   0.252
 5231W        W66542   1.318  32.557  14.493
 5232W        W66543   5.826  43.365  12.857
 5233W        W66544   9.685  16.183   0.838
 5234W        W66545  43.385  23.499   2.285
 5235W        W66546  28.153   6.342  12.519
 5236W        W66547  36.919  10.366   3.291
 5237W        W66548  37.006  23.232   4.308
 5238W        W66549  12.745   2.235  13.806
 5239W        W66550   3.948   6.828   3.719
 5240W        W66551   3.863  15.292  14.462
 5241W        W66552  13.215  21.198  10.046
 5242W        W66553  31.613  42.856   1.216
 5243W        W66554   3.281  35.961   3.154
 5244W        W66555   4.790  33.448  14.286
 5245W        W66556  25.473  28.129  12.562
 5246W        W66557  12.628  37.506  14.396
 5247W        W66558  19.256  20.054   3.187
 5248W        W66559  42.422   5.340  14.765
 5249W        W66560  37.417   6.214   4.311
 5250W        W66561   0.759  14.265  13.506
 5251W        W66562  39.893  44.924  11.038
 5252W        W66563  24.607  37.020  11.571
 5253W        W66564   8.335  16.574  13.404
 5254W        W66565  32.089  34.875   1.335
 5255W        W66566  43.813  28.656   2.679
 5256W        W66567  38.417  11.202   1.398
 5257W        W66568   6.307  30.427  12.017
 5258W        W66569   4.232  36.004  14.947
 5259W        W66570  36.482  24.049   1.806
 5260W        W66571  20.741  13.823   3.232
 5261W        W66572  16.159  42.386  13.455
 5262W        W66573  33.426  39.831  14.006
 5263W        W66574  11.847  24.676   2.762
 5264W        W66575   6.358   6.377   2.278
 5265W        W66576   7.704  44.806   2.793
 5266W        W66577  12.640   1.279  11.069
 5267W        W66578  21.048  43.300   2.702
 5268W        W66579  31.926  11.215  13.344
 5269W        W66580   3.447  35.557  12.964
 5270W        W66581  21.126   0.264  12.883
 5271W        W66582  31.981  35.073   2.845
 5272W        W66583  25.055  27.041  11.382
 5273W        W66584  39.911  20.165   4.631
 5274W        W66585  14.833   0.791   4.316
 5275W        W66586  44.478  26.026   3.835
 5276W        W66587  31.462  31.543  14.816
 5277W        W66588   7.202  39.967   4.302
 5278W        W66589  41.367   5.714   2.232
 5279W        W66590   4.749   1.915   3.189
 5280W        W66591  43.334  28.475  11.572
 5281W        W66592  44.392  34.479   4.647
 5282W        W66593   8.753  35.505   2.283
 5283W        W66594  40.348  21.199  10.509
 5284W        W66595  15.599  23.717  12.563
 5285W        W66596  42.399  37.846   3.259
 5286W        W66597  30.042   7.718   0.472
 5287W        W66598  37.960  17.065  12.060
 5288W        W66599  13.329  19.721  10.145
 5289W        W66600  29.054  42.890  11.861
 5290W        W66601   8.365   8.168  14.408
 5291W        W66602  31.042  42.942  13.844
 5292W        W66603  24.671  31.112   2.664
 5293W        W66604  21.029  41.970  11.600
 5294W        W66605   5.899  13.158   3.174
 5295W        W66606  33.395  25.164  14.377
 5296W        W66607  43.798  11.310  14.911
 5297W        W66608  41.890   9.666  14.808
 5298W        W66609   1.437  10.863  11.070
 5299W        W66610  41.502  19.141  14.852
 5300W        W66611  17.209  35.971  12.575
 5301W        W66612  19.090  38.522   1.261
 5302W        W66613  33.527  21.562   2.700
 5303W        W66614   7.279  44.773  12.381
 5304W        W66615  16.760  18.297   1.214
 5305W        W66616   1.936  13.797  10.533
 5306W        W66617  42.003   8.365   2.671
 5307W        W66618  43.388  16.164   1.826
 5308W        W66619  27.580  12.725  12.874
 5309W        W66620   0.930  25.703  11.594
 5310W        W66621  11.770   4.889   2.193
 5311W        W66622   0.963  29.669   1.934
 5312W        W66623  34.022  24.493   4.270
 5313W        W66624  20.672  12.185   0.269
 5314W        W66625  10.230  42.786  13.997
 5315W        W66626   0.319   6.830   3.800
 5316W        W66627  28.513  40.958  13.535
 5317W        W66628  23.533  34.398   1.818
 5318W        W66629  24.973  27.035   1.440
 5319W        W66630  33.516  14.222   1.754
 5320W        W66631  13.240  29.612   3.283
 5321W        W66632  21.255  22.231   3.728
 5322W        W66633  29.111  15.607   3.320
 5323W        W66634  20.672  34.037   3.182
 5324W        W66635   8.668  18.062   3.220
 5325W        W66636   6.195  24.053   4.172
 5326W        W66637  40.501   3.950  13.890
 5327W        W66638  41.383  40.310   5.262
 5328W        W66639  35.451  32.616  12.064
 5329W        W66640  37.394  27.193   4.656
 5330W        W66641  12.223  16.706   1.283
 5331W        W66642   5.746   7.774  12.993
 5332W        W66643   8.804  19.168  14.834
 5333W        W66644   9.346  35.963   1.340
 5334W        W66645   5.268  35.480  13.402
 5335W        W66646  37.913   3.414   3.335
 5336W        W66647  41.877  36.479  12.918
 5337W        W66648  21.136   0.394   2.395
 5338W        W66649  20.628  17.614   1.212
 5339W        W66650  44.374   5.381   1.366
 5340W        W66651  30.155  18.094  11.505
 5341W        W66652  23.064   0.975  12.577
 5342W        W66653   6.701  43.380   4.178
 5343W        W66654  17.223  26.608   2.699
 5344W        W66655  19.133  26.013   2.809
 5345W        W66656   4.426  40.429   0.766
 5346W        W66657  35.090  41.903  12.061
 5347W        W66658  43.478  24.022  14.029
 5348W        W66659  44.380  22.592   3.162
 5349W        W66660  35.955   5.835  13.831
 5350W        W66661  42.508   4.423   0.276
 5351W        W66662  37.068  26.193   4.214
 5352W        W66663  29.466  29.969  10.536
 5353W        W66664  30.965  37.444   0.391
 5354W        W66665  26.496  13.238  11.396
 5355W        W66666  28.160  11.175  12.435
 5356W        W66667   8.730  42.822  13.436
 5357W        W66668  30.483  44.952  13.530
 5358W        W66669  15.673  14.657  11.413
 5359W        W66670  43.877  22.247  13.906
 5360W        W66671  24.648  32.017   3.646
 5361W        W66672   9.296  25.112   2.400
 5362W        W66673   5.332  16.682   0.945
 5363W        W66674  31.033  25.543  14.001
 5364W        W66675  43.412  35.029  14.845
 5365W        W66676  11.334  15.759  12.511
 5366W        W66677  15.178   5.250  13.446
 5367W        W66678  41.878  35.492  11.070
 5368W        W66679  16.785  31.981   2.768
 5369W        W66680  10.150  32.094  14.440
 5370W        W66681  19.543  35.027  10.421
 5371W        W66682   5.910  26.141  12.859
 5372W        W66683  28.994  43.315  12.023
 5373W        W66684  39.335  43.286  10.639
 5374W        W66685  40.506  30.128   5.149
 5375W        W66686  22.148  31.077  14.977
 5376W        W66687   5.849   0.827   3.866
 5377W        W66688  15.157  33.959   0.754
 5378W        W66689  15.305  21.598   2.284
 5379W        W66690  13.623   9.819  14.347
 5380W        W66691   6.799  40.825   4.693
 5381W        W66692  43.462   6.340  10.572
 5382W        W66693  24.095  31.139   3.814
 5383W        W66694   9.879  17.736  12.932
 5384W        W66695  32.952  18.631  10.417
 5385W        W66696   9.275  30.913   2.291
 5386W        W66697  37.993  18.640  13.018
 5387W        W66698  22.729   6.699   0.394
 5388W        W66699  20.532   9.208  14.360
 5389W        W66700  13.250   6.415   5.275
 5390W        W66701  40.380  30.157  13.029
 5391W        W66702  27.989  17.711   3.211
 5392W        W66703  34.386  22.143  13.356
 5393W        W66704  20.104  44.394  14.383
 5394W        W66705  20.219  33.001   3.194
 5395W        W66706  25.131   7.666   1.878
 5396W        W66707  28.504   0.478   3.724
 5397W        W66708   7.193  20.169  10.543
 5398W        W66709  31.602  36.006   2.221
 5399W        W66710  23.070  20.121   4.809
 5400W        W66711  28.524  38.378   4.774
 5401W        W66712  18.733  44.493  14.487
 5402W        W66713  24.088   7.263  14.838
 5403W        W66714  16.246  32.051  11.508
 5404W        W66715  30.048  31.118  14.370
 5405W        W66716  14.833   2.762  13.956
 5406W        W66717  37.053  30.507   4.275
 5407W        W66718  41.845  12.797   3.675
 5408W        W66719  29.513  11.682  13.063
 5409W        W66720  24.500  27.589  11.482
 5410W        W66721  21.715  37.905   0.301
 5411W        W66722  33.392  41.877   1.446
 5412W        W66723  21.237  31.612  11.903
 5413W        W66724  31.983  25.033  11.041
 5414W        W66725  12.247  34.865  14.499
 5415W        W66726  25.547  17.723  11.981
 5416W        W66727  29.656  30.456   2.362
 5417W        W66728  39.838  27.014   3.633
 5418W        W66729  35.872  21.173  11.934
 5419W        W66730  23.564  18.755   0.368
 5420W        W66731   9.841  33.069   4.124
 5421W        W66732  18.718  30.991  13.871
 5422W        W66733  17.305  20.615   0.362
 5423W        W66734  33.481   9.768   0.306
 5424W        W66735  42.325  21.752   4.339
 5425W        W66736  21.137  40.384   0.461
 5426W        W66737  32.565  37.854   4.681
 5427W        W66738  26.680  27.604  14.308
 5428W        W66739  32.907  35.891  11.117
 5429W        W66740  39.821   7.719   1.357
 5430W        W66741  28.602   5.784   2.853
 5431W        W66742   6.829  28.047   3.802
 5432W        W66743  40.946   5.721   1.402
 5433W        W66744  42.853  39.925   2.301
 5434W        W66745  36.425  35.906  12.406
 5435W        W66746  14.200  10.142  13.879
 5436W        W66747   6.274  10.855  12.558
 5437W        W66748  28.135   1.770   2.179
 5438W        W66749   8.845  40.818  13.308
 5439W        W66750   0.956  16.083  11.386
 5440W        W66751  24.105  34.916   2.278
 5441W        W66752  15.172  33.442   0.859
 5442W        W66753  41.015  37.872   1.785
 5443W        W66754  41.033  42.480   0.447
 5444W        W66755  33.071  32.999  13.812
 5445W        W66756  38.489  37.466  13.310
 5446W        W66757  35.949  43.477  12.387
 5447W        W66758  43.986  32.614   0.246
 5448W        W66759  41.027   2.821   3.634
 5449W        W66760   7.748  30.020   1.868
 5450W        W66761  33.057  34.592   2.199
 5451W        W66762  25.998  39.499  12.959
 5452W        W66763   7.817   0.391  14.831
 5453W        W66764  23.613  36.431   2.889
 5454W        W66765   1.745  17.580  10.645
 5455W        W66766  27.486   4.304   0.324
 5456W        W66767  17.728  12.272  14.349
 5457W        W66768  12.273  32.079   9.958
 5458W        W66769  22.128  22.724   0.419
 5459W        W66770  26.613  32.082  13.960
 5460W        W66771  43.312  41.314  10.955
 5461W        W66772   4.343   6.216   2.206
 5462W        W66773  40.856  35.380  11.445
 5463W        W66774  40.905  40.310   3.286
 5464W        W66775  38.427  23.497  11.382
 5465W        W66776  36.416  22.596   4.268
 5466W        W66777  43.922  36.531  14.353
 5467W        W66778  23.062   6.703  14.854
 5468W        W66779  43.850  40.449   2.865
 5469W        W66780   6.311   6.287  13.391
 5470W        W66781  23.111  15.688   1.765
 5471W        W66782  30.532  33.468  10.588
 5472W        W66783   9.864  21.208   3.361
 5473W        W66784  28.062  39.507  13.813
 5474W        W66785  20.132  15.711   2.344
 5475W        W66786  28.535   1.320  14.006
 5476W        W66787   7.738  17.647   5.213
 5477W        W66788  25.506  15.784  10.564
 5478W        W66789  44.848  20.255  12.867
 5479W        W66790   8.251  26.130  11.124
 5480W        W66791  35.904  33.393   3.166
 5481W        W66792  28.636  24.060   3.375
 5482W        W66793  10.720  13.632   2.869
 5483W        W66794   3.460  32.628  11.404
 5484W        W66795  18.277   9.295   0.885
 5485W        W66796   7.836   6.399  14.969
 5486W        W66797  24.991  19.248   1.895
 5487W        W66798   1.250  25.669  12.503
 5488W        W66799  11.335  13.623  10.580
 5489W        W66800  28.147  13.231   2.865
 5490W        W66801  29.124  21.253  10.543
 5491W        W66802  27.159  44.317  10.547
 5492W        W66803   2.750  41.903   1.851
 5493W        W66804  12.334  41.381  11.960
 5494W        W66805  27.962  26.116   3.670
 5495W        W66806  28.622  10.748  14.012
 5496W        W66807   6.833  19.734  10.641
 5497W        W66808  26.186  17.187  11.122
 5498W        W66809  36.995   3.905   0.868
 5499W        W66810  22.179  13.678   4.327
 5500W        W66811  12.845  12.832  13.353
 5501W        W66812  21.646  22.227  10.992
 5502W        W66813  28.059  42.342   3.785
 5503W        W66814   3.836  28.038  13.913
 5504W        W66815  17.738   2.773  14.965
 5505W        W66816  17.729   0.295   3.828
 5506W        W66817  33.938  43.769  12.350
 5507W        W66818  31.472  35.876   1.334
 5508W        W66819  21.219   1.885  13.901
 5509W        W66820  42.965   5.436   4.753
 5510W        W66821  24.135   2.741  14.314
 5511W        W66822  37.021  14.625   2.764
 5512W        W66823  26.458   0.252  10.934
 5513W        W66824  37.343  32.895   3.648
 5514W        W66825  29.615  34.898   5.120
 5515W        W66826  12.257  21.046   4.757
 5516W        W66827  10.868  39.482  11.587
 5517W        W66828  36.918  41.993   2.675
 5518W        W66829  16.196  34.455  13.383
 5519W        W66830  20.648  27.011   2.829
 5520W        W66831  36.001  13.116   2.722
 5521W        W66832   9.321  43.905   0.273
 5522W        W66833  11.830  10.354  11.902
 5523W        W66834  25.149  22.197   2.366
 5524W        W66835  40.351  24.512  12.895
 5525W        W66836  28.634  10.165   4.746
 5526W        W66837   2.932  25.576   3.849
 5527W        W66838  24.593  19.168   3.196
 5528W        W66839  13.146  42.380   4.119
 5529W        W66840  13.668  24.666   0.744
 5530W        W66841  17.691  11.289  11.904
 5531W        W66842  31.011  39.521   2.275
 5532W        W66843  42.956  38.025   3.714
 5533W        W66844  15.817  43.472  12.361
 5534W        W66845  10.853  16.573  12.355
 5535W        W66846  26.659  20.245  10.980
 5536W        W66847  24.170  24.494   2.745
 5537W        W66848  32.607  23.018   3.757
 5538W        W66849  32.518  30.013  13.444
 5539W        W66850  19.662   6.318   2.211
 5540W        W66851   1.868  32.463  11.056
 5541W        W66852   4.364   4.393   3.257
 5542W        W66853  14.810  40.517   0.323
 5543W        W66854  14.320  10.662  13.401
 5544W        W66855  25.084  16.136  10.425
 5545W        W66856  18.700  22.167  11.529
 5546W        W66857   3.414   0.384  11.105
 5547W        W66858  38.881   0.294   4.188
 5548W        W66859   5.434   4.368   3.211
 5549W        W66860  32.505  18.219   2.238
 5550W        W66861   5.913  41.847  14.367
 5551W        W66862  42.332  15.579  14.939
 5552W        W66863   1.246  13.350   4.215
 5553W        W66864  17.741  34.887   3.703
 5554W        W66865  30.910   3.950   2.327
 5555W        W66866  35.022  29.960   2.360
 5556W        W66867  27.104  35.421   4.663
 5557W        W66868  34.012   1.927   4.224
 5558W        W66869  19.077  11.347  13.987
 5559W        W66870  17.682  11.855   2.744
 5560W        W66871  35.977  16.657   3.678
 5561W        W66872  19.285  24.184   4.764
 5562W        W66873  18.256  31.536  13.385
 5563W        W66874  19.598   2.925  11.563
 5564W        W66875   1.789  39.393   1.314
 5565W        W66876  20.120  37.452   4.293
 5566W        W66877  44.003  43.830  14.333
 5567W        W66878   2.241  18.691  12.931
 5568W        W66879  18.235  19.710   3.287
 5569W        W66880  28.943  18.081  14.918
 5570W        W66881  40.947  28.105   3.350
 5571W        W66882  43.285  30.517   5.129
 5572W        W66883  22.656  39.539  11.057
 5573W        W66884  40.010  34.074  13.436
 5574W        W66885  37.358  32.557   0.814
 5575W        W66886  43.876  19.110   4.219
 5576W        W66887  44.370   3.443   0.756
 5577W        W66888  44.372  41.924   3.252
 5578W        W66889   9.889  44.489  12.563
 5579W        W66890  22.687  36.915   4.124
 5580W        W66891  42.441   5.872  11.902
 5581W        W66892  43.513   8.361   3.661
 5582W        W66893   8.779  15.184  12.930
 5583W        W66894  25.606  23.167   1.240
 5584W        W66895  42.824  17.306  12.428
 5585W        W66896  10.811   8.823   1.804
 5586W        W66897  18.100   6.874   2.402
 5587W        W66898   6.730  32.099   3.207
 5588W        W66899  30.121  21.234  12.849
 5589W        W66900  32.939  30.013  10.992
 5590W        W66901   0.964   3.924  10.626
 5591W        W66902   1.385   5.754   0.797
 5592W        W66903   1.282  11.657  13.923
 5593W        W66904  38.969  16.630   4.329
 5594W        W66905  19.672  11.362  10.495
 5595W        W66906   2.455  42.471   2.847
 5596W        W66907   1.824   6.784   0.904
 5597W        W66908  40.497  32.512   1.440
 5598W        W66909  28.448  37.474   3.729
 5599W        W66910  26.701   8.742   0.871
 5600W        W66911  30.576  27.094  12.052
 5601W        W66912  27.449  23.541  14.938
 5602W        W66913  31.469  24.646  11.943
 5603W        W66914  37.898  17.116   0.741
 5604W        W66915  25.094  24.668  10.476
 5605W        W66916   1.442   2.926   3.629
 5606W        W66917  16.128  31.567  12.412
 5607W        W66918  29.456  43.932   0.256
 5608W        W66919  23.195  26.588  14.960
 5609W        W66920   2.404  28.661   1.768
 5610W        W66921  24.163  10.278  12.502
 5611W        W66922  23.217  34.927   2.350
 5612W        W66923  32.565   8.737  14.375
 5613W        W66924   4.258  19.097  12.550
 5614W        W66925  28.982  15.815  11.514
 5615W        W66926  20.230  12.856   4.199
 5616W        W66927  34.420   1.253   3.195
 5617W        W66928  17.580  40.826   0.866
 5618W        W66929   9.675  36.467  10.975
 5619W        W66930  32.447  41.524  14.424
 5620W        W66931  11.741   0.797   5.205
 5621W        W66932   1.413  21.034   4.119
 5622W        W66933  40.436  24.074   2.704
 5623W        W66934  31.496   9.215  13.868
 5624W        W66935  25.176  29.157   2.759
 5625W        W66936  30.914  20.066  13.905
 5626W        W66937  23.526  44.840   4.633
 5627W        W66938   0.769  33.477   1.258
 5628W        W66939  10.850  36.976  13.527
 5629W        W66940   6.359  32.420  12.827
 5630W        W66941  34.009  31.967   5.088
 5631W        W66942  27.463  25.140   4.789
 5632W        W66943  18.159  34.477   3.683
 5633W        W66944   7.201  38.542  10.986
 5634W        W66945  37.458   0.319  14.514
 5635W        W66946  13.678   3.339   4.324
 5636W        W66947  22.635  27.531  14.472
 5637W        W66948   9.392  34.545  11.031
 5638W        W66949   9.205  15.823  13.829
 5639W        W66950  21.146  20.197   5.282
 5640W        W66951  10.736  31.092  11.372
 5641W        W66952   8.733  41.317  14.516
 5642W        W66953  28.500  16.243   3.331
 5643W        W66954  29.089  32.445  13.014
 5644W        W66955  37.414  40.549   2.278
 5645W        W66956  12.258   5.738  10.620
 5646W        W66957   8.161  14.824  13.046
 5647W        W66958   4.222   9.853   2.889
 5648W        W66959  32.091  31.120  12.873
 5649W        W66960  19.040  30.657  14.393
 5650W        W66961   3.407   5.758  12.921
 5651W        W66962   3.371  24.593   3.803
 5652W        W66963  40.513  43.844  12.905
 5653W        W66964  16.663  19.170   2.839
 5654W        W66965   0.322  22.672  11.379
 5655W        W66966  10.715   0.791  12.003
 5656W        W66967  10.869  15.769   4.836
 5657W        W66968  17.709  24.691   2.708
 5658W        W66969  18.283   2.330   3.260
 5659W        W66970  18.077  10.683   1.248
 5660W        W66971  29.487  36.969   4.654
 5661W        W66972  19.194   5.206   4.795
 5662W        W66973  43.511  33.499   4.707
 5663W        W66974  32.498  16.139  14.797
 5664W        W66975  41.335  26.168  13.547
 5665W        W66976   1.245  41.915  12.048
 5666W        W66977  42.876  19.253   2.766
 5667W        W66978   0.886  44.411   1.903
 5668W        W66979  10.790  15.748   2.327
 5669W        W66980  32.543  34.882  12.094
 5670W        W66981  23.055  16.120   3.688
 5671W        W66982   0.486  13.828  10.946
 5672W        W66983  40.477  13.815  14.010
 5673W        W66984  43.433  29.941   0.770
 5674W        W66985  40.456  40.486   0.908
 5675W        W66986  23.033  27.456   3.739
 5676W        W66987  22.099  21.708   2.801
 5677W        W66988  38.418  16.241   1.261
 5678W        W66989  25.610  38.968  10.938
 5679W        W66990  30.647  31.451   2.720
 5680W        W66991  26.135  37.838  13.448
 5681W        W66992  30.627  28.460  10.554
 5682W        W66993  35.066   2.226   4.298
 5683W        W66994  42.311   2.268  11.905
 5684W        W66995  23.211   5.214   0.786
 5685W        W66996   4.801  40.387  10.625
 5686W        W66997  33.023  11.228   4.206
 5687W        W66998  35.873  34.896   9.996
 5688W        W66999  21.612  22.106   0.318
 5689W        W67000   0.892  32.993   3.273
 5690W        W67001  38.430  38.566  13.396
 5691W        W67002  20.077   2.773  10.919
 5692W        W67003  12.339   0.278   4.158
 5693W        W67004   4.724  35.907   0.836
 5694W        W67005  24.542   1.451   2.402
 5695W        W67006   2.458  13.192  12.826
 5696W        W67007  25.624  36.447   4.735
 5697W        W67008  19.051  29.070   3.865
 5698W        W67009   5.776  44.425  14.993
 5699W        W67010  13.689   9.280   4.674
 5700W        W67011   1.383   7.189   2.388
 5701W        W67012  34.883  37.520   3.780
 5702W        W67013  29.532  15.101   0.830
 5703W        W67014  30.419   3.338  12.488
 5704W        W67015  33.382  10.856  12.954
 5705W        W67016   1.474  39.405   1.443
 5706W        W67017  29.649  19.110   2.778
 5707W        W67018   0.845   7.246   3.260
 5708W        W67019  16.785  30.523   0.918
 5709W        W67020  40.839  10.866  12.542
 5710W        W67021  30.100  17.151  12.929
 5711W        W67022  38.433  42.438   0.336
 5712W        W67023   5.894   3.310  14.385
 5713W        W67024  23.686  43.365  11.862
 5714W        W67025   6.899  40.441  11.450
 5715W        W67026  19.196  22.737  10.423
 5716W        W67027  25.712  44.983   2.243
 5717W        W67028  16.574  13.107   2.742
 5718W        W67029  30.068  27.646   2.903
 5719W        W67030  25.076   3.831   3.219
 5720W        W67031  28.631   1.413  10.923
 5721W        W67032  39.012  13.266  11.025
 5722W        W67033  23.694   6.810   4.742
 5723W        W67034  15.145   4.287   3.355
 5724W        W67035  42.932  36.575  12.352
 5725W        W67036  29.629   6.857   3.297
 5726W        W67037  39.850  28.587  14.447
 5727W        W67038  15.739  26.659  10.045
 5728W        W67039  32.398  27.966  11.473
 5729W        W67040  20.195  39.322  12.406
 5730W        W67041  29.521  14.700   3.378
 5731W        W67042  33.598  40.446   1.895
 5732W        W67043  29.116   8.725  13.508
 5733W        W67044   9.886  21.512  10.504
 5734W        W67045   3.365  33.605  13.949
 5735W        W67046  35.070   1.268  14.992
 5736W        W67047  22.175  35.373  13.334
 5737W        W67048  35.419  26.692  13.502
 5738W        W67049  44.368  26.645  10.582
 5739W        W67050   7.197  25.651  12.467
 5740W        W67051  38.971  19.056   4.669
 5741W        W67052  26.547  21.065   4.128
 5742W        W67053  19.134  28.963  10.643
 5743W        W67054   6.183   1.311   1.290
 5744W        W67055  22.699  24.495   2.828
 5745W        W67056  27.100  23.593  14.339
 5746W        W67057  13.126  28.640  10.611
 5747W        W67058  12.120  43.456   2.676
 5748W        W67059  44.765  24.679   1.837
 5749W        W67060  15.764  18.067   4.217
 5750W        W67061  39.546   2.405  13.821
 5751W        W67062  24.054  43.948   2.301
 5752W        W67063  43.975  23.500  14.822
 5753W        W67064  44.005  18.235  13.430
 5754W        W67065  43.497  25.703   3.211
 5755W        W67066  25.160  41.378   1.807
 5756W        W67067  21.626   5.879   3.175
 5757W        W67068   8.877  22.638  10.545
 5758W        W67069  32.453  13.107  13.988
 5759W        W67070  32.142  22.675   4.609
 5760W        W67071  41.035  14.118  12.573
 5761W        W67072  40.948  34.051   3.667
 5762W        W67073  41.923  34.102  14.297
 5763W        W67074  39.964  35.361  10.994
 5764W        W67075  31.414   0.794  13.945
 5765W        W67076  37.949  37.849  10.504
 5766W        W67077  21.117  22.030   3.160
 5767W        W67078  40.992  19.103   0.434
 5768W        W67079  22.225  43.823   1.408
 5769W        W67080  18.637  18.739  13.896
 5770W        W67081  28.156   9.662   1.729
 5771W        W67082   0.933   5.752  11.109
 5772W        W67083  29.628  14.331   3.776
 5773W        W67084  13.265   7.858   2.210
 5774W        W67085  23.684   0.471   3.838
 5775W        W67086   6.857   2.942   0.319
 5776W        W67087  34.912  16.104  14.983
 5777W        W67088  38.505   0.924  11.111
 5778W        W67089  18.652  12.763  11.027
 5779W        W67090  40.954  32.492   3.147
 5780W        W67091   5.353  24.660  13.362
 5781W        W67092  44.979   1.857   4.822
 5782W        W67093  23.117  37.925  11.124
 5783W        W67094  31.003   3.284  13.796
 5784W        W67095  24.207  10.769   4.131
 5785W        W67096  30.453  16.246  12.462
 5786W        W67097   1.380  13.304   3.720
 5787W        W67098  35.960  23.658   3.864
 5788W        W67099  21.124   5.779  14.876
 5789W        W67100  31.432  32.599  12.393
 5790W        W67101  40.989  26.972   1.253
 5791W        W67102  41.389  43.795  13.380
 5792W        W67103  33.946  20.035  11.905
 5793W        W67104   8.805   6.678  13.013
 5794W        W67105   3.816  26.702   3.185
 5795W        W67106   0.412  22.651  12.940
 5796W        W67107  16.174  22.007   1.259
 5797W        W67108   2.325  37.988  12.563
 5798W        W67109  21.701  31.133   4.745
 5799W        W67110  10.758  34.974  12.074
 5800W        W67111  35.550  36.418  10.979
 5801W        W67112  15.225  29.518  13.421
 5802W        W67113  34.029  15.159  12.087
 5803W        W67114   0.861   9.813  12.536
 5804W        W67115  18.186   1.872  10.485
 5805W        W67116  31.972  10.752  12.879
 5806W        W67117  20.526  38.831  11.600
 5807W        W67118  30.001   7.688  11.387
 5808W        W67119  38.961  31.410  11.491
 5809W        W67120  22.677  33.529   2.304
 5810W        W67121  35.093  15.601   3.696
 5811W        W67122   8.660  18.757  13.348
 5812W        W67123   0.890  26.115  14.959
 5813W        W67124  13.772  16.742  14.359
 5814W        W67125   8.338  22.214   1.792
 5815W        W67126   2.828  37.529   2.324
 5816W        W67127  20.163  37.924  14.001
 5817W        W67128  28.045  29.931  11.917
 5818W        W67129   7.371  19.160   1.306
 5819W        W67130  32.535   6.858  13.836
 5820W        W67131  27.041   6.813   2.212
 5821W        W67132   0.803   9.746   0.445
 5822W        W67133   3.242  36.938  10.505
 5823W        W67134  41.473  42.391   0.276
 5824W        W67135  20.713  22.649  13.891
 5825W        W67136  42.381   3.403   1.217
 5826W        W67137  42.807  22.006  12.384
 5827W        W67138  20.623  28.007  10.407
 5828W        W67139  37.383   5.387  14.989
 5829W        W67140  44.922  36.972   1.269
 5830W        W67141  12.672  27.994   4.749
 5831W        W67142  18.680  22.069   4.709
 5832W        W67143   4.332   7.357   0.333
 5833W        W67144  12.627  11.710  13.419
 5834W        W67145  19.751  27.121  14.915
 5835W        W67146  31.493  14.705  11.122
 5836W        W67147  22.148  33.417  10.607
 5837W        W67148   9.846  13.742   2.711
 5838W        W67149  23.712   1.314   2.392
 5839W        W67150  10.278   3.332   1.233
 5840W        W67151   4.803  44.477  14.976
 5841W        W67152  34.925   2.311   2.245
 5842W        W67153  20.085   3.916  12.472
 5843W        W67154  11.825   0.921  14.781
 5844W        W67155  32.059  33.875  11.907
 5845W        W67156  17.617   3.274  11.036
 5846W        W67157  25.083   3.435  11.873
 5847W        W67158  21.625  44.783  10.606
 5848W        W67159  28.603  26.093   1.755
 5849W        W67160  15.108  29.456   1.881
 5850W        W67161  39.397  23.506  12.951
 5851W        W67162  26.012  39.053   2.346
 5852W        W67163  39.313  20.765  13.406
 5853W        W67164  38.394  15.174   0.268
 5854W        W67165  29.542  13.273   2.387
 5855W        W67166  24.607  32.536   9.954
 5856W        W67167   7.239  12.141  11.961
 5857W        W67168  31.115  20.532  13.036
 5858W        W67169  19.134  23.224   2.298
 5859W        W67170  31.445  41.984   2.790
 5860W        W67171   0.282   6.715   0.315
 5861W        W67172  18.205  28.137   4.223
 5862W        W67173  38.842  16.590   3.708
 5863W        W67174  15.725  28.968  10.980
 5864W        W67175  38.500   6.851   0.320
 5865W        W67176  38.021  16.289   3.740
 5866W        W67177  32.916  35.574   2.761
 5867W        W67178  37.924   0.868   1.821
 5868W        W67179  24.634   8.706  14.427
 5869W        W67180  38.515  29.932   1.275
 5870W        W67181  31.090  22.630   4.802
 5871W        W67182  34.032  33.596   3.759
 5872W        W67183  22.068  13.696   3.630
 5873W        W67184  15.738  43.922   4.768
 5874W        W67185  27.976  42.847   5.104
 5875W        W67186  43.328  15.628   2.711
 5876W        W67187  28.435   8.230  13.445
 5877W        W67188   7.723   6.299   4.254
 5878W        W67189  36.379  35.370  12.366
 5879W        W67190  11.633  31.078  10.419
 5880W        W67191  29.113  34.927   2.413
 5881W        W67192  24.658   3.737   1.305
 5882W        W67193  34.397  29.934   0.951
 5883W        W67194  21.743  34.598  12.836
 5884W        W67195  22.670  43.765   0.405
 5885W        W67196  41.862  37.905  11.416
 5886W        W67197  13.135  41.336  14.842
 5887W        W67198  19.555  30.951  14.409
 5888W        W67199  27.127  26.566  12.399
 5889W        W67200  28.985   9.201   3.212
 5890W        W67201  36.429  20.757  10.894
 5891W        W67202  38.556  24.631  13.905
 5892W        W67203   7.311  38.541   0.296
 5893W        W67204  36.441  40.834  12.016
 5894W        W67205  19.151  32.410  12.451
 5895W        W67206  27.467  31.053   4.740
 5896W        W67207   6.748   6.748  11.869
 5897W        W67208  33.498  26.469   2.235
 5898W        W67209  33.893  21.263  11.996
 5899W        W67210   4.871  27.488  14.969
 5900W        W67211  22.197  39.053  11.373
 5901W        W67212  22.511  21.047   3.786
 5902W        W67213  35.884   1.393  13.987
 5903W        W67214  21.108  30.630   1.722
 5904W        W67215  17.103   3.719   0.951
 5905W        W67216   1.466  34.591   4.799
 5906W        W67217  43.872  18.600   0.285
 5907W        W67218   0.398  30.971   4.663
 5908W        W67219   7.359   0.392  12.909
 5909W        W67220  11.363  26.072  10.607
 5910W        W67221  31.999  27.969   0.728
 5911W        W67222  29.507  22.070   1.364
 5912W        W67223  18.617  24.159   0.859
 5913W        W67224   5.194  35.602  12.919
 5914W        W67225  19.205  28.630  10.619
 5915W        W67226  15.719  10.179  14.501
 5916W        W67227  24.104  37.402   1.262
 5917W        W67228  30.478  41.797   4.148
 5918W        W67229  15.266  28.171   3.149
 5919W        W67230  36.371  42.997   3.177
 5920W        W67231  32.627  17.270   4.122
 5921W        W67232  41.902  24.513   3.842
 5922W        W67233  43.476  31.089  14.847
 5923W        W67234   0.961  27.508   4.159
 5924W        W67235  42.459  32.459   1.853
 5925W        W67236  43.302  12.637  10.461
 5926W        W67237  44.319  31.560   3.706
 5927W        W67238  35.493   8.887   4.670
 5928W        W67239   7.717   2.444   4.751
 5929W        W67240   7.388  42.018  10.969
 5930W        W67241  24.696   2.395   4.812
 5931W        W67242  35.567  37.953  12.947
 5932W        W67243  43.421  11.757   4.774
 5933W        W67244  16.221  24.670   1.910
 5934W        W67245  12.757  29.984  14.960
 5935W        W67246  39.995  36.527  13.944
 5936W        W67247  21.690  15.135   2.400
 5937W        W67248   8.813  42.889   3.321
 5938W        W67249  20.732  30.622  13.472
 5939W        W67250  24.657  24.989  13.423
 5940W        W67251  15.156  23.507  14.331
 5941W        W67252  17.155  41.868  12.910
 5942W        W67253  33.460   5.397  13.020
 5943W        W67254  42.477  37.434  13.450
 5944W        W67255  34.518  39.392  11.906
 5945W        W67256  18.596  29.125   1.450
 5946W        W67257  37.000   4.731   1.329
 5947W        W67258  18.556  15.152  14.446
 5948W        W67259  13.814  42.871   4.162
 5949W        W67260  32.597  11.753   2.869
 5950W        W67261  13.308   5.298  12.930
 5951W        W67262  38.424   8.716  14.009
 5952W        W67263  40.890  34.514  14.458
 5953W        W67264  19.550  20.687  11.384
 5954W        W67265   0.469  44.820   0.466
 5955W        W67266  27.612  23.694  11.411
 5956W        W67267  25.074  26.605  11.912
 5957W        W67268  24.046  36.862  10.903
 5958W        W67269  42.314  14.131  10.898
 5959W        W67270  16.239   5.817   0.753
 5960W        W67271  13.322  12.625  14.506
 5961W        W67272  26.624  14.255  13.912
 5962W        W67273  12.693  31.068   4.680
 5963W        W67274  19.285  42.351  14.877
 5964W        W67275  23.514  35.904   1.830
 5965W        W67276   1.325  43.287   1.400
 5966W        W67277  42.521  11.206   1.882
 5967W        W67278  11.336  23.071   4.620
 5968W        W67279  24.609   1.331   0.425
 5969W        W67280  29.040  12.660   3.681
 5970W        W67281   6.916  36.493   2.873
 5971W        W67282  23.550  23.706   2.768
 5972W        W67283  44.490   3.437  10.414
 5973W        W67284  34.380  37.394  13.875
 5974W        W67285  39.066  10.781   1.761
 5975W        W67286  36.500   7.808  14.970
 5976W        W67287  36.375  42.032  14.342
 5977W        W67288  26.501  41.946   2.751
 5978W        W67289  14.719  39.469   1.813
 5979W        W67290  30.119  39.338  13.437
 5980W        W67291   1.944  24.580  10.995
 5981W        W67292  27.629  19.572   4.203
 5982W        W67293  21.161  35.393   1.383
 5983W        W67294   6.287  35.450   4.222
 5984W        W67295   9.194  36.923  14.955
 5985W        W67296  13.349  43.421   2.330
 5986W        W67297  44.794  35.089   0.423
 5987W        W67298  43.400  13.324   3.815
 5988W        W67299  32.118  37.354  10.987
 5989W        W67300  33.982  30.966   1.230
 5990W        W67301  42.306  22.995   2.220
 5991W        W67302  37.003  26.058  12.368
 5992W        W67303  42.010  21.609  11.878
 5993W        W67304  17.677  38.948   3.218
 5994W        W67305  34.431  34.554   0.893
 5995W        W67306  31.025  13.787   2.726
 5996W        W67307   8.704  19.272   0.957
 5997W        W67308  20.555  17.683   4.173
 5998W        W67309  19.752  35.367  11.919
 5999W        W67310  43.405  27.136   4.326
 6000W        W67311   5.798  41.881  10.408
 6001W        W67312   6.409  22.719   4.598
 6002W        W67313  32.515  10.374   2.862
 6003W        W67314   1.867  24.499   3.148
 6004W        W67315  28.062  31.454   1.268
 6005W        W67316  29.134   5.368   3.217
 6006W        W67317   7.191   0.888   0.436
 6007W        W67318  21.576  20.631   4.715
 6008W        W67319  21.200  11.144  10.992
 6009W        W67320   4.390  32.529  10.428
 6010W        W67321   9.364   3.326   1.249
 6011W        W67322   3.814   6.295  13.322
 6012W        W67323  40.448  19.182   1.894
 6013W        W67324  24.670  21.085   2.866
 6014W        W67325  26.644  20.532   4.230
 6015W        W67326  35.030   8.703   3.347
 6016W        W67327  16.233  38.970  12.416
 6017W        W67328  29.445  13.600   2.846
 6018W        W67329  41.513  44.305   2.901
 6019W        W67330  25.190  12.268   3.809
 6020W        W67331  35.510  22.571  12.026
 6021W        W67332  37.449  25.985   4.601
 6022W        W67333   7.880  30.606   4.239
 6023W        W67334   3.244   6.202  12.504
 6024W        W67335  20.541  31.954   1.731
 6025W        W67336  19.094   5.304  14.826
 6026W        W67337   9.859  16.128  11.114
 6027W        W67338  12.246  42.789  12.065
 6028W        W67339  39.918  21.688  11.466
 6029W        W67340  31.128   3.307  14.324
 6030W        W67341  25.124   5.331   2.325
 6031W        W67342   6.198  12.139   0.837
 6032W        W67343   8.706  36.010  10.129
 6033W        W67344  17.608  39.394  11.433
 6034W        W67345   8.362   4.705   1.722
 6035W        W67346  36.542  28.656  11.869
 6036W        W67347  17.711  36.017   3.742
 6037W        W67348  32.455  35.093  14.327
 6038W        W67349  23.588   5.826   4.219
 6039W        W67350  27.581   7.247   5.150
 6040W        W67351  34.379  12.616   0.377
 6041W        W67352  15.765  32.552  11.374
 6042W        W67353  15.286  14.330   3.365
 6043W        W67354  14.281  35.466  12.849
 6044W        W67355  42.499   4.224  10.910
 6045W        W67356  39.906   0.258   2.300
 6046W        W67357  42.851  23.153   0.924
 6047W        W67358  37.837   1.420   3.229
 6048W        W67359  24.580  20.537   4.676
 6049W        W67360  32.933   3.732   4.116
 6050W        W67361  29.039  35.947  14.907
 6051W        W67362  15.781  42.016   1.292
 6052W        W67363   1.819  35.550  14.464
 6053W        W67364  22.571   8.222   3.171
 6054W        W67365  31.935   0.379   0.873
 6055W        W67366   0.742  27.488  10.571
 6056W        W67367  34.510   7.179  12.916
 6057W        W67368  21.214   0.360  11.946
 6058W        W67369  18.679  25.146   4.172
 6059W        W67370  21.601  32.592  14.361
 6060W        W67371  17.238   2.745  11.554
 6061W        W67372  13.285  14.702  11.388
 6062W        W67373  42.855  44.398  13.492
 6063W        W67374   1.279  37.502  13.881
 6064W        W67375  21.137  32.563   2.364
 6065W        W67376  11.742  42.825  14.910
 6066W        W67377   9.325  13.171  13.476
 6067W        W67378  13.261  12.764  10.161
 6068W        W67379  19.099  24.529   0.796
 6069W        W67380   7.714  33.111  12.038
 6070W        W67381  41.408   3.791  14.907
 6071W        W67382   8.893  34.401   3.225
 6072W        W67383  21.230   4.940   2.393
 6073W        W67384   4.734  10.374   5.222
 6074W        W67385  39.856  44.344   3.669
 6075W        W67386  22.216  11.752  13.872
 6076W        W67387   7.281  22.061   1.798
 6077W        W67388  43.793  26.683  10.471
 6078W        W67389   0.413  15.100  12.933
 6079W        W67390   0.425  38.348   4.600
 6080W        W67391  37.358  36.394  11.982
 6081W        W67392  36.505  20.052  14.506
 6082W        W67393   5.878  44.296   3.720
 6083W        W67394   0.757  15.677  14.865
 6084W        W67395  30.939  43.772  12.835
 6085W        W67396  20.140  26.981  13.854
 6086W        W67397   2.738  43.772   4.190
 6087W        W67398   3.417  44.321  14.494
 6088W        W67399  41.358  44.372   4.730
 6089W        W67400   7.825  18.565   4.306
 6090W        W67401  35.475  31.546   3.314
 6091W        W67402  10.731  31.906   2.710
 6092W        W67403  19.636  36.028  13.344
 6093W        W67404  30.584  21.551  13.024
 6094W        W67405  18.640  16.229   1.262
 6095W        W67406  24.671  18.144   3.847
 6096W        W67407  19.164   1.774  13.542
 6097W        W67408  31.643  42.862  11.072
 6098W        W67409  10.647  21.211   3.634
 6099W        W67410  20.033  21.171   2.240
 6100W        W67411  27.576  37.065  13.824
 6101W        W67412  40.977  25.528   3.675
 6102W        W67413  18.194  40.823  12.438
 6103W        W67414  20.118  15.634   0.439
 6104W        W67415   3.881  29.064   3.812
 6105W        W67416  13.655   0.899   1.716
 6106W        W67417  21.230  29.156  10.113
 6107W        W67418  15.767  28.983   2.341
 6108W        W67419   3.255  33.114  12.071
 6109W        W67420  27.155  13.696  10.523
 6110W        W67421  40.327   4.359   3.782
 6111W        W67422  21.147   8.804  10.892
 6112W        W67423  22.168   3.405  13.499
 6113W        W67424  16.631  29.658  13.020
 6114W        W67425  36.555  10.755  12.037
 6115W        W67426   2.391  31.453  11.923
 6116W        W67427  20.254  13.228  11.487
 6117W        W67428  36.401  42.311   2.889
 6118W        W67429  41.299   8.706  12.367
 6119W        W67430  28.556  44.282  11.498
 6120W        W67431  43.939  43.788   4.174
 6121W        W67432  23.531  12.254   4.153
 6122W        W67433   7.722  24.218   1.330
 6123W        W67434  14.282  16.590   1.421
 6124W        W67435  42.352  10.726   4.690
 6125W        W67436  43.421  26.534   0.270
 6126W        W67437  25.070  18.196   3.788
 6127W        W67438  43.486  40.809   3.660
 6128W        W67439  31.985  36.555  13.841
 6129W        W67440   3.282  41.521   2.666
 6130W        W67441  19.685  16.774  10.571
 6131W        W67442  17.167   9.699  11.863
 6132W        W67443  24.550  40.871  13.978
 6133W        W67444  28.967  37.957  14.423
 6134W        W67445  11.167  26.114   0.352
 6135W        W67446   1.330  28.449   3.775
 6136W        W67447   6.375  25.126  13.341
 6137W        W67448  38.888  43.819   3.222
 6138W        W67449  41.500  22.123   1.269
 6139W        W67450  36.963  36.373  10.001
 6140W        W67451  10.265  20.057  12.946
 6141W        W67452  37.481   5.848  11.880
 6142W        W67453  15.742   9.772  12.480
 6143W        W67454   4.246  26.055   4.693
 6144W        W67455  23.681  39.462  14.021
 6145W        W67456  11.313  21.615  12.473
 6146W        W67457  27.154  14.309   4.243
 6147W        W67458  43.021  16.177  11.559
 6148W        W67459  11.127  11.867   3.668
 6149W        W67460  42.485  34.086   0.414
 6150W        W67461  12.643  36.504   2.855
 6151W        W67462   9.293   0.814  14.480
 6152W        W67463   8.717   9.235   4.168
 6153W        W67464   5.774  41.515  10.541
 6154W        W67465   6.823  24.669  13.481
 6155W        W67466  27.449  43.825  14.930
 6156W        W67467  27.527   5.318   2.191
 6157W        W67468  29.023  40.945  10.897
 6158W        W67469  17.690   7.873   1.423
 6159W        W67470  13.687   2.891   5.182
 6160W        W67471  21.254  44.395   1.852
 6161W        W67472  38.916  36.997  13.020
 6162W        W67473  24.518  11.160   0.257
 6163W        W67474  11.711  21.122   4.313
 6164W        W67475  34.110  26.059   4.790
 6165W        W67476  40.827   6.876  10.582
 6166W        W67477  34.001  27.078  14.490
 6167W        W67478   7.765  41.490  12.423
 6168W        W67479  16.747   8.685  14.875
 6169W        W67480  35.864   4.920  13.816
 6170W        W67481  37.572   7.304   2.843
 6171W        W67482  20.098  16.576   2.846
 6172W        W67483   3.804  26.999   1.723
 6173W        W67484  39.331  27.012   0.427
 6174W        W67485   1.909   6.416   0.306
 6175W        W67486  40.953   8.800   3.293
 6176W        W67487  13.323  30.031  10.949
 6177W        W67488  12.754  13.318   3.171
 6178W        W67489  19.545  41.035  11.423
 6179W        W67490  38.862  40.317  14.027
 6180W        W67491  37.970   4.741   0.767
 6181W        W67492   4.429  23.210   4.630
 6182W        W67493  16.627  16.285  11.967
 6183W        W67494   5.930   9.256  10.422
 6184W        W67495  12.730   3.316  13.883
 6185W        W67496  24.616   2.371  12.533
 6186W        W67497  20.695  19.719   4.774
 6187W        W67498   9.210  42.441  11.004
 6188W        W67499  19.154  44.789  12.952
 6189W        W67500  20.225  43.483   3.817
 6190W        W67501  41.823  22.028   2.290
 6191W        W67502  37.456  42.512   3.641
 6192W        W67503  43.781   8.871   0.268
 6193W        W67504  41.491  21.741   3.355
 6194W        W67505  32.913   4.711  12.060
 6195W        W67506  27.000  19.657  11.442
 6196W        W67507  39.945  38.873   4.131
 6197W        W67508  29.449  39.473  11.551
 6198W        W67509  37.964  15.801  10.439
 6199W        W67510   8.219  25.065  11.373
 6200W        W67511  27.139  15.607   0.396
 6201W        W67512  27.006  31.946   3.319
 6202W        W67513  36.959  29.049   4.739
 6203W        W67514  40.005   5.231  11.526
 6204W        W67515   5.326   0.928   2.392
 6205W        W67516  33.065  20.075  12.015
 6206W        W67517  21.616   6.186   2.828
 6207W        W67518  13.171  35.958   4.118
 6208W        W67519   9.706  29.463   3.284
 6209W        W67520  29.481  30.983  12.559
 6210W        W67521  15.157  26.989   2.812
 6211W        W67522  19.244  37.365  13.965
 6212W        W67523  20.721  13.278   0.442
 6213W        W67524  20.122  29.436   2.747
 6214W        W67525  40.052  31.413   1.431
 6215W        W67526  34.933  37.353  12.924
 6216W        W67527  27.186  20.258   3.226
 6217W        W67528  31.059  41.411  10.151
 6218W        W67529  43.382  27.448   2.796
 6219W        W67530  30.634   9.242  14.332
 6220W        W67531  44.972   8.660  11.496
 6221W        W67532  28.116  29.590   2.690
 6222W        W67533   3.841  31.004   0.889
 6223W        W67534  30.994  26.194   0.877
 6224W        W67535  12.266  10.855  14.284
 6225W        W67536  24.998  19.245  14.810
 6226W        W67537  25.711  22.657   9.972
 6227W        W67538  14.620  38.876  12.400
 6228W        W67539  32.956  17.654   4.167
 6229W        W67540  20.235  19.179   1.696
 6230W        W67541  11.846  17.261   4.226
 6231W        W67542  43.768  38.516  10.605
 6232W        W67543  41.501  30.421   4.626
 6233W        W67544  13.798  14.294  14.983
 6234W        W67545   4.368  25.580   1.786
 6235W        W67546  32.512   9.679   1.720
 6236W        W67547  16.733   8.242  14.392
 6237W        W67548  41.515  32.015  11.042
 6238W        W67549  10.172  20.763  14.025
 6239W        W67550  10.248   7.902  13.520
 6240W        W67551  15.177  23.112  13.889
 6241W        W67552   8.789  36.446   5.122
 6242W        W67553   4.394  26.177   4.310
 6243W        W67554  20.093  35.044  12.521
 6244W        W67555  30.493   8.390   0.859
 6245W        W67556  18.624   7.824  11.111
 6246W        W67557   9.278  24.702  10.614
 6247W        W67558  25.523  17.772  12.345
 6248W        W67559   4.919   8.289   4.246
 6249W        W67560  30.654  37.959   0.878
 6250W        W67561  43.487  39.337  13.396
 6251W        W67562  38.931  24.674  11.050
 6252W        W67563   0.419  42.886  11.083
 6253W        W67564  31.474   7.268  10.951
 6254W        W67565   8.383   7.319   0.467
 6255W        W67566   0.293   2.856   1.287
 6256W        W67567  15.728  13.707  12.539
 6257W        W67568   9.206  32.954  12.858
 6258W        W67569  33.563  15.752  14.834
 6259W        W67570  37.008  42.520   1.817
 6260W        W67571  24.565  15.751  12.977
 6261W        W67572   5.930  14.159  12.938
 6262W        W67573  33.519   9.889  12.534
 6263W        W67574  16.671  37.971  14.856
 6264W        W67575   5.747  34.980  14.503
 6265W        W67576  43.843  15.682   2.693
 6266W        W67577   6.363  22.066   2.235
 6267W        W67578  16.654  38.046  14.388
 6268W        W67579  28.021   9.313  10.498
 6269W        W67580  30.152  12.361   0.835
 6270W        W67581  32.920  16.311   4.172
 6271W        W67582   9.774   1.891   2.322
 6272W        W67583   3.394  37.564   0.479
 6273W        W67584  40.382  33.955  13.815
 6274W        W67585   7.251  17.220   0.844
 6275W        W67586   5.395  43.291   1.387
 6276W        W67587  31.094  11.744  12.365
 6277W        W67588  10.721  23.026   1.325
 6278W        W67589  24.545  18.764  12.448
 6279W        W67590  34.048  34.027  11.953
 6280W        W67591   6.893   2.940  13.931
 6281W        W67592  21.753  39.349   0.262
 6282W        W67593  44.409  15.698  11.935
 6283W        W67594  42.843  27.056   3.871
 6284W        W67595  18.647  29.165   1.905
 6285W        W67596  40.021  33.430  14.389
 6286W        W67597  22.075  34.065   0.425
 6287W        W67598  38.562  15.235  10.595
 6288W        W67599   1.797  36.590   1.871
 6289W        W67600  19.138   5.199   2.864
 6290W        W67601   9.187  30.941   2.798
 6291W        W67602  33.624  20.551   1.215
 6292W        W67603  35.069   6.369  13.956
 6293W        W67604  12.687   8.206   3.332
 6294W        W67605  44.787   3.340  10.038
 6295W        W67606  12.763   1.836   2.853
 6296W        W67607  30.482  32.127   1.846
 6297W        W67608  44.289  26.545   9.951
 6298W        W67609  28.594   0.797   1.435
 6299W        W67610  17.571  17.740   0.380
 6300W        W67611   9.338  16.284   1.353
 6301W        W67612  34.077  29.541  14.846
 6302W        W67613  14.733   3.214  14.026
 6303W        W67614  41.300   0.953  14.468
 6304W        W67615  23.991  36.016  10.012
 6305W        W67616  44.328  25.997  13.438
 6306W        W67617   2.397  15.130   0.309
 6307W        W67618  39.028  38.995  12.034
 6308W        W67619  30.573   9.669  13.479
 6309W        W67620  27.598  14.716   0.396
 6310W        W67621  26.134  43.837   1.908
 6311W        W67622  41.793   4.904  12.895
 6312W        W67623  22.725  37.393   0.363
 6313W        W67624  24.716  38.061   2.239
 6314W        W67625  14.237   3.882   2.335
 6315W        W67626  30.912  21.242  12.075
 6316W        W67627  31.517   0.254   3.383
 6317W        W67628   9.741  40.473   0.459
 6318W        W67629   1.880  38.411  10.535
 6319W        W67630  13.805  38.981  12.501
 6320W        W67631   8.888  14.632   4.209
 6321W        W67632  23.047  39.355  11.961
 6322W        W67633  20.083   3.296  11.564
 6323W        W67634   7.743  42.327  11.447
 6324W        W67635   5.437   0.747  12.891
 6325W        W67636  29.447  43.886  14.971
 6326W        W67637   5.390  28.164  13.473
 6327W        W67638   5.240  28.493   2.831
 6328W        W67639  25.673  35.414  11.924
 6329W        W67640  26.966  11.830  11.613
 6330W        W67641  27.185  36.506   3.736
 6331W        W67642  23.531   9.323  10.920
 6332W        W67643  30.926  39.000  14.784
 6333W        W67644  13.695   2.781   3.629
 6334W        W67645  11.645  18.547   3.661
 6335W        W67646  29.167  13.145   2.682
 6336W        W67647  37.086  24.057   0.847
 6337W        W67648   0.951  25.049  11.990
 6338W        W67649  20.102  41.509   2.854
 6339W        W67650  21.061  28.672  13.937
 6340W        W67651  31.552  29.017  10.559
 6341W        W67652  33.468  18.095   4.612
 6342W        W67653   8.377  23.501   2.784
 6343W        W67654  26.203  43.488   0.957
 6344W        W67655  20.639  35.070  12.344
 6345W        W67656  22.150  28.563  10.607
 6346W        W67657  20.232  12.276  12.896
 6347W        W67658  42.446  32.131   0.821
 6348W        W67659  36.562  23.098   1.698
 6349W        W67660  27.679  17.268   1.331
 6350W        W67661  11.147  14.802  12.068
 6351W        W67662  34.887  20.122  13.856
 6352W        W67663  28.130   9.751   0.804
 6353W        W67664  22.727  11.835  11.413
 6354W        W67665  32.048  35.090  14.493
 6355W        W67666  41.494  12.212  12.072
 6356W        W67667  25.103  32.610   1.811
 6357W        W67668  39.051   9.732   2.410
 6358W        W67669  26.487   6.407   1.819
 6359W        W67670  22.692   2.932  12.834
 6360W        W67671  16.132  23.089  12.827
 6361W        W67672  16.578  34.452   1.413
 6362W        W67673  28.491   7.696  14.498
 6363W        W67674  31.143  19.073  12.347
 6364W        W67675  44.842  41.844   0.413
 6365W        W67676  40.470  16.736   0.270
 6366W        W67677   4.924  18.153   0.852
 6367W        W67678  21.670   1.944  11.576
 6368W        W67679   6.231  37.087  14.885
 6369W        W67680   7.171  32.436  10.525
 6370W        W67681   2.269  36.521   4.771
 6371W        W67682  11.184  14.757   3.162
 6372W        W67683  38.839   0.402  10.951
 6373W        W67684  12.699  25.578  11.433
 6374W        W67685   6.264   7.185  11.461
 6375W        W67686  18.230   7.278   4.172
 6376W        W67687  25.004  42.968  13.464
 6377W        W67688  23.139  22.549  11.862
 6378W        W67689   4.857   4.309   3.675
 6379W        W67690  34.905   0.398   0.766
 6380W        W67691  15.716  21.078  11.443
 6381W        W67692   0.354  44.820   1.773
 6382W        W67693   2.831  42.013   3.295
 6383W        W67694  21.554   1.282   1.328
 6384W        W67695  27.169  21.543  13.438
 6385W        W67696  19.605   3.737  14.816
 6386W        W67697  22.087   4.923   2.672
 6387W        W67698   2.356  42.933  12.543
 6388W        W67699  39.451  36.984   2.832
 6389W        W67700  11.243  12.135   3.197
 6390W        W67701  39.319  11.315   0.295
 6391W        W67702   1.460  40.834   0.382
 6392W        W67703  19.621  28.450  12.484
 6393W        W67704  43.507  11.258  11.457
 6394W        W67705   5.323  28.099   2.189
 6395W        W67706  28.473  38.061  11.389
 6396W        W67707  18.109  35.457  12.826
 6397W        W67708   6.336  38.902  12.461
 6398W        W67709  17.703  33.100  13.524
 6399W        W67710   4.343  20.761   3.257
 6400W        W67711  34.113   8.736  11.004
 6401W        W67712  35.098  15.129   0.815
 6402W        W67713   7.770  25.027  13.966
 6403W        W67714   8.388  28.017  12.419
 6404W        W67715  19.180  12.812  14.386
 6405W        W67716  25.184  41.993  11.089
 6406W        W67717  18.207   7.701  10.644
 6407W        W67718  37.557  14.337   4.260
 6408W        W67719  14.778  39.810  13.355
 6409W        W67720  44.421  43.929   0.392
 6410W        W67721  25.196  26.527  13.040
 6411W        W67722  29.982  39.543   1.434
 6412W        W67723  10.808  39.028  11.608
 6413W        W67724   0.350   7.854   0.423
 6414W        W67725  17.690  33.432   2.871
 6415W        W67726  35.064  30.120   5.196
 6416W        W67727  36.466  15.180  14.493
 6417W        W67728  17.728  24.051  10.492
 6418W        W67729  31.450  11.767  13.317
 6419W        W67730  31.488  22.561  10.904
 6420W        W67731  30.963  29.492  14.941
 6421W        W67732  19.140  25.054  12.490
 6422W        W67733  22.695  22.693  11.016
 6423W        W67734  39.940  18.144   2.691
 6424W        W67735  22.041  28.508   2.693
 6425W        W67736  13.164  26.026  14.759
 6426W        W67737  25.599  24.489  11.951
 6427W        W67738  40.396  18.145   1.339
 6428W        W67739  24.723  13.697   2.244
 6429W        W67740  38.935  28.946   4.275
 6430W        W67741  44.466  13.335  10.580
 6431W        W67742   9.675  15.152  14.978
 6432W        W67743  17.290   3.724  11.506
 6433W        W67744  33.071  22.049  12.378
 6434W        W67745  17.253  10.376  13.913
 6435W        W67746  11.136  27.581  10.905
 6436W        W67747  40.947  13.747   0.462
 6437W        W67748  10.844  25.681   3.828
 6438W        W67749  32.574  22.706  11.484
 6439W        W67750  13.254  25.610   0.920
 6440W        W67751  20.637   4.361  11.929
 6441W        W67752  30.458   7.252   1.761
 6442W        W67753  38.538   2.893   3.713
 6443W        W67754  25.522   5.325  13.322
 6444W        W67755  33.021  39.032  12.997
 6445W        W67756   7.717  43.929  14.276
 6446W        W67757  28.960  13.784   1.346
 6447W        W67758  17.179   7.262   4.237
 6448W        W67759  28.094  22.652  13.333
 6449W        W67760  36.395  30.425  11.538
 6450W        W67761   5.881  18.770   4.164
 6451W        W67762   9.752  33.480   3.359
 6452W        W67763  42.450  24.557   4.765
 6453W        W67764   1.950  13.755   4.798
 6454W        W67765  43.856   9.335  12.915
 6455W        W67766  35.098  44.926   0.814
 6456W        W67767  19.110  34.564  11.023
 6457W        W67768  42.351   3.788  11.868
 6458W        W67769   9.298  20.747  10.497
 6459W        W67770   3.461  13.271   0.738
 6460W        W67771  24.074  43.323  12.006
 6461W        W67772   6.687  21.534  12.486
 6462W        W67773   7.745  21.051  10.603
 6463W        W67774  22.046  27.603   2.399
 6464W        W67775  32.927  38.066   2.247
 6465W        W67776   5.816  15.307  11.408
 6466W        W67777  39.892  23.588   1.285
 6467W        W67778  11.154  24.494  10.995
 6468W        W67779  13.688  21.514   1.281
 6469W        W67780  19.761   8.799   2.681
 6470W        W67781  28.473  29.658  13.850
 6471W        W67782   9.850  12.767   0.775
 6472W        W67783  38.993  39.533  13.352
 6473W        W67784  35.035  36.401  14.855
 6474W        W67785  21.243   3.709  12.552
 6475W        W67786  36.046  30.529   1.743
 6476W        W67787  44.755  35.894   3.379
 6477W        W67788  10.772  14.600   2.305
 6478W        W67789  32.473  13.693  14.800
 6479W        W67790   2.965  33.098   3.804
 6480W        W67791   8.843  20.266  14.794
 6481W        W67792  29.123  30.058  12.909
 6482W        W67793  20.030  18.560   1.914
 6483W        W67794  26.102   2.309  14.865
 6484W        W67795  36.049  20.623  12.997
 6485W        W67796   3.784  25.001   4.267
 6486W        W67797  39.045  24.180   2.270
 6487W        W67798  29.535  19.193  10.619
 6488W        W67799  27.462  32.034  12.093
 6489W        W67800   0.864  14.180   0.379
 6490W        W67801  21.610  11.291   2.184
 6491W        W67802  15.113  15.614   3.668
 6492W        W67803   1.401   7.226  14.291
 6493W        W67804  32.915  40.488  14.905
 6494W        W67805  25.516  16.292   0.394
 6495W        W67806   8.292  39.452  11.559
 6496W        W67807   8.682  22.740  14.925
 6497W        W67808  24.553  35.858   4.136
 6498W        W67809   5.310  10.351  11.023
 6499W        W67810  38.063   2.940  14.770
 6500W        W67811  30.965  24.547  10.997
 6501W        W67812  43.017  40.350  13.900
 6502W        W67813   3.800  33.932   4.140
 6503W        W67814   5.431   9.257  10.645
 6504W        W67815  40.486  31.990   3.194
 6505W        W67816  13.244  15.286  14.948
 6506W        W67817   2.457  12.659  10.539
 6507W        W67818  35.456  18.569  10.632
 6508W        W67819   9.198   5.739   2.764
 6509W        W67820  29.627  39.025   1.405
 6510W        W67821   0.864  23.589   1.368
 6511W        W67822  12.337   1.743  13.525
 6512W        W67823  38.418  36.060   2.801
 6513W        W67824   8.385  38.336   3.666
 6514W        W67825  15.591  35.436   1.860
 6515W        W67826  17.191  30.478  12.947
 6516W        W67827   5.877   9.690  11.599
 6517W        W67828  44.404  22.016  14.406
 6518W        W67829   2.322  40.511  13.986
 6519W        W67830  14.118   1.428  14.817
 6520W        W67831   2.437  12.358  12.903
 6521W        W67832  34.080  23.606  11.866
 6522W        W67833  15.224   1.480   5.286
 6523W        W67834  24.986  12.173   4.124
 6524W        W67835   1.949  19.123  12.017
 6525W        W67836  19.133  24.701  13.941
 6526W        W67837  10.719  13.628   3.754
 6527W        W67838  10.320  19.278  12.481
 6528W        W67839  16.220  16.223   2.342
 6529W        W67840   9.816   7.178  12.346
 6530W        W67841  11.206  44.806   4.660
 6531W        W67842   5.319  34.563   2.291
 6532W        W67843  24.095  15.597   0.860
 6533W        W67844  38.971   3.383   1.739
 6534W        W67845   3.938  18.295  14.504
 6535W        W67846  12.789   1.850   1.295
 6536W        W67847  16.306  27.581   3.324
 6537W        W67848  35.063  44.317  11.392
 6538W        W67849  40.980  36.931  11.550
 6539W        W67850  22.027  35.047   3.718
 6540W        W67851  11.703  41.845  10.962
 6541W        W67852  12.639   4.866  12.407
 6542W        W67853  41.939   0.947   3.167
 6543W        W67854  34.917  19.720  13.455
 6544W        W67855  32.107  13.754  10.963
 6545W        W67856  14.727  31.637   2.667
 6546W        W67857  29.041  15.273   3.815
 6547W        W67858  10.874   9.650  12.407
 6548W        W67859  25.663  33.875  10.553
 6549W        W67860  12.153  35.538   2.300
 6550W        W67861  27.954   8.232  12.400
 6551W        W67862   4.849  38.916  11.574
 6552W        W67863  28.505   5.855   1.342
 6553W        W67864  35.076  42.334   2.335
 6554W        W67865  21.062   8.327  10.944
 6555W        W67866  15.221   6.715   3.685
 6556W        W67867  19.047  24.131  11.045
 6557W        W67868  41.873  35.454  13.901
 6558W        W67869  20.074  32.502  13.331
 6559W        W67870  36.559   3.426   4.256
 6560W        W67871  16.607  23.014  12.516
 6561W        W67872  11.265  36.842  10.520
 6562W        W67873  11.358   3.371   0.389
 6563W        W67874   7.839  30.547   1.421
 6564W        W67875  32.534  15.754  11.466
 6565W        W67876  18.206  37.511   0.393
 6566W        W67877   9.353   4.363  14.937
 6567W        W67878  24.484   0.294  14.900
 6568W        W67879  20.700  35.110   2.377
 6569W        W67880  22.051  28.576  14.510
 6570W        W67881  40.484  13.104  11.403
 6571W        W67882  36.383  33.569  13.956
 6572W        W67883  11.832  30.085  13.493
 6573W        W67884  40.015   7.763  10.460
 6574W        W67885  38.559   6.226  12.364
 6575W        W67886  42.517  18.546   2.203
 6576W        W67887  32.439  16.290  10.950
 6577W        W67888  37.939  33.100   3.685
 6578W        W67889  26.965  16.234  14.867
 6579W        W67890  17.274  42.840  11.936
 6580W        W67891  44.813  44.262  11.111
 6581W        W67892   7.902  34.115  10.533
 6582W        W67893  44.768  37.086  13.342
 6583W        W67894   5.861  32.396   0.385
 6584W        W67895  15.632  40.919  12.402
 6585W        W67896  23.206   4.381   2.359
 6586W        W67897  13.183  25.191   5.263
 6587W        W67898  38.542  36.929   9.553
 6588W        W67899  28.479  26.700   4.637
 6589W        W67900  18.567  11.624  12.052
 6590W        W67901   2.757  34.875   1.415
 6591W        W67902  31.091  27.974   0.450
 6592W        W67903  24.617  43.012  12.954
 6593W        W67904  19.749   7.312  13.840
 6594W        W67905  10.672   9.198  13.948
 6595W        W67906  15.791   4.256   1.436
 6596W        W67907   1.251   0.824   0.762
 6597W        W67908  41.990   9.336   4.821
 6598W        W67909  16.297  36.939   0.405
 6599W        W67910  33.513  34.372  12.378
 6600W        W67911   7.904  29.120   9.934
 6601W        W67912  31.564  40.467  12.054
 6602W        W67913  32.106   4.723   0.410
 6603W        W67914  42.520   9.749   2.835
 6604W        W67915  27.163   4.267  10.970
 6605W        W67916   4.330  41.021  12.412
 6606W        W67917  19.102  24.670   2.236
 6607W        W67918  20.036   4.924   4.599
 6608W        W67919  29.649  17.741  12.557
 6609W        W67920  25.615   9.249  12.506
 6610W        W67921  18.198  27.634   2.194
 6611W        W67922  30.938   0.275   1.387
 6612W        W67923  38.510  26.502   3.685
 6613W        W67924  23.580  20.053  14.839
 6614W        W67925  14.752  27.678  13.420
 6615W        W67926  10.794  24.496  13.329
 6616W        W67927  19.110  25.591  10.982
 6617W        W67928  16.222   0.805   2.798
 6618W        W67929  25.524  28.051  11.970
 6619W        W67930  10.218  23.039  11.078
 6620W        W67931  31.572  30.612   3.856
 6621W        W67932  21.750  22.729   1.773
 6622W        W67933   4.743  20.030   0.849
 6623W        W67934  33.099  25.158  11.507
 6624W        W67935  28.031  43.914  11.059
 6625W        W67936   8.704  12.626  12.981
 6626W        W67937  25.677   8.817  10.917
 6627W        W67938  37.464  27.957   2.212
 6628W        W67939   8.290   5.695  13.434
 6629W        W67940  35.862   0.301   4.195
 6630W        W67941  19.183  25.132   4.336
 6631W        W67942   5.339  41.420  14.000
 6632W        W67943  44.269  11.171  12.452
 6633W        W67944  23.098  26.616  11.395
 6634W        W67945   4.871  23.613   0.265
 6635W        W67946  28.954  43.766   1.810
 6636W        W67947  24.636   4.261   4.683
 6637W        W67948   9.285  43.939   3.340
 6638W        W67949  10.827  26.618   3.670
 6639W        W67950   8.828  37.051  13.049
 6640W        W67951   3.863  38.913   0.874
 6641W        W67952  31.470   1.416   0.267
 6642W        W67953  33.051  37.948  14.770
 6643W        W67954  18.190  28.478  14.823
 6644W        W67955  39.973  29.524   4.342
 6645W        W67956  30.594  31.114   3.850
 6646W        W67957   5.748   7.286  13.913
 6647W        W67958  41.533  27.022  11.606
 6648W        W67959  32.035  21.222   4.679
 6649W        W67960  11.285  21.538   2.697
 6650W        W67961  13.653   1.338  10.502
 6651W        W67962   3.896  44.765   2.782
 6652W        W67963  10.684  35.093  14.977
 6653W        W67964  32.498  29.066   1.907
 6654W        W67965  24.978  34.479  13.016
 6655W        W67966  34.916  24.220  14.015
 6656W        W67967  37.564  11.206   1.921
 6657W        W67968  18.784  33.539   2.197
 6658W        W67969   7.188  26.965  13.908
 6659W        W67970  18.655  38.826   4.735
 6660W        W67971  32.140  42.349   3.280
 6661W        W67972  22.022  40.922   2.417
 6662W        W67973  44.415  12.251  13.936
 6663W        W67974  30.508  34.989   2.350
 6664W        W67975  24.672  25.509  11.529
 6665W        W67976  22.122   5.245   3.275
 6666W        W67977  11.666  10.812  13.469
 6667W        W67978  38.341   7.409   0.265
 6668W        W67979   9.164  41.936  11.401
 6669W        W67980  17.744  11.272   2.788
 6670W        W67981  13.231   3.780  12.827
 6671W        W67982  28.515   4.365   1.860
 6672W        W67983  28.105  28.162  10.073
 6673W        W67984  17.271   0.804  11.917
 6674W        W67985  43.973  17.578  13.517
 6675W        W67986  35.402   4.935  11.453
 6676W        W67987   9.198  14.266   0.433
 6677W        W67988  38.361  36.983   1.305
 6678W        W67989  32.977   4.435  10.953
 6679W        W67990  19.266  31.923   2.758
 6680W        W67991   2.365  23.583  10.158
 6681W        W67992   0.327  41.488  10.520
 6682W        W67993   4.337  13.601   1.889
 6683W        W67994  26.590  30.597   2.354
 6684W        W67995  14.142  27.573   1.294
 6685W        W67996  10.767   5.905   4.655
 6686W        W67997  21.630  11.203  12.365
 6687W        W67998  10.878  13.252   1.695
 6688W        W67999  18.272   6.763   0.267
 6689W        W68000   8.895  36.528   3.203
 6690W        W68001  17.131  23.728   1.824
 6691W        W68002   8.808  35.454  14.760
 6692W        W68003  10.691  16.249  14.314
 6693W        W68004  28.051  25.572   1.923
 6694W        W68005   0.423  41.008  13.838
 6695W        W68006  40.035  42.969  11.096
 6696W        W68007   6.298  37.006   4.597
 6697W        W68008  32.462   4.392   1.254
 6698W        W68009  42.285  21.106  12.426
 6699W        W68010   8.172  12.718  14.006
 6700W        W68011  23.729  31.497  10.539
 6701W        W68012  10.293  36.460   2.227
 6702W        W68013  26.461   6.691   4.726
 6703W        W68014  19.707  14.715  13.490
 6704W        W68015  25.113  14.222  13.360
 6705W        W68016   2.966   9.193  12.382
 6706W        W68017  13.198  24.028  13.063
 6707W        W68018  40.930  36.566  10.540
 6708W        W68019  24.591  13.839   1.766
 6709W        W68020  42.906   3.450  10.990
 6710W        W68021  38.931  32.392   0.397
 6711W        W68022  32.910   0.345   0.397
 6712W        W68023   9.185   9.322  11.523
 6713W        W68024   5.273  23.115   2.335
 6714W        W68025  39.003  15.213  14.896
 6715W        W68026  12.617  33.122  14.933
 6716W        W68027  44.977  11.734   1.384
 6717W        W68028  14.121  26.677   0.274
 6718W        W68029  39.995  14.629  14.937
 6719W        W68030   0.401   9.870  13.311
 6720W        W68031  39.007  33.947   0.734
 6721W        W68032  17.136   6.806  13.034
 6722W        W68033  38.926  42.934  11.943
 6723W        W68034   4.724  10.827   3.832
 6724W        W68035  27.454  42.495  10.608
 6725W        W68036  42.020  30.440   3.687
 6726W        W68037  43.341   4.832   9.937
 6727W        W68038  33.517  29.610   2.678
 6728W        W68039   2.887  14.597  11.043
 6729W        W68040  41.826  22.594  13.403
 6730W        W68041  40.487   4.832   0.800
 6731W        W68042  21.134  26.045  12.950
 6732W        W68043   7.827   6.713   2.288
 6733W        W68044  19.721   2.913  13.877
 6734W        W68045  31.977  19.066   4.657
 6735W        W68046  32.960  33.614  13.917
 6736W        W68047  19.111  38.518   2.844
 6737W        W68048  13.105  13.275   4.176
 6738W        W68049  34.875  36.538   4.720
 6739W        W68050  10.753  11.189  14.015
 6740W        W68051  36.879  29.453  13.925
 6741W        W68052  16.612  20.632  13.978
 6742W        W68053  19.621  25.031   4.689
 6743W        W68054  24.688   3.376  11.974
 6744W        W68055  44.324   7.678   0.294
 6745W        W68056  11.241  29.054   1.223
 6746W        W68057   3.367  35.061   3.200
 6747W        W68058   3.413   5.341   2.800
 6748W        W68059  14.613  22.701   3.274
 6749W        W68060  43.320  40.846  10.537
 6750W        W68061  43.019  20.525   4.258
 6751W        W68062  31.505  32.525  11.579
 6752W        W68063  25.028  30.144   3.699
 6753W        W68064  24.049  18.294   1.445
 6754W        W68065  25.564  35.945   1.857
 6755W        W68066   6.703   1.460   0.867
 6756W        W68067  44.382   2.452  12.918
 6757W        W68068   0.396  43.864  11.958
 6758W        W68069  11.238   1.414  11.468
 6759W        W68070  33.482  34.992  11.935
 6760W        W68071  32.626  27.982  11.096
 6761W        W68072  15.747  24.054  14.481
 6762W        W68073  19.236  43.412  13.016
 6763W        W68074  21.709  37.920   4.197
 6764W        W68075  11.858   9.360  11.524
 6765W        W68076   5.251   2.918  13.884
 6766W        W68077  42.980  39.374   3.278
 6767W        W68078  20.194   4.914  10.435
 6768W        W68079   3.406  41.895  11.050
 6769W        W68080   8.782   6.392   0.390
 6770W        W68081  21.237   7.855   2.265
 6771W        W68082  30.540  34.947   3.746
 6772W        W68083  21.029  28.161  11.507
 6773W        W68084  15.669  20.094   1.767
 6774W        W68085  23.677  38.480  11.491
 6775W        W68086  30.097   8.236   5.680
 6776W        W68087  27.103  32.480  10.556
 6777W        W68088  33.991  26.078  14.998
 6778W        W68089  11.370  33.524   2.850
 6779W        W68090  10.638  24.514   4.830
 6780W        W68091  43.475  19.683   5.143
 6781W        W68092   6.812  18.216   3.702
 6782W        W68093   1.278  17.763   3.803
 6783W        W68094   1.238   9.768   1.408
 6784W        W68095  39.455   4.396  10.919
 6785W        W68096   8.708  29.470   4.626
 6786W        W68097   7.708  21.094  12.526
 6787W        W68098  19.067   5.846   3.812
 6788W        W68099  29.528  40.388   1.925
 6789W        W68100  18.114  40.341   4.246
 6790W        W68101  44.930   4.246  11.007
 6791W        W68102  24.195  12.658  12.006
 6792W        W68103   7.212  41.295   0.475
 6793W        W68104  10.805  23.556  14.930
 6794W        W68105  17.569   8.196   4.247
 6795W        W68106   1.928  15.183  10.601
 6796W        W68107   9.738  42.419  12.440
 6797W        W68108  38.028  35.969  14.931
 6798W        W68109  37.338  22.130  11.410
 6799W        W68110   7.406   5.928  11.100
 6800W        W68111   3.884  19.547   4.220
 6801W        W68112  41.362  15.792   2.264
 6802W        W68113  36.984  14.727  14.301
 6803W        W68114  22.660  18.555   0.795
 6804W        W68115  13.819  14.809  12.525
 6805W        W68116  24.577  42.890  14.468
 6806W        W68117  31.581  32.510   4.141
 6807W        W68118   3.416   3.289   1.440
 6808W        W68119  42.404   7.866  13.528
 6809W        W68120  18.136   4.910   2.775
 6810W        W68121  36.020  30.516   0.350
 6811W        W68122  31.618  44.431  11.054
 6812W        W68123  24.073  25.200   1.229
 6813W        W68124  35.544  17.240  11.060
 6814W        W68125  37.390  18.552  12.350
 6815W        W68126   9.816   6.815   3.680
 6816W        W68127  26.036  31.515  13.058
 6817W        W68128  25.678  10.199  14.020
 6818W        W68129   9.751  43.901   0.909
 6819W        W68130  22.241  16.080   3.208
 6820W        W68131  30.533  11.685  11.089
 6821W        W68132  21.731   9.186   1.845
 6822W        W68133  37.897  30.420   1.270
 6823W        W68134   8.877  35.433  13.491
 6824W        W68135  39.432  32.959   1.925
 6825W        W68136  12.736  40.019  12.046
 6826W        W68137  17.796   3.897   2.377
 6827W        W68138  15.700  29.444  10.941
 6828W        W68139  27.521   7.873  14.916
 6829W        W68140  26.070  22.048   4.214
 6830W        W68141  44.767   6.712  11.565
 6831W        W68142  39.024   9.673   3.693
 6832W        W68143   0.466  35.569  14.850
 6833W        W68144  14.289  43.951  14.299
 6834W        W68145  10.783  13.695   4.834
 6835W        W68146  43.469  27.482  11.922
 6836W        W68147  23.168  41.014  13.503
 6837W        W68148  28.572  21.027   3.744
 6838W        W68149  36.467   0.913   3.203
 6839W        W68150  29.071  44.495  13.917
 6840W        W68151   1.325  33.401   3.272
 6841W        W68152  44.002  23.220  12.444
 6842W        W68153  11.221  24.537   3.275
 6843W        W68154   4.741  36.875   4.607
 6844W        W68155   7.688   3.294   4.690
 6845W        W68156  36.392   9.360   4.250
 6846W        W68157  24.717  25.206   2.225
 6847W        W68158  24.069  26.458  12.501
 6848W        W68159  32.494  36.090  12.545
 6849W        W68160  26.479  44.445   5.221
 6850W        W68161  34.502  27.534  13.915
 6851W        W68162  30.096   0.353   1.855
 6852W        W68163   6.215  25.963   2.257
 6853W        W68164  13.163  41.831   4.821
 6854W        W68165   8.252  17.086   5.093
 6855W        W68166  18.213   7.266  13.491
 6856W        W68167  24.705  41.912  10.092
 6857W        W68168  30.646  19.725   3.313
 6858W        W68169   8.867   5.883   0.337
 6859W        W68170  15.312  34.390  11.995
 6860W        W68171  29.522  12.265  11.398
 6861W        W68172   5.397  12.757  13.910
 6862W        W68173  44.432   1.325  11.425
 6863W        W68174  24.573  29.118   1.773
 6864W        W68175  29.015  30.489  13.934
 6865W        W68176   7.773  37.057   2.817
 6866W        W68177  26.534  42.390  14.430
 6867W        W68178  28.573  27.107   4.780
 6868W        W68179  20.246  35.449  14.323
 6869W        W68180   0.489  16.273   3.731
 6870W        W68181  11.136  32.418  14.309
 6871W        W68182   1.239  21.632  11.569
 6872W        W68183  11.302  19.549   4.631
 6873W        W68184  13.113   2.742  10.412
 6874W        W68185   5.363  39.316   0.851
 6875W        W68186  16.672   7.327  14.434
 6876W        W68187  44.463  31.442  10.941
 6877W        W68188   8.303  38.947  13.970
 6878W        W68189   8.797   9.701  11.468
 6879W        W68190  34.055  28.167  10.507
 6880W        W68191  12.134  40.402  10.587
 6881W        W68192   3.348  13.829  11.943
 6882W        W68193  10.224  30.056   3.271
 6883W        W68194  35.589  39.381  13.826
 6884W        W68195  13.803  14.142   3.366
 6885W        W68196  27.103  37.051   2.843
 6886W        W68197  35.584  16.194   2.284
 6887W        W68198   9.744   1.419  14.344
 6888W        W68199   7.288  29.158   3.331
 6889W        W68200  21.636  40.910   9.960
 6890W        W68201  16.773   3.792  14.978
 6891W        W68202  27.564  38.450  14.335
 6892W        W68203  30.923   7.804  11.014
 6893W        W68204  28.938  33.897  11.525
 6894W        W68205   6.280  20.748   3.665
 6895W        W68206   1.880   4.375   2.219
 6896W        W68207  25.964  30.416   0.964
 6897W        W68208  14.798  23.527   0.736
 6898W        W68209  43.437  24.209  11.883
 6899W        W68210  33.041  35.377  12.450
 6900W        W68211  22.201  42.307  10.620
 6901W        W68212  38.458  41.983   0.426
 6902W        W68213  36.507  40.048  13.465
 6903W        W68214  13.317   9.223  10.539
 6904W        W68215  22.688  34.016   3.360
 6905W        W68216  27.449  43.989  12.393
 6906W        W68217  30.922  12.272   3.742
 6907W        W68218  25.531  27.465  12.885
 6908W        W68219  38.035   1.859  14.956
 6909W        W68220   3.329  44.319  11.062
 6910W        W68221   2.787  11.655   3.843
 6911W        W68222  34.028  15.125   2.722
 6912W        W68223  16.124  12.360  11.996
 6913W        W68224   3.859  28.983  11.026
 6914W        W68225  35.490  42.476  13.063
 6915W        W68226  23.170  24.139  13.064
 6916W        W68227  14.120  10.292   3.753
 6917W        W68228  41.976  21.637   2.802
 6918W        W68229  10.380  15.655  11.010
 6919W        W68230  21.681   7.208  14.893
 6920W        W68231  24.980  12.769   0.443
 6921W        W68232  21.260   2.288   4.806
 6922W        W68233  14.218  34.025  14.486
 6923W        W68234  43.010  28.935  12.371
 6924W        W68235  23.674  18.624  11.891
 6925W        W68236  10.185  36.023   2.722
 6926W        W68237  26.497  18.148  14.293
 6927W        W68238  35.525   1.815  10.422
 6928W        W68239  26.073  20.219   3.233
 6929W        W68240  44.455   0.839   5.241
 6930W        W68241  29.443  39.981  14.943
 6931W        W68242  18.277  11.741  11.934
 6932W        W68243  14.790   3.794   2.829
 6933W        W68244  25.565  39.427   4.133
 6934W        W68245  11.339   6.238  12.905
 6935W        W68246  38.914  44.485   3.803
 6936W        W68247  37.538   0.341  12.862
 6937W        W68248  23.123  10.835   2.810
 6938W        W68249  31.083  32.497  13.541
 6939W        W68250  35.895  39.888  14.800
 6940W        W68251  27.664   0.871   4.743
 6941W        W68252  32.097  44.844  13.825
 6942W        W68253  17.130  34.389  13.315
 6943W        W68254  36.029  27.042   1.841
 6944W        W68255  13.791  32.400   2.310
 6945W        W68256  40.303   5.741   3.179
 6946W        W68257  40.963  43.341  10.997
 6947W        W68258  33.552  31.439  11.499
 6948W        W68259  30.081   9.257  10.466
 6949W        W68260  38.325  31.457  13.442
 6950W        W68261  39.339  17.284   4.179
 6951W        W68262  40.357  21.028  10.966
 6952W        W68263  37.976  15.604  14.978
 6953W        W68264  19.764   1.338   2.243
 6954W        W68265  36.379  33.429   2.821
 6955W        W68266  33.997  38.947   0.821
 6956W        W68267  18.105  43.380  13.476
 6957W        W68268  18.062  19.196  12.866
 6958W        W68269   9.693  22.095   2.362
 6959W        W68270   6.906  24.200   3.338
 6960W        W68271  22.628  20.200  14.470
 6961W        W68272  43.372   2.800  14.836
 6962W        W68273  44.356  38.410  14.282
 6963W        W68274   3.226   3.453   4.788
 6964W        W68275  19.078  34.548  14.480
 6965W        W68276  42.899  40.890  14.434
 6966W        W68277  43.869   7.252   0.858
 6967W        W68278  28.087  30.144   0.944
 6968W        W68279  41.014  40.363  11.612
 6969W        W68280   9.166  14.109  11.098
 6970W        W68281  26.973  15.183  12.458
 6971W        W68282  18.297   4.724   3.175
 6972W        W68283  30.487  36.957   4.727
 6973W        W68284   7.739  43.494   3.345
 6974W        W68285  11.761  26.074   3.695
 6975W        W68286  13.832  39.937   3.739
 6976W        W68287  13.288  13.301  12.847
 6977W        W68288  33.904   4.760  10.988
 6978W        W68289  16.803  42.778  12.893
 6979W        W68290  12.687   7.226  13.982
 6980W        W68291  13.794  34.118  11.594
 6981W        W68292  42.031  11.180   2.323
 6982W        W68293  19.215  39.930  13.317
 6983W        W68294  29.141  41.012  14.766
 6984W        W68295  26.018  24.703  13.843
 6985W        W68296   3.784  16.319   1.365
 6986W        W68297  42.841  29.050  10.558
 6987W        W68298   7.384  23.039   3.276
 6988W        W68299  14.281  24.697  13.868
 6989W        W68300   6.329  10.209  10.971
 6990W        W68301   6.206  15.804  14.765
 6991W        W68302  28.014  11.284  13.397
 6992W        W68303   3.835  31.002   2.307
 6993W        W68304   0.398   1.783  11.875
 6994W        W68305  36.463  10.337   4.189
 6995W        W68306  43.850  37.979  11.901
 6996W        W68307   8.793  31.571  14.377
 6997W        W68308  12.360  28.936   0.258
 6998W        W68309  14.190  24.152  13.840
 6999W        W68310  20.747   9.745   1.352
 7000W        W68311  27.472   9.197  10.551
 7001W        W68312  41.424  43.796   1.214
 7002W        W68313  32.966  33.002   3.282
 7003W        W68314   2.793  16.688   1.752
 7004W        W68315   3.405  24.045   3.200
 7005W        W68316  42.861   2.937   0.754
 7006W        W68317  44.303   5.695   0.741
 7007W        W68318  28.130  15.578   0.244
 7008W        W68319  16.794   8.174  10.984
 7009W        W68320   1.962   2.364   0.948
 7010W        W68321  18.603   4.399  14.422
 7011W        W68322  19.203   7.282  14.356
 7012W        W68323  36.978   0.464  11.022
 7013W        W68324  44.010  15.799   4.832
 7014W        W68325   4.846  32.091   0.407
 7015W        W68326  40.045  18.203  12.947
 7016W        W68327  27.459  28.156   3.206
 7017W        W68328   4.870  28.932   3.699
 7018W        W68329  37.507  42.879  14.488
 7019W        W68330   6.679  17.764   5.280
 7020W        W68331   3.798  23.633   3.774
 7021W        W68332  43.369  22.105   0.251
 7022W        W68333  31.081  25.126  10.958
 7023W        W68334  26.185  26.142   2.853
 7024W        W68335  32.996  13.340  14.495
 7025W        W68336  27.523  25.486  12.935
 7026W        W68337  12.217  33.450   2.310
 7027W        W68338  16.569   1.757  11.993
 7028W        W68339  31.035  29.429  11.421
 7029W        W68340  41.819   5.198  14.354
 7030W        W68341   4.894   3.732  11.938
 7031W        W68342  11.282  19.610   3.166
 7032W        W68343  38.015  11.837   0.857
 7033W        W68344  25.561  43.418  14.408
 7034W        W68345  17.217  11.180   5.190
 7035W        W68346  30.043  15.749   0.368
 7036W        W68347  39.896  43.788   2.317
 7037W        W68348   4.380  28.589   1.721
 7038W        W68349   1.803  35.468  10.633
 7039W        W68350  19.278  20.221  12.374
 7040W        W68351   4.314  44.756   2.322
 7041W        W68352  18.122  18.066   1.393
 7042W        W68353  16.106  41.972   1.328
 7043W        W68354  34.975  38.369   3.806
 7044W        W68355  33.542  24.169   3.785
 7045W        W68356  33.428  39.382  10.935
 7046W        W68357  14.624  19.673   2.303
 7047W        W68358  28.522  29.505  12.574
 7048W        W68359  28.447   7.275  14.427
 7049W        W68360  14.339  26.583   2.693
 7050W        W68361  40.969  16.788   2.882
 7051W        W68362  34.522   6.723  13.376
 7052W        W68363  23.612  42.994   1.252
 7053W        W68364  36.557   5.357   3.285
 7054W        W68365  39.065   1.422   2.313
 7055W        W68366  21.753  15.329   4.641
 7056W        W68367  26.600  27.656   3.255
 7057W        W68368  32.143  17.072   1.733
 7058W        W68369  15.315  43.407   1.224
 7059W        W68370  34.557  24.510  12.574
 7060W        W68371  34.945  16.792   2.901
 7061W        W68372   4.839  43.470  12.939
 7062W        W68373   8.790  24.039  11.443
 7063W        W68374   3.343  44.932   1.724
 7064W        W68375  41.977  34.942   3.225
 7065W        W68376  16.653  14.098  14.955
 7066W        W68377  20.191   3.270  14.423
 7067W        W68378  33.044   9.166   0.341
 7068W        W68379  18.174  14.811   3.281
 7069W        W68380  41.313  44.429   1.916
 7070W        W68381  12.815   9.352  10.963
 7071W        W68382  38.333  11.812  14.372
 7072W        W68383   8.222  34.061   0.268
 7073W        W68384   6.391  33.971  10.923
 7074W        W68385  41.946  12.316  11.550
 7075W        W68386   4.267  44.895  12.374
 7076W        W68387  24.092   8.881   3.712
 7077W        W68388  26.561  36.406   2.229
 7078W        W68389  42.470   6.816  12.949
 7079W        W68390  22.997  26.666   2.900
 7080W        W68391  31.559  17.721  10.533
 7081W        W68392  36.895  15.238   0.286
 7082W        W68393   9.803  11.176  13.030
 7083W        W68394   0.973   9.387   0.891
 7084W        W68395  19.172  26.688  11.455
 7085W        W68396  40.990  24.484  14.511
 7086W        W68397  25.691  10.316  11.028
 7087W        W68398  28.158  28.075  12.543
 7088W        W68399  38.821  40.518   4.154
 7089W        W68400  14.702  40.917   3.848
 7090W        W68401   0.816  13.611   1.429
 7091W        W68402  36.013  11.841   1.308
 7092W        W68403  37.956  39.967  11.487
 7093W        W68404  20.697  12.162  13.873
 7094W        W68405  26.064  21.588   0.899
 7095W        W68406  27.537   2.760  10.453
 7096W        W68407  17.708   3.906  11.874
 7097W        W68408  26.207  35.086  10.486
 7098W        W68409  20.142   1.321   2.341
 7099W        W68410  44.399   0.356   4.626
 7100W        W68411  39.338   9.880   2.869
 7101W        W68412  30.165   6.830  14.953
 7102W        W68413  33.099  42.293   3.720
 7103W        W68414  44.971  16.681  10.612
 7104W        W68415  43.483  23.083   2.759
 7105W        W68416  31.562  13.752   1.731
 7106W        W68417  42.515   7.667   4.680
 7107W        W68418  35.042  41.793  11.599
 7108W        W68419  33.943   2.440  10.487
 7109W        W68420  31.480  25.049  14.290
 7110W        W68421  11.816  24.048  11.468
 7111W        W68422   6.419  43.854  14.846
 7112W        W68423  15.151  28.111   3.717
 7113W        W68424  18.070  43.409   2.671
 7114W        W68425  25.025   3.383   1.737
 7115W        W68426  25.514  41.490  12.976
 7116W        W68427  38.958  22.210   3.289
 7117W        W68428  23.126  10.819  11.112
 7118W        W68429   2.850   3.275  10.535
 7119W        W68430   7.683  32.984   4.787
 7120W        W68431   8.716  31.637   2.249
 7121W        W68432  35.472  40.422  12.044
 7122W        W68433   7.668   0.767  14.461
 7123W        W68434  37.338   5.900  13.063
 7124W        W68435  20.699   5.348  11.500
 7125W        W68436   2.739  31.415   2.383
 7126W        W68437  42.282   5.404   3.800
 7127W        W68438  11.169   8.271   2.788
 7128W        W68439  29.548  41.466   4.624
 7129W        W68440  24.227  15.122   0.388
 7130W        W68441  37.009  37.517   3.265
 7131W        W68442  31.954  32.029  11.419
 7132W        W68443  44.364  30.651  11.436
 7133W        W68444  43.771  14.659   2.821
 7134W        W68445  27.196  19.534  14.493
 7135W        W68446  33.958  26.997   0.957
 7136W        W68447   8.848   1.253  14.353
 7137W        W68448  37.005   3.460  10.966
 7138W        W68449  20.129  36.098   0.859
 7139W        W68450  22.519  43.421   0.383
 7140W        W68451   9.883  19.722  14.488
 7141W        W68452  13.719   7.777   3.184
 7142W        W68453  12.753   6.196  14.516
 7143W        W68454  15.774  24.484   1.227
 7144W        W68455  20.531  41.349  12.376
 7145W        W68456   6.288  17.619  13.340
 7146W        W68457  14.192  18.623  13.056
 7147W        W68458  32.128  31.073  11.956
 7148W        W68459  40.867  43.400  13.950
 7149W        W68460   7.390   1.865   1.236
 7150W        W68461  44.353  36.005  14.391
 7151W        W68462  38.853  32.004   2.232
 7152W        W68463  35.929  23.575   1.749
 7153W        W68464  34.872   2.270  11.947
 7154W        W68465  41.857  38.529   3.653
 7155W        W68466  14.770  32.518   0.748
 7156W        W68467  31.951  31.616   2.883
 7157W        W68468  19.622  13.773   5.135
 7158W        W68469  28.581  26.559  10.604
 7159W        W68470  41.451  34.875   4.713
 7160W        W68471  38.847  36.073   4.736
 7161W        W68472  28.000  13.307  12.555
 7162W        W68473  42.866   7.225   3.227
 7163W        W68474  31.437  10.177  13.348
 7164W        W68475  18.103   2.373  10.924
 7165W        W68476   3.742  16.596  11.595
 7166W        W68477  15.812   7.828  14.971
 7167W        W68478  19.079  24.054   0.731
 7168W        W68479  33.598  40.797   4.778
 7169W        W68480  33.399   4.736   1.767
 7170W        W68481  41.899  35.035  14.498
 7171W        W68482  35.548  11.198  14.931
 7172W        W68483  44.921  20.615  12.056
 7173W        W68484  39.826   5.811   0.733
 7174W        W68485  14.628   2.828  13.351
 7175W        W68486  33.419  36.502   1.697
 7176W        W68487  10.825  15.176   4.123
 7177W        W68488  27.062   8.738   0.294
 7178W        W68489  10.278  21.544   1.856
 7179W        W68490   1.793  21.527  10.941
 7180W        W68491   9.222   4.328  14.326
 7181W        W68492   6.374  38.543   4.244
 7182W        W68493   7.880  33.597  11.913
 7183W        W68494  41.447   7.253  12.973
 7184W        W68495  27.191  15.726  14.832
 7185W        W68496   1.351  29.006   1.221
 7186W        W68497  27.144  36.964  12.829
 7187W        W68498   7.416  29.974  13.472
 7188W        W68499  21.258  43.004   0.302
 7189W        W68500  27.638  21.092  11.100
 7190W        W68501  12.247  33.878   2.843
 7191W        W68502   5.399  14.721  12.911
 7192W        W68503  31.083   0.407   2.664
 7193W        W68504  39.926   2.400  11.586
 7194W        W68505   9.258  28.518   3.697
 7195W        W68506   9.886  26.039  12.031
 7196W        W68507  16.762   1.321   0.260
 7197W        W68508  32.487  11.647  10.969
 7198W        W68509  41.313  12.153  12.916
 7199W        W68510  24.195  23.493  11.968
 7200W        W68511  36.426  19.072   0.476
 7201W        W68512  14.301  18.763   4.238
 7202W        W68513  36.003  33.127  14.883
 7203W        W68514  39.416  25.011   0.898
 7204W        W68515  36.982  30.105   2.683
 7205W        W68516  24.645  39.840   5.302
 7206W        W68517  28.591  15.109  13.922
 7207W        W68518  19.265  43.423   3.272
 7208W        W68519   7.721  40.319  11.588
 7209W        W68520   2.834  18.180  11.091
 7210W        W68521   4.261  28.118  12.488
 7211W        W68522  23.589   2.408  12.501
 7212W        W68523  28.152  15.587  14.318
 7213W        W68524   9.887  16.170  12.574
 7214W        W68525  17.559   4.922   1.308
 7215W        W68526  43.832  42.367  13.950
 7216W        W68527  12.295  38.978   4.135
 7217W        W68528  27.193  37.545   0.359
 7218W        W68529  16.111  38.462   3.204
 7219W        W68530  24.187  20.557   0.957
 7220W        W68531  11.649  36.007  14.305
 7221W        W68532  21.700   0.336  13.338
 7222W        W68533  24.519  27.169  10.917
 7223W        W68534  22.086  35.957  13.494
 7224W        W68535   5.734  21.081   4.169
 7225W        W68536  18.188  39.895   4.731
 7226W        W68537  24.672  27.449   1.443
 7227W        W68538  21.087  30.135  14.388
 7228W        W68539  41.787  37.984  11.073
 7229W        W68540  40.406  35.472   4.354
 7230W        W68541  10.259   0.367  10.941
 7231W        W68542  44.407  15.613  12.955
 7232W        W68543  39.920  10.267   4.663
 7233W        W68544  28.046  40.885  14.449
 7234W        W68545  19.162   4.716   1.375
 7235W        W68546   8.668   8.263   1.797
 7236W        W68547  36.555  17.129  13.360
 7237W        W68548  40.455  10.641  13.916
 7238W        W68549  21.163   6.901   3.291
 7239W        W68550  12.825   8.292   4.332
 7240W        W68551  30.093  27.642   3.329
 7241W        W68552  19.245  29.006  14.852
 7242W        W68553  29.094  23.159   1.383
 7243W        W68554  38.537  39.932  13.819
 7244W        W68555  25.484   2.828  13.411
 7245W        W68556  32.434  31.931   2.370
 7246W        W68557  22.724  39.361  11.868
 7247W        W68558  34.960   1.251   1.892
 7248W        W68559  34.892  29.662   0.261
 7249W        W68560  26.969  13.763   1.733
 7250W        W68561  15.724  22.635  13.045
 7251W        W68562  33.437   2.451   1.896
 7252W        W68563   2.395  30.112  10.569
 7253W        W68564  26.580  24.119   3.817
 7254W        W68565  17.568  19.692  12.499
 7255W        W68566  13.264  18.220  10.080
 7256W        W68567  13.601  29.429   1.312
 7257W        W68568  40.352   9.160  11.502
 7258W        W68569  14.110  35.395  11.124
 7259W        W68570  40.902  34.888  11.392
 7260W        W68571  37.574  29.430  10.015
 7261W        W68572  19.735   0.281   3.229
 7262W        W68573  30.089  30.098   3.831
 7263W        W68574   8.804  44.846   0.247
 7264W        W68575   0.423  36.927  12.019
 7265W        W68576   2.802   7.909  13.975
 7266W        W68577   1.240  35.921   3.743
 7267W        W68578   8.742  17.635   2.292
 7268W        W68579  10.219  29.659  13.013
 7269W        W68580  39.350  23.082  11.565
 7270W        W68581   8.862  16.102   4.751
 7271W        W68582  12.654   4.329  13.912
 7272W        W68583   3.353   8.779  10.927
 7273W        W68584  12.134  26.547  11.971
 7274W        W68585  40.436  35.975  14.788
 7275W        W68586  25.206   8.374   1.281
 7276W        W68587  32.411  28.164  14.501
 7277W        W68588  16.274  20.039   2.734
 7278W        W68589   5.828   4.327  12.341
 7279W        W68590  35.042  43.798   0.308
 7280W        W68591  15.188   4.853  13.429
 7281W        W68592   9.740  10.820  14.896
 7282W        W68593  33.033  11.304   4.663
 7283W        W68594  11.135  43.972   4.727
 7284W        W68595   7.850  20.142   2.776
 7285W        W68596  40.832  15.806  12.970
 7286W        W68597  39.937  37.948  14.853
 7287W        W68598  41.448  20.188   3.735
 7288W        W68599  34.560  21.222  11.931
 7289W        W68600  43.017  14.677   4.602
 7290W        W68601   3.332  35.939  13.892
 7291W        W68602   1.443  16.638  13.960
 7292W        W68603  12.618  29.113   3.336
 7293W        W68604   1.333  44.782  13.876
 7294W        W68605  33.974  35.445  11.945
 7295W        W68606  16.313  38.016  10.527
 7296W        W68607  40.533  27.664   4.123
 7297W        W68608  37.046   7.240   0.415
 7298W        W68609  41.836  25.990   4.832
 7299W        W68610   1.956   0.857   3.647
 7300W        W68611  36.349  32.621   2.327
 7301W        W68612   0.857  33.383  12.887
 7302W        W68613  16.781  16.309   1.392
 7303W        W68614  11.768  33.961   0.958
 7304W        W68615  23.501  38.845   3.645
 7305W        W68616  36.495   8.346   1.351
 7306W        W68617  11.129  20.580   1.896
 7307W        W68618  18.603   3.307  11.381
 7308W        W68619  39.353  10.247   3.339
 7309W        W68620   4.767   6.244   0.259
 7310W        W68621  15.654   1.913  12.361
 7311W        W68622   8.315   7.731   4.613
 7312W        W68623  14.133  43.311   0.385
 7313W        W68624   4.820  15.301  10.625
 7314W        W68625   0.276   6.866  10.404
 7315W        W68626  44.414  15.086  13.442
 7316W        W68627  13.789  12.704   4.162
 7317W        W68628  39.848  28.136   2.259
 7318W        W68629  27.131  29.480   0.351
 7319W        W68630   5.864  29.929  13.434
 7320W        W68631  39.515  10.226   2.201
 7321W        W68632   4.206   4.869  11.556
 7322W        W68633  13.661  17.217   4.762
 7323W        W68634  12.721  35.942  14.930
 7324W        W68635  37.423  32.032   3.233
 7325W        W68636   2.877  22.605   0.433
 7326W        W68637  30.098   1.292  12.832
 7327W        W68638  18.659  11.827   1.720
 7328W        W68639   8.769  13.121   5.316
 7329W        W68640  34.104   8.260   3.851
 7330W        W68641  31.413  35.571  12.909
 7331W        W68642   2.736  14.151  13.918
 7332W        W68643  30.070  18.594  13.859
 7333W        W68644  22.656  27.963   1.889
 7334W        W68645  44.951  30.518   0.895
 7335W        W68646   6.788   9.872   0.429
 7336W        W68647   0.795  20.067  10.985
 7337W        W68648  44.345  16.617   4.768
 7338W        W68649  22.529  12.708   3.193
 7339W        W68650  11.162  21.541  14.309
 7340W        W68651   3.769   3.276   4.605
 7341W        W68652  34.524  26.177  11.594
 7342W        W68653  19.771  40.479   0.911
 7343W        W68654  35.035  28.943  11.888
 7344W        W68655   9.308   6.689  14.512
 7345W        W68656  23.995  33.077   1.365
 7346W        W68657  41.465  30.092  11.442
 7347W        W68658  23.068  26.676   3.318
 7348W        W68659  32.996  16.723  14.001
 7349W        W68660  18.107  25.059   0.952
 7350W        W68661  41.521  29.670   0.394
 7351W        W68662   6.833  11.758  14.395
 7352W        W68663  10.635  31.426  11.999
 7353W        W68664  39.997  13.694  12.391
 7354W        W68665   1.759   3.833  14.910
 7355W        W68666   2.736   2.460  12.823
 7356W        W68667  32.635  32.519   2.376
 7357W        W68668  39.035  29.113  13.482
 7358W        W68669  35.454   5.295   0.791
 7359W        W68670  21.638  38.533  12.934
 7360W        W68671  38.459  23.129   3.728
 7361W        W68672  44.460  27.593   4.745
 7362W        W68673  39.493  15.153   0.947
 7363W        W68674  39.016  26.463   1.872
 7364W        W68675  22.660  12.253   1.292
 7365W        W68676  32.425  30.494   2.734
 7366W        W68677  10.275  41.378  14.274
 7367W        W68678  13.811  27.183   4.133
 7368W        W68679  29.010   0.262   1.788
 7369W        W68680  12.755   4.890   0.743
 7370W        W68681  32.935  20.227  10.896
 7371W        W68682  15.740  29.581   0.448
 7372W        W68683  30.418  24.041   2.709
 7373W        W68684  30.041  28.461   1.271
 7374W        W68685  44.894  26.009   2.891
 7375W        W68686   3.375  33.433  11.879
 7376W        W68687   1.305  38.421   4.761
 7377W        W68688  28.074  24.601   2.798
 7378W        W68689  10.709  28.596   0.477
 7379W        W68690  29.075  36.054   3.763
 7380W        W68691  19.648  43.270   2.306
 7381W        W68692  30.980  44.332   1.895
 7382W        W68693  16.216  24.539  11.612
 7383W        W68694  12.326  17.786   4.247
 7384W        W68695   2.875   6.696   1.420
 7385W        W68696  37.376   9.170  10.923
 7386W        W68697  16.259  27.085  13.822
 7387W        W68698  20.223   2.959  14.453
 7388W        W68699  24.178   7.786  10.933
 7389W        W68700   7.373   5.438  12.408
 7390W        W68701   4.889  35.549  10.559
 7391W        W68702  26.966  37.854  10.568
 7392W        W68703  27.096  39.368  12.045
 7393W        W68704  42.936  17.293  12.026
 7394W        W68705  29.085  25.089   1.305
 7395W        W68706   8.721  17.596  12.951
 7396W        W68707   5.217  28.602  14.008
 7397W        W68708  26.619  15.724  12.467
 7398W        W68709  36.356  11.273   2.278
 7399W        W68710   5.741  36.565  10.458
 7400W        W68711  14.712   5.798  13.307
 7401W        W68712  13.780  22.141  11.379
 7402W        W68713  30.988   0.278  12.095
 7403W        W68714  37.441  39.894  11.976
 7404W        W68715  17.612  22.597   1.807
 7405W        W68716  28.656   9.879  12.835
 7406W        W68717  13.235  29.075   3.798
 7407W        W68718   2.787  15.292   0.344
 7408W        W68719  17.671  41.292  13.544
 7409W        W68720  24.209  40.349   1.317
 7410W        W68721  44.891  31.433   4.273
 7411W        W68722   8.753  23.221   3.195
 7412W        W68723   4.807  28.645   3.813
 7413W        W68724  25.136  21.641   1.778
 7414W        W68725  38.990  10.724   2.335
 7415W        W68726  26.598   4.405   0.256
 7416W        W68727  44.902  11.219   2.831
 7417W        W68728  30.041  28.470   4.225
 7418W        W68729   2.729  26.155   0.807
 7419W        W68730  38.938  20.045  11.515
 7420W        W68731   2.792  30.620  10.625
 7421W        W68732  32.125  35.365   0.281
 7422W        W68733  23.140  24.094  10.514
 7423W        W68734   3.806  13.758   4.605
 7424W        W68735  18.058  19.100  11.539
 7425W        W68736  28.502  16.168   0.479
 7426W        W68737   8.697  19.070   1.794
 7427W        W68738  29.627  22.560   0.726
 7428W        W68739  30.456  17.639  11.505
 7429W        W68740  36.369   8.839  12.471
 7430W        W68741  27.157  17.644   1.359
 7431W        W68742  38.910  33.128  13.798
 7432W        W68743  15.255  30.156   0.257
 7433W        W68744  12.162  18.774  12.921
 7434W        W68745   4.243  24.211   2.705
 7435W        W68746  26.190   8.737  12.560
 7436W        W68747   8.699  39.011   4.607
 7437W        W68748  30.130  18.144   2.848
 7438W        W68749  40.038  41.916  14.956
 7439W        W68750  42.884  13.250  11.910
 7440W        W68751  17.586  27.591   4.125
 7441W        W68752  21.091   1.829  13.430
 7442W        W68753   1.366  20.538   2.830
 7443W        W68754  39.496  30.498  13.876
 7444W        W68755  42.849  41.797   2.746
 7445W        W68756   8.820   7.743   3.153
 7446W        W68757  43.826  17.246   2.350
 7447W        W68758  15.093   2.745   1.820
 7448W        W68759  36.850  32.060   0.394
 7449W        W68760  44.448  43.874   0.876
 7450W        W68761  24.544  17.798  11.496
 7451W        W68762   2.305  20.642  13.973
 7452W        W68763  34.937  20.538   2.903
 7453W        W68764  43.420  39.950   4.193
 7454W        W68765  17.575  41.951  12.848
 7455W        W68766  14.658  31.502  12.976
 7456W        W68767  20.611  27.088  11.052
 7457W        W68768  28.093  33.553   4.283
 7458W        W68769   3.337  25.067   4.787
 7459W        W68770  18.644  33.111  12.946
 7460W        W68771   3.913  43.887  13.040
 7461W        W68772   5.810  32.925  12.345
 7462W        W68773   9.174   2.351  11.890
 7463W        W68774  27.990  36.008  10.029
 7464W        W68775  41.786  44.504   3.662
 7465W        W68776   5.826  37.893   3.768
 7466W        W68777  31.118   3.863   0.898
 7467W        W68778  42.999  32.095   4.784
 7468W        W68779  30.518   8.245   3.767
 7469W        W68780  19.252   7.311   3.685
 7470W        W68781  17.745  37.964   0.334
 7471W        W68782   9.241  24.515  13.967
 7472W        W68783  41.876  28.590  11.455
 7473W        W68784  15.177  18.110  11.035
 7474W        W68785  42.435  11.663  12.944
 7475W        W68786  30.607  34.046   2.809
 7476W        W68787  25.059   4.843  12.862
 7477W        W68788  32.139  34.368  14.779
 7478W        W68789  37.421  29.172   2.306
 7479W        W68790  34.043   3.873  12.918
 7480W        W68791  26.014  22.727   3.744
 7481W        W68792  12.626  42.787  13.812
 7482W        W68793  29.534  20.725   0.450
 7483W        W68794  42.010  30.429  12.984
 7484W        W68795  21.527  22.511  10.522
 7485W        W68796  44.795  28.034   2.314
 7486W        W68797  28.520  38.870  13.500
 7487W        W68798  26.533  10.837   2.823
 7488W        W68799  17.733  37.910  13.995
 7489W        W68800  40.851  14.795   4.207
 7490W        W68801  39.846  27.451  11.915
 7491W        W68802   5.856  20.047  12.862
 7492W        W68803  31.135  17.244   0.431
 7493W        W68804  15.276  31.900   1.342
 7494W        W68805  39.831  39.840   1.825
 7495W        W68806  26.143  30.428   2.184
 7496W        W68807  27.580  18.691   0.947
 7497W        W68808  43.935  35.469   1.405
 7498W        W68809   7.790  36.914  12.462
 7499W        W68810  36.533  42.852   1.764
 7500W        W68811  40.876  31.549   2.271
 7501W        W68812   7.342  19.659   3.847
 7502W        W68813  15.673  25.642   0.933
 7503W        W68814  15.214   5.346   1.760
 7504W        W68815   3.901  10.696  13.826
 7505W        W68816   6.368  11.347   1.765
 7506W        W68817  25.609  40.386  14.958
 7507W        W68818  24.207   2.816  11.994
 7508W        W68819   8.384  24.027   1.740
 7509W        W68820   1.326  30.446   2.384
 7510W        W68821  12.848  33.393   0.804
 7511W        W68822  42.875   8.716  14.983
 7512W        W68823   5.903   9.288   4.794
 7513W        W68824  33.565  19.683   2.825
 7514W        W68825  27.015  28.440   0.353
 7515W        W68826  23.011  17.589   0.944
 7516W        W68827  25.594  21.635   0.475
 7517W        W68828   6.423   3.383  10.002
 7518W        W68829  24.548  38.885  10.488
 7519W        W68830  37.062   0.300  10.533
 7520W        W68831  11.159  42.824  14.861
 7521W        W68832  31.470  23.699   4.729
 7522W        W68833   2.918  35.551  10.630
 7523W        W68834  40.804  16.581  12.892
 7524W        W68835  40.926  16.250  11.503
 7525W        W68836  25.532   3.816   4.346
 7526W        W68837  23.165  38.029  12.984
 7527W        W68838  29.021  27.177   4.792
 7528W        W68839  22.572  37.064  14.960
 7529W        W68840   5.236  33.590  11.891
 7530W        W68841  26.595  37.355   2.668
 7531W        W68842  33.017  13.695  11.390
 7532W        W68843  16.098  42.864   2.810
 7533W        W68844  22.528  28.059  11.586
 7534W        W68845  29.432   9.260   3.812
 7535W        W68846  26.176   7.216   1.699
 7536W        W68847  33.081  28.185  12.924
 7537W        W68848  34.079  33.992   2.403
 7538W        W68849  28.656  22.740   0.339
 7539W        W68850   6.391  25.570  14.294
 7540W        W68851   2.915   5.296   2.230
 7541W        W68852   8.712  43.456  13.477
 7542W        W68853   4.382  44.296  11.382
 7543W        W68854   4.419  29.028   3.802
 7544W        W68855  43.978  16.238  13.485
 7545W        W68856  30.059  43.913  12.894
 7546W        W68857  44.472  16.812  13.024
 7547W        W68858  25.017  31.084   9.921
 7548W        W68859  35.971  32.106  13.822
 7549W        W68860  22.034  27.059   1.749
 7550W        W68861  37.873  23.622   0.275
 7551W        W68862  26.041  26.006   4.347
 7552W        W68863  29.616  12.684   2.796
 7553W        W68864  28.085  20.252  12.936
 7554W        W68865  11.341   4.941   2.316
 7555W        W68866  11.346  25.978  11.909
 7556W        W68867  16.605   0.929   2.672
 7557W        W68868  35.968  28.565   2.250
 7558W        W68869  27.001   6.247  12.361
 7559W        W68870  25.969   8.821   3.213
 7560W        W68871  25.179   3.779   2.755
 7561W        W68872  38.484  16.751  14.950
 7562W        W68873  36.534  16.612  12.450
 7563W        W68874  37.395  11.326   0.772
 7564W        W68875  27.553   7.413   0.921
 7565W        W68876  39.316  27.074  12.075
 7566W        W68877  21.549  18.109   4.674
 7567W        W68878   8.404  25.052  12.487
 7568W        W68879  14.337  27.674   4.292
 7569W        W68880   7.314  34.495  11.121
 7570W        W68881  18.764   1.952  11.943
 7571W        W68882  33.546  42.311  12.533
 7572W        W68883   0.836   4.321   0.254
 7573W        W68884  35.960  10.828   3.218
 7574W        W68885  31.511  30.432  13.904
 7575W        W68886  16.769  43.853  14.011
 7576W        W68887  10.794  23.554   0.294
 7577W        W68888  10.698  12.262  10.594
 7578W        W68889  15.221  43.785  14.328
 7579W        W68890  33.085  23.150   1.708
 7580W        W68891  23.035  30.442  13.531
 7581W        W68892  18.642  29.137  12.374
 7582W        W68893  26.573  39.063  14.429
 7583W        W68894   1.978  41.924   4.760
 7584W        W68895  36.872  36.986  11.066
 7585W        W68896   7.695   3.785  12.826
 7586W        W68897  42.864   7.853   4.741
 7587W        W68898  28.983  36.011   2.351
 7588W        W68899  23.612  10.723   1.363
 7589W        W68900  17.064  33.935  13.000
 7590W        W68901  10.254  29.954   0.939
 7591W        W68902   2.288  44.503   0.264
 7592W        W68903  20.253  23.996   1.740
 7593W        W68904  43.850   0.964  14.365
 7594W        W68905   8.876  19.070  13.973
 7595W        W68906  40.516   5.270  12.556
 7596W        W68907  39.467  20.595   1.418
 7597W        W68908  43.786  37.875   4.302
 7598W        W68909  23.547  16.299   0.777
 7599W        W68910  33.382  39.474   2.741
 7600W        W68911   4.926   6.731   3.203
 7601W        W68912  12.300  44.961   4.770
 7602W        W68913  38.871  13.333  12.968
 7603W        W68914  27.508   3.384  12.997
 7604W        W68915   8.703  13.331   4.349
 7605W        W68916  36.563   8.795   0.402
 7606W        W68917  19.185  44.361   0.888
 7607W        W68918  44.946  31.055   2.362
 7608W        W68919  18.164  23.189  10.621
 7609W        W68920  26.110   6.764   0.828
 7610W        W68921   9.198  35.936   4.749
 7611W        W68922  39.420  26.524  13.477
 7612W        W68923  44.980  38.059  14.284
 7613W        W68924   6.401  34.584   0.943
 7614W        W68925   0.962  36.937   2.756
 7615W        W68926   9.240   2.889   3.754
 7616W        W68927  29.609  40.381   1.370
 7617W        W68928  15.115  11.333   2.310
 7618W        W68929   9.832  40.363  11.373
 7619W        W68930   3.384  22.081  10.472
 7620W        W68931  23.186  15.600  13.347
 7621W        W68932  41.981  11.669  14.428
 7622W        W68933  25.044  11.815   1.916
 7623W        W68934  22.227  33.944  11.486
 7624W        W68935  29.534  29.650   2.334
 7625W        W68936  28.991  31.130   2.899
 7626W        W68937   3.400  36.513  13.798
 7627W        W68938  43.492  40.394   4.130
 7628W        W68939  29.434  18.157  10.887
 7629W        W68940  17.122  19.567   3.249
 7630W        W68941  21.731  40.861   1.412
 7631W        W68942  15.759  42.424   3.376
 7632W        W68943  36.044  31.012  13.024
 7633W        W68944  21.627  11.731  10.501
 7634W        W68945  33.907  35.475   2.709
 7635W        W68946  14.833  12.188   4.692
 7636W        W68947  21.168  20.653  13.989
 7637W        W68948  19.589   2.741  12.561
 7638W        W68949   3.719  31.424  10.505
 7639W        W68950   7.702   2.249   2.674
 7640W        W68951  13.746   7.872  10.481
 7641W        W68952  42.423   6.909   1.271
 7642W        W68953  43.355  11.233  13.321
 7643W        W68954  41.843  23.675  13.400
 7644W        W68955   2.749  34.412  11.050
 7645W        W68956   9.234  14.178  14.404
 7646W        W68957  24.507  38.904   5.273
 7647W        W68958   6.681  15.160   3.165
 7648W        W68959  15.229   9.864  12.871
 7649W        W68960  10.311  33.620  13.393
 7650W        W68961  27.090  28.438   9.971
 7651W        W68962   4.290  13.251  14.405
 7652W        W68963  11.701   6.756   3.827
 7653W        W68964  10.644  11.289   2.709
 7654W        W68965  28.650   2.940   5.292
 7655W        W68966  32.006  31.108   5.273
 7656W        W68967  12.844  19.097  12.522
 7657W        W68968   2.822  41.790   0.730
 7658W        W68969  35.564   5.885   1.335
 7659W        W68970  30.024  11.151  10.643
 7660W        W68971   9.331   4.255  11.562
 7661W        W68972  13.261  13.717   0.883
 7662W        W68973  24.697  42.807   4.838
 7663W        W68974  30.421  13.695  14.387
 7664W        W68975  39.017  15.318   4.284
 7665W        W68976   9.380  24.046   4.153
 7666W        W68977  34.393  34.095  11.929
 7667W        W68978  31.455  14.110   2.387
 7668W        W68979  18.667   3.276   2.734
 7669W        W68980   5.277   1.791   1.716
 7670W        W68981  40.400   9.859  14.318
 7671W        W68982   4.371  16.612  13.427
 7672W        W68983  15.663  40.920   1.236
 7673W        W68984  29.152  30.159   1.236
 7674W        W68985  19.707   1.794  11.988
 7675W        W68986  26.184  24.534  11.903
 7676W        W68987  40.418  31.047  14.786
 7677W        W68988  26.144  27.599   4.233
 7678W        W68989  22.127  25.026  11.404
 7679W        W68990  44.411  29.176   2.381
 7680W        W68991  19.576  41.405  11.932
 7681W        W68992  34.011  31.914  13.513
 7682W        W68993  25.036   5.263   4.129
 7683W        W68994  30.421  11.164   3.839
 7684W        W68995  12.749   7.747  14.851
 7685W        W68996  24.071  21.658  14.821
 7686W        W68997  24.494  36.868  14.278
 7687W        W68998  38.889  28.476  13.053
 7688W        W68999   6.311  36.006  14.918
 7689W        W69000  44.820   8.664   4.353
 7690W        W69001  20.050  22.119   4.772
 7691W        W69002   8.857  22.743   3.299
 7692W        W69003  34.018  43.769   4.208
 7693W        W69004  32.399   3.392  10.940
 7694W        W69005  18.613  26.638   3.828
 7695W        W69006  20.559  27.579   4.768
 7696W        W69007  42.002  24.182  13.798
 7697W        W69008  21.551  16.614   1.447
 7698W        W69009  20.051  39.058   0.880
 7699W        W69010  17.708  34.952  14.960
 7700W        W69011  33.961   3.731  13.349
 7701W        W69012  38.878   6.795   3.708
 7702W        W69013  28.551  28.599   4.259
 7703W        W69014  27.049  18.066   0.928
 7704W        W69015  29.639  23.647  11.450
 7705W        W69016   8.745  29.057   2.763
 7706W        W69017  43.974  32.093   3.353
 7707W        W69018  14.764  32.451  12.909
 7708W        W69019  17.621  22.037  14.930
 7709W        W69020   6.721  32.928   4.317
 7710W        W69021  20.597  42.425   4.655
 7711W        W69022  18.215   2.832  14.423
 7712W        W69023  19.272  12.359  14.820
 7713W        W69024   0.257  15.688   4.317
 7714W        W69025   2.720  37.429  12.541
 7715W        W69026  44.759  29.108  10.614
 7716W        W69027  43.799  37.384   1.393
 7717W        W69028  10.744  11.762   3.819
 7718W        W69029  19.596   1.811  14.363
 7719W        W69030  33.525   0.332  10.892
 7720W        W69031   5.194  21.223  14.882
 7721W        W69032   2.870  15.164   3.839
 7722W        W69033  26.998  44.404   1.232
 7723W        W69034  35.955   2.866  13.926
 7724W        W69035  23.051  37.394   3.768
 7725W        W69036  34.550  23.604  13.500
 7726W        W69037  10.144  24.977  14.821
 7727W        W69038  32.523  43.900   4.243
 7728W        W69039  44.298  12.142   1.321
 7729W        W69040  37.563  30.587  11.401
 7730W        W69041  42.466  42.868   1.794
 7731W        W69042   4.816   4.721   4.194
 7732W        W69043   4.832  25.054  12.354
 7733W        W69044  29.031   7.818  13.406
 7734W        W69045   9.385   1.405  11.385
 7735W        W69046   5.287  23.060  13.793
 7736W        W69047  42.419  33.099   0.453
 7737W        W69048  30.522  39.506  10.537
 7738W        W69049  19.121  21.706   3.159
 7739W        W69050  38.907  23.696   1.339
 7740W        W69051  35.869  35.471   4.822
 7741W        W69052  30.076  22.709   2.802
 7742W        W69053  25.558  14.338   4.778
 7743W        W69054   4.767  15.190   2.308
 7744W        W69055   9.773  42.992  13.867
 7745W        W69056  42.358  27.531   4.190
 7746W        W69057  10.843  21.163   1.214
 7747W        W69058   2.303  22.209   1.712
 7748W        W69059   3.312  27.040  14.988
 7749W        W69060  10.213   8.831  12.037
 7750W        W69061  30.130  11.845  14.365
 7751W        W69062  26.106  13.747   4.817
 7752W        W69063  38.367  11.134  13.821
 7753W        W69064  32.141  18.682   4.318
 7754W        W69065  25.607   3.427  11.906
 7755W        W69066  42.420   7.262   2.312
 7756W        W69067  28.111  27.672   1.761
 7757W        W69068  33.097  42.023   4.733
 7758W        W69069   1.755  31.990  14.018
 7759W        W69070  39.979   2.353  13.984
 7760W        W69071  22.181  42.391  11.011
 7761W        W69072  42.405  18.139   3.293
 7762W        W69073  29.508  30.089  10.968
 7763W        W69074  25.027  43.317  11.942
 7764W        W69075   6.330  15.776  14.284
 7765W        W69076  43.496  36.439   3.655
 7766W        W69077  19.128  37.984   1.761
 7767W        W69078  22.710  32.131  13.842
 7768W        W69079  32.537  37.865   3.262
 7769W        W69080   7.688   6.364   3.371
 7770W        W69081  27.638  44.477  13.464
 7771W        W69082  28.670  17.089  13.013
 7772W        W69083  29.091   4.405  12.970
 7773W        W69084  33.473  38.452  10.510
 7774W        W69085  14.702   9.821   2.236
 7775W        W69086  27.955  35.875   3.204
 7776W        W69087  44.321   1.315   0.263
 7777W        W69088  11.139  27.595  12.430
 7778W        W69089  37.483  32.991  14.859
 7779W        W69090  16.576   5.232  14.311
 7780W        W69091  11.844  22.571   1.358
 7781W        W69092   6.682  30.583   1.434
 7782W        W69093  35.409   1.904  11.891
 7783W        W69094   8.258  41.937  14.275
 7784W        W69095   0.784  44.464  14.799
 7785W        W69096  26.578   4.349   4.221
 7786W        W69097  18.092  20.579  11.059
 7787W        W69098  40.549  19.205  12.074
 7788W        W69099  24.212   4.364   1.397
 7789W        W69100  39.463  29.945   2.830
 7790W        W69101  42.516  24.707  11.898
 7791W        W69102  37.972  33.879  11.563
 7792W        W69103  16.149  40.810   2.243
 7793W        W69104  10.868  35.083  11.476
 7794W        W69105  34.463  17.107  12.011
 7795W        W69106  37.011  38.397   1.260
 7796W        W69107   2.398  42.857  12.063
 7797W        W69108   4.704  19.687  14.802
 7798W        W69109  26.543  22.706   4.633
 7799W        W69110  36.075   5.771   2.375
 7800W        W69111  35.999   6.299   0.731
 7801W        W69112   1.332  28.115   2.780
 7802W        W69113  31.542  44.897  13.383
 7803W        W69114  44.491   8.188  14.342
 7804W        W69115  25.981  35.384  13.850
 7805W        W69116   1.839   5.716  13.350
 7806W        W69117  20.190   0.465  13.998
 7807W        W69118  11.209  34.949  13.017
 7808W        W69119  43.947  34.982   0.919
 7809W        W69120   1.936  18.581   0.769
 7810W        W69121  36.973  39.907   3.299
 7811W        W69122  13.632   3.318  10.011
 7812W        W69123  37.450  26.083  11.959
 7813W        W69124  30.004  44.887   2.276
 7814W        W69125   4.310  15.254   2.205
 7815W        W69126  34.053   7.869   4.704
 7816W        W69127   2.302   0.790  14.923
 7817W        W69128   0.934  37.943   1.857
 7818W        W69129  41.914   0.930  11.524
 7819W        W69130  27.543  28.549  12.497
 7820W        W69131   7.272   2.750  11.964
 7821W        W69132  29.097  39.874  11.045
 7822W        W69133  16.596  11.825  11.967
 7823W        W69134  25.015  30.549   9.668
 7824W        W69135  14.294  10.264   4.799
 7825W        W69136  28.522  19.599  11.413
 7826W        W69137  33.897   1.367   2.265
 7827W        W69138  12.811  32.558   1.352
 7828W        W69139  10.816   0.494   2.276
 7829W        W69140  29.097  28.598   4.178
 7830W        W69141  38.989   3.880   0.824
 7831W        W69142  29.020   2.393  13.931
 7832W        W69143  28.672  32.396  14.965
 7833W        W69144  42.845  13.629  12.906
 7834W        W69145  35.908  36.357  14.458
 7835W        W69146  40.928  12.672   3.644
 7836W        W69147  29.556  38.862  12.041
 7837W        W69148  17.168  35.923  10.963
 7838W        W69149  26.133  35.897   3.765
 7839W        W69150  40.348  18.698  13.850
 7840W        W69151  13.763  21.095   3.871
 7841W        W69152  31.987  10.829   3.646
 7842W        W69153  23.988  21.027  11.960
 7843W        W69154  33.927  13.137  14.915
 7844W        W69155   6.348  14.276  14.360
 7845W        W69156   6.875  10.637  11.584
 7846W        W69157  15.749  34.400   0.470
 7847W        W69158  27.060   0.866  14.945
 7848W        W69159  38.025  17.172   4.736
 7849W        W69160  18.217  29.608  12.940
 7850W        W69161   4.842  13.344   0.793
 7851W        W69162  21.121  27.053  13.937
 7852W        W69163  18.167  43.353  11.522
 7853W        W69164  32.113  35.960  14.830
 7854W        W69165  31.148   4.768  10.578
 7855W        W69166  10.310  32.608  10.629
 7856W        W69167  32.142  29.665  13.055
 7857W        W69168  24.224  20.657  13.054
 7858W        W69169  16.266   4.208   3.325
 7859W        W69170   7.712  27.957   3.294
 7860W        W69171  15.787   4.722  13.966
 7861W        W69172  25.070  20.058   1.299
 7862W        W69173  19.727  32.010   1.920
 7863W        W69174  42.470  23.508  14.495
 7864W        W69175   4.703   6.256  14.432
 7865W        W69176  24.504  28.543  12.076
 7866W        W69177  29.111  41.902   3.328
 7867W        W69178   7.858  25.699  12.517
 7868W        W69179  31.147  39.979  11.380
 7869W        W69180  25.042   3.276  13.954
 7870W        W69181  14.184  31.121  12.023
 7871W        W69182  33.388  29.459  14.279
 7872W        W69183   6.870  34.488  10.962
 7873W        W69184  15.109  44.818  10.438
 7874W        W69185  37.507   3.258  12.986
 7875W        W69186  14.337  12.274   4.135
 7876W        W69187   7.828  26.174   3.280
 7877W        W69188  27.531  39.347   1.827
 7878W        W69189  16.236  14.673   2.255
 7879W        W69190  25.069   4.727   4.131
 7880W        W69191  19.663  21.057   9.927
 7881W        W69192  14.240  43.875   2.330
 7882W        W69193  31.940   6.260   0.288
 7883W        W69194  26.039  36.022   1.432
 7884W        W69195   7.293  10.288   4.269
 7885W        W69196  27.184  12.623  12.986
 7886W        W69197  28.672  36.943  14.893
 7887W        W69198   6.760  33.904  12.005
 7888W        W69199  37.508  37.952   3.158
 7889W        W69200  25.660  28.037  13.517
 7890W        W69201   1.320  23.706   2.182
 7891W        W69202  16.076  43.882  13.028
 7892W        W69203  12.751   1.324  11.872
 7893W        W69204  12.706  42.342  12.846
 7894W        W69205  31.084  42.985  12.550
 7895W        W69206  37.516   4.214   1.213
 7896W        W69207   7.676  42.371   4.280
 7897W        W69208  27.615  17.578   0.471
 7898W        W69209  33.886  34.969  11.012
 7899W        W69210  17.200  32.493   3.664
 7900W        W69211  22.111  25.028   3.251
 7901W        W69212  42.840  34.868   2.330
 7902W        W69213  20.636  18.237  11.578
 7903W        W69214  28.676  10.833   4.343
 7904W        W69215   8.809  37.559  11.556
 7905W        W69216  11.130  15.247   1.349
 7906W        W69217  44.979  17.203  11.893
 7907W        W69218  44.378  18.739   3.750
 7908W        W69219   3.294  41.903   1.385
 7909W        W69220   3.752   8.327  14.808
 7910W        W69221  23.714  24.982   0.289
 7911W        W69222  18.290   3.906   5.152
 7912W        W69223  30.619   7.866   4.729
 7913W        W69224  28.635   5.319   1.917
 7914W        W69225  15.793  30.023   4.775
 7915W        W69226  20.219   6.699  14.000
 7916W        W69227  20.647   2.801   0.333
 7917W        W69228  31.916   0.377  12.463
 7918W        W69229  39.556  33.008  10.919
 7919W        W69230  39.856  17.207   3.173
 7920W        W69231  37.043  33.131   4.786
 7921W        W69232  42.304  19.072   4.734
 7922W        W69233  27.143  16.742  13.498
 7923W        W69234  41.935  19.146   1.266
 7924W        W69235  39.472  12.750   1.367
 7925W        W69236  38.339  16.075   3.324
 7926W        W69237  27.183  38.872   3.258
 7927W        W69238  38.457  35.080   4.624
 7928W        W69239   1.375  22.126  11.581
 7929W        W69240  38.909   5.894   1.904
 7930W        W69241  22.668  40.513  13.818
 7931W        W69242   5.336   8.746   3.307
 7932W        W69243  37.990   3.764  14.388
 7933W        W69244  32.087   8.293  12.520
 7934W        W69245  12.263   3.400   1.405
 7935W        W69246  43.840  40.313   1.809
 7936W        W69247  43.512  37.454   2.183
 7937W        W69248  33.493  39.950   3.229
 7938W        W69249   4.206  22.034  11.498
 7939W        W69250  16.778  35.528  12.484
 7940W        W69251  33.624  30.607  10.114
 7941W        W69252  31.040  13.841   3.181
 7942W        W69253  17.167  17.237  14.912
 7943W        W69254  37.371  21.204   1.757
 7944W        W69255  16.182  35.924   0.946
 7945W        W69256  25.601  14.235  12.450
 7946W        W69257  32.002  31.517  14.795
 7947W        W69258  26.035  39.844  12.936
 7948W        W69259  39.972   4.810  12.361
 7949W        W69260  28.453   1.913  10.955
 7950W        W69261  33.072  12.855  13.874
 7951W        W69262  15.782  37.933   3.296
 7952W        W69263  32.396  30.938   0.413
 7953W        W69264  18.267  13.260   1.707
 7954W        W69265   4.868  43.418   2.284
 7955W        W69266  39.847   9.714  10.968
 7956W        W69267  35.599  16.111  14.990
 7957W        W69268  43.274  18.641  14.482
 7958W        W69269  11.715  16.132   0.394
 7959W        W69270  36.512  28.582   0.309
 7960W        W69271  27.640   7.291   3.860
 7961W        W69272   8.713   5.239  11.507
 7962W        W69273   8.261  44.974   2.374
 7963W        W69274  15.592  16.663   2.217
 7964W        W69275  27.615  35.422   1.308
 7965W        W69276  10.252  40.386   4.784
 7966W        W69277  33.107   5.771   4.806
 7967W        W69278  17.603  18.071  14.281
 7968W        W69279  44.366  12.297  10.576
 7969W        W69280  11.134  28.535   4.133
 7970W        W69281  42.909  14.760  13.323
 7971W        W69282  19.709  13.763  13.002
 7972W        W69283  13.630  31.608  13.528
 7973W        W69284   1.942  18.123  11.376
 7974W        W69285  11.370  15.744  14.303
 7975W        W69286  12.624  29.568  14.930
 7976W        W69287  21.072   6.712  11.037
 7977W        W69288  37.905  31.039  14.340
 7978W        W69289  35.934  29.039   9.445
 7979W        W69290  23.576  39.908   5.257
 7980W        W69291  12.347  41.948   0.962
 7981W        W69292   0.345  20.229  13.507
 7982W        W69293  16.123  22.650   1.410
 7983W        W69294  27.045  40.313   1.446
 7984W        W69295   3.828  40.330   3.158
 7985W        W69296  12.656  14.328   0.281
 7986W        W69297  30.578   9.326   0.834
 7987W        W69298  33.436  42.776   2.315
 7988W        W69299  29.587  38.536   3.721
 7989W        W69300   2.272   7.187  14.954
 7990W        W69301  11.294   7.708  11.035
 7991W        W69302  22.146  19.254   0.868
 7992W        W69303  15.294  11.290  11.040
 7993W        W69304  21.189   4.349  14.823
 7994W        W69305  36.377  14.750  12.882
 7995W        W69306  18.700  38.457   0.371
 7996W        W69307   6.845  22.681  14.824
 7997W        W69308  25.048  13.819  12.071
 7998W        W69309  36.408   9.269  14.332
 7999W        W69310  39.320  43.479   1.793
 8000W        W69311   2.956  39.386   3.865
 8001W        W69312  36.002  35.371  14.279
 8002W        W69313  15.773  32.594   1.901
 8003W        W69314  20.201  21.611   4.185
 8004W        W69315  36.999  15.634  14.781
 8005W        W69316  21.691  16.310  14.338
 8006W        W69317  12.623  17.591   4.214
 8007W        W69318   1.328  36.879  14.410
 8008W        W69319  23.677  28.174  10.433
 8009W        W69320   8.290  39.040  12.997
 8010W        W69321  15.280  43.878  13.902
 8011W        W69322   6.725  29.940  11.859
 8012W        W69323  34.502  22.122   1.759
 8013W        W69324  34.400  27.133   0.282
 8014W        W69325  30.099  31.617   2.690
 8015W        W69326  35.991  20.267  10.923
 8016W        W69327  30.010   5.815  13.831
 8017W        W69328  33.604   3.372  10.040
 8018W        W69329  44.497  19.072   3.233
 8019W        W69330  17.691  44.305   3.697
 8020W        W69331  12.336  24.609   4.145
 8021W        W69332   4.379  36.060  13.971
 8022W        W69333  44.285  25.643   1.435
 8023W        W69334  12.643  11.287   2.257
 8024W        W69335   0.402  25.567  12.904
 8025W        W69336  22.111  41.842  11.867
 8026W        W69337  41.426  26.016  14.841
 8027W        W69338  26.076  12.271   4.328
 8028W        W69339  15.156  10.723   4.167
 8029W        W69340  42.354  12.239   4.245
 8030W        W69341   8.816  29.456   1.286
 8031W        W69342  14.598   0.474   1.811
 8032W        W69343  13.663  21.058  12.048
 8033W        W69344  19.186  41.931   1.799
 8034W        W69345  24.197  11.359   2.398
 8035W        W69346  12.846  33.563   3.195
 8036W        W69347  22.138  29.098  13.360
 8037W        W69348  30.015  25.617   1.808
 8038W        W69349  12.626  20.050   1.241
 8039W        W69350  28.638  11.621  11.891
 8040W        W69351   0.480  13.665   1.862
 8041W        W69352  25.636  13.223  12.493
 8042W        W69353  25.678  35.046  10.931
 8043W        W69354  25.111  42.004   2.414
 8044W        W69355  32.070  13.270  10.598
 8045W        W69356  31.522   2.446  13.509
 8046W        W69357  15.132  44.812  11.906
 8047W        W69358  36.940   2.370  12.985
 8048W        W69359  15.186  13.769   3.864
 8049W        W69360  13.834  19.748  10.592
 8050W        W69361  39.349  23.493  11.601
 8051W        W69362  33.913  44.805   0.768
 8052W        W69363  16.595  39.975   3.683
 8053W        W69364  39.508  16.784   2.221
 8054W        W69365  44.438  32.008   0.335
 8055W        W69366  44.763  23.237  11.114
 8056W        W69367  16.782  35.011   2.830
 8057W        W69368   3.224  16.247  12.853
 8058W        W69369   2.868  39.021  11.872
 8059W        W69370  41.914  25.613  13.495
 8060W        W69371   4.848  21.742  13.349
 8061W        W69372  35.014   2.835  14.883
 8062W        W69373  26.201   6.836  12.898
 8063W        W69374  16.090   1.378   2.252
 8064W        W69375  35.469  17.744   3.189
 8065W        W69376  33.061   8.807   3.374
 8066W        W69377  41.819  23.023  11.889
 8067W        W69378  17.096  27.038  11.593
 8068W        W69379  32.596   8.668  13.315
 8069W        W69380  32.442  43.371   1.225
 8070W        W69381  11.749  33.624   1.769
 8071W        W69382   2.930  30.085  13.981
 8072W        W69383   0.361  22.185   1.393
 8073W        W69384  29.921  42.851   2.383
 8074W        W69385  13.613  14.245  14.428
 8075W        W69386  15.715   1.412  13.925
 8076W        W69387  28.985  35.401   0.790
 8077W        W69388  27.011   7.263   1.220
 8078W        W69389  17.695  27.453   0.886
 8079W        W69390  13.745  26.002  14.813
 8080W        W69391   8.695  13.177  14.893
 8081W        W69392  24.065  31.598   2.820
 8082W        W69393  26.461  15.194  11.060
 8083W        W69394  13.138   0.333   1.841
 8084W        W69395   8.217  12.672  14.857
 8085W        W69396  33.471   0.436   0.436
 8086W        W69397  14.640  36.932  11.587
 8087W        W69398  32.426  42.025   2.683
 8088W        W69399  18.670  18.548  10.481
 8089W        W69400  42.481  27.597   1.752
 8090W        W69401  10.158   6.290  13.877
 8091W        W69402  44.832  35.510   3.311
 8092W        W69403  25.962  16.573   2.691
 8093W        W69404  25.652  16.689  13.938
 8094W        W69405   1.775   3.823  14.492
 8095W        W69406   8.383  22.159   2.414
 8096W        W69407  22.587   3.357   0.397
 8097W        W69408  44.390   5.689  11.384
 8098W        W69409  33.022  33.047   2.882
 8099W        W69410  21.655   5.819   2.889
 8100W        W69411   9.229  28.134  13.960
 8101W        W69412  44.412  20.153  14.990
 8102W        W69413  10.783  17.097   3.331
 8103W        W69414  20.043  43.966  11.946
 8104W        W69415  33.877  14.142   1.272
 8105W        W69416  26.648  12.831   3.630
 8106W        W69417  19.564  25.111  10.602
 8107W        W69418   1.285  38.073   2.333
 8108W        W69419  14.673  43.021  11.477
 8109W        W69420  10.183  34.464  13.505
 8110W        W69421  31.528  32.990  14.970
 8111W        W69422  15.657  16.217  13.367
 8112W        W69423  31.989   5.254   5.669
 8113W        W69424  26.986  44.445   4.685
 8114W        W69425   5.236  44.422   1.232
 8115W        W69426  19.595   4.416  10.485
 8116W        W69427  28.445  36.990   1.406
 8117W        W69428  13.817   8.306   4.746
 8118W        W69429  31.034  39.397   4.303
 8119W        W69430  16.809  43.366  12.872
 8120W        W69431   2.793  12.820   4.727
 8121W        W69432  17.664  18.230  13.358
 8122W        W69433  30.026  18.294  11.103
 8123W        W69434  18.146  39.998   4.327
 8124W        W69435   5.245   9.789  10.898
 8125W        W69436  27.093  18.054   3.213
 8126W        W69437  44.395  27.983  14.774
 8127W        W69438   5.718   5.714  12.962
 8128W        W69439  17.186  42.832   0.454
 8129W        W69440   2.258  19.550   1.271
 8130W        W69441  24.988  27.470   3.736
 8131W        W69442  33.090   2.935  12.958
 8132W        W69443  32.105  41.405   4.832
 8133W        W69444  13.299  40.953   0.269
 8134W        W69445  14.306  36.886  12.923
 8135W        W69446  37.508  11.232  12.563
 8136W        W69447  20.124  36.091   2.757
 8137W        W69448   0.842  34.453  12.502
 8138W        W69449  34.603  41.966  14.825
 8139W        W69450  35.489   2.724  13.873
 8140W        W69451  42.489   8.731  13.401
 8141W        W69452  26.979  16.738  11.543
 8142W        W69453  28.674   8.318  10.930
 8143W        W69454  20.116  41.481   2.192
 8144W        W69455  44.964   4.763   3.184
 8145W        W69456  24.190  27.480   2.264
 8146W        W69457  31.585  37.347  12.939
 8147W        W69458  26.538  42.497   4.252
 8148W        W69459   4.267   8.783   2.245
 8149W        W69460  26.656  24.097  12.447
 8150W        W69461  36.922  23.999  14.931
 8151W        W69462  17.694  37.582   4.232
 8152W        W69463  42.307  27.005  10.460
 8153W        W69464   5.432  11.746  14.313
 8154W        W69465   3.813  27.614   3.182
 8155W        W69466  40.823  39.521   1.444
 8156W        W69467  25.617  44.311  14.462
 8157W        W69468  14.807  40.445   4.256
 8158W        W69469   2.938  28.942   3.280
 8159W        W69470  35.976  24.200   1.424
 8160W        W69471  33.387   8.724  11.026
 8161W        W69472  29.661  27.677   3.151
 8162W        W69473   7.229  39.366   3.801
 8163W        W69474  13.722  42.016  13.841
 8164W        W69475  25.668  25.026   3.364
 8165W        W69476  42.955  32.411  10.451
 8166W        W69477  11.222  16.206  11.457
 8167W        W69478  34.112  40.528  10.566
 8168W        W69479  24.133  43.393   3.370
 8169W        W69480  24.171  31.523  10.997
 8170W        W69481  37.047  15.159   4.166
 8171W        W69482   6.421  33.004  14.760
 8172W        W69483  24.649  32.040  10.096
 8173W        W69484   3.888  18.286  12.464
 8174W        W69485  17.149  28.013  10.517
 8175W        W69486  36.497  30.429  14.379
 8176W        W69487   2.265  40.415  12.482
 8177W        W69488  43.424  41.793   2.391
 8178W        W69489   7.384  13.739   4.748
 8179W        W69490  38.494  15.136   1.272
 8180W        W69491  33.585  36.504   1.354
 8181W        W69492  11.755  31.013  14.462
 8182W        W69493   4.849  34.457  13.489
 8183W        W69494  41.296  18.160   2.187
 8184W        W69495   2.944  44.343   1.867
 8185W        W69496   9.843  15.766  14.976
 8186W        W69497   1.914   0.475   1.736
 8187W        W69498   6.425  27.512  13.926
 8188W        W69499  40.337  14.108  11.497
 8189W        W69500  13.268  39.018   4.672
 8190W        W69501  37.335  20.638   1.452
 8191W        W69502  33.381   7.336   4.836
 8192W        W69503   8.340  15.306  14.014
 8193W        W69504  26.970  29.468  14.420
 8194W        W69505   0.366  18.146  14.025
 8195W        W69506  38.994  10.334   1.855
 8196W        W69507  32.547  37.884   0.748
 8197W        W69508  11.737  43.420   3.664
 8198W        W69509   5.335  31.565   4.167
 8199W        W69510  32.617  13.808  12.473
 8200W        W69511   9.733  20.094  11.080
 8201W        W69512   8.713  21.161   4.822
 8202W        W69513   4.224  11.277   4.651
 8203W        W69514  15.821  10.829   2.374
 8204W        W69515  39.540  40.027   4.113
 8205W        W69516   2.311  41.909   0.871
 8206W        W69517   7.244  39.350   1.821
 8207W        W69518  24.606  42.815   4.203
 8208W        W69519  41.818  31.533   2.731
 8209W        W69520   9.284  17.564   4.318
 8210W        W69521  11.329   6.873   1.300
 8211W        W69522  37.941  43.349   2.689
 8212W        W69523  14.749   3.443  13.334
 8213W        W69524  27.571  33.626  11.608
 8214W        W69525  22.713  26.672   1.266
 8215W        W69526   2.463  31.949  10.983
 8216W        W69527  13.233  27.467   0.342
 8217W        W69528  39.319  28.437  13.366
 8218W        W69529  39.319   3.743   0.733
 8219W        W69530  37.375  40.402   0.472
 8220W        W69531  23.211  18.251  12.459
 8221W        W69532  37.474  38.501  12.525
 8222W        W69533  36.438  18.755   3.220
 8223W        W69534  43.782   7.905   3.308
 8224W        W69535   0.337  43.805  11.574
 8225W        W69536  15.639  19.137   4.600
 8226W        W69537   8.853  12.638  13.990
 8227W        W69538  44.260   7.883  11.943
 8228W        W69539   5.874  23.546  10.587
 8229W        W69540  34.533   7.369   1.721
 8230W        W69541  44.408  17.075   3.848
 8231W        W69542  20.552  43.869   3.305
 8232W        W69543  39.532   0.491  12.962
 8233W        W69544  14.645   9.252   2.884
 8234W        W69545   9.676  28.995  11.892
 8235W        W69546  21.133  13.157  12.487
 8236W        W69547  13.817  38.835   0.348
 8237W        W69548  28.092  41.384   4.134
 8238W        W69549  29.484   3.420   4.150
 8239W        W69550  19.676  38.341   0.321
 8240W        W69551  32.607  21.090  13.896
 8241W        W69552  43.844  21.629   4.174
 8242W        W69553  40.486  13.604  12.550
 8243W        W69554   8.767   6.814  10.422
 8244W        W69555  44.377  43.016   0.319
 8245W        W69556  34.471   7.886  10.532
 8246W        W69557  19.671  19.178  13.970
 8247W        W69558  12.771   9.347  11.576
 8248W        W69559  20.534  40.906   1.726
 8249W        W69560  15.725  37.512  11.448
 8250W        W69561  34.550  20.039  10.890
 8251W        W69562  15.207  35.415   2.785
 8252W        W69563  41.829   0.275  11.564
 8253W        W69564  31.431   2.961  14.910
 8254W        W69565  42.498   7.802  14.376
 8255W        W69566  29.568  38.953  14.969
 8256W        W69567  41.416  42.798   4.817
 8257W        W69568  31.645  44.914   4.667
 8258W        W69569  37.954   3.886   3.728
 8259W        W69570  40.001  20.084  12.892
 8260W        W69571  12.288  15.096  12.886
 8261W        W69572  40.448  35.597  11.514
 8262W        W69573  37.532  24.715   0.846
 8263W        W69574  22.201   5.756   2.212
 8264W        W69575  44.973   3.952   1.387
 8265W        W69576  34.947  18.616   3.684
 8266W        W69577   4.401   4.418  12.576
 8267W        W69578  14.791  17.131   0.788
 8268W        W69579  24.231  35.579  10.961
 8269W        W69580  14.249  22.671   9.972
 8270W        W69581  38.025  16.591  12.570
 8271W        W69582  35.552  12.685  11.463
 8272W        W69583  24.622   6.305   1.410
 8273W        W69584  25.070  35.018  14.894
 8274W        W69585  19.176  26.635   4.654
 8275W        W69586   8.350   0.753   2.328
 8276W        W69587  16.229  27.616  12.450
 8277W        W69588  40.471  31.490   0.734
 8278W        W69589  19.092  19.576   3.751
 8279W        W69590  25.169   8.882  13.460
 8280W        W69591   1.364  37.952  13.514
 8281W        W69592  33.102  37.931   0.837
 8282W        W69593  17.211  44.821   0.301
 8283W        W69594  30.121  21.224   2.682
 8284W        W69595  31.576  20.707  10.438
 8285W        W69596  29.656  25.183   3.362
 8286W        W69597  29.103  16.633  11.445
 8287W        W69598  34.446  18.270  11.918
 8288W        W69599   6.369  27.023  13.403
 8289W        W69600  22.122   7.827  14.854
 8290W        W69601  32.921   2.940  14.928
 8291W        W69602  23.079  40.968  13.033
 8292W        W69603  33.399  25.695  10.465
 8293W        W69604  18.672   8.710  10.618
 8294W        W69605  23.120  24.988   1.724
 8295W        W69606  26.052   3.444   1.741
 8296W        W69607  42.398   8.374   1.246
 8297W        W69608  10.657   1.790  13.448
 8298W        W69609  34.573   9.384   0.481
 8299W        W69610  21.594  42.808  10.888
 8300W        W69611  34.072   0.336   2.714
 8301W        W69612  11.304   1.967   2.396
 8302W        W69613  31.442  44.812  10.560
 8303W        W69614   9.264  26.034   1.874
 8304W        W69615  20.187  13.768   0.462
 8305W        W69616   3.755   7.328  12.865
 8306W        W69617   9.864  28.067   4.678
 8307W        W69618  13.216   8.767  12.031
 8308W        W69619  10.678  26.500   2.878
 8309W        W69620  18.751   4.835  11.934
 8310W        W69621  29.002  29.129  11.384
 8311W        W69622   3.738  27.166  13.036
 8312W        W69623  42.286   0.860  11.009
 8313W        W69624  13.785  21.629   0.748
 8314W        W69625   2.273   4.283   2.745
 8315W        W69626  15.277  11.157  12.361
 8316W        W69627   4.742   6.287  10.463
 8317W        W69628  26.661  14.694   0.348
 8318W        W69629   7.342  39.435   1.255
 8319W        W69630  31.950  36.435  12.842
 8320W        W69631  16.238   8.746   1.832
 8321W        W69632  30.436  38.471  10.594
 8322W        W69633  17.148  28.575  14.790
 8323W        W69634  37.025   9.366   3.241
 8324W        W69635  12.657  28.647   4.739
 8325W        W69636   6.714  16.711   2.884
 8326W        W69637  18.665  25.205   1.258
 8327W        W69638   0.426  30.650   4.759
 8328W        W69639  19.705  38.904   9.458
 8329W        W69640   0.983  44.779  11.581
 8330W        W69641  21.755  42.522  12.534
 8331W        W69642  44.767   2.329  10.618
 8332W        W69643  18.292   4.256   4.132
 8333W        W69644  33.964   8.881  13.979
 8334W        W69645  44.415   2.392   0.359
 8335W        W69646  39.830   9.388  14.344
 8336W        W69647  14.311  14.727   2.671
 8337W        W69648  19.690  27.187   0.429
 8338W        W69649  27.094  16.742  11.902
 8339W        W69650  25.556  24.553  11.060
 8340W        W69651  15.202   6.838  13.503
 8341W        W69652  28.095  35.939  10.544
 8342W        W69653  18.633  36.067   2.281
 8343W        W69654  38.064   6.399   2.891
 8344W        W69655  30.473  13.697  10.895
 8345W        W69656  39.968   1.975  14.859
 8346W        W69657  12.205  36.924   0.807
 8347W        W69658  27.495  39.457   3.213
 8348W        W69659  14.315   1.318  12.540
 8349W        W69660  24.157  33.412   2.393
 8350W        W69661  41.455  12.343  10.515
 8351W        W69662  35.485  12.272  14.966
 8352W        W69663   0.437  18.669  11.504
 8353W        W69664  16.211   2.264  12.478
 8354W        W69665  30.502   8.207  12.085
 8355W        W69666  44.365  28.031  12.524
 8356W        W69667  44.827   6.290   2.718
 8357W        W69668  42.338  13.685  15.000
 8358W        W69669  20.044  13.250  11.926
 8359W        W69670  41.949  13.149   1.224
 8360W        W69671   2.342  26.651  14.414
 8361W        W69672  30.619   0.411  11.057
 8362W        W69673  36.505  15.719  12.000
 8363W        W69674  37.958  28.985  13.511
 8364W        W69675  24.612   8.275  14.787
 8365W        W69676  33.602  11.761  14.840
 8366W        W69677  23.527   5.775  10.623
 8367W        W69678  44.341   0.360  10.041
 8368W        W69679  40.342   5.790   3.770
 8369W        W69680  23.028  23.684   2.217
 8370W        W69681   4.412  28.548  11.513
 8371W        W69682  43.337  10.258   0.760
 8372W        W69683   0.299  32.977   4.247
 8373W        W69684  34.569   5.244  11.961
 8374W        W69685  14.805   3.724   0.463
 8375W        W69686   5.855  27.653  12.824
 8376W        W69687  30.052  31.571   0.800
 8377W        W69688  36.973   4.215   3.308
 8378W        W69689  24.229  26.582  13.909
 8379W        W69690  18.070  28.527  11.079
 8380W        W69691  38.450  39.985  11.994
 8381W        W69692  39.848  31.573  14.469
 8382W        W69693  16.680   9.383  14.948
 8383W        W69694  10.383  19.172   2.808
 8384W        W69695  13.755  19.068  11.505
 8385W        W69696  22.635   8.695   5.284
 8386W        W69697  11.360  40.028   1.909
 8387W        W69698  32.058  12.722   3.153
 8388W        W69699  43.769   9.186   4.351
 8389W        W69700  15.579  13.719  14.338
 8390W        W69701  43.362  25.510   2.811
 8391W        W69702  10.358  29.060  11.452
 8392W        W69703  37.385  20.717   3.748
 8393W        W69704  21.514  44.381   4.731
 8394W        W69705  40.430  21.535   1.416
 8395W        W69706  44.891  10.332  12.394
 8396W        W69707  42.786  30.470  11.571
 8397W        W69708  33.391   6.263  12.944
 8398W        W69709  28.632  35.449  13.454
 8399W        W69710  20.753  27.158   4.179
 8400W        W69711  15.199  16.728   3.365
 8401W        W69712   9.363   4.324  13.952
 8402W        W69713  29.456  32.088   0.928
 8403W        W69714  19.690  16.251   1.403
 8404W        W69715  44.483  15.114  10.633
 8405W        W69716   2.303   1.948  12.917
 8406W        W69717  10.863  37.924   1.845
 8407W        W69718  32.514  11.252  13.905
 8408W        W69719  32.047  12.621  14.359
 8409W        W69720   3.254  16.742  12.049
 8410W        W69721  44.881  18.556  14.447
 8411W        W69722  10.336   2.721   0.927
 8412W        W69723  11.638  20.193   1.869
 8413W        W69724  43.983  10.201  13.518
 8414W        W69725  14.272  36.429  13.890
 8415W        W69726  34.068  21.528  13.940
 8416W        W69727  30.571  27.963   2.286
 8417W        W69728  40.359  38.556   1.228
 8418W        W69729  41.833  20.190  12.940
 8419W        W69730  21.048  23.228   3.335
 8420W        W69731  38.823   0.815   1.840
 8421W        W69732  41.826   2.445  13.448
 8422W        W69733  37.347  38.503  11.950
 8423W        W69734  26.067   0.297   4.181
 8424W        W69735  25.084  32.113  13.938
 8425W        W69736  24.707  18.227  14.965
 8426W        W69737  42.519  22.037   3.644
 8427W        W69738  38.834  13.701  14.892
 8428W        W69739  30.485  40.445  14.324
 8429W        W69740  19.713   5.286  11.929
 8430W        W69741  21.175   6.731  12.522
 8431W        W69742   4.846  34.610   1.370
 8432W        W69743  14.800  17.690   4.678
 8433W        W69744  11.663   8.879   0.956
 8434W        W69745  12.150  23.084  14.006
 8435W        W69746  43.889  28.171  10.574
 8436W        W69747  32.028   5.415   3.819
 8437W        W69748  14.129   3.753  11.541
 8438W        W69749  33.019  42.406  11.393
 8439W        W69750  40.423   0.981   3.327
 8440W        W69751   7.700  25.055  14.983
 8441W        W69752   2.761   1.938   1.238
 8442W        W69753  30.532  24.080   0.314
 8443W        W69754  38.023  42.942   5.769
 8444W        W69755  44.361  14.119  13.548
 8445W        W69756  34.512  30.641   3.364
 8446W        W69757  44.396  13.155   1.740
 8447W        W69758  22.680  36.071   0.304
 8448W        W69759  23.705  25.137   4.341
 8449W        W69760  35.588  16.802   2.389
 8450W        W69761  30.540  12.708   3.337
 8451W        W69762  40.913  39.838   4.151
 8452W        W69763  41.991  38.500  11.403
 8453W        W69764  29.469  21.098  12.002
 8454W        W69765  30.970  15.800  10.436
 8455W        W69766  12.622  29.035   1.242
 8456W        W69767  10.660  24.692  12.490
 8457W        W69768  14.644  15.242   2.238
 8458W        W69769  37.542  24.028   4.781
 8459W        W69770   0.751   5.861   2.417
 8460W        W69771  36.053  10.786  12.559
 8461W        W69772   5.805  32.965  11.946
 8462W        W69773   1.811  36.066   3.712
 8463W        W69774  22.092  24.607   4.823
 8464W        W69775  11.715   7.790   3.191
 8465W        W69776  16.283  40.473  10.052
 8466W        W69777  22.107  38.333  12.840
 8467W        W69778  24.005  12.276  13.882
 8468W        W69779   5.216  12.836   1.326
 8469W        W69780  41.420  37.569   4.838
 8470W        W69781  19.228  30.535  10.454
 8471W        W69782  17.728  28.578   1.878
 8472W        W69783  22.012  29.062   9.555
 8473W        W69784   7.271  38.431  12.430
 8474W        W69785  21.183  10.757   3.790
 8475W        W69786  23.724  27.638  11.594
 8476W        W69787  35.943  23.578   0.481
 8477W        W69788  19.071  25.505   0.965
 8478W        W69789  24.172  35.004  13.832
 8479W        W69790  22.691  35.934  14.762
 8480W        W69791   2.464  28.555  14.938
 8481W        W69792   7.204  39.828   4.652
 8482W        W69793  18.749  15.310  13.516
 8483W        W69794  33.926   3.257   2.775
 8484W        W69795  19.049  38.354  13.476
 8485W        W69796  38.524  18.197  13.333
 8486W        W69797   3.933  17.276   3.718
 8487W        W69798  18.291  11.328   9.991
 8488W        W69799  21.602  26.656   1.886
 8489W        W69800   8.750  27.567  12.379
 8490W        W69801  24.643   1.259   1.244
 8491W        W69802  24.494  39.503   3.193
 8492W        W69803  33.012  40.807   0.942
 8493W        W69804  29.044  29.510   1.289
 8494W        W69805   9.329  38.345   4.735
 8495W        W69806  41.378  15.304   4.785
 8496W        W69807  36.991  28.527   1.786
 8497W        W69808  16.638  19.147   1.445
 8498W        W69809  43.401  14.718   3.355
 8499W        W69810  39.336  12.620   2.807
 8500W        W69811   1.848  40.393  10.519
 8501W        W69812  34.062   9.328   4.805
 8502W        W69813  35.456  34.035  12.072
 8503W        W69814   8.337  21.135   1.897
 8504W        W69815   0.831  38.521  14.439
 8505W        W69816  37.380  18.683   4.829
 8506W        W69817  28.136  42.877   3.653
 8507W        W69818  22.095  16.208  13.529
 8508W        W69819  11.655  36.914   2.338
 8509W        W69820  15.650   5.357   0.383
 8510W        W69821  37.426  13.712  14.313
 8511W        W69822   9.698  36.470   4.115
 8512W        W69823   9.870  37.372  12.042
 8513W        W69824  28.448   8.880   0.404
 8514W        W69825  24.118   8.230   0.470
 8515W        W69826   2.728   4.840  14.367
 8516W        W69827  17.666  43.833   4.351
 8517W        W69828   5.408  44.269  14.421
 8518W        W69829  24.480  22.722   2.728
 8519W        W69830  11.225  20.174  12.408
 8520W        W69831  11.654  15.708  11.531
 8521W        W69832   9.299  35.856  11.883
 8522W        W69833  34.503  28.627   2.268
 8523W        W69834   9.363  41.806  12.826
 8524W        W69835   4.750  19.202   3.706
 8525W        W69836  18.059  17.780   3.321
 8526W        W69837  15.164   4.777  12.051
 8527W        W69838  40.346  15.258  13.059
 8528W        W69839   6.733  37.345  10.452
 8529W        W69840  13.713  40.415  13.922
 8530W        W69841   1.733  16.767  10.458
 8531W        W69842  38.332  43.822  12.483
 8532W        W69843  37.848  25.097   5.288
 8533W        W69844  31.519   1.307  14.364
 8534W        W69845  16.628  13.807  12.852
 8535W        W69846  38.823  34.438   1.427
 8536W        W69847   3.950  22.016   4.119
 8537W        W69848   8.357  11.685   0.896
 8538W        W69849  10.231  12.841   1.872
 8539W        W69850  23.577  21.579   0.905
 8540W        W69851  19.238   9.273  12.954
 8541W        W69852   4.232  39.980  13.896
 8542W        W69853  28.506  44.397   1.386
 8543W        W69854  27.077   0.819   0.482
 8544W        W69855   5.693   1.965   2.830
 8545W        W69856   0.986   0.973  14.297
 8546W        W69857  40.875  40.358   1.780
 8547W        W69858  32.625  31.615  13.367
 8548W        W69859   1.361  23.625  12.370
 8549W        W69860  17.101  18.245   2.261
 8550W        W69861  37.566  36.358  11.117
 8551W        W69862  40.334  44.272   1.410
 8552W        W69863  24.653  32.622  11.887
 8553W        W69864   4.890   9.704  10.543
 8554W        W69865  24.621  33.457   9.519
 8555W        W69866  40.913   0.776  13.029
 8556W        W69867   2.321  29.932   1.397
 8557W        W69868  28.048  33.983  14.769
 8558W        W69869   0.981  42.028   0.274
 8559W        W69870  13.253  44.470   2.895
 8560W        W69871   6.312   3.886   3.309
 8561W        W69872  11.772  40.845  11.035
 8562W        W69873  13.280   8.891   3.749
 8563W        W69874  25.655  43.985   4.192
 8564W        W69875  30.432  36.068   4.259
 8565W        W69876  37.460  23.726  10.562
 8566W        W69877  32.032  19.757   4.722
 8567W        W69878  44.444   5.404  14.397
 8568W        W69879  18.068  15.668   1.871
 8569W        W69880   9.661  10.815  13.889
 8570W        W69881  34.374  11.804   1.232
 8571W        W69882  32.992  36.474  14.301
 8572W        W69883  44.436  36.940   4.707
 8573W        W69884   2.317  33.464  14.336
 8574W        W69885  30.156  32.931   3.193
 8575W        W69886  25.659   1.960  14.021
 8576W        W69887   9.644  42.415   2.842
 8577W        W69888  13.108  27.192  10.995
 8578W        W69889  36.849   0.447   2.266
 8579W        W69890  33.483  18.235  11.580
 8580W        W69891  42.510  24.526   3.776
 8581W        W69892  17.593  28.978   2.216
 8582W        W69893   0.964   0.299  14.464
 8583W        W69894  32.004   3.797  12.056
 8584W        W69895   9.731  31.492  10.590
 8585W        W69896  15.265   4.422  12.488
 8586W        W69897  12.290  16.106  14.876
 8587W        W69898  36.883  31.150   4.800
 8588W        W69899  33.527  22.732   5.197
 8589W        W69900  35.541  19.264   4.205
 8590W        W69901  35.941  39.815  10.132
 8591W        W69902  10.330  28.186   0.403
 8592W        W69903  34.081  17.226  12.442
 8593W        W69904   9.192  41.889  14.923
 8594W        W69905  33.059  38.889   0.414
 8595W        W69906  44.821  41.454   0.385
 8596W        W69907   7.311  24.166   3.812
 8597W        W69908  10.223   5.237  12.934
 8598W        W69909   0.278   6.815   3.301
 8599W        W69910  12.712  25.060   5.668
 8600W        W69911  34.573  17.612   3.328
 8601W        W69912  31.647  10.192  14.346
 8602W        W69913   1.954  33.457  14.008
 8603W        W69914  16.700   0.389  14.385
 8604W        W69915  13.655   6.291  10.947
 8605W        W69916  41.863  39.550   4.677
 8606W        W69917  29.518  19.597  12.525
 8607W        W69918  42.799   7.749   2.693
 8608W        W69919  23.569  28.964   1.721
 8609W        W69920  10.657  34.114  13.338
 8610W        W69921  39.036  30.141  10.150
 8611W        W69922  12.665  30.984   4.127
 8612W        W69923  24.158  22.714   4.346
 8613W        W69924  12.247  26.014   1.446
 8614W        W69925  15.597   2.814   3.358
 8615W        W69926  26.533  43.825   3.341
 8616W        W69927  33.945  31.621   1.384
 8617W        W69928  21.250  21.189  11.550
 8618W        W69929  10.320  35.409   2.718
 8619W        W69930  12.306   0.883  11.568
 8620W        W69931  32.432   2.467   4.304
 8621W        W69932   1.322  35.550   3.182
 8622W        W69933  14.338  24.596   3.665
 8623W        W69934  22.035   9.721   4.613
 8624W        W69935  30.518  18.749   0.287
 8625W        W69936  23.202  12.200   2.200
 8626W        W69937  44.400  10.151   0.264
 8627W        W69938  19.594  14.650  11.464
 8628W        W69939   3.422  37.350  13.009
 8629W        W69940  38.400  11.671  12.383
 8630W        W69941  26.601  19.253  11.931
 8631W        W69942   4.708   2.386   0.865
 8632W        W69943  40.806   4.732   4.234
 8633W        W69944  42.870  36.452  12.885
 8634W        W69945  43.365  14.228   1.909
 8635W        W69946  12.726  13.232  13.064
 8636W        W69947   1.761  34.946  11.066
 8637W        W69948  13.669  21.249   0.420
 8638W        W69949   6.188  34.497   2.357
 8639W        W69950  13.178   6.731  14.490
 8640W        W69951  14.290  32.474  11.896
 8641W        W69952  24.986  41.471  10.947
 8642W        W69953   3.376  37.982  12.026
 8643W        W69954  18.789  19.131  13.821
 8644W        W69955  40.404  14.198   3.290
 8645W        W69956  43.370  43.772  10.970
 8646W        W69957  44.439  14.804   3.248
 8647W        W69958  24.629  14.325  11.940
 8648W        W69959  31.072  15.751   1.922
 8649W        W69960  15.584   9.811   1.211
 8650W        W69961  17.177   1.322  11.988
 8651W        W69962  41.916  15.083   0.904
 8652W        W69963  19.164  17.789   1.715
 8653W        W69964   6.916  28.575   2.323
 8654W        W69965   8.785   5.862   4.279
 8655W        W69966  18.588  21.109   3.840
 8656W        W69967  17.249  36.918  12.022
 8657W        W69968   5.704  36.022  11.916
 8658W        W69969  34.445  22.672   1.391
 8659W        W69970  15.665  33.021  11.122
 8660W        W69971  19.090  18.110  13.950
 8661W        W69972  41.812   4.744   2.258
 8662W        W69973  41.430   8.212   3.275
 8663W        W69974  26.512  12.633  12.467
 8664W        W69975  44.977  31.153  13.894
 8665W        W69976  17.199  17.730   1.363
 8666W        W69977  33.595  31.900  13.007
 8667W        W69978  12.802  26.106   3.266
 8668W        W69979   6.679  42.775   0.938
 8669W        W69980  35.566  20.582  12.852
 8670W        W69981   1.833  28.490   3.725
 8671W        W69982   8.689  23.181   1.795
 8672W        W69983  31.534  41.330   0.273
 8673W        W69984  21.750  39.455  12.976
 8674W        W69985   5.293  38.436  14.914
 8675W        W69986  30.956  21.732   4.160
 8676W        W69987  28.131  13.633   3.750
 8677W        W69988  14.699  14.197  13.397
 8678W        W69989  31.137  17.781  12.541
 8679W        W69990  44.485  36.435   4.281
 8680W        W69991  34.015  36.066  14.453
 8681W        W69992  43.774  44.906   1.811
 8682W        W69993  14.804  23.533   9.493
 8683W        W69994  33.414  32.568  13.924
 8684W        W69995   5.352  29.114   1.879
 8685W        W69996  35.429  22.029  11.431
 8686W        W69997  30.083  11.849   1.251
 8687W        W69998  13.352  12.169   1.883
 8688W        W69999  33.590   3.836   4.231
 8689W        W70000  30.613  36.981  12.946
 8690W        W70001  38.400  25.139  14.979
 8691W        W70002  37.864  34.430   1.929
 8692W        W70003   5.731  15.218   4.616
 8693W        W70004  41.479  13.302  14.406
 8694W        W70005  19.050  14.101   4.123
 8695W        W70006  26.468  36.448  11.951
 8696W        W70007  43.474  44.308  10.042
 8697W        W70008  43.278  23.595   2.872
 8698W        W70009   1.254  30.571   1.312
 8699W        W70010   0.440  41.989  11.104
 8700W        W70011  12.182  28.495  14.010
 8701W        W70012   5.235  27.563  13.478
 8702W        W70013  20.524  14.211  13.912
 8703W        W70014  11.768  10.358  12.890
 8704W        W70015  11.159   9.322   1.364
 8705W        W70016  20.640   2.838  12.951
 8706W        W70017  17.104  37.414   0.385
 8707W        W70018  18.140   9.705  13.814
 8708W        W70019  25.547   1.841  13.351
 8709W        W70020   1.766   8.844  14.278
 8710W        W70021  39.972  25.040  14.297
 8711W        W70022   7.727  32.994  11.576
 8712W        W70023  35.574  26.026   1.720
 8713W        W70024   1.844  22.677   1.218
 8714W        W70025  30.135  32.549  12.027
 8715W        W70026   7.335  22.624  10.627
 8716W        W70027  34.025  22.194   4.794
 8717W        W70028  39.810  43.432   3.833
 8718W        W70029  26.643   6.762  14.438
 8719W        W70030  30.055   3.315   4.757
 8720W        W70031  21.737   1.932   4.680
 8721W        W70032  38.444   6.293   4.341
 8722W        W70033  11.631  27.505  11.993
 8723W        W70034   3.245  18.161   1.348
 8724W        W70035  22.110  32.070  10.953
 8725W        W70036  30.440  16.108   3.385
 8726W        W70037  35.871  23.078   4.779
 8727W        W70038   4.276  37.561   0.900
 8728W        W70039  29.476  21.078   0.789
 8729W        W70040  20.712  28.518   4.661
 8730W        W70041  22.086  28.088   0.328
 8731W        W70042   6.765  42.392   0.784
 8732W        W70043  26.606  21.711  11.104
 8733W        W70044  41.982  10.639   3.319
 8734W        W70045  20.660  28.674  14.970
 8735W        W70046  20.766  43.396  11.560
 8736W        W70047  16.150  31.426   3.161
 8737W        W70048  10.715  24.637   1.741
 8738W        W70049  21.143  11.671   2.304
 8739W        W70050   6.702  38.014   1.314
 8740W        W70051  25.659  34.492  13.441
 8741W        W70052  34.394  26.138  13.526
 8742W        W70053  40.958  13.704   4.642
 8743W        W70054  32.940  14.809  11.865
 8744W        W70055  15.812   4.216   0.285
 8745W        W70056  25.034  40.420  12.344
 8746W        W70057   2.931  28.127   0.474
 8747W        W70058   2.247  12.145  11.976
 8748W        W70059  22.539  42.780   0.811
 8749W        W70060  32.499  18.291   9.954
 8750W        W70061  43.429  23.227   4.349
 8751W        W70062   4.447  16.224  12.925
 8752W        W70063  20.764  19.593   1.775
 8753W        W70064  39.810   7.874  12.348
 8754W        W70065  15.608  42.957   2.815
 8755W        W70066  25.021  32.039   3.747
 8756W        W70067  24.667  16.253  11.105
 8757W        W70068  29.575  25.570   2.242
 8758W        W70069  19.116  34.952   4.764
 8759W        W70070  34.463   4.240  12.890
 8760W        W70071  15.663   3.330  12.861
 8761W        W70072  13.118  20.719   4.598
 8762W        W70073   0.396  36.914  12.363
 8763W        W70074  30.032  18.153   3.295
 8764W        W70075  19.575  26.570  12.496
 8765W        W70076   4.222  40.444  10.953
 8766W        W70077   7.832   4.800   4.121
 8767W        W70078  31.031  22.122  14.403
 8768W        W70079  14.752  34.036  12.573
 8769W        W70080  20.530  21.103   0.464
 8770W        W70081  44.899  21.160  13.860
 8771W        W70082  20.588  37.361   4.775
 8772W        W70083  32.990  24.997   2.714
 8773W        W70084  44.272  30.527   0.911
 8774W        W70085  11.675  18.690   1.428
 8775W        W70086   8.666  36.848  11.589
 8776W        W70087  30.490  43.495   3.352
 8777W        W70088  21.178   5.691   0.769
 8778W        W70089  17.799  16.699   1.368
 8779W        W70090  21.656  21.711  11.128
 8780W        W70091   6.190   9.848  13.858
 8781W        W70092  13.704  27.568  14.328
 8782W        W70093  33.924   7.352  13.047
 8783W        W70094  27.029  23.030   0.948
 8784W        W70095  35.586  13.176   0.336
 8785W        W70096  43.005  17.101  14.828
 8786W        W70097  33.907  41.499  12.921
 8787W        W70098  30.987  23.577  11.530
 8788W        W70099  40.364  25.484  11.612
 8789W        W70100   0.426  42.837  10.409
 8790W        W70101  16.311  12.211  13.005
 8791W        W70102  27.145  20.619  12.547
 8792W        W70103   7.353  28.469   1.284
 8793W        W70104  41.335  11.819  10.640
 8794W        W70105   4.834  38.976   1.837
 8795W        W70106  30.162  19.184  14.830
 8796W        W70107  24.090  42.406  11.917
 8797W        W70108  22.998  13.331  12.560
 8798W        W70109  38.072  19.769   4.833
 8799W        W70110  18.220   5.852   4.267
 8800W        W70111  28.112  38.432  13.469
 8801W        W70112  22.006   1.780   0.295
 8802W        W70113  10.844  33.386   3.851
 8803W        W70114  29.974  20.125   1.297
 8804W        W70115  35.093  23.019  11.998
 8805W        W70116  30.569  15.680   1.805
 8806W        W70117  44.824  37.085  14.477
 8807W        W70118  23.236  21.666   1.210
 8808W        W70119  25.083   7.882  14.883
 8809W        W70120  36.038  31.989  13.470
 8810W        W70121  35.596  41.878   3.358
 8811W        W70122   3.455   3.449   2.397
 8812W        W70123  28.627   2.317  13.928
 8813W        W70124  38.026  26.190  10.435
 8814W        W70125  29.111   6.902   2.830
 8815W        W70126  37.987  39.880   2.398
 8816W        W70127  40.393   0.329  13.967
 8817W        W70128  36.546  15.748   9.923
 8818W        W70129  42.935  26.665   0.458
 8819W        W70130   7.257  39.400  14.434
 8820W        W70131  34.029  37.403   3.338
 8821W        W70132   1.264  21.104  12.470
 8822W        W70133  29.641   9.851   0.767
 8823W        W70134  42.398  31.969  10.632
 8824W        W70135  36.881  20.165  12.356
 8825W        W70136   3.358   8.791  10.009
 8826W        W70137   9.303  10.225   2.362
 8827W        W70138   5.847  17.694  10.017
 8828W        W70139  26.496  40.899  11.964
 8829W        W70140  32.011  27.634  14.459
 8830W        W70141  38.005  35.870   3.158
 8831W        W70142   2.270   4.739   2.693
 8832W        W70143   3.311   0.876  12.072
 8833W        W70144   1.740  43.792   4.227
 8834W        W70145  14.602  13.127   4.246
 8835W        W70146  39.062  25.989   1.348
 8836W        W70147  15.666  26.607  12.840
 8837W        W70148  16.682  38.941  13.838
 8838W        W70149  38.570  34.024   4.228
 8839W        W70150  23.704  23.141   0.780
 8840W        W70151  36.979   5.308  11.868
 8841W        W70152  39.474  26.673   2.746
 8842W        W70153  24.126  26.474  12.903
 8843W        W70154  42.514  11.300   2.312
 8844W        W70155  21.091  20.567   0.337
 8845W        W70156  36.000  40.981  13.348
 8846W        W70157  44.304   3.950  10.536
 8847W        W70158   1.848  11.733   4.669
 8848W        W70159  22.179  41.397  11.888
 8849W        W70160  13.652  30.920   1.764
 8850W        W70161  20.177   2.949   0.422
 8851W        W70162  37.852   3.391  12.461
 8852W        W70163  31.019   3.839   0.464
 8853W        W70164  35.042   3.752  13.025
 8854W        W70165  25.115  14.822   3.822
 8855W        W70166   4.418  18.260  10.899
 8856W        W70167  26.098  19.625  13.061
 8857W        W70168  27.660  17.801  14.357
 8858W        W70169  14.316   8.726  12.369
 8859W        W70170  44.875   7.262  14.299
 8860W        W70171  44.371  17.087   3.161
 8861W        W70172  25.171  15.151   3.269
 8862W        W70173  28.649  44.924   3.735
 8863W        W70174  33.044  43.385  14.794
 8864W        W70175  33.420  16.716  10.644
 8865W        W70176  42.903  27.617   4.292
 8866W        W70177   7.896  25.164   3.781
 8867W        W70178   9.855   1.436   0.781
 8868W        W70179  15.220  41.806   0.838
 8869W        W70180  18.686  39.025   9.571
 8870W        W70181   5.394  40.519  13.472
 8871W        W70182  13.138  21.579  11.389
 8872W        W70183  38.438  30.440  12.972
 8873W        W70184  13.273  34.116   0.441
 8874W        W70185  43.514  19.072  13.866
 8875W        W70186  12.310  40.879   1.875
 8876W        W70187  13.699  38.939   1.747
 8877W        W70188  30.912  32.553  10.471
 8878W        W70189  20.747  44.961   4.118
 8879W        W70190   8.724  19.598   2.302
 8880W        W70191   2.300   8.251  10.477
 8881W        W70192  19.564  37.514   0.447
 8882W        W70193  31.587  25.710   2.386
 8883W        W70194  44.266   8.375   3.183
 8884W        W70195  38.966   9.348   4.738
 8885W        W70196   8.333  12.794   4.816
 8886W        W70197  34.980   4.305  13.941
 8887W        W70198  26.958   4.730   0.903
 8888W        W70199   4.398  30.057   0.318
 8889W        W70200  26.594  15.750  13.850
 8890W        W70201  19.179  10.378   3.185
 8891W        W70202  28.988  24.644  13.898
 8892W        W70203  20.716  19.595   2.361
 8893W        W70204  41.395  13.833  13.975
 8894W        W70205  12.665  19.607   2.382
 8895W        W70206  15.723   6.323  12.574
 8896W        W70207  28.646  12.644   2.663
 8897W        W70208  31.017   2.377   0.425
 8898W        W70209  27.503   5.859  12.082
 8899W        W70210   9.868   5.888   0.335
 8900W        W70211  23.061   2.923   4.278
 8901W        W70212  35.567   3.226   1.283
 8902W        W70213  42.443  27.072   0.745
 8903W        W70214  31.152  22.738  14.838
 8904W        W70215  15.810  42.423   0.337
 8905W        W70216  37.902  10.279   0.418
 8906W        W70217  35.522  23.557  10.504
 8907W        W70218  44.820  35.864   2.704
 8908W        W70219  24.617  25.477  12.488
 8909W        W70220  20.608  10.205   2.684
 8910W        W70221  25.607  26.187  10.912
 8911W        W70222  41.425  23.552   2.766
 8912W        W70223  24.209  44.871  12.345
 8913W        W70224  26.681  26.628  10.432
 8914W        W70225  24.663  32.134   9.523
 8915W        W70226   2.817  31.561   2.796
 8916W        W70227   8.405  15.610   3.262
 8917W        W70228  17.231  19.123  14.342
 8918W        W70229  44.483  20.561   0.426
 8919W        W70230  13.329  24.033   2.298
 8920W        W70231  13.224  43.480   4.675
 8921W        W70232  30.611  15.134  14.408
 8922W        W70233  14.169   4.244   0.330
 8923W        W70234   7.285  41.299  13.417
 8924W        W70235  18.619  10.302  11.102
 8925W        W70236  14.662  12.765   3.847
 8926W        W70237  36.487  32.894  12.918
 8927W        W70238  36.463  35.945   4.723
 8928W        W70239   1.742  10.642   0.905
 8929W        W70240  14.688  43.357  10.555
 8930W        W70241  21.592  36.455  11.544
 8931W        W70242  13.777  18.759  14.924
 8932W        W70243  11.771  19.236  13.337
 8933W        W70244  17.062  30.558   0.729
 8934W        W70245  36.481  35.026  14.792
 8935W        W70246   3.855  31.486  12.069
 8936W        W70247  26.537  28.626  10.439
 8937W        W70248  26.951   3.362   9.977
 8938W        W70249   5.888  42.821   1.233
 8939W        W70250  15.183   9.385  11.604
 8940W        W70251  16.606  10.645   2.310
 8941W        W70252  25.098  33.388  12.344
 8942W        W70253  42.494  11.158  14.998
 8943W        W70254  28.618  30.953   2.856
 8944W        W70255  18.699   6.902   0.871
 8945W        W70256  12.712  36.000   2.873
 8946W        W70257  19.234  16.078   3.814
 8947W        W70258  37.934   1.933  12.519
 8948W        W70259   2.956  26.486   5.099
 8949W        W70260  21.607  40.303  13.856
 8950W        W70261   1.343  20.274  10.450
 8951W        W70262  19.102   8.690  10.451
 8952W        W70263   6.186   8.385   0.374
 8953W        W70264  18.741  32.942   0.966
 8954W        W70265  37.958  12.697  11.969
 8955W        W70266   3.247   7.896   0.847
 8956W        W70267  19.052   5.231   0.460
 8957W        W70268   5.761   3.806  13.851
 8958W        W70269  44.356   8.278   3.783
 8959W        W70270  18.088  19.203   3.249
 8960W        W70271  32.102   4.811  13.308
 8961W        W70272   7.182  32.533   1.268
 8962W        W70273  21.102  36.420  14.831
 8963W        W70274   4.281   9.817  12.574
 8964W        W70275  33.522  36.072  12.572
 8965W        W70276  11.764   3.430   2.338
 8966W        W70277  31.424   5.857  12.368
 8967W        W70278  24.639  36.444  11.898
 8968W        W70279  10.750  41.369   2.706
 8969W        W70280   8.398  33.131  13.026
 8970W        W70281  28.145  29.099   1.812
 8971W        W70282  19.177  16.717   1.717
 8972W        W70283  18.226  38.517  13.985
 8973W        W70284  13.232  42.952  14.963
 8974W        W70285  12.668  38.862   0.277
 8975W        W70286   6.721  11.699   2.846
 8976W        W70287  29.586  14.590  13.842
 8977W        W70288  15.596  31.907   1.354
 8978W        W70289  35.990  10.773  13.816
 8979W        W70290  15.096  41.477   4.275
 8980W        W70291  19.579  23.033   2.825
 8981W        W70292   4.900  17.243  12.485
 8982W        W70293   8.889  36.455  14.847
 8983W        W70294   9.311  43.450   1.817
 8984W        W70295   5.797   8.312  12.036
 8985W        W70296  12.305  39.988  11.553
 8986W        W70297  17.675  12.331  13.385
 8987W        W70298   9.164  22.065   1.259
 8988W        W70299  42.395  12.837   3.736
 8989W        W70300  32.589  41.478   2.844
 8990W        W70301  10.766  37.540   4.704
 8991W        W70302  42.401  31.560   0.845
 8992W        W70303  20.751  10.661  12.568
 8993W        W70304  22.206  40.443   4.656
 8994W        W70305  27.590  43.443  13.041
 8995W        W70306  37.875  40.927   3.245
 8996W        W70307  33.963   6.316  13.385
 8997W        W70308  31.011  42.850   1.764
 8998W        W70309  37.009  42.878   4.746
 8999W        W70310  12.353  10.851   0.479
 9000W        W70311   2.856  37.931   2.217
 9001W        W70312  23.014  19.668   1.354
 9002W        W70313   4.783  26.601   5.177
 9003W        W70314  11.719  24.577   0.811
 9004W        W70315  22.500  25.652  12.072
 9005W        W70316  26.552  30.430  12.036
 9006W        W70317  20.629   7.187  14.453
 9007W        W70318   1.798  40.882  11.062
 9008W        W70319  40.815   2.339   2.233
 9009W        W70320  28.007  17.132   4.769
 9010W        W70321   8.405  35.979  12.841
 9011W        W70322  38.913  39.990   2.250
 9012W        W70323  32.074  23.570  11.994
 9013W        W70324  11.302  31.422   4.621
 9014W        W70325  28.611   2.817   2.741
 9015W        W70326  24.205   3.360  10.015
 9016W        W70327  33.579  32.525  10.489
 9017W        W70328   5.312   0.836   3.258
 9018W        W70329  32.052  24.144   1.732
 9019W        W70330  13.163  13.642   2.798
 9020W        W70331   4.789  11.688   3.173
 9021W        W70332   1.293  11.629  11.028
 9022W        W70333  29.427  22.012  13.057
 9023W        W70334   1.418  27.163  14.504
 9024W        W70335  36.097  11.667  13.023
 9025W        W70336  39.951  11.263   2.841
 9026W        W70337  39.508  17.092   1.713
 9027W        W70338   2.913  41.356   0.809
 9028W        W70339  27.145  41.308   3.666
 9029W        W70340  43.979  34.379  13.803
 9030W        W70341  15.813  35.413  13.363
 9031W        W70342   9.694  13.609  12.903
 9032W        W70343   9.811  37.403  11.401
 9033W        W70344  38.905  18.591   0.451
 9034W        W70345  39.410   3.710   0.477
 9035W        W70346  29.105  31.111  14.948
 9036W        W70347  30.964  24.078   4.796
 9037W        W70348  25.990  25.575   2.729
 9038W        W70349  33.523  29.995  12.872
 9039W        W70350  18.787  36.003  13.377
 9040W        W70351  18.586  29.545   2.845
 9041W        W70352   1.945  12.265  12.864
 9042W        W70353   5.357  39.483   1.430
 9043W        W70354  22.626   0.816  12.926
 9044W        W70355  24.050  39.339   4.810
 9045W        W70356  21.144  10.866  12.018
 9046W        W70357   9.307  34.119  14.332
 9047W        W70358  34.971   8.842  13.820
 9048W        W70359  14.600   3.837   1.424
 9049W        W70360  36.555  25.036   1.304
 9050W        W70361  21.573  14.759   3.181
 9051W        W70362  11.169  11.314  11.944
 9052W        W70363  32.528   8.384  14.398
 9053W        W70364  40.396  15.299   4.599
 9054W        W70365  43.970  28.662  11.401
 9055W        W70366   6.856  21.101  12.989
 9056W        W70367   8.196  22.086  11.994
 9057W        W70368  34.942  27.989  10.137
 9058W        W70369  22.249  31.976   1.212
 9059W        W70370   5.725  27.112  14.870
 9060W        W70371   8.683  39.836   0.327
 9061W        W70372   3.718   2.294   3.227
 9062W        W70373  35.875  42.289   4.792
 9063W        W70374  13.817  16.710   2.771
 9064W        W70375  18.063  36.991   1.380
 9065W        W70376   2.412   5.202  11.491
 9066W        W70377  43.874  13.235   2.860
 9067W        W70378  21.707  34.063   1.338
 9068W        W70379  44.971  33.045  13.923
 9069W        W70380  33.458  42.016   4.663
 9070W        W70381  31.047   9.786  11.970
 9071W        W70382  20.558  42.348   1.370
 9072W        W70383  32.058  38.561   1.264
 9073W        W70384   8.742  21.109   2.398
 9074W        W70385  30.060  20.633   0.925
 9075W        W70386   0.440  21.728   2.249
 9076W        W70387   6.826  42.846   2.361
 9077W        W70388  32.636   4.439   0.811
 9078W        W70389  40.034  39.007   0.340
 9079W        W70390  35.107  31.490  12.037
 9080W        W70391  31.979  15.691  11.021
 9081W        W70392   0.850  34.956  12.467
 9082W        W70393   6.747   8.259  14.881
 9083W        W70394  42.486  38.042   3.764
 9084W        W70395  42.417  23.578  10.453
 9085W        W70396   1.450  31.104  13.448
 9086W        W70397  11.298  41.300   4.686
 9087W        W70398  25.183  43.867  12.866
 9088W        W70399   3.824   1.874   3.358
 9089W        W70400  23.044   7.842   0.949
 9090W        W70401   0.937  25.483  12.965
 9091W        W70402  34.504  28.562   3.293
 9092W        W70403   5.193  31.461  13.459
 9093W        W70404  35.071  42.919  11.557
 9094W        W70405   3.906  22.595   1.729
 9095W        W70406   4.393  29.444  13.871
 9096W        W70407  12.847  12.192   1.860
 9097W        W70408  16.788  36.586  13.833
 9098W        W70409   9.334  44.814  12.972
 9099W        W70410  41.887  38.893   3.259
 9100W        W70411   6.390  37.071  13.447
 9101W        W70412  34.870  40.490   0.484
 9102W        W70413   5.844   1.446   2.343
 9103W        W70414  30.966  17.125   5.170
 9104W        W70415  16.310   4.374  14.809
 9105W        W70416  26.196  22.706   1.217
 9106W        W70417  21.624   2.358  10.962
 9107W        W70418  32.416  23.634   0.932
 9108W        W70419  23.149   6.766   1.907
 9109W        W70420  37.896   8.698  12.024
 9110W        W70421  39.437  30.953  13.044
 9111W        W70422   5.202  30.943   1.400
 9112W        W70423   9.889   6.700   4.270
 9113W        W70424   2.904   2.931   1.720
 9114W        W70425   5.932   4.363   4.835
 9115W        W70426  10.829   1.837   3.696
 9116W        W70427  38.029  11.249  14.302
 9117W        W70428  34.513  25.057   0.298
 9118W        W70429   0.967  42.361  13.357
 9119W        W70430  29.172  31.076   2.372
 9120W        W70431   4.900   8.269  11.114
 9121W        W70432  27.561   3.364   0.735
 9122W        W70433  39.451  20.238   3.231
 9123W        W70434   6.405  10.649  14.787
 9124W        W70435   8.306  30.446   0.466
 9125W        W70436  38.473  19.712   4.165
 9126W        W70437   4.280  11.198  14.765
 9127W        W70438  10.699  14.618   1.933
 9128W        W70439   0.913   5.219   3.371
 9129W        W70440  34.549  34.115  10.611
 9130W        W70441  40.357  23.708   2.687
 9131W        W70442  38.867  30.125  11.996
 9132W        W70443  34.036   0.360   4.242
 9133W        W70444   6.857   8.200  14.448
 9134W        W70445  12.289  17.683   4.741
 9135W        W70446  33.076  37.973  11.379
 9136W        W70447  44.788  22.605   2.866
 9137W        W70448  11.848  25.672   2.763
 9138W        W70449  33.454  31.581   1.866
 9139W        W70450  18.097  16.316  10.019
 9140W        W70451  27.612  19.216  12.523
 9141W        W70452   6.812  17.567  11.031
 9142W        W70453  41.336  12.766   0.348
 9143W        W70454  30.585   7.752   2.316
 9144W        W70455  26.539  20.096  10.025
 9145W        W70456  43.950  32.084   4.647
 9146W        W70457  41.908  32.937   0.817
 9147W        W70458  41.527  24.104  11.110
 9148W        W70459  31.609  17.576  12.824
 9149W        W70460   5.917  36.567  14.336
 9150W        W70461   4.215  10.263  12.340
 9151W        W70462   7.262   1.302   3.361
 9152W        W70463  21.662  37.541   0.363
 9153W        W70464  39.379  26.581  11.967
 9154W        W70465  20.560  21.025   0.921
 9155W        W70466  28.093   9.305   1.871
 9156W        W70467  40.491  19.118   0.438
 9157W        W70468  44.464  39.854  13.388
 9158W        W70469   0.456  32.473   2.785
 9159W        W70470  24.693  36.491  14.377
 9160W        W70471  20.620  16.078  12.874
 9161W        W70472   7.358  28.465   4.113
 9162W        W70473  43.354  12.765   3.343
 9163W        W70474  12.273  24.648  13.792
 9164W        W70475  13.744   8.676  12.872
 9165W        W70476  10.748  44.771   0.967
 9166W        W70477  32.457   8.760   0.306
 9167W        W70478   9.734  44.918  10.620
 9168W        W70479   6.854   3.256  14.922
 9169W        W70480  23.645  42.899   2.715
 9170W        W70481  31.911  11.316   2.408
 9171W        W70482   4.403  10.857  10.983
 9172W        W70483  38.916  32.013   5.136
 9173W        W70484  36.028  19.153   1.246
 9174W        W70485   9.154  21.611  10.481
 9175W        W70486  10.256  38.570  13.389
 9176W        W70487  31.597  22.167   1.747
 9177W        W70488   6.701  20.538   2.662
 9178W        W70489   3.759  41.293  14.365
 9179W        W70490  15.615   8.238  10.957
 9180W        W70491  41.883  37.514   3.355
 9181W        W70492   2.939   5.712   4.647
 9182W        W70493  31.567  33.460  11.490
 9183W        W70494   4.405   6.816  11.888
 9184W        W70495  25.125  22.690   1.358
 9185W        W70496  23.203   6.332   1.879
 9186W        W70497  24.628   3.403  14.950
 9187W        W70498  11.789  44.826   4.783
 9188W        W70499   8.178   2.241  12.015
 9189W        W70500  30.527   7.699  12.557
 9190W        W70501  11.281   5.361  10.926
 9191W        W70502  38.989   8.265   0.865
 9192W        W70503   0.953  17.213  11.447
 9193W        W70504   6.682  25.574  13.447
 9194W        W70505  12.333   3.312   0.929
 9195W        W70506  25.503   5.356  11.855
 9196W        W70507   0.988  24.639   3.170
 9197W        W70508   9.394  24.124  10.897
 9198W        W70509  19.770  15.703   4.165
 9199W        W70510  30.512   3.435  12.030
 9200W        W70511  32.092  16.158  11.911
 9201W        W70512   5.269  24.110   1.402
 9202W        W70513  31.491  36.465  12.836
 9203W        W70514  27.036  27.058  11.129
 9204W        W70515   4.910  39.936   4.268
 9205W        W70516   6.263  29.077  10.999
 9206W        W70517  25.978  11.154  12.453
 9207W        W70518  38.033  36.552  11.956
 9208W        W70519  36.514  20.223  11.079
 9209W        W70520  11.134  12.197  13.932
 9210W        W70521  14.622  37.830  11.424
 9211W        W70522  13.199  40.930   1.903
 9212W        W70523   5.891  26.695  14.912
 9213W        W70524   0.825  36.413  11.487
 9214W        W70525  18.671  13.125   4.254
 9215W        W70526   9.805  24.143  11.375
 9216W        W70527  26.192  33.963  13.308
 9217W        W70528  22.053  15.147  13.049
 9218W        W70529  29.142   7.809  14.762
 9219W        W70530  34.007  21.617   1.360
 9220W        W70531  14.726  35.597  11.539
 9221W        W70532  39.362  25.557  13.867
 9222W        W70533  23.581  12.834   2.793
 9223W        W70534  33.104  32.933  14.488
 9224W        W70535  31.998  14.288   0.758
 9225W        W70536  11.775  29.009  10.991
 9226W        W70537   7.733  41.396  13.824
 9227W        W70538  18.597  39.440   1.233
 9228W        W70539   6.756  34.972  11.128
 9229W        W70540  31.555  14.750  14.868
 9230W        W70541  17.578  44.940  11.120
 9231W        W70542  37.863  36.917  12.984
 9232W        W70543   5.329  22.049  11.902
 9233W        W70544  12.191  40.950   0.884
 9234W        W70545  40.327  36.535   2.251
 9235W        W70546  29.486  37.437   1.776
 9236W        W70547  33.124  40.966   0.401
 9237W        W70548   4.892  44.263  11.450
 9238W        W70549  13.188  34.426  10.931
 9239W        W70550  20.212  40.952  10.892
 9240W        W70551  18.716  29.543  13.387
 9241W        W70552  23.153  42.429   4.605
 9242W        W70553  36.996  29.470   1.774
 9243W        W70554  37.540  44.443  12.887
 9244W        W70555  19.739  26.026   0.344
 9245W        W70556   3.897  42.466  12.451
 9246W        W70557  23.998  36.382   2.410
 9247W        W70558  36.371  33.618   4.731
 9248W        W70559  25.092  35.482   2.708
 9249W        W70560  14.137  42.992   0.452
 9250W        W70561   4.247  15.321   1.930
 9251W        W70562  13.344   4.858  12.454
 9252W        W70563   4.827  26.157   3.654
 9253W        W70564   1.827   4.856   4.171
 9254W        W70565  40.463  19.048  12.517
 9255W        W70566  40.504  34.022   2.731
 9256W        W70567  17.747  15.578   0.837
 9257W        W70568  28.116  26.629  11.953
 9258W        W70569  40.344  22.713   5.168
 9259W        W70570  30.432  19.229  13.425
 9260W        W70571   7.830  41.466  13.471
 9261W        W70572  18.055  22.177  10.533
 9262W        W70573   5.404   0.260   2.382
 9263W        W70574   7.319  31.949   2.787
 9264W        W70575  14.600  44.967   0.276
 9265W        W70576  34.098   1.300   0.965
 9266W        W70577  16.592  28.929  13.386
 9267W        W70578  41.007  14.192   0.327
 9268W        W70579  37.018  29.465  10.146
 9269W        W70580   3.825  19.191   0.903
 9270W        W70581  35.359   5.428   1.789
 9271W        W70582  26.456  37.568   3.805
 9272W        W70583  34.120  37.532  13.537
 9273W        W70584  32.472  20.567   0.365
 9274W        W70585  33.546  16.735   4.297
 9275W        W70586  35.504  14.641   1.294
 9276W        W70587   8.191  28.473   4.814
 9277W        W70588  17.779  14.319  11.066
 9278W        W70589  43.980   5.418  14.458
 9279W        W70590   4.306  21.237   3.695
 9280W        W70591  27.530  39.952  14.299
 9281W        W70592  15.682  11.730  13.946
 9282W        W70593   4.749  44.001   1.889
 9283W        W70594  17.077  15.785  13.054
 9284W        W70595  25.013  26.579  13.433
 9285W        W70596   1.746  22.157   4.689
 9286W        W70597  26.009  38.437   3.180
 9287W        W70598  40.465  25.074  14.768
 9288W        W70599  27.508  13.200  12.552
 9289W        W70600  42.437  28.035  11.984
 9290W        W70601  17.159  23.192  13.839
 9291W        W70602  18.697  32.414  13.981
 9292W        W70603  10.187  11.713  10.969
 9293W        W70604  40.804  39.049   3.366
 9294W        W70605  40.528  25.537  10.593
 9295W        W70606   8.709  36.566  11.098
 9296W        W70607  34.038  20.695  13.984
 9297W        W70608   5.373   0.979  10.901
 9298W        W70609  15.592   3.434  11.574
 9299W        W70610  36.467  32.025  12.913
 9300W        W70611  31.117   2.240  11.534
 9301W        W70612  19.124  38.382  12.430
 9302W        W70613  26.180   1.827   0.302
 9303W        W70614   8.215  35.957  11.109
 9304W        W70615  32.009  20.197   3.843
 9305W        W70616   2.300  37.531  10.558
 9306W        W70617  44.001  21.059   3.632
 9307W        W70618  13.763  22.108  13.879
 9308W        W70619   0.886   0.761  12.981
 9309W        W70620  43.456   4.845   4.651
 9310W        W70621  21.517  43.781  13.041
 9311W        W70622  21.169   4.862  10.952
 9312W        W70623  30.960  27.517  13.470
 9313W        W70624  38.412  31.084   1.889
 9314W        W70625  25.484  34.920   9.990
 9315W        W70626  20.096   0.478  11.098
 9316W        W70627  15.623  43.014  14.956
 9317W        W70628   0.288  22.124   4.189
 9318W        W70629   5.303  21.160  13.976
 9319W        W70630   0.792   2.363  12.543
 9320W        W70631  24.705  24.140  12.051
 9321W        W70632  12.361  31.107   4.346
 9322W        W70633  17.191  16.793  12.382
 9323W        W70634  44.452   4.710  13.535
 9324W        W70635   4.724  26.651   3.155
 9325W        W70636  10.239  41.853   3.720
 9326W        W70637  25.974  28.985  12.498
 9327W        W70638   9.805  11.653   3.844
 9328W        W70639  43.458  35.940   2.758
 9329W        W70640   1.410   5.194   0.827
 9330W        W70641   8.377  39.981  14.299
 9331W        W70642   7.723   8.862  14.855
 9332W        W70643  20.085  27.626   3.709
 9333W        W70644  15.259  39.902  13.982
 9334W        W70645  25.017  22.206   3.790
 9335W        W70646   2.918  20.042   4.178
 9336W        W70647  26.560  12.739   5.081
 9337W        W70648  21.069  31.033  10.421
 9338W        W70649  10.673  34.065  14.365
 9339W        W70650   2.280  18.114  11.531
 9340W        W70651   0.258  27.446   4.300
 9341W        W70652  42.991  42.306  11.071
 9342W        W70653  40.997  24.694   3.823
 9343W        W70654  33.926  39.486  13.349
 9344W        W70655  11.633  39.487   4.788
 9345W        W70656  33.537  21.529  10.431
 9346W        W70657  11.204   0.300  12.578
 9347W        W70658   8.397  10.243   2.377
 9348W        W70659  28.476  21.132   2.252
 9349W        W70660  33.387   3.389  11.871
 9350W        W70661   1.763  26.164   1.811
 9351W        W70662   4.333  38.543  11.905
 9352W        W70663   2.777  25.019   0.264
 9353W        W70664   3.221  44.836  14.952
 9354W        W70665  41.528  21.237   0.349
 9355W        W70666  23.224  16.135   3.386
 9356W        W70667  37.900  38.340  14.859
 9357W        W70668   7.881   3.370  14.431
 9358W        W70669   5.882  18.650  11.399
 9359W        W70670   7.401  33.045  14.830
 9360W        W70671  24.494  29.019   4.171
 9361W        W70672  35.978  34.993   2.387
 9362W        W70673  18.165  27.484  14.888
 9363W        W70674  16.162  39.371  12.368
 9364W        W70675  12.816  32.005  12.377
 9365W        W70676  21.665  34.069   0.258
 9366W        W70677  21.046  10.754  10.937
 9367W        W70678   8.323   6.388   1.846
 9368W        W70679  16.176   5.727   3.229
 9369W        W70680  21.153  16.801   0.480
 9370W        W70681   5.270  28.515   2.266
 9371W        W70682  10.184   5.206  14.389
 9372W        W70683  14.132  28.610  13.819
 9373W        W70684  32.042  18.112   4.687
 9374W        W70685  37.014  17.800   1.255
 9375W        W70686  31.554  17.584  14.428
 9376W        W70687  39.328  10.669  14.847
 9377W        W70688   0.951  35.862   0.249
 9378W        W70689  16.137  28.614  10.581
 9379W        W70690  35.964  21.126   2.847
 9380W        W70691  23.995  37.573  13.971
 9381W        W70692  15.092  42.844   2.888
 9382W        W70693  24.079   0.296   3.234
 9383W        W70694  26.176   4.820   4.178
 9384W        W70695  25.050  37.990   4.278
 9385W        W70696  40.823  25.003  14.413
 9386W        W70697   1.786  16.742  14.412
 9387W        W70698  26.539  15.666  11.583
 9388W        W70699  33.520  33.404   2.834
 9389W        W70700  24.991  20.102   5.195
 9390W        W70701  17.752  30.560   2.831
 9391W        W70702  17.194   7.761  11.545
 9392W        W70703  23.674  10.835  12.067
 9393W        W70704   2.964  39.987   3.734
 9394W        W70705   0.491   6.687   4.210
 9395W        W70706  28.959   9.875   4.280
 9396W        W70707  22.197  34.948  14.390
 9397W        W70708   5.199  10.147   3.240
 9398W        W70709  13.233  36.462   3.864
 9399W        W70710   6.280  30.614  10.903
 9400W        W70711  44.833  36.518   0.818
 9401W        W70712  34.564  31.466   0.767
 9402W        W70713   9.694   9.208  11.072
 9403W        W70714  40.502  33.600  14.453
 9404W        W70715   9.150  17.715  12.359
 9405W        W70716  19.061  20.628   3.814
 9406W        W70717  42.996  29.669  13.427
 9407W        W70718  20.685  10.356  13.546
 9408W        W70719  26.612  42.520   3.734
 9409W        W70720  24.525  13.620   0.762
 9410W        W70721  15.194  35.444   0.293
 9411W        W70722  20.085   3.269   4.797
 9412W        W70723  24.595   5.250  11.927
 9413W        W70724  18.561  19.650   3.334
 9414W        W70725  43.774  30.649  14.988
 9415W        W70726  27.103  34.485   0.928
 9416W        W70727   3.798   3.790   1.744
 9417W        W70728  32.498  26.532   0.865
 9418W        W70729  29.594   3.813   2.288
 9419W        W70730  31.936  16.088  11.477
 9420W        W70731  40.844  15.262  12.573
 9421W        W70732  10.732  39.351  10.481
 9422W        W70733  18.209  18.555  14.944
 9423W        W70734   5.375   8.723   5.083
 9424W        W70735  27.623   9.389   0.457
 9425W        W70736  34.388   5.795  12.938
 9426W        W70737  42.372  18.684  12.938
 9427W        W70738  26.629  41.478   3.837
 9428W        W70739   4.417  30.561   4.826
 9429W        W70740  42.931  10.274   2.401
 9430W        W70741  23.241  26.474   5.289
 9431W        W70742   2.328   1.809  14.841
 9432W        W70743  14.650  30.514   4.220
 9433W        W70744  39.923  42.848  12.943
 9434W        W70745  18.686  13.288   0.824
 9435W        W70746  32.457  13.137   4.304
 9436W        W70747   6.360   0.258  11.062
 9437W        W70748  22.170  17.210   1.906
 9438W        W70749  43.436  28.662  14.332
 9439W        W70750  18.062  40.024  14.513
 9440W        W70751   8.770  16.579  11.963
 9441W        W70752  28.121  34.910  12.053
 9442W        W70753  13.228  10.237   2.291
 9443W        W70754  32.467   6.870   2.184
 9444W        W70755   1.286  40.829  14.350
 9445W        W70756  19.177   3.745   0.843
 9446W        W70757  19.271   4.813   0.766
 9447W        W70758  36.007  25.058  11.901
 9448W        W70759   5.780  19.135   4.731
 9449W        W70760  29.975  38.504  11.553
 9450W        W70761   4.248  37.899  11.375
 9451W        W70762  38.459   6.323   0.946
 9452W        W70763  29.979   3.806  10.912
 9453W        W70764  42.411   4.777  13.507
 9454W        W70765  12.232   2.873  12.407
 9455W        W70766   6.409  19.752   4.327
 9456W        W70767  18.221  42.979  12.487
 9457W        W70768  29.668  42.467   0.278
 9458W        W70769  42.282  32.452  14.507
 9459W        W70770  33.927  21.701  10.450
 9460W        W70771  37.953   6.922  11.119
 9461W        W70772  39.316   8.257  11.446
 9462W        W70773  28.478  20.192   4.752
 9463W        W70774   8.784  23.617   2.304
 9464W        W70775  42.491  35.045   4.777
 9465W        W70776  22.532  14.747   1.261
 9466W        W70777   4.721  44.785  14.806
 9467W        W70778   9.189   1.957   4.623
 9468W        W70779  38.436  30.010  14.982
 9469W        W70780  38.373  29.934   5.113
 9470W        W70781  28.508  27.503  12.544
 9471W        W70782   3.446   7.237  13.400
 9472W        W70783  21.718   1.343  13.531
 9473W        W70784  32.582  35.916   3.734
 9474W        W70785  22.034   9.301   4.140
 9475W        W70786  33.926  15.654  13.491
 9476W        W70787  27.502  14.639  10.908
 9477W        W70788  29.584  15.741   0.377
 9478W        W70789  11.198  26.002   1.795
 9479W        W70790  39.949  21.619  12.986
 9480W        W70791  14.815  13.343  13.869
 9481W        W70792  42.849  39.457   4.217
 9482W        W70793   3.827  44.333  10.006
 9483W        W70794  42.989  16.160  11.996
 9484W        W70795  22.186  19.278  14.290
 9485W        W70796  27.505  19.709  13.904
 9486W        W70797  25.567  29.538  12.043
 9487W        W70798  38.506  38.989   3.694
 9488W        W70799   2.311  25.155   5.202
 9489W        W70800  33.019  12.354  12.983
 9490W        W70801   6.425  22.188   0.386
 9491W        W70802  28.186  25.090   3.675
 9492W        W70803  16.208   7.862  10.521
 9493W        W70804  22.639  39.372   1.277
 9494W        W70805  35.582  43.914   0.404
 9495W        W70806  16.762  10.305   0.333
 9496W        W70807  14.663   4.273  13.937
 9497W        W70808  16.718   2.449  12.052
 9498W        W70809   9.675  17.749  11.000
 9499W        W70810  31.050  10.802   4.618
 9500W        W70811  38.892  30.433   0.730
 9501W        W70812  44.990  43.821  12.404
 9502W        W70813  15.793  24.997  11.460
 9503W        W70814  28.970  44.774   0.779
 9504W        W70815   6.712  17.755  12.868
 9505W        W70816  41.402  42.903   3.157
 9506W        W70817   6.778  39.511  14.468
 9507W        W70818  22.137  43.777  11.521
 9508W        W70819   1.761  30.972   4.244
 9509W        W70820  12.270  31.000  12.363
 9510W        W70821  38.883  19.750   2.180
 9511W        W70822  41.792  20.627   3.788
 9512W        W70823  17.294  32.546  12.564
 9513W        W70824   9.782  27.490  11.001
 9514W        W70825   0.815  34.902  11.537
 9515W        W70826  11.798  13.109  12.377
 9516W        W70827  41.906  43.287  11.531
 9517W        W70828  40.047  11.209  11.939
 9518W        W70829  40.335  26.577   2.796
 9519W        W70830  20.594  26.483  13.911
 9520W        W70831  11.839  26.650  10.953
 9521W        W70832  16.088  17.165   0.324
 9522W        W70833   7.367  14.639  11.020
 9523W        W70834   5.408   0.807  14.956
 9524W        W70835  14.642  17.632   4.292
 9525W        W70836   0.798  25.613  11.090
 9526W        W70837  33.556  38.434   3.636
 9527W        W70838  34.935  26.638  14.433
 9528W        W70839  13.790  39.876  13.380
 9529W        W70840   5.237  26.016   1.711
 9530W        W70841  30.939  25.705  12.872
 9531W        W70842  23.504  34.066   0.764
 9532W        W70843  15.687  21.546  14.325
 9533W        W70844  10.683  15.252  12.434
 9534W        W70845  29.925  17.293   2.418
 9535W        W70846  21.147  22.664  12.883
 9536W        W70847  42.490  41.338   2.725
 9537W        W70848  36.851  29.037   3.378
 9538W        W70849  30.931  39.534  13.489
 9539W        W70850  23.574  31.085   3.201
 9540W        W70851   4.888  36.013   2.855
 9541W        W70852  10.638  26.092   4.666
 9542W        W70853  11.706   3.358  13.418
 9543W        W70854  10.281  16.242   2.354
 9544W        W70855  43.459   9.722  13.909
 9545W        W70856  11.268   0.867  14.947
 9546W        W70857  37.978  32.606   3.657
 9547W        W70858  29.625  11.157   1.330
 9548W        W70859   4.793  13.702   3.631
 9549W        W70860  30.485  39.054  12.951
 9550W        W70861  14.169  28.028   0.732
 9551W        W70862  15.698  27.613  11.579
 9552W        W70863  14.624  29.601  11.981
 9553W        W70864  34.092  43.893  13.864
 9554W        W70865   9.780  33.386  13.474
 9555W        W70866  44.396  33.618   0.400
 9556W        W70867  14.744  26.467   9.667
 9557W        W70868  40.968  44.447   2.366
 9558W        W70869  18.763  21.165  14.806
 9559W        W70870  29.435   4.331   2.743
 9560W        W70871  32.489   0.902  11.922
 9561W        W70872  32.535  20.739  12.405
 9562W        W70873   2.786  42.321   0.415
 9563W        W70874   3.274  10.273  14.402
 9564W        W70875  18.762  15.155   9.588
 9565W        W70876   3.802   3.843   3.156
 9566W        W70877  30.933  43.949  14.821
 9567W        W70878  33.089  26.142   1.247
 9568W        W70879   9.818  24.992   0.368
 9569W        W70880   5.216  16.316  12.823
 9570W        W70881   2.306  22.234  11.492
 9571W        W70882   1.273  35.382  10.482
 9572W        W70883  31.594  42.032  11.477
 9573W        W70884  30.593  38.374   1.449
 9574W        W70885  22.603   2.239  10.487
 9575W        W70886  16.747  33.475   2.355
 9576W        W70887  42.457  20.685   1.846
 9577W        W70888  39.469  26.565  13.927
 9578W        W70889  13.149  42.957   4.771
 9579W        W70890  33.091  20.566  11.451
 9580W        W70891  13.606   9.712  10.414
 9581W        W70892  32.507   7.785   4.628
 9582W        W70893  41.883  13.116  12.427
 9583W        W70894   9.671   7.376  10.990
 9584W        W70895  19.246  15.286   0.823
 9585W        W70896   6.722  11.155   3.226
 9586W        W70897   7.304  33.601  13.484
 9587W        W70898  27.472   8.190   3.248
 9588W        W70899   1.454  21.732  11.871
 9589W        W70900  32.479  17.168  14.868
 9590W        W70901   5.913  27.038  10.989
 9591W        W70902   3.326   6.727   0.434
 9592W        W70903   0.771  32.570  14.509
 9593W        W70904  23.618  26.486   2.380
 9594W        W70905  37.401   1.479   3.651
 9595W        W70906  32.098  17.151  11.465
 9596W        W70907  32.461   3.460  14.466
 9597W        W70908   6.216  11.799  11.940
 9598W        W70909   3.271  30.089  12.905
 9599W        W70910  42.335  44.449  12.521
 9600W        W70911  11.727   6.748   4.784
 9601W        W70912  32.547   5.934  11.061
 9602W        W70913  23.991  20.532   3.802
 9603W        W70914  41.416  33.959  12.950
 9604W        W70915  28.026  20.043   4.289
 9605W        W70916  27.047  23.718   1.380
 9606W        W70917  19.734   0.981   5.156
 9607W        W70918   5.245  39.424  14.824
 9608W        W70919   9.184  13.755   3.712
 9609W        W70920  26.514   6.838   2.737
 9610W        W70921  42.939  31.602  10.978
 9611W        W70922  14.240  15.255  13.509
 9612W        W70923  26.092  25.597  13.810
 9613W        W70924  40.874  17.190   3.742
 9614W        W70925  43.440  26.583   3.201
 9615W        W70926  24.014  28.602   4.143
 9616W        W70927  44.432  29.062  12.515
 9617W        W70928  28.609  11.144   1.346
 9618W        W70929   1.323  10.746  14.898
 9619W        W70930  28.644  41.347   2.260
 9620W        W70931  32.024  35.998  13.943
 9621W        W70932  24.205   3.420   2.678
 9622W        W70933   8.735  17.587  13.863
 9623W        W70934  28.935  22.156   2.704
 9624W        W70935   2.233  42.505   2.402
 9625W        W70936  43.789   5.878  13.016
 9626W        W70937  28.468  36.925   3.799
 9627W        W70938  19.706  11.862   0.814
 9628W        W70939   8.321  42.890   3.831
 9629W        W70940  31.564  39.408  11.413
 9630W        W70941  33.935   1.759  14.347
 9631W        W70942  25.586   6.786  13.513
 9632W        W70943   9.810  28.081   0.344
 9633W        W70944  16.657  26.058  14.281
 9634W        W70945  20.654   3.787   2.396
 9635W        W70946   5.787   8.253   4.685
 9636W        W70947   0.352  39.943   1.773
 9637W        W70948   4.860   3.919   3.233
 9638W        W70949   2.292  35.428  13.392
 9639W        W70950  14.759  11.134  10.595
 9640W        W70951  18.630  20.586  11.598
 9641W        W70952  28.118  39.459   1.755
 9642W        W70953  31.440  31.093  14.875
 9643W        W70954   1.414  36.456  11.401
 9644W        W70955  20.528  29.001  12.876
 9645W        W70956  32.112  24.592  12.463
 9646W        W70957  34.077  35.076   3.813
 9647W        W70958  13.349   9.278  13.449
 9648W        W70959  41.439  16.081  11.857
 9649W        W70960  28.999   6.350  11.596
 9650W        W70961  25.640   0.884  10.605
 9651W        W70962  15.629  18.677  12.089
 9652W        W70963  33.593  27.070   2.245
 9653W        W70964   1.878  21.086   1.439
 9654W        W70965   8.305  29.070   4.342
 9655W        W70966   6.701  32.001   4.144
 9656W        W70967  30.483  24.681   2.262
 9657W        W70968  24.132  33.601   1.892
 9658W        W70969  39.319  10.305   4.724
 9659W        W70970  14.789   0.891   3.334
 9660W        W70971   2.306  38.492  10.527
 9661W        W70972  34.609  11.319   2.712
 9662W        W70973  36.516  12.762   2.836
 9663W        W70974  16.304  19.278   2.661
 9664W        W70975  33.435  25.690  13.547
 9665W        W70976  36.554  17.227   2.745
 9666W        W70977  40.545  44.453  12.441
 9667W        W70978  19.216  22.082  14.002
 9668W        W70979  29.932   7.772  13.959
 9669W        W70980  12.641   9.659  13.545
 9670W        W70981  13.252   6.228   3.788
 9671W        W70982   8.854  14.331  12.058
 9672W        W70983  35.006  27.471  13.975
 9673W        W70984  42.795  17.777  11.388
 9674W        W70985  27.008  39.024  13.408
 9675W        W70986  27.577  41.916   2.691
 9676W        W70987  38.828  41.525  14.020
 9677W        W70988   0.812  41.898  13.797
 9678W        W70989   9.700  36.449  11.479
 9679W        W70990  44.992  34.466  14.007
 9680W        W70991   1.944  44.307  13.360
 9681W        W70992  38.937  15.112   1.273
 9682W        W70993  13.158  37.528  10.608
 9683W        W70994  15.130  25.500  13.940
 9684W        W70995   2.333  29.483  11.406
 9685W        W70996  37.893   8.782  13.015
 9686W        W70997   9.837  39.934   4.270
 9687W        W70998  43.387  19.648   0.864
 9688W        W70999  18.653  22.684  12.384
 9689W        W71000   8.813  42.853  12.845
 9690W        W71001  30.101  20.572  13.800
 9691W        W71002   8.167  18.172  11.050
 9692W        W71003   7.415  12.721   0.450
 9693W        W71004  31.624  17.304  13.857
 9694W        W71005  29.966   3.895   2.414
 9695W        W71006  39.378  16.699   1.331
 9696W        W71007   7.304  23.490   1.301
 9697W        W71008  33.066  10.221  10.608
 9698W        W71009   2.270  10.633   1.283
 9699W        W71010  36.858  35.094  14.853
 9700W        W71011  40.040  27.661  12.843
 9701W        W71012  12.623   0.930  14.450
 9702W        W71013   2.823  34.453   4.246
 9703W        W71014  15.694  34.002   4.306
 9704W        W71015   7.895  23.685  13.322
 9705W        W71016  13.766  30.599   4.697
 9706W        W71017  28.022   4.923  11.004
 9707W        W71018  26.479  26.697   0.950
 9708W        W71019  24.975   7.828  10.958
 9709W        W71020   8.349  18.697   2.784
 9710W        W71021   2.909  22.189   2.369
 9711W        W71022  11.669   5.892  12.344
 9712W        W71023  27.683   2.264   2.226
 9713W        W71024  38.481  19.654   1.363
 9714W        W71025  42.924  27.617  11.869
 9715W        W71026  36.841  13.742   2.363
 9716W        W71027   8.664  11.791  12.500
 9717W        W71028  22.604  20.212  11.432
 9718W        W71029  23.154  13.608   3.378
 9719W        W71030  18.253  25.501   2.188
 9720W        W71031  26.176  13.826   2.738
 9721W        W71032  12.349   6.888  12.401
 9722W        W71033   8.393  44.323   3.861
 9723W        W71034  15.598  38.488  14.491
 9724W        W71035   9.816  20.716   0.372
 9725W        W71036   9.310  27.602  13.041
 9726W        W71037  34.898  16.668   4.164
 9727W        W71038  37.362  14.147  11.970
 9728W        W71039  43.402  12.222   1.302
 9729W        W71040  26.166  34.922  11.064
 9730W        W71041   6.191  25.617  14.004
 9731W        W71042  19.568   6.826   1.829
 9732W        W71043  22.534   6.743   3.859
 9733W        W71044   0.440  42.454   2.730
 9734W        W71045  17.177   3.948  14.918
 9735W        W71046  31.936  28.977  10.427
 9736W        W71047   9.331   6.744  12.467
 9737W        W71048  15.100   7.722  10.916
 9738W        W71049  11.260  28.622  11.442
 9739W        W71050  25.631  30.638  12.378
 9740W        W71051  18.694   5.866  10.992
 9741W        W71052  12.845  21.620  14.348
 9742W        W71053   1.275   8.342  10.478
 9743W        W71054  33.502  18.702   0.957
 9744W        W71055  26.698  15.725  12.877
 9745W        W71056  18.718  30.054  12.843
 9746W        W71057  14.290   4.389   3.651
 9747W        W71058  27.510   1.432   3.147
 9748W        W71059  13.788  15.759   0.894
 9749W        W71060  26.980  39.318   4.606
 9750W        W71061  24.156  18.645   2.690
 9751W        W71062  22.194  37.948   1.881
 9752W        W71063   8.357  12.239   2.314
 9753W        W71064   4.855  36.539  14.937
 9754W        W71065  30.560  14.596  13.006
 9755W        W71066  33.915  27.549  12.012
 9756W        W71067   0.955   2.848  12.039
 9757W        W71068  19.229  17.713   4.248
 9758W        W71069  17.066  41.833   3.380
 9759W        W71070  39.904   2.422   1.731
 9760W        W71071  25.202   8.184  11.412
 9761W        W71072   7.846  40.028  14.479
 9762W        W71073  37.830   7.245   0.885
 9763W        W71074  38.373   0.787  14.977
 9764W        W71075  37.518  41.877   5.157
 9765W        W71076  18.762  16.739  11.885
 9766W        W71077   4.447  27.498  10.964
 9767W        W71078  14.319  29.535   2.876
 9768W        W71079  36.349  35.527   0.854
 9769W        W71080  23.218  31.983  11.114
 9770W        W71081  41.336  31.461   1.747
 9771W        W71082   9.326  25.147   0.936
 9772W        W71083  11.709  10.315   3.664
 9773W        W71084  22.193  38.442  11.520
 9774W        W71085  41.989   4.941   4.292
 9775W        W71086  20.082   3.459  12.968
 9776W        W71087  36.004  41.828  14.835
 9777W        W71088  21.545  14.181   3.373
 9778W        W71089  24.637   8.381  13.969
 9779W        W71090   1.877   0.330  14.870
 9780W        W71091  21.631   6.209  12.844
 9781W        W71092   1.956  30.598  14.761
 9782W        W71093   4.738  13.346  11.514
 9783W        W71094  14.768  11.802   3.817
 9784W        W71095  18.581  35.456  10.419
 9785W        W71096  44.492  11.859   4.789
 9786W        W71097  36.408   4.701   1.917
 9787W        W71098  13.667  40.372   3.166
 9788W        W71099  37.413  22.054   3.644
 9789W        W71100  25.629   2.266   0.870
 9790W        W71101  25.559  12.826  12.479
 9791W        W71102  35.596  34.498   3.825
 9792W        W71103  18.708  21.113   3.295
 9793W        W71104  20.560  36.510   2.352
 9794W        W71105  24.117  15.735   1.895
 9795W        W71106   4.381  26.185  12.558
 9796W        W71107  36.862  15.159  10.936
 9797W        W71108  23.727  40.041  12.884
 9798W        W71109   1.731  17.177  14.996
 9799W        W71110   7.380  27.469  12.382
 9800W        W71111  27.503  38.362   3.263
 9801W        W71112   3.371  23.207   0.828
 9802W        W71113  29.616  31.111   4.190
 9803W        W71114  12.741  34.414  11.469
 9804W        W71115  12.697   1.935  10.965
 9805W        W71116  23.167   2.900   3.312
 9806W        W71117  13.697  11.232  12.937
 9807W        W71118  23.511   5.386  12.539
 9808W        W71119  14.112  12.117  12.443
 9809W        W71120   9.360  12.742   4.124
 9810W        W71121   5.336  43.011   3.708
 9811W        W71122  13.344  38.390   1.873
 9812W        W71123  34.916  22.231  11.486
 9813W        W71124  23.236   5.844  14.457
 9814W        W71125  20.236   4.716  12.478
 9815W        W71126  29.652  34.410  12.849
 9816W        W71127   1.936   9.311   1.317
 9817W        W71128  11.253  44.000  13.054
 9818W        W71129   0.339  39.530  11.062
 9819W        W71130  23.217  27.660   1.213
 9820W        W71131   7.760  30.561   3.318
 9821W        W71132   9.739  34.984  11.960
 9822W        W71133  19.226   7.711  12.859
 9823W        W71134   4.290  15.157  14.982
 9824W        W71135  26.060  15.116  12.370
 9825W        W71136  34.464  12.759   4.346
 9826W        W71137  21.600  28.098  13.355
 9827W        W71138   8.866  39.002  11.593
 9828W        W71139   7.688  31.981   0.457
 9829W        W71140   9.153  12.700   0.832
 9830W        W71141   7.384   9.182   2.237
 9831W        W71142  16.673  23.163  13.343
 9832W        W71143  29.477  39.359   0.393
 9833W        W71144   5.403  15.138  13.000
 9834W        W71145  16.165  27.030   2.848
 9835W        W71146  36.939   4.235  13.051
 9836W        W71147  36.865  29.666   3.307
 9837W        W71148  24.529  33.032   4.649
 9838W        W71149  37.454   1.816  14.341
 9839W        W71150   7.668  28.501  14.985
 9840W        W71151   1.383  35.000   2.398
 9841W        W71152  11.352  30.588   4.275
 9842W        W71153  31.935   5.929  13.413
 9843W        W71154  21.592  18.606   4.203
 9844W        W71155  37.444  15.230  11.002
 9845W        W71156   5.335  42.982  11.928
 9846W        W71157  27.152  10.298  14.507
 9847W        W71158   0.366  28.473   0.967
 9848W        W71159   5.713  20.084   0.767
 9849W        W71160   5.274  35.005   3.280
 9850W        W71161  42.310  35.852   4.214
 9851W        W71162   8.709   2.433  12.823
 9852W        W71163  25.198  42.967   3.664
 9853W        W71164  38.532  44.990   3.781
 9854W        W71165  28.648  12.206   3.209
 9855W        W71166   3.435  17.604   4.797
 9856W        W71167  27.143  17.600  13.971
 9857W        W71168  15.156   5.891  11.049
 9858W        W71169   0.987  24.973   9.932
 9859W        W71170   0.955  38.048  11.016
 9860W        W71171   3.870  18.272   4.713
 9861W        W71172  39.968  33.564   0.906
 9862W        W71173  36.353  35.469   0.287
 9863W        W71174  10.284  15.170   2.269
 9864W        W71175  13.814   0.426   3.812
 9865W        W71176  22.084  41.360   1.867
 9866W        W71177  32.557  10.652  13.043
 9867W        W71178  33.497  43.972   1.932
 9868W        W71179  29.034  35.416   4.303
 9869W        W71180  15.192  30.631  14.338
 9870W        W71181  31.449  26.018  10.559
 9871W        W71182  42.872   5.721   4.640
 9872W        W71183  34.554  27.993   3.732
 9873W        W71184  33.058   1.268   1.407
 9874W        W71185   3.924  17.170   4.687
 9875W        W71186   8.331  12.187   0.772
 9876W        W71187   7.758   9.879   3.671
 9877W        W71188  37.939  12.679   1.807
 9878W        W71189  44.328  41.361   2.203
 9879W        W71190  42.790  12.118   1.796
 9880W        W71191  11.687   3.374  13.870
 9881W        W71192  13.736  36.460  14.773
 9882W        W71193  11.631  28.633  14.330
 9883W        W71194  41.922  10.237   3.251
 9884W        W71195  41.341  41.962   4.125
 9885W        W71196   0.376  17.782   4.724
 9886W        W71197  22.660  32.503  12.867
 9887W        W71198   4.699   9.265   0.823
 9888W        W71199  28.640  12.141  13.421
 9889W        W71200  44.922  28.484  11.592
 9890W        W71201  28.450  25.523   4.222
 9891W        W71202   6.730  40.889   2.676
 9892W        W71203  14.709   8.360  14.311
 9893W        W71204   7.415  27.671   1.858
 9894W        W71205   6.840   0.916  13.441
 9895W        W71206  44.320  30.087   4.638
 9896W        W71207  13.258  21.606  12.890
 9897W        W71208  22.242  40.308   3.663
 9898W        W71209   7.834  17.654   3.696
 9899W        W71210  28.516  14.143  13.004
 9900W        W71211  33.481  14.251   3.239
 9901W        W71212  41.301   6.420   0.729
 9902W        W71213  10.150  32.045   3.225
 9903W        W71214  22.029  19.192  12.405
 9904W        W71215  42.419  19.737  12.409
 9905W        W71216  14.714  35.577   4.719
 9906W        W71217  41.447  41.476  14.940
 9907W        W71218  32.026  14.833   5.160
 9908W        W71219  27.564  25.119   3.734
 9909W        W71220  33.923   2.246  14.410
 9910W        W71221   3.943  11.691  11.053
 9911W        W71222   4.785  41.797   4.696
 9912W        W71223  26.171   3.896   2.200
 9913W        W71224  37.474  32.612   1.707
 9914W        W71225   1.923   8.238  14.277
 9915W        W71226  40.434  27.458   4.603
 9916W        W71227  37.440  12.143  11.915
 9917W        W71228  10.859  44.924  12.562
 9918W        W71229  13.627  38.535  13.023
 9919W        W71230  27.601  30.103   4.333
 9920W        W71231  22.138   4.918  12.927
 9921W        W71232   2.255  12.349   1.397
 9922W        W71233  38.397  41.836  11.129
 9923W        W71234  27.099  23.236   3.701
 9924W        W71235  40.402   1.879   9.965
 9925W        W71236   7.319  19.136   2.866
 9926W        W71237  17.659  30.500   0.427
 9927W        W71238  32.620  18.769   4.234
 9928W        W71239  26.046  41.363   2.875
 9929W        W71240  35.428   9.346   1.440
 9930W        W71241  29.659  19.629  10.056
 9931W        W71242  26.054   7.824   0.356
 9932W        W71243  39.907  15.250   2.241
 9933W        W71244   2.904  25.692  13.022
 9934W        W71245  20.087  41.818   0.465
 9935W        W71246  42.986  42.385  14.028
 9936W        W71247  42.011  16.103   4.693
 9937W        W71248  14.136  28.157   5.242
 9938W        W71249  36.407  21.065   0.434
 9939W        W71250  39.454  21.611  13.963
 9940W        W71251  42.913  28.995   0.759
 9941W        W71252  41.019   4.244  12.969
 9942W        W71253   1.316   7.192   2.698
 9943W        W71254   7.857   3.241   2.385
 9944W        W71255  15.132  31.477  14.406
 9945W        W71256  19.045  42.475  12.839
 9946W        W71257  13.790  28.089   4.155
 9947W        W71258   3.412  16.634   0.289
 9948W        W71259  10.675  15.595  12.524
 9949W        W71260  35.858  42.420   3.357
 9950W        W71261  13.632  40.498   0.392
 9951W        W71262  24.222  34.978   3.856
 9952W        W71263   3.886  37.553  10.155
 9953W        W71264  24.044  35.431   2.770
 9954W        W71265  34.114   8.247  14.277
 9955W        W71266  13.220  21.054   1.694
 9956W        W71267  22.592  41.339   4.721
 9957W        W71268  20.036  42.435  13.871
 9958W        W71269   1.901  12.844   4.223
 9959W        W71270  28.007  20.671   1.849
 9960W        W71271   6.763  39.842  12.856
 9961W        W71272  23.628  11.725   0.793
 9962W        W71273  30.583  41.505  11.028
 9963W        W71274  23.676   3.776  10.919
 9964W        W71275  11.303  39.064   2.673
 9965W        W71276  30.478  15.581   2.668
 9966W        W71277  27.122  12.736   4.150
 9967W        W71278  36.479  31.990  10.136
 9968W        W71279  38.065   2.264  12.944
 9969W        W71280  30.450  16.750  14.918
 9970W        W71281  23.611  33.010  13.393
 9971W        W71282  34.526  38.822  10.424
 9972W        W71283  19.575  35.019   0.360
 9973W        W71284  42.526   8.841   4.222
 9974W        W71285   3.226  22.080   0.776
 9975W        W71286  19.548  43.437  11.381
 9976W        W71287  15.243  16.759   3.674
 9977W        W71288  21.521  26.085   3.640
 9978W        W71289  24.133   4.846  14.308
 9979W        W71290  21.027  37.580  14.805
 9980W        W71291  13.600  27.156  12.080
 9981W        W71292  26.965  38.496   3.693
 9982W        W71293   8.398  39.971  11.887
 9983W        W71294  26.026  34.557   4.776
 9984W        W71295   2.460  41.333  14.022
 9985W        W71296  41.997  33.521  10.929
 9986W        W71297  34.064  42.322  12.034
 9987W        W71298  32.955   7.727  13.906
 9988W        W71299  32.007  41.371   0.851
 9989W        W71300   0.429  35.855  13.306
 9990W        W71301  22.573  18.073  12.432
 9991W        W71302  16.765  21.592  14.286
 9992W        W71303  23.985  10.683   4.683
 9993W        W71304  32.600   2.441   0.766
 9994W        W71305  35.881  13.743   0.395
 9995W        W71306  42.932  21.675  13.310
 9996W        W71307   9.212  29.566   2.871
 9997W        W71308  41.021  17.636   0.832
 9998W        W71309  30.019  42.943  13.031
 9999W        W71310  26.456   9.754  10.587
10000W        W71311  23.589  24.546   1.412
10001W        W71312  14.331  44.930  12.843
10002W        W71313   1.454  16.195  13.311
10003W        W71314   0.988  42.945  14.885
10004W        W71315  40.917  35.017  11.946
10005W        W71316  44.280  16.290   0.447
10006W        W71317  13.734  14.735   4.210
10007W        W71318  13.225  26.601  12.970
10008W        W71319  18.776  26.672  14.024
10009W        W71320  11.145   1.973  14.287
10010W        W71321   7.315  36.852   2.885
10011W        W71322  42.288  33.510  14.908
10012W        W71323  43.325   8.713   1.296
10013W        W71324   7.722  22.061   2.790
10014W        W71325  33.101  11.341  12.040
10015W        W71326   7.710  44.814  13.869
10016W        W71327   5.226  44.353  13.460
10017W        W71328   9.252   7.750  13.360
10018W        W71329  24.531   8.876  14.004
10019W        W71330  28.048  36.431   3.661
10020W        W71331  44.377  34.492   0.427
10021W        W71332  21.548  31.465  10.574
10022W        W71333  15.320   2.333  11.958
10023W        W71334  39.814  24.552   4.700
10024W        W71335   7.339  28.560   2.774
10025W        W71336  24.715  32.021  14.778
10026W        W71337  31.010  42.317   1.851
10027W        W71338   6.846  10.872   1.753
10028W        W71339   5.700   7.171   3.149
10029W        W71340  44.883  44.878  10.964
10030W        W71341   4.890  39.489   2.822
10031W        W71342  27.972  32.426  13.376
10032W        W71343   9.769  16.229   1.869
10033W        W71344  12.170   8.871   4.218
10034W        W71345   3.233  14.300  11.989
10035W        W71346  24.049  13.181   3.856
10036W        W71347  33.501   8.304  12.462
10037W        W71348  38.364  22.238  13.524
10038W        W71349  27.102  20.548   1.867
10039W        W71350  33.893  42.013  11.942
10040W        W71351   6.240  12.849  14.802
10041W        W71352  35.443  38.026   0.352
10042W        W71353  23.056  17.721  14.404
10043W        W71354  11.152  14.646   1.914
10044W        W71355   8.769  10.853   2.901
10045W        W71356   0.924  14.279   2.345
10046W        W71357  29.607  27.978  10.958
10047W        W71358  36.086  31.636   0.894
10048W        W71359  25.133   8.664   4.145
10049W        W71360  23.113  41.526  11.461
10050W        W71361  15.109   2.907   5.664
10051W        W71362  24.505  23.590  13.026
10052W        W71363  20.240  15.687  11.043
10053W        W71364  18.716  32.594   2.847
10054W        W71365  14.655  10.157   0.388
10055W        W71366  27.114  31.413   3.301
10056W        W71367  35.524   6.388   4.295
10057W        W71368   8.786  19.221  11.452
10058W        W71369  22.746  25.989   4.768
10059W        W71370  41.357  24.699  13.317
10060W        W71371  27.523  18.192   1.366
10061W        W71372  23.236  23.114   9.463
10062W        W71373  21.607  42.414  11.469
10063W        W71374  17.658  23.630   4.730
10064W        W71375  12.822  39.992  12.438
10065W        W71376  20.208  29.125  11.070
10066W        W71377  15.160   7.293   1.793
10067W        W71378  15.661  10.144  12.497
10068W        W71379  34.943  23.552   2.416
10069W        W71380  41.306  18.219  11.129
10070W        W71381   5.764  25.036   4.117
10071W        W71382  40.887  44.981   3.861
10072W        W71383  11.749  20.538   1.289
10073W        W71384  35.579  17.225  10.540
10074W        W71385   9.321  13.819  10.522
10075W        W71386  12.351  36.364   3.340
10076W        W71387  23.186  37.569   3.313
10077W        W71388   4.713  26.540  11.534
10078W        W71389  42.983  38.387  12.945
10079W        W71390  18.725  40.513  12.845
10080W        W71391   6.904  14.187   0.823
10081W        W71392  21.632  10.262  10.609
10082W        W71393  44.796  37.566   4.788
10083W        W71394  14.255  39.476  12.438
10084W        W71395  23.058  41.969  13.988
10085W        W71396  42.285  28.550   4.349
10086W        W71397  19.593  38.540   2.789
10087W        W71398   8.317  19.185   0.416
10088W        W71399  31.440  37.545  12.003
10089W        W71400  44.821  13.784   4.764
10090W        W71401  27.057  16.623   4.760
10091W        W71402   2.277  27.002   0.452
10092W        W71403  11.359  35.591  13.374
10093W        W71404  18.634  37.914   3.744
10094W        W71405  18.293  17.137  14.010
10095W        W71406  42.515  23.586   0.855
10096W        W71407  32.137  33.561   2.667
10097W        W71408  40.824  44.923   3.267
10098W        W71409  31.098  12.773  11.492
10099W        W71410  31.625  14.204  12.406
10100W        W71411  27.979  22.568  13.827
10101W        W71412  43.439  33.392  12.983
10102W        W71413  29.075  24.079  11.389
10103W        W71414  13.706  44.845   2.826
10104W        W71415  36.921   7.695  13.984
10105W        W71416  11.773   0.764  12.405
10106W        W71417  23.554   1.346  11.569
10107W        W71418  36.979  33.090   2.667
10108W        W71419  40.339  43.473  12.395
10109W        W71420   0.832  17.232  10.083
10110W        W71421   0.453  17.133   3.724
10111W        W71422   3.864  16.131   0.843
10112W        W71423  21.579  18.275  13.427
10113W        W71424  11.860  24.093   0.931
10114W        W71425  43.287  32.524   1.255
10115W        W71426  27.091  34.515   4.723
10116W        W71427  18.131  26.954  12.899
10117W        W71428  19.703  39.429   0.399
10118W        W71429  32.613  24.479   2.687
10119W        W71430   1.459  31.419   0.814
10120W        W71431  20.603  37.489  11.442
10121W        W71432  30.115  40.511   0.832
10122W        W71433  22.526   3.419   2.837
10123W        W71434  38.558  19.179   3.647
10124W        W71435  25.474  40.424  10.417
10125W        W71436  34.976  10.186  13.489
10126W        W71437  29.987  17.721  14.779
10127W        W71438   2.911  41.942  12.860
10128W        W71439  22.616  15.700   0.425
10129W        W71440  29.937  12.272   3.188
10130W        W71441   5.780  12.335  14.001
10131W        W71442   1.298  26.465  14.015
10132W        W71443   5.902  16.080   0.426
10133W        W71444  33.542  12.302  13.385
10134W        W71445  13.153  27.148   4.143
10135W        W71446   8.256   5.892  11.934
10136W        W71447   5.872  43.427   4.176
10137W        W71448  29.977  44.979  14.876
10138W        W71449  44.318  16.201  12.823
10139W        W71450  20.709   1.259   4.605
10140W        W71451   1.963  21.605   2.718
10141W        W71452  16.694  21.547  11.927
10142W        W71453  30.017  28.171   3.801
10143W        W71454   0.430  13.186   3.832
10144W        W71455   7.257   3.430   2.277
10145W        W71456   6.425   8.294  11.927
10146W        W71457  31.979  31.908   1.405
10147W        W71458  31.546  14.816   1.741
10148W        W71459  43.847  13.716  11.921
10149W        W71460   0.980  43.943   0.393
10150W        W71461  16.678  11.265  10.913
10151W        W71462  26.965  20.726  13.506
10152W        W71463   0.909  13.185   3.252
10153W        W71464  16.091  42.359  14.468
10154W        W71465   9.825  40.813  10.486
10155W        W71466   1.248  44.498   0.785
10156W        W71467  30.504  17.106  14.003
10157W        W71468   9.297   0.432   1.427
10158W        W71469  11.340  12.747   0.884
10159W        W71470  31.927   0.306  13.375
10160W        W71471  41.385   7.178  13.899
10161W        W71472  10.635  17.179  12.875
10162W        W71473   9.760  22.008   4.311
10163W        W71474  11.368  16.753   0.731
10164W        W71475  21.017  18.784   0.266
10165W        W71476   7.879  21.071  14.403
10166W        W71477   1.320  32.100  14.985
10167W        W71478  16.782  23.079   4.810
10168W        W71479  31.072  36.428  13.797
10169W        W71480  23.577  14.780  10.484
10170W        W71481  41.005  19.110  10.466
10171W        W71482  11.769  13.811   1.785
10172W        W71483   6.342  13.797  11.104
10173W        W71484  33.928  14.807   2.364
10174W        W71485  43.765  15.230  11.926
10175W        W71486  23.580  17.088   3.381
10176W        W71487  33.114  40.345   1.235
10177W        W71488   2.873  24.186   3.734
10178W        W71489  24.991  10.679   3.827
10179W        W71490  31.962   5.353  13.418
10180W        W71491  36.387  44.329   4.667
10181W        W71492   7.214  16.072  12.514
10182W        W71493  37.469   3.772  11.059
10183W        W71494  25.584  28.518  12.564
10184W        W71495  40.360  21.533  10.414
10185W        W71496  26.547  39.878  13.021
10186W        W71497  29.963   7.278  12.067
10187W        W71498  20.541  37.460   1.363
10188W        W71499   7.205   7.344   4.748
10189W        W71500  23.197  12.198  12.974
10190W        W71501  35.949  25.650  12.036
10191W        W71502  31.457  44.378   0.250
10192W        W71503  37.368  26.461   1.934
10193W        W71504   2.409   2.338  13.966
10194W        W71505  44.949  22.533  13.410
10195W        W71506  27.067  35.869  14.796
10196W        W71507  38.537   4.932  12.888
10197W        W71508  18.682  15.707   2.261
10198W        W71509  42.801  26.182   4.631
10199W        W71510  18.617  41.962   2.249
10200W        W71511  29.614  18.248   0.445
10201W        W71512  35.069  37.457  10.455
10202W        W71513  35.527  19.160  11.072
10203W        W71514  40.848  27.182   1.867
10204W        W71515  25.123   6.780   1.740
10205W        W71516   8.799  39.347  12.402
10206W        W71517  35.426  34.073   4.336
10207W        W71518  44.860  36.027  14.833
10208W        W71519  32.141  22.616  11.004
10209W        W71520  41.371  13.306   0.806
10210W        W71521  10.166  22.520  13.475
10211W        W71522  32.104  11.731   0.443
10212W        W71523   3.321  29.103   1.802
10213W        W71524  42.480   7.678   1.380
10214W        W71525   7.341   3.722   4.616
10215W        W71526  16.206  20.632   4.709
10216W        W71527  15.669  17.139   0.339
10217W        W71528  15.666   9.365  14.414
10218W        W71529  41.928  15.784   0.917
10219W        W71530  18.199  23.082   0.921
10220W        W71531  33.497  32.133  11.052
10221W        W71532   7.293  26.520  11.859
10222W        W71533  10.146  33.878   0.398
10223W        W71534  20.072   0.954   2.301
10224W        W71535  18.736   4.409  12.079
10225W        W71536  29.450   8.169  13.529
10226W        W71537  33.622  25.545   3.675
10227W        W71538  39.846  42.902  13.400
10228W        W71539   2.791   6.879   3.738
10229W        W71540   7.707   0.890   2.874
10230W        W71541  28.622  32.946   4.175
10231W        W71542   2.261  44.279   0.867
10232W        W71543  30.927  36.063  13.810
10233W        W71544   4.225  43.830  14.001
10234W        W71545   6.823  43.909   2.676
10235W        W71546  36.863  40.342   3.662
10236W        W71547  19.184   6.867   0.747
10237W        W71548  16.748  12.778   1.269
10238W        W71549  43.485  10.283  13.008
10239W        W71550  42.916  14.632  10.602
10240W        W71551  17.195  44.505   5.242
10241W        W71552   2.722  44.966   1.275
10242W        W71553  10.228  39.431   1.225
10243W        W71554  32.966  19.265   1.404
10244W        W71555  21.094  43.431  13.335
10245W        W71556  26.002  15.090   3.215
10246W        W71557  31.464  27.680  13.477
10247W        W71558  44.963  35.026   4.262
10248W        W71559  11.843  19.755  11.544
10249W        W71560   4.448  25.092   2.279
10250W        W71561   1.856  32.946   3.778
10251W        W71562  41.024  20.273  13.537
10252W        W71563  39.550  30.134  11.444
10253W        W71564  25.130  29.037  13.794
10254W        W71565  24.643  26.053   4.788
10255W        W71566  13.111   9.223  12.517
10256W        W71567   2.904  18.102  11.926
10257W        W71568   7.719  42.310  13.865
10258W        W71569  44.478  24.494  13.488
10259W        W71570  41.508  24.980  12.826
10260W        W71571  39.025   4.205   2.227
10261W        W71572   3.770  16.241   3.662
10262W        W71573  40.395  10.813  12.907
10263W        W71574  25.148  25.486   0.288
10264W        W71575  36.457  27.512  13.513
10265W        W71576  23.676  18.223   4.598
10266W        W71577  21.632  22.645   3.699
10267W        W71578  39.888  14.595  13.021
10268W        W71579  41.006  24.712   0.892
10269W        W71580  16.623  14.305   2.297
10270W        W71581  17.304  24.987   2.318
10271W        W71582   0.891  43.338  14.826
10272W        W71583  22.580  13.805  10.430
10273W        W71584  26.159  34.533  14.398
10274W        W71585   8.363   8.737   3.320
10275W        W71586  12.275  10.796  12.939
10276W        W71587   4.902  30.462  14.495
10277W        W71588  15.212  19.663   1.370
10278W        W71589   1.859  43.004   1.842
10279W        W71590  36.846  25.627   3.217
10280W        W71591  43.009  22.011   2.723
10281W        W71592  29.654  29.431  14.464
10282W        W71593  36.953   0.935  12.499
10283W        W71594   0.375  29.028  12.858
10284W        W71595   6.418   2.781  13.021
10285W        W71596  22.537  35.395  11.045
10286W        W71597  16.096  36.569  14.804
10287W        W71598  27.161  30.996  11.073
10288W        W71599  30.967  23.540  14.996
10289W        W71600  17.600   6.822  12.524
10290W        W71601  30.600  36.086  14.792
10291W        W71602  18.152  17.739  12.443
10292W        W71603  12.678  36.421  11.380
10293W        W71604   0.301  32.437   0.923
10294W        W71605  10.779  33.081  11.092
10295W        W71606  28.171  19.109   0.257
10296W        W71607   5.780  20.577  14.336
10297W        W71608  15.722  16.692   2.739
10298W        W71609   2.379  18.268   0.959
10299W        W71610  31.084  43.764   2.666
10300W        W71611  41.456   0.942   3.784
10301W        W71612  15.328   1.439   4.303
10302W        W71613   6.808  33.621   0.405
10303W        W71614   1.843  25.614   4.337
10304W        W71615  17.180  39.333  12.399
10305W        W71616  32.407  17.757   0.352
10306W        W71617  12.704   2.448   5.085
10307W        W71618  37.847  32.122   1.744
10308W        W71619   8.865  35.400  10.958
10309W        W71620  43.461   2.398   2.219
10310W        W71621   3.860  35.037  14.024
10311W        W71622  37.984  37.835   2.820
10312W        W71623  37.073   8.879  10.637
10313W        W71624   1.280   9.386   2.690
10314W        W71625  23.989  21.572   2.316
10315W        W71626  40.971   0.793  11.409
10316W        W71627   9.150  13.820  14.956
10317W        W71628  23.202  10.380   1.924
10318W        W71629  19.741  23.193  13.493
10319W        W71630  37.518   2.819   0.804
10320W        W71631  32.944  30.000   5.220
10321W        W71632  31.493  39.482  12.912
10322W        W71633   1.787  20.523   3.333
10323W        W71634  17.297  10.307   3.372
10324W        W71635   5.433  35.927  12.995
10325W        W71636  10.258  40.937   0.442
10326W        W71637  31.521   3.727   2.333
10327W        W71638  18.179  18.545  13.934
10328W        W71639  17.664   8.745   3.260
10329W        W71640   2.753  21.675   2.828
10330W        W71641   8.740   9.386  11.600
10331W        W71642  44.482  18.163  10.550
10332W        W71643  12.334  40.360  12.395
10333W        W71644  37.581  33.608   4.192
10334W        W71645  28.510  10.176  11.035
10335W        W71646   5.825   9.741  13.999
10336W        W71647  26.189  33.553  14.364
10337W        W71648   0.282  32.143   4.811
10338W        W71649  22.573  29.150  10.066
10339W        W71650  33.966   0.370   2.335
10340W        W71651  24.010  24.063  11.040
10341W        W71652   3.719  43.514  10.425
10342W        W71653  19.653  17.762   0.407
10343W        W71654   1.885  36.581  12.468
10344W        W71655  10.808  12.794   1.406
10345W        W71656  10.751  15.149   4.650
10346W        W71657  43.925  11.868   1.694
10347W        W71658  21.223  24.711   3.733
10348W        W71659  34.521  26.024  12.019
10349W        W71660  35.516  40.341   4.701
10350W        W71661  18.090  35.090   1.322
10351W        W71662   7.415  11.221   4.121
10352W        W71663  41.804  21.193   1.781
10353W        W71664   3.453  31.560  11.511
10354W        W71665  15.083  29.433   3.759
10355W        W71666  41.908   0.362  12.085
10356W        W71667   4.284  24.075   0.432
10357W        W71668   9.306   7.182   3.308
10358W        W71669  27.101  42.520   3.744
10359W        W71670  34.410  21.242   3.268
10360W        W71671  22.190   5.257  12.948
10361W        W71672  24.677  16.100  13.885
10362W        W71673  43.483   7.701  12.476
10363W        W71674  24.673  13.323   3.370
10364W        W71675  40.491  17.086  11.539
10365W        W71676  38.067  29.562   3.728
10366W        W71677   2.450  12.617  12.360
10367W        W71678  28.075   4.398  11.413
10368W        W71679  39.468   4.834  11.885
10369W        W71680  29.439  35.101   2.339
10370W        W71681  10.303   5.387  12.532
10371W        W71682  41.341  19.087   0.267
10372W        W71683  14.105  29.654   2.301
10373W        W71684  35.566  15.788  11.077
10374W        W71685  31.059  21.189   3.801
10375W        W71686  37.447  12.200   3.856
10376W        W71687  31.017  38.467  11.591
10377W        W71688   4.861  18.659   2.228
10378W        W71689   8.293  26.197   1.732
10379W        W71690   3.939   2.777   4.134
10380W        W71691  29.039   3.735  14.449
10381W        W71692  21.236  16.705   9.668
10382W        W71693  24.050  15.116  14.415
10383W        W71694  14.711  36.502   1.225
10384W        W71695   0.432  36.511   4.665
10385W        W71696   8.695   8.666  13.441
10386W        W71697  25.084  41.311  14.024
10387W        W71698  16.079  30.025   1.902
10388W        W71699   6.239  10.374   5.280
10389W        W71700  36.899   9.661  14.490
10390W        W71701  44.981  44.003   0.327
10391W        W71702  41.995  39.950  12.050
10392W        W71703  32.579  18.192  14.418
10393W        W71704  31.085  30.100   0.421
10394W        W71705  20.598  12.731   3.371
10395W        W71706  36.922   8.369  10.981
10396W        W71707  43.825  42.851   4.307
10397W        W71708  24.508   0.798   1.923
10398W        W71709  15.303  21.084   3.191
10399W        W71710  35.986  25.175  10.921
10400W        W71711   5.303   9.353   0.753
10401W        W71712  41.342  40.967  11.423
10402W        W71713   7.795   9.885   2.696
10403W        W71714   7.344  34.018   0.824
10404W        W71715   7.361  12.765   4.602
10405W        W71716   0.780   2.406  13.541
10406W        W71717  40.468   0.348   4.211
10407W        W71718  14.800   5.282   2.817
10408W        W71719  18.147   5.909  14.423
10409W        W71720  17.798  14.163   1.275
10410W        W71721  13.171  26.648   3.347
10411W        W71722   8.774   4.741  11.436
10412W        W71723  14.677  42.016  12.339
10413W        W71724  44.944  13.237   4.213
10414W        W71725  43.489  33.001   1.858
10415W        W71726   2.933   5.920  10.595
10416W        W71727   3.252   5.866  12.074
10417W        W71728   9.708  40.533  10.403
10418W        W71729  37.337   9.775  11.529
10419W        W71730   8.223  40.931  10.437
10420W        W71731   5.690   0.892  12.525
10421W        W71732  21.651  38.968  14.510
10422W        W71733  15.269  29.526   3.327
10423W        W71734  28.991  42.420  10.602
10424W        W71735  32.583   3.910   2.754
10425W        W71736  10.337  37.922   0.304
10426W        W71737  27.189  33.511  14.492
10427W        W71738  24.560  19.120  12.925
10428W        W71739   1.238  18.168  12.478
10429W        W71740   8.209  29.512   4.180
10430W        W71741  23.571  23.191  11.086
10431W        W71742  30.997  33.878   2.710
10432W        W71743  35.409  17.732  10.954
10433W        W71744  32.103  26.991  13.834
10434W        W71745  16.168  33.082  12.976
10435W        W71746  27.946  20.711  12.002
10436W        W71747  28.975  35.604  14.975
10437W        W71748  16.735  19.113   1.870
10438W        W71749  39.472  26.126   1.709
10439W        W71750   5.382  19.739   3.306
10440W        W71751  41.515  22.629  11.921
10441W        W71752  34.890  22.225   0.298
10442W        W71753  37.047  12.759   4.825
10443W        W71754  38.874  11.305   4.283
10444W        W71755  19.057  28.581  14.804
10445W        W71756  10.262  36.550   4.146
10446W        W71757  16.218  19.777  10.471
10447W        W71758  14.639   0.856  10.467
10448W        W71759  44.369  37.382   2.354
10449W        W71760  25.671  42.482  11.126
10450W        W71761  31.493  27.532  13.897
10451W        W71762  33.516  10.680  11.886
10452W        W71763   3.903  21.585  10.943
10453W        W71764  32.604   7.815  10.522
10454W        W71765   0.311   9.764  12.867
10455W        W71766  10.214  15.627  11.424
10456W        W71767   8.379  44.004  14.993
10457W        W71768  12.723   2.946  11.914
10458W        W71769   7.753  30.474  11.126
10459W        W71770  30.086   8.328   0.920
10460W        W71771  11.164   3.223   1.809
10461W        W71772  12.343  32.498   3.226
10462W        W71773  23.023  41.450  12.843
10463W        W71774  38.879  33.614  11.422
10464W        W71775  32.076  12.310   4.247
10465W        W71776   6.251  25.989  11.952
10466W        W71777   7.300  10.140  14.448
10467W        W71778  41.451  28.453  11.386
10468W        W71779  12.647  39.466  12.360
10469W        W71780  24.567  27.976  12.986
10470W        W71781  17.178  40.344   1.253
10471W        W71782   8.847   3.893  10.996
10472W        W71783  18.697  29.014   2.291
10473W        W71784  37.513  23.732   0.358
10474W        W71785  41.005  33.043   4.302
10475W        W71786  29.166  40.917  11.545
10476W        W71787  24.640  39.537   4.771
10477W        W71788  23.631  24.573   2.269
10478W        W71789  11.865  10.177   1.792
10479W        W71790  20.216  25.141  13.479
10480W        W71791  34.061  38.843  13.980
10481W        W71792  23.123  28.478   2.798
10482W        W71793  30.496  44.905  10.553
10483W        W71794  43.511  27.152  14.807
10484W        W71795  10.699  14.314   1.784
10485W        W71796  33.448  14.099   4.238
10486W        W71797   3.251  41.487   1.920
10487W        W71798  24.546  25.703  13.349
10488W        W71799  10.671  34.429   1.755
10489W        W71800  44.407  31.913   0.762
10490W        W71801  20.083  22.670   2.377
10491W        W71802  36.073  36.054   4.157
10492W        W71803  37.507  18.113   0.298
10493W        W71804  15.266   1.448  13.028
10494W        W71805  42.015   7.385  11.936
10495W        W71806   7.201  20.649  13.814
10496W        W71807  14.265  43.401  10.451
10497W        W71808   9.767  26.070   4.171
10498W        W71809  12.144  27.493   3.868
10499W        W71810  23.674   2.929  11.590
10500W        W71811  33.894  19.773   4.750
10501W        W71812  39.815  14.683  13.834
10502W        W71813  28.137  14.228   9.953
10503W        W71814  35.413  33.562   0.462
10504W        W71815  19.658  41.439   4.799
10505W        W71816  15.716   4.768   0.877
10506W        W71817  36.023  30.463  14.513
10507W        W71818  44.862   0.875   1.869
10508W        W71819   6.906   7.684   1.371
10509W        W71820   3.939  44.890  11.931
10510W        W71821  23.660  11.755   3.206
10511W        W71822  35.062  21.671   3.660
10512W        W71823   1.464  38.397   3.726
10513W        W71824  25.499   3.894   0.785
10514W        W71825  37.555  34.953   2.765
10515W        W71826  12.807   6.292   3.287
10516W        W71827  10.245  27.667   3.863
10517W        W71828  17.178  34.391   0.274
10518W        W71829  39.433  11.717   2.717
10519W        W71830  34.374  15.821   5.097
10520W        W71831   8.732   3.788  14.323
10521W        W71832  37.991  33.622   1.355
10522W        W71833   0.460  29.605   1.915
10523W        W71834   9.683  19.152  10.447
10524W        W71835  34.906   8.707  12.468
10525W        W71836  17.113   3.425   0.433
10526W        W71837   9.366   5.215  14.902
10527W        W71838  26.072  35.600  14.817
10528W        W71839  42.326  11.271  13.334
10529W        W71840   5.262  40.877   1.897
10530W        W71841  36.476   0.303  13.792
10531W        W71842  11.192  38.514  11.862
10532W        W71843  26.038  44.300  14.282
10533W        W71844   0.301   7.251   0.962
10534W        W71845  38.013  35.867   3.739
10535W        W71846  26.521  30.938   9.975
10536W        W71847  13.107  35.034  12.529
10537W        W71848  36.982  41.456   5.238
10538W        W71849   5.244  11.839   0.737
10539W        W71850  25.642  26.136  14.758
10540W        W71851  25.691  38.342  13.930
10541W        W71852   5.722  13.744   4.121
10542W        W71853  10.718  17.085   3.832
10543W        W71854  15.635   8.330  13.913
10544W        W71855  24.184  35.587   0.757
10545W        W71856  22.729  15.711   9.989
10546W        W71857  10.641  21.127  11.855
10547W        W71858  30.583  37.482  10.083
10548W        W71859  39.497  14.689   4.711
10549W        W71860  21.743  32.033   1.890
10550W        W71861  21.047  29.081  11.607
10551W        W71862   7.816   4.299   4.646
10552W        W71863  29.041  44.463  13.545
10553W        W71864   8.242  41.002   0.828
10554W        W71865  36.553  12.320  11.489
10555W        W71866  44.826  34.545   0.759
10556W        W71867  28.018  12.207  12.015
10557W        W71868  40.914   4.339  14.980
10558W        W71869  42.462   5.785  10.917
10559W        W71870  39.006   8.826  14.948
10560W        W71871  10.160  11.724   3.837
10561W        W71872  17.702  43.284  12.029
10562W        W71873  41.430   0.494   1.380
10563W        W71874   4.705  29.099   0.909
10564W        W71875  42.418  16.223   1.232
10565W        W71876  19.725   3.242  12.500
10566W        W71877  43.461  21.614  11.963
10567W        W71878  25.558  27.195   4.240
10568W        W71879  14.232  13.325   1.266
10569W        W71880  23.118  14.732   2.688
10570W        W71881  23.024  29.583   0.823
10571W        W71882  35.038   7.747  12.014
10572W        W71883   2.453  18.185   0.316
10573W        W71884  10.258  14.753   2.178
10574W        W71885  21.601  36.487   5.208
10575W        W71886  42.296  31.950   3.198
10576W        W71887   8.245  36.416   0.266
10577W        W71888  22.570   1.454  14.871
10578W        W71889  35.366  26.639   3.346
10579W        W71890  18.689   0.866   5.143
10580W        W71891   3.756  21.700  12.346
10581W        W71892   8.894  21.707   0.753
10582W        W71893  21.076  43.798   1.852
10583W        W71894  38.418  15.215  12.503
10584W        W71895  23.600  19.561   3.645
10585W        W71896  22.739  37.427   1.402
10586W        W71897   7.877   2.886  11.495
10587W        W71898  42.948  11.320  14.346
10588W        W71899  19.583  30.131   2.682
10589W        W71900   9.216   0.956   2.325
10590W        W71901   5.228  19.595   4.206
10591W        W71902  31.458  18.657   3.358
10592W        W71903  31.116  31.123  13.045
10593W        W71904  24.627  22.530   4.732
10594W        W71905   8.670  31.931   1.741
10595W        W71906  10.326  25.684   2.233
10596W        W71907  12.200  39.316   1.770
10597W        W71908  18.113  24.603  13.801
10598W        W71909  17.205   9.277  12.967
10599W        W71910  33.984  19.105   2.413
10600W        W71911  26.168   4.944  13.380
10601W        W71912   7.220  31.926  14.403
10602W        W71913  34.457  26.155  12.991
10603W        W71914   9.811  28.079  13.390
10604W        W71915  12.285  18.781   3.863
10605W        W71916   6.354  14.825   5.097
10606W        W71917  36.970  28.532   2.800
10607W        W71918  26.077  22.205  12.845
10608W        W71919   6.748  19.724  13.884
10609W        W71920  23.231  41.349  10.932
10610W        W71921   6.679   1.831   0.463
10611W        W71922  24.147  42.320   0.926
10612W        W71923  15.809  29.127  14.281
10613W        W71924  19.565  15.286   3.651
10614W        W71925  34.485  35.418   3.245
10615W        W71926   1.902  42.809  13.424
10616W        W71927  15.329  23.728   0.382
10617W        W71928  33.466  19.610  14.025
10618W        W71929  11.160  19.212  11.117
10619W        W71930   8.399  22.056  14.339
10620W        W71931  14.165   9.311  12.036
10621W        W71932  24.693  29.946  13.012
10622W        W71933   1.883  14.677   3.862
10623W        W71934  23.166  10.232  14.854
10624W        W71935  15.710  41.838   4.274
10625W        W71936  32.918  16.802  12.577
10626W        W71937  21.050  33.614   5.158
10627W        W71938  30.920  42.493   0.302
10628W        W71939  35.362   2.472  11.077
10629W        W71940  40.009   0.809  14.969
10630W        W71941  35.020  36.370  13.343
10631W        W71942  10.160  16.642   3.837
10632W        W71943  23.496  42.902  14.846
10633W        W71944  33.031  10.153   4.725
10634W        W71945  12.806   2.340  11.950
10635W        W71946  43.402  24.611  14.857
10636W        W71947  33.102   9.315   0.823
10637W        W71948  24.692  44.451  12.009
10638W        W71949   5.364  23.149   3.374
10639W        W71950  17.561  41.039   2.815
10640W        W71951  35.996   9.193  14.937
10641W        W71952  25.670  33.107   4.624
10642W        W71953  18.610   8.166   0.730
10643W        W71954   0.256  23.661  13.990
10644W        W71955  36.050  13.612   0.739
10645W        W71956  36.468  33.521  13.515
10646W        W71957   4.848  37.085  11.108
10647W        W71958   6.429  40.919   3.658
10648W        W71959  12.693  22.568  12.883
10649W        W71960  33.010  34.054  14.979
10650W        W71961  22.146   6.895   0.842
10651W        W71962  28.034  41.896   2.856
10652W        W71963   6.421   3.277  14.942
10653W        W71964  27.675  41.339  12.375
10654W        W71965  24.215  43.949  12.869
10655W        W71966  18.772  21.608   1.813
10656W        W71967  27.048  14.805   3.748
10657W        W71968   0.488  33.989   0.868
10658W        W71969  14.131  19.163  13.512
10659W        W71970  16.112  26.058   1.340
10660W        W71971   8.378  15.087   1.828
10661W        W71972  20.559   6.910   1.450
10662W        W71973  19.261  23.105   1.824
10663W        W71974  35.102   2.419   3.673
10664W        W71975  33.100  41.367  12.839
10665W        W71976  36.932   5.390   1.308
10666W        W71977  10.660   3.393   0.403
10667W        W71978  17.276  27.674  11.059
10668W        W71979  43.500  22.235   1.337
10669W        W71980  23.012  24.202   1.831
10670W        W71981   8.715  25.117  10.087
10671W        W71982   2.849   8.335   2.344
10672W        W71983   1.837  20.141  11.942
10673W        W71984   2.822  18.183  12.499
10674W        W71985  12.326  13.339   3.275
10675W        W71986  37.414  10.719  11.088
10676W        W71987  22.170  27.646  14.470
10677W        W71988   5.428  38.390   1.870
10678W        W71989   0.351  38.464  13.938
10679W        W71990   7.248   0.381   3.790
10680W        W71991  14.589  31.470  11.922
10681W        W71992  33.430   6.290  12.524
10682W        W71993  34.564   6.793   1.229
10683W        W71994   5.803  26.523   3.277
10684W        W71995  12.617  23.077  10.042
10685W        W71996  15.186  12.226   5.708
10686W        W71997  35.085  25.647   4.650
10687W        W71998   2.409  13.830   1.334
10688W        W71999  18.103  15.744  11.576
10689W        W72000  30.126  12.144  14.283
10690W        W72001  30.648  36.859   1.853
10691W        W72002   1.422  24.033  11.517
10692W        W72003  18.637   2.273  11.541
10693W        W72004   8.799   8.878  10.581
10694W        W72005  31.479  22.597   1.347
10695W        W72006  23.726  26.652   4.319
10696W        W72007  13.232  12.291  12.854
10697W        W72008   5.699  20.637  10.892
10698W        W72009  44.488   6.382   3.154
10699W        W72010  34.949   1.902  13.406
10700W        W72011  19.554  38.431  12.094
10701W        W72012  19.282  26.046  13.477
10702W        W72013  24.624   1.375   1.803
10703W        W72014  36.886  40.349  12.390
10704W        W72015   0.949  38.853  11.559
10705W        W72016  41.841  10.285  14.000
10706W        W72017  39.049  31.065   3.283
10707W        W72018   6.275  41.000   2.860
10708W        W72019  39.417   7.208   2.406
10709W        W72020   6.877  10.780  13.032
10710W        W72021  12.709  24.529   3.210
10711W        W72022  23.711   9.736   2.872
10712W        W72023  31.909  17.280  12.070
10713W        W72024  32.608  29.657   1.275
10714W        W72025   1.326   3.252  12.417
10715W        W72026  38.932   8.797   1.244
10716W        W72027   6.287  22.087   3.635
10717W        W72028  12.652  20.175  13.920
10718W        W72029  44.271  24.146  14.950
10719W        W72030   4.859  43.346  13.887
10720W        W72031   1.808  42.823   4.152
10721W        W72032  25.039  44.894  10.900
10722W        W72033  12.627  39.882   3.186
10723W        W72034  40.012  16.680  14.300
10724W        W72035   1.372   3.231  11.900
10725W        W72036  35.983  39.911   2.824
10726W        W72037  38.365   6.801  14.785
10727W        W72038  17.268   4.450   3.808
10728W        W72039  29.552  32.581   1.931
10729W        W72040  38.447  27.530  14.937
10730W        W72041   0.353  29.163   4.282
10731W        W72042  24.977  11.205   3.861
10732W        W72043  13.809  15.786   4.619
10733W        W72044   1.326  21.553   4.726
10734W        W72045  27.490  39.809  10.898
10735W        W72046   9.342  38.510  13.815
10736W        W72047  13.271  41.315   4.203
10737W        W72048  31.907   8.253   2.808
10738W        W72049  42.934  21.528   0.783
10739W        W72050   9.750  16.709   4.781
10740W        W72051  22.740  22.085  10.117
10741W        W72052  24.210  20.622   5.606
10742W        W72053   8.232   3.770  11.953
10743W        W72054  17.163  39.537  11.106
10744W        W72055  24.624  35.444   2.268
10745W        W72056  28.120   0.250  13.865
10746W        W72057  29.947  23.581  10.458
10747W        W72058  27.663  15.772   4.303
10748W        W72059   0.860  11.310  10.134
10749W        W72060   4.318  28.972  11.553
10750W        W72061   9.254  22.744   4.273
10751W        W72062  42.961  39.986  13.946
10752W        W72063  34.377  41.793   0.811
10753W        W72064   7.700  34.550   2.674
10754W        W72065  43.002  41.013   0.254
10755W        W72066  34.373  39.825  12.491
10756W        W72067  44.933  40.390   2.726
10757W        W72068  38.335   0.782  11.597
10758W        W72069  21.191  14.109   2.824
10759W        W72070   1.431  24.103  13.426
10760W        W72071  32.604  41.986  14.859
10761W        W72072  24.167  41.361  12.938
10762W        W72073  11.802  40.503  11.998
10763W        W72074  37.446  11.216  12.076
10764W        W72075  20.054  27.041  11.868
10765W        W72076  38.823  32.936  14.371
10766W        W72077  22.070  14.102  13.404
10767W        W72078  26.548  11.337  14.993
10768W        W72079  16.196  21.076  13.861
10769W        W72080  39.834  27.669  13.873
10770W        W72081  37.529  34.569  14.849
10771W        W72082  37.458  36.476  14.280
10772W        W72083  13.285  41.813  13.828
10773W        W72084  31.506  36.869   3.362
10774W        W72085  28.169  19.193  12.051
10775W        W72086  25.005  12.626  12.501
10776W        W72087  11.810  38.514   0.405
10777W        W72088  38.909  19.115   4.195
10778W        W72089  44.805  42.511   1.306
10779W        W72090   4.938  31.070   1.254
10780W        W72091   4.913  27.061   3.737
10781W        W72092   0.856  27.599   1.286
10782W        W72093  41.977  40.509   1.269
10783W        W72094  32.605   3.716  13.328
10784W        W72095  22.220  25.469  12.523
10785W        W72096  20.249  23.153  10.409
10786W        W72097  22.515  25.667   0.472
10787W        W72098  16.631  21.717  13.830
10788W        W72099   9.805  35.551   1.765
10789W        W72100   0.919   8.655  14.987
10790W        W72101   0.956  38.884   1.736
10791W        W72102  40.008  12.644  14.476
10792W        W72103   7.333   3.764   2.224
10793W        W72104  38.837  36.491  12.496
10794W        W72105  31.465  39.472  10.415
10795W        W72106   5.217  37.061  13.332
10796W        W72107  34.433  16.212  12.506
10797W        W72108   9.239  44.408  13.864
10798W        W72109  29.583  25.174   0.726
10799W        W72110  13.816  40.950  13.320
10800W        W72111  28.983  33.888   2.743
10801W        W72112  14.684  10.727   3.694
10802W        W72113  16.738  20.525   3.782
10803W        W72114  10.870   7.299   0.870
10804W        W72115  30.588  18.193  10.504
10805W        W72116  20.061  37.579  11.921
10806W        W72117  21.065  12.640  11.455
10807W        W72118  12.179  14.707   1.730
10808W        W72119  29.147  38.387   2.814
10809W        W72120   9.876   6.411  12.967
10810W        W72121  28.607  33.018  11.014
10811W        W72122  12.810  39.827  13.454
10812W        W72123   3.377  42.899   5.111
10813W        W72124   5.214  35.372  13.816
10814W        W72125  44.784  22.708   0.851
10815W        W72126   3.451  25.533   3.714
10816W        W72127  29.430  19.118  12.424
10817W        W72128  29.953  43.797  14.296
10818W        W72129   0.378  27.676   2.224
10819W        W72130  19.759  38.406  11.524
10820W        W72131   1.353  14.746   0.362
10821W        W72132  37.342  25.711   5.124
10822W        W72133  18.144  35.373   3.659
10823W        W72134  44.473  28.598   0.255
10824W        W72135  16.116   4.274  12.459
10825W        W72136  15.783  34.875   0.418
10826W        W72137  41.369  43.503  12.571
10827W        W72138   1.731   8.391   0.733
10828W        W72139   4.411   6.709  14.785
10829W        W72140   3.930   1.851   2.759
10830W        W72141  23.643  24.661  14.426
10831W        W72142  41.865  10.173   4.150
10832W        W72143  40.400  41.349   3.657
10833W        W72144  33.062  20.130   0.828
10834W        W72145   9.361  42.517   3.694
10835W        W72146   6.701   6.426  11.100
10836W        W72147  23.718  21.205  14.797
10837W        W72148   5.259  36.030  13.538
10838W        W72149  43.414  26.099  11.941
10839W        W72150  16.631   0.341  12.996
10840W        W72151  25.217  44.301  12.935
10841W        W72152  18.229  37.952  13.941
10842W        W72153  28.463  10.307   5.169
10843W        W72154  39.419  43.889  11.890
10844W        W72155  17.266   8.801  12.937
10845W        W72156  37.872  29.076   1.791
10846W        W72157   6.266  20.257  11.474
10847W        W72158  44.984  24.157  14.437
10848W        W72159  41.927  17.670  12.375
10849W        W72160  22.548  33.487   1.410
10850W        W72161  40.523  33.078  10.540
10851W        W72162  25.681  24.082  11.056
10852W        W72163  21.244   7.231  12.497
10853W        W72164  10.747  36.875  12.997
10854W        W72165  37.072  14.777  11.509
10855W        W72166  10.188   1.447   0.271
10856W        W72167  13.770  28.637  12.925
10857W        W72168  22.178  38.476  14.896
10858W        W72169  22.215  23.097  10.630
10859W        W72170   9.205  34.566  12.562
10860W        W72171  13.796  42.506  13.979
10861W        W72172  18.269  28.038   2.191
10862W        W72173  15.196  43.865  13.536
10863W        W72174   7.907  27.976  12.013
10864W        W72175  25.623  15.635   2.337
10865W        W72176   4.333  43.937   0.299
10866W        W72177  27.612  15.587  13.401
10867W        W72178  19.766  14.662  13.851
10868W        W72179  30.909  22.646   1.738
10869W        W72180  30.511  42.002  11.570
10870W        W72181  16.739   7.735  11.086
10871W        W72182  17.114  30.576   3.773
10872W        W72183  39.528   1.314  10.503
10873W        W72184  30.554   8.848  14.511
10874W        W72185  41.867  43.778  13.516
10875W        W72186  25.485  29.167   1.379
10876W        W72187  35.413   3.294  12.850
10877W        W72188  38.465   3.841   1.224
10878W        W72189  32.889  35.935   1.733
10879W        W72190   9.766  33.114   3.775
10880W        W72191   0.447  37.079   0.798
10881W        W72192  40.435  18.755  14.952
10882W        W72193   2.319  42.849   1.918
10883W        W72194  11.853   9.658  11.583
10884W        W72195  11.764  41.504   1.305
10885W        W72196  31.039  36.350   1.840
10886W        W72197   3.799  20.698   0.273
10887W        W72198  34.456  21.213   2.847
10888W        W72199  16.709  41.788  10.971
10889W        W72200   5.745  13.205  12.540
10890W        W72201  39.436  33.093  12.861
10891W        W72202   2.871  44.412   4.695
10892W        W72203   1.934  35.072  10.632
10893W        W72204  15.610  39.549  12.485
10894W        W72205   6.829  29.048   1.830
10895W        W72206  25.214  31.144   2.339
10896W        W72207  39.981  26.540   4.129
10897W        W72208   2.848  11.160   4.341
10898W        W72209   2.463  27.645  11.420
10899W        W72210   6.910  11.705  10.981
10900W        W72211   2.818  27.603  11.608
10901W        W72212   4.353  42.869  10.916
10902W        W72213  31.924  40.811  13.011
10903W        W72214  34.495  17.684   2.805
10904W        W72215  42.343  42.485  11.996
10905W        W72216  39.021  25.653   4.278
10906W        W72217  30.081  21.516   4.602
10907W        W72218  31.002  28.499  11.491
10908W        W72219  27.094  21.584  14.937
10909W        W72220   4.445   4.229   2.310
10910W        W72221  12.186   9.323  13.933
10911W        W72222  21.166   6.319  14.280
10912W        W72223  21.127  17.067  12.042
10913W        W72224  16.795  30.917   0.309
10914W        W72225  34.930  32.073   4.659
10915W        W72226  28.019  14.624  13.405
10916W        W72227  13.253  34.989   3.320
10917W        W72228   4.321  26.144  11.461
10918W        W72229  12.344  11.782   0.781
10919W        W72230  16.775  20.669  13.540
10920W        W72231   5.765  15.703  12.830
10921W        W72232  20.735  44.801   4.769
10922W        W72233   1.907  32.018  12.577
10923W        W72234   6.424   6.422   2.749
10924W        W72235   9.240   9.842  12.869
10925W        W72236  23.599   7.734   2.402
10926W        W72237  43.411  38.823   2.751
10927W        W72238  41.816  37.502  11.440
10928W        W72239  14.702   8.772   4.169
10929W        W72240   1.936  28.049  13.543
10930W        W72241  26.585  19.221   3.374
10931W        W72242   0.368  33.957   3.294
10932W        W72243  12.224  17.615  11.512
10933W        W72244  38.031   9.815   2.695
10934W        W72245  18.547  17.128   0.317
10935W        W72246   4.351  35.465  13.829
10936W        W72247  34.895  44.296   0.382
10937W        W72248  22.166  26.015   0.907
10938W        W72249  27.135  44.770  10.446
10939W        W72250  34.864  21.712  12.363
10940W        W72251  16.646  23.612   0.482
10941W        W72252   2.785  38.487  14.506
10942W        W72253  44.948  33.459   4.120
10943W        W72254  37.988  41.342   3.679
10944W        W72255  33.604  16.667  14.378
10945W        W72256  28.461  20.567   3.752
10946W        W72257  30.606   5.738   3.169
10947W        W72258  16.074  30.981   3.176
10948W        W72259   1.457  21.253   2.365
10949W        W72260  18.782  18.655   1.922
10950W        W72261  44.932  25.482  13.482
10951W        W72262  27.123   7.899   0.877
10952W        W72263  22.194  16.752  11.108
10953W        W72264   7.297  42.483   3.204
10954W        W72265  43.818  39.553   2.212
10955W        W72266  11.861  33.557  13.445
10956W        W72267  36.077   8.280   2.220
10957W        W72268  25.016   5.437   4.756
10958W        W72269  19.113   0.406   4.809
10959W        W72270  26.491   0.435   5.307
10960W        W72271  42.995  37.505  14.023
10961W        W72272  41.981   7.359   1.771
10962W        W72273  11.753  32.102  13.315
10963W        W72274  28.654  24.561  11.488
10964W        W72275  39.557  28.163  12.562
10965W        W72276  17.679  22.689  13.463
10966W        W72277  27.499  42.372  12.072
10967W        W72278   6.915   0.249   3.170
10968W        W72279   8.694  17.590  14.439
10969W        W72280  14.629  43.275   1.435
10970W        W72281   7.850  12.769   3.638
10971W        W72282  33.897   1.927   2.752
10972W        W72283   5.912  37.837   1.726
10973W        W72284  35.923   8.323  14.278
10974W        W72285  38.898  34.417  12.913
10975W        W72286  21.722  26.176  14.417
10976W        W72287   1.910  10.292   2.778
10977W        W72288   9.183  12.360  12.410
10978W        W72289  24.486  10.229  10.583
10979W        W72290  23.711   2.744  11.967
10980W        W72291  19.126  30.939  10.523
10981W        W72292   5.882  34.878  12.929
10982W        W72293   9.388  13.334  14.345
10983W        W72294   4.759  39.474  12.902
10984W        W72295  29.605   7.898   4.192
10985W        W72296  38.908   8.655  12.395
10986W        W72297   0.768  26.129   3.336
10987W        W72298   3.352  40.439   2.332
10988W        W72299   3.303   2.876  11.044
10989W        W72300  39.540  16.662  10.603
10990W        W72301  38.474  22.568   1.261
10991W        W72302  17.187  35.431  11.068
10992W        W72303  19.770  17.118   5.166
10993W        W72304  27.615   9.317  11.504
10994W        W72305  32.411  28.061   3.850
10995W        W72306  35.087  16.672  14.275
10996W        W72307  36.359  21.690  11.404
10997W        W72308  27.178   5.380   9.964
10998W        W72309  26.953   6.725   1.262
10999W        W72310  27.466  33.903  11.396
11000W        W72311  25.140  12.143   0.887
11001W        W72312   0.485  43.371  10.965
11002W        W72313  31.561  36.496  10.616
11003W        W72314  18.769  10.785   0.472
11004W        W72315  43.455  18.754   2.842
11005W        W72316   3.263  31.479   0.874
11006W        W72317  23.697  12.240   3.344
11007W        W72318  31.570  18.075   3.784
11008W        W72319  42.964  10.174  11.484
11009W        W72320  34.370   8.292   1.845
11010W        W72321  24.116   2.889   1.835
11011W        W72322  15.634   2.373  10.038
11012W        W72323  10.279  40.412  13.064
11013W        W72324  38.874  35.469   1.400
11014W        W72325  44.988  16.688   0.782
11015W        W72326  20.071  31.944  14.909
11016W        W72327  33.505  27.662  10.067
11017W        W72328  40.313   9.859   3.263
11018W        W72329  23.693  22.145  12.084
11019W        W72330   5.915  30.938   3.308
11020W        W72331  27.544   9.164  11.919
11021W        W72332  35.411   3.942  10.645
11022W        W72333  12.732  26.657  10.500
11023W        W72334   9.294  26.460   1.424
11024W        W72335  31.444   0.338  14.433
11025W        W72336  12.303   8.797  11.501
11026W        W72337  31.100  17.749   3.771
11027W        W72338   9.293  21.041  10.991
11028W        W72339  34.501  14.824   0.396
11029W        W72340  35.059  28.163   2.258
11030W        W72341  27.196  37.951   0.894
11031W        W72342  37.984  24.015  12.955
11032W        W72343  32.981  30.107   1.914
11033W        W72344  38.326  22.177  13.038
11034W        W72345  13.180   5.905   2.345
11035W        W72346  44.442   8.265  10.130
11036W        W72347   8.715  28.994  14.500
11037W        W72348  33.016  12.133   3.642
11038W        W72349  39.899  32.393   3.160
11039W        W72350  43.322   5.320   2.821
11040W        W72351  42.312   5.278   1.862
11041W        W72352   2.827   9.357   4.745
11042W        W72353  36.347  19.726   2.727
11043W        W72354  26.154   3.395   2.311
11044W        W72355  31.128  39.823   1.269
11045W        W72356  32.916  15.112   4.354
11046W        W72357  38.341  28.610   2.755
11047W        W72358  40.477  20.064   2.391
11048W        W72359  31.585  30.975   4.128
11049W        W72360  16.709  22.188   9.992
11050W        W72361  30.106  33.606  13.422
11051W        W72362  27.667   2.814  14.327
11052W        W72363  14.138  42.379   0.422
11053W        W72364  16.238  43.897   0.817
11054W        W72365  18.129  40.475   1.213
11055W        W72366  29.489  41.025  11.573
11056W        W72367  32.131  30.019   0.838
11057W        W72368  14.221  23.185   2.292
11058W        W72369  21.580  37.463  12.574
11059W        W72370  27.943  19.232  14.473
11060W        W72371  24.997  16.197   2.307
11061W        W72372  10.221  22.661  10.979
11062W        W72373  25.594  24.201  14.766
11063W        W72374  37.538  17.600   2.375
11064W        W72375  33.030   5.932   2.861
11065W        W72376  11.848  35.502  11.933
11066W        W72377  11.647  16.653  14.881
11067W        W72378  15.242   9.317  13.485
11068W        W72379  14.602  42.932  11.081
11069W        W72380  34.393  13.134   1.386
11070W        W72381  32.030   2.891  10.892
11071W        W72382  43.821  30.448  12.842
11072W        W72383  14.245  43.297  12.567
11073W        W72384   8.330   5.924   3.333
11074W        W72385  44.404   5.739   3.345
11075W        W72386  39.539  34.458   4.725
11076W        W72387   1.792  23.583  12.087
11077W        W72388   5.764  11.287   0.306
11078W        W72389  43.396  41.836   4.269
11079W        W72390  14.773  14.338   5.584
11080W        W72391  32.470  26.607   3.245
11081W        W72392  26.633  34.924  10.915
11082W        W72393  38.037  33.090  13.962
11083W        W72394  32.899   0.285  13.337
11084W        W72395  29.580   4.734  10.088
11085W        W72396  20.176  17.206   3.162
11086W        W72397  40.535   0.826   4.337
11087W        W72398   6.309  28.614  11.865
11088W        W72399  10.195  12.137  11.390
11089W        W72400  30.495  40.312  10.574
11090W        W72401  12.139   1.766   1.924
11091W        W72402  39.905  19.212   3.809
11092W        W72403  15.208  17.572   0.741
11093W        W72404  10.260  44.314   1.912
11094W        W72405   6.309   1.845   3.827
11095W        W72406  18.194  20.247   3.214
11096W        W72407   9.272  21.755   2.258
11097W        W72408   9.749  30.645  14.901
11098W        W72409  39.396  30.153   4.730
11099W        W72410  13.297   2.820  14.331
11100W        W72411  23.625  42.024   3.802
11101W        W72412  32.900   4.879  10.630
11102W        W72413  12.346  19.709   4.631
11103W        W72414  16.578   9.726   0.800
11104W        W72415  34.053   3.747  14.831
11105W        W72416  18.561  24.491   2.826
11106W        W72417  11.331   9.700   0.476
11107W        W72418  30.984  34.507  14.468
11108W        W72419  33.621  38.357   1.444
11109W        W72420  15.603  19.220   2.201
11110W        W72421   7.401   2.733  14.431
11111W        W72422   7.718  38.497  12.823
11112W        W72423  25.088  11.643  10.601
11113W        W72424  35.040  18.674   0.872
11114W        W72425  35.466  11.861  12.883
11115W        W72426  26.602  32.904   2.695
11116W        W72427  29.097  19.727   3.251
11117W        W72428   5.906  18.067   4.772
11118W        W72429   4.349  30.443   2.813
11119W        W72430  33.957  40.866  10.975
11120W        W72431  26.149   0.378  14.768
11121W        W72432   0.305  35.407   0.294
11122W        W72433   7.396  15.101   0.790
11123W        W72434   2.938  35.045  12.439
11124W        W72435  13.318  15.195  11.995
11125W        W72436  34.013  12.836  11.954
11126W        W72437  26.457  43.378  10.405
11127W        W72438   1.807   9.818  14.448
11128W        W72439  38.032  33.601   5.593
11129W        W72440  33.960   2.919   3.678
11130W        W72441  24.996   4.265   1.820
11131W        W72442  31.137   1.274   2.341
11132W        W72443  24.571   9.314  12.410
11133W        W72444   7.736  28.099  14.846
11134W        W72445  21.616  18.297   4.354
11135W        W72446   4.883  35.014  14.912
11136W        W72447  28.035  31.950  14.428
11137W        W72448  32.120  29.598   1.278
11138W        W72449  29.485   4.721  14.984
11139W        W72450  15.133  43.818   1.820
11140W        W72451  34.448  15.784  12.995
11141W        W72452  44.398  30.052   4.114
11142W        W72453  16.164  15.719   0.421
11143W        W72454  22.619  41.820  14.402
11144W        W72455   2.248  14.139   3.364
11145W        W72456  31.983   3.373  11.962
11146W        W72457  30.139   4.768  10.484
11147W        W72458  38.041  23.723   1.235
11148W        W72459  24.650   0.823   0.437
11149W        W72460   8.387  17.155  14.787
11150W        W72461  16.131  17.636   3.775
11151W        W72462  23.030  36.851   0.461
11152W        W72463  27.014  14.833  11.028
11153W        W72464  29.558  23.500   4.136
11154W        W72465  20.249  27.680   0.924
11155W        W72466  40.920   7.375  11.982
11156W        W72467  13.205   0.880   3.177
11157W        W72468  34.054   3.729   3.638
11158W        W72469   5.756  44.979  11.387
11159W        W72470  11.346   3.881  13.348
11160W        W72471  21.043  29.162   3.156
11161W        W72472   8.358  39.034   3.726
11162W        W72473  30.483   9.685   3.780
11163W        W72474  34.074  11.254  10.534
11164W        W72475  34.012  22.608   1.253
11165W        W72476   0.431  20.216  11.607
11166W        W72477  44.415  34.516   3.213
11167W        W72478  24.525   8.814  11.403
11168W        W72479  20.254  24.990  13.927
11169W        W72480  15.627  27.171  14.986
11170W        W72481   4.407   2.843   4.744
11171W        W72482  36.447  11.257  13.431
11172W        W72483   2.326  27.471  13.887
11173W        W72484   7.232  32.390  14.854
11174W        W72485  12.750   1.754  12.379
11175W        W72486  17.768   6.800  14.472
11176W        W72487  42.835  39.059  10.448
11177W        W72488  37.940  17.291  11.547
11178W        W72489  19.224   2.726   2.732
11179W        W72490  33.612  37.520   9.940
11180W        W72491  16.261  13.799  12.455
11181W        W72492  21.599  10.669  12.086
11182W        W72493  37.878  11.719  11.909
11183W        W72494   9.765   3.355  10.617
11184W        W72495  29.550  44.283  14.014
11185W        W72496  10.698   9.764   3.351
11186W        W72497  34.464   0.968  13.035
11187W        W72498   3.446  31.981   2.338
11188W        W72499  29.564  30.056  13.062
11189W        W72500  26.194   6.315  10.500
11190W        W72501  26.104  30.137   1.420
11191W        W72502  19.550  44.895  13.015
11192W        W72503  42.376  26.995   2.897
11193W        W72504  18.678  17.165   0.876
11194W        W72505  35.433   7.404  10.531
11195W        W72506  36.970  25.031   3.207
11196W        W72507  34.071  18.571  14.315
11197W        W72508  28.543   8.230  12.519
11198W        W72509  10.866  10.730  12.031
11199W        W72510   6.774   5.342  13.934
11200W        W72511  31.584  27.158   2.761
11201W        W72512  21.089  23.645  13.869
11202W        W72513  29.136   3.809  11.524
11203W        W72514  24.024  32.111   2.682
11204W        W72515  33.449  29.592   1.897
11205W        W72516  24.182   1.471   2.836
11206W        W72517   4.864  12.819  13.430
11207W        W72518  44.493  22.116   3.164
11208W        W72519  21.552  40.817  11.900
11209W        W72520  29.043  18.135  13.501
11210W        W72521  44.893  18.124   0.888
11211W        W72522  25.043  22.085  10.619
11212W        W72523   9.247  32.406   1.858
11213W        W72524  41.471  18.718   3.837
11214W        W72525  13.781  28.618   2.753
11215W        W72526  43.872  11.307  14.368
11216W        W72527  10.149  30.019  14.923
11217W        W72528  27.103   7.701  13.328
11218W        W72529  28.950  13.146   0.742
11219W        W72530  11.299  40.330   1.320
11220W        W72531  28.559  38.991  13.050
11221W        W72532  18.629   8.733   3.299
11222W        W72533  27.126  33.950  12.094
11223W        W72534  32.613  34.420   0.804
11224W        W72535  40.400   4.322  11.064
11225W        W72536  39.004  11.370   0.243
11226W        W72537   8.254   6.697  13.473
11227W        W72538  40.945  25.219  13.064
11228W        W72539   2.861  19.547   4.207
11229W        W72540   6.848  31.484   1.329
11230W        W72541  36.402  27.531  12.571
11231W        W72542   9.281  11.304   3.852
11232W        W72543   9.357   6.807  11.904
11233W        W72544   7.783   1.296  13.002
11234W        W72545  19.234  38.848  14.397
11235W        W72546  31.902   5.208   2.386
11236W        W72547  30.421  20.193   2.192
11237W        W72548  38.559  17.224   3.778
11238W        W72549  12.300  42.440   2.877
11239W        W72550  34.042  25.051   5.246
11240W        W72551  25.047  16.761  13.948
11241W        W72552   3.872  15.672   4.765
11242W        W72553  39.935  20.042   0.474
11243W        W72554  34.950  40.422   0.738
11244W        W72555   5.373  33.950   2.356
11245W        W72556  25.580  42.788   0.411
11246W        W72557   4.256  23.695  13.387
11247W        W72558  37.521  33.552   0.769
11248W        W72559  44.280  27.149  14.952
11249W        W72560  44.985  39.483  11.858
11250W        W72561  34.066  34.386   2.807
11251W        W72562  18.564  35.522   0.821
11252W        W72563  26.181   5.208   0.254
11253W        W72564  33.879  14.165  13.945
11254W        W72565   7.201  42.028   4.280
11255W        W72566  39.516  22.676   3.345
11256W        W72567  18.761  21.668  13.062
11257W        W72568  29.094  10.268   9.989
11258W        W72569  28.946  12.613  12.836
11259W        W72570  29.628  30.576  11.128
11260W        W72571  31.564   6.353  13.380
11261W        W72572  15.592  16.632  11.491
11262W        W72573  18.613  18.098  13.511
11263W        W72574  12.346  24.167  13.795
11264W        W72575  16.103  17.686  11.564
11265W        W72576  11.720  16.312   1.796
11266W        W72577   2.768  35.547   3.329
11267W        W72578  15.252   6.418   1.710
11268W        W72579  25.128   6.878   4.296
11269W        W72580  28.961  10.137  10.626
11270W        W72581  13.765   4.406   1.232
11271W        W72582  18.081  23.185  12.008
11272W        W72583  34.553   9.716  13.006
11273W        W72584   0.337  42.810   2.396
11274W        W72585  12.698  27.028   1.764
11275W        W72586  22.238  28.590   3.779
11276W        W72587  26.469  14.274   0.321
11277W        W72588  22.037   9.278   1.284
11278W        W72589  10.223   9.250  13.518
11279W        W72590   6.916   1.793   2.332
11280W        W72591  16.671  40.459  10.607
11281W        W72592  16.295  38.426   4.821
11282W        W72593  31.137  19.086  11.507
11283W        W72594  27.489  23.066   4.122
11284W        W72595  26.144  25.649  14.400
11285W        W72596  18.089   9.184   4.701
11286W        W72597  32.034  11.129   0.307
11287W        W72598  34.574  31.541   5.698
11288W        W72599  39.840  17.296  12.843
11289W        W72600   3.865  29.538  10.602
11290W        W72601  36.892  41.976  12.922
11291W        W72602  27.124  38.414   1.231
11292W        W72603  18.783  21.727   2.892
11293W        W72604  27.992  15.701  13.060
11294W        W72605   3.241  15.638  14.994
11295W        W72606  33.975   8.738   3.315
11296W        W72607  32.890   2.951   3.162
11297W        W72608   5.849  33.912   0.341
11298W        W72609   7.798   5.768  14.319
11299W        W72610  38.348  15.733  13.517
11300W        W72611   1.770   8.718  13.932
11301W        W72612  21.676  40.434   2.212
11302W        W72613  32.484   5.847   4.723
11303W        W72614  16.270  43.320   2.358
11304W        W72615  16.587  20.246   1.350
11305W        W72616   7.281  17.647  11.870
11306W        W72617  10.212  26.563   2.892
11307W        W72618  12.267  21.755  14.004
11308W        W72619  29.646  21.746  10.550
11309W        W72620  20.057  18.240  14.950
11310W        W72621  22.083  22.662   3.298
11311W        W72622  29.586  13.646  12.476
11312W        W72623  25.535  35.864  12.576
11313W        W72624  24.698  16.302  12.364
11314W        W72625   3.409  25.699  13.470
11315W        W72626   8.795   4.778   2.264
11316W        W72627  10.788  38.970   4.796
11317W        W72628  12.262  43.916  13.497
11318W        W72629  30.062  20.220  14.344
11319W        W72630   5.201   2.729   1.934
11320W        W72631  22.726  17.751  11.868
11321W        W72632  26.488  13.795   4.317
11322W        W72633  44.276   0.920  14.977
11323W        W72634   0.470  16.221   3.337
11324W        W72635  31.078   3.233   4.685
11325W        W72636  39.021   2.762   4.694
11326W        W72637  17.769  44.375  10.936
11327W        W72638  38.418  35.033   0.257
11328W        W72639  13.692  17.613   0.731
11329W        W72640  35.479  43.275   2.838
11330W        W72641  23.152  32.543   2.332
11331W        W72642  36.025  36.388   1.390
11332W        W72643   0.889  10.667   2.234
11333W        W72644  30.477  42.873  10.494
11334W        W72645  19.656  35.963   4.828
11335W        W72646   7.401  25.137   5.198
11336W        W72647  15.089  42.519   2.243
11337W        W72648  31.575  25.156  11.926
11338W        W72649  28.562  40.991  14.882
11339W        W72650  13.793  12.193  14.931
11340W        W72651   6.806  21.611  11.070
11341W        W72652  25.642  10.280   1.850
11342W        W72653  11.847  24.611  10.473
11343W        W72654  43.917  36.539   4.700
11344W        W72655  41.814  25.675   0.366
11345W        W72656  17.296  10.744  11.893
11346W        W72657  29.524  37.855  13.869
11347W        W72658   0.941  15.643  14.437
11348W        W72659  41.894  12.155  14.338
11349W        W72660  19.566  30.090   1.873
11350W        W72661   4.822  40.936  12.458
11351W        W72662   2.353  10.333   4.147
11352W        W72663   9.175  37.353   2.348
11353W        W72664  39.938   0.986  12.954
11354W        W72665  15.764  15.817  14.891
11355W        W72666  28.012  22.571  10.571
11356W        W72667  24.123   3.737  11.473
11357W        W72668  26.679  21.699   4.305
11358W        W72669  19.079  21.549   4.691
11359W        W72670   7.411  42.477   0.891
11360W        W72671  34.881  42.495  11.091
11361W        W72672  33.397  10.212   3.821
11362W        W72673  29.089  20.047   1.787
11363W        W72674   9.165  43.788   3.693
11364W        W72675  24.555  14.619  11.563
11365W        W72676  15.218  22.093  13.383
11366W        W72677  18.127  32.075  12.413
11367W        W72678  32.901  42.958   1.827
11368W        W72679   4.856  13.607   0.267
11369W        W72680  12.733   7.400  13.456
11370W        W72681  11.822  35.083   0.832
11371W        W72682  16.107  19.654  12.417
11372W        W72683  16.233  42.887   5.115
11373W        W72684   7.880  42.812   2.894
11374W        W72685  19.550  27.508  10.989
11375W        W72686  37.579  17.200   0.345
11376W        W72687   6.916  40.811  13.822
11377W        W72688  22.995   7.269  14.281
11378W        W72689  28.125  38.365   2.257
11379W        W72690   9.795   8.334   1.236
11380W        W72691  13.236  16.238  12.070
11381W        W72692  39.350  42.505  14.979
11382W        W72693  36.581  34.599  14.398
11383W        W72694  10.839  15.788  11.888
11384W        W72695  19.198   0.314   0.845
11385W        W72696  43.315  21.144   2.699
11386W        W72697  39.314   8.347  14.800
11387W        W72698  21.532   4.422  11.565
11388W        W72699   3.399  32.894   1.924
11389W        W72700  35.874  21.630   4.661
11390W        W72701  23.205   2.889  11.949
11391W        W72702   4.242   1.414   0.915
11392W        W72703  20.703  17.566  10.132
11393W        W72704  42.446  18.127   1.285
11394W        W72705  29.980  19.641   1.775
11395W        W72706   0.349  17.653  14.800
11396W        W72707  16.234  41.448   3.801
11397W        W72708  43.995  25.485  10.926
11398W        W72709  22.586   0.862   3.261
11399W        W72710   3.941  36.937   4.127
11400W        W72711  34.593   9.775  11.504
11401W        W72712  18.573  33.536   0.371
11402W        W72713   4.795  31.646  12.957
11403W        W72714  25.659  19.285  11.526
11404W        W72715  10.227   3.267  10.595
11405W        W72716  31.482   1.437   2.852
11406W        W72717  24.521   7.304  12.975
11407W        W72718  30.457  27.093  10.540
11408W        W72719  28.564  40.474   0.269
11409W        W72720  37.878   4.721   2.681
11410W        W72721  25.499  34.490  10.911
11411W        W72722  26.523  24.511   3.238
11412W        W72723  25.201  33.420   3.360
11413W        W72724  33.613  44.378   9.975
11414W        W72725  21.188  23.226  14.780
11415W        W72726  11.339  30.161   2.417
11416W        W72727  26.586  29.512  14.978
11417W        W72728  32.556  10.301  14.817
11418W        W72729  29.106  43.814   0.778
11419W        W72730  11.236  25.103   2.805
11420W        W72731   2.286  41.456  13.435
11421W        W72732   0.475  16.092  13.838
11422W        W72733  20.057  18.163  13.800
11423W        W72734  28.170  33.455   4.674
11424W        W72735  16.087   6.223  11.505
11425W        W72736  28.532  34.957   1.319
11426W        W72737  43.464  26.054  10.912
11427W        W72738  30.540  40.877  14.348
11428W        W72739  24.654  28.524   1.236
11429W        W72740  16.196  28.107   3.787
11430W        W72741  15.092  37.396  10.946
11431W        W72742  38.825  27.467  14.319
11432W        W72743  17.623  36.081  10.606
11433W        W72744   9.748  21.182  11.123
11434W        W72745   5.337  40.825   2.701
11435W        W72746  17.118  29.475   3.204
11436W        W72747  31.039  11.756  11.081
11437W        W72748  39.489  10.762   3.826
11438W        W72749  24.104  41.873   1.813
11439W        W72750  23.638  33.963   4.327
11440W        W72751  28.975  25.139   0.265
11441W        W72752  14.807  26.009   0.360
11442W        W72753  33.440  38.460   4.665
11443W        W72754  23.542  44.799   0.376
11444W        W72755  18.082  27.491  12.049
11445W        W72756  35.067  20.273  14.461
11446W        W72757  26.543  14.825  10.899
11447W        W72758  41.974   4.207   0.961
11448W        W72759  37.041  40.943   0.369
11449W        W72760   2.321   3.867  14.294
11450W        W72761   6.385  11.652   1.329
11451W        W72762  11.665  32.539  14.391
11452W        W72763   2.952  23.650   2.801
11453W        W72764   7.409  44.858  14.865
11454W        W72765  21.136  27.986  10.483
11455W        W72766   7.777  22.605   1.908
11456W        W72767   4.230   6.304   3.226
11457W        W72768  40.995  22.601  12.946
11458W        W72769  28.182  29.655  12.865
11459W        W72770  36.395  31.961  14.759
11460W        W72771  25.713   7.808  13.312
11461W        W72772  31.946  27.628   0.897
11462W        W72773  42.487  14.305   1.857
11463W        W72774  10.856  14.790   4.161
11464W        W72775  24.133  38.019  13.059
11465W        W72776   2.919  11.176   0.748
11466W        W72777  25.986  44.411  11.472
11467W        W72778   0.833  24.651   1.731
11468W        W72779   3.306  22.738   1.375
11469W        W72780   2.397  39.005   4.650
11470W        W72781  29.461  34.985   3.761
11471W        W72782   7.212  22.664  13.457
11472W        W72783  11.161  26.985  14.381
11473W        W72784   3.446  24.485  11.860
11474W        W72785  20.156  18.736   4.301
11475W        W72786  33.437  28.599  12.864
11476W        W72787  40.324  29.453   4.796
11477W        W72788  30.138  37.001  12.892
11478W        W72789  38.844  28.068   5.266
11479W        W72790  13.771  32.538   4.661
11480W        W72791  17.650   7.733   4.713
11481W        W72792  30.987   6.789  11.442
11482W        W72793  14.156  40.333  13.829
11483W        W72794  17.664   1.960  13.500
11484W        W72795   7.692  26.014   4.759
11485W        W72796  36.087  40.909  14.980
11486W        W72797  22.221  20.112   4.782
11487W        W72798  30.419  30.414   2.211
11488W        W72799  11.739   2.824   0.947
11489W        W72800  24.160  32.427   0.386
11490W        W72801   6.890  39.831   3.755
11491W        W72802  29.633  15.254  14.934
11492W        W72803   9.686  37.862  14.011
11493W        W72804  11.666  28.676   3.202
11494W        W72805   4.315  42.437   4.250
11495W        W72806  10.701  37.857  11.002
11496W        W72807   2.353  32.393   2.773
11497W        W72808  31.969  39.823   4.307
11498W        W72809  28.027   1.421  11.916
11499W        W72810   2.287  39.554   0.357
11500W        W72811  24.549   9.383   3.173
11501W        W72812  19.187   4.745   1.879
11502W        W72813  21.117  25.694   0.391
11503W        W72814  17.106   0.345  14.436
11504W        W72815  41.526  15.111   4.314
11505W        W72816  25.571  27.106   0.801
11506W        W72817  39.459  32.965  12.382
11507W        W72818  33.442  34.390   3.274
11508W        W72819  36.409   2.928   4.220
11509W        W72820  19.659  43.407   0.731
11510W        W72821   2.875   5.925   0.251
11511W        W72822  20.151  35.371   1.839
11512W        W72823  14.201   9.232  11.057
11513W        W72824  23.710  34.426  14.312
11514W        W72825  32.020  30.556   1.805
11515W        W72826  13.730  15.764   2.805
11516W        W72827  18.635  31.945  10.143
11517W        W72828  39.373  38.442   0.784
11518W        W72829   2.902  44.772  14.931
11519W        W72830  18.232  43.289   2.227
11520W        W72831  11.184  31.542  13.912
11521W        W72832  13.180  37.408   0.912
11522W        W72833  26.515  37.367  10.435
11523W        W72834   4.278  21.058   2.369
11524W        W72835  29.138  27.485  12.350
11525W        W72836  35.438  27.095   1.315
11526W        W72837  38.977  43.016   1.257
11527W        W72838   1.424   9.345  11.053
11528W        W72839  22.034  25.124  14.842
11529W        W72840  40.482  21.646  13.520
11530W        W72841  30.097  25.657  11.931
11531W        W72842  32.626  43.297  12.931
11532W        W72843  38.879   0.964  13.901
11533W        W72844  22.692  18.648  14.334
11534W        W72845  35.425  22.564   2.272
11535W        W72846  31.527  15.088  12.412
11536W        W72847  39.994  12.230  14.832
11537W        W72848  31.135  34.885  12.871
11538W        W72849  10.673  41.464   3.814
11539W        W72850  15.621  33.618   1.411
11540W        W72851  32.950  13.817  14.455
11541W        W72852  21.126  42.484   3.278
11542W        W72853  17.622  24.016   0.884
11543W        W72854  13.832  35.987  11.570
11544W        W72855   7.177  34.983   2.221
11545W        W72856  17.167  15.084   0.811
11546W        W72857   4.387  11.316   4.303
11547W        W72858   9.682  13.153   3.191
11548W        W72859  29.067  18.096   3.847
11549W        W72860  29.173   1.425  13.803
11550W        W72861  17.634  20.526   1.726
11551W        W72862  30.434   6.681   5.316
11552W        W72863  28.082  30.536   5.150
11553W        W72864  22.736   0.474  10.452
11554W        W72865  30.632   1.801   3.654
11555W        W72866  19.666  13.116   2.856
11556W        W72867  41.022   0.379   1.751
11557W        W72868  37.490  42.349  12.842
11558W        W72869   7.303  32.547  11.073
11559W        W72870   8.698   4.892   2.840
11560W        W72871   0.954  16.779  14.840
11561W        W72872  24.498  24.516  12.891
11562W        W72873  17.712  16.583   3.840
11563W        W72874   2.947   3.450   3.748
11564W        W72875  37.855  34.605  12.385
11565W        W72876  39.862  38.026  11.561
11566W        W72877   4.725  34.060  14.839
11567W        W72878   3.386  29.579   3.216
11568W        W72879   1.259   8.779  12.512
11569W        W72880   9.863   1.957  12.839
11570W        W72881  23.571  21.076   0.886
11571W        W72882   4.371  16.664   4.150
11572W        W72883  37.055  16.151   4.270
11573W        W72884  28.996  41.471  12.467
11574W        W72885  30.970  11.784   2.320
11575W        W72886  35.872  38.903  14.475
11576W        W72887  11.663  30.041   3.711
11577W        W72888  14.816  39.458  14.015
11578W        W72889  44.330  36.476   2.255
11579W        W72890  17.799  15.198  12.535
11580W        W72891  31.575  19.241   0.427
11581W        W72892  30.044   2.271   0.317
11582W        W72893  20.146  37.396  12.544
11583W        W72894   1.843  37.505   3.734
11584W        W72895   5.750   4.222  11.519
11585W        W72896  21.711  10.879   1.889
11586W        W72897  40.845   7.177  14.459
11587W        W72898  40.924   0.493  13.377
11588W        W72899  42.882  32.893  11.067
11589W        W72900  23.179  16.289   4.628
11590W        W72901  22.634  25.111  13.372
11591W        W72902  20.564   3.232   4.266
11592W        W72903  26.614  14.650   3.188
11593W        W72904  42.900  31.084   5.194
11594W        W72905  42.396   5.392  10.973
11595W        W72906  26.029  43.284  13.995
11596W        W72907  38.051  30.578   3.258
11597W        W72908  18.722  27.676   2.711
11598W        W72909  25.709  13.663   0.383
11599W        W72910  41.849  42.851   0.433
11600W        W72911  40.442  38.455   2.318
11601W        W72912  28.447   9.284   3.364
11602W        W72913  40.046  18.099  10.959
11603W        W72914  41.424  25.217   5.180
11604W        W72915  26.156  27.551  14.306
11605W        W72916  42.997  17.298  14.461
11606W        W72917  27.597   1.815  14.450
11607W        W72918  24.622  16.566  13.972
11608W        W72919   7.183  38.430  10.488
11609W        W72920  40.853  18.169   0.910
11610W        W72921  11.683  12.687  11.897
11611W        W72922   5.846  30.131   1.356
11612W        W72923  37.912  40.930   4.618
11613W        W72924  44.432  42.943   2.666
11614W        W72925  14.141  38.541  14.313
11615W        W72926  28.046  43.943   3.366
11616W        W72927  19.127   2.408  12.399
11617W        W72928   5.208  15.602  14.386
11618W        W72929  28.060   4.281   3.359
11619W        W72930   8.661   1.805   2.726
11620W        W72931  13.770  35.854   0.748
11621W        W72932  44.308  33.606   4.339
11622W        W72933  21.088  29.461   5.681
11623W        W72934  33.424  37.915   1.283
11624W        W72935  24.983  12.184  11.928
11625W        W72936   1.362  23.217  12.865
11626W        W72937  16.193  31.008  10.610
11627W        W72938  22.577  34.577   2.341
11628W        W72939  17.801  15.094   2.708
11629W        W72940   1.839  24.187   0.288
11630W        W72941  13.809  32.075   0.251
11631W        W72942   0.759  40.882   4.270
11632W        W72943  22.656  44.492   0.346
11633W        W72944  44.989  25.593   3.246
11634W        W72945  18.053  31.543   0.294
11635W        W72946  28.159  44.909   2.903
11636W        W72947  37.902  28.019   3.705
11637W        W72948  18.680  17.600   0.948
11638W        W72949   5.850  20.709  13.796
11639W        W72950   4.416  38.369   4.698
11640W        W72951  30.043  42.014   3.327
11641W        W72952  18.612  21.619   1.364
11642W        W72953  29.434  37.337   3.670
11643W        W72954   6.197  44.469  12.489
11644W        W72955  38.999  30.104  13.911
11645W        W72956  28.125  34.987  10.994
11646W        W72957  18.263  18.166   0.919
11647W        W72958  33.067   6.332  13.418
11648W        W72959  33.929  21.064   3.705
11649W        W72960  17.305   2.869   1.395
11650W        W72961  35.577   5.386  10.645
11651W        W72962  22.583  42.523   1.713
11652W        W72963  30.119  14.274   4.782
11653W        W72964  19.230  18.640  14.949
11654W        W72965  12.847  11.152  13.315
11655W        W72966  31.910  26.665  11.035
11656W        W72967  14.242   7.722   0.805
11657W        W72968  34.046  41.327  11.939
11658W        W72969  43.771   5.425  14.027
11659W        W72970  42.883  33.123   1.759
11660W        W72971  15.621  40.504  12.868
11661W        W72972   9.169  16.581   2.697
11662W        W72973  38.539   9.325  13.513
11663W        W72974  34.997  20.732   3.361
11664W        W72975  38.855  10.754   1.247
11665W        W72976  25.697  13.333  14.275
11666W        W72977  35.084  37.995  14.803
11667W        W72978   0.392  42.004  13.535
11668W        W72979  43.391  13.819  12.515
11669W        W72980  26.071  11.832  14.982
11670W        W72981  37.989  11.241   2.269
11671W        W72982   6.392  19.681  12.990
11672W        W72983  33.117  24.115   4.241
11673W        W72984  42.832   2.244   4.215
11674W        W72985   7.695  37.960  11.921
11675W        W72986  19.116  10.710   0.760
11676W        W72987   6.726  24.193   1.336
11677W        W72988  36.979  19.183   2.263
11678W        W72989  17.753  32.980  10.566
11679W        W72990  43.446  15.260  11.093
11680W        W72991  13.803  15.231  10.481
11681W        W72992  29.445  34.024  12.891
11682W        W72993  13.179  32.084  14.488
11683W        W72994  40.512  13.802   4.125
11684W        W72995  40.462  18.222  11.940
11685W        W72996  43.347  42.919  13.877
11686W        W72997  26.461  21.124   3.280
11687W        W72998  25.088   2.263  12.842
11688W        W72999  16.643  34.918  13.517
11689W        W73000  40.029  22.610  11.583
11690W        W73001  44.346   6.907  12.042
11691W        W73002   3.354  37.538   4.294
11692W        W73003  28.461  23.634  13.401
11693W        W73004  11.211   2.277  11.419
11694W        W73005   3.791  21.120   1.732
11695W        W73006  19.582  36.939   2.347
11696W        W73007  17.232   0.882  11.080
11697W        W73008  23.671  24.715  11.574
11698W        W73009  27.082  16.213   4.149
11699W        W73010  31.928  37.469   1.283
11700W        W73011  34.982  19.780   3.216
11701W        W73012  30.941  35.435  14.315
11702W        W73013  14.277  17.606  14.943
11703W        W73014  38.892  18.667  12.458
11704W        W73015  37.959  27.586  12.543
11705W        W73016  18.259  36.401  13.356
11706W        W73017  35.430  15.634   2.870
11707W        W73018  20.166   1.948   5.163
11708W        W73019   9.219   9.273   4.220
11709W        W73020  34.096  31.477   1.916
11710W        W73021  32.081  20.235   4.614
11711W        W73022  19.541  32.970   2.798
11712W        W73023  41.993  35.424  10.520
11713W        W73024  13.666  17.757  10.998
11714W        W73025   8.280  39.502   4.833
11715W        W73026  25.035   2.858   2.368
11716W        W73027  33.922  21.591   0.451
11717W        W73028  16.152  37.915   0.457
11718W        W73029  17.597  16.128  13.842
11719W        W73030  24.187  39.985   0.826
11720W        W73031  16.583  13.147   3.745
11721W        W73032   0.782  43.350  10.418
11722W        W73033  41.862  26.475   5.183
11723W        W73034  20.203  31.534  14.788
11724W        W73035  41.951  32.004  13.961
11725W        W73036   7.262   9.154  10.955
11726W        W73037  41.342  34.604  11.981
11727W        W73038  30.961  29.530   2.408
11728W        W73039   4.376  18.276   4.175
11729W        W73040  41.365  30.535   4.231
11730W        W73041  40.011  39.824   0.279
11731W        W73042  30.542  11.182   1.858
11732W        W73043  30.545  25.527   3.282
11733W        W73044  44.412  20.595   3.691
11734W        W73045  10.326  21.073  12.449
11735W        W73046  14.155   0.856   0.952
11736W        W73047  18.071  30.586   0.317
11737W        W73048   7.270  12.116  10.890
11738W        W73049  29.997  24.016   2.280
11739W        W73050  17.114  26.172  12.406
11740W        W73051  23.657  18.262   3.630
11741W        W73052  35.099  10.745  12.957
11742W        W73053   2.282  18.731   1.750
11743W        W73054  14.217  35.458   1.223
11744W        W73055  30.093  30.490   1.922
11745W        W73056  38.415   8.674   3.204
11746W        W73057   9.319  24.196   1.447
11747W        W73058  30.535   7.863  11.400
11748W        W73059  10.202  19.704  14.027
11749W        W73060  37.929   6.416  14.486
11750W        W73061  23.033  32.899   1.721
11751W        W73062  20.544  41.375  14.778
11752W        W73063  26.472  29.048  10.523
11753W        W73064  12.647   6.759   1.850
11754W        W73065   2.234  14.659   1.821
11755W        W73066  42.388  20.569   4.153
11756W        W73067  11.677   4.337  13.910
11757W        W73068  23.588  27.497  14.815
11758W        W73069   3.322  24.205  12.495
11759W        W73070  27.522  18.068  12.429
11760W        W73071  22.533  33.591   0.464
11761W        W73072  35.405  24.174  11.429
11762W        W73073  44.444  21.034   0.780
11763W        W73074  36.087  36.945   5.584
11764W        W73075  42.896  41.900   4.159
11765W        W73076   9.166   1.832  12.356
11766W        W73077  38.894  14.798   9.951
11767W        W73078   4.433  44.003  14.978
11768W        W73079  39.886  15.800   3.809
11769W        W73080  20.608  41.852   3.673
11770W        W73081  20.607  30.422   3.788
11771W        W73082  24.676  32.632   2.862
11772W        W73083  24.568  35.367   1.388
11773W        W73084   3.415  23.063   4.287
11774W        W73085  36.940  36.561  14.469
11775W        W73086  21.557   3.896  10.543
11776W        W73087  38.031  27.564  14.468
11777W        W73088  15.106  23.085   5.193
11778W        W73089  20.216   3.890  11.505
11779W        W73090  21.021  12.769  12.451
11780W        W73091  26.125  25.643   4.315
11781W        W73092  32.416  12.145   1.315
11782W        W73093   1.741  32.948   2.817
11783W        W73094  42.941  28.978   4.195
11784W        W73095   2.961  42.875   2.798
11785W        W73096  37.834   1.419   4.732
11786W        W73097  11.339  30.625   3.698
11787W        W73098  36.841  42.520  11.603
11788W        W73099  29.575  41.319  14.399
11789W        W73100   3.438  23.698  12.837
11790W        W73101  43.415  31.540   4.276
11791W        W73102  44.351   7.694  14.784
11792W        W73103  10.198  21.579   1.355
11793W        W73104  36.983   3.327   4.128
11794W        W73105  38.014  41.369   1.288
11795W        W73106  42.362  41.801   2.263
11796W        W73107  27.092  44.414  11.468
11797W        W73108  34.083  40.799   5.746
11798W        W73109  11.272  13.739  13.336
11799W        W73110  33.032   4.926   3.367
11800W        W73111  24.591  20.670  13.985
11801W        W73112  37.087  19.612   0.762
11802W        W73113  31.464   9.745  13.422
11803W        W73114  14.671  21.023  11.969
11804W        W73115   9.303  37.840   3.382
11805W        W73116  35.102   5.793   2.877
11806W        W73117  36.097  37.031  14.769
11807W        W73118  15.616  28.671   2.388
11808W        W73119  18.251  11.354  12.579
11809W        W73120  30.520   5.217   0.879
11810W        W73121  15.262  36.478   3.806
11811W        W73122  10.287  11.143   1.351
11812W        W73123   9.203  27.571   3.299
11813W        W73124  15.128  38.534   1.307
11814W        W73125  40.833  15.088  11.552
11815W        W73126  14.718  14.764  13.416
11816W        W73127  20.172  11.809  12.908
11817W        W73128  43.794  23.499  12.832
11818W        W73129   4.386  17.702  10.922
11819W        W73130  12.720   4.864   1.694
11820W        W73131  39.964  12.158  13.049
11821W        W73132  32.429  18.091   1.894
11822W        W73133  37.010  24.665  10.434
11823W        W73134  37.575  40.837  13.351
11824W        W73135  35.378  42.778  13.396
11825W        W73136  21.185   7.910  10.892
11826W        W73137  20.594  38.496  13.980
11827W        W73138  39.511  36.934  11.530
11828W        W73139   8.272  30.537   0.770
11829W        W73140  32.052  28.587  10.434
11830W        W73141  22.520  19.057   1.804
11831W        W73142  41.323  36.358   4.606
11832W        W73143   1.427  35.475  12.420
11833W        W73144  16.679  20.043   4.277
11834W        W73145  17.124   3.734  14.427
11835W        W73146   3.753  24.583  11.976
11836W        W73147  37.480  39.404  11.022
11837W        W73148  28.646  10.150   3.161
11838W        W73149   6.405  39.844  14.382
11839W        W73150   1.415  32.087   3.305
11840W        W73151   5.751  13.335  14.854
11841W        W73152  10.838  30.008  12.918
11842W        W73153  36.386  22.705   9.977
11843W        W73154  26.604  29.976   0.967
11844W        W73155  37.887   7.822   2.754
11845W        W73156  36.071  42.519   3.687
11846W        W73157  31.964   8.387  13.812
11847W        W73158  20.593  42.488   4.237
11848W        W73159  16.802  38.385  12.870
11849W        W73160  36.523  31.961  11.910
11850W        W73161   6.696  32.119   4.806
11851W        W73162  19.751   4.897   2.733
11852W        W73163  30.558  11.686   1.863
11853W        W73164  25.970   6.842   0.254
11854W        W73165  28.671  32.936  13.870
11855W        W73166   1.364  21.245   0.432
11856W        W73167  17.253  28.058  11.935
11857W        W73168  27.162  19.198  10.490
11858W        W73169   4.381  26.133  10.607
11859W        W73170  30.920  29.470   4.683
11860W        W73171   5.266   9.376  14.856
11861W        W73172   6.734  27.599   3.314
11862W        W73173   2.386   7.385   4.732
11863W        W73174  25.213  23.039   3.253
11864W        W73175  34.543  21.560   0.728
11865W        W73176  43.429  42.342   1.261
11866W        W73177  11.148  19.641  12.095
11867W        W73178  19.564   5.873  13.800
11868W        W73179  28.964  39.049   1.258
11869W        W73180  21.680  33.938  10.597
11870W        W73181   7.391  29.031   3.794
11871W        W73182   7.773  29.096   2.670
11872W        W73183   8.176  10.194  10.506
11873W        W73184  10.307  33.400   1.786
11874W        W73185  12.713  11.231  14.837
11875W        W73186  25.088  34.028  14.871
11876W        W73187  16.072  13.782   1.405
11877W        W73188  40.382  34.418   3.318
11878W        W73189  36.476   4.210  12.039
11879W        W73190  33.068   4.850   1.795
11880W        W73191  42.368  28.670   2.841
11881W        W73192  17.767   7.379  10.483
11882W        W73193   4.338  14.270  14.342
11883W        W73194  35.376  41.937  13.944
11884W        W73195   6.310  14.670   0.899
11885W        W73196   0.344   5.714  11.875
11886W        W73197  36.894  39.953  14.941
11887W        W73198  35.588  20.058   3.326
11888W        W73199  42.970  14.635   2.709
11889W        W73200   6.857  35.004   0.882
11890W        W73201  32.505  16.643  12.992
11891W        W73202  42.434  43.790   3.331
11892W        W73203   4.904  38.051  10.529
11893W        W73204  38.988   0.932  11.993
11894W        W73205  27.446  23.534   1.817
11895W        W73206   9.744  34.463  14.792
11896W        W73207  20.136   1.745   3.649
11897W        W73208  28.943  41.436  10.914
11898W        W73209  21.572   3.215  12.343
11899W        W73210   6.824  37.833  11.108
11900W        W73211  43.484   7.268  10.057
11901W        W73212  19.566  29.125   0.961
11902W        W73213  37.431   0.861  10.431
11903W        W73214  35.975  43.963  11.923
11904W        W73215  24.579  43.511  11.054
11905W        W73216  41.854  16.091  11.989
11906W        W73217  35.090  33.473   2.198
11907W        W73218  35.025  22.558   0.261
11908W        W73219  42.408  42.351   2.390
11909W        W73220   9.281  32.508  14.304
11910W        W73221  31.437   8.656  11.006
11911W        W73222   6.366  21.059   0.927
11912W        W73223  41.473  31.921   4.788
11913W        W73224  40.840  33.024   1.778
11914W        W73225  16.647  15.709   1.404
11915W        W73226  32.124  28.005   4.161
11916W        W73227  22.667  28.544  10.634
11917W        W73228  32.502   5.794  14.369
11918W        W73229   9.348  39.961   1.256
11919W        W73230  20.752  18.662  13.792
11920W        W73231  20.569  20.070   1.871
11921W        W73232  28.548  41.481   4.352
11922W        W73233   0.382  21.663   1.836
11923W        W73234  32.500  31.040  12.389
11924W        W73235   1.308   7.908   1.736
11925W        W73236   8.718  30.157  11.459
11926W        W73237  23.544  28.538   5.653
11927W        W73238  35.454  34.450  14.760
11928W        W73239  40.823  44.434   4.775
11929W        W73240  39.999  44.864   1.236
11930W        W73241  12.117  13.833   4.613
11931W        W73242  29.496  35.548   3.684
11932W        W73243  37.553  17.240  12.849
11933W        W73244  37.412   1.765   0.357
11934W        W73245  27.534   1.851   4.235
11935W        W73246  14.142   7.230   1.395
11936W        W73247   5.905  14.632  12.927
11937W        W73248   3.759  19.687   5.205
11938W        W73249  10.779  35.551  13.362
11939W        W73250  18.272  43.309  14.884
11940W        W73251  27.572  34.378  12.021
11941W        W73252  31.507  26.690   4.250
11942W        W73253  13.685  26.611   2.756
11943W        W73254  33.992   1.826   0.736
11944W        W73255  23.581  10.319   1.741
11945W        W73256  39.332  20.654   4.663
11946W        W73257  12.189   4.723   4.259
11947W        W73258  41.802  30.980   1.409
11948W        W73259  35.580  30.640  13.461
11949W        W73260  26.622  35.046  13.822
11950W        W73261   9.685  40.836  14.286
11951W        W73262  10.838  38.493  11.909
11952W        W73263   8.716  40.934  13.961
11953W        W73264  10.814  10.200   2.369
11954W        W73265  21.723   9.806  14.984
11955W        W73266  22.552  28.164   1.267
11956W        W73267  34.583  35.526  14.303
11957W        W73268  10.741  28.120   3.808
11958W        W73269  29.503   0.926   4.202
11959W        W73270  29.981  35.471   4.733
11960W        W73271  36.422  12.683  10.425
11961W        W73272  41.935  43.324   0.266
11962W        W73273  18.204  27.516  11.071
11963W        W73274   4.789  35.959   4.720
11964W        W73275  36.567   5.804   0.450
11965W        W73276  14.651   8.393  13.365
11966W        W73277   2.310  16.806   1.905
11967W        W73278  20.644   5.760  13.925
11968W        W73279   4.812  10.379  14.782
11969W        W73280  38.007  29.643   4.313
11970W        W73281  29.566  11.296  10.946
11971W        W73282   0.456  32.529  13.436
11972W        W73283  17.111  34.514   1.358
11973W        W73284   3.338  38.966   0.799
11974W        W73285   8.382   6.330   4.708
11975W        W73286  26.488  10.770   1.359
11976W        W73287   4.431  26.527  12.413
11977W        W73288  32.992  22.610  11.070
11978W        W73289   4.421  15.697   0.393
11979W        W73290  32.919  33.965   0.934
11980W        W73291  16.639   0.763   4.824
11981W        W73292  34.382  25.569   2.739
11982W        W73293  21.124  33.084   0.281
11983W        W73294   6.736  36.050   0.740
11984W        W73295  14.654  25.592   9.488
11985W        W73296  34.532   8.180   3.707
11986W        W73297  18.760  15.761  12.070
11987W        W73298   2.944  25.219   2.361
11988W        W73299  37.852   9.172   1.853
11989W        W73300   9.160  15.763  12.429
11990W        W73301  15.295   7.384   3.268
11991W        W73302   0.792  12.664  12.551
11992W        W73303   5.396   3.944  12.927
11993W        W73304  16.212   2.899  14.314
11994W        W73305   2.769  36.098   4.198
11995W        W73306  43.971  17.556  10.600
11996W        W73307  38.401  16.660  12.367
11997W        W73308  30.084  17.567  14.288
11998W        W73309  30.970  34.066  13.411
11999W        W73310  43.800  34.503  14.797
12000W        W73311  13.262  20.209  12.057
12001W        W73312  35.374  28.157  12.543
12002W        W73313  26.022  35.528   0.744
12003W        W73314  39.961   1.780  11.099
12004W        W73315  28.535   5.308   3.196
12005W        W73316   4.805  41.924   0.335
12006W        W73317  39.395   1.312   4.828
12007W        W73318  10.647  29.033   1.814
12008W        W73319   8.822  35.412   4.711
12009W        W73320  31.044  40.964   0.961
12010W        W73321   8.211  32.921   2.216
12011W        W73322   0.783  38.390  12.995
12012W        W73323  18.148   0.281   3.692
12013W        W73324   7.781  20.539   0.268
12014W        W73325  12.287  40.384   4.204
12015W        W73326  16.802  23.239   2.811
12016W        W73327  34.036  34.421   4.640
12017W        W73328  23.148   0.276   0.379
12018W        W73329  11.219  37.515  12.017
12019W        W73330   0.759  19.190   2.778
12020W        W73331  33.876   9.208  13.888
12021W        W73332  31.533  28.152  11.587
12022W        W73333  12.656  28.614   1.369
12023W        W73334  17.688  14.715   3.387
12024W        W73335   7.865   0.367  10.473
12025W        W73336  39.880  25.499   0.325
12026W        W73337  21.521  15.207  11.543
12027W        W73338  20.542  21.045  11.101
12028W        W73339  16.672  24.986   4.282
12029W        W73340   9.758   3.307   2.324
12030W        W73341  20.638  41.893   4.273
12031W        W73342  44.801  26.610   4.602
12032W        W73343   9.792  44.797   4.191
12033W        W73344  26.975   3.412  13.518
12034W        W73345  11.807  39.010   0.767
12035W        W73346   6.796  36.014   2.808
12036W        W73347  30.453   4.906  12.485
12037W        W73348  22.034  23.224   2.201
12038W        W73349   3.408  35.389  11.037
12039W        W73350  17.773  37.570  11.501
12040W        W73351  13.155  26.109  12.897
12041W        W73352  13.630  12.644   1.424
12042W        W73353   0.267   0.482  11.390
12043W        W73354   8.717  13.107  12.424
12044W        W73355  31.940  20.600  12.515
12045W        W73356  38.960   7.371  14.336
12046W        W73357  27.578   4.327   1.910
12047W        W73358  27.483  37.063   1.840
12048W        W73359   6.376  44.262  13.809
12049W        W73360   9.272  32.593  11.422
12050W        W73361  37.900  30.077   3.321
12051W        W73362   9.188  25.480   4.179
12052W        W73363  16.288  16.670  13.016
12053W        W73364  38.039  43.809  13.906
12054W        W73365  25.028  31.934  14.999
12055W        W73366  19.773  23.224  11.577
12056W        W73367  33.619   5.853   1.762
12057W        W73368  15.686  22.677   4.127
12058W        W73369  25.524  34.445   2.846
12059W        W73370  29.952   6.269   3.630
12060W        W73371  25.966   4.322   5.242
12061W        W73372  35.978  22.685  14.781
12062W        W73373   1.767  38.330   2.851
12063W        W73374  17.072  36.468  11.470
12064W        W73375  39.858  37.363   3.169
12065W        W73376   6.331  39.423  13.329
12066W        W73377  27.005   0.393  14.782
12067W        W73378  32.634  34.933   4.334
12068W        W73379  22.702  41.426   5.306
12069W        W73380  26.129  19.145   0.870
12070W        W73381   9.383  16.105   1.860
12071W        W73382   7.763  10.332   0.734
12072W        W73383   8.813   6.360  13.879
12073W        W73384  31.523  42.873   4.165
12074W        W73385  18.068   3.225   2.282
12075W        W73386  34.504  43.378   2.858
12076W        W73387   4.215  24.163  13.984
12077W        W73388  44.410  28.078   0.883
12078W        W73389  30.014  24.157   3.291
12079W        W73390  13.722  30.583  13.899
12080W        W73391  37.348  23.725  11.022
12081W        W73392  34.017  14.830  12.465
12082W        W73393  21.107  17.795   2.378
12083W        W73394  28.650   4.353  14.925
12084W        W73395   0.372  26.621   1.255
12085W        W73396  10.644  21.522   2.286
12086W        W73397  38.441  25.049   1.816
12087W        W73398  42.017  18.214  11.016
12088W        W73399   7.696  37.931   1.734
12089W        W73400  28.537  35.052   3.254
12090W        W73401  41.893  36.538   3.638
12091W        W73402   5.824  34.896  14.936
12092W        W73403  32.114  38.950   0.835
12093W        W73404  20.726  36.865   1.695
12094W        W73405  39.375  40.932  12.494
12095W        W73406  25.553  20.728  13.862
12096W        W73407  42.326  19.050   4.190
12097W        W73408  23.045   8.750  13.009
12098W        W73409   1.877  13.145  12.997
12099W        W73410  19.271   8.831   3.829
12100W        W73411   7.755   5.387   2.827
12101W        W73412  30.908   4.755   0.279
12102W        W73413  22.599  43.399   3.806
12103W        W73414  37.929  29.050  11.557
12104W        W73415  21.743   8.392   4.609
12105W        W73416   7.195  34.560   2.815
12106W        W73417  21.637   4.285   4.640
12107W        W73418   4.245  38.327   0.927
12108W        W73419  23.736  15.286  10.428
12109W        W73420  38.896  20.652   3.302
12110W        W73421   9.707   4.713  14.276
12111W        W73422  32.506   7.261  12.537
12112W        W73423  42.518   8.704   2.699
12113W        W73424  13.110   2.364  12.926
12114W        W73425  18.107  38.035   3.646
12115W        W73426  12.795  33.925   4.598
12116W        W73427  30.931  39.448   3.267
12117W        W73428  43.899   3.812  11.033
12118W        W73429  41.459   6.698   1.819
12119W        W73430  25.025  27.983   2.903
12120W        W73431   4.822  39.877  12.491
12121W        W73432  22.603  41.841   5.109
12122W        W73433   2.285  25.015   0.806
12123W        W73434  21.072   3.377  13.896
12124W        W73435   7.685  22.208   2.177
12125W        W73436   3.304  25.575  12.455
12126W        W73437  29.142  42.984   4.597
12127W        W73438   6.280  26.622  11.957
12128W        W73439  11.332  18.557  10.592
12129W        W73440  18.705  43.514   4.638
12130W        W73441  43.769   7.200   2.786
12131W        W73442  11.193  42.784  11.523
12132W        W73443   6.222  30.130   4.626
12133W        W73444  26.095  12.325  14.431
12134W        W73445  31.018  22.127  11.868
12135W        W73446  11.268   8.847  11.384
12136W        W73447  18.700   7.902   1.250
12137W        W73448   1.308  19.569   0.943
12138W        W73449  26.598  18.225   4.672
12139W        W73450  35.086  42.374   3.843
12140W        W73451  20.760   2.410  13.804
12141W        W73452   4.723   4.436   2.203
12142W        W73453   3.301  23.691   0.324
12143W        W73454  28.946  11.645   1.712
12144W        W73455  28.012  43.511   4.601
12145W        W73456  19.270  30.441  12.387
12146W        W73457  42.336  20.654  11.913
12147W        W73458   9.870  28.067   1.909
12148W        W73459  35.361  32.537   4.703
12149W        W73460  12.831  21.260  10.911
12150W        W73461  30.923  29.160   0.750
12151W        W73462   2.879   4.777   3.288
12152W        W73463  29.526  24.091  13.528
12153W        W73464  32.025  14.104  14.009
12154W        W73465   7.703  31.143  12.491
12155W        W73466  23.650  12.814  13.427
12156W        W73467  29.948  31.071   1.903
12157W        W73468   8.372  10.282  14.992
12158W        W73469   7.180  15.228  11.862
12159W        W73470  14.227   9.854   0.336
12160W        W73471  32.562  40.839   3.260
12161W        W73472  39.005  18.215  11.581
12162W        W73473   5.374  36.920  11.388
12163W        W73474   7.359  27.665  11.064
12164W        W73475  31.121   0.384   0.820
12165W        W73476  23.124  37.989   3.728
12166W        W73477  32.920  13.298  10.550
12167W        W73478  24.180  17.146  11.095
12168W        W73479  36.465  14.752   3.295
12169W        W73480  37.984  12.646   5.307
12170W        W73481   0.357   0.909  12.843
12171W        W73482  41.793   6.783   0.297
12172W        W73483  41.967   2.806  13.390
12173W        W73484   5.311   2.242   4.779
12174W        W73485  27.155  21.113   2.762
12175W        W73486  19.739  10.868   3.152
12176W        W73487  32.964  15.182   0.415
12177W        W73488  14.612  42.961   0.964
12178W        W73489  38.532  39.035  14.380
12179W        W73490  24.189  16.807  13.413
12180W        W73491  43.928   4.386   4.230
12181W        W73492  37.076   6.197  10.465
12182W        W73493  35.867   3.262  13.804
12183W        W73494  12.124  19.640   0.476
12184W        W73495  25.990   9.241  13.328
12185W        W73496  14.256  16.623   4.764
12186W        W73497  23.031   7.181   0.756
12187W        W73498  23.581  21.693  10.082
12188W        W73499  31.080  32.923  13.539
12189W        W73500  31.951   4.872   2.898
12190W        W73501  33.559   9.832   0.839
12191W        W73502  37.493  17.150  10.927
12192W        W73503  32.417  40.361  13.437
12193W        W73504  43.479  16.664   3.230
12194W        W73505  36.541  18.195   2.212
12195W        W73506  32.513   7.378   2.279
12196W        W73507   7.813   7.802   1.900
12197W        W73508  33.493  31.052   1.221
12198W        W73509  23.710  14.638   2.214
12199W        W73510  21.640   4.844   4.635
12200W        W73511  20.150  33.482  12.095
12201W        W73512  43.773  16.651  13.819
12202W        W73513   1.919  23.499   4.642
12203W        W73514   1.934  37.055  11.000
12204W        W73515  26.078  34.409   0.422
12205W        W73516  42.366   2.458   2.899
12206W        W73517   5.436  19.776   1.713
12207W        W73518  28.003  25.971  14.482
12208W        W73519  40.916  43.435   1.829
12209W        W73520  13.132  12.757   1.863
12210W        W73521  39.422  14.169   2.206
12211W        W73522   4.780  41.870   4.244
12212W        W73523  29.512  34.881   2.868
12213W        W73524   5.378  14.819   4.693
12214W        W73525  39.509  17.257  13.529
12215W        W73526  14.656  32.559  12.525
12216W        W73527  28.070  40.040  11.592
12217W        W73528  23.069  22.625   4.304
12218W        W73529  27.685  19.776  10.494
12219W        W73530  25.176  44.961  14.826
12220W        W73531   0.363  11.642   1.722
12221W        W73532  39.957  20.755  11.924
12222W        W73533  14.151   1.765  14.494
12223W        W73534   4.379   5.399  14.877
12224W        W73535  42.402  35.360   1.761
12225W        W73536  11.257  36.050   3.752
12226W        W73537  17.276  23.705  11.063
12227W        W73538  18.161  27.183  11.392
12228W        W73539  23.197  36.477  13.811
12229W        W73540   9.855  38.500  13.037
12230W        W73541  10.218  43.773   1.431
12231W        W73542   7.665  33.435  13.877
12232W        W73543  24.585  37.566  12.984
12233W        W73544  20.099  21.189   0.433
12234W        W73545  32.566  14.336   3.354
12235W        W73546  43.877   6.733   1.917
12236W        W73547  22.129  24.543   2.214
12237W        W73548  34.562  27.683  14.816
12238W        W73549  40.952  42.313   4.686
12239W        W73550  12.821  19.234   0.853
12240W        W73551  42.287  24.092   1.404
12241W        W73552   4.417  35.087  13.343
12242W        W73553   0.885  29.531  11.389
12243W        W73554  11.136  36.046  12.348
12244W        W73555  18.769   9.267   3.188
12245W        W73556  43.787  40.993   0.864
12246W        W73557  23.537  12.660   0.250
12247W        W73558  11.271  38.406   0.462
12248W        W73559  38.932  26.047   4.202
12249W        W73560   1.309  13.179   0.762
12250W        W73561  28.027  18.107  13.340
12251W        W73562  40.932  39.984   5.693
12252W        W73563   5.794  23.695  10.982
12253W        W73564  21.251  14.825   0.749
12254W        W73565  16.598  34.486   0.926
12255W        W73566  29.941  32.066  14.019
12256W        W73567  41.348  38.539   0.383
12257W        W73568  15.312  15.148  11.606
12258W        W73569  13.783   0.376   2.860
12259W        W73570  27.146   0.961  11.930
12260W        W73571  14.753  14.730   2.330
12261W        W73572  42.474  36.567  11.591
12262W        W73573   6.214  22.697   0.837
12263W        W73574   3.251   9.337  13.956
12264W        W73575  20.547  18.075   5.192
12265W        W73576   2.867  19.646   0.373
12266W        W73577  36.422  25.615   0.284
12267W        W73578  18.155  24.509   3.789
12268W        W73579  34.532  34.032  14.861
12269W        W73580   7.775  31.896  11.963
12270W        W73581  23.707  24.103  14.935
12271W        W73582  29.028  39.504   4.168
12272W        W73583   7.256  26.043  12.976
12273W        W73584  40.856  31.594   0.321
12274W        W73585  26.460  33.604   1.800
12275W        W73586  22.176  20.184   9.982
12276W        W73587  28.046  25.696   0.377
12277W        W73588  21.140  33.391  14.903
12278W        W73589  33.413   4.425  11.941
12279W        W73590  28.543  23.099  13.373
12280W        W73591  16.159   8.177   2.835
12281W        W73592  33.973  25.165  14.761
12282W        W73593  21.573   3.398  14.958
12283W        W73594  41.859  27.048   2.185
12284W        W73595  13.647   7.792  11.918
12285W        W73596  12.143  20.652  14.975
12286W        W73597  22.127  34.456  13.543
12287W        W73598  29.111  28.018  12.517
12288W        W73599   4.778  21.041  13.830
12289W        W73600  22.221   9.706   2.719
12290W        W73601  10.229  37.506  13.514
12291W        W73602  12.316  12.360   1.329
12292W        W73603  22.999   9.829   1.755
12293W        W73604  30.522  34.568   4.154
12294W        W73605  14.689  27.452  14.431
12295W        W73606   3.246   3.320   1.889
12296W        W73607  15.711  10.207   2.201
12297W        W73608  34.471  26.475   3.367
12298W        W73609  30.613  30.047   3.365
12299W        W73610   6.302  13.218   1.324
12300W        W73611  27.586  35.495  12.997
12301W        W73612   9.151  24.498  13.029
12302W        W73613   8.853  27.020  13.538
12303W        W73614  34.569  17.185   4.792
12304W        W73615   6.777   1.871   4.636
12305W        W73616  17.752   7.261  12.501
12306W        W73617   0.434  15.142   0.269
12307W        W73618  36.910  35.003  10.990
12308W        W73619  35.898   7.355   0.412
12309W        W73620  32.394  38.926  11.907
12310W        W73621  39.417  44.298   3.659
12311W        W73622  43.008   7.184   0.798
12312W        W73623  41.537  18.269  10.521
12313W        W73624  31.118  30.969   2.310
12314W        W73625  13.243   3.248  12.895
12315W        W73626  14.616  33.993   1.930
12316W        W73627  44.970  28.146   0.320
12317W        W73628  32.011  22.183  12.943
12318W        W73629  41.827  28.646   3.171
12319W        W73630   4.720  44.806  12.519
12320W        W73631   4.315  13.799   1.446
12321W        W73632  32.617   8.661  10.576
12322W        W73633  11.255  33.605  10.918
12323W        W73634  34.498   9.797  14.925
12324W        W73635  20.681  44.465  12.072
12325W        W73636  21.607  41.312  11.456
12326W        W73637   3.416  17.175   3.696
12327W        W73638   2.237  37.343  14.327
12328W        W73639  32.075  36.414   1.342
12329W        W73640   7.288   1.462   0.254
12330W        W73641  22.131  35.474   4.174
12331W        W73642  15.328   5.803   1.889
12332W        W73643  40.482  18.576   0.311
12333W        W73644  33.604   8.813   1.741
12334W        W73645   9.197   8.246  14.356
12335W        W73646  17.763  44.816   0.460
12336W        W73647   0.912  19.651  14.965
12337W        W73648  34.565   7.731   1.303
12338W        W73649   4.876  19.711  10.618
12339W        W73650  26.498  19.243   4.172
12340W        W73651   5.785   3.715  12.832
12341W        W73652  21.658  34.592  14.771
12342W        W73653  34.943  13.788   0.781
12343W        W73654  39.465  39.902   5.090
12344W        W73655  41.807  22.248   0.324
12345W        W73656  40.893  39.849  12.378
12346W        W73657  15.208   5.303   2.321
12347W        W73658  12.278  34.980   2.401
12348W        W73659  39.444  44.338  13.391
12349W        W73660  16.699  36.531   0.313
12350W        W73661   6.353  30.909   2.840
12351W        W73662  12.328  19.585   3.840
12352W        W73663  41.425  32.135  14.386
12353W        W73664  37.353  19.051   2.288
12354W        W73665  13.773  39.480  11.871
12355W        W73666  26.968  36.394  13.450
12356W        W73667  33.968  25.576   3.637
12357W        W73668  41.325  31.472   0.321
12358W        W73669   9.779   0.898  13.427
12359W        W73670   6.818  39.030  12.010
12360W        W73671  37.881  30.056   1.231
12361W        W73672  20.034  39.940  12.401
12362W        W73673   1.955  36.500  13.425
12363W        W73674  36.466  17.130  10.624
12364W        W73675  34.883  26.530   0.814
12365W        W73676  24.085  14.666  13.502
12366W        W73677   3.758  24.695   2.753
12367W        W73678   0.868  33.050  13.505
12368W        W73679  18.280   1.434  11.896
12369W        W73680  44.418  38.825  12.491
12370W        W73681  15.750  27.130   4.199
12371W        W73682   3.296  39.407   3.289
12372W        W73683   7.388  41.978  12.579
12373W        W73684  37.346  12.300   0.476
12374W        W73685  18.652  29.562  14.383
12375W        W73686   8.318  40.375  11.882
12376W        W73687  34.985   4.424   3.162
12377W        W73688  18.119   1.770   2.770
12378W        W73689  34.597  19.095   0.787
12379W        W73690   8.309  27.138   2.840
12380W        W73691  30.514  32.096   0.361
12381W        W73692  28.558   7.901   3.369
12382W        W73693  39.366  23.687  13.824
12383W        W73694  33.967  15.122   2.405
12384W        W73695   8.243  32.926  13.899
12385W        W73696   6.692  32.448  12.033
12386W        W73697  44.972  43.772  11.072
12387W        W73698  35.416  40.527  10.898
12388W        W73699  30.566  12.273  10.977
12389W        W73700  30.972  23.507   1.347
12390W        W73701  23.603  24.629   1.833
12391W        W73702  32.904   6.414   1.844
12392W        W73703  28.087  12.670   2.779
12393W        W73704   4.261  26.551   0.269
12394W        W73705  10.636  21.628  13.410
12395W        W73706  38.334  16.086  10.981
12396W        W73707  37.862  17.671  13.955
12397W        W73708  33.982  24.570   4.658
12398W        W73709  15.586  19.760  12.485
12399W        W73710  18.597  34.500   1.331
12400W        W73711   8.355  38.514   1.705
12401W        W73712  25.150  39.989   1.270
12402W        W73713   2.408  18.644   3.731
12403W        W73714   0.431   1.746  12.548
12404W        W73715  24.219   2.842  13.425
12405W        W73716  41.026  15.676  14.914
12406W        W73717  42.416  31.054   2.224
12407W        W73718  31.424  24.147   2.413
12408W        W73719  39.881  44.967  14.300
12409W        W73720   0.481  43.462  14.786
12410W        W73721   8.266   1.975  13.030
12411W        W73722   3.939  26.623  14.914
12412W        W73723  39.891   9.274   4.218
12413W        W73724  17.612  14.318   4.700
12414W        W73725  29.021  40.005   2.870
12415W        W73726   7.677   8.211  12.894
12416W        W73727  14.302  11.766   0.801
12417W        W73728  26.063  28.027   3.803
12418W        W73729  32.121   0.386   4.728
12419W        W73730   1.405  38.824   1.365
12420W        W73731  33.982   1.788   3.364
12421W        W73732  25.530  33.547   0.263
12422W        W73733  38.824  31.562   3.337
12423W        W73734  41.375  36.359   0.387
12424W        W73735  13.671  39.359  11.052
12425W        W73736   0.889  39.018  10.060
12426W        W73737  41.291  29.579   2.232
12427W        W73738  39.003  43.431  10.085
12428W        W73739  33.918   6.372   0.937
12429W        W73740  34.008  11.232   4.331
12430W        W73741  13.835  13.264  10.928
12431W        W73742  37.891   3.950  11.860
12432W        W73743  15.634  16.218  11.058
12433W        W73744  21.683  38.030   5.270
12434W        W73745  22.092  18.243   2.764
12435W        W73746  24.615  19.547   9.933
12436W        W73747   3.941  35.984  12.568
12437W        W73748  16.791  25.629  12.549
12438W        W73749  24.210  24.659  13.956
12439W        W73750  30.657  40.494  13.039
12440W        W73751  19.584  27.098  14.281
12441W        W73752  36.979  32.987   3.279
12442W        W73753  40.944   0.962  11.021
12443W        W73754  33.563  21.053   3.312
12444W        W73755  29.549  17.660   4.227
12445W        W73756   8.359   5.195  10.933
12446W        W73757  28.104  14.106   2.340
12447W        W73758  28.620  13.808   2.852
12448W        W73759  28.681  28.010   1.857
12449W        W73760  23.601  28.551   3.377
12450W        W73761  11.308  41.864  12.051
12451W        W73762  41.399  18.639   3.224
12452W        W73763  24.147   6.218   3.769
12453W        W73764  19.285  37.537   3.209
12454W        W73765  41.988   3.793  13.874
12455W        W73766  41.965   3.714  14.958
12456W        W73767  14.334  30.645  11.419
12457W        W73768  38.909  27.468  11.388
12458W        W73769  13.739  31.539  11.392
12459W        W73770  25.975   9.673  11.917
12460W        W73771   7.698  23.210  10.477
12461W        W73772  22.710  17.690   0.886
12462W        W73773  14.286  23.240   5.112
12463W        W73774   1.368  12.244   3.768
12464W        W73775  44.489  17.609   3.306
12465W        W73776  42.799   8.770   2.329
12466W        W73777   0.899  34.418   0.886
12467W        W73778  28.435  21.527   3.255
12468W        W73779  11.322  29.625  11.928
12469W        W73780   5.710   5.407   1.348
12470W        W73781  31.424   0.937   2.352
12471W        W73782  21.635   0.265   2.417
12472W        W73783  34.462  27.663  12.957
12473W        W73784  40.491  24.643  14.009
12474W        W73785   2.891  19.675   1.701
12475W        W73786  38.850  35.099   4.293
12476W        W73787  36.099   4.875  12.347
12477W        W73788  27.672  10.736   4.707
12478W        W73789  26.619  27.965  13.021
12479W        W73790  38.562  25.027  11.909
12480W        W73791  28.961  33.563   2.677
12481W        W73792  21.698   3.795  13.528
12482W        W73793  21.188  29.011  10.575
12483W        W73794  23.226  17.153  13.376
12484W        W73795  27.024  43.452   2.748
12485W        W73796  43.996  18.113   4.759
12486W        W73797  14.236   3.812  14.283
12487W        W73798  32.500   5.903   5.296
12488W        W73799  24.145  28.506   2.712
12489W        W73800   9.888  36.396   1.774
12490W        W73801   3.262  20.611  10.448
12491W        W73802   9.761  10.168  12.027
12492W        W73803  21.580   3.304   3.322
12493W        W73804  18.054  33.498  13.515
12494W        W73805   1.732  44.814   3.279
12495W        W73806  18.236   7.902   2.860
12496W        W73807  33.055  20.582  14.777
12497W        W73808   0.307  12.671  11.374
12498W        W73809   4.722  14.231   3.356
12499W        W73810   5.803  26.127   3.736
12500W        W73811  26.681  29.620   0.863
12501W        W73812  23.180  43.880   0.856
12502W        W73813  15.631   0.387   2.264
12503W        W73814   4.377  17.687   4.288
12504W        W73815  10.740  42.835  14.851
12505W        W73816  35.906  29.018   2.245
12506W        W73817  32.038  42.329  10.423
12507W        W73818  15.156  16.210  12.487
12508W        W73819  16.765  20.557   4.294
12509W        W73820  10.302   8.676  10.455
12510W        W73821  44.367  23.155  13.358
12511W        W73822  27.986  21.225  14.323
12512W        W73823  27.130  44.874   2.754
12513W        W73824  13.692   7.295   0.777
12514W        W73825  18.129   1.892  10.958
12515W        W73826  36.431  26.972   3.207
12516W        W73827   8.835   7.698   1.276
12517W        W73828  24.577  13.236  10.524
12518W        W73829  10.224   4.739  14.438
12519W        W73830   1.312   9.176   4.780
12520W        W73831   0.420   2.793  12.380
12521W        W73832  31.078  37.886   2.331
12522W        W73833  42.968  28.072   5.091
12523W        W73834   2.230  39.824  11.950
12524W        W73835   7.174   3.800   0.243
12525W        W73836  31.987  13.747   0.745
12526W        W73837  21.602  11.743   3.835
12527W        W73838  43.849  36.545  10.960
12528W        W73839  28.109  24.032  14.370
12529W        W73840   2.302   8.706   0.421
12530W        W73841   9.713  15.251   9.962
12531W        W73842  24.497  30.075  12.343
12532W        W73843  10.669  17.092  12.379
12533W        W73844  27.045  33.014   3.361
12534W        W73845  20.579  31.565   1.389
12535W        W73846  16.716   5.894   0.410
12536W        W73847  12.231  41.436  10.984
12537W        W73848   2.343  43.468   1.278
12538W        W73849  30.478  21.209  12.008
12539W        W73850  20.534  13.133  10.601
12540W        W73851  43.831  37.053  10.904
12541W        W73852  28.112  24.220  13.536
12542W        W73853  29.658  14.622   2.867
12543W        W73854   5.785   8.302  12.429
12544W        W73855  20.564   9.809   2.792
12545W        W73856  22.211  17.768  11.096
12546W        W73857  26.657  29.448   5.733
12547W        W73858  24.135   5.795   2.720
12548W        W73859  12.699  37.458   2.801
12549W        W73860   2.434  29.502   1.813
12550W        W73861   8.169  38.556   4.631
12551W        W73862  10.783  38.952   3.808
12552W        W73863   4.865  37.069  12.904
12553W        W73864  11.313  10.179  12.838
12554W        W73865  15.589  17.071   0.920
12555W        W73866  10.341   4.828  11.438
12556W        W73867   6.254  30.653   4.673
12557W        W73868  11.844  23.196   3.670
12558W        W73869  29.924  15.287   1.751
12559W        W73870   1.333  17.715   3.382
12560W        W73871  39.433  38.032  13.534
12561W        W73872  22.606  21.656  13.914
12562W        W73873   9.880  30.488   4.821
12563W        W73874  18.765  18.152   3.277
12564W        W73875  30.645  13.135  10.609
12565W        W73876  22.174   9.793  12.409
12566W        W73877   3.436  21.704  13.948
12567W        W73878  34.516   7.270   0.403
12568W        W73879  42.929  34.999   5.257
12569W        W73880  26.029  19.151   4.191
12570W        W73881  20.164  12.211   0.939
12571W        W73882  21.639  32.020   4.732
12572W        W73883  31.006  20.272  14.785
12573W        W73884  17.110  20.634   4.775
12574W        W73885  11.848  41.944   3.307
12575W        W73886   8.798   9.217   2.316
12576W        W73887  44.504  29.513   3.198
12577W        W73888  32.116  30.500   3.725
12578W        W73889   8.166   7.718  10.447
12579W        W73890  21.026  32.013   1.747
12580W        W73891  20.558  19.059  10.993
12581W        W73892  17.298  16.579   9.515
12582W        W73893   7.795  15.793   3.869
12583W        W73894  41.856  18.096   1.421
12584W        W73895   8.665  15.206  14.769
12585W        W73896  16.769  11.629  11.550
12586W        W73897  14.239  36.985  10.631
12587W        W73898   2.720   4.820  10.621
12588W        W73899   0.840  42.019  12.376
12589W        W73900  15.760  34.539   4.757
12590W        W73901   6.888  21.104  10.469
12591W        W73902  39.957  20.706  10.532
12592W        W73903  39.910  41.424   1.872
12593W        W73904  11.154  41.480   4.286
12594W        W73905   8.805  12.237  14.332
12595W        W73906  19.268  18.270  13.416
12596W        W73907  40.983  32.905  11.495
12597W        W73908  18.586   2.436   0.759
12598W        W73909  32.042  24.225  11.559
12599W        W73910  35.457  24.041  13.483
12600W        W73911  41.947  16.172  14.944
12601W        W73912   8.773  40.315  11.895
12602W        W73913  38.905  25.614  14.921
12603W        W73914  15.808  29.628  12.451
12604W        W73915  32.089  39.974   0.364
12605W        W73916  39.047  32.425   2.832
12606W        W73917  36.397  11.288   1.897
12607W        W73918   1.859   9.772  11.912
12608W        W73919   7.339   3.226  13.933
12609W        W73920  38.892   6.230   4.679
12610W        W73921  14.229  21.188  14.797
12611W        W73922  42.449  36.373   4.719
12612W        W73923  31.999  19.681   0.953
12613W        W73924  30.528   2.242   4.829
12614W        W73925  12.826  22.010   1.399
12615W        W73926  28.043  34.105   4.232
12616W        W73927   9.283   9.757   2.695
12617W        W73928  33.597  34.100  11.608
12618W        W73929   0.773  43.293   2.244
12619W        W73930  11.155  23.571   4.757
12620W        W73931  32.415  34.934   4.713
12621W        W73932  36.527  32.599  10.088
12622W        W73933   6.236   5.416   2.230
12623W        W73934  25.145  27.519  14.827
12624W        W73935   0.807  10.166  10.610
12625W        W73936  21.245   9.240   4.757
12626W        W73937   3.389  24.661  14.021
12627W        W73938   3.771  36.959  12.570
12628W        W73939  18.612   8.210   2.849
12629W        W73940   4.345  20.179  11.041
12630W        W73941   1.880  15.211  14.500
12631W        W73942  35.453  17.612  13.390
12632W        W73943  18.104  27.143   1.849
12633W        W73944  34.010   6.187  14.334
12634W        W73945  13.146  18.242  11.564
12635W        W73946  12.329   2.883   3.150
12636W        W73947  30.655  22.035   2.336
12637W        W73948  22.673   6.195   5.242
12638W        W73949  37.479  32.435   5.160
12639W        W73950   4.726  12.760   0.433
12640W        W73951  42.302   1.836   2.242
12641W        W73952   5.212  15.788   5.215
12642W        W73953   3.745  28.105   0.436
12643W        W73954  40.502  14.123  10.961
12644W        W73955   1.854  19.599  12.427
12645W        W73956  43.494  26.044  14.328
12646W        W73957   4.699  12.818   2.903
12647W        W73958   1.419  29.936  11.484
12648W        W73959  12.728  28.442  13.904
12649W        W73960  36.912   2.333   2.366
12650W        W73961  19.690  15.083  12.088
12651W        W73962  23.198  32.514  12.471
12652W        W73963   3.948  42.380  10.405
12653W        W73964  32.943  34.119  13.028
12654W        W73965  44.476   0.319   4.299
12655W        W73966  22.089  15.590  12.010
12656W        W73967  16.589  34.455  14.966
12657W        W73968  38.050  33.940  10.514
12658W        W73969  27.023  34.420  13.548
12659W        W73970  43.971  13.209   1.348
12660W        W73971  31.975  39.551  11.898
12661W        W73972  36.842  40.474   2.857
12662W        W73973  36.016  30.074   3.770
12663W        W73974  33.555   7.396  10.446
12664W        W73975  41.349   2.836   3.849
12665W        W73976  18.739  15.224  13.818
12666W        W73977  42.330  18.291   3.763
12667W        W73978  21.549   3.376   0.926
12668W        W73979  36.066  25.152   0.755
12669W        W73980  39.314  39.524   1.295
12670W        W73981  32.547   7.844  11.050
12671W        W73982  23.004  31.599  11.535
12672W        W73983  38.002  39.378   3.235
12673W        W73984  19.599  40.847  14.995
12674W        W73985   3.949   4.323  13.501
12675W        W73986  27.563  10.344  10.947
12676W        W73987  35.528   8.841   3.299
12677W        W73988  20.092  37.956  10.966
12678W        W73989  35.084   4.325   4.143
12679W        W73990  40.936  44.821   1.411
12680W        W73991  37.390  24.537   0.386
12681W        W73992  25.159  16.678  11.571
12682W        W73993  10.758  14.728   3.330
12683W        W73994  42.492   3.811  13.887
12684W        W73995  36.061   2.762  11.418
12685W        W73996  25.642  41.435   3.366
12686W        W73997   1.399  28.004   1.355
12687W        W73998  21.624  34.039  12.502
12688W        W73999   2.912  32.606   1.301
12689W        W74000  16.773  33.057  10.485
12690W        W74001  31.961  44.780   0.293
12691W        W74002   3.407  11.681  14.949
12692W        W74003  14.665  33.534   0.809
12693W        W74004  10.800  14.664  13.315
12694W        W74005  40.377  34.908  14.905
12695W        W74006  13.193  35.081  11.559
12696W        W74007  14.327   2.901  12.465
12697W        W74008   7.779  16.191   3.769
12698W        W74009  24.040  43.836   1.447
12699W        W74010  14.657  20.096  14.770
12700W        W74011  39.869  18.686  12.958
12701W        W74012  24.201   1.893   0.741
12702W        W74013   9.739  15.632  13.417
12703W        W74014  14.285  44.875   1.447
12704W        W74015  28.510  35.544   2.200
12705W        W74016  15.257  13.659   4.826
12706W        W74017  37.457  35.601  10.546
12707W        W74018  11.256   9.380   4.634
12708W        W74019  39.916  43.822  13.812
12709W        W74020  32.470  25.539   1.218
12710W        W74021  26.048   9.871  14.800
12711W        W74022   6.701  33.463   1.336
12712W        W74023  39.466  38.051   0.251
12713W        W74024  27.674  31.535  14.917
12714W        W74025  22.524  28.492   3.383
12715W        W74026  34.490  13.334  11.069
12716W        W74027  28.158  12.242   0.861
12717W        W74028  14.778  23.121  11.119
12718W        W74029  19.716  33.433  11.409
12719W        W74030   5.281  18.648   2.895
12720W        W74031   6.807  29.431  11.552
12721W        W74032  39.550  17.218  12.548
12722W        W74033  11.150  24.028  10.548
12723W        W74034  24.112   8.730  13.887
12724W        W74035  34.075  17.293  10.417
12725W        W74036   1.465  43.338   0.423
12726W        W74037  18.758  41.994  13.795
12727W        W74038  32.003  26.545   3.700
12728W        W74039  37.856  40.453  11.941
12729W        W74040  43.472  29.175  10.486
12730W        W74041  44.323  15.617  14.850
12731W        W74042  36.408   6.342  10.530
12732W        W74043  28.658  35.983   2.193
12733W        W74044  24.043  24.704  12.484
12734W        W74045  44.270  22.523   0.734
12735W        W74046  29.653   7.734  14.007
12736W        W74047   6.819  39.951  14.382
12737W        W74048   9.697  15.298  13.476
12738W        W74049  13.709  14.649  11.469
12739W        W74050  27.539  18.200  10.422
12740W        W74051  16.150  11.332   4.703
12741W        W74052  18.107  36.040   4.634
12742W        W74053  18.544   0.747   0.255
12743W        W74054   9.644   8.830  14.837
12744W        W74055   9.831  26.637  14.862
12745W        W74056   2.314  38.569   4.207
12746W        W74057  25.145   2.258  13.421
12747W        W74058  26.480  16.762  13.821
12748W        W74059  19.646  31.529  13.934
12749W        W74060  13.628  41.787   1.380
12750W        W74061  13.831  11.655   2.325
12751W        W74062  37.364   3.216   1.320
12752W        W74063  13.153  20.692   2.802
12753W        W74064  10.185  33.554   5.227
12754W        W74065  25.679  40.960   4.169
12755W        W74066  21.069  25.509  13.464
12756W        W74067  12.729  36.012   1.307
12757W        W74068  35.377  37.877   3.229
12758W        W74069  23.015  16.657  10.553
12759W        W74070  29.169  32.018  12.382
12760W        W74071  31.986  43.499   4.261
12761W        W74072  13.672  26.035  10.588
12762W        W74073  44.391  30.950  14.371
12763W        W74074  41.914  39.885   4.836
12764W        W74075   6.791  34.031   2.225
12765W        W74076  19.040   1.800  11.926
12766W        W74077  28.100  35.479  13.366
12767W        W74078  13.673  16.140  13.973
12768W        W74079  44.957  27.011   0.281
12769W        W74080  31.451  38.040   1.824
12770W        W74081   1.802   6.376  13.020
12771W        W74082  40.988  18.161   4.180
12772W        W74083   7.224  40.526  10.576
12773W        W74084  37.862  18.256   0.826
12774W        W74085  12.205   6.267  11.110
12775W        W74086  26.476   6.218   3.725
12776W        W74087   9.161  12.832  14.784
12777W        W74088  22.150  12.208   4.176
12778W        W74089  33.612  38.916   4.281
12779W        W74090  26.556   2.390   3.649
12780W        W74091  41.854   1.293  11.906
12781W        W74092  22.044  21.752  13.486
12782W        W74093  21.018  22.160  14.340
12783W        W74094  40.799  33.892   4.255
12784W        W74095  40.798  35.471   0.746
12785W        W74096  43.500   0.773  10.964
12786W        W74097  43.918  44.386   2.400
12787W        W74098  39.347  37.465  10.047
12788W        W74099   7.249  11.859  10.482
12789W        W74100  12.130  10.841   4.604
12790W        W74101  22.736  24.108  11.393
12791W        W74102  24.148   0.359   2.844
12792W        W74103  30.505  29.139  13.799
12793W        W74104  29.550  40.910  12.063
12794W        W74105  21.234  32.609  14.393
12795W        W74106  39.934  33.509  11.564
12796W        W74107  13.646  10.641  12.936
12797W        W74108  28.669   6.342  13.826
12798W        W74109  28.017  10.218  13.400
12799W        W74110   5.216  26.161   3.848
12800W        W74111  43.929  13.638   2.731
12801W        W74112  16.714  31.974  12.531
12802W        W74113  32.571   4.897  15.000
12803W        W74114  37.376  20.156   4.620
12804W        W74115  13.673  33.398   4.760
12805W        W74116  37.564   8.833   4.811
12806W        W74117  29.563  15.797   2.790
12807W        W74118   1.369  32.519  13.977
12808W        W74119  32.606  28.027   1.843
12809W        W74120  28.670  34.528   3.646
12810W        W74121  18.122  14.802   1.224
12811W        W74122  13.726  27.011  14.388
12812W        W74123  16.741   4.930  12.413
12813W        W74124   0.892  14.219  11.427
12814W        W74125  16.288  32.510   0.837
12815W        W74126  23.591   3.322   4.158
12816W        W74127  36.848   4.302  11.102
12817W        W74128  43.798  26.033  12.388
12818W        W74129  29.534   8.664   1.356
12819W        W74130   4.929  36.413  13.033
12820W        W74131  19.755   0.447  13.479
12821W        W74132   3.912  38.974   1.251
12822W        W74133   4.760  17.292  10.123
12823W        W74134  37.876  37.576  10.893
12824W        W74135  19.604  43.798  11.973
12825W        W74136  12.340   6.424   2.359
12826W        W74137  28.557  18.678  11.418
12827W        W74138  39.869  22.564  14.377
12828W        W74139   1.354  13.215  13.336
12829W        W74140   2.816  42.969   0.926
12830W        W74141  30.631   8.808   2.843
12831W        W74142   1.248  12.688   4.653
12832W        W74143  36.942  31.945  14.807
12833W        W74144  40.040  40.019   3.834
12834W        W74145  11.783  42.344  10.428
12835W        W74146  19.778  13.724  14.498
12836W        W74147  33.544  34.896  14.509
12837W        W74148  41.500   0.324   4.781
12838W        W74149   0.948  31.464   1.216
12839W        W74150  15.681   3.730   2.403
12840W        W74151  40.964  22.117  12.454
12841W        W74152  11.630  29.642  12.966
12842W        W74153  20.069  38.862  13.407
12843W        W74154  30.951  38.938  14.393
12844W        W74155  10.180  35.520   3.783
12845W        W74156  16.714  39.458  11.375
12846W        W74157   3.823  24.565  14.459
12847W        W74158   0.783  20.200  11.514
12848W        W74159  15.632  26.592   4.241
12849W        W74160  16.618  22.707  13.976
12850W        W74161   4.306  42.801   3.256
12851W        W74162  14.256  19.534   0.291
12852W        W74163  39.430  15.301  12.966
12853W        W74164  40.029  31.415   4.322
12854W        W74165  31.958  15.182  12.856
12855W        W74166  28.006   2.258   0.459
12856W        W74167  32.530  21.690   1.431
12857W        W74168  22.182   4.426  11.550
12858W        W74169  40.499  37.462  13.453
12859W        W74170   5.352  21.128   9.959
12860W        W74171  42.865  33.954  14.494
12861W        W74172  26.586   3.904  10.488
12862W        W74173  19.764  13.228   1.404
12863W        W74174  31.418  30.985   4.759
12864W        W74175  37.569  37.988   5.119
12865W        W74176  27.977  37.526  14.999
12866W        W74177  20.041  26.621  13.338
12867W        W74178  29.568  26.500   1.222
12868W        W74179  13.171   5.767  12.501
12869W        W74180   8.384   7.675   0.413
12870W        W74181  31.528  28.640  11.998
12871W        W74182  19.743   6.228  10.446
12872W        W74183  19.275  35.559  14.489
12873W        W74184   5.357  38.479   2.385
12874W        W74185   0.811  21.153  14.476
12875W        W74186  11.704  21.525  14.280
12876W        W74187   4.291  18.688   3.154
12877W        W74188  28.138  31.983   2.214
12878W        W74189  29.975  30.436  14.968
12879W        W74190  27.671   0.870  11.018
12880W        W74191  40.369   5.871   4.702
12881W        W74192  28.150  16.260  13.817
12882W        W74193  35.026  37.980   3.843
12883W        W74194  16.777  40.918  11.959
12884W        W74195  31.461  23.030  13.824
12885W        W74196   7.353  10.835  11.037
12886W        W74197  36.413  32.962  11.430
12887W        W74198  42.349  43.352  10.554
12888W        W74199  17.736   5.199   2.677
12889W        W74200  13.314  35.542  14.474
12890W        W74201  28.546  18.755   4.176
12891W        W74202  41.340  36.419  13.347
12892W        W74203  33.491  13.165  14.447
12893W        W74204   6.219  39.909   2.837
12894W        W74205  21.531  44.472  10.075
12895W        W74206  27.956  36.052   1.418
12896W        W74207   1.928  23.038  13.810
12897W        W74208   8.163  25.584   3.315
12898W        W74209   8.401  11.338  10.988
12899W        W74210   4.311  21.687   1.390
12900W        W74211  11.832   3.745  11.909
12901W        W74212  33.457   2.258  11.997
12902W        W74213   5.732   4.326  10.632
12903W        W74214  41.440  39.466  12.024
12904W        W74215  27.499  22.555   4.165
12905W        W74216   1.872  40.817  14.869
12906W        W74217  36.085  12.683   0.403
12907W        W74218  18.688  22.555   1.805
12908W        W74219   0.841  16.772   4.664
12909W        W74220  33.486  44.479   0.436
12910W        W74221  37.915  25.013   1.923
12911W        W74222  16.122  17.786  12.928
12912W        W74223   1.283  17.229   4.229
12913W        W74224  24.176  32.024  11.529
12914W        W74225  39.538  22.219   0.345
12915W        W74226   5.245   5.786   3.748
12916W        W74227   7.886  24.598  13.884
12917W        W74228   4.343   7.665  14.879
12918W        W74229   7.860  43.339  14.451
12919W        W74230  32.911   9.321  13.835
12920W        W74231  19.181  30.962  13.792
12921W        W74232  23.234  37.551  14.469
12922W        W74233  29.168  31.117   3.709
12923W        W74234  32.892  33.474  10.549
12924W        W74235  15.197  29.442  10.950
12925W        W74236   9.283   1.414  14.471
12926W        W74237  30.050   9.846  14.899
12927W        W74238  35.580  37.879   1.226
12928W        W74239  11.671  21.259   0.359
12929W        W74240  30.915  19.767  13.857
12930W        W74241  43.907  32.437   4.732
12931W        W74242   9.285   6.797   4.165
12932W        W74243   3.819   4.854   2.248
12933W        W74244  34.409   5.437  14.953
12934W        W74245  12.668  33.589   2.769
12935W        W74246  20.052  25.087   0.856
12936W        W74247  15.669  23.074  10.989
12937W        W74248   6.184  23.992   2.323
12938W        W74249  22.192  42.864  11.896
12939W        W74250   5.889   5.853  11.592
12940W        W74251  43.978  32.018  11.938
12941W        W74252   9.772  18.214   4.642
12942W        W74253  37.932  40.452  14.505
12943W        W74254  17.735  10.822  12.087
12944W        W74255  23.163  43.283  13.427
12945W        W74256  30.135  18.083   4.698
12946W        W74257  33.509  31.576  12.922
12947W        W74258  19.120   5.807   0.891
12948W        W74259  43.938  40.325  11.531
12949W        W74260  29.495  32.617   3.320
12950W        W74261  31.929  23.989  10.460
12951W        W74262  18.743  37.461   1.252
12952W        W74263  26.005  35.991  14.303
12953W        W74264  25.696  41.990   0.473
12954W        W74265  38.829  31.403  13.423
12955W        W74266  23.073  28.444  12.523
12956W        W74267   7.690  32.545  11.582
12957W        W74268   6.420  29.463   3.361
12958W        W74269  40.990  40.935   2.273
12959W        W74270  21.751  22.108   3.635
12960W        W74271   4.740  10.816   3.351
12961W        W74272  24.082  33.131  13.966
12962W        W74273  13.134  15.109   2.257
12963W        W74274   3.450  19.126  13.939
12964W        W74275  39.402  27.621  10.617
12965W        W74276   1.335  19.748  14.983
12966W        W74277  38.920  32.437  11.503
12967W        W74278  35.433  11.761   3.746
12968W        W74279   4.716   4.403   1.270
12969W        W74280  22.035  11.674   4.239
12970W        W74281  12.793   8.391   4.746
12971W        W74282  11.262   5.268  13.944
12972W        W74283  15.278  34.934  13.488
12973W        W74284  13.183  19.580   1.375
12974W        W74285  21.614  37.016  11.579
12975W        W74286  36.007  39.911  12.856
12976W        W74287  22.522  36.384  11.915
12977W        W74288   7.747  25.030   2.407
12978W        W74289  32.958  28.013  14.994
12979W        W74290  34.414  27.950   2.753
12980W        W74291   9.242  37.367  12.899
12981W        W74292   3.899  19.563  10.066
12982W        W74293   0.284  28.037   1.355
12983W        W74294  36.517  29.030  13.494
12984W        W74295  27.952  44.971   0.850
12985W        W74296  31.626   4.917   1.283
12986W        W74297  39.457  17.687   0.265
12987W        W74298  12.280  33.123  10.478
12988W        W74299   6.869  37.861   0.426
12989W        W74300  27.619  12.634  10.433
12990W        W74301  14.679  12.775   1.250
12991W        W74302   0.931  42.835  11.510
12992W        W74303  21.613  37.447  13.541
12993W        W74304   2.799   7.315   3.767
12994W        W74305  20.208  30.011  10.908
12995W        W74306  14.201  22.202  12.911
12996W        W74307  41.357   2.900  14.386
12997W        W74308  25.663   7.809   3.714
12998W        W74309  18.753  11.129  12.361
12999W        W74310  28.499  35.428  14.288
13000W        W74311  20.689   2.323  14.429
13001W        W74312  37.461   2.277   4.795
13002W        W74313   8.769  26.615   0.319
13003W        W74314  34.603  37.437  12.481
13004W        W74315  33.894  15.200   1.284
13005W        W74316  33.875   3.409   3.632
13006W        W74317  40.800  11.258  12.983
13007W        W74318  39.973   7.393   1.767
13008W        W74319  17.069  24.049   5.780
13009W        W74320  16.628  12.118  10.437
13010W        W74321  26.970  35.034  14.979
13011W        W74322   9.352  16.709   4.159
13012W        W74323  20.036  11.320  14.815
13013W        W74324  27.194  10.698   2.871
13014W        W74325  12.718   6.297   9.637
13015W        W74326  16.073   0.898   0.883
13016W        W74327  12.726  32.037   3.188
13017W        W74328  12.185  31.473   1.340
13018W        W74329  44.501  23.585  11.020
13019W        W74330  25.124  33.908  12.531
13020W        W74331  22.108  35.075  13.954
13021W        W74332  35.099  14.176   1.265
13022W        W74333  35.988  20.735   4.222
13023W        W74334   7.850  22.567   3.782
13024W        W74335   1.848   5.322  13.313
13025W        W74336  40.941   7.404   1.275
13026W        W74337  12.727  21.640   1.761
13027W        W74338  21.543  38.370   5.254
13028W        W74339  34.959  38.852   1.796
13029W        W74340  41.361   0.383  14.969
13030W        W74341  42.013  44.302   0.781
13031W        W74342   8.737  39.888  10.922
13032W        W74343  41.794   7.892  12.494
13033W        W74344  44.834  11.653  11.942
13034W        W74345  44.984  31.110   1.731
13035W        W74346  25.155  20.688  13.981
13036W        W74347  23.065  16.223  14.889
13037W        W74348  14.097  21.661   3.765
13038W        W74349   4.375  30.516   1.805
13039W        W74350  22.648  31.930   1.744
13040W        W74351   6.910   2.464   0.314
13041W        W74352  21.130  11.669  14.426
13042W        W74353  35.564   9.318  14.366
13043W        W74354   7.756  33.450   2.877
13044W        W74355   3.448   5.347  11.374
13045W        W74356  21.616   1.430   2.251
13046W        W74357  38.540  40.995  12.455
13047W        W74358  15.666  19.168   4.141
13048W        W74359  12.337  28.990   4.271
13049W        W74360  13.143  24.143   3.664
13050W        W74361  43.835   0.839   3.346
13051W        W74362  17.080  44.962   3.647
13052W        W74363  18.649  21.544  12.381
13053W        W74364  29.014  31.033  13.308
13054W        W74365  13.686  40.890   2.210
13055W        W74366  40.480  11.684   0.250
13056W        W74367  29.576  35.565   1.345
13057W        W74368  18.162   5.275  13.542
13058W        W74369  22.735  23.112  13.027
13059W        W74370  28.033  37.982   1.360
13060W        W74371  33.585  36.913  14.781
13061W        W74372  19.639  17.092   0.266
13062W        W74373  40.379  13.738  11.529
13063W        W74374  19.583  28.041   4.625
13064W        W74375   0.751  28.087   4.612
13065W        W74376  23.662  38.986  12.396
13066W        W74377  30.041   5.195  14.985
13067W        W74378  11.761  17.681  12.342
13068W        W74379   7.382  24.543   3.636
13069W        W74380  38.904   4.730   5.081
13070W        W74381  19.655   0.849  13.792
13071W        W74382  29.641  24.227  14.369
13072W        W74383  30.425  15.672   1.231
13073W        W74384   4.264  27.588   4.166
13074W        W74385  12.831  31.926  10.458
13075W        W74386  35.511  38.483   5.669
13076W        W74387  20.571  20.617   9.968
13077W        W74388   6.283  35.931   2.205
13078W        W74389   3.737  26.458  10.460
13079W        W74390  17.801  12.354   1.354
13080W        W74391  16.594  22.608   2.393
13081W        W74392  36.377   3.872   4.271
13082W        W74393   4.882  40.340  11.507
13083W        W74394  41.921  20.722   0.333
13084W        W74395   0.866  18.642   4.615
13085W        W74396  11.820  11.143   4.759
13086W        W74397  14.629  39.528   3.637
13087W        W74398  26.631  31.942   1.911
13088W        W74399  16.723   6.827  13.891
13089W        W74400  12.804   9.817   0.469
13090W        W74401  33.017  34.064  11.582
13091W        W74402  44.408  25.584   1.719
13092W        W74403  41.916  23.621  13.938
13093W        W74404  22.667  13.267   4.275
13094W        W74405  38.011  11.373   4.226
13095W        W74406  20.658  43.485   0.260
13096W        W74407  22.083  31.024  11.002
13097W        W74408  23.735   8.848   0.814
13098W        W74409  20.264   0.368  10.445
13099W        W74410   3.310  32.628  14.462
13100W        W74411  37.499  27.044  12.024
13101W        W74412  26.482   1.348  14.877
13102W        W74413   0.290   8.785   0.447
13103W        W74414  13.204   2.362   4.647
13104W        W74415  28.474  22.611  10.575
13105W        W74416   5.369  29.480  12.061
13106W        W74417   8.174  16.567   0.296
13107W        W74418  42.876  16.218  13.314
13108W        W74419  39.403  14.829  14.987
13109W        W74420  11.323  39.479   0.427
13110W        W74421  29.163   5.840   3.248
13111W        W74422  35.424  25.534  11.444
13112W        W74423  15.245  13.612   2.746
13113W        W74424  22.044  34.370   4.779
13114W        W74425   3.860  22.706  14.764
13115W        W74426  27.657  30.516   0.247
13116W        W74427  44.501  12.158   0.345
13117W        W74428  36.569  38.466   1.780
13118W        W74429  15.746  21.126   1.245
13119W        W74430  14.124  43.401  13.947
13120W        W74431  31.953  35.458  13.474
13121W        W74432  26.495   8.193   3.840
13122W        W74433  10.201  39.938  11.565
13123W        W74434  36.440   0.935  13.490
13124W        W74435  40.978  11.715   0.742
13125W        W74436  25.469  34.079  13.499
13126W        W74437  31.630  29.924  14.315
13127W        W74438   1.420  31.081  12.576
13128W        W74439  14.338  26.534  11.392
13129W        W74440  14.220  22.675  13.353
13130W        W74441  25.974  27.460   4.611
13131W        W74442   5.759   7.862   0.952
13132W        W74443  27.640  38.982   1.926
13133W        W74444  12.678  41.028  13.951
13134W        W74445  12.221  42.892  13.827
13135W        W74446  13.162  30.537   5.277
13136W        W74447   6.385  35.508   1.808
13137W        W74448  12.248  37.836  13.859
13138W        W74449  22.106  22.110  13.851
13139W        W74450  24.136  28.959   5.732
13140W        W74451  41.409  40.342  10.898
13141W        W74452  26.508  27.573  13.903
13142W        W74453  40.997  39.020   0.893
13143W        W74454  24.671  31.409   4.648
13144W        W74455  33.895  30.545   1.890
13145W        W74456  37.974  28.014  11.551
13146W        W74457  40.517  25.555   4.303
13147W        W74458  14.264   8.673   3.839
13148W        W74459  19.237  16.110  12.441
13149W        W74460  41.988  17.092  13.441
13150W        W74461  40.030  15.594   2.836
13151W        W74462  28.968   5.354   4.775
13152W        W74463   2.458  13.705  10.438
13153W        W74464  27.940  16.614   1.391
13154W        W74465  31.000  36.516  12.360
13155W        W74466  32.481   7.891  11.891
13156W        W74467   8.862  44.845   4.171
13157W        W74468  26.629   1.741  14.283
13158W        W74469  27.012  41.813  11.555
13159W        W74470  38.470   5.782  13.470
13160W        W74471  24.130   1.483  12.476
13161W        W74472  43.412  38.444  12.037
13162W        W74473  27.049  16.182  10.558
13163W        W74474  31.945  40.541  11.014
13164W        W74475  19.067   5.216  12.444
13165W        W74476  33.904  14.223  14.951
13166W        W74477  19.100   6.380   1.270
13167W        W74478  17.782  12.196   4.597
13168W        W74479  32.600  20.694  14.304
13169W        W74480  19.597  40.376  11.912
13170W        W74481  39.351  38.932  13.902
13171W        W74482   6.856  29.488  14.946
13172W        W74483   3.350  32.489   0.789
13173W        W74484  17.225   2.249   4.198
13174W        W74485   3.322  15.262   0.286
13175W        W74486  17.298  27.478  12.437
13176W        W74487   6.822  19.270   9.980
13177W        W74488   5.770   3.732  11.909
13178W        W74489   1.862  34.449  12.870
13179W        W74490  14.679  18.581   4.761
13180W        W74491  13.642  32.617   4.281
13181W        W74492  35.410  40.053   3.739
13182W        W74493  40.010  34.468   1.825
13183W        W74494  17.565  24.541  10.553
13184W        W74495  41.398   9.310   2.674
13185W        W74496   8.315  18.108  13.325
13186W        W74497  36.968   4.393  13.985
13187W        W74498   6.727  44.494   3.228
13188W        W74499   0.971   4.853  12.380
13189W        W74500   8.394  29.048   0.941
13190W        W74501   2.312  34.611   3.774
13191W        W74502  23.056  15.773  12.415
13192W        W74503  40.396  14.122   0.921
13193W        W74504  20.618   7.878  14.276
13194W        W74505   0.258  32.937  13.021
13195W        W74506  21.636  39.540  12.081
13196W        W74507  40.396   2.261   2.734
13197W        W74508  21.110  44.841   5.221
13198W        W74509  42.371   6.740   4.797
13199W        W74510  26.977  21.519  14.360
13200W        W74511  22.514  26.962   4.290
13201W        W74512  22.068  17.117  11.900
13202W        W74513  32.050  29.131   0.353
13203W        W74514  31.063  42.855   2.202
13204W        W74515  11.150   7.388   0.368
13205W        W74516  15.723   5.716   1.750
13206W        W74517   1.284  28.982  11.018
13207W        W74518   7.283  31.993   4.251
13208W        W74519  22.523  17.120  12.002
13209W        W74520   5.276  40.499  13.006
13210W        W74521  13.210  31.137   4.658
13211W        W74522   2.264  21.705  12.835
13212W        W74523  35.964  32.580  11.482
13213W        W74524   4.934   5.837   3.167
13214W        W74525  40.006   2.350   4.179
13215W        W74526   0.817  24.078  12.009
13216W        W74527  12.697   3.286  10.545
13217W        W74528  15.208  38.920  12.861
13218W        W74529  42.303  35.901  12.947
13219W        W74530   2.418  12.139   0.333
13220W        W74531  16.758   0.943   2.338
13221W        W74532   2.913  18.777   1.695
13222W        W74533   2.385  31.153   0.757
13223W        W74534  19.760  27.107   3.694
13224W        W74535  24.508   3.949   3.322
13225W        W74536  42.494  26.490  14.874
13226W        W74537  22.739   8.692  14.439
13227W        W74538   3.319  12.689  13.010
13228W        W74539  19.717   7.396  12.902
13229W        W74540  36.461  23.733   3.346
13230W        W74541   3.896   2.777   1.802
13231W        W74542  42.813  40.421   2.356
13232W        W74543   8.798  11.789  10.910
13233W        W74544  32.616  20.736   3.385
13234W        W74545  24.665  19.558   2.816
13235W        W74546  11.625  39.413  13.368
13236W        W74547  32.892  26.660  13.390
13237W        W74548  36.009  21.042   0.417
13238W        W74549   0.455  37.067   4.615
13239W        W74550  17.168   5.308  14.456
13240W        W74551  30.102  34.378  10.910
13241W        W74552  22.676   7.797  12.855
13242W        W74553  18.594   3.716   1.353
13243W        W74554   7.772  20.671  11.423
13244W        W74555  43.001  26.013  12.413
13245W        W74556  22.512  37.053   3.155
13246W        W74557  12.653  17.630   1.763
13247W        W74558  36.960  17.766   3.826
13248W        W74559  25.110  35.424   2.260
13249W        W74560  27.669  32.560   3.202
13250W        W74561   4.274  10.256  11.578
13251W        W74562  40.032  32.991  11.858
13252W        W74563   0.863  22.568  11.408
13253W        W74564   2.471  35.898   1.872
13254W        W74565  16.159   3.927   2.880
13255W        W74566  41.475  42.861  13.004
13256W        W74567  41.514  31.908   2.725
13257W        W74568   7.781  31.907   4.293
13258W        W74569  29.538  36.447   0.310
13259W        W74570  10.777   9.344   0.784
13260W        W74571  43.827   8.286   1.795
13261W        W74572  17.169  18.742   4.329
13262W        W74573  20.556  37.971   1.794
13263W        W74574  22.035  25.212  14.362
13264W        W74575  21.036  21.091  12.346
13265W        W74576  38.556  40.478   3.201
13266W        W74577  40.317  19.121  14.011
13267W        W74578  24.648   2.747  10.491
13268W        W74579  27.134  14.772   2.322
13269W        W74580   8.293  13.778   2.783
13270W        W74581  32.961   1.867   1.741
13271W        W74582  23.540  38.859  14.787
13272W        W74583   6.428   1.287  12.979
13273W        W74584  29.967  24.562   2.240
13274W        W74585  39.316   7.900  14.415
13275W        W74586   1.795  16.807   1.407
13276W        W74587  29.539   0.877  10.639
13277W        W74588  13.234  41.009   4.183
13278W        W74589  43.913   3.847   3.756
13279W        W74590   3.432   7.185  12.545
13280W        W74591  27.953  27.663   2.251
13281W        W74592  12.225   5.242   3.695
13282W        W74593  39.351   7.215  13.514
13283W        W74594  26.130  18.214  14.434
13284W        W74595  16.306  23.181  11.383
13285W        W74596   4.817   6.324   1.849
13286W        W74597  25.178  37.991   0.280
13287W        W74598   4.704  15.294   3.824
13288W        W74599  14.229  24.016  12.935
13289W        W74600  17.599  36.520   1.421
13290W        W74601  26.082  11.759  12.555
13291W        W74602  21.547  23.696   0.396
13292W        W74603  15.758  43.967   2.710
13293W        W74604  17.703   5.742  14.484
13294W        W74605  32.503   9.667   4.256
13295W        W74606  15.656  30.134  12.049
13296W        W74607  23.192  42.399  13.971
13297W        W74608   9.391   7.280   1.231
13298W        W74609  36.952   6.884  12.576
13299W        W74610  20.259  11.297   1.224
13300W        W74611  33.448  26.636   2.723
13301W        W74612  24.980  22.642   3.747
13302W        W74613  15.284  23.153  10.577
13303W        W74614  32.027  30.029  13.829
13304W        W74615  43.359  13.301  12.388
13305W        W74616  40.927  15.272   0.820
13306W        W74617  17.244  35.933   2.327
13307W        W74618  21.072  32.101   4.183
13308W        W74619  27.128   8.737   2.320
13309W        W74620  31.583   4.853   0.273
13310W        W74621  36.480   2.471   1.260
13311W        W74622  14.158  21.522  13.842
13312W        W74623   1.344  13.299  13.820
13313W        W74624  11.155   1.745   2.770
13314W        W74625   7.849  40.811   4.347
13315W        W74626  30.580  41.829  14.906
13316W        W74627  28.062  32.448   3.719
13317W        W74628  25.211  23.522   0.360
13318W        W74629   7.187  23.684  14.780
13319W        W74630  15.823   9.864  10.533
13320W        W74631  15.131  24.104   1.393
13321W        W74632   0.985  33.563  12.044
13322W        W74633  22.147  39.477   1.223
13323W        W74634  41.481  36.011   0.758
13324W        W74635   4.942  27.958  10.479
13325W        W74636  16.606   4.304  12.005
13326W        W74637  27.093  38.973   1.299
13327W        W74638  43.343   1.901   3.156
13328W        W74639  38.862   1.378  10.069
13329W        W74640  18.176  29.571  12.475
13330W        W74641  32.099  44.380  11.878
13331W        W74642   5.755  12.124  12.024
13332W        W74643  21.164  13.631   2.365
13333W        W74644   0.330  11.688   0.420
13334W        W74645   5.283   5.391  13.374
13335W        W74646  14.702  14.802   0.890
13336W        W74647  27.034   2.399  12.947
13337W        W74648  44.824  13.279   4.747
13338W        W74649  17.634  43.391  14.991
13339W        W74650  31.415  31.446   2.334
13340W        W74651  26.147  41.903   3.797
13341W        W74652  32.603  15.587   1.421
13342W        W74653   5.235   2.277   1.718
13343W        W74654  10.209   0.352   0.410
13344W        W74655  41.478  34.584   1.700
13345W        W74656  16.758  28.969  14.929
13346W        W74657   0.416  11.279   1.734
13347W        W74658   4.318  14.210  12.012
13348W        W74659  24.702   6.715   3.854
13349W        W74660  13.210   5.210   2.887
13350W        W74661  29.594  34.026  11.860
13351W        W74662   1.862   8.365   3.386
13352W        W74663  28.038  18.615  13.356
13353W        W74664  38.431   1.969   3.691
13354W        W74665  41.351   7.879   1.340
13355W        W74666  44.007  16.812  11.483
13356W        W74667  37.455  34.987  14.455
13357W        W74668  20.580  29.452   9.958
13358W        W74669  25.116  34.926  11.378
13359W        W74670   9.212  38.411  14.293
13360W        W74671   5.233  22.178   1.917
13361W        W74672   7.729  32.484  10.931
13362W        W74673  14.599  26.116  10.544
13363W        W74674  29.957  37.364   0.440
13364W        W74675  13.635  44.898   3.331
13365W        W74676  28.610   7.851  13.987
13366W        W74677  21.033  18.069   0.956
13367W        W74678   8.270  18.232   4.786
13368W        W74679  23.660   2.955   1.397
13369W        W74680  37.079  26.997   2.366
13370W        W74681  31.585  38.068  13.841
13371W        W74682  29.461   4.779   4.750
13372W        W74683  31.909   1.397  10.409
13373W        W74684  25.147   1.802  14.480
13374W        W74685  16.687  13.746   1.422
13375W        W74686  32.899  11.629  12.343
13376W        W74687  24.227  34.409   0.839
13377W        W74688   2.393  17.129  11.580
13378W        W74689  17.291  29.478  13.814
13379W        W74690  40.952  37.575   1.912
13380W        W74691  14.165   8.211   2.256
13381W        W74692  14.170  31.001   3.730
13382W        W74693  12.308  32.555  14.820
13383W        W74694  18.115  38.462   4.159
13384W        W74695  41.309  16.794  10.998
13385W        W74696  28.617  21.633  10.487
13386W        W74697  12.258  12.670  14.841
13387W        W74698   3.404  21.036  14.930
13388W        W74699  44.785  33.989   2.352
13389W        W74700   2.917  12.243  12.926
13390W        W74701   9.743  39.491  10.941
13391W        W74702   8.713  36.983   2.223
13392W        W74703  15.695  33.442  12.385
13393W        W74704  13.631  29.022   2.853
13394W        W74705  17.563  13.221   0.848
13395W        W74706  10.331  16.262   3.640
13396W        W74707  12.203  40.968   0.481
13397W        W74708   0.955  30.479  14.012
13398W        W74709  20.112  28.568  14.884
13399W        W74710  25.501   6.746   3.218
13400W        W74711  29.484  36.453   4.214
13401W        W74712  36.015  41.809   0.788
13402W        W74713  28.931  16.702   1.354
13403W        W74714   5.284   3.294  13.906
13404W        W74715  27.166   6.426   1.931
13405W        W74716  24.124  38.977   2.754
13406W        W74717   8.681  37.048   4.303
13407W        W74718   2.347  27.557   1.873
13408W        W74719  27.077  17.699  11.906
13409W        W74720   6.213  39.065  13.487
13410W        W74721   8.227   0.366   0.248
13411W        W74722  21.216   5.837   3.229
13412W        W74723  10.871   9.241   0.307
13413W        W74724  42.940   7.715   0.876
13414W        W74725  44.410  27.560  12.860
13415W        W74726  38.512  17.694  11.869
13416W        W74727  39.396   6.862   4.604
13417W        W74728   2.328   0.792  13.825
13418W        W74729   5.708  26.979   4.146
13419W        W74730  24.515  38.044  10.485
13420W        W74731  15.182   0.464   2.407
13421W        W74732  39.324  38.536  12.340
13422W        W74733  19.620  14.210   1.876
13423W        W74734  25.555  28.049   2.265
13424W        W74735  43.994   6.245  11.924
13425W        W74736  39.468   8.844   3.208
13426W        W74737   8.234  44.335  14.943
13427W        W74738  37.535  34.033   4.288
13428W        W74739  30.092  16.299  10.454
13429W        W74740  27.991  16.586  14.889
13430W        W74741  43.987   1.943   0.366
13431W        W74742  22.724  17.730  12.827
13432W        W74743  20.582  11.310  11.121
13433W        W74744   9.686   6.293  11.389
13434W        W74745   8.380  23.111  13.039
13435W        W74746   7.222  40.833  13.371
13436W        W74747  43.974   9.881  12.449
13437W        W74748  35.377  11.176   4.287
13438W        W74749  33.597  26.600  10.155
13439W        W74750  28.512  28.115   3.707
13440W        W74751   1.876  38.069   3.339
13441W        W74752  14.699   2.428   0.867
13442W        W74753  34.084   7.842   1.886
13443W        W74754   6.353  33.516   2.335
13444W        W74755  27.027   2.874  10.969
13445W        W74756  38.488   5.834  12.050
13446W        W74757  17.064   3.290   2.191
13447W        W74758  32.139  22.555  13.859
13448W        W74759  32.897  35.516  11.102
13449W        W74760  21.699  32.063  11.048
13450W        W74761  36.028  12.126  11.444
13451W        W74762  36.542  44.416   1.327
13452W        W74763  13.831  15.674   1.816
13453W        W74764  36.445   6.334   2.747
13454W        W74765  44.962   2.744   4.129
13455W        W74766   0.762   3.854   0.847
13456W        W74767   1.443  33.891  11.424
13457W        W74768  16.282  16.793   0.287
13458W        W74769  40.528  29.459  10.547
13459W        W74770   2.383   7.671  11.541
13460W        W74771  44.974  34.115  14.289
13461W        W74772   2.241   8.280   2.347
13462W        W74773  12.804   9.724   1.343
13463W        W74774   8.864  35.081   1.720
13464W        W74775  37.453  26.500  11.461
13465W        W74776  33.088   2.391   2.213
13466W        W74777  11.688  21.711   0.810
13467W        W74778  41.970  43.889   4.251
13468W        W74779  19.628  21.108  10.893
13469W        W74780  41.868  31.634   4.218
13470W        W74781  27.611  15.145  11.487
13471W        W74782  10.268  17.560  13.427
13472W        W74783  24.582  37.355   0.373
13473W        W74784  14.283  13.249  14.433
13474W        W74785  40.012  36.383  14.325
13475W        W74786   2.798  26.636  10.910
13476W        W74787  29.616  37.883   4.700
13477W        W74788  35.940  16.658   4.191
13478W        W74789  18.116  36.558  10.592
13479W        W74790  11.193  32.418   2.275
13480W        W74791   2.447  36.593   3.792
13481W        W74792  33.031   0.982  10.963
13482W        W74793   5.742  35.373   3.350
13483W        W74794  37.916  27.129   4.836
13484W        W74795  12.251  43.980  10.469
13485W        W74796   6.833  19.624  14.280
13486W        W74797   6.778  43.286   3.373
13487W        W74798  39.846  27.978  12.936
13488W        W74799  19.568  19.091   4.139
13489W        W74800  44.349   3.877  13.480
13490W        W74801  16.773  24.511  13.043
13491W        W74802  35.916  11.304   3.328
13492W        W74803  14.215  19.756   1.756
13493W        W74804  10.206  38.949   1.364
13494W        W74805  22.667  40.442   1.304
13495W        W74806  14.783  42.015  10.965
13496W        W74807  23.726   4.410   2.736
13497W        W74808   5.373   4.835  14.852
13498W        W74809  12.329  10.217   1.437
13499W        W74810  37.896  13.706  12.395
13500W        W74811  33.539   1.785  10.447
13501W        W74812  40.831  44.952   0.454
13502W        W74813  37.923  21.219  13.403
13503W        W74814  36.541   6.400   0.791
13504W        W74815   1.885   9.189  14.973
13505W        W74816  42.911  14.141  13.040
13506W        W74817   1.459  32.979  10.488
13507W        W74818  11.809  41.391  12.577
13508W        W74819   5.913   0.885  14.902
13509W        W74820  34.451  13.313  11.881
13510W        W74821  22.107  21.019   1.410
13511W        W74822   2.813   8.715  10.891
13512W        W74823  23.168  41.399  13.468
13513W        W74824  44.951  36.064  10.457
13514W        W74825  38.007  11.164  13.364
13515W        W74826  28.148  43.992   2.857
13516W        W74827  36.894   0.395  14.026
13517W        W74828   7.411  40.527  11.037
13518W        W74829  40.497   9.240  10.980
13519W        W74830   2.859  15.759   1.333
13520W        W74831   9.355  25.063  11.894
13521W        W74832  38.424  21.019  12.365
13522W        W74833  23.726   9.841   0.960
13523W        W74834  43.811  20.148   0.376
13524W        W74835  24.699  33.617  10.558
13525W        W74836  12.196  28.550  12.010
13526W        W74837  18.264  11.226   0.727
13527W        W74838  29.152  32.393  14.021
13528W        W74839  37.939  12.746  10.579
13529W        W74840  44.440  28.019  14.357
13530W        W74841  41.865  33.550   3.773
13531W        W74842  19.635  21.555   2.811
13532W        W74843  40.389  39.984  14.901
13533W        W74844  41.434  37.078  10.901
13534W        W74845  35.541   9.711  12.923
13535W        W74846  31.108  39.844  12.823
13536W        W74847  44.844  18.160   3.836
13537W        W74848  33.976  11.757   4.670
13538W        W74849   3.294  28.508   2.258
13539W        W74850  36.402  19.098   4.726
13540W        W74851   0.864  22.038   3.287
13541W        W74852  31.541  44.767   1.246
13542W        W74853  31.506   5.892  11.372
13543W        W74854  11.255  11.162   2.229
13544W        W74855  37.868  24.219   2.293
13545W        W74856  14.631  21.562   1.913
13546W        W74857  42.971  33.600  13.419
13547W        W74858  10.777  19.088   1.754
13548W        W74859   8.338  35.452  12.954
13549W        W74860  15.299  35.057  12.408
13550W        W74861  19.690  40.360   4.158
13551W        W74862  42.398  35.963   1.280
13552W        W74863  36.391   5.893  12.918
13553W        W74864   2.437  13.753  12.066
13554W        W74865  21.743   1.896  14.414
13555W        W74866  28.983   1.351   0.477
13556W        W74867  20.608  19.233  11.379
13557W        W74868  24.618  23.081   3.148
13558W        W74869  17.197  30.131   1.259
13559W        W74870  27.594   0.366   4.743
13560W        W74871   7.818  43.838  14.825
13561W        W74872  22.609   3.752  14.970
13562W        W74873  20.655  41.806  13.844
13563W        W74874  16.213  40.909   0.954
13564W        W74875  41.912   8.824  13.507
13565W        W74876  12.752  10.299   3.190
13566W        W74877  28.956  29.510  12.485
13567W        W74878   8.785  24.546  12.525
13568W        W74879  13.257  23.597  11.090
13569W        W74880  41.847  43.460  10.524
13570W        W74881  31.042  26.699   4.254
13571W        W74882   0.461  11.201   3.645
13572W        W74883   7.847  14.306   4.674
13573W        W74884  43.974  20.645   2.686
13574W        W74885   7.408   8.860   0.351
13575W        W74886   5.768  42.344   1.722
13576W        W74887  11.777   5.890   1.271
13577W        W74888  12.777  12.619   3.160
13578W        W74889   2.431  16.656   3.822
13579W        W74890   4.905  44.420  13.952
13580W        W74891   9.331  30.457   5.157
13581W        W74892   3.827  40.405   3.776
13582W        W74893  37.509  41.940  10.973
13583W        W74894  39.441   6.239   3.802
13584W        W74895  22.604  44.352  11.377
13585W        W74896   6.260  21.197  12.420
13586W        W74897  12.252  32.960  11.528
13587W        W74898   0.907   5.902  12.431
13588W        W74899  11.661  10.664   2.902
13589W        W74900  25.608   7.706  12.929
13590W        W74901   3.331  24.698   0.466
13591W        W74902  44.932   1.379   0.860
13592W        W74903  42.315  31.563   2.335
13593W        W74904  39.952   4.943   0.371
13594W        W74905   1.428  10.635   0.852
13595W        W74906  41.833  14.311   3.283
13596W        W74907  19.233  12.247   2.859
13597W        W74908  27.971   3.281  10.598
13598W        W74909  38.982  43.489   2.295
13599W        W74910  38.013  41.308  11.912
13600W        W74911  16.801  22.036   0.256
13601W        W74912  36.507   1.796  14.907
13602W        W74913   6.778  38.856  14.515
13603W        W74914   5.892  16.194  11.489
13604W        W74915   9.655  21.517   2.681
13605W        W74916  21.700  29.632   4.753
13606W        W74917  19.558  29.459   5.121
13607W        W74918  20.559  32.406  12.569
13608W        W74919  25.616   9.852   0.965
13609W        W74920   0.816  30.574  12.516
13610W        W74921  11.281  12.812   3.215
13611W        W74922  33.496  10.718  11.099
13612W        W74923   5.906  35.419   1.866
13613W        W74924  14.253   2.772  14.957
13614W        W74925  28.128  22.197   3.365
13615W        W74926   0.916  13.158  11.392
13616W        W74927  41.876  14.663   0.364
13617W        W74928  10.816   9.844   3.670
13618W        W74929  24.653  39.999   3.361
13619W        W74930  35.052   7.391   3.196
13620W        W74931  41.359   3.920   1.818
13621W        W74932  31.485  36.366  11.874
13622W        W74933  15.785  17.133  12.509
13623W        W74934  11.324  25.126  14.798
13624W        W74935  13.777  43.951  10.616
13625W        W74936  39.859   3.858   4.347
13626W        W74937  26.642  40.456   3.831
13627W        W74938  18.676   2.848   3.330
13628W        W74939  40.343   5.731  14.336
13629W        W74940   0.379  14.603  12.392
13630W        W74941  41.001  37.907  11.607
13631W        W74942  15.690  26.098   3.828
13632W        W74943  21.177  21.229   1.698
13633W        W74944   7.782  35.377  12.899
13634W        W74945  23.150  44.329  14.513
13635W        W74946  24.056  25.178  13.963
13636W        W74947   0.946  15.203  11.456
13637W        W74948  43.307  11.774  12.483
13638W        W74949  19.554  38.410   4.166
13639W        W74950   6.716  28.593  13.825
13640W        W74951  25.592   1.963   2.204
13641W        W74952  25.674  19.743   2.868
13642W        W74953  24.093   0.853   2.738
13643W        W74954   7.252  27.083  14.326
13644W        W74955   3.255  25.687  12.897
13645W        W74956  15.257  38.455   3.152
13646W        W74957   3.428   2.394  12.453
13647W        W74958  22.091  28.072  14.480
13648W        W74959   9.255   0.791   4.763
13649W        W74960  15.732  27.634  14.975
13650W        W74961   3.293  24.995  11.010
13651W        W74962  23.629  13.744  11.959
13652W        W74963  21.139  25.628  12.869
13653W        W74964  32.487  34.902   3.769
13654W        W74965  12.657  44.393   1.221
13655W        W74966  12.612  22.619  11.884
13656W        W74967  28.641  16.805  14.414
13657W        W74968  31.560  17.202  11.389
13658W        W74969   6.795  24.199   2.288
13659W        W74970   2.323   1.391   1.795
13660W        W74971  29.534  42.898  10.445
13661W        W74972   5.930  34.022   1.362
13662W        W74973  29.609   5.820   1.235
13663W        W74974  35.855  11.824   2.825
13664W        W74975  34.057  31.512  10.926
13665W        W74976  38.873   4.395   4.642
13666W        W74977  21.749   6.904  12.833
13667W        W74978   3.291  39.050   1.716
13668W        W74979  36.450  12.815  11.588
13669W        W74980  38.529  35.448  12.394
13670W        W74981  33.071  35.504  14.997
13671W        W74982  28.538  39.377   4.201
13672W        W74983  31.925  11.223   1.842
13673W        W74984  39.408  33.521  11.025
13674W        W74985  14.733  36.851  13.543
13675W        W74986   0.927   6.686   0.838
13676W        W74987  26.117  18.239  11.010
13677W        W74988  44.990   2.794  14.921
13678W        W74989   4.821  41.323   1.923
13679W        W74990  35.954  16.097  12.008
13680W        W74991  36.410  20.563   2.372
13681W        W74992  10.280  43.952  11.981
13682W        W74993  17.176  30.076  11.521
13683W        W74994  16.146  34.442   5.128
13684W        W74995   8.243   8.742  12.903
13685W        W74996  29.174  19.642  12.064
13686W        W74997  20.246  16.120  11.875
13687W        W74998  25.981  42.491  11.538
13688W        W74999  33.398  19.111  11.437
13689W        W75000  14.738   5.353  11.999
13690W        W75001  15.090  19.218  14.333
13691W        W75002  22.519   1.814  11.902
13692W        W75003   9.171   2.878  10.528
13693W        W75004  18.670  29.980  13.442
13694W        W75005  35.402  25.656  13.544
13695W        W75006  27.150  17.162  14.828
13696W        W75007  35.980  28.528  10.084
13697W        W75008  44.864  37.895   2.764
13698W        W75009  38.325   3.260   0.449
13699W        W75010  28.170  32.007   1.302
13700W        W75011  28.669  43.974   0.930
13701W        W75012  23.197  19.207  10.960
13702W        W75013  16.781  20.060  11.033
13703W        W75014   0.248  41.454   0.916
13704W        W75015  32.488   6.855   1.750
13705W        W75016  18.183   1.928   4.798
13706W        W75017  31.949   7.197   0.471
13707W        W75018  33.948  15.091  11.072
13708W        W75019  33.529   9.889   3.248
13709W        W75020   9.681  20.607   2.741
13710W        W75021  30.138  34.078   4.735
13711W        W75022   4.391  37.991  13.872
13712W        W75023  35.002  23.588  13.313
13713W        W75024  18.229  16.118  13.797
13714W        W75025  39.412  39.053   2.755
13715W        W75026  28.008  20.139   1.802
13716W        W75027  10.661  35.873   5.086
13717W        W75028  38.944   1.379   5.083
13718W        W75029  29.142  28.564   1.719
13719W        W75030  36.095  19.255   4.761
13720W        W75031   3.822  14.741   0.751
13721W        W75032  26.562  24.011  11.032
13722W        W75033   9.272  24.200   1.819
13723W        W75034  23.532   8.858   1.443
13724W        W75035  39.991   8.747  11.978
13725W        W75036  24.530   4.360  10.439
13726W        W75037  24.505  31.951  13.061
13727W        W75038  33.380  32.999  12.979
13728W        W75039  24.156   9.724  13.063
13729W        W75040  42.781  22.743  10.411
13730W        W75041  30.625  28.066   2.824
13731W        W75042   5.203  32.117  10.908
13732W        W75043  11.330  29.467   0.336
13733W        W75044   7.374  10.233   1.364
13734W        W75045  40.318  36.073   5.320
13735W        W75046  17.180  10.186   0.941
13736W        W75047   3.301  11.231  11.378
13737W        W75048  11.858  28.134  13.017
13738W        W75049   4.784   0.291  11.375
13739W        W75050  28.575  11.328  12.010
13740W        W75051  24.154  14.633  12.397
13741W        W75052  35.028   7.676  11.483
13742W        W75053  33.451  25.202  14.813
13743W        W75054   8.379  27.663  11.470
13744W        W75055  26.491  32.445  13.962
13745W        W75056   5.229   1.403   4.296
13746W        W75057  22.661   5.361   4.604
13747W        W75058  41.455  29.030  14.020
13748W        W75059  11.847  40.879  14.361
13749W        W75060  10.804  19.761   0.734
13750W        W75061  39.980  17.223   0.837
13751W        W75062  20.124  38.067   0.422
13752W        W75063  21.172  22.723  11.948
13753W        W75064  27.542  36.352  14.918
13754W        W75065  13.193  20.195  12.523
13755W        W75066  19.573   7.208   3.286
13756W        W75067  30.074  40.513   2.264
13757W        W75068   2.472  20.676  12.842
13758W        W75069  42.448  42.780   2.404
13759W        W75070   2.395  29.590  13.832
13760W        W75071   4.798  31.087   4.126
13761W        W75072  33.051  37.441   1.695
13762W        W75073   0.386   5.793  12.486
13763W        W75074  15.751   2.407   2.312
13764W        W75075  22.148  24.600  14.897
13765W        W75076   2.769  24.709  12.898
13766W        W75077  15.683  28.176  11.430
13767W        W75078  29.977  27.533   1.706
13768W        W75079   6.421  32.073  14.472
13769W        W75080  28.074  39.000   4.828
13770W        W75081  33.406  21.043  13.867
13771W        W75082   6.800  42.849  14.954
13772W        W75083  28.960  17.678  12.020
13773W        W75084  25.134  31.574   4.305
13774W        W75085  21.587   3.864   4.138
13775W        W75086  23.549  19.693  12.894
13776W        W75087   2.942  17.266   0.782
13777W        W75088  33.110  22.038  13.024
13778W        W75089   1.759  22.211  12.386
13779W        W75090  27.612  17.245   2.822
13780W        W75091  39.555  29.667  14.027
13781W        W75092  27.599  43.373  13.798
13782W        W75093  35.910  25.697  14.446
13783W        W75094  34.524  36.419  13.433
13784W        W75095  43.443  34.980  13.518
13785W        W75096  23.062  11.173  13.943
13786W        W75097  18.651  28.179  13.892
13787W        W75098   3.358  19.769   3.817
13788W        W75099   1.337  44.347   2.689
13789W        W75100  42.821  26.149  11.886
13790W        W75101  21.078  18.778  10.589
13791W        W75102  40.540  30.444   3.307
13792W        W75103  42.822  28.182   4.606
13793W        W75104  20.042  23.685  11.961
13794W        W75105  31.518  12.207  12.375
13795W        W75106  43.863  11.681   2.384
13796W        W75107   8.794  14.781   2.871
13797W        W75108   9.217  34.082  13.803
13798W        W75109  10.262  26.133   4.227
13799W        W75110  32.053   7.722  11.857
13800W        W75111  33.538  17.199   3.703
13801W        W75112  14.099  19.199  13.926
13802W        W75113   1.249   0.884  10.914
13803W        W75114   2.450  32.455  12.826
13804W        W75115  38.457   6.699  12.872
13805W        W75116   7.408  15.273  13.524
13806W        W75117   8.671  25.217  11.986
13807W        W75118  24.182  39.969  11.536
13808W        W75119  31.141  22.732   2.807
13809W        W75120  19.110  44.360  10.608
13810W        W75121  32.083  23.214  14.401
13811W        W75122  32.937  12.186  14.287
13812W        W75123  27.058  40.332  11.541
13813W        W75124  41.450  30.602  11.379
13814W        W75125  44.305  36.842  10.484
13815W        W75126   7.267  44.769  13.500
13816W        W75127  22.052   2.433  14.307
13817W        W75128  36.077  27.562   3.769
13818W        W75129   1.775  18.239   2.878
13819W        W75130  28.571  21.055   1.933
13820W        W75131   6.255   8.799   1.233
13821W        W75132  35.424   5.866  13.381
13822W        W75133  35.905   9.658   1.876
13823W        W75134  14.290   7.350   2.350
13824W        W75135  14.165  15.674  11.387
13825W        W75136  43.334  43.395  10.623
13826W        W75137   8.822   3.420   1.244
13827W        W75138  36.451  36.559  14.277
13828W        W75139  20.527   7.335  14.812
13829W        W75140  43.351  14.277  14.332
13830W        W75141  21.239  44.908   4.249
13831W        W75142  11.748  12.683   3.834
13832W        W75143  19.597  11.195  10.907
13833W        W75144  42.521  39.843   1.865
13834W        W75145  39.536  36.947  13.824
13835W        W75146   7.903  26.494  10.515
13836W        W75147  28.976  39.009   0.772
13837W        W75148  28.008  25.548  11.581
13838W        W75149  27.017  27.038  14.475
13839W        W75150   0.770  37.003  14.928
13840W        W75151   6.346  27.531  14.441
13841W        W75152   6.817  30.552   3.660
13842W        W75153  41.965  39.412  14.858
13843W        W75154  36.021  44.899  13.893
13844W        W75155  23.584  38.981  13.846
13845W        W75156  30.984  30.999  14.452
13846W        W75157   8.754   9.178  10.537
13847W        W75158   7.171  26.486  10.050
13848W        W75159  38.513  30.091  13.060
13849W        W75160   0.268   6.329   1.337
13850W        W75161  39.542   0.918  11.516
13851W        W75162  44.488  38.328  12.352
13852W        W75163  22.671  11.718   1.818
13853W        W75164  10.251   9.204  14.331
13854W        W75165  33.517   6.417  10.461
13855W        W75166  15.742   8.168   1.850
13856W        W75167   9.317  35.094  11.471
13857W        W75168   9.336  29.937   1.386
13858W        W75169   7.297  26.103  11.414
13859W        W75170  25.511  28.130   3.679
13860W        W75171  12.183  42.383  14.766
13861W        W75172  38.571  38.481  11.517
13862W        W75173  29.934  30.985   2.872
13863W        W75174  38.056  33.579   9.502
13864W        W75175   2.350  41.987   3.644
13865W        W75176  44.787  17.191  12.944
13866W        W75177  37.432  43.298   0.404
13867W        W75178  19.608   6.873   4.696
13868W        W75179  21.560   6.389   0.442
13869W        W75180  30.074  10.208  11.101
13870W        W75181  23.013  42.009   1.441
13871W        W75182  28.145  16.256   3.693
13872W        W75183   7.244  23.117   1.813
13873W        W75184  24.588  31.415   5.729
13874W        W75185  42.455   0.268   2.711
13875W        W75186  40.963  35.023  12.516
13876W        W75187  23.240  35.038  11.551
13877W        W75188  20.692  10.380   3.690
13878W        W75189   8.805   6.384   2.896
13879W        W75190  14.801   2.838   2.789
13880W        W75191  34.043  18.053  14.488
13881W        W75192  30.497  38.466  11.894
13882W        W75193  39.847  26.144  13.465
13883W        W75194  15.285  11.176   3.820
13884W        W75195   7.234  32.454   3.744
13885W        W75196   4.230   8.219   4.148
13886W        W75197  15.158  17.773   1.271
13887W        W75198  14.752  20.045  12.057
13888W        W75199  39.999  18.207  11.443
13889W        W75200   2.241  40.450  14.824
13890W        W75201  26.690  26.673   3.365
13891W        W75202   8.682  33.988  11.869
13892W        W75203   6.290  36.948  14.476
13893W        W75204  26.114   7.815  11.436
13894W        W75205  20.184  38.976  12.988
13895W        W75206  27.639  24.049  12.508
13896W        W75207  43.320  32.976  14.907
13897W        W75208  13.186  22.244   2.888
13898W        W75209   6.363  39.419   4.731
13899W        W75210  33.434  41.915   2.700
13900W        W75211  25.105  44.936  12.489
13901W        W75212   9.380  29.151  10.100
13902W        W75213  28.973  14.631   2.831
13903W        W75214  36.417  40.397  10.553
13904W        W75215  34.369  30.109   3.800
13905W        W75216  19.738   5.330   1.222
13906W        W75217  44.400  16.629  10.967
13907W        W75218  24.668  32.902  10.942
13908W        W75219  31.015   5.905  12.384
13909W        W75220  13.109   3.759  11.433
13910W        W75221  39.061   4.837   1.841
13911W        W75222  42.359  20.107  11.969
13912W        W75223   7.748  20.055   1.335
13913W        W75224  44.993  21.193  13.468
13914W        W75225  36.953   1.892   2.825
13915W        W75226   6.220  25.219   2.229
13916W        W75227  44.915  10.216  10.004
13917W        W75228  40.925  20.057   0.295
13918W        W75229   7.370  29.552   3.349
13919W        W75230  42.409   8.214   1.846
13920W        W75231  26.952   7.376  14.458
13921W        W75232   0.482  13.607  12.987
13922W        W75233  39.834  35.005  13.538
13923W        W75234  33.600  20.545  13.887
13924W        W75235  24.715  15.095   2.416
13925W        W75236  32.636   9.269  13.882
13926W        W75237   7.839  18.667   2.317
13927W        W75238  44.754  19.744   4.768
13928W        W75239  18.285  32.004   1.396
13929W        W75240  27.191  16.745  10.569
13930W        W75241   3.268  13.139  12.513
13931W        W75242  36.582  20.525  13.991
13932W        W75243  34.600  21.648  11.040
13933W        W75244  11.289  43.008  10.943
13934W        W75245  43.400  42.502   3.177
13935W        W75246  40.940  27.599  14.935
13936W        W75247  36.060  16.132   4.801
13937W        W75248  36.471  29.085  10.626
13938W        W75249   2.456  42.017  11.024
13939W        W75250  14.647  37.493   9.930
13940W        W75251  17.624  22.504  12.534
13941W        W75252  43.918   7.825   3.867
13942W        W75253  41.970  23.990  13.451
13943W        W75254  26.108  11.740   4.666
13944W        W75255  31.077   8.767  14.419
13945W        W75256  42.974  18.687   1.873
13946W        W75257  28.681   8.332  11.579
13947W        W75258  42.872  27.097  14.028
13948W        W75259  17.203  25.684  14.848
13949W        W75260  28.091  21.692  10.926
13950W        W75261  28.458   8.405   1.334
13951W        W75262   1.767   9.742   2.708
13952W        W75263  44.861  22.728   1.230
13953W        W75264   1.262  28.118  10.999
13954W        W75265  15.142  41.437   0.470
13955W        W75266  31.644   7.381  10.452
13956W        W75267   6.224   2.765  12.033
13957W        W75268  13.708   8.293  14.377
13958W        W75269  33.432  29.439   0.284
13959W        W75270  27.507  21.218  14.779
13960W        W75271  26.157  23.077  12.944
13961W        W75272  42.873  21.239   1.257
13962W        W75273  43.473  20.091   0.788
13963W        W75274  43.486  19.749  11.080
13964W        W75275  15.300  28.089   4.133
13965W        W75276   4.837  31.975  12.471
13966W        W75277  20.149  24.014   0.257
13967W        W75278  40.405   8.859   3.341
13968W        W75279  40.930   9.788  14.974
13969W        W75280  19.167  44.951  14.340
13970W        W75281  35.359  31.482   2.354
13971W        W75282  41.021   2.739  12.410
13972W        W75283  27.675   3.342   9.944
13973W        W75284  31.589  14.743   3.656
13974W        W75285  32.052  24.548   2.683
13975W        W75286   6.798  40.451  13.492
13976W        W75287  42.959  31.459   2.265
13977W        W75288  38.074  14.671   1.707
13978W        W75289  34.564  27.984  12.078
13979W        W75290  26.541  31.636  14.962
13980W        W75291  22.121  43.424   5.717
13981W        W75292  30.038  22.154   0.328
13982W        W75293  39.977  21.702   0.421
13983W        W75294  22.690  10.662   1.757
13984W        W75295  16.592  24.084  14.290
13985W        W75296  30.461  12.688  12.028
13986W        W75297   3.345  26.107   4.674
13987W        W75298  30.513   3.789  14.873
13988W        W75299  41.938  33.114   3.846
13989W        W75300   8.799  27.572   4.781
13990W        W75301  28.654  39.528   2.741
13991W        W75302  28.125  21.603   1.801
13992W        W75303  15.819  31.533   0.879
13993W        W75304  30.137  39.992  10.555
13994W        W75305  10.362  20.263  11.940
13995W        W75306  35.434  18.256   4.800
13996W        W75307   4.888  26.093  11.980
13997W        W75308  24.686  38.396   5.684
13998W        W75309  10.799  43.294  13.030
13999W        W75310  23.139  22.745  12.888
14000W        W75311   0.404  24.635  14.463
14001W        W75312  39.426  42.309  11.417
14002W        W75313  12.152  16.642  13.819
14003W        W75314  13.285  24.487   2.697
14004W        W75315  12.342  27.645  13.852
14005W        W75316   3.881   6.191   2.667
14006W        W75317  30.091  34.499  13.314
14007W        W75318  27.093  12.174   3.733
14008W        W75319  15.223  44.447  10.540
14009W        W75320  24.069  22.200   4.603
14010W        W75321  38.982  15.278   3.853
14011W        W75322  27.028  39.029  10.518
14012W        W75323   3.330   6.200  13.977
14013W        W75324   1.840  29.101   4.240
14014W        W75325   2.401  23.657   0.310
14015W        W75326   0.390   9.289  10.412
14016W        W75327   5.881   1.328  13.899
14017W        W75328  28.605   9.167  11.104
14018W        W75329  19.244   1.344  10.614
14019W        W75330  42.967  19.749   2.685
14020W        W75331   2.768  20.743  12.946
14021W        W75332  37.952  28.676  13.355
14022W        W75333  42.467  31.993  14.909
14023W        W75334  37.494  22.588  13.930
14024W        W75335  33.509   0.857   1.215
14025W        W75336  24.587  38.031  11.924
14026W        W75337  19.059  43.855   3.334
14027W        W75338  41.365  36.496  12.976
14028W        W75339  10.314  21.220  14.509
14029W        W75340   3.825  26.593  13.937
14030W        W75341  32.469   2.936  14.858
14031W        W75342  44.841  26.632   2.381
14032W        W75343  23.207  42.492  11.382
14033W        W75344  41.496  29.572   4.215
14034W        W75345  29.515  29.582   3.740
14035W        W75346   8.897  38.884   3.727
14036W        W75347  21.038   0.308   2.900
14037W        W75348  43.894  36.351   3.713
14038W        W75349  19.750  21.249  13.404
14039W        W75350  36.454  36.012   2.814
14040W        W75351  20.708  11.235  10.455
14041W        W75352  14.290  44.927  11.070
14042W        W75353  31.525  38.063   0.359
14043W        W75354  17.683  10.151   1.882
14044W        W75355  42.813  32.396   1.369
14045W        W75356  39.061  14.243   5.198
14046W        W75357   8.805   5.302  11.037
14047W        W75358  16.787  32.393  13.829
14048W        W75359  37.500  10.266   5.278
14049W        W75360  11.153   4.368   2.299
14050W        W75361  24.148  24.990   0.744
14051W        W75362   8.189  16.688   2.876
14052W        W75363  26.186  16.198  11.540
14053W        W75364  37.564  19.126  11.064
14054W        W75365  23.022  10.731  11.446
14055W        W75366  16.304  11.739   2.241
14056W        W75367  40.859   9.356   4.699
14057W        W75368   0.291  30.987  12.539
14058W        W75369  10.763  39.407  13.790
14059W        W75370  29.957   2.752   1.424
14060W        W75371  31.065  27.560  11.863
14061W        W75372  30.548  16.582   4.773
14062W        W75373  30.154  33.119   2.855
14063W        W75374   7.302  32.539  11.425
14064W        W75375  21.626  25.112   0.378
14065W        W75376  42.862  28.507   4.760
14066W        W75377   5.253  40.844   2.209
14067W        W75378  10.269  18.790   1.311
14068W        W75379  25.186  32.946   3.867
14069W        W75380  39.530  35.016   0.795
14070W        W75381  25.710  26.601  14.395
14071W        W75382  32.404  31.935   2.776
14072W        W75383  33.124  11.639   0.479
14073W        W75384  31.947   7.331   5.249
14074W        W75385   5.328   4.312   0.751
14075W        W75386  30.490   3.878   0.372
14076W        W75387   6.310  37.085   1.449
14077W        W75388  13.238  27.652  14.472
14078W        W75389  35.365  28.945   1.288
14079W        W75390   7.804  10.860   1.245
14080W        W75391  10.804  27.544   2.411
14081W        W75392  20.694  29.577  12.559
14082W        W75393  44.453  31.904   2.194
14083W        W75394  20.244  28.455  14.357
14084W        W75395   6.305  34.511   1.888
14085W        W75396  19.757  18.646  14.981
14086W        W75397  28.002  21.512   3.318
14087W        W75398   8.316   8.287  12.563
14088W        W75399  19.640  26.063   1.315
14089W        W75400  32.961  30.429   3.661
14090W        W75401  32.885  32.400   9.665
14091W        W75402  16.093   1.882  12.996
14092W        W75403  37.006  31.032   2.379
14093W        W75404  14.631   1.290   0.403
14094W        W75405  21.550  31.531  12.570
14095W        W75406  12.218   9.684  12.553
14096W        W75407  14.282  16.235  11.414
14097W        W75408  12.271  33.445  12.898
14098W        W75409   1.908  14.294  12.513
14099W        W75410  42.883  21.610  12.034
14100W        W75411  29.975   3.740  13.895
14101W        W75412  37.931  42.484   0.445
14102W        W75413   9.273  16.687   3.257
14103W        W75414  23.599   8.171  10.896
14104W        W75415  14.710  18.243  13.833
14105W        W75416  44.786  10.865  13.050
14106W        W75417  27.168  27.081   0.307
14107W        W75418   9.806   2.354  14.881
14108W        W75419  11.733  17.710   1.303
14109W        W75420  17.779  27.002  13.794
14110W        W75421  26.068  42.779  13.954
14111W        W75422  18.582   5.412  11.459
14112W        W75423  28.177   4.388   2.412
14113W        W75424  15.100  15.688   5.187
14114W        W75425  37.838  42.879   2.252
14115W        W75426  43.984   5.391  12.918
14116W        W75427   4.792  18.051  11.068
14117W        W75428  35.442  14.190  14.957
14118W        W75429  39.966   4.354  10.949
14119W        W75430  42.986  43.917   0.462
14120W        W75431  14.619  35.367   1.406
14121W        W75432   4.797  27.123  14.923
14122W        W75433  35.082  34.928  14.892
14123W        W75434  32.536   5.855   3.680
14124W        W75435   5.304   0.972   0.738
14125W        W75436   1.370  44.971  11.530
14126W        W75437  42.315  36.013  11.547
14127W        W75438  43.456   6.908   3.261
14128W        W75439  41.983   3.830  10.436
14129W        W75440   7.834  32.558   0.403
14130W        W75441  28.987  40.428  12.522
14131W        W75442  18.191  41.924  11.431
14132W        W75443  15.297  24.990   0.290
14133W        W75444  42.501  40.980   1.759
14134W        W75445  27.975  19.635  11.499
14135W        W75446  27.029  38.339  10.406
14136W        W75447  40.050  12.720  11.113
14137W        W75448   8.702  26.632   1.909
14138W        W75449  37.029  32.117   3.341
14139W        W75450  21.162  42.956  10.460
14140W        W75451  10.191  28.178  13.954
14141W        W75452  27.554  41.873  11.549
14142W        W75453  14.110  32.507  11.045
14143W        W75454   0.929   1.781  14.496
14144W        W75455  12.688  31.404   2.861
14145W        W75456  43.434  42.429  12.035
14146W        W75457  42.492  18.749  12.557
14147W        W75458  43.353  29.586   1.411
14148W        W75459   1.809   6.893   1.880
14149W        W75460  38.470   9.852   0.826
14150W        W75461  32.516  23.644   4.239
14151W        W75462  41.039  27.607   2.777
14152W        W75463  26.468  17.762   2.767
14153W        W75464   7.861  37.495   3.162
14154W        W75465  43.347  30.086  14.506
14155W        W75466  42.335  15.148  12.445
14156W        W75467   1.246  26.970   0.250
14157W        W75468   5.702  22.156   4.799
14158W        W75469   6.319  36.870   4.197
14159W        W75470   0.314  43.364   3.815
14160W        W75471  15.094  26.087   3.749
14161W        W75472   5.353  40.049   2.841
14162W        W75473  14.765  44.879   3.156
14163W        W75474  22.610  10.377  12.062
14164W        W75475  18.163  14.095   2.694
14165W        W75476  15.184   7.872   5.097
14166W        W75477  30.570  39.347   2.254
14167W        W75478  29.466   4.778  13.367
14168W        W75479  37.845   5.847   3.690
14169W        W75480  40.474  27.954  10.005
14170W        W75481  30.002  32.538  12.572
14171W        W75482  30.990  37.904  12.049
14172W        W75483  42.388   8.166  10.581
14173W        W75484  37.454  31.595  11.510
14174W        W75485   2.863  34.921  10.464
14175W        W75486  33.120  16.281  10.578
14176W        W75487  12.792  28.033   0.855
14177W        W75488  25.523  44.806  14.838
14178W        W75489   8.200  12.622   3.175
14179W        W75490  20.687  30.160   5.591
14180W        W75491  38.384  27.678  13.911
14181W        W75492  25.062  17.678   1.323
14182W        W75493  32.569  42.786  10.573
14183W        W75494  27.151  27.627  14.378
14184W        W75495  19.765  19.716  12.539
14185W        W75496  43.322  36.964  10.551
14186W        W75497   1.248  39.867   4.807
14187W        W75498  35.432   8.166  14.863
14188W        W75499   6.250  12.257  14.446
14189W        W75500   3.435  21.147  14.455
14190W        W75501  15.725  19.610  13.360
14191W        W75502  28.610  41.304  13.896
14192W        W75503  42.819  28.674   0.469
14193W        W75504   8.896   2.227   2.406
14194W        W75505  43.463  26.094   1.696
14195W        W75506   6.732   1.826   0.853
14196W        W75507  19.125   7.237  13.896
14197W        W75508   2.406   4.398   3.798
14198W        W75509   7.782  37.838   2.814
14199W        W75510  26.165   6.803   2.290
14200W        W75511  23.564  31.056   4.604
14201W        W75512  18.218  37.410  12.069
14202W        W75513  10.276  31.938   0.416
14203W        W75514   7.764  20.632  14.363
14204W        W75515  36.875  40.314   2.325
14205W        W75516  29.094   2.449  12.354
14206W        W75517   5.271  23.620  11.388
14207W        W75518  23.570  33.408  14.881
14208W        W75519   8.835  11.722   2.840
14209W        W75520  24.693   5.255  10.941
14210W        W75521  17.626  17.636   4.315
14211W        W75522  44.472  36.887   0.782
14212W        W75523  19.557   5.819  14.805
14213W        W75524  26.055  17.725  12.913
14214W        W75525  19.093   2.958   2.306
14215W        W75526   2.840  11.220  14.916
14216W        W75527  24.615  35.944   3.863
14217W        W75528  18.660  39.325  12.031
14218W        W75529  17.683  33.065   1.305
14219W        W75530  35.977  26.650  14.932
14220W        W75531   9.887  38.338   0.871
14221W        W75532  31.498  43.910   2.219
14222W        W75533  12.650   6.826   4.355
14223W        W75534  32.940   4.767   4.352
14224W        W75535  10.210  20.620   4.718
14225W        W75536  17.065   3.444   9.987
14226W        W75537  17.206  10.255  10.113
14227W        W75538  18.748  12.821  11.531
14228W        W75539  42.393  10.635   2.383
14229W        W75540  11.757  14.321  14.427
14230W        W75541  11.863  22.064   2.185
14231W        W75542  24.003  27.691  12.410
14232W        W75543  42.318  26.602   2.263
14233W        W75544  25.580  11.269   0.343
14234W        W75545  34.101  20.727   4.663
14235W        W75546   9.763  15.254   4.703
14236W        W75547  33.925  44.485   4.237
14237W        W75548   8.714  40.511  10.556
14238W        W75549  26.976   9.768   0.469
14239W        W75550  39.453   2.944   3.230
14240W        W75551  27.000  22.195  12.475
14241W        W75552  28.123  11.710   3.791
14242W        W75553  18.140   8.389   1.801
14243W        W75554   2.393   5.387  13.957
14244W        W75555  28.053  44.485  13.387
14245W        W75556  30.942  24.699  14.786
14246W        W75557  27.534  15.783   1.912
14247W        W75558  31.439   8.822  12.838
14248W        W75559  12.287  13.614   2.846
14249W        W75560  33.547  23.567  12.867
14250W        W75561   3.740  26.001   4.340
14251W        W75562  32.549  32.496   0.896
14252W        W75563  35.424  13.152   2.273
14253W        W75564  24.496  10.342  12.422
14254W        W75565  29.606  15.185   4.193
14255W        W75566   6.761  42.911  13.497
14256W        W75567  10.797   5.800  11.887
14257W        W75568  38.043  28.565  11.009
14258W        W75569  35.388   7.906   0.908
14259W        W75570  35.549  34.102   1.920
14260W        W75571   1.377   6.188  13.884
14261W        W75572  12.243   3.937  11.431
14262W        W75573  38.395  36.456  14.382
14263W        W75574  20.153  35.386  12.042
14264W        W75575   1.352   3.816   3.742
14265W        W75576  40.537  40.892  11.489
14266W        W75577  39.822  31.115   4.790
14267W        W75578   4.698  42.859   3.665
14268W        W75579  40.357  44.450   1.850
14269W        W75580  26.533  26.458  14.906
14270W        W75581  31.918  14.634  11.121
14271W        W75582  14.157   7.411  10.088
14272W        W75583  22.035  15.756  13.987
14273W        W75584  15.798   6.191   3.743
14274W        W75585  30.604  21.600  11.380
14275W        W75586  29.003  12.700  12.394
14276W        W75587  38.071  11.652   2.308
14277W        W75588  23.693  16.309   3.271
14278W        W75589  33.448   6.730  13.398
14279W        W75590  15.283  16.305  14.451
14280W        W75591   6.723  42.407  12.071
14281W        W75592   9.715   8.889   1.282
14282W        W75593  30.586  10.836  12.465
14283W        W75594  32.531  17.735   2.294
14284W        W75595   9.837   4.704  11.019
14285W        W75596  15.280  27.598   0.431
14286W        W75597  32.515  16.592  10.626
14287W        W75598  37.931  33.459   4.617
14288W        W75599  22.227  25.713   3.843
14289W        W75600  33.899  12.273   2.725
14290W        W75601  28.164  42.438  10.496
14291W        W75602  25.636  33.942   2.250
14292W        W75603  40.000   2.877   4.257
14293W        W75604   5.216  36.469   3.222
14294W        W75605   3.429  34.033   2.806
14295W        W75606  17.082   0.933  10.595
14296W        W75607  37.063  26.466  12.409
14297W        W75608  14.182  16.776   0.825
14298W        W75609   6.266  38.534  11.454
14299W        W75610  44.364  30.516  10.082
14300W        W75611   3.388  10.712   1.882
14301W        W75612  41.459  27.963   4.287
14302W        W75613   4.321  15.167   1.269
14303W        W75614  22.044  24.602  10.411
14304W        W75615  18.196  15.275   0.382
14305W        W75616  33.619   0.970  13.007
14306W        W75617  14.729   4.272  14.825
14307W        W75618  42.431  18.262  10.493
14308W        W75619   1.861  11.749  12.428
14309W        W75620   2.234   5.700   1.770
14310W        W75621  19.211  38.340   4.744
14311W        W75622   1.766  20.250   3.166
14312W        W75623   5.340  44.796  13.404
14313W        W75624  10.819  31.915  14.819
14314W        W75625  22.081  35.462  11.061
14315W        W75626  34.487   2.829  13.420
14316W        W75627  27.019  31.580  13.850
14317W        W75628   5.687  37.475   4.288
14318W        W75629  22.111  42.024   2.866
14319W        W75630   8.169   4.426  11.000
14320W        W75631  22.200  14.824   4.667
14321W        W75632  37.404  19.553   3.271
14322W        W75633  41.380  16.193  14.862
14323W        W75634  24.570  12.258   0.747
14324W        W75635  39.460   9.161   3.178
14325W        W75636  44.972   1.863  10.953
14326W        W75637  19.689  19.169  12.858
14327W        W75638  14.293  44.805   3.324
14328W        W75639   2.880  41.830   4.324
14329W        W75640  13.814  28.065   4.639
14330W        W75641   8.209   7.184   1.265
14331W        W75642   6.680   8.863  13.927
14332W        W75643  32.420  29.111  14.965
14333W        W75644  27.078   7.261   2.284
14334W        W75645  32.919  28.460   2.343
14335W        W75646  27.132  18.737   3.354
14336W        W75647  19.045   4.729  14.998
14337W        W75648  27.033  35.078  13.528
14338W        W75649  43.513  37.858   2.194
14339W        W75650  25.084  26.076  14.935
14340W        W75651  32.089  31.993  13.895
14341W        W75652  34.070   0.425   3.191
14342W        W75653  31.527   4.901   2.729
14343W        W75654  40.968  22.163  14.846
14344W        W75655  11.780  18.237  11.021
14345W        W75656   3.337  15.677   2.779
14346W        W75657   8.776  33.448  11.451
14347W        W75658  11.679  12.788   1.756
14348W        W75659  32.615  41.399   4.352
14349W        W75660  39.817  28.532  11.942
14350W        W75661  23.714  32.941  12.472
14351W        W75662   4.400  35.531  14.419
14352W        W75663   2.794  19.694  12.001
14353W        W75664  17.650   4.258  12.884
14354W        W75665  33.454  21.250  12.053
14355W        W75666  33.993  33.516   1.836
14356W        W75667  12.342  20.150  12.958
14357W        W75668  40.356  12.705  12.384
14358W        W75669  15.141  19.140  14.829
14359W        W75670  33.947  30.551  13.362
14360W        W75671   9.761  31.898   4.627
14361W        W75672  27.473  44.480  10.477
14362W        W75673  32.006  14.318  10.928
14363W        W75674  38.831  23.501  14.920
14364W        W75675  44.397  39.045   3.269
14365W        W75676  15.243  32.979   0.841
14366W        W75677  19.588  39.838   5.107
14367W        W75678   5.217  20.644   3.756
14368W        W75679  33.028  34.871   1.379
14369W        W75680  18.232  25.047  14.919
14370W        W75681  36.079  14.792   1.220
14371W        W75682  22.723  32.030  13.520
14372W        W75683  24.689  18.678  13.871
14373W        W75684  30.131  21.023   1.771
14374W        W75685  18.278  42.525  11.076
14375W        W75686   2.830  44.480   0.440
14376W        W75687  19.672  34.545   4.222
14377W        W75688  36.953  18.216   3.330
14378W        W75689  38.497  42.359   0.837
14379W        W75690  34.405   1.257   4.626
14380W        W75691  36.084  16.312  11.543
14381W        W75692  43.916   7.800  10.543
14382W        W75693  13.188  34.909  14.330
14383W        W75694   0.271  27.095  11.483
14384W        W75695   5.810   7.387   2.347
14385W        W75696  39.001  34.900   3.362
14386W        W75697  44.838  43.343  14.856
14387W        W75698  13.299  44.454  11.414
14388W        W75699  22.670   5.753   2.796
14389W        W75700  12.284  12.173  11.495
14390W        W75701  18.205   8.320  10.946
14391W        W75702   1.759  25.528   4.818
14392W        W75703  40.313  38.509   3.337
14393W        W75704   3.398  29.017   4.132
14394W        W75705  41.936  28.035  11.408
14395W        W75706   4.314  24.985   0.869
14396W        W75707  16.790  42.517  11.856
14397W        W75708  18.635  12.762  14.944
14398W        W75709  43.392  39.479   2.231
14399W        W75710  37.536  21.617  12.848
14400W        W75711  41.003  44.478  10.472
14401W        W75712   5.415  34.466   3.750
14402W        W75713  39.833  12.137  13.443
14403W        W75714  10.763   9.654  11.947
14404W        W75715  12.278   6.194   3.348
14405W        W75716  36.006  14.179   1.758
14406W        W75717  34.988  36.991  14.879
14407W        W75718  27.168   1.441  12.061
14408W        W75719  14.247  21.230   3.685
14409W        W75720  34.942  43.810   2.741
14410W        W75721   7.389  13.603  11.119
14411W        W75722  25.983  40.460   1.211
14412W        W75723  44.819  17.138   1.434
14413W        W75724  32.059  37.396   1.844
14414W        W75725   5.346   2.933   0.409
14415W        W75726  36.869  37.929  13.510
14416W        W75727  44.415  25.050   5.142
14417W        W75728  11.246  20.592  11.047
14418W        W75729  12.148  44.943  10.472
14419W        W75730  40.950  11.852  10.475
14420W        W75731  13.191  14.299   4.340
14421W        W75732  18.718  16.233  11.069
14422W        W75733   8.190   9.189   4.222
14423W        W75734  17.572  33.084   4.807
14424W        W75735  10.187  17.678  14.836
14425W        W75736  38.000   1.791  11.069
14426W        W75737  32.590  27.980   4.309
14427W        W75738  31.950  17.151   4.192
14428W        W75739  39.970  36.410  12.858
14429W        W75740  31.510  18.701  12.577
14430W        W75741  14.237  19.117   2.251
14431W        W75742  29.430  16.095  12.556
14432W        W75743  43.917   1.909  14.349
14433W        W75744  26.544   7.840  12.061
14434W        W75745  25.566  20.092   0.313
14435W        W75746   2.960  19.061  11.094
14436W        W75747  24.021  40.407   2.207
14437W        W75748  29.133  15.325  14.914
14438W        W75749  41.368  23.002   2.190
14439W        W75750  11.798  11.812  11.875
14440W        W75751  36.582  12.735   0.353
14441W        W75752   8.681  38.532  12.559
14442W        W75753  41.419  27.190   2.205
14443W        W75754  22.133   4.385   3.257
14444W        W75755  28.098  19.113  13.420
14445W        W75756  25.528  12.184   4.297
14446W        W75757  14.299   9.648   4.683
14447W        W75758  33.956  25.201  11.974
14448W        W75759  44.345  25.502   3.314
14449W        W75760  11.744  20.735  13.420
14450W        W75761  16.197   1.837   4.303
14451W        W75762  35.950  30.021   0.818
14452W        W75763   6.777  44.943  12.356
14453W        W75764   5.265  18.158   1.818
14454W        W75765  44.881  21.235   0.471
14455W        W75766  31.998  12.303  12.037
14456W        W75767  31.540  39.033   0.955
14457W        W75768  13.743  12.846   1.894
14458W        W75769  17.605  26.199   0.960
14459W        W75770  26.065  40.508   0.305
14460W        W75771  29.433  10.874  13.930
14461W        W75772  17.215  41.333   0.417
14462W        W75773  26.566   8.335   0.754
14463W        W75774  34.443   7.326  12.533
14464W        W75775  14.761  10.164  14.832
14465W        W75776  20.590  16.771  14.476
14466W        W75777   9.885  25.477  10.546
14467W        W75778  23.990   4.260   3.799
14468W        W75779  17.200  29.098   1.756
14469W        W75780  19.225   4.721  11.986
14470W        W75781   2.228  23.525   3.248
14471W        W75782  21.710  10.363   0.966
14472W        W75783  37.544   9.300   1.404
14473W        W75784  17.062  27.017   1.798
14474W        W75785  18.567  20.134  11.507
14475W        W75786  37.966   4.282   4.159
14476W        W75787   4.825  16.726   3.174
14477W        W75788  17.273  11.659   0.808
14478W        W75789   2.356  40.841  14.858
14479W        W75790   5.198  19.538  13.430
14480W        W75791  15.284   7.191   0.325
14481W        W75792  33.422  36.051   2.332
14482W        W75793  13.680  19.046   1.351
14483W        W75794   1.948   4.328  10.540
14484W        W75795  33.476  35.918   4.171
14485W        W75796  10.269   1.773   3.802
14486W        W75797  26.689  18.612   0.780
14487W        W75798  36.547   0.945  10.999
14488W        W75799  17.650  24.645   1.421
14489W        W75800  29.926  27.068   3.753
14490W        W75801  35.887  37.440   3.771
14491W        W75802  19.085   4.790   0.353
14492W        W75803   1.317   4.423   1.252
14493W        W75804  33.978  44.929  13.341
14494W        W75805  43.274   5.371  13.497
14495W        W75806  28.046  30.636  11.874
14496W        W75807  39.464  41.036  13.022
14497W        W75808   0.458  11.355  10.621
14498W        W75809  19.105  32.453   0.337
14499W        W75810  13.154  11.665   2.714
14500W        W75811   3.773  21.025   4.193
14501W        W75812  17.768  41.498   2.719
14502W        W75813  26.458  20.626   0.799
14503W        W75814  16.319  12.734   3.299
14504W        W75815  38.041  30.609  11.611
14505W        W75816  37.424  28.515  12.552
14506W        W75817   6.860  11.167   2.879
14507W        W75818  36.909  28.610   2.334
14508W        W75819  10.371  26.574   1.236
14509W        W75820  22.141  25.562  11.016
14510W        W75821  41.825  21.563   1.852
14511W        W75822  43.832  16.566  14.776
14512W        W75823  32.973  15.307   3.298
14513W        W75824  22.091  12.710   2.842
14514W        W75825  22.225  36.383  14.373
14515W        W75826  15.096   1.789  13.012
14516W        W75827   2.395  22.591   4.676
14517W        W75828  14.259  14.318   4.209
14518W        W75829  21.638   6.251   2.367
14519W        W75830  26.665  32.538   1.287
14520W        W75831   7.683   2.741  13.041
14521W        W75832   2.349  31.990   2.178
14522W        W75833  35.091  18.136  14.278
14523W        W75834  40.960  16.181  10.608
14524W        W75835   2.442  27.067  13.416
14525W        W75836  38.960  20.132  10.417
14526W        W75837   9.859   1.393  11.552
14527W        W75838   5.407   0.335  12.854
14528W        W75839   3.305  43.370  13.484
14529W        W75840  38.012   0.963  12.855
14530W        W75841  34.397  25.555   4.704
14531W        W75842  19.111  10.329   3.783
14532W        W75843  18.689  40.346   3.378
14533W        W75844  36.366   3.404  10.580
14534W        W75845  33.899  18.073  12.385
14535W        W75846  20.716  39.019   0.465
14536W        W75847  34.100  27.117   2.327
14537W        W75848  10.260   9.315  12.835
14538W        W75849  17.610  33.499   0.483
14539W        W75850  19.122  38.559  13.849
14540W        W75851   4.418  35.512   1.802
14541W        W75852  42.314  22.585  14.461
14542W        W75853  39.441  25.593   4.679
14543W        W75854  27.189  36.460   1.779
14544W        W75855  28.581  34.010   3.340
14545W        W75856  17.596  32.598   1.815
14546W        W75857  23.022  33.613   4.260
14547W        W75858  12.835   2.745   4.781
14548W        W75859  36.348  41.449   2.293
14549W        W75860  19.261  44.290   2.326
14550W        W75861  36.938  37.539   2.745
14551W        W75862  23.548  35.028   4.807
14552W        W75863  18.683   7.697  12.914
14553W        W75864   8.696  15.127  14.407
14554W        W75865   7.336  36.386   1.276
14555W        W75866   3.363   7.667  13.813
14556W        W75867  24.572  15.263   4.184
14557W        W75868  17.704  12.627  13.007
14558W        W75869   6.393  12.232   2.261
14559W        W75870  42.798  39.008   5.262
14560W        W75871   1.327  13.178  11.434
14561W        W75872   4.842  29.062  11.960
14562W        W75873  26.021   9.380   3.207
14563W        W75874  36.588   2.725   3.255
14564W        W75875   9.833  22.126  13.489
14565W        W75876  26.017   5.714  13.011
14566W        W75877  34.447  15.167  14.912
14567W        W75878   0.270  41.991  14.014
14568W        W75879   6.265  29.652  14.413
14569W        W75880  33.594  24.537   4.701
14570W        W75881   8.840  41.821   3.183
14571W        W75882  30.110  11.220   0.746
14572W        W75883  10.294   4.374  14.317
14573W        W75884   9.802   2.469   1.701
14574W        W75885   3.375  41.011  13.987
14575W        W75886  20.718  38.332   2.779
14576W        W75887  21.224   0.800  11.113
14577W        W75888   6.892   6.877  13.836
14578W        W75889   8.404  13.297   4.202
14579W        W75890  38.937  44.429  11.921
14580W        W75891  11.637   3.423   4.795
14581W        W75892  35.585  11.263  11.524
14582W        W75893  16.240  32.915  10.556
14583W        W75894  14.303  35.497   2.212
14584W        W75895  12.846  25.631   1.875
14585W        W75896  34.531  23.622   0.365
14586W        W75897  38.556   2.891   1.888
14587W        W75898  29.108  37.922  11.535
14588W        W75899   8.754  20.245  14.378
14589W        W75900  14.812  15.233   4.794
14590W        W75901   2.912   5.927   3.778
14591W        W75902   7.739  31.522   4.329
14592W        W75903  27.142  34.461   3.785
14593W        W75904  14.714  13.325  14.423
14594W        W75905  34.932  31.909   0.397
14595W        W75906  44.774  18.253  14.984
14596W        W75907  27.593  29.497   1.348
14597W        W75908  44.981  31.552  12.575
14598W        W75909  44.915  31.899   2.898
14599W        W75910  35.381   6.332   3.382
14600W        W75911  34.929  19.684   1.354
14601W        W75912  17.169  14.832   1.368
14602W        W75913  20.107  15.280   3.169
14603W        W75914  21.045   1.850  14.299
14604W        W75915   3.732  19.537  10.563
14605W        W75916  18.105  25.525  14.424
14606W        W75917  21.722  29.549   0.421
14607W        W75918   4.887   0.749  12.029
14608W        W75919  20.701  27.110   1.876
14609W        W75920  37.856   7.716  10.902
14610W        W75921  22.054  27.177  11.864
14611W        W75922  28.143  16.125   3.216
14612W        W75923  35.374  17.646  12.420
14613W        W75924  33.897  20.734  13.461
14614W        W75925  16.757  25.035  11.457
14615W        W75926  34.430   4.319   4.671
14616W        W75927  12.169   8.686  10.975
14617W        W75928  17.286   2.722  13.354
14618W        W75929  20.681  20.111  13.841
14619W        W75930  33.007  40.407   3.844
14620W        W75931  29.051   2.836   5.144
14621W        W75932  23.074  34.432  10.633
14622W        W75933  36.524   1.394   3.354
14623W        W75934  29.590   4.852   2.401
14624W        W75935  13.325  44.908   1.427
14625W        W75936  21.243  33.102   4.196
14626W        W75937  20.202  16.170   3.753
14627W        W75938   1.832  27.186   3.226
14628W        W75939  44.921  21.627  14.346
14629W        W75940  22.166  39.460  13.401
14630W        W75941  11.300  20.122   4.801
14631W        W75942  18.170  19.095  13.522
14632W        W75943   2.768  10.853  10.540
14633W        W75944  10.274  28.953  14.015
14634W        W75945   8.732  10.722  12.545
14635W        W75946  40.380   8.865  11.875
14636W        W75947  28.549  12.279  12.943
14637W        W75948  23.547  38.032   3.377
14638W        W75949  36.423  40.842   1.884
14639W        W75950  12.664  42.968  14.310
14640W        W75951  36.080   0.902   3.258
14641W        W75952  29.942   4.260  14.451
14642W        W75953  34.101  19.222  14.991
14643W        W75954  26.684  20.257   0.846
14644W        W75955  41.329  21.249  11.108
14645W        W75956  13.278  36.444  13.448
14646W        W75957  24.183  18.117  11.491
14647W        W75958  26.677  24.661  13.986
14648W        W75959  26.566  28.973  11.408
14649W        W75960  44.759  26.670  14.461
14650W        W75961   1.945   3.793   3.863
14651W        W75962  17.612  35.434  12.910
14652W        W75963   0.353   9.884   0.414
14653W        W75964  33.093  12.225   4.240
14654W        W75965  20.155  20.096  11.582
14655W        W75966  27.530   7.187   3.212
14656W        W75967  29.166  22.650   0.765
14657W        W75968   6.306  44.308  10.444
14658W        W75969  19.134  22.610  12.918
14659W        W75970  15.797  18.551   3.795
14660W        W75971  23.066  27.508  12.080
14661W        W75972   5.255  30.497   0.432
14662W        W75973  27.942   9.767  11.028
14663W        W75974  33.048  40.832  12.487
14664W        W75975  27.502  37.545  14.964
14665W        W75976   7.908  29.489   3.679
14666W        W75977  24.707  27.009  13.995
14667W        W75978   9.256  22.113  13.468
14668W        W75979  35.536   6.731   2.709
14669W        W75980  14.164  41.474  10.894
14670W        W75981  32.536   1.305  12.823
14671W        W75982   8.679  14.310   2.784
14672W        W75983   9.213   8.663   0.913
14673W        W75984  44.466   9.199  11.882
14674W        W75985  28.644  40.949  10.968
14675W        W75986  18.288   2.311  13.430
14676W        W75987   8.364  29.081   3.193
14677W        W75988  21.574  29.109  14.005
14678W        W75989   5.740  37.490  12.067
14679W        W75990  38.451   6.764  14.418
14680W        W75991  20.196  36.568  10.963
14681W        W75992  44.841  25.496  14.004
14682W        W75993  38.896  12.802  14.340
14683W        W75994   5.197  18.712   2.185
14684W        W75995  24.722   5.437  11.604
14685W        W75996  15.246   3.223   3.218
14686W        W75997  38.077  14.298  11.484
14687W        W75998  36.020  21.549  10.576
14688W        W75999   4.382   2.942  12.079
14689W        W76000  38.340  28.177  13.009
14690W        W76001   0.939   2.884  13.822
14691W        W76002  11.803  27.145   1.389
14692W        W76003  26.589  23.532  11.974
14693W        W76004  23.141  27.969   2.385
14694W        W76005  43.907  33.471   3.821
14695W        W76006  22.036  36.981  11.927
14696W        W76007   0.925  16.247   2.713
14697W        W76008  39.409   0.743   1.407
14698W        W76009  44.922   9.211  13.436
14699W        W76010  10.791  27.973   2.841
14700W        W76011  32.403  24.549  12.579
14701W        W76012   4.305  15.150   3.640
14702W        W76013  12.223   4.842   3.822
14703W        W76014  26.961  11.191  14.367
14704W        W76015  15.625  34.550  10.979
14705W        W76016  21.749   0.392  14.776
14706W        W76017   0.921   4.845   4.130
14707W        W76018  39.956  28.978  14.024
14708W        W76019  10.804  42.966  13.511
14709W        W76020  11.636   2.954  13.936
14710W        W76021  44.895  24.203   2.283
14711W        W76022   3.247  39.872  14.316
14712W        W76023   3.853  44.424   0.403
14713W        W76024  12.165  11.344  13.049
14714W        W76025  16.210  40.858   4.834
14715W        W76026  22.219  34.464   2.741
14716W        W76027  40.976  40.996   0.283
14717W        W76028  19.238  14.629   1.912
14718W        W76029  26.111  10.340  14.363
14719W        W76030  23.719   5.240  10.916
14720W        W76031  37.883  11.214   0.779
14721W        W76032  35.539  24.572   2.774
14722W        W76033  27.594  14.127  12.485
14723W        W76034   3.415  13.612  11.049
14724W        W76035  21.128  18.098  11.511
14725W        W76036  41.864   4.273  13.800
14726W        W76037  32.935  11.703   0.965
14727W        W76038  42.928  17.621   0.299
14728W        W76039  43.785  30.602   2.665
14729W        W76040  38.542  35.512  12.066
14730W        W76041   0.765   6.192   5.119
14731W        W76042   4.419   1.809  11.469
14732W        W76043  10.303  42.862  10.103
14733W        W76044  32.920  36.010   4.803
14734W        W76045   5.916  42.953   2.663
14735W        W76046   3.285  35.972   0.750
14736W        W76047  19.090  36.906  11.061
14737W        W76048  32.992  10.878   1.915
14738W        W76049  27.064  33.470  14.965
14739W        W76050  38.472  22.538  10.457
14740W        W76051   4.809  30.026   2.354
14741W        W76052   5.799  24.564  11.892
14742W        W76053  13.649  41.978  11.395
14743W        W76054  23.634  39.933  11.554
14744W        W76055  24.644  11.202   4.241
14745W        W76056  26.609  21.236  13.422
14746W        W76057  28.115  39.046   3.764
14747W        W76058  42.018  41.375  13.547
14748W        W76059   1.262  35.972   2.886
14749W        W76060  17.718  13.781   1.881
14750W        W76061  27.639  19.117   4.326
14751W        W76062  28.622  12.212  13.824
14752W        W76063  11.216  10.853  11.500
14753W        W76064  20.748   3.356   2.361
14754W        W76065  36.940   4.723  11.553
14755W        W76066  20.745  44.502  11.119
14756W        W76067  43.482  19.248   2.414
14757W        W76068   7.394   7.291  14.965
14758W        W76069  23.663  44.501   4.204
14759W        W76070  16.270   3.835   1.352
14760W        W76071   7.814  30.086   2.768
14761W        W76072  38.448  35.405  14.495
14762W        W76073  16.170  24.084  12.412
14763W        W76074  36.925  33.460   1.303
14764W        W76075  13.242   9.821   3.353
14765W        W76076  27.107  25.213  14.982
14766W        W76077  32.429  19.281  12.426
14767W        W76078  43.345  34.919  11.885
14768W        W76079  29.078  41.389   2.342
14769W        W76080  29.131  11.763   3.666
14770W        W76081  21.574   1.366   4.605
14771W        W76082  44.373  25.205  12.486
14772W        W76083  20.547   5.235   3.341
14773W        W76084  43.937   1.818  11.979
14774W        W76085  29.436  31.558   0.301
14775W        W76086  10.338  19.063  12.967
14776W        W76087  24.529  44.288  12.903
14777W        W76088  21.078   6.386   0.943
14778W        W76089  27.484  43.290   4.813
14779W        W76090   9.359  26.652   0.404
14780W        W76091  38.039  32.909   1.280
14781W        W76092   2.780   6.351  11.457
14782W        W76093  23.221  12.176   0.941
14783W        W76094  32.419  14.188  12.037
14784W        W76095  30.953  26.699  14.356
14785W        W76096  25.127  42.029  10.565
14786W        W76097  22.015  29.120  10.898
14787W        W76098  31.996  14.329  12.979
14788W        W76099  13.273   8.313  11.121
14789W        W76100  23.555  15.715   0.890
14790W        W76101  34.885  34.900   1.280
14791W        W76102  20.630   6.221   4.823
14792W        W76103  26.059  39.882  13.525
14793W        W76104   7.695  20.663   2.275
14794W        W76105  16.138  10.272  14.474
14795W        W76106  10.311  42.307  12.077
14796W        W76107  35.566  20.155   1.266
14797W        W76108   1.772  16.134   3.824
14798W        W76109  23.720  13.657  14.832
14799W        W76110   5.289  28.173  10.933
14800W        W76111  23.231  15.313  13.848
14801W        W76112  43.859  15.275   4.191
14802W        W76113  33.524  10.235   1.226
14803W        W76114  12.172  11.245  14.863
14804W        W76115  24.154  35.915   1.416
14805W        W76116   3.403  39.445  14.431
14806W        W76117  44.996  20.061   1.794
14807W        W76118  38.413  12.803  12.026
14808W        W76119  15.611  41.826   0.769
14809W        W76120   5.431  13.726   3.673
14810W        W76121   1.380  23.159  14.408
14811W        W76122  33.593  25.120  13.797
14812W        W76123   0.844   7.187  10.465
14813W        W76124  21.050  10.800  11.384
14814W        W76125  13.224  22.599   4.718
14815W        W76126  11.762  15.226  11.576
14816W        W76127  30.444  26.632  13.334
14817W        W76128   1.297   6.697   1.920
14818W        W76129  17.289  42.502  13.927
14819W        W76130   2.906  44.754   0.449
14820W        W76131  20.752   1.789   1.439
14821W        W76132  21.692  16.191  13.494
14822W        W76133  41.791  20.073   1.772
14823W        W76134  24.989  40.545   0.456
14824W        W76135  39.821   4.413   2.214
14825W        W76136  13.175   1.239  13.501
14826W        W76137  18.112  36.992   4.758
14827W        W76138  26.192  31.127   4.723
14828W        W76139  22.734  17.296  10.979
14829W        W76140   3.794  32.461   0.941
14830W        W76141   5.885  14.817  12.537
14831W        W76142  36.373  27.521   2.387
14832W        W76143   2.961  32.404   0.261
14833W        W76144  27.583   7.312  12.836
14834W        W76145   7.910  43.389   1.334
14835W        W76146  20.094  23.569  14.977
14836W        W76147  26.604  25.502   4.256
14837W        W76148   8.292  13.233   3.234
14838W        W76149   2.727  38.913  10.136
14839W        W76150  34.412  35.571   0.799
14840W        W76151  36.457  39.547  12.970
14841W        W76152   7.829  19.100  12.057
14842W        W76153  39.883  37.533   2.666
14843W        W76154   5.305   5.313  13.937
14844W        W76155  35.419  36.476  12.406
14845W        W76156   1.935  16.801  11.945
14846W        W76157  11.313  36.097  11.539
14847W        W76158  34.528  32.966  14.397
14848W        W76159  25.204  40.400  11.942
14849W        W76160   3.439  25.134   0.310
14850W        W76161  42.486  23.144   0.418
14851W        W76162  37.476   8.322   1.413
14852W        W76163  38.415   9.381   3.205
14853W        W76164  20.764  39.986   1.334
14854W        W76165  24.713  36.886   2.273
14855W        W76166  11.735  25.100  11.526
14856W        W76167  20.200  25.189  11.396
14857W        W76168  20.274  34.518   1.762
14858W        W76169  33.588  34.913   3.727
14859W        W76170   8.354  42.851  10.606
14860W        W76171  28.526  12.821   4.732
14861W        W76172   2.238  18.749  13.792
14862W        W76173  21.557   7.745  11.411
14863W        W76174   9.347  33.917  10.503
14864W        W76175  17.202  15.729   0.413
14865W        W76176  24.636   1.864   1.735
14866W        W76177   3.824  22.085  12.457
14867W        W76178   7.215  20.538  11.864
14868W        W76179  41.381  24.691   3.782
14869W        W76180  40.900  36.006   0.776
14870W        W76181   9.859  31.948   3.192
14871W        W76182   0.383  36.552  11.999
14872W        W76183  17.241  24.495  11.968
14873W        W76184  36.553  15.804  11.603
14874W        W76185  29.667  15.109   1.933
14875W        W76186   3.784  18.184  10.502
14876W        W76187  42.491  12.812  11.947
14877W        W76188  16.802   5.852  14.814
14878W        W76189  18.249  22.531   4.248
14879W        W76190   0.956   7.183   0.277
14880W        W76191  28.473  20.681  11.612
14881W        W76192  13.616   6.277  11.939
14882W        W76193   4.426  26.157  12.965
14883W        W76194   5.886  27.496   1.863
14884W        W76195   3.324  37.082   4.208
14885W        W76196  17.782  34.001   0.760
14886W        W76197  13.213  40.435   2.246
14887W        W76198  12.737   3.868  11.939
14888W        W76199   7.667  29.165   3.850
14889W        W76200   0.939  30.604   0.844
14890W        W76201  30.057  24.224  12.390
14891W        W76202   0.955  30.654   2.696
14892W        W76203   6.317   8.766  12.464
14893W        W76204  41.883  18.747  12.976
14894W        W76205   2.848  10.241   1.272
14895W        W76206  32.901  16.311  13.410
14896W        W76207  26.091  16.128   4.234
14897W        W76208  15.791  26.139  12.370
14898W        W76209   5.885  40.979  10.428
14899W        W76210  20.598  43.342  10.589
14900W        W76211   7.186  19.652  12.415
14901W        W76212  23.721   2.788   0.291
14902W        W76213  18.565  11.677   0.770
14903W        W76214  33.484  11.219   3.179
14904W        W76215  36.579  32.063   4.753
14905W        W76216  38.964   3.401   1.298
14906W        W76217  12.830  25.563   2.872
14907W        W76218  31.020  10.257  11.085
14908W        W76219   1.759  41.033   3.767
14909W        W76220  41.964  27.012  13.966
14910W        W76221  18.588   7.412   0.362
14911W        W76222  37.006  27.079   2.706
14912W        W76223  29.031  16.774   0.819
14913W        W76224  20.152  18.650  10.149
14914W        W76225  30.543  19.238   2.392
14915W        W76226  34.535   3.296  12.928
14916W        W76227  25.691  38.488  13.061
14917W        W76228  11.784  28.618  11.987
14918W        W76229  33.537   3.442   3.148
14919W        W76230  43.971  28.011   0.390
14920W        W76231  22.176  18.228  13.962
14921W        W76232  26.521  14.673   3.629
14922W        W76233  36.097   9.268   4.710
14923W        W76234  31.621  43.887   1.349
14924W        W76235  28.541  19.166  13.315
14925W        W76236   6.873   4.702   4.669
14926W        W76237  25.988  26.191  14.286
14927W        W76238  18.142   6.292  10.010
14928W        W76239  40.901  26.085   2.717
14929W        W76240  41.824  20.208  13.889
14930W        W76241  29.594   6.815  11.401
14931W        W76242  34.465  15.135   0.776
14932W        W76243  31.438  11.816   0.326
14933W        W76244  26.187  18.252   4.821
14934W        W76245  38.538  26.987  14.025
14935W        W76246  30.540  26.000  12.523
14936W        W76247  11.696   0.866  11.451
14937W        W76248   3.335  38.376  13.319
14938W        W76249  24.480  18.097   1.220
14939W        W76250  10.739  10.159  14.482
14940W        W76251  10.302  30.493  14.478
14941W        W76252  25.192  20.657  12.878
14942W        W76253  38.561   2.437  13.396
14943W        W76254  12.770  42.846   0.813
14944W        W76255   6.276   9.730   3.148
14945W        W76256  34.922  11.811  10.607
14946W        W76257  24.591   6.886   0.792
14947W        W76258  17.285  12.178  12.080
14948W        W76259  43.827   8.204  13.920
14949W        W76260  38.997  35.045  12.072
14950W        W76261  31.124   0.763   3.690
14951W        W76262  41.356  41.791  12.067
14952W        W76263  20.631  17.731  12.077
14953W        W76264  28.464  29.082   3.746
14954W        W76265  13.612  37.011   1.307
14955W        W76266   9.195  19.257   3.755
14956W        W76267  35.582   8.778   2.821
14957W        W76268  37.854  26.494  12.878
14958W        W76269  38.035  36.467   9.994
14959W        W76270   1.866  25.605   0.363
14960W        W76271  39.885  39.410  13.425
14961W        W76272  37.915  22.246  11.923
14962W        W76273  26.572  34.964   2.746
14963W        W76274   9.328  20.695   4.745
14964W        W76275  18.696  31.091  14.375
14965W        W76276   5.915  18.751  11.979
14966W        W76277  33.978  31.920  14.313
14967W        W76278  32.566   1.268   2.720
14968W        W76279   1.834   4.408  11.865
14969W        W76280  16.127   9.791   2.804
14970W        W76281  29.596   3.435  14.287
14971W        W76282  41.357  31.129  10.540
14972W        W76283  41.823  26.569   4.601
14973W        W76284  35.580  28.981  11.934
14974W        W76285   5.934  13.228  14.309
14975W        W76286   4.414  34.115  10.994
14976W        W76287  12.626  38.004  10.932
14977W        W76288  11.323  42.434  13.321
14978W        W76289   0.453  35.911  11.375
14979W        W76290  30.523   7.809   0.787
14980W        W76291   1.363  35.887   1.823
14981W        W76292  37.856   9.796   3.707
14982W        W76293  24.036  31.521  14.999
14983W        W76294  30.090   3.940  11.914
14984W        W76295   7.399  25.111   2.356
14985W        W76296  39.409  39.022   0.245
14986W        W76297  26.027  43.924   0.379
14987W        W76298  37.931  34.448   0.761
14988W        W76299  21.259   6.910   2.322
14989W        W76300   2.839  35.365   3.842
14990W        W76301  13.221  44.878  12.030
14991W        W76302  43.308  17.564  11.555
14992W        W76303  29.097  27.631   2.859
14993W        W76304   6.816  36.484  11.867
14994W        W76305  20.133  37.895  14.980
14995W        W76306  22.043  44.499  14.849
14996W        W76307  11.805   6.771  11.502
14997W        W76308  32.446  29.113  12.829
14998W        W76309  37.417  41.366  11.930
14999W        W76310  25.214   1.930  12.080
15000W        W76311  36.086  10.248  12.887
15001W        W76312  18.632   4.279   1.930
15002W        W76313  29.561  41.333  12.554
15003W        W76314  13.801  21.690  12.983
15004W        W76315   2.238  22.539  11.580
15005W        W76316  35.942  16.180   1.358
15006W        W76317  42.375  27.044   4.239
15007W        W76318  11.663  42.010  13.461
15008W        W76319  41.467   8.793  13.523
15009W        W76320  17.570  43.493   4.634
15010W        W76321   7.819  26.660   9.943
15011W        W76322   1.927  12.130   0.317
15012W        W76323  31.048  16.713  13.492
15013W        W76324  11.788   7.803   0.782
15014W        W76325  32.100  13.131  13.983
15015W        W76326  27.023   4.841  14.780
15016W        W76327  19.675  15.814   3.632
15017W        W76328  26.535  31.538   4.122
15018W        W76329   8.168  16.204   0.421
15019W        W76330  42.429  34.487  12.444
15020W        W76331  13.238  31.119   0.367
15021W        W76332  10.242   6.318  11.899
15022W        W76333  21.744  20.080   0.449
15023W        W76334  33.425  38.895  11.094
15024W        W76335  33.062  42.023  12.560
15025W        W76336   1.867  37.908   2.359
15026W        W76337  33.002  43.443  12.433
15027W        W76338  19.654  12.271  13.445
15028W        W76339  28.137   8.355  10.994
15029W        W76340  17.644  44.341  12.977
15030W        W76341   4.838  21.564   0.745
15031W        W76342   5.852   7.721   1.918
15032W        W76343   2.392   0.261   2.242
15033W        W76344  37.415  37.407  10.985
15034W        W76345  41.878  40.348   4.730
15035W        W76346  16.658   2.798   3.667
15036W        W76347  20.681  21.617  14.296
15037W        W76348  29.430   4.862   1.413
15038W        W76349  14.827   0.908   2.359
15039W        W76350   9.767  35.092   1.370
15040W        W76351   7.278  18.091  12.427
15041W        W76352  26.100  39.336  10.947
15042W        W76353   3.800  30.090   0.881
15043W        W76354  13.184  21.618   3.281
15044W        W76355  38.457  22.140  14.338
15045W        W76356  17.799   2.368  11.374
15046W        W76357  24.098  15.656   2.236
15047W        W76358  14.739  12.205   3.261
15048W        W76359  20.269  27.519  12.982
15049W        W76360  33.950  44.916  13.796
15050W        W76361  37.350  37.911   5.575
15051W        W76362  39.851  28.470   4.267
15052W        W76363   3.243  20.540  13.407
15053W        W76364  14.627  26.534   1.433
15054W        W76365  22.147  11.211  11.959
15055W        W76366  43.901  30.037  12.550
15056W        W76367  22.510  22.060   2.350
15057W        W76368  21.644  23.686  13.887
15058W        W76369  12.339  33.494  10.483
15059W        W76370  23.493   1.433   4.766
15060W        W76371  37.392   4.356  14.489
15061W        W76372  25.106  24.626  13.323
15062W        W76373  21.754   7.735   3.372
15063W        W76374  37.046  33.424  10.910
15064W        W76375  31.114  31.436   3.864
15065W        W76376  26.541   6.219  11.433
15066W        W76377   2.350   4.725  10.610
15067W        W76378  14.151  37.377   2.186
15068W        W76379   4.441   9.335  13.918
15069W        W76380   7.815   6.305  10.149
15070W        W76381  13.669  44.340  12.349
15071W        W76382  30.438  11.237  14.514
15072W        W76383  24.985  44.891   4.219
15073W        W76384  25.962  27.190   3.842
15074W        W76385   9.818  31.612   2.872
15075W        W76386  24.073   7.202   1.744
15076W        W76387  13.309  16.090   1.407
15077W        W76388  35.575  26.644  14.842
15078W        W76389  40.996   0.293   4.275
15079W        W76390  22.661  10.731   0.956
15080W        W76391  17.101  42.327   4.724
15081W        W76392  29.569  16.148  14.352
15082W        W76393  43.430  29.444  10.943
15083W        W76394   6.205  38.413   0.256
15084W        W76395  22.700  38.849   2.320
15085W        W76396   0.403  10.160   3.299
15086W        W76397   2.862  23.498   0.437
15087W        W76398  34.955  12.227   3.806
15088W        W76399  16.118  37.833   1.833
15089W        W76400   9.247  30.484  10.607
15090W        W76401  35.991   5.919   3.155
15091W        W76402   2.964   4.437  13.028
15092W        W76403  43.315  12.210   4.243
15093W        W76404  33.514  12.126  10.593
15094W        W76405  35.373  19.757  11.516
15095W        W76406  10.247   7.842   4.628
15096W        W76407   4.919  29.498   3.225
15097W        W76408   7.326  17.687   1.431
15098W        W76409   6.881  39.843   2.403
15099W        W76410   7.748  27.959   3.664
15100W        W76411  40.390  18.623   2.310
15101W        W76412  42.358  25.075   1.216
15102W        W76413  27.489  18.544  10.889
15103W        W76414  34.103   6.229  10.597
15104W        W76415  32.424  20.224   0.755
15105W        W76416  34.492  40.346  12.012
15106W        W76417  31.010  19.147  13.834
15107W        W76418   5.816  19.647   0.765
15108W        W76419  38.854   3.287  13.542
15109W        W76420  40.807  41.478  14.001
15110W        W76421  23.203   4.937   4.684
15111W        W76422  30.977  13.227   3.667
15112W        W76423  31.022  33.610   1.382
15113W        W76424  43.998  18.052  14.438
15114W        W76425  12.707   4.860   3.825
15115W        W76426  24.215  42.338   0.288
15116W        W76427  29.643   9.355  14.283
15117W        W76428  24.043  21.705  13.841
15118W        W76429  27.054   9.330  12.468
15119W        W76430  10.641  38.531   2.742
15120W        W76431  21.559  21.137  12.948
15121W        W76432   1.295  17.734  11.424
15122W        W76433  10.360   6.258   1.923
15123W        W76434  11.818   8.769   4.207
15124W        W76435   1.284  11.226  11.911
15125W        W76436  37.389  31.576   1.820
15126W        W76437  40.860  27.552   0.462
15127W        W76438  18.112  40.984   1.857
15128W        W76439  35.365   3.794  12.043
15129W        W76440  20.101  24.174  11.008
15130W        W76441   7.250  16.183   0.247
15131W        W76442  18.727  31.513   3.367
15132W        W76443  22.601  20.143   0.866
15133W        W76444   2.360  19.586  12.883
15134W        W76445   6.358  40.406  11.013
15135W        W76446   3.460  18.181  13.905
15136W        W76447   7.389  37.081  12.394
15137W        W76448  27.034  37.479   4.219
15138W        W76449   1.790  26.181   4.756
15139W        W76450  38.423  38.944   0.426
15140W        W76451  19.584   1.426  11.951
15141W        W76452   8.682  33.392   2.287
15142W        W76453  35.104  31.452  14.330
15143W        W76454   2.276   1.305   1.443
15144W        W76455  42.423  10.731   0.776
15145W        W76456  34.601  32.526   0.740
15146W        W76457  42.031   6.326  12.525
15147W        W76458  24.079  35.063   4.778
15148W        W76459  39.977  25.185  13.312
15149W        W76460   4.279  31.928   0.910
15150W        W76461  41.411  27.650   0.273
15151W        W76462  32.012   4.421   2.239
15152W        W76463  20.189   3.773   3.858
15153W        W76464   5.836  27.504  11.932
15154W        W76465   2.967  44.495  10.462
15155W        W76466  40.857  41.925  10.523
15156W        W76467  42.426   9.342   3.641
15157W        W76468  23.160  17.586   9.640
15158W        W76469  24.083  43.353  12.565
15159W        W76470  44.271  18.576  14.842
15160W        W76471  20.209  42.788   4.251
15161W        W76472   8.215  29.977   1.237
15162W        W76473  39.928  18.625  13.845
15163W        W76474   6.199  25.155  12.896
15164W        W76475   0.769  15.182  10.607
15165W        W76476  24.600  23.137   2.179
15166W        W76477  38.973  21.753  11.609
15167W        W76478  31.495  10.161  11.115
15168W        W76479  12.845  22.525   4.793
15169W        W76480   3.817  12.164  14.511
15170W        W76481  36.973  21.755  12.823
15171W        W76482  13.277   5.401   1.214
15172W        W76483  24.554  11.626  13.338
15173W        W76484  25.157  37.566  14.797
15174W        W76485  25.475  24.654   1.266
15175W        W76486  24.478  25.578  11.899
15176W        W76487   5.811  19.260   2.750
15177W        W76488   9.679  43.898  10.566
15178W        W76489  11.712  23.074   0.910
15179W        W76490  24.525  25.612   3.825
15180W        W76491  31.525  24.527   1.868
15181W        W76492   1.353  28.176  10.574
15182W        W76493  26.625  34.017  14.995
15183W        W76494  41.870  33.598   4.627
15184W        W76495   2.461  35.464  11.565
15185W        W76496  10.168  13.256  10.976
15186W        W76497  40.032  19.177  13.439
15187W        W76498  18.577  40.048   1.420
15188W        W76499  17.225  11.821  10.092
15189W        W76500   0.446  25.518  12.508
15190W        W76501  40.840  32.133   3.758
15191W        W76502  42.507  14.156  13.941
15192W        W76503  33.562  35.517   2.663
15193W        W76504  37.002  39.411   2.367
15194W        W76505  26.020  25.542  14.892
15195W        W76506   4.400  18.237  13.811
15196W        W76507  22.685  28.612  11.592
15197W        W76508  21.655   2.454   3.704
15198W        W76509   6.786   5.834  13.802
15199W        W76510  41.394  30.935  12.495
15200W        W76511  43.020   9.240   3.192
15201W        W76512  41.306  13.153  13.922
15202W        W76513  44.285  17.786   4.233
15203W        W76514  41.028  17.684   1.719
15204W        W76515  24.685  36.025   1.703
15205W        W76516   6.417  37.969   1.436
15206W        W76517  32.608  25.710  13.443
15207W        W76518  24.127  22.084  13.006
15208W        W76519  36.989  19.136   4.180
15209W        W76520   5.360  28.093  10.528
15210W        W76521  32.981  15.794   3.319
15211W        W76522  10.325   7.738   0.461
15212W        W76523  42.503  10.172  14.386
15213W        W76524  19.137  33.412  11.952
15214W        W76525  11.287  12.746   1.429
15215W        W76526  29.975  35.467   0.294
15216W        W76527   1.314  12.645   0.960
15217W        W76528  38.456  22.159   3.655
15218W        W76529  21.733  43.476   0.762
15219W        W76530   4.381  37.381   4.300
15220W        W76531  27.989  43.311   3.185
15221W        W76532  39.352  38.402   5.183
15222W        W76533   0.746   9.718  12.838
15223W        W76534   2.755   2.749  10.957
15224W        W76535  31.999  22.651   1.358
15225W        W76536   7.320  25.646  10.918
15226W        W76537  26.561   1.863  12.363
15227W        W76538   7.804   0.401   4.141
15228W        W76539  11.280  27.152   1.215
15229W        W76540  12.638   7.765   0.729
15230W        W76541  14.734  33.014   4.339
15231W        W76542  36.916   9.371  10.905
15232W        W76543  30.507   9.849  12.372
15233W        W76544  36.035  29.607   0.890
15234W        W76545  15.101  15.276  12.059
15235W        W76546  32.126   2.285  14.368
15236W        W76547  24.499   7.730  11.436
15237W        W76548  40.045   3.844  11.127
15238W        W76549  44.945   6.747   2.358
15239W        W76550   8.740  27.972   5.121
15240W        W76551  36.398  28.452   5.213
15241W        W76552  27.012  12.331   1.720
15242W        W76553  20.766   6.418   2.673
15243W        W76554  14.783  18.293  14.327
15244W        W76555  18.196  16.135  12.494
15245W        W76556  32.902  17.228  10.987
15246W        W76557  20.092  30.049  14.880
15247W        W76558  11.733  25.151  12.996
15248W        W76559  40.041   8.328   0.895
15249W        W76560  21.105  14.289   4.341
15250W        W76561  31.020  18.709  11.984
15251W        W76562  10.244  44.930   0.873
15252W        W76563  38.995   0.881   9.932
15253W        W76564  29.616  23.996   5.251
15254W        W76565   1.797  11.182  10.491
15255W        W76566  43.408   4.332   3.287
15256W        W76567  19.210  13.751  14.276
15257W        W76568  42.013  21.192  10.026
15258W        W76569  13.313  29.115   5.190
15259W        W76570  35.938  16.567   1.441
15260W        W76571  22.011  42.886   4.653
15261W        W76572  27.185  37.515  12.433
15262W        W76573  39.524  43.992  10.591
15263W        W76574   0.929  14.335   0.941
15264W        W76575  44.501  25.655   4.266
15265W        W76576  12.296  23.543  13.822
15266W        W76577   0.483  42.496  14.393
15267W        W76578  12.706  10.703   1.330
15268W        W76579   1.314  18.246   1.395
15269W        W76580  24.133   6.711  11.433
15270W        W76581  39.050  37.985   4.256
15271W        W76582  33.051  43.426   1.424
15272W        W76583  19.633  34.115   0.480
15273W        W76584  37.561  11.279   4.317
15274W        W76585  19.718  30.544  12.022
15275W        W76586   2.728  25.587  10.504
15276W        W76587  29.935  28.481  14.436
15277W        W76588   5.289  17.705   0.262
15278W        W76589  15.277   2.722   9.459
15279W        W76590  32.958   0.490  11.077
15280W        W76591  19.127  29.549  12.084
15281W        W76592  19.269  30.097  14.759
15282W        W76593  38.014   5.692  10.917
15283W        W76594  40.841  31.035   3.175
15284W        W76595  36.583  24.002  13.463
15285W        W76596   6.755  42.447  10.964
15286W        W76597  42.317  25.487  14.836
15287W        W76598  38.504  12.161   3.813
15288W        W76599  21.733  15.683  14.830
15289W        W76600  40.410  30.954   1.271
15290W        W76601  44.996  35.574  10.472
15291W        W76602  44.300  10.378   4.248
15292W        W76603  30.989  44.911   4.715
15293W        W76604  30.157  11.187  13.961
15294W        W76605  42.405  33.126  11.487
15295W        W76606  32.063  23.583   3.763
15296W        W76607  29.650  14.590  11.017
15297W        W76608  40.410  22.131   4.743
15298W        W76609   9.390  24.166   2.891
15299W        W76610  14.272  24.678  12.908
15300W        W76611   7.911   3.394  10.970
15301W        W76612  26.182  26.550   3.861
15302W        W76613  31.958   5.781  12.864
15303W        W76614  14.676  33.966   2.814
15304W        W76615  12.319  21.559  11.610
15305W        W76616   2.771  26.616  12.492
15306W        W76617  38.517  41.358   0.458
15307W        W76618  29.145  31.998   0.475
15308W        W76619   0.876   9.651  13.458
15309W        W76620  30.484   2.403  10.989
15310W        W76621  11.717  24.199  10.054
15311W        W76622  41.310   4.777  11.010
15312W        W76623  31.565  11.304  13.799
15313W        W76624   5.268  34.373   4.315
15314W        W76625  26.208  28.666   0.253
15315W        W76626   1.890  15.591  13.510
15316W        W76627  21.108  24.006  13.544
15317W        W76628  17.718  12.247   4.229
15318W        W76629   1.474  33.468   0.321
15319W        W76630  14.289   1.428  13.948
15320W        W76631  10.756  16.296  10.960
15321W        W76632   1.303  40.926  14.837
15322W        W76633  34.969  29.138   2.712
15323W        W76634  21.734  44.474   1.428
15324W        W76635  39.345  41.317   4.784
15325W        W76636  40.472   9.274   3.742
15326W        W76637  22.561  38.896  14.973
15327W        W76638  31.610  29.155   3.376
15328W        W76639   2.265   9.169  11.929
15329W        W76640   1.829  31.629  12.988
15330W        W76641  27.581  44.419  14.942
15331W        W76642  19.177  14.771  14.993
15332W        W76643   6.832   2.834  12.442
15333W        W76644  12.760   7.329  12.017
15334W        W76645  32.392  27.047   2.900
15335W        W76646  13.163  22.225   4.786
15336W        W76647  33.622  35.570   4.114
15337W        W76648   2.255  27.120  14.979
15338W        W76649  24.665  34.374  11.438
15339W        W76650   7.359  11.711   3.314
15340W        W76651  37.009  11.723  12.066
15341W        W76652   2.962   3.339   1.847
15342W        W76653  16.112  28.091   4.275
15343W        W76654   5.401  32.027   4.665
15344W        W76655  23.521  28.591  13.328
15345W        W76656  13.191  11.144   2.817
15346W        W76657  12.200   4.425  13.959
15347W        W76658  33.948  31.062   4.324
15348W        W76659  13.663  32.097   2.884
15349W        W76660  21.106  34.441  14.501
15350W        W76661  42.934  27.621  15.000
15351W        W76662  16.314   8.703   2.761
15352W        W76663  32.547  18.058  13.019
15353W        W76664  10.323  16.672  12.911
15354W        W76665  15.604   7.849   0.953
15355W        W76666  40.050  12.663  13.014
15356W        W76667  13.312  15.680   3.692
15357W        W76668  44.501  37.910   4.146
15358W        W76669  21.171  40.318   3.207
15359W        W76670  43.451  44.780   3.251
15360W        W76671  15.249  25.554   5.680
15361W        W76672   5.908  34.447  11.890
15362W        W76673  27.460  28.946  13.494
15363W        W76674  31.498  21.638  14.509
15364W        W76675  15.809  33.447  14.768
15365W        W76676  32.447  26.117  11.003
15366W        W76677  41.800  32.086   3.847
15367W        W76678   3.836   6.379   4.260
15368W        W76679  13.808  24.168   3.289
15369W        W76680  13.819   0.767   3.736
15370W        W76681  18.216  21.598  11.869
15371W        W76682  16.725   1.312   4.276
15372W        W76683  11.302  23.008  12.899
15373W        W76684  11.213   1.834  14.811
15374W        W76685   3.288   6.917   4.703
15375W        W76686   2.800  32.904   4.762
15376W        W76687  16.633  43.819  14.425
15377W        W76688  38.402  20.528  10.444
15378W        W76689   7.676  15.228  10.538
15379W        W76690  41.996  41.948   2.243
15380W        W76691   5.249   1.917  14.808
15381W        W76692  42.890  28.038   0.755
15382W        W76693  44.791  13.757  12.351
15383W        W76694  17.086  28.997   2.836
15384W        W76695  22.651  14.635  12.550
15385W        W76696  35.855   9.250  13.448
15386W        W76697  16.191  41.988  11.908
15387W        W76698  38.950  12.318  13.313
15388W        W76699  38.055   1.370  11.054
15389W        W76700   2.740   5.404  11.500
15390W        W76701  30.482  29.477   5.237
15391W        W76702  22.609  25.694   3.864
15392W        W76703  34.115  29.480  13.813
15393W        W76704  41.431  32.134   0.425
15394W        W76705   9.360  14.666   2.363
15395W        W76706  18.214  44.476   4.695
15396W        W76707   3.748  23.233  12.959
15397W        W76708   3.920  36.359  11.568
15398W        W76709  17.744  41.923   4.787
15399W        W76710   1.477  43.429  12.444
15400W        W76711  34.378  18.223  14.275
15401W        W76712  38.931   7.393  10.412
15402W        W76713  44.302   0.921  11.441
15403W        W76714  31.436  39.933   4.151
15404W        W76715  13.632  42.518   4.785
15405W        W76716  42.913  37.500  11.383
15406W        W76717   4.744  22.173  12.011
15407W        W76718  11.209  24.059   0.842
15408W        W76719  28.541   3.310  10.441
15409W        W76720  32.117  39.499  12.859
15410W        W76721  19.547  35.449  12.346
15411W        W76722  16.659   6.402  13.873
15412W        W76723  12.736  32.593  12.348
15413W        W76724  10.704  41.519  11.604
15414W        W76725  32.131  23.017  13.919
15415W        W76726   7.759   4.707   1.436
15416W        W76727   3.441  22.013  11.582
15417W        W76728  43.003  26.659  10.479
15418W        W76729  36.556   7.707  11.585
15419W        W76730  16.172  24.199   0.844
15420W        W76731  10.696   7.741   0.263
15421W        W76732  33.064  34.491   1.696
15422W        W76733  14.666  37.400  13.999
15423W        W76734  37.345  25.543   3.242
15424W        W76735  19.615   5.409   2.276
15425W        W76736  35.053  28.043  13.863
15426W        W76737  43.889  40.448   4.300
15427W        W76738  15.783  18.070  11.859
15428W        W76739   2.449  31.143   4.273
15429W        W76740  11.214  11.638   2.743
15430W        W76741  24.998   1.818  11.023
15431W        W76742   0.467   7.380  13.533
15432W        W76743  29.921  34.110  13.393
15433W        W76744  42.443  43.408   2.757
15434W        W76745  43.476  15.712  10.023
15435W        W76746  25.061  17.192  13.497
15436W        W76747  15.738  24.179   1.730
15437W        W76748  10.827  38.456  12.998
15438W        W76749  19.229  16.772   0.414
15439W        W76750  37.412  32.480   4.793
15440W        W76751  24.522   0.762  12.963
15441W        W76752  14.208   5.923  12.571
15442W        W76753  41.418   6.791  11.058
15443W        W76754  41.034   1.827   0.732
15444W        W76755  13.662  35.047   3.757
15445W        W76756   0.812  38.352  11.916
15446W        W76757  43.395  19.720   1.770
15447W        W76758   3.913  15.754   3.262
15448W        W76759  11.176  23.115  14.763
15449W        W76760  43.269  16.189  14.784
15450W        W76761  40.015  14.151  14.439
15451W        W76762  25.189  38.058  11.049
15452W        W76763  30.497  16.299   0.318
15453W        W76764  42.987  12.722   2.780
15454W        W76765  23.985  10.641   3.726
15455W        W76766   7.396  41.993   2.265
15456W        W76767  30.000   7.814   4.703
15457W        W76768  30.570  41.349   2.850
15458W        W76769  10.753  15.805  12.898
15459W        W76770   5.861   0.320   2.796
15460W        W76771  40.467  17.187  10.575
15461W        W76772  40.527  23.723  14.275
15462W        W76773  28.477  11.368   3.784
15463W        W76774  32.428   3.782  11.426
15464W        W76775  26.112  31.648  10.963
15465W        W76776  38.021  26.688  12.512
15466W        W76777  21.196  31.140  13.975
15467W        W76778  44.380  35.373  13.457
15468W        W76779  12.246  12.298  13.890
15469W        W76780  20.648   4.305   2.237
15470W        W76781  37.975  28.499  11.921
15471W        W76782  40.430  36.384   3.844
15472W        W76783  22.568   6.309   4.773
15473W        W76784  36.441  19.612  10.588
15474W        W76785   7.902  22.694   4.297
15475W        W76786   8.794  22.584   5.183
15476W        W76787  15.246  41.529   2.182
15477W        W76788  11.868   8.252   4.640
15478W        W76789  24.698  40.320  12.353
15479W        W76790  17.597   4.434   9.962
15480W        W76791  35.436  11.768  11.109
15481W        W76792  13.125  25.562  13.496
15482W        W76793   5.354   3.900   2.179
15483W        W76794  34.102  19.694  13.988
15484W        W76795  33.061  19.648   0.887
15485W        W76796   6.200  33.950  14.430
15486W        W76797   8.343  13.840   4.719
15487W        W76798  35.920   9.762   4.255
15488W        W76799  29.567  35.938  13.328
15489W        W76800  19.169  38.404  12.056
15490W        W76801  29.028  36.036  13.940
15491W        W76802  17.264  21.059   4.130
15492W        W76803  17.076  31.419   3.149
15493W        W76804   6.365  16.229   1.870
15494W        W76805   5.737  15.138   0.401
15495W        W76806   4.385   8.778   1.864
15496W        W76807  17.794  22.667  11.035
15497W        W76808  44.890  27.178  13.378
15498W        W76809  35.597  42.839  13.850
15499W        W76810   6.701  31.945   2.416
15500W        W76811  22.144  29.440   2.698
15501W        W76812   0.435  40.339  12.476
15502W        W76813  31.016  37.408   1.216
15503W        W76814  36.361  37.494  10.124
15504W        W76815  22.227  33.919  13.951
15505W        W76816  42.421   1.459  10.903
15506W        W76817  33.417  27.197   1.833
15507W        W76818  29.953  22.558  14.463
15508W        W76819  31.014   8.755  13.343
15509W        W76820   6.377  38.907  11.924
15510W        W76821  23.734  33.560   5.266
15511W        W76822  25.601  10.860  11.117
15512W        W76823  26.580  19.715  12.416
15513W        W76824  36.051  44.322   0.247
15514W        W76825   8.340  35.883   1.308
15515W        W76826  30.060  32.476   4.787
15516W        W76827  39.813   0.764  11.499
15517W        W76828  37.451  35.013  12.014
15518W        W76829   6.415  13.119   0.429
15519W        W76830  32.123  24.208  13.015
15520W        W76831  11.645   3.751  10.132
15521W        W76832  36.014   9.805  13.512
15522W        W76833  21.199  20.147   4.128
15523W        W76834  21.102  26.986   4.327
15524W        W76835  16.186   2.798   3.164
15525W        W76836  11.154  36.396   3.720
15526W        W76837   7.737  34.012   3.230
15527W        W76838  43.929  41.345   4.816
15528W        W76839  14.809  31.139  10.472
15529W        W76840  37.062  28.589   5.233
15530W        W76841  34.503  32.096   1.800
15531W        W76842  34.070  23.090  11.391
15532W        W76843  41.929  35.990   3.767
15533W        W76844  41.030   3.337   4.354
15534W        W76845  22.533  40.931   2.699
15535W        W76846   6.756   9.838   4.684
15536W        W76847  32.996  23.593  14.942
15537W        W76848  27.523   8.898  11.463
15538W        W76849  20.234   5.358   3.325
15539W        W76850  31.074  41.476   0.332
15540W        W76851  37.413  17.129   0.820
15541W        W76852   5.369  18.215   1.418
15542W        W76853  44.931  27.502  11.470
15543W        W76854  17.617   9.370   3.240
15544W        W76855  11.826  30.510   2.355
15545W        W76856  44.845  25.701   0.886
15546W        W76857   3.858   4.938  11.567
15547W        W76858  27.075  15.284  10.489
15548W        W76859  30.466  14.819   3.263
15549W        W76860  30.081  29.439   1.830
15550W        W76861  11.190  43.489   3.838
15551W        W76862  28.680   5.391   0.736
15552W        W76863   1.784  37.018   1.340
15553W        W76864   7.828   7.391  11.485
15554W        W76865  41.501   0.866  12.839
15555W        W76866   7.885  20.122  13.940
15556W        W76867  12.772  27.055   0.924
15557W        W76868  16.288  28.457  14.887
15558W        W76869  42.930  36.019   0.254
15559W        W76870  29.466  18.722   0.447
15560W        W76871  33.472  29.952  13.338
15561W        W76872   8.788  18.050  13.548
15562W        W76873  37.044   1.802  11.540
15563W        W76874  11.675  40.311   2.876
15564W        W76875  15.180   5.303   5.239
15565W        W76876  44.302  43.952  11.120
15566W        W76877  30.549  41.304   1.251
15567W        W76878   0.291  18.577  12.910
15568W        W76879  15.671  27.167  13.503
15569W        W76880  39.954  18.648   2.270
15570W        W76881  11.177   2.965  11.386
15571W        W76882  12.680  29.925  11.437
15572W        W76883  34.384  24.686   4.642
15573W        W76884  26.125  10.877   0.950
15574W        W76885  22.613  14.758   3.325
15575W        W76886  25.639  17.093   2.211
15576W        W76887  23.022  18.110   1.269
15577W        W76888   3.714  41.384   0.788
15578W        W76889  20.645  32.949  13.968
15579W        W76890   4.416  20.054   4.760
15580W        W76891  23.192  27.596  14.840
15581W        W76892  30.648  29.118  14.410
15582W        W76893  24.187  23.684  11.462
15583W        W76894   7.741  17.557  14.481
15584W        W76895   4.719   3.799  13.903
15585W        W76896   4.894  15.602   1.342
15586W        W76897  30.971  14.798   3.660
15587W        W76898  31.983  13.329   0.370
15588W        W76899  18.775  15.642   1.763
15589W        W76900   7.737  32.052  10.938
15590W        W76901  12.219   7.382  12.344
15591W        W76902  43.967  41.968  10.975
15592W        W76903  44.369  41.894   1.778
15593W        W76904  23.985  12.785  14.344
15594W        W76905  36.076   8.326  12.973
15595W        W76906  19.618  44.769  13.793
15596W        W76907  44.292  37.372   3.663
15597W        W76908  21.163   1.811  12.358
15598W        W76909  41.832   3.933  13.332
15599W        W76910  37.480  27.651  14.404
15600W        W76911  25.060  32.958   2.193
15601W        W76912   3.456  38.386  11.921
15602W        W76913  40.991  36.364  12.824
15603W        W76914  30.966  16.688  11.899
15604W        W76915  23.503  24.587  10.410
15605W        W76916  23.643  33.483   1.319
15606W        W76917   6.261  23.702   4.618
15607W        W76918  37.347  27.047  14.294
15608W        W76919  33.388  30.157   0.367
15609W        W76920  27.470   4.852   3.841
15610W        W76921  21.133  14.111   2.200
15611W        W76922  17.144  16.648   2.885
15612W        W76923  38.391  19.545  11.920
15613W        W76924  21.053  18.094   4.804
15614W        W76925   9.236  31.132   3.784
15615W        W76926   6.290  34.080  13.474
15616W        W76927  39.484  30.518  14.290
15617W        W76928  14.247  39.042   0.399
15618W        W76929  34.068  44.274  12.392
15619W        W76930  36.869  34.035   4.234
15620W        W76931  44.278  22.085   1.930
15621W        W76932  28.106  30.075   2.302
15622W        W76933   6.825  15.104  11.470
15623W        W76934  40.451  29.170   1.301
15624W        W76935  25.703  19.077   0.813
15625W        W76936  13.345  39.950   4.159
15626W        W76937  27.551   0.248   0.891
15627W        W76938  16.801  10.710  13.990
15628W        W76939  38.911   5.347  10.591
15629W        W76940   5.763  29.657   0.777
15630W        W76941  21.641   9.181   4.351
15631W        W76942  19.695  41.444  13.851
15632W        W76943  37.926   2.898  14.501
15633W        W76944   7.219   8.836   0.818
15634W        W76945  34.610  20.575   3.670
15635W        W76946  31.914  38.052  13.808
15636W        W76947   1.838  36.977   2.770
15637W        W76948  24.120   7.735   2.274
15638W        W76949   3.863  42.281  11.440
15639W        W76950  40.429   4.839   5.306
15640W        W76951  14.688  37.500  13.446
15641W        W76952  25.109  22.209  13.991
15642W        W76953  22.640  11.342  12.899
15643W        W76954   2.286  30.004  11.396
15644W        W76955  30.121  33.933  13.950
15645W        W76956   2.883   8.397  12.396
15646W        W76957  32.565   2.309  13.793
15647W        W76958  16.711   9.740   2.801
15648W        W76959  33.536  10.807   3.301
15649W        W76960  31.565  34.982   1.371
15650W        W76961   3.241  30.994  14.023
15651W        W76962  16.275   6.834  13.415
15652W        W76963  32.513  34.466   4.243
15653W        W76964  24.083  30.657   1.888
15654W        W76965  19.674   5.918   3.870
15655W        W76966  41.832  14.673  12.893
15656W        W76967  28.932  18.719   0.801
15657W        W76968  12.746  20.639  12.934
15658W        W76969  30.034   4.803  13.907
15659W        W76970  28.553  19.063   4.704
15660W        W76971   0.253  26.686   1.759
15661W        W76972  15.180  20.645   1.816
15662W        W76973  37.502  20.761  11.008
15663W        W76974  11.218  44.954   3.745
15664W        W76975  14.700  28.933   2.181
15665W        W76976  14.602  16.199  14.359
15666W        W76977  36.092  37.080   0.885
15667W        W76978  25.963  24.503   0.782
15668W        W76979  43.880  24.072   2.200
15669W        W76980  21.688  16.245  12.077
15670W        W76981  27.470  34.514  13.506
15671W        W76982  41.990  16.691  14.825
15672W        W76983   4.232  23.611  14.946
15673W        W76984  36.895  19.173  10.629
15674W        W76985  25.649  10.798   2.402
15675W        W76986  12.789  19.658  11.036
15676W        W76987   2.226   3.236   3.384
15677W        W76988  40.459  20.671   3.246
15678W        W76989  18.733  12.275  12.345
15679W        W76990  19.620  29.537  12.521
15680W        W76991  12.729  26.639   9.973
15681W        W76992  13.256  22.012   2.198
15682W        W76993   9.720  42.029   2.693
15683W        W76994  18.051  44.808   4.301
15684W        W76995   6.187  33.563   1.931
15685W        W76996  29.062  25.051  10.623
15686W        W76997  20.083   8.237   1.427
15687W        W76998  37.580  32.914  11.382
15688W        W76999   5.777  34.063   4.750
15689W        W77000  17.243   5.695  10.534
15690W        W77001  15.780  35.474  14.779
15691W        W77002   2.377  26.206  10.554
15692W        W77003  21.553  40.964   4.616
15693W        W77004  31.034  19.140   1.411
15694W        W77005  36.088  17.677  13.469
15695W        W77006  43.331   8.881  13.325
15696W        W77007  28.942   9.734   0.451
15697W        W77008  35.032  24.125   3.267
15698W        W77009  42.302  44.400  11.028
15699W        W77010  14.789  29.568   3.306
15700W        W77011  36.354   4.208  11.551
15701W        W77012   4.785  25.016   3.270
15702W        W77013  21.134  12.174   4.796
15703W        W77014   1.804   4.713   2.883
15704W        W77015  17.589  20.268  11.533
15705W        W77016  12.287  37.039   1.301
15706W        W77017  22.528  13.805   3.860
15707W        W77018  19.622  38.860   5.636
15708W        W77019  31.946  25.664   3.858
15709W        W77020  12.857   1.475   3.155
15710W        W77021  17.201  23.594   3.635
15711W        W77022  27.566  20.700  11.476
15712W        W77023  27.954   3.882   1.414
15713W        W77024  39.524  31.628   4.667
15714W        W77025  24.622  17.087  11.957
15715W        W77026  11.179  36.522  12.878
15716W        W77027   8.352   3.760   4.637
15717W        W77028  21.604  37.960   1.895
15718W        W77029   4.404  35.987   1.225
15719W        W77030  26.995   6.230  13.842
15720W        W77031   4.728  17.801   1.842
15721W        W77032  12.255   4.418   3.792
15722W        W77033   7.331  17.577   3.242
15723W        W77034  17.286  19.775  11.405
15724W        W77035   7.755  23.659   0.808
15725W        W77036  28.181  16.696   2.722
15726W        W77037  23.215   5.422   1.369
15727W        W77038  20.127  35.581   4.302
15728W        W77039  38.368   7.192  11.935
15729W        W77040  32.533  38.073   1.922
15730W        W77041   4.233  42.515   3.372
15731W        W77042  15.603   0.811   3.276
15732W        W77043   0.406  32.486  12.930
15733W        W77044  38.926   5.884   4.340
15734W        W77045  36.515  35.052   1.706
15735W        W77046  44.358  21.515   3.162
15736W        W77047  39.871  35.396   1.835
15737W        W77048  10.787  22.658  13.338
15738W        W77049  39.360  44.949  13.498
15739W        W77050  10.724  38.333   3.859
15740W        W77051   2.878  21.743  12.926
15741W        W77052  36.464  32.094  11.536
15742W        W77053  23.096   6.218   0.399
15743W        W77054  38.996  38.424   2.893
15744W        W77055  11.686   9.260   1.414
15745W        W77056  21.021  12.239  13.980
15746W        W77057  18.640  17.617   3.743
15747W        W77058  19.598  32.458  13.348
15748W        W77059   1.324   6.901   2.715
15749W        W77060   4.905  42.423   0.282
15750W        W77061   3.344  25.647  14.385
15751W        W77062  13.233  17.775  10.447
15752W        W77063  30.616   2.267  12.074
15753W        W77064  43.380  13.816  10.557
15754W        W77065  20.106  19.152  13.415
15755W        W77066  17.801  12.200  10.008
15756W        W77067  22.500  18.723  12.838
15757W        W77068  25.492  31.960  11.020
15758W        W77069   4.256  31.149  14.359
15759W        W77070  33.969  33.528   2.234
15760W        W77071  40.827  34.503  13.940
15761W        W77072  43.886  44.426   4.697
15762W        W77073   7.413  12.809   1.225
15763W        W77074  31.520   9.161   4.771
15764W        W77075  37.075  35.940  12.045
15765W        W77076  38.398   9.695  11.872
15766W        W77077  25.125  15.722  11.026
15767W        W77078  24.645  15.147   4.720
15768W        W77079  39.937   9.887   1.742
15769W        W77080  30.032  24.589  12.880
15770W        W77081  17.247  43.006  14.327
15771W        W77082  25.140  39.432  12.981
15772W        W77083  33.447  44.440  14.493
15773W        W77084  28.087  15.157  13.467
15774W        W77085  18.207   3.396   5.156
15775W        W77086  31.957   3.356   4.624
15776W        W77087  26.535  30.065  12.570
15777W        W77088  11.191  17.792  13.414
15778W        W77089  32.077  41.935   5.279
15779W        W77090   1.975  28.455   2.414
15780W        W77091  41.855   4.770  11.602
15781W        W77092  26.018  31.501   2.268
15782W        W77093  34.586  19.209  13.890
15783W        W77094   1.357  26.536   4.630
15784W        W77095  13.660   3.947  13.959
15785W        W77096   6.421  32.943  10.145
15786W        W77097  42.469  37.467   3.166
15787W        W77098  13.158  40.387  11.599
15788W        W77099  11.253  35.100  10.412
15789W        W77100  21.731  40.326   5.258
15790W        W77101  32.533   2.860   4.600
15791W        W77102  27.136  38.393  13.533
15792W        W77103  28.587  18.149   4.295
15793W        W77104  21.513  39.552  11.457
15794W        W77105  34.493   3.869  11.968
15795W        W77106  37.501  23.110  13.337
15796W        W77107  22.508  44.270   4.770
15797W        W77108  14.232  40.824   4.766
15798W        W77109   9.309  26.068   2.239
15799W        W77110   4.742  25.135  13.317
15800W        W77111   2.248   1.738   1.239
15801W        W77112  25.193  14.300   4.114
15802W        W77113   4.259  44.797   3.194
15803W        W77114  42.802  10.699  11.590
15804W        W77115  28.089   3.872   0.454
15805W        W77116  36.066  40.898  14.326
15806W        W77117  18.136  31.439  12.493
15807W        W77118   8.238  38.492  11.023
15808W        W77119  18.688  41.864   2.810
15809W        W77120   5.802  36.059  12.885
15810W        W77121  24.598   6.263   4.233
15811W        W77122  38.507  42.383   1.284
15812W        W77123  31.966  31.580  11.412
15813W        W77124  20.040  36.397   0.319
15814W        W77125  20.271  33.535  14.911
15815W        W77126  22.693   8.786   4.837
15816W        W77127  38.547  18.588  14.401
15817W        W77128   3.276  18.708  14.316
15818W        W77129  21.566  34.119   2.667
15819W        W77130  24.705  44.887   0.381
15820W        W77131  34.421  44.766  11.913
15821W        W77132  10.810  39.451   1.339
15822W        W77133  41.325  28.480  11.964
15823W        W77134  40.427  28.527   0.479
15824W        W77135  36.086  34.011   2.185
15825W        W77136   4.740  30.495  10.979
15826W        W77137  40.853  32.889  12.386
15827W        W77138  14.339   7.330  14.363
15828W        W77139  41.961  38.999  12.025
15829W        W77140  15.095   4.386  13.317
15830W        W77141   7.264  16.743  11.456
15831W        W77142  20.719   8.880  13.525
15832W        W77143  39.948  32.562  13.330
15833W        W77144   9.364   2.312   3.315
15834W        W77145  21.028  28.094   1.928
15835W        W77146  15.315  23.554  14.868
15836W        W77147   2.842  35.460  12.881
15837W        W77148  31.998  35.086  12.574
15838W        W77149  35.465  23.202  10.505
15839W        W77150  41.925   9.797  12.349
15840W        W77151  22.129  28.060  13.035
15841W        W77152  35.046  33.996  14.878
15842W        W77153  41.293  32.953  13.908
15843W        W77154   1.429  41.914  14.784
15844W        W77155   7.825  28.054  13.340
15845W        W77156  18.199  24.213  11.456
15846W        W77157  11.182  24.106   3.811
15847W        W77158  31.996  21.682  14.288
15848W        W77159  17.074  29.625   3.792
15849W        W77160  15.258  40.350  11.524
15850W        W77161  10.149  41.351   4.746
15851W        W77162  11.128  14.730  12.413
15852W        W77163  27.982  28.539   0.923
15853W        W77164   0.476   6.364   2.800
15854W        W77165  37.885  21.709  12.353
15855W        W77166  33.915  24.718  10.947
15856W        W77167  18.650  19.194   2.845
15857W        W77168  11.185  38.479  14.882
15858W        W77169  32.456   8.278  14.922
15859W        W77170  10.638   6.778   1.762
15860W        W77171   3.800   5.285  14.915
15861W        W77172  13.299  44.816  12.837
15862W        W77173   2.734   0.335  14.832
15863W        W77174   9.681  19.116   1.352
15864W        W77175   7.331  36.002  12.073
15865W        W77176  12.669  32.114   4.747
15866W        W77177  30.461   5.409   9.523
15867W        W77178  11.342  34.453   4.756
15868W        W77179  43.353  41.828  12.872
15869W        W77180  12.345  28.471  12.390
15870W        W77181  31.474  26.105   0.785
15871W        W77182  22.121  32.916  10.132
15872W        W77183  41.536  38.954   2.792
15873W        W77184  36.413  26.694   0.824
15874W        W77185  13.264  36.571   3.273
15875W        W77186  26.160  19.265   2.300
15876W        W77187  14.825   1.910  10.041
15877W        W77188   7.316  20.103  12.040
15878W        W77189  18.756  40.400  12.500
15879W        W77190  42.327  42.443  13.894
15880W        W77191  20.643   9.338   4.249
15881W        W77192  19.562  44.779   4.632
15882W        W77193  15.245  33.616   0.274
15883W        W77194  10.332  11.252   4.208
15884W        W77195  12.273  27.657   4.820
15885W        W77196  12.846  15.641  11.898
15886W        W77197   2.725  13.111   0.904
15887W        W77198  27.598  28.024  14.379
15888W        W77199  43.480   3.832   0.428
15889W        W77200  22.594  18.654  11.547
15890W        W77201  36.561  15.664   5.145
15891W        W77202  18.555  40.521  11.430
15892W        W77203  18.753   5.833  13.439
15893W        W77204   0.980  35.063  10.538
15894W        W77205   0.381  34.042   4.153
15895W        W77206  37.994  43.936  14.420
15896W        W77207  14.712  36.971   0.909
15897W        W77208  16.587   8.800   3.292
15898W        W77209   4.277  40.501   4.182
15899W        W77210   7.243   1.248  14.318
15900W        W77211  23.030   2.237   4.746
15901W        W77212   5.316  39.827  10.567
15902W        W77213  12.168   0.805   2.232
15903W        W77214  27.076  42.447  14.859
15904W        W77215  33.593  13.172  12.359
15905W        W77216  28.158  38.893  13.483
15906W        W77217  41.881  33.489   4.216
15907W        W77218  25.553  44.451   4.187
15908W        W77219  18.684  33.428  10.519
15909W        W77220  29.481  22.568   5.115
15910W        W77221  15.726  35.502   4.201
15911W        W77222  13.274  29.037   2.746
15912W        W77223  11.287  41.432  10.566
15913W        W77224  21.048  25.079   0.405
15914W        W77225  10.801  44.852   3.790
15915W        W77226  14.138   0.494   2.274
15916W        W77227  42.505   5.258  10.592
15917W        W77228  22.528   4.376  10.460
15918W        W77229  21.730  24.022   4.297
15919W        W77230  23.702  37.890   0.272
15920W        W77231  11.793  25.169  14.982
15921W        W77232  16.242  27.140   4.193
15922W        W77233   9.332   9.862   1.700
15923W        W77234  42.854  31.466  13.023
15924W        W77235  12.210   5.305   5.648
15925W        W77236  30.953   8.284  11.529
15926W        W77237  10.192  42.905   4.333
15927W        W77238  37.477  29.959   0.262
15928W        W77239  18.179  11.647   5.311
15929W        W77240  25.185  39.043  11.504
15930W        W77241  12.801  23.023   2.671
15931W        W77242  15.207  40.948   4.320
15932W        W77243  23.728  28.142   4.150
15933W        W77244   1.782   5.301  14.882
15934W        W77245  29.570  40.467   3.276
15935W        W77246  40.998  42.416  14.279
15936W        W77247  20.116   9.694   1.755
15937W        W77248   4.779  14.330   1.242
15938W        W77249   8.665  17.178   2.193
15939W        W77250  31.462   6.679   9.503
15940W        W77251   6.414  16.684   4.255
15941W        W77252  20.271   8.185   0.852
15942W        W77253  24.034  16.761  10.570
15943W        W77254   6.245  15.215   5.151
15944W        W77255  34.058  26.545   3.188
15945W        W77256  34.525  38.956  13.823
15946W        W77257  22.706  35.522   0.794
15947W        W77258  14.118   4.727  12.424
15948W        W77259   3.933   6.860  10.478
15949W        W77260  32.543   0.282  11.118
15950W        W77261   7.777  42.851   5.282
15951W        W77262  18.678  26.468  10.555
15952W        W77263   0.879   4.744  11.024
15953W        W77264   4.397  30.008   3.684
15954W        W77265  41.453  20.169  13.813
15955W        W77266  26.014   1.846   4.651
15956W        W77267  22.733  29.590  11.428
15957W        W77268  17.777  16.690  11.866
15958W        W77269  18.555  27.669   3.684
15959W        W77270   8.786  34.967  14.842
15960W        W77271  16.229  23.036  10.546
15961W        W77272  23.734  16.189  11.919
15962W        W77273  34.936  35.958  13.536
15963W        W77274  16.583  38.984   3.354
15964W        W77275  29.638  25.553  11.041
15965W        W77276  14.806   4.806  11.858
15966W        W77277  13.654  12.676  10.496
15967W        W77278  44.366   8.380  10.965
15968W        W77279  25.109  27.975  13.530
15969W        W77280   3.392  38.044   0.275
15970W        W77281   9.859  44.755   2.897
15971W        W77282  28.939   2.901   1.853
15972W        W77283  22.606  24.993  14.843
15973W        W77284  12.660  19.181   3.745
15974W        W77285   8.870  31.118  11.895
15975W        W77286  15.758  10.703   0.958
15976W        W77287  37.553  20.082   2.365
15977W        W77288  40.505  34.412   3.752
15978W        W77289  38.546   2.462  12.511
15979W        W77290   6.840  25.158   5.127
15980W        W77291  15.688  13.684   1.233
15981W        W77292   2.858  43.968  12.057
15982W        W77293  32.886  31.997  14.369
15983W        W77294  41.975  44.303  12.004
15984W        W77295  15.271  10.650   2.285
15985W        W77296   5.361  12.327  12.522
15986W        W77297  34.513  21.648  12.471
15987W        W77298   6.241  25.527   1.794
15988W        W77299  30.658   4.226   1.329
15989W        W77300  42.526   4.945   3.290
15990W        W77301   6.912   6.419   4.698
15991W        W77302   5.739  12.307  13.010
15992W        W77303   7.342  11.136  10.408
15993W        W77304  12.223   5.747  11.881
15994W        W77305   1.451  14.253   0.958
15995W        W77306  14.287  32.497   0.272
15996W        W77307   0.265   2.305  10.500
15997W        W77308  23.200  28.647  10.569
15998W        W77309  22.019   8.732   2.877
15999W        W77310  20.158   3.355   2.274
16000W        W77311  42.886  19.555   1.733
16001W        W77312  27.596  35.867   2.831
16002W        W77313  15.780  19.718  11.455
16003W        W77314  40.965  43.811  12.963
16004W        W77315  38.397  44.992  10.963
16005W        W77316  38.371  10.682   3.733
16006W        W77317  32.488  31.438  14.453
16007W        W77318   8.725  38.444   4.763
16008W        W77319  24.603  17.641   0.745
16009W        W77320  10.380  27.493  14.774
16010W        W77321  10.363  10.766   3.310
16011W        W77322  32.596  28.569   0.934
16012W        W77323   8.261  26.669  14.887
16013W        W77324  39.019   6.737   4.726
16014W        W77325  23.491  17.235   2.866
16015W        W77326  39.465  24.554   1.232
16016W        W77327   4.851  29.936  13.391
16017W        W77328  21.634  19.601   3.317
16018W        W77329   4.223  22.131   2.892
16019W        W77330  37.949  22.218   2.311
16020W        W77331   7.897  44.502  12.024
16021W        W77332  26.155  25.054  10.917
16022W        W77333  43.821  15.722   0.910
16023W        W77334  41.993  37.471   5.171
16024W        W77335  28.175  43.927   3.816
16025W        W77336  39.382  25.572   1.431
16026W        W77337  31.468  15.329  13.333
16027W        W77338  20.163  28.681   4.215
16028W        W77339  25.139  11.355   0.866
16029W        W77340  17.733  18.076  12.504
16030W        W77341  40.471  36.009   0.764
16031W        W77342   6.243  25.685  10.919
16032W        W77343  41.501   6.319  10.502
16033W        W77344   9.189   2.785   3.300
16034W        W77345   2.764  39.353  11.894
16035W        W77346   0.750   3.245   0.425
16036W        W77347  11.329  43.446   3.162
16037W        W77348  27.644  33.910   3.697
16038W        W77349   1.253  38.354  11.944
16039W        W77350  16.793   3.442   2.767
16040W        W77351  11.790   3.387   5.107
16041W        W77352  41.319  44.367  12.908
16042W        W77353  11.156  19.228   4.714
16043W        W77354  13.692   3.829   1.856
16044W        W77355  26.582   6.897   0.291
16045W        W77356  41.930  14.636  13.904
16046W        W77357   4.449  16.172  13.443
16047W        W77358  30.444  42.899   1.842
16048W        W77359  26.557  37.445  11.861
16049W        W77360   0.835  43.786  11.902
16050W        W77361  24.619  10.337   0.429
16051W        W77362  25.215  40.384  14.971
16052W        W77363  14.596  17.640  11.469
16053W        W77364   3.714  42.780   2.372
16054W        W77365  13.310  15.278   4.332
16055W        W77366   4.779  43.507  14.937
16056W        W77367  23.727   4.351  13.021
16057W        W77368  11.226  32.134   4.149
16058W        W77369   5.395  11.143   2.258
16059W        W77370  24.585  21.554   2.709
16060W        W77371   8.862  37.009   3.372
16061W        W77372  29.157  30.452  14.354
16062W        W77373  13.126  36.022   1.292
16063W        W77374  38.566  35.553   1.395
16064W        W77375   0.836  41.298  13.036
16065W        W77376   5.231  43.381  11.584
16066W        W77377   5.438  26.956  13.932
16067W        W77378  14.718   6.230   0.460
16068W        W77379  39.813  24.669   0.243
16069W        W77380  35.884  26.549   1.296
16070W        W77381  39.501  14.321   0.281
16071W        W77382   4.355  18.729  10.445
16072W        W77383  29.440   6.416  11.534
16073W        W77384   6.857   4.386   0.837
16074W        W77385  30.963  21.650   2.337
16075W        W77386   7.702  22.086   1.707
16076W        W77387  41.515   9.889  14.406
16077W        W77388  15.324   9.820   4.263
16078W        W77389  17.229  37.967  14.400
16079W        W77390  10.233   2.898   1.712
16080W        W77391  33.624  33.010   2.882
16081W        W77392   7.821  36.450   3.333
16082W        W77393  24.569  14.140  11.051
16083W        W77394  21.712  25.195   4.815
16084W        W77395   7.729  33.962  13.391
16085W        W77396  10.352  42.340   4.599
16086W        W77397  30.165  43.827  12.531
16087W        W77398   9.836  12.683   3.163
16088W        W77399   8.757   8.343  10.499
16089W        W77400  16.283  11.782  11.563
16090W        W77401  29.044  43.001  10.066
16091W        W77402  13.604  12.815   0.896
16092W        W77403  42.832  16.226   0.331
16093W        W77404   3.826  17.202  11.126
16094W        W77405   7.891  17.195   3.641
16095W        W77406  20.114   6.858   4.641
16096W        W77407  25.206   7.855   4.698
16097W        W77408  13.142   3.880   0.269
16098W        W77409  10.789  39.417  11.043
16099W        W77410  16.569  26.025  11.911
16100W        W77411   1.457  21.568   3.641
16101W        W77412  17.783   2.361  14.281
16102W        W77413  11.338  18.110  10.555
16103W        W77414  27.145  24.184   3.318
16104W        W77415   9.281  15.621   2.710
16105W        W77416   7.763  10.679  14.885
16106W        W77417  12.232  32.978   1.836
16107W        W77418  39.040  19.699   4.144
16108W        W77419  32.470  20.103  12.560
16109W        W77420   4.868   7.244  12.914
16110W        W77421  42.029  17.081  11.940
16111W        W77422  44.899  44.771  12.032
16112W        W77423  20.577  28.940  10.456
16113W        W77424   8.841   5.819   3.161
16114W        W77425   8.793  41.514   3.373
16115W        W77426  43.353  29.580  10.531
16116W        W77427  31.937  38.570  14.468
16117W        W77428  18.763  18.270   2.796
16118W        W77429   0.412  11.835  14.370
16119W        W77430  36.450  20.577   0.933
16120W        W77431  38.066  10.316  11.522
16121W        W77432  38.430   2.812   0.300
16122W        W77433  38.534  33.496   3.752
16123W        W77434  37.999  27.469  11.588
16124W        W77435  44.356  28.638  10.997
16125W        W77436  27.150  14.825  13.791
16126W        W77437  10.206  13.310   4.600
16127W        W77438  15.758  40.891  11.020
16128W        W77439  14.616  15.707  10.121
16129W        W77440  12.121   3.738   2.317
16130W        W77441  10.762  18.765   0.289
16131W        W77442  43.450  29.522   0.801
16132W        W77443  24.667   6.803  13.056
16133W        W77444  12.186   3.775   5.753
16134W        W77445  27.578  39.934   4.716
16135W        W77446  22.557   1.419  10.552
16136W        W77447  19.638  43.962  14.807
16137W        W77448  16.809  25.543   4.114
16138W        W77449  24.987  19.097  14.508
16139W        W77450  16.783  29.941  14.422
16140W        W77451  19.209  19.151   2.843
16141W        W77452  23.649  35.414   1.395
16142W        W77453  30.091   9.351  11.451
16143W        W77454   1.893  24.018  11.037
16144W        W77455  39.557  33.625  14.802
16145W        W77456   0.806  30.042   3.338
16146W        W77457  41.994   7.314  14.987
16147W        W77458  20.701  40.462   3.269
16148W        W77459  22.588  27.621   2.186
16149W        W77460   7.769  41.847  14.494
16150W        W77461  10.658  23.506   0.928
16151W        W77462   8.852  23.679  10.614
16152W        W77463  40.943  43.012  12.853
16153W        W77464  33.563  22.547  13.409
16154W        W77465  23.579  44.892  14.412
16155W        W77466  35.428   0.892  11.522
16156W        W77467  24.068  26.551  11.017
16157W        W77468   0.972  36.406  10.493
16158W        W77469   4.408  13.310   3.778
16159W        W77470  14.154  19.216   0.962
16160W        W77471  41.376  34.870  13.961
16161W        W77472  11.839  41.351   5.102
16162W        W77473  30.429  21.094  12.996
16163W        W77474   0.780   9.717   4.278
16164W        W77475  41.424  28.476   2.758
16165W        W77476  12.714  29.623   1.330
16166W        W77477   9.243  40.831   3.842
16167W        W77478  17.624  22.169   1.861
16168W        W77479  12.242  43.448  14.315
16169W        W77480  21.724  30.007   9.490
16170W        W77481  32.000  38.425   0.446
16171W        W77482   1.369   2.868  11.390
16172W        W77483  30.164  20.137   2.776
16173W        W77484  36.023   9.284  11.495
16174W        W77485  17.086   5.200   4.140
16175W        W77486  20.149  33.985   4.736
16176W        W77487  10.854  15.770   0.425
16177W        W77488  39.813  26.617   3.776
16178W        W77489  24.068  42.469  12.956
16179W        W77490  42.011   2.828   1.873
16180W        W77491  18.162   3.240  13.460
16181W        W77492  42.324   9.383   1.859
16182W        W77493  34.611  37.466  12.020
16183W        W77494  22.159  38.451   1.233
16184W        W77495  33.472   9.182  14.980
16185W        W77496  37.866  40.894   5.322
16186W        W77497  33.984   1.925   0.405
16187W        W77498  24.183  10.858  14.375
16188W        W77499  26.097  28.508   2.741
16189W        W77500  42.011  15.646   2.881
16190W        W77501  32.942  29.149   0.457
16191W        W77502  37.345  40.873   1.842
16192W        W77503  12.308   4.767  13.487
16193W        W77504  28.535  42.314   1.721
16194W        W77505  20.064  37.931   3.833
16195W        W77506  34.441  31.516  10.930
16196W        W77507   7.829  39.398   1.229
16197W        W77508   1.396  39.882   2.272
16198W        W77509  38.336  27.480   1.439
16199W        W77510  28.673  41.337  11.372
16200W        W77511  37.445   9.808  10.940
16201W        W77512  11.193  32.436  10.581
16202W        W77513  14.291  39.459  10.987
16203W        W77514   1.862  35.877   2.356
16204W        W77515  22.227  32.634   3.323
16205W        W77516  23.050  42.951   4.163
16206W        W77517  34.444  23.218   4.201
16207W        W77518  12.334  22.610  12.033
16208W        W77519  18.745  22.165   2.417
16209W        W77520  13.687   8.310   2.690
16210W        W77521  44.424  33.950  10.600
16211W        W77522  14.208  43.306   3.154
16212W        W77523   9.187  36.938   0.856
16213W        W77524  36.520  41.451  12.891
16214W        W77525  29.928  26.695  13.334
16215W        W77526  29.128  32.460  14.352
16216W        W77527  39.052   1.866   3.646
16217W        W77528  38.392   9.155  10.897
16218W        W77529  34.389   1.351  10.920
16219W        W77530  13.200  37.849   1.283
16220W        W77531   5.855  18.752  12.829
16221W        W77532  24.171  15.084   4.633
16222W        W77533  14.731  19.609   2.707
16223W        W77534  22.226  41.822   5.306
16224W        W77535  30.528  35.507  11.918
16225W        W77536  34.910  25.510   1.764
16226W        W77537  21.667   7.206   1.381
16227W        W77538  17.205  29.448  10.150
16228W        W77539  12.267  16.678  10.921
16229W        W77540  17.249  12.310   3.851
16230W        W77541  17.272   7.898  12.950
16231W        W77542   0.889  22.049  14.028
16232W        W77543  15.796  24.229  12.572
16233W        W77544  18.777  26.207  13.518
16234W        W77545  16.651   2.788  11.948
16235W        W77546  43.850  12.359  12.023
16236W        W77547   4.356  33.487   4.136
16237W        W77548  24.187  38.042   0.739
16238W        W77549  26.551  44.292   3.711
16239W        W77550  22.577   8.268   4.191
16240W        W77551  22.122  13.229   4.648
16241W        W77552  28.638  20.161  11.008
16242W        W77553  19.122  22.710  14.470
16243W        W77554  15.204  24.023   2.700
16244W        W77555  38.559  30.104   3.358
16245W        W77556   9.155  33.616   2.355
16246W        W77557  28.117  31.985   4.179
16247W        W77558  30.957  23.223   4.241
16248W        W77559  27.060  38.427  12.086
16249W        W77560  22.581   7.281  10.407
16250W        W77561   5.344   6.379   2.178
16251W        W77562  33.039  34.105  13.949
16252W        W77563  33.530  29.448  13.964
16253W        W77564  11.732   0.484   0.903
16254W        W77565  19.233  39.949   4.125
16255W        W77566   5.913  26.006   0.278
16256W        W77567  25.621  18.171  11.888
16257W        W77568   2.922  26.153  11.440
16258W        W77569  43.934   9.782  11.113
16259W        W77570  26.498  30.141  14.987
16260W        W77571  44.924   3.950   3.220
16261W        W77572  14.260  21.179   0.899
16262W        W77573  20.089   6.850  12.340
16263W        W77574  42.871  33.485   4.289
16264W        W77575  17.652  38.996  14.787
16265W        W77576  37.942   4.706  14.809
16266W        W77577  14.196  29.460  11.976
16267W        W77578  20.246  30.912  12.937
16268W        W77579  14.236   0.419   0.820
16269W        W77580  11.367  29.043   2.761
16270W        W77581   6.719  40.041  11.965
16271W        W77582  32.436   9.307   4.154
16272W        W77583   7.362  28.005   1.919
16273W        W77584  38.978  22.169   4.764
16274W        W77585  39.503  12.704   0.748
16275W        W77586  41.962   1.888  13.921
16276W        W77587   6.310  26.461   3.255
16277W        W77588  43.494  34.074  11.457
16278W        W77589   7.332  32.970  11.410
16279W        W77590  12.356  31.435  12.976
16280W        W77591  26.531  34.462   2.809
16281W        W77592  43.431  41.331   2.348
16282W        W77593   7.851  40.372   2.798
16283W        W77594  18.187  30.542  12.997
16284W        W77595   2.247  40.850  10.889
16285W        W77596  32.065  39.828  11.399
16286W        W77597  27.104  11.142   0.849
16287W        W77598   4.760  32.630  10.485
16288W        W77599  44.009  10.169   3.290
16289W        W77600  42.983  36.901   3.809
16290W        W77601  31.478   2.747  11.410
16291W        W77602  13.168  44.280  12.383
16292W        W77603  13.788  16.171   2.759
16293W        W77604   1.819  33.564   0.879
16294W        W77605  14.286   5.795   0.414
16295W        W77606  10.813   6.792  11.492
16296W        W77607  22.234   0.882   4.819
16297W        W77608  40.444  33.908  14.869
16298W        W77609   9.782  43.440   1.916
16299W        W77610  24.059  37.373   4.181
16300W        W77611  41.398  43.296  11.963
16301W        W77612   8.284  27.956  13.345
16302W        W77613  19.064   7.200  14.946
16303W        W77614  24.987   9.737   3.698
16304W        W77615  38.473  42.935   3.838
16305W        W77616   1.749  31.612  11.413
16306W        W77617  13.793  17.569   3.740
16307W        W77618  38.391  35.384   3.321
16308W        W77619  22.630  22.573   3.806
16309W        W77620   6.410   5.243  12.459
16310W        W77621  29.510  37.037  10.557
16311W        W77622  39.371  42.950  14.829
16312W        W77623  37.876  27.625  10.561
16313W        W77624   9.353  33.464   9.944
16314W        W77625   1.811  27.125  10.555
16315W        W77626   3.890   1.839   0.863
16316W        W77627  37.984  10.228   1.861
16317W        W77628  26.017   3.790  12.074
16318W        W77629  12.722  33.597  11.500
16319W        W77630  37.955  26.988  13.043
16320W        W77631   6.286  32.921  11.919
16321W        W77632  21.019  33.045   3.827
16322W        W77633  10.665  31.129   0.828
16323W        W77634  39.494   2.469  14.461
16324W        W77635  26.114  16.165   1.927
16325W        W77636   0.942  44.442  12.926
16326W        W77637   6.885   4.775  13.005
16327W        W77638   0.987  31.130  14.943
16328W        W77639  44.358   6.382  14.841
16329W        W77640  20.611  36.384   1.280
16330W        W77641  11.831  10.376  12.385
16331W        W77642   8.754  14.684  12.012
16332W        W77643  43.920   1.784   1.343
16333W        W77644  17.739  21.243  11.403
16334W        W77645  18.230  22.188  13.795
16335W        W77646  37.964  36.466  11.570
16336W        W77647  17.206   7.899   4.788
16337W        W77648  13.239   1.935   4.268
16338W        W77649  15.774  11.309   3.341
16339W        W77650  11.821  40.346   1.241
16340W        W77651   9.262  36.389   2.402
16341W        W77652  43.472  28.957  13.386
16342W        W77653  16.730   9.694   4.132
16343W        W77654   9.293  15.823   5.270
16344W        W77655  31.499  44.434  13.441
16345W        W77656  44.918  14.323  10.973
16346W        W77657  43.819  29.090  13.894
16347W        W77658  37.339  18.078   0.906
16348W        W77659  30.580   7.799   4.316
16349W        W77660  37.846  21.693   0.856
16350W        W77661  15.769  41.524   0.911
16351W        W77662  22.195  13.150   1.330
16352W        W77663  20.084  16.079   2.242
16353W        W77664  36.492  33.509   9.936
16354W        W77665  13.340  12.623  11.921
16355W        W77666  23.086  24.080   3.281
16356W        W77667  39.392  26.067   3.339
16357W        W77668  30.029   4.254  12.386
16358W        W77669   7.688  41.469   2.322
16359W        W77670  41.429  29.078   0.291
16360W        W77671   1.354  36.347   2.738
16361W        W77672  13.816  11.358  13.821
16362W        W77673  35.399  22.054   4.260
16363W        W77674  28.949   0.937   2.323
16364W        W77675   8.396   2.935   3.172
16365W        W77676  43.384   6.713  10.637
16366W        W77677  35.987  38.515   9.509
16367W        W77678  32.921  12.258   0.789
16368W        W77679   1.442  14.717   4.788
16369W        W77680  32.584  15.621  12.881
16370W        W77681   0.877   4.243  13.901
16371W        W77682  42.368  12.116   0.879
16372W        W77683   8.316  26.520   3.752
16373W        W77684  13.814  30.634   2.848
16374W        W77685  37.575  12.764  10.541
16375W        W77686  35.945  15.129  14.814
16376W        W77687  37.414  11.634   2.350
16377W        W77688  37.930   5.733   0.367
16378W        W77689  26.668   1.796   4.184
16379W        W77690  10.196  11.249  13.011
16380W        W77691  21.151  12.362   4.324
16381W        W77692  16.228  20.205  11.522
16382W        W77693  18.695  33.957   1.371
16383W        W77694   4.847  43.445  11.944
16384W        W77695   9.666   3.756   2.679
16385W        W77696   8.750  28.050  13.896
16386W        W77697  36.582  27.608  11.125
16387W        W77698   6.876  22.127  11.603
16388W        W77699  11.800  39.371  12.996
16389W        W77700  41.804  41.377  10.967
16390W        W77701  19.262  39.830   3.791
16391W        W77702  27.501  11.766  10.622
16392W        W77703  36.365  27.941  12.987
16393W        W77704  36.068  14.690  12.401
16394W        W77705   0.943  26.122  11.868
16395W        W77706   8.674  29.994   2.899
16396W        W77707  36.928  34.604   2.805
16397W        W77708  20.041   4.389   4.174
16398W        W77709   9.741  36.556  13.856
16399W        W77710  29.980   9.777  12.952
16400W        W77711   1.469  19.130  14.864
16401W        W77712  18.051  22.618  10.641
16402W        W77713   2.833  40.345  11.460
16403W        W77714   6.730  34.879  12.393
16404W        W77715  21.190   9.327  13.924
16405W        W77716  37.863  37.339   4.200
16406W        W77717  18.233  44.805  11.945
16407W        W77718  21.542  44.470   0.850
16408W        W77719  20.743  13.757   2.816
16409W        W77720   2.451  18.598   4.168
16410W        W77721  25.662  42.461   3.765
16411W        W77722   9.875   9.795   0.446
16412W        W77723  30.545  18.662  10.514
16413W        W77724  15.264   8.762   1.813
16414W        W77725  18.720  30.561   4.781
16415W        W77726   6.679  13.777   1.897
16416W        W77727  22.013  29.610   5.722
16417W        W77728   9.341  41.006  13.941
16418W        W77729  38.993   6.406   1.713
16419W        W77730  33.420  32.403   2.806
16420W        W77731  41.922  36.958   4.800
16421W        W77732  13.647   2.852   1.839
16422W        W77733  10.720  19.090  10.590
16423W        W77734  34.985   7.235   2.702
16424W        W77735  23.628  22.187  13.800
16425W        W77736  42.382  41.821   1.699
16426W        W77737   4.320  19.684   0.255
16427W        W77738  36.981  21.565   3.168
16428W        W77739  17.611  39.437  12.956
16429W        W77740  11.261  44.285   2.849
16430W        W77741   8.374   8.307   2.351
16431W        W77742   5.899  39.351  13.859
16432W        W77743  40.518  40.798   0.894
16433W        W77744  40.435  38.405  12.942
16434W        W77745  22.714   2.422   2.375
16435W        W77746  18.273  40.813   3.812
16436W        W77747   1.918   2.444  13.500
16437W        W77748  31.964   3.897   3.818
16438W        W77749  32.944  17.128   1.854
16439W        W77750  26.159  18.780   0.455
16440W        W77751  22.088  25.079   3.679
16441W        W77752  39.425  40.400   0.377
16442W        W77753   9.279  34.505   0.261
16443W        W77754  16.676   5.724  10.498
16444W        W77755  11.289  42.030  10.552
16445W        W77756   4.307  30.070   4.296
16446W        W77757  14.220  38.068   2.362
16447W        W77758  15.627  26.652  12.387
16448W        W77759  32.635  44.781   1.338
16449W        W77760   6.679  21.546  11.875
16450W        W77761  35.505   9.675  11.967
16451W        W77762  21.714  12.643  12.873
16452W        W77763  44.492  31.549   4.204
16453W        W77764  17.596  22.731  10.538
16454W        W77765  25.542  11.264  10.156
16455W        W77766  40.364  35.478  14.997
16456W        W77767  39.970  40.823  14.458
16457W        W77768  44.373  35.969  10.074
16458W        W77769  27.651  33.047   4.265
16459W        W77770  20.553  43.305   1.848
16460W        W77771  40.426  24.072  14.378
16461W        W77772  21.670  17.117   0.437
16462W        W77773  21.554  37.000  12.880
16463W        W77774  35.537  29.045   4.183
16464W        W77775  34.081  20.642   2.257
16465W        W77776  31.925  41.939   4.706
16466W        W77777  32.629  34.516   3.310
16467W        W77778  40.452  33.078   3.740
16468W        W77779   6.797   6.765   3.701
16469W        W77780  19.264   7.698   3.763
16470W        W77781  27.518  38.844  11.442
16471W        W77782  12.620  21.598   0.423
16472W        W77783  42.524  43.922   0.454
16473W        W77784  19.114  39.532   3.787
16474W        W77785  28.093   4.288  11.977
16475W        W77786  28.993  19.244   4.311
16476W        W77787  14.653  10.863   0.912
16477W        W77788  30.631   3.415  10.019
16478W        W77789  19.604  24.023   2.263
16479W        W77790  18.074   0.783   3.723
16480W        W77791  15.662   9.389  11.002
16481W        W77792  16.665  29.920   4.276
16482W        W77793  42.461  39.967  13.826
16483W        W77794  37.516  29.078  14.500
16484W        W77795  38.360  12.345   4.170
16485W        W77796  42.862  36.570  11.933
16486W        W77797  21.024  31.073   3.818
16487W        W77798  14.820  24.713  13.366
16488W        W77799  10.237  42.846  12.884
16489W        W77800  36.915   6.198   3.694
16490W        W77801  44.491  18.261  13.959
16491W        W77802  42.960  41.040   4.207
16492W        W77803  36.083  38.020  11.856
16493W        W77804  31.024  39.973  10.105
16494W        W77805  36.442  15.233   0.438
16495W        W77806  40.372   2.736  14.279
16496W        W77807  42.836  40.493   5.206
16497W        W77808   0.977  14.808   3.788
16498W        W77809  17.214  35.409   1.373
16499W        W77810   4.758  15.783  10.022
16500W        W77811  44.850  28.445   4.118
16501W        W77812   9.370   1.274  13.019
16502W        W77813  38.542  31.967  12.849
16503W        W77814  10.330  31.937   5.084
16504W        W77815  41.891  31.986  11.910
16505W        W77816   6.428  13.350   3.811
16506W        W77817  37.406  40.452  12.365
16507W        W77818   4.846  12.299   2.354
16508W        W77819  14.598  33.017   4.696
16509W        W77820  22.532  36.515  13.830
16510W        W77821  36.905  15.657   4.819
16511W        W77822  11.358  24.687  11.416
16512W        W77823   7.220   9.159  14.472
16513W        W77824  44.373   7.316   4.196
16514W        W77825   9.304  40.444  12.453
16515W        W77826  34.436  25.209  14.886
16516W        W77827  20.769  10.744  11.942
16517W        W77828  22.132  11.696  11.083
16518W        W77829  38.921  34.416   2.240
16519W        W77830  40.512   1.464  14.434
16520W        W77831  33.969   3.837  12.400
16521W        W77832  22.517  13.676  14.764
16522W        W77833  13.128  28.990   0.964
16523W        W77834   4.754  26.135   1.383
16524W        W77835   7.276  10.273  14.802
16525W        W77836   6.871   7.405   1.222
16526W        W77837  40.528   1.942   4.613
16527W        W77838  28.147   0.840  10.889
16528W        W77839  20.029   7.886   3.272
16529W        W77840  42.954   5.859  13.463
16530W        W77841   6.833   1.832   1.731
16531W        W77842  32.993   4.783   0.873
16532W        W77843  23.647  20.524   5.282
16533W        W77844  36.579  44.904   3.153
16534W        W77845  32.521   6.221  11.939
16535W        W77846  36.028  39.980  12.421
16536W        W77847  24.983   5.749   1.832
16537W        W77848  36.096  31.130   3.645
16538W        W77849  16.606  37.361  10.527
16539W        W77850  18.115  31.484   2.854
16540W        W77851  35.562  38.472   1.828
16541W        W77852   3.397  43.888   1.803
16542W        W77853  14.683  29.602   1.732
16543W        W77854  40.323  13.188  11.040
16544W        W77855  35.952  13.686   1.910
16545W        W77856  16.282  41.857   0.772
16546W        W77857  32.890  33.412  12.855
16547W        W77858  13.814  35.453  14.806
16548W        W77859  19.227  26.693  13.519
16549W        W77860   8.366   8.194  13.983
16550W        W77861   9.841  36.382   2.760
16551W        W77862  31.904  21.535  12.377
16552W        W77863  19.167  42.434  12.046
16553W        W77864  34.887  13.628   1.281
16554W        W77865  16.296  23.612   5.220
16555W        W77866   5.256  36.848   3.845
16556W        W77867  44.831   4.345   4.754
16557W        W77868  11.821   0.430   2.703
16558W        W77869  32.975  14.207   0.375
16559W        W77870  35.086  31.057   3.235
16560W        W77871  34.530  31.047   3.860
16561W        W77872  41.366  22.995  13.958
16562W        W77873   6.906  11.316  10.511
16563W        W77874  37.988  29.025  12.413
16564W        W77875  23.092   2.227   3.209
16565W        W77876  34.439   3.392  14.359
16566W        W77877  14.180   9.217   4.694
16567W        W77878  31.024  11.278  12.373
16568W        W77879  44.971  27.507  10.620
16569W        W77880   1.475  28.589   0.327
16570W        W77881   6.201  14.827  11.543
16571W        W77882  34.981  10.168   5.103
16572W        W77883  29.928   1.926   4.336
16573W        W77884  11.796  28.112  13.523
16574W        W77885  29.022   0.844  11.581
16575W        W77886  19.120   3.359  13.509
16576W        W77887  32.067  11.729   2.858
16577W        W77888  32.563  13.172  11.524
16578W        W77889  14.166  40.885  12.534
16579W        W77890  28.476  25.972  13.952
16580W        W77891  23.611  30.160  13.328
16581W        W77892  26.614  18.144  11.468
16582W        W77893   4.369  42.862   0.374
16583W        W77894  10.229   7.729   2.895
16584W        W77895  11.865   6.758   3.174
16585W        W77896  36.866  28.084   2.231
16586W        W77897  40.536  42.489  14.890
16587W        W77898  27.613  10.138   1.845
16588W        W77899  30.433   4.312   2.803
16589W        W77900  26.696  31.960  13.059
16590W        W77901  10.665  28.977  10.584
16591W        W77902  14.213  29.103   3.776
16592W        W77903  24.531  32.050   4.799
16593W        W77904  10.170   1.382   4.245
16594W        W77905  34.589  41.463  14.861
16595W        W77906  11.737  25.096   4.824
16596W        W77907   7.194  18.715   4.150
16597W        W77908  44.944   6.181  11.536
16598W        W77909  15.808  44.433  10.911
16599W        W77910  11.322  15.311   2.897
16600W        W77911   3.804  23.645  11.053
16601W        W77912  19.277  32.562  11.494
16602W        W77913  23.096   5.903  11.532
16603W        W77914  20.698  28.557  11.120
16604W        W77915  14.734  30.160  13.386
16605W        W77916  27.035  12.839   3.290
16606W        W77917  36.434  28.096  10.075
16607W        W77918  15.269  11.337   0.455
16608W        W77919  20.598  31.127   3.810
16609W        W77920  41.534  34.612  13.411
16610W        W77921  28.656  26.574   1.232
16611W        W77922  32.438  38.441  13.474
16612W        W77923   3.899   0.866   2.667
16613W        W77924  38.507  10.660  11.439
16614W        W77925  36.574  33.078   2.217
16615W        W77926  24.677  22.097  11.380
16616W        W77927   9.680  44.373   1.231
16617W        W77928  23.091  10.209   0.829
16618W        W77929  43.511  11.752  11.941
16619W        W77930  27.675  23.497   2.371
16620W        W77931   6.421  13.783  11.437
16621W        W77932  11.286  24.115  13.035
16622W        W77933  41.853  19.550   1.275
16623W        W77934  37.494  13.778   1.314
16624W        W77935  13.315  17.210  10.557
16625W        W77936  18.133  16.234   1.819
16626W        W77937  27.039  24.118  12.436
16627W        W77938  14.600  11.713  10.897
16628W        W77939  44.785  15.138   0.338
16629W        W77940  42.834  21.081   5.176
16630W        W77941   2.883  41.439   1.434
16631W        W77942  33.405  16.681   1.219
16632W        W77943   6.418   7.207   0.809
16633W        W77944  22.557  32.392  14.850
16634W        W77945  20.763  40.902   4.808
16635W        W77946   1.266  34.534   0.935
16636W        W77947  42.997  43.432  10.432
16637W        W77948  37.068  42.491  10.426
16638W        W77949   5.926  38.992  14.925
16639W        W77950   8.728  33.063   4.266
16640W        W77951  36.048  38.487   1.833
16641W        W77952  37.552   1.749  12.072
16642W        W77953  16.683  10.844   1.881
16643W        W77954  18.730  22.586   3.225
16644W        W77955  26.970  25.692  14.923
16645W        W77956  33.068  42.782   4.175
16646W        W77957  13.718  23.668   5.728
16647W        W77958  25.190  20.062   0.848
16648W        W77959  34.888  43.493   3.752
16649W        W77960  28.530  20.112  12.380
16650W        W77961   0.842   9.778   4.721
16651W        W77962   6.182   9.195   1.755
16652W        W77963  44.340  16.158  14.840
16653W        W77964  21.125  36.481   4.125
16654W        W77965  21.517  17.712   4.825
16655W        W77966   5.893  22.224  13.027
16656W        W77967  28.508  14.609   4.343
16657W        W77968  44.918  28.528  14.397
16658W        W77969  26.031  27.481  12.093
16659W        W77970   6.801  18.266   4.677
16660W        W77971  16.197   6.822  11.543
16661W        W77972  30.599  13.216   1.258
16662W        W77973  28.974  15.793   0.270
16663W        W77974  40.894  43.386  14.290
16664W        W77975  38.472   8.831  14.909
16665W        W77976   4.401  11.705  14.278
16666W        W77977  23.023  24.701   2.757
16667W        W77978  42.291  23.233  10.587
16668W        W77979   6.780   1.403   4.280
16669W        W77980  11.357  36.893   0.834
16670W        W77981  17.244   2.324  13.813
16671W        W77982  16.194  38.018   4.783
16672W        W77983  24.536  34.069  14.283
16673W        W77984  19.710  13.231  11.013
16674W        W77985   3.404  14.696  11.440
16675W        W77986  21.675  41.337  11.889
16676W        W77987   7.287  36.961   0.947
16677W        W77988  28.529   4.233  10.927
16678W        W77989  37.854  28.177   2.409
16679W        W77990   0.441  36.921  12.978
16680W        W77991  16.303  30.549  11.543
16681W        W77992  12.799  28.559  14.337
16682W        W77993   0.875  19.602   2.744
16683W        W77994  19.234  35.919   3.330
16684W        W77995   3.390  32.896   0.398
16685W        W77996  11.207  15.189  12.011
16686W        W77997  10.296   4.291  10.894
16687W        W77998   7.392  27.557  11.946
16688W        W77999   8.254  19.558   0.247
16689W        W78000  21.700  34.519  13.365
16690W        W78001  12.637  40.911  13.328
16691W        W78002   6.759  14.233  11.398
16692W        W78003  16.596   9.800  14.916
16693W        W78004   5.303  43.350  12.070
16694W        W78005  32.073  22.511   1.726
16695W        W78006  21.182  34.876  14.910
16696W        W78007  39.549  44.905  14.882
16697W        W78008  35.961  25.112  14.913
16698W        W78009  13.711  32.620   3.688
16699W        W78010  10.810  11.673   4.303
16700W        W78011   2.843  15.284  11.381
16701W        W78012  31.943  41.026   1.913
16702W        W78013  31.944  34.523   1.226
16703W        W78014  10.694   7.699   0.883
16704W        W78015  25.637  24.644  13.471
16705W        W78016  11.318  13.716  11.502
16706W        W78017  33.408  22.710   2.891
16707W        W78018  28.149  32.423   2.270
16708W        W78019  15.731  24.973   2.860
16709W        W78020  11.189  35.548  13.823
16710W        W78021  36.907  30.988   4.317
16711W        W78022  23.641  16.198  14.959
16712W        W78023   4.358  39.886  10.478
16713W        W78024   8.229  37.864  12.522
16714W        W78025  30.091   0.372  10.908
16715W        W78026  35.051  27.582   3.769
16716W        W78027  15.286  10.776   1.804
16717W        W78028  44.818  33.548   3.785
16718W        W78029   6.840   6.727   4.789
16719W        W78030  42.909  26.081  10.021
16720W        W78031  33.574  41.344   2.757
16721W        W78032   5.772  30.926   2.339
16722W        W78033  10.240  26.566  12.840
16723W        W78034  39.877  24.523  14.850
16724W        W78035   1.271   7.726   4.264
16725W        W78036  17.766  43.774   2.181
16726W        W78037  31.082  22.546  14.285
16727W        W78038   9.882  34.423  13.458
16728W        W78039  29.057  22.627  11.936
16729W        W78040  23.644  25.506  14.484
16730W        W78041   7.317  24.539   4.241
16731W        W78042   7.799  10.337  13.880
16732W        W78043  18.712  14.667  13.512
16733W        W78044  13.125  21.155  10.482
16734W        W78045   8.234  31.474  10.631
16735W        W78046   0.867  16.195  12.536
16736W        W78047   1.773  10.234   4.681
16737W        W78048  37.008  36.994  13.826
16738W        W78049  40.347  24.196  11.557
16739W        W78050   8.697  31.978  11.107
16740W        W78051  32.008  30.427  12.846
16741W        W78052   4.437  29.965  13.023
16742W        W78053   2.872  28.464   4.315
16743W        W78054   6.744  23.051  13.465
16744W        W78055  37.539  33.428  11.516
16745W        W78056  44.839  28.930   2.865
16746W        W78057  35.923  27.692  13.994
16747W        W78058  19.063   9.726   4.293
16748W        W78059   5.775  34.531  10.959
16749W        W78060   0.417  32.451   2.303
16750W        W78061  40.879  33.422  11.123
16751W        W78062  18.235  38.420   4.788
16752W        W78063  42.982  38.052   0.454
16753W        W78064   9.339  31.121  13.893
16754W        W78065  32.593  44.450   0.303
16755W        W78066  33.594  26.174  10.524
16756W        W78067   2.239  11.248  10.594
16757W        W78068  32.022  25.988  13.526
16758W        W78069  41.786  23.662  10.969
16759W        W78070  30.582   8.875  11.069
16760W        W78071  39.420  18.709   2.808
16761W        W78072  21.146  20.535   3.146
16762W        W78073  23.237  27.048  10.464
16763W        W78074  20.717  27.990  14.999
16764W        W78075   3.772  11.301   0.279
16765W        W78076  28.550  22.522   1.358
16766W        W78077   1.477   8.687   4.329
16767W        W78078  31.023  23.124  11.949
16768W        W78079   4.812  30.550  11.857
16769W        W78080  11.667   5.384  14.987
16770W        W78081  14.118  42.022   3.180
16771W        W78082  37.491   4.808   1.354
16772W        W78083  33.439  41.820  14.438
16773W        W78084  35.037  43.904   4.222
16774W        W78085  38.036  19.581   0.919
16775W        W78086  11.849  33.913   1.775
16776W        W78087  31.079  41.925  12.397
16777W        W78088   9.687  12.296   4.726
16778W        W78089  32.626  14.782   3.786
16779W        W78090  29.436   9.723  10.128
16780W        W78091  29.027   1.338  13.035
16781W        W78092  31.914  19.157   1.237
16782W        W78093   5.888  35.575   2.219
16783W        W78094  13.317  38.869  12.027
16784W        W78095  29.022  41.296   3.221
16785W        W78096  27.072  10.718  13.860
16786W        W78097  34.964   9.657  12.416
16787W        W78098  43.916  25.172  10.540
16788W        W78099  39.045  14.231   3.196
16789W        W78100  16.230  36.398  12.865
16790W        W78101   8.718  21.203  13.400
16791W        W78102  41.014  16.586   3.248
16792W        W78103   0.381  31.460  14.365
16793W        W78104  16.789  36.036   0.377
16794W        W78105  42.472  25.197   3.290
16795W        W78106  35.553   0.419  12.469
16796W        W78107  32.398  28.972  13.370
16797W        W78108  22.635  44.939   1.308
16798W        W78109  27.610  36.040   1.888
16799W        W78110  31.647   0.787   2.806
16800W        W78111   2.321   7.395   1.287
16801W        W78112  44.917  31.046  13.456
16802W        W78113  43.328  28.465   4.190
16803W        W78114  16.304   1.358  14.968
16804W        W78115  27.020  22.125  13.412
16805W        W78116  24.036  43.366  14.462
16806W        W78117  18.727  19.047   2.307
16807W        W78118   1.927  24.518  13.983
16808W        W78119  10.371  17.586  14.376
16809W        W78120  32.499  13.608  13.473
16810W        W78121  35.861  38.481   3.211
16811W        W78122  42.812   2.927  11.425
16812W        W78123  15.090  26.562   0.776
16813W        W78124  31.901  31.993   4.203
16814W        W78125  20.757  23.091   0.444
16815W        W78126  44.983  41.454  10.630
16816W        W78127  29.454  23.228  12.911
16817W        W78128  40.805  34.415   3.164
16818W        W78129   4.219  34.461  10.433
16819W        W78130  44.006  14.216   4.233
16820W        W78131  22.565  41.982  13.830
16821W        W78132  28.080  17.268   3.828
16822W        W78133  17.215  39.539  12.914
16823W        W78134  15.618  38.414   0.289
16824W        W78135  28.173  23.062  10.914
16825W        W78136  10.829  15.767  11.532
16826W        W78137  13.157  35.544  13.982
16827W        W78138  30.915  35.943   0.449
16828W        W78139  15.799  36.557   4.783
16829W        W78140  15.812  38.967   3.685
16830W        W78141  43.475  43.422  12.078
16831W        W78142   9.204   6.681   2.397
16832W        W78143   9.765  18.145   3.309
16833W        W78144  31.627  21.564   1.367
16834W        W78145  37.534  37.524   4.700
16835W        W78146  26.574   7.289  12.408
16836W        W78147  11.323   5.930  10.487
16837W        W78148  44.297  12.692   0.269
16838W        W78149  12.650  24.681  12.842
16839W        W78150   1.408  14.173  14.360
16840W        W78151  30.973  16.795   4.159
16841W        W78152  25.194  10.294   4.687
16842W        W78153  19.221  38.563  10.508
16843W        W78154  43.487   9.350   3.665
16844W        W78155  42.525  41.816  14.987
16845W        W78156  10.138  39.409   0.784
16846W        W78157  14.241  23.200   1.695
16847W        W78158  23.605  34.584   0.727
16848W        W78159  36.581  34.606  12.032
16849W        W78160  32.506  31.470   2.331
16850W        W78161  10.817  24.677  11.055
16851W        W78162  25.471  40.953  10.922
16852W        W78163   8.854  33.907  13.047
16853W        W78164  20.153  41.975  14.393
16854W        W78165  25.977  24.079   1.881
16855W        W78166  38.365  32.070  10.471
16856W        W78167   6.731  28.663   1.782
16857W        W78168  31.406  28.021   1.798
16858W        W78169  32.021  12.211  11.064
16859W        W78170  12.611  32.959   3.151
16860W        W78171  36.537  15.761  14.444
16861W        W78172  20.640   0.451  12.340
16862W        W78173  33.568  40.993   4.180
16863W        W78174   3.283  14.706  12.083
16864W        W78175  28.487  36.447  11.432
16865W        W78176  35.880  24.001   4.182
16866W        W78177  44.892  41.381   2.418
16867W        W78178   1.380  19.174  13.365
16868W        W78179  23.219  17.749   5.576
16869W        W78180  40.387  19.578  13.836
16870W        W78181  24.591   9.229   1.378
16871W        W78182   9.846  19.603  12.420
16872W        W78183   0.248  29.491  11.863
16873W        W78184  27.945  31.484   2.316
16874W        W78185  26.169  23.193   4.194
16875W        W78186   1.911   8.203  13.909
16876W        W78187  28.674  16.105  13.914
16877W        W78188  35.389  24.569   0.332
16878W        W78189   7.392  41.833   1.381
16879W        W78190  18.579  20.088   2.339
16880W        W78191  26.042  41.905   0.788
16881W        W78192  13.767  11.733  11.502
16882W        W78193  25.986  44.934  10.912
16883W        W78194  34.417  38.568  12.384
16884W        W78195  42.398   0.751   2.236
16885W        W78196  43.377   8.796   0.729
16886W        W78197   1.348  28.576   0.903
16887W        W78198  31.964  13.728  12.528
16888W        W78199  10.823  36.537   3.183
16889W        W78200  13.290  13.117  14.442
16890W        W78201  11.292  12.826   4.603
16891W        W78202  13.336   1.389  12.349
16892W        W78203  19.692  40.400  14.392
16893W        W78204  29.105  24.077  12.074
16894W        W78205  36.414  43.294   2.256
16895W        W78206  25.198  36.405  11.909
16896W        W78207  18.199  11.814   3.713
16897W        W78208  16.217   9.793   4.236
16898W        W78209  22.055  26.556  14.454
16899W        W78210   2.315  26.135  11.872
16900W        W78211   5.257  34.584  13.427
16901W        W78212  13.306  39.035   5.168
16902W        W78213  33.391  30.130  10.984
16903W        W78214  44.929  32.106  11.012
16904W        W78215  38.360  16.809  11.120
16905W        W78216   0.797  18.252   3.306
16906W        W78217   3.920  16.630  13.310
16907W        W78218  15.700  35.106   3.333
16908W        W78219  32.502  19.255  10.405
16909W        W78220  33.082  31.441   3.777
16910W        W78221  37.368  31.028   2.885
16911W        W78222  23.527  44.937  13.350
16912W        W78223   5.222  15.681   9.986
16913W        W78224  23.069  28.986   3.667
16914W        W78225   7.195  13.834   2.792
16915W        W78226  26.672  43.839   0.894
16916W        W78227  41.390  11.255   3.361
16917W        W78228  42.984  42.001  11.426
16918W        W78229  15.669   5.412  14.873
16919W        W78230   9.372  20.181  11.424
16920W        W78231  37.863   7.774  13.541
16921W        W78232   6.221   0.290   0.408
16922W        W78233  10.223  14.322   2.728
16923W        W78234   5.925   1.809  10.616
16924W        W78235  16.199  22.183  13.064
16925W        W78236  31.420  25.069   2.716
16926W        W78237   9.745   3.454   4.205
16927W        W78238   1.784  22.501   1.727
16928W        W78239   9.220  17.675  14.372
16929W        W78240  40.476   5.306   4.256
16930W        W78241  39.029  24.706  12.071
16931W        W78242  21.109  38.331   0.938
16932W        W78243  33.075  40.886   4.639
16933W        W78244  26.625  13.190   0.421
16934W        W78245   8.326  13.684   1.415
16935W        W78246   2.759  21.695   1.837
16936W        W78247  34.957  39.434  14.414
16937W        W78248  27.565  35.038  13.363
16938W        W78249  28.081  12.268   0.432
16939W        W78250  40.836  34.512  10.644
16940W        W78251   9.252  26.050   3.843
16941W        W78252  41.800  18.554  12.567
16942W        W78253   4.374   9.802   4.114
16943W        W78254  18.604   7.219  12.916
16944W        W78255  14.670   0.944  12.919
16945W        W78256   9.840  37.576  13.422
16946W        W78257   7.896  26.499   4.662
16947W        W78258   3.778   3.461   1.315
16948W        W78259  41.424   0.748  12.060
16949W        W78260  17.595  29.456  11.562
16950W        W78261  12.770  36.017   4.340
16951W        W78262  36.899  10.641  12.053
16952W        W78263  42.816  44.764  13.908
16953W        W78264  31.049  11.310  11.516
16954W        W78265   5.391  38.434   1.381
16955W        W78266   0.791  30.095   0.471
16956W        W78267  31.595  36.569  13.396
16957W        W78268  24.983  29.452  14.275
16958W        W78269  17.721  14.683  12.040
16959W        W78270  12.260  36.008   4.236
16960W        W78271  30.646   7.184  13.320
16961W        W78272  23.224  18.167   1.726
16962W        W78273  44.369  17.614   3.798
16963W        W78274  18.696  36.579   2.273
16964W        W78275  25.694  29.121  10.963
16965W        W78276   0.901  33.987  11.451
16966W        W78277  15.679   7.180  13.375
16967W        W78278  30.653  38.387   0.449
16968W        W78279   3.436  14.769  13.062
16969W        W78280  43.862  27.969   3.648
16970W        W78281  37.026   6.822   2.351
16971W        W78282  29.646  23.524   3.765
16972W        W78283  13.304  17.298   0.736
16973W        W78284  11.734  17.621  12.069
16974W        W78285  35.075  25.115   3.303
16975W        W78286  44.379  11.300   4.187
16976W        W78287  17.717  16.778   2.386
16977W        W78288  35.038   6.206   1.759
16978W        W78289   5.781  42.009  11.585
16979W        W78290  15.700  15.723   2.779
16980W        W78291  18.675  39.031   5.116
16981W        W78292  39.446  35.059  12.540
16982W        W78293   9.845  16.668   1.817
16983W        W78294  13.275  42.514   1.822
16984W        W78295  29.084  31.932  13.980
16985W        W78296  39.892  27.163  13.431
16986W        W78297   7.857  26.543  12.981
16987W        W78298  44.966  38.014  12.909
16988W        W78299  33.463  32.976  13.957
16989W        W78300  44.434  35.867   0.388
16990W        W78301   4.329  24.583   3.690
16991W        W78302  42.909  29.444  14.350
16992W        W78303  40.351  20.765   0.868
16993W        W78304  25.075  39.426  11.524
16994W        W78305  37.036  16.106  12.389
16995W        W78306  30.058  32.100   4.305
16996W        W78307  16.253   6.293   2.182
16997W        W78308  14.121  31.981   4.299
16998W        W78309  19.112  42.994  10.956
16999W        W78310  18.630  38.861  12.093
17000W        W78311  16.275  14.101  14.278
17001W        W78312  13.763  10.378   1.404
17002W        W78313   9.855  10.260   4.637
17003W        W78314  26.091  23.715  13.891
17004W        W78315   1.733  34.914  14.913
17005W        W78316  34.053  42.790  10.465
17006W        W78317  44.008   3.320   3.728
17007W        W78318  22.588  31.486  10.998
17008W        W78319  25.060  22.684   2.890
17009W        W78320  33.938   1.261   1.260
17010W        W78321  38.517  19.064  14.767
17011W        W78322  25.493  18.669  14.331
17012W        W78323  28.049   0.277  14.845
17013W        W78324  25.583  31.433  12.517
17014W        W78325  32.474  44.866  14.506
17015W        W78326  16.634  44.783   4.808
17016W        W78327  11.720   1.874  14.789
17017W        W78328   0.955  13.191  13.899
17018W        W78329   0.954  12.677  12.993
17019W        W78330  14.325  14.298   0.942
17020W        W78331  22.145  35.076  14.834
17021W        W78332  18.770   1.262  14.762
17022W        W78333  20.092  44.947   0.913
17023W        W78334   3.933  27.100   1.358
17024W        W78335  37.056   3.407   1.754
17025W        W78336  18.644  14.268   1.416
17026W        W78337  43.857  28.514  13.396
17027W        W78338  41.935   7.819  13.959
17028W        W78339   2.783  37.340   2.774
17029W        W78340   1.876  43.330   4.221
17030W        W78341  10.802  43.819  12.848
17031W        W78342  43.396  10.267  13.504
17032W        W78343  41.328   2.901   2.261
17033W        W78344  19.774  15.157  14.345
17034W        W78345   0.450  44.472   2.247
17035W        W78346  22.132   6.307  11.410
17036W        W78347  13.221  25.073  14.769
17037W        W78348  16.573  44.433  13.861
17038W        W78349  12.625  16.229  13.805
17039W        W78350  43.883  40.487   3.279
17040W        W78351  11.815  12.627   2.720
17041W        W78352  31.558  14.169  13.920
17042W        W78353   4.725   1.967  11.507
17043W        W78354  16.568  36.001   2.786
17044W        W78355  11.298  21.070  13.324
17045W        W78356  24.040  10.193  11.432
17046W        W78357  39.973  10.805   2.209
17047W        W78358  13.110   2.794   0.261
17048W        W78359  34.928  27.572  11.961
17049W        W78360  16.711  34.941  11.112
17050W        W78361  43.866  39.025  10.969
17051W        W78362  10.807  36.534  12.504
17052W        W78363  39.465  27.116   3.228
17053W        W78364  44.970  26.624  14.924
17054W        W78365   3.403  32.913   0.962
17055W        W78366  42.365   6.853   2.366
17056W        W78367  42.884  39.454   1.375
17057W        W78368   8.758  25.516   2.220
17058W        W78369  18.694  34.892  13.955
17059W        W78370  12.810  44.435   4.742
17060W        W78371   0.417  39.030  13.854
17061W        W78372   8.872  36.392  11.599
17062W        W78373  35.604  21.750   4.279
17063W        W78374  33.007  25.017  14.992
17064W        W78375  43.313  25.004   3.851
17065W        W78376   5.242  23.604  11.984
17066W        W78377  25.701   1.892   4.804
17067W        W78378  20.034  14.260  12.560
17068W        W78379   4.227  23.648   3.288
17069W        W78380   0.254  38.388   3.700
17070W        W78381  33.963   4.279   4.798
17071W        W78382  17.685  25.085  10.625
17072W        W78383   3.735  15.803  11.041
17073W        W78384   5.291  36.847   2.747
17074W        W78385  31.936   6.781   9.572
17075W        W78386   4.421  42.524  13.874
17076W        W78387  40.359   5.831   2.845
17077W        W78388   0.854  17.755   4.223
17078W        W78389  44.873  34.035  11.022
17079W        W78390  40.894   7.194   2.857
17080W        W78391  32.565   7.362   4.826
17081W        W78392  12.855   7.372   3.801
17082W        W78393   7.726  33.588  12.526
17083W        W78394  20.572   4.301  10.525
17084W        W78395   6.329  27.169   2.860
17085W        W78396   0.349   8.190  11.479
17086W        W78397  27.010  34.900  11.552
17087W        W78398  26.100   3.940   4.163
17088W        W78399  32.059   7.346  10.022
17089W        W78400  42.790  40.411   2.792
17090W        W78401   5.687   8.354   1.269
17091W        W78402  16.095   5.381  13.869
17092W        W78403  18.764  12.209  14.828
17093W        W78404  42.977  31.607   2.814
17094W        W78405  38.065  14.134   5.099
17095W        W78406  19.180   6.901  11.869
17096W        W78407  39.457   1.255   0.797
17097W        W78408  34.866  30.993   2.888
17098W        W78409   5.858  21.553   1.920
17099W        W78410  29.069  41.795   4.812
17100W        W78411  41.357  17.751  11.603
17101W        W78412  23.123  33.979  11.541
17102W        W78413  39.060  22.112   4.288
17103W        W78414  44.501  39.472  13.810
17104W        W78415  43.481   1.427  14.504
17105W        W78416   5.926  39.390  11.891
17106W        W78417   5.814   5.269   4.198
17107W        W78418  18.750  14.687   2.278
17108W        W78419  24.519   4.737  13.400
17109W        W78420   3.455  29.002   3.820
17110W        W78421  29.630  29.170  13.978
17111W        W78422  15.201   0.865  14.830
17112W        W78423  13.647  17.172  12.483
17113W        W78424   5.732  21.719   2.883
17114W        W78425  28.152  27.648  10.513
17115W        W78426  34.931  15.221   4.798
17116W        W78427  35.381  26.700   2.265
17117W        W78428  12.314  41.461   1.338
17118W        W78429  25.136  42.330   0.915
17119W        W78430  12.354   3.288   4.344
17120W        W78431   1.292   9.157  12.888
17121W        W78432   1.818   5.901   0.453
17122W        W78433   6.200  32.987   0.789
17123W        W78434  37.507  22.690   3.782
17124W        W78435  39.504  24.534   4.671
17125W        W78436  36.417   9.361  13.486
17126W        W78437  37.975  37.479  11.980
17127W        W78438  15.705  32.415   2.353
17128W        W78439   7.335   7.393  12.483
17129W        W78440  33.406  36.431  14.935
17130W        W78441  28.076   8.719   4.801
17131W        W78442  36.869  23.704   4.795
17132W        W78443  22.670  26.689   0.367
17133W        W78444  28.662  15.240  13.060
17134W        W78445  14.195  20.129   0.810
17135W        W78446  24.187  23.111   1.415
17136W        W78447  35.912   3.219   1.445
17137W        W78448  25.986  13.804  14.796
17138W        W78449  13.766  18.245   1.705
17139W        W78450   2.819  13.833  10.542
17140W        W78451  27.539  14.230  11.116
17141W        W78452  26.616  35.894  12.519
17142W        W78453  36.496  43.921  13.884
17143W        W78454  20.631   8.825   1.763
17144W        W78455  43.833   0.417  14.295
17145W        W78456  28.591  23.625   0.754
17146W        W78457  35.489  40.899  11.124
17147W        W78458  36.405  30.447   3.750
17148W        W78459   8.897  33.412  10.635
17149W        W78460  21.172  22.171  12.935
17150W        W78461  26.097   8.724   5.239
17151W        W78462  25.493  15.743  14.386
17152W        W78463   4.325   6.706   0.739
17153W        W78464   4.362  19.168   0.408
17154W        W78465   3.455  31.095   0.795
17155W        W78466  29.050  17.727   0.877
17156W        W78467  40.876  10.779  13.309
17157W        W78468  35.895   2.471   3.717
17158W        W78469   4.800  39.404  14.493
17159W        W78470  17.788   8.209   1.741
17160W        W78471  33.606  20.078  11.407
17161W        W78472   0.903  18.144  14.468
17162W        W78473  39.451  36.395   2.263
17163W        W78474   1.843  32.026   1.717
17164W        W78475  33.891  32.924  10.983
17165W        W78476  35.373  34.399   4.287
17166W        W78477  43.999  42.978  14.485
17167W        W78478  24.131  28.555   1.376
17168W        W78479  37.416   6.248   2.384
17169W        W78480  42.938  18.183  12.401
17170W        W78481  10.153  15.811  12.972
17171W        W78482  44.480  27.590  12.468
17172W        W78483  39.475  23.196  13.511
17173W        W78484  23.197   8.710  10.480
17174W        W78485  36.450   8.405  12.849
17175W        W78486  12.708  25.151  12.386
17176W        W78487  37.071  26.081   2.717
17177W        W78488   4.743  34.574   2.857
17178W        W78489  26.588  44.813  13.963
17179W        W78490   3.776   4.268   0.772
17180W        W78491  32.986  20.554  13.323
17181W        W78492  26.502  41.032   3.328
17182W        W78493  25.604  35.576   3.182
17183W        W78494  33.466  14.778   2.722
17184W        W78495  25.520  40.886   3.237
17185W        W78496  32.077  14.217   3.734
17186W        W78497  12.795   9.841   4.712
17187W        W78498  21.548  11.337  10.538
17188W        W78499  31.053  15.703   3.369
17189W        W78500  30.651   1.431  11.376
17190W        W78501  37.873  24.682  14.514
17191W        W78502  14.205  20.643  13.330
17192W        W78503  35.925  28.969   3.783
17193W        W78504   3.332  11.145  10.608
17194W        W78505  20.032  21.039   4.658
17195W        W78506  15.678  42.918   3.818
17196W        W78507   3.299   7.701   0.375
17197W        W78508  24.557  26.530   1.375
17198W        W78509   1.360  25.192  11.117
17199W        W78510  19.173  26.077  10.561
17200W        W78511  11.167   2.461  14.287
17201W        W78512  26.149   9.821  13.493
17202W        W78513  31.152  19.542   2.269
17203W        W78514  20.109  20.186  13.962
17204W        W78515  28.033  27.980  11.447
17205W        W78516  40.998  19.115   4.770
17206W        W78517   3.937   1.421   4.757
17207W        W78518  33.623  35.914  11.922
17208W        W78519  10.180  28.067   2.862
17209W        W78520  28.979  30.634   4.646
17210W        W78521   6.287  34.500  10.453
17211W        W78522  29.999  44.794  11.941
17212W        W78523   3.227  12.682   2.360
17213W        W78524  29.997  20.573   4.134
17214W        W78525   7.910  34.558  10.485
17215W        W78526   9.157   5.694  13.511
17216W        W78527  22.058  23.504   1.923
17217W        W78528  23.729  15.211   1.433
17218W        W78529  21.142  24.593  13.930
17219W        W78530  20.193  19.092   3.829
17220W        W78531  19.680  36.574  10.920
17221W        W78532  39.431  21.514  12.862
17222W        W78533  31.465  37.400  12.372
17223W        W78534  25.588  36.071  11.589
17224W        W78535  25.043  44.303   3.768
17225W        W78536  39.816  18.692   1.343
17226W        W78537  31.971   4.933   4.249
17227W        W78538  21.525  23.133  11.924
17228W        W78539  35.102  33.496  11.957
17229W        W78540   5.805  44.900   2.662
17230W        W78541  27.018  11.254  14.019
17231W        W78542  29.477  33.970  13.981
17232W        W78543  16.307  15.795  11.424
17233W        W78544  17.299  35.539   9.944
17234W        W78545   3.919  21.227   5.141
17235W        W78546  40.945  20.753   0.955
17236W        W78547  38.549  16.290   3.688
17237W        W78548  28.483  34.045  10.441
17238W        W78549  11.753  23.524   5.087
17239W        W78550  18.741   3.414   0.407
17240W        W78551  16.296  34.611  12.848
17241W        W78552  40.318  22.653  14.827
17242W        W78553  40.865  39.925   0.775
17243W        W78554  43.347   8.367   0.734
17244W        W78555  18.275   1.907  14.011
17245W        W78556  17.627  20.558  12.045
17246W        W78557   9.157   7.848  14.347
17247W        W78558  28.961   8.844   5.312
17248W        W78559  24.136  28.934  13.318
17249W        W78560   7.780  44.010  12.841
17250W        W78561   8.206  26.566   1.914
17251W        W78562  19.616  17.619  14.882
17252W        W78563  10.170  39.559   2.179
17253W        W78564   3.892  36.069   2.674
17254W        W78565  43.424  20.574   2.831
17255W        W78566  43.803  30.029   0.395
17256W        W78567   1.742  23.238   2.262
17257W        W78568   7.667  10.151  10.904
17258W        W78569  14.780   8.665   2.720
17259W        W78570   7.682   3.306   3.748
17260W        W78571  28.624   6.322  11.021
17261W        W78572  41.936  44.356  13.520
17262W        W78573   6.285  14.771   0.359
17263W        W78574   8.293  35.545  13.908
17264W        W78575  18.099  21.673   4.337
17265W        W78576  39.389   1.333  11.897
17266W        W78577  12.710  19.641  14.024
17267W        W78578  15.268  19.200  13.988
17268W        W78579  34.429  17.708  14.975
17269W        W78580  33.987   3.842  13.882
17270W        W78581   3.321  22.503  13.802
17271W        W78582  44.000  43.340   0.404
17272W        W78583   8.185  32.004   3.843
17273W        W78584   1.913  33.432  13.512
17274W        W78585  44.330   2.347   3.250
17275W        W78586  12.208  30.128   0.423
17276W        W78587   8.714   4.412   0.351
17277W        W78588  34.895  33.492   3.820
17278W        W78589  38.859  26.121   4.599
17279W        W78590  31.567  44.371   4.154
17280W        W78591  24.978  33.466   2.787
17281W        W78592  15.108  16.701   4.635
17282W        W78593   1.863   2.430   0.312
17283W        W78594  24.715  20.762   0.933
17284W        W78595  23.492  21.150  10.945
17285W        W78596  37.002  37.941  10.578
17286W        W78597  21.032  22.714   1.242
17287W        W78598   3.372  20.756   3.223
17288W        W78599   5.707  40.854   1.439
17289W        W78600  43.400  17.761  10.471
17290W        W78601   4.204  17.584   1.873
17291W        W78602   2.263  36.932   4.822
17292W        W78603  43.869  16.715   0.248
17293W        W78604  29.435  31.419  11.905
17294W        W78605  36.901  10.318   2.853
17295W        W78606  18.173  44.288   4.203
17296W        W78607  44.309  43.306   3.635
17297W        W78608  32.401   2.232  12.566
17298W        W78609  29.654  28.142   2.253
17299W        W78610  34.473  27.993  11.437
17300W        W78611  37.547  37.077   3.198
17301W        W78612  33.059  28.095   0.243
17302W        W78613   5.857   4.721   3.807
17303W        W78614  20.268  39.002   1.864
17304W        W78615  31.047  33.935   3.869
17305W        W78616  15.273  25.554  14.491
17306W        W78617  32.034  24.216   2.686
17307W        W78618  13.676   5.419   3.833
17308W        W78619   4.761  42.821  13.042
17309W        W78620  25.973  25.660   1.739
17310W        W78621  17.788  29.486  11.031
17311W        W78622  31.595  18.753  11.103
17312W        W78623   2.353   7.851  11.047
17313W        W78624  18.058  14.631  10.099
17314W        W78625   3.229  13.320  13.913
17315W        W78626  35.602  38.946   1.397
17316W        W78627  15.796  10.302  11.978
17317W        W78628  18.193   2.359   1.805
17318W        W78629   2.437  34.112  12.059
17319W        W78630   1.849  26.611   5.169
17320W        W78631  36.921  40.050  14.351
17321W        W78632  30.154  23.150  12.378
17322W        W78633   2.306  24.480   4.732
17323W        W78634  44.776   0.269  12.948
17324W        W78635  33.492  43.422   4.711
17325W        W78636   7.274   8.258  12.959
17326W        W78637  37.992   6.411   3.325
17327W        W78638  14.704  17.134   4.617
17328W        W78639  32.492  42.843  13.970
17329W        W78640   2.856   5.319   3.384
17330W        W78641   4.278   5.809  12.830
17331W        W78642   5.704  35.402  12.571
17332W        W78643  43.878  23.106   0.304
17333W        W78644  10.153  21.180   0.269
17334W        W78645  31.401  32.952   2.832
17335W        W78646  38.969   0.758  11.486
17336W        W78647  26.645  35.394   0.306
17337W        W78648  13.696   6.288  12.826
17338W        W78649  10.695  22.535   3.863
17339W        W78650   7.697  16.237  11.493
17340W        W78651  22.107  18.586  13.332
17341W        W78652  16.210   0.306  12.350
17342W        W78653  17.799  18.146  13.950
17343W        W78654  33.522  44.780  10.424
17344W        W78655  32.626  21.162  12.498
17345W        W78656  42.442  29.459   1.317
17346W        W78657  37.878  17.568   3.761
17347W        W78658   4.892  20.680   0.475
17348W        W78659  17.609   6.685  12.937
17349W        W78660  20.263  35.004  10.614
17350W        W78661  35.530  24.999   3.632
17351W        W78662   6.795  11.228  10.970
17352W        W78663  40.496  28.937   2.872
17353W        W78664  43.414  44.462   3.812
17354W        W78665  43.782  27.001   2.734
17355W        W78666  43.873  13.833   3.844
17356W        W78667  26.013  27.984  11.491
17357W        W78668  37.004   0.869   2.363
17358W        W78669  35.091  13.314   4.600
17359W        W78670  30.080  21.686  13.027
17360W        W78671  10.646  35.514  12.008
17361W        W78672   6.197  30.032   2.833
17362W        W78673  11.765  36.471   1.864
17363W        W78674   3.217  37.504   3.240
17364W        W78675  20.677  26.191  10.925
17365W        W78676  14.624  31.556   0.276
17366W        W78677  11.814  42.024   2.399
17367W        W78678  33.888   7.310   2.871
17368W        W78679  20.754   8.682  11.020
17369W        W78680  38.948  20.072   5.163
17370W        W78681  29.427   6.256   1.240
17371W        W78682   1.878   1.962  12.513
17372W        W78683   9.198   1.932  13.413
17373W        W78684   2.339   3.730   0.846
17374W        W78685  40.444  14.330  12.059
17375W        W78686  32.617  16.161   3.797
17376W        W78687  37.975  35.033   0.811
17377W        W78688  33.037  10.649  12.040
17378W        W78689  14.312  14.683  12.550
17379W        W78690  40.936  25.569  13.928
17380W        W78691  40.347  28.052  14.914
17381W        W78692  24.571  29.922  13.478
17382W        W78693  34.991  35.857  11.573
17383W        W78694   3.840  29.003   0.735
17384W        W78695  16.757  39.391   2.225
17385W        W78696   6.869  25.656  12.552
17386W        W78697  11.790  24.155  13.024
17387W        W78698  16.697  33.882   2.878
17388W        W78699  39.353  43.976  14.372
17389W        W78700  28.666  18.170  13.381
17390W        W78701  26.956  42.021  13.806
17391W        W78702   6.281  38.934  14.385
17392W        W78703  18.159  29.603  13.336
17393W        W78704   4.844   5.377   4.147
17394W        W78705   5.699  25.654   2.280
17395W        W78706  18.145  36.468  14.289
17396W        W78707  35.370  14.619   1.816
17397W        W78708  27.447  27.555  12.079
17398W        W78709  35.447  38.851  13.948
17399W        W78710   1.791  25.078   4.252
17400W        W78711  11.622  18.670  14.492
17401W        W78712   4.343   3.373  12.973
17402W        W78713  40.372  16.220  13.370
17403W        W78714   6.844  44.388  13.343
17404W        W78715  31.115  15.715   0.740
17405W        W78716  36.444  10.747   4.750
17406W        W78717  40.469  10.365   1.830
17407W        W78718  43.477  36.351   0.360
17408W        W78719   3.342   7.341  11.923
17409W        W78720  33.541  24.017  11.026
17410W        W78721  35.948  15.651  12.960
17411W        W78722  39.492   4.867  10.968
17412W        W78723   1.902   5.914  13.898
17413W        W78724  19.215  15.702   1.751
17414W        W78725  16.780   8.382   0.939
17415W        W78726  37.377  16.177  10.482
17416W        W78727  23.683  41.351   1.800
17417W        W78728  24.176  11.859  10.631
17418W        W78729  26.526   1.783  10.093
17419W        W78730   9.160  21.700   1.407
17420W        W78731  30.942  35.870   4.824
17421W        W78732   8.790   5.808  12.969
17422W        W78733  34.876   2.842   4.693
17423W        W78734  13.649   4.208  10.985
17424W        W78735  16.807  43.385   0.776
17425W        W78736  34.966  22.129  12.053
17426W        W78737  37.877  34.455   9.595
17427W        W78738  25.485  11.236  13.472
17428W        W78739  20.254  32.029  11.875
17429W        W78740  13.629  37.912   0.345
17430W        W78741  14.272  20.215   3.199
17431W        W78742  43.845   2.452   3.332
17432W        W78743   4.887  17.731  14.483
17433W        W78744  31.916   6.779  14.787
17434W        W78745  17.156   7.824   0.294
17435W        W78746  26.698  10.303   0.323
17436W        W78747  26.490   6.703  10.072
17437W        W78748   7.824  29.519   4.241
17438W        W78749  26.007  19.657   2.899
17439W        W78750  44.902   5.788  14.765
17440W        W78751  24.987  34.588   0.966
17441W        W78752  22.041  38.064  11.579
17442W        W78753  13.113  11.363  14.428
17443W        W78754  17.249  38.571   3.803
17444W        W78755  33.064   1.732   3.372
17445W        W78756  19.045  37.571  12.919
17446W        W78757  34.565  10.349  13.922
17447W        W78758  19.543  28.959   3.842
17448W        W78759  28.622  19.067  10.938
17449W        W78760  18.653  25.596  11.083
17450W        W78761  10.149  33.617  11.393
17451W        W78762  23.669  21.633  14.766
17452W        W78763  13.347  34.003  11.041
17453W        W78764   9.718  23.652   2.808
17454W        W78765  30.553  20.160   1.792
17455W        W78766  19.135  17.742  13.997
17456W        W78767  42.011  43.321   0.732
17457W        W78768  38.903  15.279   3.203
17458W        W78769   7.383  33.985  14.893
17459W        W78770  38.354  42.492   3.154
17460W        W78771  12.842   4.812   2.186
17461W        W78772  40.493  29.083  12.874
17462W        W78773  16.102   9.160  14.861
17463W        W78774  22.706   3.336  12.924
17464W        W78775  44.792   8.751  13.886
17465W        W78776   4.407  14.240  13.892
17466W        W78777  20.195  10.861   0.810
17467W        W78778  43.997   1.967  12.399
17468W        W78779  30.034  41.398   3.816
17469W        W78780   3.943  43.945   3.283
17470W        W78781  16.812  29.455  14.959
17471W        W78782   2.319  44.269  11.885
17472W        W78783   8.238  27.946   0.365
17473W        W78784  31.023  27.960  10.580
17474W        W78785   1.271  16.757   1.831
17475W        W78786  39.396  24.066   2.198
17476W        W78787  26.506  32.600  14.325
17477W        W78788  14.180  27.001  12.346
17478W        W78789  39.318  32.982   4.796
17479W        W78790  15.233  11.634   1.785
17480W        W78791  20.225   6.818  12.860
17481W        W78792   1.804   2.723   0.845
17482W        W78793   9.803  25.995   1.738
17483W        W78794  34.894  23.681   2.670
17484W        W78795   3.251  10.710  12.419
17485W        W78796  30.536  29.437  11.460
17486W        W78797  41.832  22.150  11.869
17487W        W78798  28.993  30.491  12.043
17488W        W78799  43.293   3.318   1.285
17489W        W78800  22.235  12.220   0.891
17490W        W78801   7.333  12.843  10.461
17491W        W78802  40.439  41.490  11.505
17492W        W78803  27.534  39.404  13.856
17493W        W78804  10.806  29.662  14.907
17494W        W78805   2.400   6.197  14.416
17495W        W78806  37.459  43.428   3.323
17496W        W78807   5.423   3.855  12.432
17497W        W78808  20.531   8.733  11.907
17498W        W78809  38.342  29.652   3.285
17499W        W78810   1.476  35.875   0.450
17500W        W78811  22.670  38.518  14.892
17501W        W78812  15.792  30.051   0.483
17502W        W78813   1.860  29.012  10.887
17503W        W78814  20.758   2.770   4.225
17504W        W78815  38.438  31.919   4.312
17505W        W78816  39.451  31.114   0.273
17506W        W78817  39.984  21.679   1.917
17507W        W78818  13.663   0.934   0.803
17508W        W78819  15.817  41.871   0.265
17509W        W78820  16.639  16.747   3.165
17510W        W78821  23.181  16.614  11.435
17511W        W78822  24.589  12.707  14.428
17512W        W78823  33.058   5.305  10.608
17513W        W78824  14.264   9.703   4.278
17514W        W78825  31.403  35.544   0.247
17515W        W78826  15.278  29.667  13.057
17516W        W78827  21.018  44.825  13.814
17517W        W78828  20.219   7.259   1.293
17518W        W78829   0.939  17.287   2.209
17519W        W78830  14.306  39.824   3.781
17520W        W78831  24.073   0.850  12.432
17521W        W78832  19.570  25.037   4.244
17522W        W78833  21.618   8.732  12.021
17523W        W78834   0.493  15.668   3.352
17524W        W78835  34.550  27.999   4.787
17525W        W78836  31.978  41.315  13.476
17526W        W78837   5.300   1.472   4.820
17527W        W78838  29.145  40.346  13.320
17528W        W78839  39.901  36.944   4.306
17529W        W78840   6.395  37.859  10.440
17530W        W78841  21.160  24.622   4.189
17531W        W78842  24.187  32.513  11.392
17532W        W78843  27.170   4.784  14.397
17533W        W78844  30.467  15.630   0.910
17534W        W78845   7.289  16.790  14.770
17535W        W78846  36.876  11.339  14.789
17536W        W78847   7.361   9.233   0.430
17537W        W78848  18.289  36.490   1.852
17538W        W78849   0.389  44.318  11.905
17539W        W78850  36.063   1.890   1.884
17540W        W78851  43.291  41.414  12.026
17541W        W78852  41.513  16.717   4.603
17542W        W78853  34.574  16.141   3.789
17543W        W78854   0.869  20.741  11.502
17544W        W78855  11.742   4.242  12.940
17545W        W78856  36.471  40.325  10.037
17546W        W78857  32.024   4.757   1.320
17547W        W78858  37.992   6.231   4.671
17548W        W78859  34.873   0.819   0.967
17549W        W78860   5.697   4.381  11.899
17550W        W78861  33.936  22.587  10.101
17551W        W78862  36.982   5.882  14.494
17552W        W78863   0.933  38.926  12.856
17553W        W78864  24.152  32.944  11.582
17554W        W78865  30.157  41.459  11.004
17555W        W78866  24.510  27.023  13.045
17556W        W78867  28.120   8.772   1.435
17557W        W78868  19.235  29.038  12.002
17558W        W78869  24.700  24.712   3.731
17559W        W78870  37.925  35.082   1.773
17560W        W78871  34.885   5.252  10.514
17561W        W78872  12.621   3.906  10.947
17562W        W78873  24.669  36.387   2.800
17563W        W78874  18.114   3.349  12.513
17564W        W78875  27.464  10.366   1.434
17565W        W78876  14.243  18.625   0.887
17566W        W78877  26.201  11.242  10.428
17567W        W78878  43.494  17.234  13.353
17568W        W78879  40.374  38.982  12.501
17569W        W78880  31.051  34.375  11.041
17570W        W78881  24.987   0.382   3.722
17571W        W78882  32.963  42.910   1.292
17572W        W78883  27.053  23.211  13.844
17573W        W78884  25.558  35.086  12.507
17574W        W78885  17.645   8.358  14.389
17575W        W78886  23.238   4.244   3.214
17576W        W78887  35.085  32.937   2.710
17577W        W78888  41.977   4.240   1.856
17578W        W78889  42.284  12.253   0.254
17579W        W78890   9.860  41.913  10.453
17580W        W78891  30.125   8.730  11.053
17581W        W78892  23.195  26.115  14.993
17582W        W78893   7.233  41.498  10.469
17583W        W78894   3.308   3.256  13.391
17584W        W78895   5.740  38.946   2.318
17585W        W78896  22.571   3.947   1.276
17586W        W78897  17.146  25.117   4.685
17587W        W78898   4.286   5.315   3.676
17588W        W78899  44.330  19.087  11.515
17589W        W78900   7.319  28.661  12.834
17590W        W78901  30.120  19.647   2.266
17591W        W78902  34.948  36.486  10.531
17592W        W78903   0.891   8.705  10.125
17593W        W78904   5.320  28.476  14.894
17594W        W78905  16.711  19.552   3.643
17595W        W78906  19.185  16.674  14.372
17596W        W78907  18.218  16.302   4.317
17597W        W78908   2.319  18.220  13.508
17598W        W78909  28.024  32.127  12.958
17599W        W78910  33.069  21.611  14.010
17600W        W78911   3.353  38.017   1.851
17601W        W78912  26.067   5.913   4.159
17602W        W78913  38.070  31.455  13.993
17603W        W78914   0.862  20.213   0.946
17604W        W78915  13.177  40.446   3.838
17605W        W78916   6.297  42.907  12.574
17606W        W78917  23.031  44.277   3.216
17607W        W78918   3.377  43.434  10.559
17608W        W78919   8.365   4.247  10.513
17609W        W78920  37.866  42.502  10.066
17610W        W78921  19.602  14.663  12.404
17611W        W78922  26.157  31.973   1.432
17612W        W78923  34.453  20.601  11.874
17613W        W78924  33.412   5.197  12.478
17614W        W78925   1.928  40.020  12.852
17615W        W78926  42.443   8.307  14.952
17616W        W78927  23.046  35.012  12.845
17617W        W78928   2.850  22.575  11.895
17618W        W78929  41.419  35.428   2.238
17619W        W78930  19.778  25.500   2.863
17620W        W78931  41.476  19.713   0.797
17621W        W78932   7.273  29.059   1.873
17622W        W78933  38.912  28.084  10.079
17623W        W78934   5.776  33.489   2.821
17624W        W78935  34.459  11.807  10.466
17625W        W78936  19.598  10.651   2.728
17626W        W78937  17.132  27.017  14.913
17627W        W78938  38.552  17.587   4.792
17628W        W78939  11.667  21.559   0.325
17629W        W78940  38.434  12.755  12.896
17630W        W78941  36.586  18.674   3.682
17631W        W78942  10.736  37.932   0.280
17632W        W78943  23.993   3.297  13.997
17633W        W78944  24.988  12.339   1.816
17634W        W78945  39.521  35.535   3.707
17635W        W78946   7.230  22.649   0.842
17636W        W78947   4.293  31.633  10.893
17637W        W78948  10.368  22.115   4.178
17638W        W78949   3.926  14.300  13.409
17639W        W78950  26.565  11.694   4.323
17640W        W78951  26.470  38.000   3.329
17641W        W78952  28.550  21.714   4.703
17642W        W78953  44.766  23.716  11.102
17643W        W78954  34.464  23.644  11.041
17644W        W78955  23.669  17.289  12.344
17645W        W78956  22.696  23.621  13.055
17646W        W78957  13.654  11.783  10.937
17647W        W78958  21.260  43.973  10.626
17648W        W78959  38.422  23.033   2.403
17649W        W78960   5.913  25.691   1.909
17650W        W78961  25.081  37.987   3.828
17651W        W78962  37.016  35.963   3.655
17652W        W78963   5.888  16.134   0.852
17653W        W78964  35.901  44.305   4.639
17654W        W78965  30.467   8.820   3.843
17655W        W78966  22.100   9.878   2.367
17656W        W78967  29.941  10.871   1.278
17657W        W78968   9.742  35.493  14.988
17658W        W78969  13.619  32.488  11.578
17659W        W78970  29.587  17.748   0.451
17660W        W78971  38.968   7.672   0.280
17661W        W78972  28.960  36.377   3.659
17662W        W78973  28.451  28.548  10.495
17663W        W78974  38.355   4.890   4.635
17664W        W78975  41.311  21.731  13.930
17665W        W78976  26.614  23.673   5.082
17666W        W78977  37.508  30.511   0.416
17667W        W78978  23.067  23.159  14.020
17668W        W78979  21.714   7.324  13.034
17669W        W78980  35.110  34.088   3.353
17670W        W78981   4.944  39.820  14.885
17671W        W78982  34.111  36.031   2.808
17672W        W78983   8.695  37.972   1.257
17673W        W78984  34.535  39.032  13.399
17674W        W78985  14.295   6.312  12.515
17675W        W78986  22.176  41.019  11.114
17676W        W78987  21.680  44.450  12.555
17677W        W78988   3.387  35.536   3.737
17678W        W78989   0.447  41.538   2.850
17679W        W78990  17.744  33.423  13.449
17680W        W78991   2.374  38.428   0.962
17681W        W78992  44.355  43.923   4.730
17682W        W78993  43.415  37.422   4.659
17683W        W78994  24.654  22.592   0.429
17684W        W78995  25.120   4.448   3.284
17685W        W78996  11.354   1.281  12.371
17686W        W78997  12.846  33.084   0.891
17687W        W78998  25.160   6.410   3.214
17688W        W78999  32.572  24.534   0.380
17689W        W79000  34.589   7.237  13.988
17690W        W79001  38.384  22.527   1.769
17691W        W79002   0.909  34.089  10.444
17692W        W79003  22.689  37.527  13.959
17693W        W79004  16.642  18.100  10.521
17694W        W79005   8.215  42.826   0.298
17695W        W79006   4.913  18.072   1.267
17696W        W79007  37.027  44.304  13.021
17697W        W79008   9.199  26.126  12.546
17698W        W79009  20.658  17.663   0.788
17699W        W79010  44.992  17.725  13.857
17700W        W79011   6.710   8.300  12.898
17701W        W79012  39.355   8.327  10.498
17702W        W79013   7.726  42.924   4.256
17703W        W79014   9.871  22.122  14.767
17704W        W79015  27.540  16.750   1.403
17705W        W79016  34.503   9.322  11.039
17706W        W79017  21.068  32.110  14.462
17707W        W79018   0.932  38.028   1.267
17708W        W79019   2.339  35.580   2.717
17709W        W79020   4.813   8.855   2.323
17710W        W79021  15.789   7.328  14.961
17711W        W79022  22.544   0.398  14.942
17712W        W79023  14.589  19.195  11.444
17713W        W79024  21.732  12.806  12.366
17714W        W79025  25.073  39.911  13.503
17715W        W79026  33.623  19.277   2.873
17716W        W79027  12.130  38.050   3.366
17717W        W79028  40.004   1.308   4.152
17718W        W79029  33.882  34.904   1.331
17719W        W79030   9.154   7.274  10.973
17720W        W79031  28.015  10.768  11.382
17721W        W79032   1.869  19.109   0.840
17722W        W79033  21.259  28.648  14.814
17723W        W79034  22.235  16.100  12.460
17724W        W79035  37.859   6.717  13.533
17725W        W79036  10.639  37.477   2.830
17726W        W79037  23.001  14.614  13.321
17727W        W79038  10.219  41.814   4.628
17728W        W79039  12.201  33.532   4.192
17729W        W79040  36.557  28.170  12.381
17730W        W79041   3.422   1.974   0.913
17731W        W79042  42.801  35.493   2.221
17732W        W79043  38.328   3.280   1.921
17733W        W79044  14.177  25.648  14.334
17734W        W79045   8.241  16.627   3.808
17735W        W79046   9.862   5.283  11.069
17736W        W79047  44.882  33.575  14.932
17737W        W79048   9.732  32.397   0.758
17738W        W79049   1.271  26.119  12.841
17739W        W79050  18.177   7.230  12.454
17740W        W79051  25.080  34.949  12.860
17741W        W79052  14.599   3.832   2.411
17742W        W79053  40.024   9.330  14.838
17743W        W79054  11.357  26.581  11.045
17744W        W79055  28.973  27.953  14.470
17745W        W79056  39.891   4.777  14.873
17746W        W79057  31.421  40.925   2.223
17747W        W79058  13.147  36.375  10.595
17748W        W79059  27.017  13.718   4.142
17749W        W79060   3.765   1.797  14.843
17750W        W79061  44.869  14.598  14.401
17751W        W79062  15.581  41.014  13.950
17752W        W79063  38.565   7.306   3.642
17753W        W79064   9.835  12.833  12.475
17754W        W79065  12.649  22.225   3.807
17755W        W79066  19.745  30.472   2.733
17756W        W79067  20.208  10.746  10.573
17757W        W79068  18.714  20.614  13.447
17758W        W79069  10.166  28.087   4.256
17759W        W79070  18.758  44.913   4.187
17760W        W79071  29.629   6.823   0.386
17761W        W79072  11.641  21.606  10.480
17762W        W79073  37.862  34.919  12.833
17763W        W79074   2.278   8.721  12.355
17764W        W79075  31.042   1.943   3.855
17765W        W79076   2.288  11.349  13.059
17766W        W79077   0.975  28.968   2.732
17767W        W79078  44.831  42.903  14.969
17768W        W79079  12.256  28.988   1.272
17769W        W79080  43.854  22.538  14.490
17770W        W79081  26.075   7.667   2.281
17771W        W79082  32.585  39.537  10.985
17772W        W79083  22.148  28.160   2.224
17773W        W79084  21.712   1.827   0.463
17774W        W79085  36.428   4.897  10.161
17775W        W79086  37.866  27.465   1.345
17776W        W79087  18.136  23.509   9.525
17777W        W79088  11.331   3.325  11.511
17778W        W79089  22.582  12.733   1.913
17779W        W79090  37.903  19.284   0.769
17780W        W79091  39.542  36.361  12.566
17781W        W79092  24.102  18.599  14.784
17782W        W79093  34.029  10.634  14.473
17783W        W79094  44.836  25.613  11.584
17784W        W79095   8.668  17.268   0.409
17785W        W79096  11.227   1.971   4.673
17786W        W79097  19.699  44.872   0.268
17787W        W79098  42.777  38.533  15.000
17788W        W79099  30.929  34.400   1.354
17789W        W79100  24.634  10.232   3.385
17790W        W79101  43.490  21.046   4.837
17791W        W79102  22.732  32.956   0.847
17792W        W79103  38.825  26.541   0.846
17793W        W79104  13.297  29.435  10.595
17794W        W79105  27.628  21.570   3.164
17795W        W79106   0.399  14.097  12.940
17796W        W79107  33.490  14.605   1.447
17797W        W79108  12.347   1.363  14.811
17798W        W79109  23.107  11.820   4.197
17799W        W79110  24.662  21.739   4.612
17800W        W79111  20.616  11.783   0.466
17801W        W79112  26.602   1.382   2.850
17802W        W79113  18.083  10.253  13.023
17803W        W79114  36.016  18.051   2.353
17804W        W79115  37.875  29.995   0.324
17805W        W79116  14.744   0.342   4.638
17806W        W79117   2.375  42.831   3.361
17807W        W79118  15.160  23.187   1.254
17808W        W79119  44.492  42.951  10.078
17809W        W79120  30.082  23.532   3.189
17810W        W79121  12.242  26.469   0.357
17811W        W79122  19.645  38.858  14.930
17812W        W79123  20.248  40.462  14.913
17813W        W79124   8.235  25.538  14.843
17814W        W79125  44.893   5.856  10.410
17815W        W79126  34.615  19.186   1.347
17816W        W79127  15.203  31.923   4.160
17817W        W79128   4.891  38.551  11.932
17818W        W79129  17.265  30.111   2.331
17819W        W79130  10.847  21.756  14.944
17820W        W79131  18.248  36.085   2.179
17821W        W79132  21.194  25.515  12.462
17822W        W79133  19.600  10.785  14.427
17823W        W79134  17.692  16.127  12.974
17824W        W79135  35.891  42.427  12.340
17825W        W79136  32.466  11.292   1.302
17826W        W79137  43.397  36.564   2.871
17827W        W79138  13.239  11.342   4.182
17828W        W79139  30.605  17.093   1.720
17829W        W79140  17.782  44.338   0.330
17830W        W79141   7.209  30.573   1.893
17831W        W79142   5.803  10.304  14.029
17832W        W79143  44.410  13.321  11.922
17833W        W79144  11.324  18.290  13.820
17834W        W79145  39.850  36.900  13.825
17835W        W79146   1.835  19.231   1.736
17836W        W79147  38.411   1.775  13.414
17837W        W79148  34.591  35.962   0.777
17838W        W79149  20.578  30.582  11.485
17839W        W79150  26.198   7.360   3.357
17840W        W79151  39.873  32.083   4.232
17841W        W79152  22.605  35.396  12.030
17842W        W79153  36.526  24.635   1.366
17843W        W79154   3.449  29.108   1.244
17844W        W79155  13.302  12.316  14.388
17845W        W79156  33.091  17.166  12.422
17846W        W79157  23.636  17.729   4.250
17847W        W79158  10.199   9.686   1.398
17848W        W79159  15.292   0.474  11.529
17849W        W79160  18.722  35.877  11.518
17850W        W79161  28.679   3.289  13.934
17851W        W79162  30.017   5.224  13.466
17852W        W79163   9.238   9.793   4.648
17853W        W79164  22.715  41.930   0.245
17854W        W79165  33.048  13.796   0.341
17855W        W79166  22.222  29.449   3.291
17856W        W79167  32.116  43.442  12.457
17857W        W79168  16.676  23.175   4.121
17858W        W79169   8.322  34.876  12.565
17859W        W79170  35.943  15.809   4.265
17860W        W79171  20.092   8.807  13.053
17861W        W79172  34.395  26.002  10.606
17862W        W79173  38.569  33.460  12.927
17863W        W79174  24.104  26.151  13.821
17864W        W79175  37.400  12.126   4.206
17865W        W79176  30.535  13.196  12.372
17866W        W79177   0.821  42.513   1.778
17867W        W79178  20.035   1.905  12.964
17868W        W79179  36.932  40.938   3.178
17869W        W79180   7.873  19.585  14.909
17870W        W79181   7.764  16.593   1.335
17871W        W79182   6.893  44.976  13.542
17872W        W79183  26.145   5.411   0.929
17873W        W79184  28.613  41.988   2.743
17874W        W79185  42.968   3.899   3.376
17875W        W79186  13.657  12.174  14.347
17876W        W79187   2.280  24.679  10.487
17877W        W79188  21.747  20.750   1.236
17878W        W79189  44.469  28.435   2.793
17879W        W79190  10.674   3.371  13.444
17880W        W79191  41.313  39.459  13.792
17881W        W79192   6.245  42.863   3.159
17882W        W79193  14.661  39.560  14.888
17883W        W79194  17.800  28.020  13.938
17884W        W79195  41.332  30.457  11.987
17885W        W79196  15.739  44.474   5.189
17886W        W79197  27.497  24.669   1.883
17887W        W79198  38.353   2.304   1.734
17888W        W79199   7.759   5.419  11.442
17889W        W79200  26.517   9.841   3.365
17890W        W79201  35.580  43.873   4.293
17891W        W79202  27.483   8.829  12.891
17892W        W79203  12.658  35.088  11.567
17893W        W79204  21.685  11.759   2.785
17894W        W79205  14.307  38.049   1.396
17895W        W79206  12.169  13.273  12.888
17896W        W79207  19.073   7.182   2.194
17897W        W79208  33.939  36.575  12.938
17898W        W79209  28.940  22.226   0.928
17899W        W79210   5.335  22.629  14.300
17900W        W79211  14.151  11.654   4.805
17901W        W79212  40.404  22.709  11.000
17902W        W79213   0.789   8.395   4.693
17903W        W79214  18.201  31.575  14.824
17904W        W79215  35.038   7.823   2.228
17905W        W79216  11.295  36.079   3.316
17906W        W79217  28.049   2.954   4.701
17907W        W79218  39.447  32.550  11.038
17908W        W79219  10.749  16.191   0.863
17909W        W79220  10.675  13.615  11.558
17910W        W79221  42.819   8.892   3.266
17911W        W79222  21.534  28.111  12.950
17912W        W79223  40.443   5.793   1.865
17913W        W79224  19.232  41.929   1.241
17914W        W79225  12.806  24.701   3.804
17915W        W79226  39.020  29.494   2.321
17916W        W79227  41.349   5.755  11.385
17917W        W79228  13.204  31.026   1.361
17918W        W79229   6.218  26.602   0.296
17919W        W79230  20.673   6.426  13.046
17920W        W79231  43.514  20.661   3.820
17921W        W79232  18.225  14.595  14.940
17922W        W79233  26.121   1.448   2.275
17923W        W79234  11.182  28.630   3.869
17924W        W79235   9.865  14.601  14.337
17925W        W79236  10.707  27.034  12.503
17926W        W79237  42.929   6.877   4.199
17927W        W79238  26.535  10.287   0.814
17928W        W79239  29.968  33.393   4.252
17929W        W79240  26.626  25.472  12.883
17930W        W79241   5.401  35.075   4.148
17931W        W79242  43.814   7.365   3.681
17932W        W79243  21.208  22.996  13.046
17933W        W79244   2.461   3.370   1.793
17934W        W79245  38.325  21.730   4.681
17935W        W79246   1.799  40.473  12.060
17936W        W79247  31.092  21.603   4.784
17937W        W79248  32.139  31.583  13.386
17938W        W79249  36.487  23.075  13.022
17939W        W79250  16.186   2.372   4.193
17940W        W79251   4.324  32.927  10.631
17941W        W79252  14.329  13.171   1.792
17942W        W79253  10.220   9.766  11.451
17943W        W79254  36.945  43.404   5.255
17944W        W79255  34.456  21.190   3.839
17945W        W79256  31.909  30.161   4.801
17946W        W79257  43.956  19.658  10.898
17947W        W79258   2.395   9.387   0.315
17948W        W79259  34.885  15.592  13.916
17949W        W79260  26.637  34.058   3.187
17950W        W79261  25.081   8.164   2.794
17951W        W79262  28.654  40.941   2.281
17952W        W79263   2.278  41.927   2.783
17953W        W79264  24.065  44.794  13.535
17954W        W79265  22.132  26.613   3.259
17955W        W79266   4.728  17.134  13.410
17956W        W79267  37.948  28.635  14.789
17957W        W79268  35.080  37.404   0.242
17958W        W79269  32.031  28.017   2.282
17959W        W79270  24.513   2.734  13.817
17960W        W79271  15.740  26.006   1.390
17961W        W79272  40.866  19.638   0.313
17962W        W79273  27.603  25.575  12.393
17963W        W79274  28.501  41.833  14.764
17964W        W79275  35.515   4.434  12.961
17965W        W79276  11.165  41.499   1.926
17966W        W79277  11.171  13.242   1.413
17967W        W79278   1.760  34.072  13.473
17968W        W79279   8.738   6.730  13.941
17969W        W79280  30.070   6.778  11.882
17970W        W79281   7.759  24.640   4.151
17971W        W79282  39.035  20.666   4.290
17972W        W79283  24.582  10.209   1.368
17973W        W79284  39.870  15.695   1.284
17974W        W79285  43.964  32.586  13.473
17975W        W79286  12.742  19.186   3.312
17976W        W79287  20.135  15.714   4.181
17977W        W79288   0.808  36.891  10.409
17978W        W79289  31.556  37.051   1.442
17979W        W79290   9.313  24.222   3.679
17980W        W79291  16.176  16.242   4.233
17981W        W79292   8.202   0.286  11.428
17982W        W79293   1.341  40.309   0.737
17983W        W79294  16.803  30.932  10.903
17984W        W79295  11.285  39.544   3.766
17985W        W79296   1.897  33.958  12.909
17986W        W79297  30.045  34.890  14.964
17987W        W79298  19.679  31.013  12.843
17988W        W79299  10.169  37.516  14.764
17989W        W79300  28.093  43.432  13.409
17990W        W79301  26.614  22.092  13.946
17991W        W79302   7.667  37.966   0.747
17992W        W79303  27.628  33.574   2.194
17993W        W79304  26.568  40.380  11.072
17994W        W79305   1.391  29.130  13.809
17995W        W79306  27.667  31.929  12.994
17996W        W79307  24.187  10.752  13.519
17997W        W79308  26.042  29.514  12.384
17998W        W79309  31.518   4.322  13.420
17999W        W79310  28.048  32.993  14.812
18000W        W79311   8.250  36.464   2.885
18001W        W79312   7.232  25.204  11.520
18002W        W79313  19.613   7.747  13.457
18003W        W79314   3.426  32.024   0.321
18004W        W79315  24.074  40.040   5.094
18005W        W79316  34.924  44.280  12.379
18006W        W79317   1.866   9.831  12.883
18007W        W79318  35.374  43.368  13.995
18008W        W79319   6.276   0.462   4.166
18009W        W79320  32.625   5.227   2.863
18010W        W79321  33.920  10.171  14.312
18011W        W79322  27.101  23.622   3.681
18012W        W79323  12.696  43.956  13.380
18013W        W79324  14.201  12.807  14.444
18014W        W79325  33.555   8.694  10.615
18015W        W79326  13.178   6.836   2.752
18016W        W79327  23.103   0.929  12.992
18017W        W79328  22.669   7.289  11.987
18018W        W79329  15.324  30.045  13.445
18019W        W79330   6.910   5.919   3.721
18020W        W79331   9.672  17.179   3.187
18021W        W79332   7.294  30.533  11.929
18022W        W79333  44.902  15.655   3.806
18023W        W79334  14.232  36.536   2.252
18024W        W79335  35.877  20.084   0.747
18025W        W79336  34.492  21.631  13.523
18026W        W79337  38.374  29.533  12.379
18027W        W79338  30.003  23.059  10.976
18028W        W79339  42.002   8.664  10.974
18029W        W79340  32.476  16.707  14.948
18030W        W79341   2.826  36.068   2.810
18031W        W79342  37.549  42.844  13.338
18032W        W79343   8.390  18.568   3.744
18033W        W79344  39.015  23.568  10.487
18034W        W79345  24.689  22.579   1.715
18035W        W79346   1.408  29.001   3.298
18036W        W79347  44.992  14.720  13.487
18037W        W79348  39.417  42.032   1.739
18038W        W79349  39.324  21.750  10.600
18039W        W79350  33.033   6.251   0.788
18040W        W79351  18.603  33.056  10.920
18041W        W79352  12.326   7.385   3.707
18042W        W79353  41.298  14.094  11.445
18043W        W79354   1.291   4.833   1.379
18044W        W79355   4.314   5.874   4.692
18045W        W79356  44.899   0.483  14.472
18046W        W79357  21.114  12.302   1.722
18047W        W79358   9.259  17.102  14.333
18048W        W79359  28.073  41.900   3.697
18049W        W79360   7.701   4.816  13.468
18050W        W79361  13.724  37.342   0.783
18051W        W79362  38.344  37.581  13.812
18052W        W79363  35.522  34.493   0.388
18053W        W79364   8.217  18.195  12.963
18054W        W79365  21.523  10.797  14.504
18055W        W79366  16.130   6.236  10.483
18056W        W79367  34.111  16.207   3.828
18057W        W79368  10.829  26.094   0.869
18058W        W79369   9.803  31.458  13.423
18059W        W79370  30.630  16.288   1.850
18060W        W79371  41.904   9.652   4.125
18061W        W79372  29.465   4.311  13.848
18062W        W79373   9.279  21.187  14.280
18063W        W79374  19.132  38.939  10.525
18064W        W79375   7.770  44.776   1.722
18065W        W79376  24.110  38.884  12.996
18066W        W79377  30.501  30.123   2.196
18067W        W79378   0.296  23.166  13.366
18068W        W79379   5.812  37.552   3.317
18069W        W79380  22.200   3.285   4.658
18070W        W79381  16.699   8.847   2.246
18071W        W79382   8.291  13.748  10.916
18072W        W79383  13.185  41.894   1.302
18073W        W79384   9.710   9.392   0.478
18074W        W79385  21.107  17.618   0.834
18075W        W79386  31.532  33.603   3.687
18076W        W79387  29.128  38.394   1.419
18077W        W79388  10.690  17.250   1.235
18078W        W79389  36.391   9.224  14.827
18079W        W79390  14.215  38.820   2.882
18080W        W79391  36.922  13.211  10.635
18081W        W79392  22.677   7.821   0.425
18082W        W79393  17.284  31.584   4.287
18083W        W79394  34.004  37.336   1.855
18084W        W79395  23.010  40.011  14.961
18085W        W79396  25.481  14.302  13.937
18086W        W79397  18.089  24.650   0.418
18087W        W79398  20.188  26.972   0.393
18088W        W79399  31.585  33.605  12.964
18089W        W79400   3.847  11.643   4.349
18090W        W79401   3.768  40.427  14.392
18091W        W79402   4.370   1.389   3.372
18092W        W79403  42.792  43.438   3.781
18093W        W79404  18.253  25.629   9.457
18094W        W79405   7.786  44.459   3.652
18095W        W79406  33.464  18.758   4.252
18096W        W79407  15.626  28.470  11.026
18097W        W79408  17.121   8.184   4.143
18098W        W79409  43.311  39.925   3.264
18099W        W79410  30.093  28.503   3.661
18100W        W79411  15.802  22.596   2.889
18101W        W79412  41.814   5.393  12.540
18102W        W79413  22.118  29.146  10.505
18103W        W79414  35.581   2.401  14.456
18104W        W79415  34.879  38.822   0.929
18105W        W79416   8.889  16.089   2.667
18106W        W79417   9.769  42.852  11.553
18107W        W79418  36.953  16.719  10.537
18108W        W79419  32.546  39.953   0.953
18109W        W79420  33.904  30.007  12.518
18110W        W79421  28.187  44.503  14.857
18111W        W79422  12.778  25.049  10.439
18112W        W79423  18.284  19.625  12.447
18113W        W79424  44.882  26.575   0.782
18114W        W79425  36.885  17.172  11.044
18115W        W79426   2.892  31.913  12.907
18116W        W79427  32.051  36.463  10.979
18117W        W79428  36.842  15.604   3.212
18118W        W79429  30.463  25.988  11.602
18119W        W79430  30.055   9.341   2.352
18120W        W79431   0.975  34.891   2.817
18121W        W79432  28.939  19.657   0.918
18122W        W79433  20.533  24.515  10.920
18123W        W79434  15.132  15.149   0.760
18124W        W79435  23.662   2.368  11.964
18125W        W79436  40.336  27.050   4.208
18126W        W79437  24.159  14.338  10.161
18127W        W79438  40.336  12.261   2.240
18128W        W79439  42.937  41.398  12.887
18129W        W79440  19.686  32.956  12.441
18130W        W79441   9.827   7.745   4.213
18131W        W79442   8.242  24.720   2.210
18132W        W79443  12.218  44.261   3.343
18133W        W79444  44.273  21.027   2.275
18134W        W79445   2.321   7.806  13.449
18135W        W79446   0.886  28.472   4.767
18136W        W79447  18.271   4.850   3.798
18137W        W79448  10.709  20.544  13.442
18138W        W79449  42.285  44.816  13.869
18139W        W79450  20.644   8.397   3.312
18140W        W79451  28.661   2.247   2.722
18141W        W79452   7.670   2.838  13.844
18142W        W79453   9.267  30.626   0.453
18143W        W79454  40.439  30.135   0.835
18144W        W79455  35.948   6.403   3.859
18145W        W79456   4.397  10.244   2.330
18146W        W79457  44.397   3.431  12.936
18147W        W79458  18.268  19.649   5.256
18148W        W79459   3.797  23.725   0.769
18149W        W79460  12.744   1.927   0.748
18150W        W79461   9.355   9.228   3.253
18151W        W79462  15.745  38.899  12.562
18152W        W79463  20.073  28.019   4.724
18153W        W79464  20.669  30.067  12.571
18154W        W79465  16.763  29.494  14.489
18155W        W79466   2.784   3.792   4.702
18156W        W79467  38.491   0.416  12.029
18157W        W79468  19.201  37.976   2.802
18158W        W79469  29.453   2.894   2.412
18159W        W79470   0.294  16.185   1.897
18160W        W79471  44.974  26.108  14.510
18161W        W79472   5.219   0.359   1.872
18162W        W79473  22.116  31.121  11.612
18163W        W79474  18.066   5.214  12.406
18164W        W79475  41.788  44.789   3.762
18165W        W79476  43.354  37.016  14.479
18166W        W79477  36.372  16.648   1.738
18167W        W79478  37.909   5.785  10.628
18168W        W79479  38.060  27.663  11.963
18169W        W79480  27.097  41.338   0.348
18170W        W79481   8.272   9.730   3.336
18171W        W79482  17.612  24.991   3.360
18172W        W79483   9.335  26.616   3.331
18173W        W79484  30.446   2.303  13.989
18174W        W79485  23.640   6.260  11.974
18175W        W79486  12.713   8.778   3.210
18176W        W79487   1.856  44.395   1.719
18177W        W79488  34.516   1.248   2.254
18178W        W79489  24.624   1.328  12.995
18179W        W79490  16.591  15.808  12.376
18180W        W79491  12.756  43.909  14.942
18181W        W79492  35.427  37.396  11.426
18182W        W79493   5.736  11.851  13.960
18183W        W79494  23.087  30.493   2.714
18184W        W79495   1.851  37.037   4.737
18185W        W79496  16.657   8.835   0.936
18186W        W79497   2.364  16.767   1.358
18187W        W79498  31.575  41.806  13.349
18188W        W79499  35.974  24.050   2.403
18189W        W79500  41.436  15.716  10.425
18190W        W79501  21.126  24.132  11.997
18191W        W79502  35.496  21.613   3.743
18192W        W79503   9.790  22.662   1.299
18193W        W79504  21.567   0.412   0.864
18194W        W79505  31.128  23.730  14.358
18195W        W79506  32.410   9.838  13.858
18196W        W79507  26.636  44.484   0.350
18197W        W79508  11.167  35.591  13.032
18198W        W79509  44.298  38.566  14.788
18199W        W79510  27.539   2.907  14.840
18200W        W79511  34.943   5.415  13.362
18201W        W79512  34.112  12.294  13.938
18202W        W79513  24.216  37.867   3.296
18203W        W79514  25.654  26.535  11.992
18204W        W79515  44.427   3.394   2.291
18205W        W79516   4.333  27.178   0.470
18206W        W79517  33.015  25.992  11.981
18207W        W79518   0.753  36.039  14.430
18208W        W79519  28.452  22.600  13.872
18209W        W79520  41.498  33.392   4.224
18210W        W79521   3.369  39.975   1.718
18211W        W79522  16.671   4.225  14.282
18212W        W79523  23.736  42.980  10.981
18213W        W79524  25.599  29.526   0.789
18214W        W79525   2.228  23.701   4.705
18215W        W79526  27.472   6.872  12.074
18216W        W79527  20.166  42.930  13.546
18217W        W79528  28.658  38.431   3.264
18218W        W79529  32.939  20.204  14.979
18219W        W79530  12.279   5.933  11.508
18220W        W79531  31.563  28.517   0.737
18221W        W79532  30.582   6.676   4.291
18222W        W79533   7.782  42.000   4.220
18223W        W79534  13.633  38.343   0.826
18224W        W79535   3.955  20.574  14.851
18225W        W79536  16.744  18.119  14.908
18226W        W79537  38.014  16.095  12.432
18227W        W79538  31.100  18.239  10.481
18228W        W79539  39.850   8.753  14.775
18229W        W79540  21.699  11.327  14.842
18230W        W79541  38.929   6.754  14.936
18231W        W79542   1.283  26.658   1.354
18232W        W79543   3.346  33.432  14.459
18233W        W79544  34.887  42.882   2.262
18234W        W79545  27.132  44.479  13.540
18235W        W79546   5.885  26.594  12.034
18236W        W79547  44.990   8.393   2.762
18237W        W79548   8.697   2.878   3.254
18238W        W79549  27.167  16.707   3.740
18239W        W79550  31.403  13.187   4.779
18240W        W79551  29.114  29.110   1.435
18241W        W79552  20.133  18.276  13.422
18242W        W79553   3.459  36.407  14.321
18243W        W79554   2.322  26.536  12.033
18244W        W79555  38.428  28.109  13.941
18245W        W79556  32.037  27.105  14.974
18246W        W79557  27.558   6.196   0.263
18247W        W79558  33.546  43.854  11.471
18248W        W79559  39.047   7.283   1.768
18249W        W79560   3.793  18.616   3.363
18250W        W79561  28.165  27.457   1.250
18251W        W79562  13.759  37.843   3.648
18252W        W79563  27.129   7.821   1.867
18253W        W79564  16.738   8.197   3.763
18254W        W79565  23.993  33.067   3.829
18255W        W79566  24.628  18.241  12.542
18256W        W79567  41.299  37.010   1.928
18257W        W79568  18.139  40.311  14.928
18258W        W79569  39.326  41.522  12.540
18259W        W79570  12.288  17.790  14.969
18260W        W79571  34.025  41.500   0.747
18261W        W79572   6.201  35.061  13.469
18262W        W79573  27.449  34.494   3.741
18263W        W79574  26.649  34.370   1.809
18264W        W79575  37.416  23.497   3.760
18265W        W79576  28.034  14.227  12.451
18266W        W79577  32.524  17.795  10.503
18267W        W79578   3.396  40.972   1.862
18268W        W79579  36.361  42.872  14.997
18269W        W79580  37.547  25.018   4.260
18270W        W79581  38.383   8.376  12.036
18271W        W79582  14.690   3.805  14.855
18272W        W79583  43.909  13.696   0.475
18273W        W79584   5.706   6.717  11.898
18274W        W79585  41.012  17.644   0.303
18275W        W79586   5.252   2.351  11.412
18276W        W79587  34.070  23.632   2.771
18277W        W79588  22.741   5.878   3.247
18278W        W79589  27.084  40.863  13.968
18279W        W79590  27.643  12.304   1.250
18280W        W79591  28.058  19.055   1.744
18281W        W79592  39.344  14.692  13.374
18282W        W79593  38.469  34.029  12.070
18283W        W79594  21.655  18.059   0.367
18284W        W79595   2.855   0.452  11.426
18285W        W79596   9.706  32.117   0.747
18286W        W79597  25.094   6.330  12.492
18287W        W79598   1.977  24.984  10.639
18288W        W79599   3.401  41.837   5.136
18289W        W79600  39.898  17.782   2.272
18290W        W79601  36.861   3.291   4.815
18291W        W79602  39.482  30.145   1.289
18292W        W79603  12.740  34.102   0.306
18293W        W79604   2.878  30.146  14.475
18294W        W79605  28.006  31.075  10.905
18295W        W79606   2.876  29.160  13.928
18296W        W79607   2.891   5.235  14.983
18297W        W79608  33.040  17.237   0.731
18298W        W79609  14.806  25.504  11.931
18299W        W79610   5.912  11.768  14.491
18300W        W79611  15.228  17.260   3.155
18301W        W79612  43.443  26.581   1.850
18302W        W79613  11.230  29.096  12.956
18303W        W79614   1.953  28.463  13.897
18304W        W79615   3.899   9.834   1.449
18305W        W79616  24.713   4.265   2.379
18306W        W79617   6.331  28.655   1.265
18307W        W79618  20.610   0.468  10.573
18308W        W79619  24.105  39.548  11.571
18309W        W79620  18.206  25.508   2.785
18310W        W79621   3.887  24.131   3.321
18311W        W79622   9.216  23.735   3.279
18312W        W79623  28.104   9.280  13.879
18313W        W79624  37.002  43.850   3.666
18314W        W79625  40.998  22.548   3.742
18315W        W79626  29.637  19.603  11.527
18316W        W79627  23.729  39.950  10.146
18317W        W79628  24.588  28.019  11.946
18318W        W79629  42.865  11.708   1.348
18319W        W79630  22.189   5.746  13.797
18320W        W79631  34.410  25.984   1.216
18321W        W79632  43.826  32.114  12.932
18322W        W79633  20.576  38.389   0.752
18323W        W79634  26.604  36.530   0.317
18324W        W79635  15.618  34.055   0.779
18325W        W79636  12.284  16.720  12.052
18326W        W79637  22.190  23.997   2.777
18327W        W79638  42.958  12.350  12.421
18328W        W79639   4.434  14.732  13.021
18329W        W79640  37.398  10.349  12.506
18330W        W79641   6.759  44.505   4.236
18331W        W79642  41.447   1.263  12.052
18332W        W79643  25.632  44.476   1.295
18333W        W79644  17.077  23.203  12.450
18334W        W79645   9.298  10.698  14.323
18335W        W79646  38.451  10.654  13.457
18336W        W79647   6.322  10.644   0.781
18337W        W79648  33.446  34.390   2.825
18338W        W79649  20.633  24.492  14.980
18339W        W79650  35.361   2.817   4.605
18340W        W79651  41.994  42.909   4.238
18341W        W79652  42.315  11.841   2.370
18342W        W79653  36.415   6.727   2.387
18343W        W79654  24.206  29.641  13.423
18344W        W79655  13.759   1.363   3.804
18345W        W79656  39.454   6.361  10.926
18346W        W79657  19.577  14.688  14.867
18347W        W79658  16.627  37.378  13.322
18348W        W79659  42.842  30.051  11.379
18349W        W79660  41.986  24.516  14.026
18350W        W79661  32.428  14.601  13.434
18351W        W79662  32.092   7.747  14.381
18352W        W79663   1.973  35.070  12.964
18353W        W79664  10.704  17.215   2.318
18354W        W79665  26.117  16.191  13.483
18355W        W79666  20.247  22.552  13.345
18356W        W79667  20.206  17.086  14.861
18357W        W79668  30.065  27.101   2.673
18358W        W79669  13.316  41.867   0.431
18359W        W79670  20.651   7.816  13.515
18360W        W79671   7.685  27.660  10.601
18361W        W79672   1.362   1.473  14.470
18362W        W79673   9.826   1.415   3.810
18363W        W79674  13.154  18.630  14.492
18364W        W79675  16.579  18.614  10.098
18365W        W79676   8.761  40.540   3.644
18366W        W79677  37.918  41.363   0.322
18367W        W79678   8.811   1.478   4.655
18368W        W79679  31.113   1.328  14.921
18369W        W79680  44.947  28.617  11.972
18370W        W79681  15.775  23.549   2.413
18371W        W79682  42.398   3.407  12.996
18372W        W79683   9.792  18.161  13.383
18373W        W79684  18.761  12.199  11.102
18374W        W79685  16.084  24.012  13.873
18375W        W79686  40.024  18.207   3.826
18376W        W79687  26.958  24.597   4.289
18377W        W79688  25.133  29.430  12.918
18378W        W79689   0.969  15.283   4.289
18379W        W79690  38.845   5.874  11.006
18380W        W79691  15.165  28.591   4.632
18381W        W79692  42.876   2.326   2.813
18382W        W79693   6.283  11.824   0.922
18383W        W79694  25.644  32.979   2.315
18384W        W79695  19.592  41.475   0.823
18385W        W79696  29.160   8.295  12.464
18386W        W79697  39.835   9.159  10.468
18387W        W79698  29.032  26.527   0.400
18388W        W79699  17.751  22.588  12.031
18389W        W79700  18.269  13.734  11.575
18390W        W79701  36.557   4.925  10.432
18391W        W79702  21.209  41.294   5.663
18392W        W79703  40.907  18.646  13.391
18393W        W79704  31.442  32.118   0.841
18394W        W79705  39.430  26.479   5.279
18395W        W79706  35.574  19.280  14.512
18396W        W79707   7.268  18.572  14.807
18397W        W79708   9.264   6.861  13.380
18398W        W79709   7.364  25.003  10.416
18399W        W79710   2.820  11.843  11.108
18400W        W79711  26.014  44.753   3.830
18401W        W79712  12.271  31.014  11.878
18402W        W79713  39.411  23.521  12.373
18403W        W79714  19.671  35.983   2.831
18404W        W79715  29.529  18.197   2.853
18405W        W79716  18.091  25.492   0.282
18406W        W79717  31.640  34.452  10.489
18407W        W79718  35.030  34.481   3.322
18408W        W79719  20.034  26.575  14.438
18409W        W79720  25.185  16.172   0.313
18410W        W79721  28.104  25.653  13.452
18411W        W79722  27.608   5.289  12.948
18412W        W79723  26.646  23.094  12.359
18413W        W79724  10.840   9.395  14.948
18414W        W79725  13.340  15.672   4.682
18415W        W79726  29.021  31.519   1.801
18416W        W79727  30.464  30.075  12.517
18417W        W79728   9.692   3.427  14.358
18418W        W79729   0.351  13.291  12.552
18419W        W79730  37.544  38.044   9.958
18420W        W79731   7.331   6.418  11.423
18421W        W79732  39.062  34.613  12.400
18422W        W79733   2.755  29.640   4.188
18423W        W79734  36.859   0.821   1.296
18424W        W79735  14.290   0.982   1.890
18425W        W79736   6.900  24.482  11.864
18426W        W79737   6.188  41.890  13.395
18427W        W79738   8.291  14.644   1.903
18428W        W79739  33.007  34.420   2.888
18429W        W79740  19.113  34.396  13.350
18430W        W79741  38.984  16.102  10.947
18431W        W79742   9.709  30.083  11.522
18432W        W79743   1.248  11.336   1.226
18433W        W79744  31.105  23.212   3.165
18434W        W79745  32.582  22.715  14.294
18435W        W79746  34.536  25.085   3.344
18436W        W79747  29.976  11.321   4.337
18437W        W79748  21.618  23.507  14.477
18438W        W79749   3.363  21.129  11.129
18439W        W79750  16.580  23.497   0.745
18440W        W79751  12.268  44.902   0.940
18441W        W79752  39.991   2.296  14.315
18442W        W79753   7.300  38.500  13.935
18443W        W79754  42.385   2.750   4.776
18444W        W79755   2.807  19.106   2.784
18445W        W79756   6.358  21.024  13.804
18446W        W79757  10.150  25.138   2.271
18447W        W79758  41.401  43.448  11.061
18448W        W79759  35.874  31.949  10.473
18449W        W79760  16.293  35.010  12.070
18450W        W79761   4.887  41.292   4.270
18451W        W79762  29.441  32.444   2.716
18452W        W79763  17.802   6.864  10.045
18453W        W79764   1.335  23.557  11.600
18454W        W79765  27.032  31.932   9.631
18455W        W79766  21.173  32.507   0.438
18456W        W79767  44.366  41.293  12.419
18457W        W79768  44.488  31.463   3.172
18458W        W79769  19.116  11.232  12.444
18459W        W79770   6.326  44.362   3.269
18460W        W79771   3.292  30.964   1.812
18461W        W79772  43.483  34.422  11.394
18462W        W79773  24.709  12.284  14.301
18463W        W79774  27.029  28.561  14.300
18464W        W79775  29.633  18.091  13.454
18465W        W79776   3.426  24.061  12.026
18466W        W79777  18.174   9.757  14.894
18467W        W79778  13.599  38.483   4.639
18468W        W79779   4.761  26.098   3.318
18469W        W79780  16.653   1.383   1.262
18470W        W79781  15.237  33.030  11.540
18471W        W79782  28.543   3.886  10.529
18472W        W79783  27.085  16.127  12.964
18473W        W79784  29.157  14.812  13.991
18474W        W79785  35.373  28.087  12.882
18475W        W79786  25.568  20.250  14.913
18476W        W79787  18.158  22.738  11.456
18477W        W79788  39.021  13.267  13.942
18478W        W79789  22.541  25.119   3.226
18479W        W79790  19.551  29.109  11.013
18480W        W79791  44.837  33.971  10.601
18481W        W79792   1.765  41.941  14.430
18482W        W79793  35.362  41.464   3.372
18483W        W79794  20.616   4.224   2.713
18484W        W79795  13.727  40.937   4.336
18485W        W79796   3.286  43.418   0.444
18486W        W79797   0.907  30.998  12.484
18487W        W79798  37.436   4.939  11.005
18488W        W79799  15.228  26.508   1.352
18489W        W79800   6.245  39.012  14.024
18490W        W79801  13.721   1.949  11.894
18491W        W79802  12.168  25.035   2.764
18492W        W79803  42.967  36.992   1.712
18493W        W79804  43.940  14.218   4.604
18494W        W79805  39.918  35.592   2.264
18495W        W79806   0.799  10.153  13.517
18496W        W79807  27.458   4.860   3.363
18497W        W79808  10.214   3.878  14.960
18498W        W79809  17.210  28.499   1.790
18499W        W79810  39.901   3.801   0.947
18500W        W79811   2.771  14.210   1.735
18501W        W79812  20.596   6.697  11.077
18502W        W79813  43.908   5.755  11.043
18503W        W79814   0.793  31.580  13.432
18504W        W79815   6.263   3.833  14.025
18505W        W79816   2.942  36.956   1.438
18506W        W79817  30.414  23.105   0.480
18507W        W79818   3.834  25.200   0.412
18508W        W79819   0.958   5.249  12.364
18509W        W79820   8.352   1.331   0.906
18510W        W79821  44.395   6.357  13.895
18511W        W79822  17.565  25.564   5.206
18512W        W79823  36.385  14.234   0.759
18513W        W79824  11.683  38.527  14.325
18514W        W79825   8.165  44.348   0.879
18515W        W79826  42.779  13.332   2.746
18516W        W79827  23.153   7.771  13.427
18517W        W79828   9.685  39.443   3.244
18518W        W79829  26.485  37.537   2.226
18519W        W79830  16.770   2.257   2.761
18520W        W79831  10.825   6.347  13.869
18521W        W79832  17.235   5.439  14.872
18522W        W79833   3.261  33.459   3.190
18523W        W79834   8.195  41.009   3.851
18524W        W79835   2.946  17.575   1.387
18525W        W79836  33.888  19.672  10.504
18526W        W79837   6.223  34.089   0.345
18527W        W79838  31.139   9.688  10.462
18528W        W79839  17.658  10.338  11.399
18529W        W79840  38.464   7.278  13.515
18530W        W79841   0.840  17.713   1.213
18531W        W79842  10.366  20.618  11.463
18532W        W79843  40.492  37.396  11.067
18533W        W79844  12.167  44.258  11.123
18534W        W79845  34.916  31.148  12.480
18535W        W79846  25.581  35.894   2.825
18536W        W79847  13.743  41.925   2.356
18537W        W79848   5.771  27.114   4.786
18538W        W79849  13.603  10.681  12.489
18539W        W79850  43.836  43.872   3.694
18540W        W79851  10.355  38.959   0.951
18541W        W79852  28.536  43.482   2.259
18542W        W79853  34.117  13.294  10.645
18543W        W79854   5.414  34.000   3.806
18544W        W79855   7.899  12.762  11.971
18545W        W79856  30.476  13.331   0.427
18546W        W79857  30.631  40.544   0.308
18547W        W79858  26.688  29.003   2.251
18548W        W79859  29.470  35.532   4.210
18549W        W79860   8.355  33.543  13.866
18550W        W79861   7.194  40.471  12.384
18551W        W79862  10.361  18.696  11.019
18552W        W79863  33.557  32.928  13.505
18553W        W79864  10.321  31.084   2.858
18554W        W79865  40.322   7.341  14.987
18555W        W79866  15.779  32.003  10.008
18556W        W79867   4.802  23.545  11.954
18557W        W79868  22.029   8.724   3.842
18558W        W79869  23.665  18.238   5.139
18559W        W79870  26.462  40.951  14.818
18560W        W79871  23.517  26.184  12.476
18561W        W79872   2.830  30.484   1.927
18562W        W79873  27.629  24.112   2.735
18563W        W79874   8.212  34.584   0.825
18564W        W79875  40.401  26.548  11.546
18565W        W79876   6.272  28.939  14.320
18566W        W79877  25.666   5.274   3.846
18567W        W79878  41.473   3.433   1.428
18568W        W79879  24.093  44.910   4.697
18569W        W79880  33.495   8.317  14.830
18570W        W79881   1.316  34.092   3.173
18571W        W79882   8.884  24.205   3.328
18572W        W79883  39.923  16.311   1.796
18573W        W79884  33.379   8.348  13.889
18574W        W79885  24.223  41.319  10.569
18575W        W79886  38.047  21.197  13.019
18576W        W79887  21.179  10.710   1.262
18577W        W79888  23.215   9.150   0.928
18578W        W79889   2.850   6.326  13.342
18579W        W79890  19.678  21.729  13.411
18580W        W79891  22.170  14.737  12.477
18581W        W79892  16.145  34.454  11.021
18582W        W79893  28.575  27.973  11.970
18583W        W79894  23.722  35.510   0.333
18584W        W79895  40.320   6.342   3.302
18585W        W79896  40.909  19.225  14.442
18586W        W79897   5.866  38.546  11.063
18587W        W79898  31.455  20.265  11.448
18588W        W79899  44.760  40.360  14.774
18589W        W79900  26.105  43.297   3.223
18590W        W79901  37.018  28.988  13.055
18591W        W79902  20.713   7.725   0.309
18592W        W79903  26.509  17.196   1.215
18593W        W79904   2.321  26.561  12.475
18594W        W79905   7.885  17.076  14.018
18595W        W79906  36.589   2.306   4.205
18596W        W79907  14.680  32.063   5.092
18597W        W79908  32.961  18.194  14.425
18598W        W79909  40.332  42.393   4.235
18599W        W79910  30.113   1.390   0.268
18600W        W79911  42.322   5.223   4.192
18601W        W79912  12.689  39.529  12.916
18602W        W79913  42.838  17.627  10.909
18603W        W79914  10.719  36.092   3.292
18604W        W79915  27.100  27.592   4.810
18605W        W79916  13.745   5.289  12.894
18606W        W79917  12.305  41.787   2.419
18607W        W79918  31.110  13.216   0.427
18608W        W79919  31.560   3.876  11.948
18609W        W79920  27.592  36.886   0.382
18610W        W79921  37.848  40.415   1.354
18611W        W79922  39.532   6.759  13.866
18612W        W79923   3.825  12.340   4.157
18613W        W79924   8.173  16.301  12.401
18614W        W79925  26.530  23.631   3.772
18615W        W79926   4.711  40.346  12.420
18616W        W79927   6.906  44.884   0.863
18617W        W79928  44.366  24.597   2.733
18618W        W79929  44.851  35.398  14.297
18619W        W79930  34.865  43.510   1.338
18620W        W79931  20.686   2.274  12.501
18621W        W79932  40.387  30.918  11.567
18622W        W79933  39.448  34.535  14.861
18623W        W79934  22.237  18.195   0.799
18624W        W79935  10.168  35.559  12.581
18625W        W79936  10.778  25.972   2.327
18626W        W79937  35.861  44.978   1.391
18627W        W79938  38.551  38.524   3.706
18628W        W79939  44.394  32.545  12.494
18629W        W79940  41.020  10.158   2.221
18630W        W79941   8.808  21.239   0.859
18631W        W79942  26.612  29.052  11.860
18632W        W79943  32.620  41.484  13.991
18633W        W79944  23.589  28.162  12.488
18634W        W79945   3.716  14.730   0.282
18635W        W79946  35.409  43.500  11.480
18636W        W79947  31.079  36.565  10.583
18637W        W79948   3.358   3.339  12.880
18638W        W79949  19.716  23.510  10.421
18639W        W79950  41.795  42.490  12.468
18640W        W79951  10.875  11.832   2.882
18641W        W79952  40.987  21.155  14.508
18642W        W79953   5.835  25.686  11.451
18643W        W79954   3.403  10.244   0.747
18644W        W79955  27.966  29.658  13.804
18645W        W79956  19.557  42.790  10.591
18646W        W79957   5.348   4.878   2.293
18647W        W79958   5.347  33.913  13.399
18648W        W79959   8.656   9.872  13.977
18649W        W79960  26.549   4.428  14.890
18650W        W79961  23.603  16.212   5.144
18651W        W79962  17.086  43.887  12.486
18652W        W79963  37.837  19.213  12.362
18653W        W79964  17.570  24.655   0.458
18654W        W79965  35.898  31.481   1.912
18655W        W79966  32.606  26.630   5.228
18656W        W79967  36.454  39.552   3.680
18657W        W79968  14.274   7.760  12.419
18658W        W79969  11.242  24.992  13.872
18659W        W79970  29.572  32.608   0.408
18660W        W79971  11.230  34.934   4.831
18661W        W79972  25.589  30.068   3.839
18662W        W79973   8.330  43.319  11.589
18663W        W79974   9.172  12.662   9.936
18664W        W79975  15.106  15.164   9.966
18665W        W79976  11.717  44.308  13.431
18666W        W79977  10.815  28.447  10.469
18667W        W79978   3.276  32.920   1.411
18668W        W79979  26.534  26.135   1.215
18669W        W79980  35.554   5.766  12.851
18670W        W79981  23.659   5.357   1.404
18671W        W79982  32.399  39.410  12.969
18672W        W79983   1.297  17.071  11.415
18673W        W79984  38.824  26.517   5.094
18674W        W79985  18.153  21.086  11.426
18675W        W79986  22.220  38.034   0.476
18676W        W79987  30.608  26.187   0.349
18677W        W79988  27.946  41.806  14.860
18678W        W79989   1.323   9.850   2.286
18679W        W79990   2.378  38.499   2.403
18680W        W79991   6.303  29.025   0.842
18681W        W79992  29.939  37.031   3.201
18682W        W79993  28.657  22.227  14.360
18683W        W79994   5.360   6.760   4.212
18684W        W79995  21.636  36.077   3.823
18685W        W79996  21.036   8.359  12.829
18686W        W79997   1.271  16.107   4.659
18687W        W79998   9.160  25.593  14.391
18688W        W79999  33.958  14.695  10.942
18689W        W80000  34.596  41.857  13.833
18690W        W80001  10.867   9.687   1.416
18691W        W80002  44.834  28.163  13.942
18692W        W80003  13.704  14.217  12.837
18693W        W80004   1.436  43.941   2.323
18694W        W80005   2.876  36.454   2.695
18695W        W80006  26.579  34.374  11.381
18696W        W80007   4.845   6.859   1.413
18697W        W80008  34.427  23.556   1.375
18698W        W80009  39.059   1.241  11.023
18699W        W80010  12.246  42.321  12.906
18700W        W80011  16.722  40.884   4.182
18701W        W80012  33.005   1.258   2.265
18702W        W80013  41.416  43.861   2.897
18703W        W80014  13.789   0.368  14.934
18704W        W80015   6.757  27.108  13.869
18705W        W80016  36.520  11.783  12.844
18706W        W80017  43.508  13.145  14.027
18707W        W80018  25.992  13.747   1.257
18708W        W80019  16.723   8.171   1.437
18709W        W80020  43.852   1.324   4.787
18710W        W80021   2.283  42.877   4.198
18711W        W80022  14.727   9.861   4.248
18712W        W80023  19.091  35.984   3.854
18713W        W80024   8.742   7.876  14.403
18714W        W80025  10.272  19.761   2.875
18715W        W80026   5.735   9.749   1.413
18716W        W80027  36.968   4.753   2.799
18717W        W80028  39.970   6.325  13.503
18718W        W80029  15.294   6.294  12.982
18719W        W80030  39.918  20.240  14.886
18720W        W80031  31.042  16.165  14.513
18721W        W80032   9.805  16.159  14.944
18722W        W80033   4.408  39.899   4.623
18723W        W80034  27.465   5.871   3.656
18724W        W80035  37.512  41.455   5.264
18725W        W80036   9.859  12.120  13.536
18726W        W80037  37.464  36.964  12.035
18727W        W80038  33.927  18.256   0.814
18728W        W80039   0.439  35.420  10.441
18729W        W80040  30.103   5.841  14.511
18730W        W80041  42.487  38.410  12.978
18731W        W80042  11.253  27.680   0.284
18732W        W80043  37.409  38.990  10.503
18733W        W80044  13.217  11.662   2.298
18734W        W80045  38.060  20.614   1.763
18735W        W80046  13.726  24.189   3.802
18736W        W80047   0.757  24.074   3.356
18737W        W80048  31.410  25.514  13.959
18738W        W80049  16.282   8.839  14.281
18739W        W80050  34.495  18.553   4.170
18740W        W80051  25.574  33.971  12.488
18741W        W80052  24.527   9.714  14.448
18742W        W80053  24.055   9.871   2.228
18743W        W80054  20.536  38.865  12.413
18744W        W80055  26.501  23.659   0.276
18745W        W80056   5.911   1.476  14.514
18746W        W80057   8.309   2.243   3.644
18747W        W80058   1.786  38.964   2.326
18748W        W80059  36.391  36.437  10.945
18749W        W80060  28.141   2.417   0.811
18750W        W80061  16.794  19.741  12.990
18751W        W80062   4.758  28.989   1.293
18752W        W80063   0.390  24.137  14.867
18753W        W80064  24.054  37.495  13.042
18754W        W80065  13.172   2.354   2.672
18755W        W80066  32.945  24.166  12.386
18756W        W80067  32.901  43.947  11.424
18757W        W80068  22.531   8.712   0.417
18758W        W80069  24.529  22.092   4.139
18759W        W80070  27.974  24.723   4.201
18760W        W80071   2.289  43.295   2.803
18761W        W80072  23.653  26.668  12.541
18762W        W80073   4.796  26.532  13.993
18763W        W80074  19.235   2.746  12.491
18764W        W80075  21.673  39.481   0.732
18765W        W80076  13.751   7.733   3.748
18766W        W80077   7.666   3.758  14.485
18767W        W80078  41.973  16.572  13.907
18768W        W80079   6.923  14.315  14.815
18769W        W80080  30.940  16.074   2.840
18770W        W80081  24.215  29.929   3.748
18771W        W80082  14.136  27.102   4.727
18772W        W80083   9.744  11.195  11.528
18773W        W80084  23.121  26.097  12.080
18774W        W80085  40.394  40.874   0.283
18775W        W80086   6.346  33.050   4.825
18776W        W80087  17.627   8.210  14.841
18777W        W80088   9.883  41.482   2.286
18778W        W80089  35.022  20.559  13.399
18779W        W80090  26.574  27.158  10.921
18780W        W80091  34.609   0.976   0.462
18781W        W80092  36.456  34.515   4.778
18782W        W80093  21.749  33.121   1.696
18783W        W80094  39.834   6.882  11.492
18784W        W80095  24.186  22.097   2.209
18785W        W80096   6.903   1.360  12.374
18786W        W80097  22.722   7.865   2.676
18787W        W80098  36.090  33.562   0.890
18788W        W80099  44.290  36.925   2.711
18789W        W80100   0.411   8.863   1.884
18790W        W80101  16.130  24.116  13.047
18791W        W80102   4.270  23.641  12.062
18792W        W80103  28.464  32.506  11.862
18793W        W80104   2.771  33.415   3.360
18794W        W80105  18.090  19.693   0.303
18795W        W80106  38.404  24.006   3.744
18796W        W80107  38.390  25.712   2.387
18797W        W80108  20.749   6.278   0.476
18798W        W80109  43.514  28.929  11.068
18799W        W80110   6.848  16.141   0.255
18800W        W80111  18.175  15.640   5.153
18801W        W80112   2.418  35.012   4.202
18802W        W80113  41.886  27.519   3.147
18803W        W80114  43.781  27.950  12.433
18804W        W80115  37.957  12.743  11.465
18805W        W80116  36.046  36.890  14.281
18806W        W80117  33.390   9.755   4.226
18807W        W80118  36.844  18.610   2.311
18808W        W80119  33.390  44.850  12.997
18809W        W80120  15.208  35.603  10.989
18810W        W80121  31.531  17.157  13.488
18811W        W80122  44.754  41.936  11.120
18812W        W80123  36.480  40.526   1.881
18813W        W80124  35.010  29.168  12.473
18814W        W80125  42.932  41.848  12.480
18815W        W80126  27.944   4.253   3.800
18816W        W80127   3.827  34.015   1.877
18817W        W80128  26.158  14.179  11.029
18818W        W80129   8.169  28.959  14.001
18819W        W80130  14.784  36.508  14.355
18820W        W80131   1.947  35.870   0.381
18821W        W80132   7.864  39.054  10.931
18822W        W80133  33.925  10.801   0.480
18823W        W80134  31.078  14.190   2.268
18824W        W80135  11.128   5.355   4.646
18825W        W80136  30.945  35.075  12.569
18826W        W80137  21.081  20.611  10.497
18827W        W80138  19.108  44.778   4.723
18828W        W80139   0.790  26.193  13.023
18829W        W80140  36.386  23.117   3.196
18830W        W80141  36.484   7.292  11.031
18831W        W80142   0.456  21.139  10.591
18832W        W80143   4.712  22.582  12.898
18833W        W80144  27.074  27.687   0.385
18834W        W80145  18.267   5.396   0.834
18835W        W80146  15.616  39.945  12.863
18836W        W80147  29.088   7.765   2.845
18837W        W80148  29.450  30.918  14.301
18838W        W80149  39.461   3.881  12.880
18839W        W80150  27.479  23.713  13.950
18840W        W80151   1.481  36.472   0.749
18841W        W80152   5.395  18.746  12.529
18842W        W80153   2.449  43.935   2.358
18843W        W80154  13.709  36.389   1.232
18844W        W80155  12.789  21.113  13.897
18845W        W80156   6.747  20.236  14.414
18846W        W80157  21.178  37.402   9.920
18847W        W80158   5.319   1.876   4.333
18848W        W80159   7.764  24.562  12.356
18849W        W80160  30.440  10.162   0.297
18850W        W80161  17.304  11.845  14.415
18851W        W80162   5.903  41.936  12.901
18852W        W80163  41.520  40.548  13.395
18853W        W80164  16.774   1.858  10.612
18854W        W80165   3.283  31.503  14.399
18855W        W80166  15.682   8.259   3.301
18856W        W80167  38.470  21.053   1.761
18857W        W80168  14.289  23.116   3.147
18858W        W80169  18.241  34.552  12.958
18859W        W80170   8.866  26.202   4.176
18860W        W80171   2.919   1.910  14.771
18861W        W80172  44.462  13.652  12.032
18862W        W80173  43.318  13.736   2.353
18863W        W80174   3.273  19.260  14.937
18864W        W80175  31.509  11.668  12.853
18865W        W80176   0.265   2.757  13.002
18866W        W80177  28.120  33.473   2.415
18867W        W80178   1.902  35.429   4.743
18868W        W80179   1.777  25.612   1.434
18869W        W80180  25.138  30.646  11.380
18870W        W80181  44.906  25.216  14.296
18871W        W80182  28.581   0.753  12.380
18872W        W80183  13.820  15.295   2.763
18873W        W80184  35.539  22.245   3.729
18874W        W80185  32.109  22.109   0.293
18875W        W80186  40.345  44.786   0.399
18876W        W80187  30.515  36.494   4.800
18877W        W80188  18.138  33.956   2.894
18878W        W80189  40.448  23.116   0.795
18879W        W80190  44.980  33.009   0.838
18880W        W80191  25.613  30.517   3.366
18881W        W80192  35.473  21.561   0.260
18882W        W80193  19.090  11.652   2.763
18883W        W80194  33.123  42.331  12.930
18884W        W80195  42.814  15.278  11.409
18885W        W80196   3.770  25.002  10.446
18886W        W80197  25.570  32.027   2.255
18887W        W80198  17.574  12.665  10.510
18888W        W80199  35.923  11.347   1.238
18889W        W80200  18.246  14.311   2.377
18890W        W80201  30.026  30.055  13.966
18891W        W80202   3.876  23.036  10.914
18892W        W80203   0.420  43.993   0.909
18893W        W80204   5.734   4.865  11.967
18894W        W80205   4.873  15.126  12.378
18895W        W80206  26.162  36.078   0.836
18896W        W80207  41.822  25.194  10.555
18897W        W80208  33.391  34.401  14.773
18898W        W80209  15.141   6.374   0.850
18899W        W80210  13.679  32.036  10.454
18900W        W80211  36.087  21.082   3.659
18901W        W80212  37.075  20.062   1.885
18902W        W80213  11.760  20.208   1.361
18903W        W80214   1.820  40.986   4.179
18904W        W80215   6.356   8.828   2.339
18905W        W80216  14.097  25.063   0.913
18906W        W80217  31.428  18.591   2.415
18907W        W80218   5.228  20.643  11.593
18908W        W80219  44.332  21.718   1.874
18909W        W80220  18.073  20.619  13.361
18910W        W80221  34.108  21.092   9.949
18911W        W80222  18.634  17.640  14.935
18912W        W80223  24.140  29.534   2.191
18913W        W80224  33.047  35.876  14.284
18914W        W80225  37.420  36.899   9.987
18915W        W80226  29.645  36.537  11.562
18916W        W80227  40.442  15.649   3.244
18917W        W80228  11.232  14.337   1.850
18918W        W80229  31.452  12.324   4.143
18919W        W80230  15.804  44.989   1.782
18920W        W80231   3.353   6.749  12.995
18921W        W80232  11.193  34.057  14.367
18922W        W80233  35.065  33.979   1.225
18923W        W80234  14.602  14.111   1.266
18924W        W80235  32.091  20.073   2.353
18925W        W80236  29.953   8.827   9.993
18926W        W80237  25.563  41.473  10.640
18927W        W80238  35.535  12.127   3.316
18928W        W80239  24.055   0.778  11.395
18929W        W80240   4.881  36.923   5.209
18930W        W80241  22.212   6.847   1.904
18931W        W80242   9.752  28.156  13.791
18932W        W80243  36.905  19.776  12.432
18933W        W80244  14.758  32.099   4.304
18934W        W80245  36.988  37.842  13.974
18935W        W80246   9.210   4.436   0.385
18936W        W80247  23.135  22.026  13.514
18937W        W80248  38.383  22.524   0.399
18938W        W80249  18.214  42.905  10.979
18939W        W80250   9.852  33.497  10.531
18940W        W80251  33.924   9.658   2.404
18941W        W80252  37.980  30.058  12.050
18942W        W80253  42.957   2.259  13.011
18943W        W80254  43.500  22.739  11.607
18944W        W80255  34.542   5.872   0.375
18945W        W80256  15.185  14.153  11.913
18946W        W80257   2.845  12.125  12.054
18947W        W80258  38.944  14.645   0.451
18948W        W80259  26.487  34.579   0.279
18949W        W80260  36.036  14.834   2.383
18950W        W80261  36.361  22.222  12.445
18951W        W80262  16.614  22.551  10.529
18952W        W80263   1.467   2.965  12.079
18953W        W80264  29.980  13.267  12.451
18954W        W80265  43.360  43.777  14.003
18955W        W80266   5.289  22.642   2.265
18956W        W80267  42.392  38.487  12.007
18957W        W80268  21.040  37.862  10.417
18958W        W80269   5.397  14.332  12.359
18959W        W80270  33.881  28.528   2.234
18960W        W80271  36.456  22.177   4.286
18961W        W80272  29.026  29.470   3.387
18962W        W80273  22.606  23.663  10.965
18963W        W80274  11.234   6.811   3.372
18964W        W80275  13.601  29.074   4.683
18965W        W80276   7.195  19.246   1.758
18966W        W80277  25.057  22.595  14.291
18967W        W80278   8.711  42.507   0.918
18968W        W80279  28.985  25.567  12.445
18969W        W80280  37.466  13.764   4.204
18970W        W80281   9.755   6.891  12.881
18971W        W80282   2.890  14.332  11.924
18972W        W80283  11.341  25.025  11.105
18973W        W80284  34.045  22.068  13.524
18974W        W80285  16.165  30.637  12.944
18975W        W80286  44.885   5.809  11.515
18976W        W80287  12.836  17.663  12.996
18977W        W80288  35.380   6.263  11.882
18978W        W80289  11.259  41.330  11.077
18979W        W80290  39.361  12.235  12.395
18980W        W80291  39.948  33.104  12.550
18981W        W80292   7.758  42.292  12.875
18982W        W80293  38.382  44.895   1.795
18983W        W80294  14.217  40.483  11.446
18984W        W80295  18.102  13.137   4.333
18985W        W80296   9.225  39.052   5.146
18986W        W80297   9.664  25.043   0.803
18987W        W80298  19.165  35.096   3.387
18988W        W80299  43.376   7.315  14.414
18989W        W80300  13.822  24.002  14.025
18990W        W80301  20.718  40.378  13.332
18991W        W80302  42.495   6.396   0.729
18992W        W80303  43.325  33.921  13.057
18993W        W80304  37.893  14.100  10.564
18994W        W80305  15.229  27.154   1.908
18995W        W80306  15.198  18.598  12.342
18996W        W80307  34.916  15.257   3.636
18997W        W80308   8.351  15.234   1.286
18998W        W80309  39.954  14.214  13.905
18999W        W80310  15.741  18.557  10.559
19000W        W80311   5.421  35.885  10.910
19001W        W80312   0.842   0.438   0.921
19002W        W80313  21.100   0.965  14.868
19003W        W80314  30.611   2.451  10.485
19004W        W80315  12.211  14.306  11.480
19005W        W80316  34.545  33.905  10.956
19006W        W80317  25.479  15.788  11.528
19007W        W80318  43.956  43.425  11.498
19008W        W80319  40.530  32.637  11.868
19009W        W80320   1.348  12.307   1.318
19010W        W80321  39.474  23.988  14.939
19011W        W80322  35.521   5.422  13.007
19012W        W80323   5.894  15.282   3.864
19013W        W80324  35.048  23.511  13.969
19014W        W80325  13.306  43.514  10.573
19015W        W80326  19.265  36.573  13.925
19016W        W80327  11.232  33.937   4.755
19017W        W80328  18.163   8.887  14.426
19018W        W80329   5.818  19.578   5.087
19019W        W80330   5.364  29.143  10.568
19020W        W80331  26.111   5.723  10.151
19021W        W80332  41.373   3.847  11.018
19022W        W80333  36.561  20.208   0.819
19023W        W80334  29.144  32.443   1.431
19024W        W80335   7.187  31.522  12.885
19025W        W80336  11.717   4.818  11.486
19026W        W80337  16.670  17.658  14.970
19027W        W80338   6.235  43.487  14.321
19028W        W80339  14.751  20.074   2.879
19029W        W80340  22.132  32.404   1.414
19030W        W80341  14.172  34.404  11.951
19031W        W80342  27.666   2.782   2.412
19032W        W80343  34.445  21.608   1.892
19033W        W80344  30.062  42.300   1.295
19034W        W80345  31.058  19.664   3.260
19035W        W80346   2.459  18.263  14.348
19036W        W80347  28.976  36.493  13.896
19037W        W80348  15.164  24.170  11.413
19038W        W80349  15.295   0.429   3.213
19039W        W80350  39.462   0.312   2.227
19040W        W80351  16.808  36.554   3.163
19041W        W80352  35.918   2.730  11.949
19042W        W80353  19.072  22.242  13.413
19043W        W80354  10.163  29.984   4.281
19044W        W80355   5.302  32.051  14.514
19045W        W80356  19.697  42.346  14.984
19046W        W80357   6.833  32.090   5.297
19047W        W80358  35.875   0.289  12.866
19048W        W80359  21.072  21.186   0.760
19049W        W80360   3.330  31.579   1.365
19050W        W80361  31.898  14.201   2.373
19051W        W80362  18.694  41.816  11.899
19052W        W80363   2.725  21.174  11.867
19053W        W80364   4.365  24.575  12.897
19054W        W80365   0.483  30.454  14.454
19055W        W80366   8.208  20.091   3.828
19056W        W80367  14.170  42.326   1.375
19057W        W80368  28.092  43.808  13.331
19058W        W80369  30.510  35.864   0.277
19059W        W80370  12.634  14.321  11.036
19060W        W80371  11.167  19.214  12.505
19061W        W80372   4.424   3.220   0.864
19062W        W80373  19.779  32.120   2.857
19063W        W80374   2.356  37.455  12.360
19064W        W80375  11.322   1.936  13.396
19065W        W80376  13.259  16.263   1.788
19066W        W80377  41.487  29.018   2.776
19067W        W80378  41.007   6.711  12.466
19068W        W80379  38.886  35.981  14.468
19069W        W80380  20.176  18.269   9.522
19070W        W80381  16.784  44.832  13.464
19071W        W80382  21.558  15.640  14.414
19072W        W80383  37.030  42.381   3.832
19073W        W80384  42.779  24.093   5.185
19074W        W80385  40.391   2.244   3.348
19075W        W80386  25.198  40.536  13.516
19076W        W80387   9.171  15.288  12.904
19077W        W80388  21.023  38.520  14.399
19078W        W80389   7.685  22.178  12.954
19079W        W80390  33.063  38.357   1.325
19080W        W80391  24.627  21.136   2.285
19081W        W80392  17.673  30.158  12.438
19082W        W80393  15.239  32.041  11.460
19083W        W80394   0.932  22.696   1.384
19084W        W80395  41.822   1.879  14.793
19085W        W80396  15.186  21.683  13.988
19086W        W80397  29.950  44.342  12.885
19087W        W80398  34.565  12.661   0.899
19088W        W80399   5.215  24.499  14.501
19089W        W80400  11.720  33.931  11.593
19090W        W80401  26.699  40.818  13.416
19091W        W80402  11.811   8.320  11.961
19092W        W80403  10.213  16.132  13.942
19093W        W80404  16.589  34.081   1.751
19094W        W80405  22.507   7.236   5.224
19095W        W80406  28.989  33.958   3.171
19096W        W80407  39.316   4.873   2.397
19097W        W80408   5.193  25.629  14.384
19098W        W80409  34.586  41.879  14.332
19099W        W80410  27.042  18.169   0.445
19100W        W80411   5.404  34.976   4.698
19101W        W80412  37.976   9.272   2.307
19102W        W80413  27.603  23.017   4.805
19103W        W80414  14.724  25.620  10.450
19104W        W80415  26.020  34.058  10.555
19105W        W80416  15.674  23.181  14.454
19106W        W80417  32.006   0.904   3.307
19107W        W80418  32.593   7.398   4.186
19108W        W80419  43.457  35.485   0.393
19109W        W80420   7.337  43.954  12.418
19110W        W80421  28.046  33.959   1.352
19111W        W80422  28.496  43.312   3.668
19112W        W80423   8.701  28.052   2.708
19113W        W80424  25.051  42.828  12.507
19114W        W80425  18.165  36.405   4.630
19115W        W80426  23.716  32.909  11.973
19116W        W80427   7.679  42.468   2.383
19117W        W80428  17.693  32.611  14.959
19118W        W80429  39.888  26.625   4.659
19119W        W80430   0.827  24.550  14.892
19120W        W80431  21.631  40.456   4.133
19121W        W80432  19.114  13.249   2.358
19122W        W80433  31.621   9.223  13.423
19123W        W80434  36.072  35.404   4.321
19124W        W80435  14.163  29.074   0.429
19125W        W80436  27.471  30.491  10.600
19126W        W80437   7.233  27.691   1.443
19127W        W80438  15.235  16.768  13.866
19128W        W80439   3.858  24.482  12.400
19129W        W80440  34.018  26.546  14.020
19130W        W80441  14.723  33.925  11.499
19131W        W80442  23.015  23.597   0.266
19132W        W80443  41.297  41.948   2.725
19133W        W80444  25.698  10.773   2.779
19134W        W80445  24.098   1.254   0.772
19135W        W80446   5.428  16.221   2.670
19136W        W80447  42.986   2.868  12.037
19137W        W80448  25.691  43.326   4.224
19138W        W80449   8.754  12.736  12.034
19139W        W80450  37.448   0.297   3.183
19140W        W80451  36.099   8.775  13.419
19141W        W80452  29.073  32.588  11.409
19142W        W80453  25.139  13.804  12.487
19143W        W80454  24.579  17.162  13.996
19144W        W80455  19.134  40.523   4.751
19145W        W80456  30.124  40.847  12.442
19146W        W80457  11.265  13.669  12.367
19147W        W80458  30.077  39.375   2.289
19148W        W80459  10.355  24.193   5.322
19149W        W80460  16.729  36.443  11.989
19150W        W80461  41.999  19.671   9.955
19151W        W80462   8.261  31.933  10.541
19152W        W80463  25.598   9.273  13.048
19153W        W80464  29.654   4.448  12.987
19154W        W80465   4.787  30.658   1.361
19155W        W80466  34.520  27.095  10.898
19156W        W80467   6.415  36.004  13.812
19157W        W80468  17.740  35.412   3.374
19158W        W80469   6.203  25.068   5.317
19159W        W80470  38.523  14.748  12.497
19160W        W80471  16.292  44.934   0.948
19161W        W80472  17.646   6.398   0.944
19162W        W80473  15.745  22.709  14.789
19163W        W80474   5.367  27.606   1.802
19164W        W80475   8.670   6.802   0.932
19165W        W80476  36.459  40.007  14.915
19166W        W80477  38.334  21.196   3.370
19167W        W80478  11.774  25.974  10.427
19168W        W80479  17.585   4.854  11.894
19169W        W80480  13.163  40.378   9.987
19170W        W80481   8.811   6.750   3.369
19171W        W80482  13.276  38.958  13.326
19172W        W80483  37.379   6.745  11.120
19173W        W80484  36.360   4.450   4.755
19174W        W80485   1.390   8.350  12.573
19175W        W80486  20.722   9.780   4.138
19176W        W80487  10.272  27.549  12.947
19177W        W80488  36.870  30.651  13.904
19178W        W80489  29.492   3.775   4.144
19179W        W80490  39.462   4.267   4.763
19180W        W80491  41.406  19.666   1.824
19181W        W80492  35.947  18.217  10.501
19182W        W80493   7.335  20.033  11.009
19183W        W80494  29.071  18.740  14.995
19184W        W80495   3.719  20.558   4.626
19185W        W80496  29.131  34.922   4.273
19186W        W80497  21.025  14.760  13.847
19187W        W80498  42.819  21.586   0.296
19188W        W80499   4.752  21.727   0.267
19189W        W80500  11.309  17.139  12.041
19190W        W80501  14.333  34.040  11.872
19191W        W80502  43.310  31.126   3.255
19192W        W80503   5.704  27.940  12.890
19193W        W80504  25.492  41.439  13.910
19194W        W80505  24.166  23.505  11.006
19195W        W80506  21.183   0.335   1.872
19196W        W80507  36.569  28.014   2.201
19197W        W80508  11.173  35.428  14.358
19198W        W80509  31.476   6.312  13.829
19199W        W80510   1.975  29.484   1.228
19200W        W80511  28.108   7.885   0.319
19201W        W80512  13.220   9.768  14.913
19202W        W80513  13.829  37.020  11.879
19203W        W80514  28.053  26.063  12.881
19204W        W80515  12.688  44.795  13.019
19205W        W80516  13.696  29.093  14.306
19206W        W80517   6.382  17.647   0.324
19207W        W80518  16.689  27.071  10.595
19208W        W80519  10.823  43.002  14.469
19209W        W80520  41.872   1.746   1.826
19210W        W80521  22.646  22.154   1.339
19211W        W80522  40.314  35.534  10.968
19212W        W80523   2.882  36.856   2.688
19213W        W80524  23.077  15.248   4.115
19214W        W80525   0.375  30.553   2.700
19215W        W80526  32.992   0.895   0.878
19216W        W80527  24.543   7.360  14.024
19217W        W80528  20.122  28.643  11.012
19218W        W80529  11.231  36.941  11.999
19219W        W80530   8.257  37.383   1.425
19220W        W80531  25.114  28.958   2.386
19221W        W80532   4.798  20.536  12.521
19222W        W80533  32.041   6.305   4.702
19223W        W80534  27.011   4.395  13.916
19224W        W80535  23.720  41.298  14.011
19225W        W80536   2.834   6.736   2.807
19226W        W80537   8.723   7.754  13.475
19227W        W80538   9.664  32.131   1.328
19228W        W80539   8.169   7.703   2.222
19229W        W80540  35.888   5.831   2.775
19230W        W80541  33.621  16.702  11.392
19231W        W80542  19.073  25.654   4.754
19232W        W80543  21.599  15.187   2.851
19233W        W80544  40.867  27.035   0.369
19234W        W80545  40.461  31.104  13.487
19235W        W80546  13.351  15.672   2.862
19236W        W80547  11.150  14.676   1.388
19237W        W80548  38.339  33.107  12.503
19238W        W80549  37.039  37.975   9.452
19239W        W80550   3.915  17.285  12.528
19240W        W80551  19.637  21.114  13.901
19241W        W80552  28.578  19.603  13.944
19242W        W80553  31.132  22.033   2.385
19243W        W80554  10.338  13.785  10.457
19244W        W80555  11.725  36.938  11.990
19245W        W80556  24.198  25.189  12.008
19246W        W80557  31.082  32.576  14.907
19247W        W80558   2.740  29.429  11.877
19248W        W80559  20.591  36.374   3.737
19249W        W80560  16.648  30.590  14.837
19250W        W80561  22.701  19.238  13.964
19251W        W80562   0.434  30.989   1.891
19252W        W80563  19.756   1.906   2.228
19253W        W80564  16.298  31.940   3.204
19254W        W80565   0.804  17.196   4.832
19255W        W80566  33.904   9.195  14.798
19256W        W80567  18.740  25.963   1.771
19257W        W80568  32.569  42.437   2.372
19258W        W80569  41.307  30.578  13.926
19259W        W80570  14.778  39.347  14.369
19260W        W80571  17.646  27.503  10.423
19261W        W80572  26.510  27.970  14.984
19262W        W80573  43.798  27.021  11.058
19263W        W80574   2.415   6.873   4.640
19264W        W80575   5.328  11.632  14.867
19265W        W80576  29.491  42.873  14.903
19266W        W80577  33.092   6.367   1.219
19267W        W80578  39.411  10.164  13.479
19268W        W80579  14.790  11.777   4.794
19269W        W80580  24.507  13.749   4.615
19270W        W80581  33.912   9.232   0.418
19271W        W80582  28.035  44.832   0.476
19272W        W80583  39.353   8.739  14.003
19273W        W80584  17.181  30.011  11.009
19274W        W80585  39.471   6.416  11.502
19275W        W80586  20.128  27.975   3.636
19276W        W80587  16.627  32.475  10.907
19277W        W80588  30.117   5.313   2.820
19278W        W80589   8.180  44.304  10.057
19279W        W80590  14.676  15.599   0.408
19280W        W80591  35.062  29.637   3.664
19281W        W80592  37.521  25.681  11.403
19282W        W80593  24.124  38.908  13.992
19283W        W80594  15.275   0.362   0.424
19284W        W80595  14.245  17.701   0.272
19285W        W80596   5.214  35.360   4.318
19286W        W80597   1.349   4.400   3.191
19287W        W80598  24.153  29.941  12.912
19288W        W80599  20.619   3.765   0.902
19289W        W80600   0.839  22.072  14.355
19290W        W80601   8.231  16.729  14.367
19291W        W80602  40.399  24.538   2.378
19292W        W80603   8.377  12.362   1.249
19293W        W80604  10.685  32.038   1.445
19294W        W80605   7.873  36.019  14.380
19295W        W80606  23.592  44.314  12.544
19296W        W80607  19.127  25.648   3.669
19297W        W80608  36.494  31.617   0.766
19298W        W80609  15.313   2.937   5.161
19299W        W80610  32.064  16.234  13.518
19300W        W80611  37.383  27.608  14.992
19301W        W80612  12.687  25.474  11.121
19302W        W80613  23.213  36.916   3.723
19303W        W80614   5.229  29.639   2.745
19304W        W80615  12.724  35.406   3.693
19305W        W80616  12.832  24.175   1.385
19306W        W80617  41.016  33.889  13.970
19307W        W80618  29.661  37.577   2.391
19308W        W80619  19.771   0.379   3.663
19309W        W80620   6.244  10.311   2.745
19310W        W80621  34.057  15.803   0.877
19311W        W80622   4.306  16.229   2.888
19312W        W80623  27.532  24.560   2.691
19313W        W80624   2.331   5.358   1.344
19314W        W80625  32.925  11.277  11.409
19315W        W80626  12.212  34.939   0.252
19316W        W80627  40.351  15.106  10.409
19317W        W80628  32.141  25.204  12.361
19318W        W80629  30.515   0.779   4.324
19319W        W80630  39.046  37.364   0.422
19320W        W80631  23.555   7.731  10.966
19321W        W80632  31.977  28.568   3.165
19322W        W80633   3.305  18.630  14.882
19323W        W80634  17.270   0.809   0.450
19324W        W80635  17.114   7.349  11.079
19325W        W80636  43.782  15.768   3.217
19326W        W80637   1.345  23.203   0.739
19327W        W80638  26.553   5.731   5.770
19328W        W80639   7.877  11.808   4.814
19329W        W80640  30.114  12.634   3.160
19330W        W80641  44.899  36.900   1.796
19331W        W80642  43.915  18.224  11.995
19332W        W80643  25.070  27.942  10.967
19333W        W80644   9.737   2.318  12.083
19334W        W80645   8.221   7.285   3.225
19335W        W80646  44.338  15.785   1.330
19336W        W80647  22.041   1.351   1.883
19337W        W80648  16.607   8.873   1.885
19338W        W80649  36.418  26.138  14.500
19339W        W80650  11.674  28.006  10.555
19340W        W80651  41.392  22.094   0.456
19341W        W80652  22.107   9.282   2.811
19342W        W80653  18.209  14.095   1.869
19343W        W80654   3.717   1.783  11.537
19344W        W80655   3.330  35.525   3.362
19345W        W80656  11.711  10.194  10.461
19346W        W80657  28.930   0.304   3.203
19347W        W80658  18.786  22.667  13.848
19348W        W80659  25.533  30.977   4.265
19349W        W80660  14.294  37.924   3.692
19350W        W80661   1.847  44.944   2.289
19351W        W80662  44.926  36.070  11.526
19352W        W80663  26.056  24.655  14.902
19353W        W80664  11.187  25.494  12.486
19354W        W80665  18.227  27.024   2.315
19355W        W80666   7.334  28.568  13.362
19356W        W80667  20.207  29.927  10.627
19357W        W80668  39.858  33.089   3.808
19358W        W80669  34.105   4.780  12.850
19359W        W80670  37.488  22.548  14.508
19360W        W80671  20.160  23.992   4.147
19361W        W80672  21.554  10.754  11.455
19362W        W80673  10.163  33.994  13.826
19363W        W80674  30.942   1.877  12.557
19364W        W80675  40.537  43.779  10.990
19365W        W80676   2.452  28.477   4.232
19366W        W80677  26.206  15.284   2.278
19367W        W80678  29.018  11.632  10.644
19368W        W80679  22.515   4.754  10.524
19369W        W80680  10.731   0.276   4.606
19370W        W80681  24.160  36.418   3.843
19371W        W80682  35.499   6.727   0.829
19372W        W80683  32.063  30.521   4.312
19373W        W80684   0.378  16.752  10.436
19374W        W80685  19.721  44.813  13.343
19375W        W80686  15.733  20.141  11.070
19376W        W80687  17.697   4.298  13.416
19377W        W80688   4.209  31.485   2.744
19378W        W80689  30.158  30.647  12.453
19379W        W80690  22.710  17.086   3.152
19380W        W80691  15.768  43.944   2.245
19381W        W80692  30.586   0.881  14.444
19382W        W80693  33.419  40.388  12.979
19383W        W80694  14.273  41.441   1.898
19384W        W80695  21.138   5.274   0.838
19385W        W80696  24.614  40.328   0.389
19386W        W80697  39.326  12.307   4.668
19387W        W80698   6.297  34.392   3.854
19388W        W80699   5.926   7.736   2.395
19389W        W80700  14.268  13.319   0.840
19390W        W80701  42.478  21.568   0.915
19391W        W80702  41.842  20.143  12.571
19392W        W80703   6.296  29.521  13.415
19393W        W80704  18.191  25.122   1.232
19394W        W80705  22.606  40.526   0.330
19395W        W80706  12.627  41.503   3.283
19396W        W80707  10.166  15.223  12.911
19397W        W80708  38.998   8.232  11.889
19398W        W80709  41.901   4.927   1.315
19399W        W80710  35.592   3.926  14.441
19400W        W80711   7.409   9.733   4.742
19401W        W80712  28.552  17.149  11.969
19402W        W80713  10.734   7.838  13.809
19403W        W80714  43.781  21.105   1.439
19404W        W80715  36.929   8.896  12.391
19405W        W80716  21.570   1.786  13.827
19406W        W80717   5.243  14.645   2.719
19407W        W80718  18.106  24.110  10.462
19408W        W80719  24.658  23.138   2.851
19409W        W80720  17.566  25.469  10.955
19410W        W80721  23.015  10.867   0.849
19411W        W80722  10.337  12.169   2.694
19412W        W80723  10.299  40.049   4.218
19413W        W80724  29.477  41.384  14.890
19414W        W80725  29.478  16.766   2.193
19415W        W80726  32.576  34.445  13.468
19416W        W80727  32.908  22.118   0.361
19417W        W80728  31.931  18.248   4.128
19418W        W80729  44.424  22.215  13.397
19419W        W80730  26.005  18.098  11.528
19420W        W80731  44.501  15.648   4.123
19421W        W80732  24.141   1.800  11.998
19422W        W80733  40.306  35.007   0.444
19423W        W80734  42.833  34.554  12.844
19424W        W80735   6.790  33.438  12.907
19425W        W80736  44.926  12.675  12.346
19426W        W80737  39.827  43.387  14.900
19427W        W80738  23.167  16.215   1.296
19428W        W80739  32.521   2.259   1.340
19429W        W80740  41.898  13.712   2.829
19430W        W80741  38.399  40.527  11.885
19431W        W80742  34.438  32.920  13.396
19432W        W80743  43.274  14.595  12.400
19433W        W80744   8.880  15.668   2.220
19434W        W80745  44.308  16.207  11.549
19435W        W80746  35.576  20.715   2.739
19436W        W80747  19.554   7.898   0.753
19437W        W80748   9.173  36.382  14.428
19438W        W80749  42.313  26.044   0.283
19439W        W80750  21.698  20.654   3.829
19440W        W80751  31.498   0.911   0.367
19441W        W80752  29.085  26.046  11.943
19442W        W80753  17.250  15.203  14.910
19443W        W80754  17.238   9.697  14.286
19444W        W80755  38.419  40.395  14.017
19445W        W80756  38.349   1.363  11.612
19446W        W80757  30.159  13.833   2.692
19447W        W80758  25.965  24.140  11.889
19448W        W80759  44.972  19.748  13.346
19449W        W80760  20.239  14.826   1.827
19450W        W80761  13.247   5.259   4.815
19451W        W80762   8.726  38.521  12.076
19452W        W80763  11.261  16.736   1.786
19453W        W80764  43.355   3.397  12.393
19454W        W80765  28.008  24.065  12.036
19455W        W80766  16.313  38.978  11.458
19456W        W80767  35.943  32.451   4.329
19457W        W80768   3.873   3.796   1.419
19458W        W80769  19.109  20.578   2.680
19459W        W80770  24.135  40.804  10.960
19460W        W80771  28.040  18.599   0.252
19461W        W80772  43.343  11.258   3.203
19462W        W80773  16.580  16.607  11.937
19463W        W80774   3.222  37.465   9.966
19464W        W80775  40.970  23.625  10.983
19465W        W80776  38.327  34.505  10.525
19466W        W80777  14.159   9.185   0.766
19467W        W80778  31.026  30.495   0.268
19468W        W80779   4.241  17.279   1.407
19469W        W80780  25.120   5.210   5.136
19470W        W80781  25.121  21.758  14.001
19471W        W80782  25.002  17.582  12.548
19472W        W80783   6.768  26.145  10.546
19473W        W80784  11.855  39.395  10.487
19474W        W80785  30.980  41.452   3.677
19475W        W80786   1.430   2.343  11.991
19476W        W80787  26.584   8.293  10.417
19477W        W80788  35.470  40.863  11.449
19478W        W80789  11.738  18.749  14.874
19479W        W80790  20.754  30.075   3.234
19480W        W80791  15.753   1.288   0.956
19481W        W80792  28.496  29.572   0.787
19482W        W80793  42.975  12.782  13.900
19483W        W80794  44.317   4.912   0.310
19484W        W80795   8.383  19.678   2.209
19485W        W80796  35.374  37.369  13.868
19486W        W80797  37.875  27.684   0.342
19487W        W80798  44.353  33.402  10.507
19488W        W80799  10.726  27.626   4.714
19489W        W80800  39.909  25.552  14.947
19490W        W80801  43.355  28.541  12.948
19491W        W80802  14.620  32.391   1.888
19492W        W80803  17.675  12.203   3.742
19493W        W80804  41.403   9.287  14.983
19494W        W80805  38.566  39.446  10.542
19495W        W80806  32.587  35.077   1.380
19496W        W80807  43.949   3.390  14.965
19497W        W80808   4.930  22.517  10.493
19498W        W80809  29.438  14.715  13.010
19499W        W80810  30.525  12.153   1.364
19500W        W80811   1.455  14.682  14.982
19501W        W80812  14.695  27.460   1.810
19502W        W80813   7.345   3.787  14.899
19503W        W80814  29.044   1.417  13.334
19504W        W80815  11.854  20.220   4.211
19505W        W80816  12.347  12.677   2.667
19506W        W80817  38.541  23.176  14.292
19507W        W80818  28.590  38.925  12.557
19508W        W80819  29.041  44.846  14.808
19509W        W80820  23.509   4.285  13.999
19510W        W80821  16.599   2.460  11.082
19511W        W80822  14.175  15.283  14.777
19512W        W80823  20.036  26.500  14.997
19513W        W80824  11.628  29.153  12.018
19514W        W80825  26.537  31.569  11.421
19515W        W80826  32.046   9.376   0.461
19516W        W80827  11.802  34.939  14.820
19517W        W80828  12.250  21.603  14.352
19518W        W80829  12.204  15.642  10.989
19519W        W80830  27.649   4.335  13.978
19520W        W80831  39.891  43.838  14.782
19521W        W80832   3.381  28.512  13.486
19522W        W80833  40.962  40.304   5.138
19523W        W80834  40.951  29.061  10.588
19524W        W80835   4.850  19.227  10.537
19525W        W80836   7.263  35.996  10.896
19526W        W80837   5.805  24.111   2.261
19527W        W80838  13.315   2.734   4.659
19528W        W80839  13.288  43.010  10.020
19529W        W80840  39.530  15.638  14.993
19530W        W80841   2.439  36.964   4.313
19531W        W80842  19.240  20.270  11.490
19532W        W80843  35.032  33.534   1.413
19533W        W80844  10.281   7.258   3.373
19534W        W80845  21.676  41.532  14.317
19535W        W80846  10.861   7.309   0.459
19536W        W80847  26.625  16.805   4.788
19537W        W80848   9.832  41.297   3.198
19538W        W80849   9.312  23.708   4.256
19539W        W80850  32.025   1.789   1.817
19540W        W80851   1.746  27.480   3.764
19541W        W80852  18.193  40.339   0.368
19542W        W80853  43.431  31.448   1.319
19543W        W80854  15.704  25.144   3.745
19544W        W80855  18.671  30.095  12.524
19545W        W80856  25.092  26.507   4.729
19546W        W80857  44.813   4.937   0.769
19547W        W80858  29.111  24.649   2.758
19548W        W80859  14.758  13.298   4.708
19549W        W80860  15.805  15.221  13.865
19550W        W80861  24.485   6.280  10.637
19551W        W80862  27.070  31.143   9.921
19552W        W80863  38.833  12.762  10.908
19553W        W80864  36.892   6.694  14.854
19554W        W80865  42.467  22.219   2.805
19555W        W80866   5.270  11.864   1.776
19556W        W80867  24.985  37.086  11.452
19557W        W80868  44.926  34.589   1.768
19558W        W80869  16.682  12.362  11.064
19559W        W80870  17.128  14.627  11.575
19560W        W80871  36.016  40.486   2.665
19561W        W80872   4.253  17.682   5.273
19562W        W80873  31.992   4.828   5.087
19563W        W80874  33.532  14.282   4.788
19564W        W80875  20.709  33.041  12.924
19565W        W80876  26.567   4.253   1.417
19566W        W80877  33.477  42.282   3.860
19567W        W80878  14.607   9.237   3.273
19568W        W80879  22.678  30.521  11.432
19569W        W80880   2.757  40.400   4.179
19570W        W80881  41.328  43.809  11.453
19571W        W80882  43.342  28.950   0.873
19572W        W80883  27.669  12.320   1.700
19573W        W80884  30.969  40.953   4.639
19574W        W80885  16.109  25.072  14.318
19575W        W80886  44.856  30.463   3.287
19576W        W80887  22.013  15.756   2.762
19577W        W80888  20.556  15.760   0.869
19578W        W80889  11.827  39.483   2.765
19579W        W80890   5.203  24.553   0.821
19580W        W80891  24.212  38.522  12.419
19581W        W80892  25.167  22.507  11.563
19582W        W80893  29.533   3.278  10.006
19583W        W80894  22.216  18.618  12.449
19584W        W80895  27.021   1.958  13.384
19585W        W80896   6.332   7.823   2.367
19586W        W80897   4.402  12.719   3.156
19587W        W80898  17.213  42.431  12.909
19588W        W80899  11.797  10.765  13.012
19589W        W80900  26.479  10.708   0.884
19590W        W80901  19.180  14.153   1.790
19591W        W80902  39.328   9.240   1.734
19592W        W80903  26.594  37.446   0.482
19593W        W80904  41.860  41.940  14.343
19594W        W80905  26.623   1.372   3.324
19595W        W80906   0.858  27.687   0.858
19596W        W80907   2.885  19.244  12.069
19597W        W80908   0.757  32.957   2.682
19598W        W80909  38.903  26.651  12.874
19599W        W80910  31.997   8.896  11.421
19600W        W80911   8.291  36.034   0.856
19601W        W80912  10.774   9.258  14.444
19602W        W80913  31.014  12.229  11.571
19603W        W80914  44.369   1.754   2.390
19604W        W80915  37.486  34.421  10.637
19605W        W80916  31.587  33.926   0.375
19606W        W80917   2.338  15.241  12.925
19607W        W80918  22.026  43.439  11.445
19608W        W80919   0.949  15.670   5.246
19609W        W80920  41.309  20.054   0.737
19610W        W80921   2.808  20.252  13.339
19611W        W80922  29.929  12.699  12.992
19612W        W80923  15.750  36.955  12.840
19613W        W80924  33.574  33.951   5.244
19614W        W80925  24.603  15.218  12.469
19615W        W80926  26.522   7.892  13.399
19616W        W80927  15.135   7.903   2.697
19617W        W80928  20.648  42.805  11.075
19618W        W80929  41.966  17.718   2.215
19619W        W80930  31.420  22.525   4.719
19620W        W80931   1.382  18.703  13.798
19621W        W80932  20.688  26.473  13.310
19622W        W80933  40.037   5.209  12.877
19623W        W80934  15.610  20.701  10.963
19624W        W80935  29.009  11.193  10.529
19625W        W80936  19.150  22.685   0.754
19626W        W80937  22.115  10.293  11.125
19627W        W80938   8.288  39.000   2.246
19628W        W80939   2.828  32.102   2.364
19629W        W80940  39.919  29.030  11.994
19630W        W80941  36.568  34.895   4.673
19631W        W80942  32.923  34.882  12.533
19632W        W80943  29.162  20.149   3.223
19633W        W80944  42.834  40.359  14.909
19634W        W80945  28.488  40.487  14.507
19635W        W80946  38.374  11.245   2.818
19636W        W80947  11.157  33.121   3.654
19637W        W80948  33.022  41.999   4.268
19638W        W80949  35.996  13.247  14.305
19639W        W80950   7.725   1.315   1.796
19640W        W80951  20.523  22.574   3.319
19641W        W80952   0.308  36.989   1.430
19642W        W80953   9.377  19.640   4.195
19643W        W80954   4.207  20.543  10.612
19644W        W80955  19.564   2.806  11.870
19645W        W80956  16.267  32.994   1.327
19646W        W80957  14.175  42.028  13.801
19647W        W80958  30.553  39.845  11.485
19648W        W80959  39.901   7.669  10.955
19649W        W80960  11.629  41.476   0.823
19650W        W80961  22.529  44.995   4.132
19651W        W80962  10.282   1.470   3.775
19652W        W80963  18.771   6.414   4.217
19653W        W80964  33.617  29.470   4.254
19654W        W80965  30.576   6.310  13.486
19655W        W80966  18.662  12.857  13.389
19656W        W80967  22.703  18.181   0.738
19657W        W80968  11.269  29.444   1.852
19658W        W80969   5.734  28.951   1.391
19659W        W80970  38.391  33.427  11.884
19660W        W80971  31.550  30.506   4.807
19661W        W80972  29.452   1.930  11.071
19662W        W80973  20.597   4.343   0.777
19663W        W80974   0.256  25.992   0.876
19664W        W80975  21.514  38.071  10.486
19665W        W80976  34.552  32.541  11.395
19666W        W80977  36.050  11.659  13.892
19667W        W80978  31.923  25.211   4.244
19668W        W80979  25.123  24.165  12.832
19669W        W80980  22.205  10.867  11.003
19670W        W80981  24.557  28.172  10.609
19671W        W80982   3.917  37.480  13.966
19672W        W80983  23.012  16.226   0.728
19673W        W80984   2.769   9.300  13.918
19674W        W80985  39.434  11.305  11.582
19675W        W80986  12.211   8.901  13.792
19676W        W80987  15.190   4.358   3.737
19677W        W80988  14.671   4.903  11.382
19678W        W80989  14.731  30.011   0.793
19679W        W80990  17.142  35.370  13.402
19680W        W80991  21.727  35.425  14.905
19681W        W80992  34.937  24.120   2.888
19682W        W80993  30.530  44.810   1.313
19683W        W80994  36.498  39.915  11.912
19684W        W80995  13.144  37.369  10.127
19685W        W80996   5.771  21.610   4.656
19686W        W80997   8.294  32.081   4.786
19687W        W80998   9.682   5.415   4.164
19688W        W80999  18.545   1.269  10.419
19689W        W81000   7.346  44.981  10.544
19690W        W81001  12.216  31.056  14.279
19691W        W81002  28.041  14.799   1.366
19692W        W81003  30.589  36.440  14.300
19693W        W81004  29.426   9.869  13.966
19694W        W81005  32.443  33.563  11.879
19695W        W81006  13.759  38.490  12.380
19696W        W81007  36.041   0.773   2.799
19697W        W81008  31.026  15.750  10.114
19698W        W81009  36.378  26.181   1.392
19699W        W81010  40.806  26.007   2.386
19700W        W81011  23.573  38.478   5.142
19701W        W81012   4.231  40.399  12.995
19702W        W81013   4.878  10.202  10.022
19703W        W81014  26.507  25.176  13.388
19704W        W81015  42.976  41.010  14.979
19705W        W81016  13.236  18.785  14.861
19706W        W81017  31.917  15.236   4.257
19707W        W81018   3.418   2.738   1.384
19708W        W81019  21.147  10.298   0.878
19709W        W81020  32.069  14.651   3.154
19710W        W81021   6.798  25.011   3.697
19711W        W81022  19.567  15.224  14.029
19712W        W81023  23.603   1.869  11.871
19713W        W81024  17.256   1.779  10.564
19714W        W81025  40.814  23.083   1.390
19715W        W81026  14.608   0.474   3.225
19716W        W81027  22.614  33.131   2.788
19717W        W81028   4.849  18.693   2.817
19718W        W81029  11.727  21.560  13.510
19719W        W81030  14.764  19.757   4.239
19720W        W81031  34.920  44.411   1.782
19721W        W81032  27.665  12.836  12.418
19722W        W81033  33.475  23.152   0.376
19723W        W81034   4.801  35.570  14.484
19724W        W81035  38.417  31.113  12.525
19725W        W81036  44.875  28.041   4.791
19726W        W81037  10.645  14.656  14.481
19727W        W81038   8.801  24.051  13.415
19728W        W81039  42.428  19.753  10.508
19729W        W81040   3.318  20.562  11.393
19730W        W81041   0.912  12.135   2.249
19731W        W81042  42.326  23.734  13.332
19732W        W81043  30.498  14.290   2.769
19733W        W81044  43.441  35.415   2.401
19734W        W81045  39.998  41.388   1.408
19735W        W81046  43.348  18.278   1.276
19736W        W81047  36.446  22.572   0.959
19737W        W81048  17.068  41.824   2.874
19738W        W81049  34.489  33.398   4.613
19739W        W81050  15.599  23.006   2.401
19740W        W81051   8.656  14.216  10.976
19741W        W81052  29.977  32.060   2.744
19742W        W81053  11.855  12.195  14.979
19743W        W81054  26.138  19.153   4.631
19744W        W81055  16.265  20.028  12.893
19745W        W81056  31.531  38.893  12.376
19746W        W81057  15.765  41.797  14.420
19747W        W81058  40.393  17.691  12.896
19748W        W81059  10.367   1.376   0.866
19749W        W81060   1.793   2.315   3.207
19750W        W81061   4.425  36.039   3.814
19751W        W81062  39.531  13.843   4.212
19752W        W81063  21.118  30.586  10.522
19753W        W81064  17.589   9.752  12.826
19754W        W81065  20.525   4.209  13.396
19755W        W81066   9.708  15.155  11.923
19756W        W81067   1.304  11.273   3.712
19757W        W81068  24.520   1.733   4.274
19758W        W81069   7.334  39.920  10.556
19759W        W81070  19.712   5.797   0.474
19760W        W81071  34.460  32.397   3.164
19761W        W81072  32.599   9.344   1.438
19762W        W81073   4.801  41.026   4.138
19763W        W81074  29.958   6.870   5.167
19764W        W81075  17.561  26.658   3.767
19765W        W81076   9.761  15.299   3.837
19766W        W81077  29.065  10.198  12.094
19767W        W81078   0.754  39.902  11.095
19768W        W81079  18.780  25.700   4.774
19769W        W81080  27.525  26.603   0.362
19770W        W81081   1.952  33.960   0.820
19771W        W81082  37.571  25.195  13.809
19772W        W81083  37.079   4.303   2.700
19773W        W81084   0.864  12.350  10.969
19774W        W81085  15.668  33.877   0.482
19775W        W81086  25.067  16.140  12.358
19776W        W81087  19.103  28.557   0.921
19777W        W81088  27.640  25.470   4.257
19778W        W81089  42.816  44.912  10.505
19779W        W81090  23.650  33.037  12.994
19780W        W81091   0.328  29.138   1.745
19781W        W81092  33.529  38.998  14.481
19782W        W81093  31.528  18.222  11.549
19783W        W81094  36.414  33.899   0.408
19784W        W81095  13.141   8.304  12.872
19785W        W81096  32.946  29.114  10.617
19786W        W81097  33.501  22.612  12.093
19787W        W81098  41.523  13.321   3.302
19788W        W81099  32.106  31.096   2.809
19789W        W81100   5.346  25.208  12.083
19790W        W81101  26.146  43.380   2.890
19791W        W81102   8.191  30.079  10.597
19792W        W81103  44.364  39.961  12.360
19793W        W81104   8.281  26.986  11.080
19794W        W81105  10.253  31.443   4.296
19795W        W81106  38.466   4.206   1.387
19796W        W81107  18.572  27.183   1.729
19797W        W81108   6.337  21.104   1.439
19798W        W81109  25.100  20.571   3.787
19799W        W81110  44.755  31.498  14.974
19800W        W81111  37.945  32.633  13.920
19801W        W81112  13.326   2.852   1.258
19802W        W81113  35.553  10.296   3.373
19803W        W81114  35.857  40.391   0.338
19804W        W81115  34.546   0.397  14.431
19805W        W81116  35.887  15.784  12.037
19806W        W81117  27.661   6.782  12.421
19807W        W81118  39.482   9.340   2.681
19808W        W81119   4.734  12.852   1.839
19809W        W81120  43.363  10.803   2.670
19810W        W81121   9.796   0.771  12.081
19811W        W81122  39.513  19.595   3.804
19812W        W81123  39.863   6.835  14.399
19813W        W81124  24.082  16.122   1.826
19814W        W81125  19.667   0.337   1.331
19815W        W81126  31.137  41.931   4.637
19816W        W81127  33.489  41.954   0.916
19817W        W81128  24.121  43.458   2.775
19818W        W81129  37.938  12.205   2.218
19819W        W81130  43.843  23.103  11.589
19820W        W81131   6.231   0.875   5.186
19821W        W81132  15.315  10.760  13.849
19822W        W81133  29.161  27.018   0.435
19823W        W81134  28.130  10.254   4.770
19824W        W81135  26.137  42.793  12.348
19825W        W81136  26.564  21.019   2.715
19826W        W81137   0.293  24.496   3.214
19827W        W81138  41.930  35.500   0.323
19828W        W81139  39.488  42.426  10.970
19829W        W81140  43.418  14.157  13.324
19830W        W81141  23.656  22.671  13.807
19831W        W81142  33.418  37.969  12.465
19832W        W81143  40.937   0.802   3.259
19833W        W81144  10.308  14.780  12.022
19834W        W81145   3.739   1.442   2.223
19835W        W81146  36.566  19.061  11.025
19836W        W81147  31.089  37.466   2.299
19837W        W81148  42.423  20.148   2.299
19838W        W81149   0.747  38.062   3.862
19839W        W81150  23.608  18.246  11.525
19840W        W81151  17.660  33.397  12.570
19841W        W81152  10.865   0.824   3.651
19842W        W81153  29.579  39.964   2.416
19843W        W81154  39.809  41.327   2.344
19844W        W81155  12.789  25.695   3.272
19845W        W81156   8.241  24.023  13.043
19846W        W81157  18.063  17.734  12.981
19847W        W81158  30.590  10.638   1.296
19848W        W81159   3.845   5.352   4.319
19849W        W81160  18.172  42.015   0.400
19850W        W81161  31.983  36.999  12.825
19851W        W81162  44.482  23.721  14.486
19852W        W81163  43.803  13.647   2.239
19853W        W81164  41.456  27.109  12.367
19854W        W81165   5.689  42.881  11.063
19855W        W81166  36.383  10.656   3.345
19856W        W81167   6.191  20.160  10.967
19857W        W81168  27.145  14.132   1.436
19858W        W81169  27.968   0.345   0.858
19859W        W81170   1.370   0.973  12.443
19860W        W81171  13.288  30.581   0.816
19861W        W81172   1.356  36.962   0.341
19862W        W81173   5.770  28.976  13.926
19863W        W81174  23.549  20.111   5.233
19864W        W81175  18.764  12.305  12.994
19865W        W81176  19.144   3.270  14.379
19866W        W81177  39.554  21.114  11.591
19867W        W81178  13.703  21.177  10.914
19868W        W81179  26.494   5.360  13.425
19869W        W81180  28.636  29.518  10.941
19870W        W81181  31.982  16.199   4.163
19871W        W81182  40.376  29.920  10.123
19872W        W81183  13.130   5.223   2.337
19873W        W81184  36.521  33.987   3.343
19874W        W81185  21.519  32.574  11.040
19875W        W81186  14.683   8.215  12.371
19876W        W81187  29.640  43.951   2.342
19877W        W81188  22.062  20.768   2.775
19878W        W81189  15.204   7.883   3.834
19879W        W81190  38.855  20.759   2.688
19880W        W81191   9.645  25.113  14.510
19881W        W81192  29.664  28.981   3.715
19882W        W81193  42.921  43.482   3.214
19883W        W81194  17.125  27.530  14.436
19884W        W81195  15.174  10.198  11.478
19885W        W81196  29.533   2.407  10.566
19886W        W81197  28.487  18.258   3.306
19887W        W81198  35.084  22.653   3.786
19888W        W81199  27.119  32.442   3.180
19889W        W81200  41.825   8.404  12.086
19890W        W81201   0.868   8.308   3.259
19891W        W81202  20.103   4.387  12.997
19892W        W81203  35.941  31.568  14.401
19893W        W81204  40.977  23.696   1.925
19894W        W81205  10.712   1.289   0.373
19895W        W81206  32.480  39.039  13.818
19896W        W81207   8.287  29.563  11.445
19897W        W81208  32.537  34.000   4.330
19898W        W81209  20.585  44.377   0.728
19899W        W81210  38.990   5.693   3.236
19900W        W81211   8.205  10.764  10.968
19901W        W81212  40.882  19.238   3.685
19902W        W81213  24.049   8.334  12.480
19903W        W81214  10.139   1.878  11.470
19904W        W81215  13.308  42.936  12.963
19905W        W81216  24.224  16.644   0.374
19906W        W81217  44.453  28.072   0.454
19907W        W81218  13.275   9.332   2.899
19908W        W81219  36.051  13.261   0.257
19909W        W81220   0.371  38.900  10.441
19910W        W81221   4.906   9.208  13.852
19911W        W81222   4.289  14.297  12.380
19912W        W81223  33.512  18.576  11.608
19913W        W81224  34.587   8.682   2.843
19914W        W81225   7.706  12.834   1.810
19915W        W81226  19.195  18.163   0.828
19916W        W81227  36.593  12.840  14.911
19917W        W81228   9.885   5.690   4.282
19918W        W81229   5.226   5.761   1.211
19919W        W81230  33.455  28.514   0.741
19920W        W81231   4.822  15.687  10.982
19921W        W81232  29.094  36.505   3.304
19922W        W81233   4.422  28.117   3.247
19923W        W81234   8.168  18.648   2.317
19924W        W81235   0.815  24.030  12.865
19925W        W81236  34.958  15.215  11.375
19926W        W81237  11.219  39.535  11.464
19927W        W81238  12.802  35.390  11.419
19928W        W81239   3.890  14.743  10.591
19929W        W81240  13.297   0.290  12.349
19930W        W81241   2.888  41.856  14.797
19931W        W81242  44.435  29.601  12.539
19932W        W81243  17.697  31.104   4.712
19933W        W81244   3.224  23.028  11.049
19934W        W81245  10.637  25.536   1.902
19935W        W81246  37.042  17.239   1.887
19936W        W81247  24.135  34.554  11.580
19937W        W81248  24.501  11.280  12.927
19938W        W81249  36.456  18.274  10.890
19939W        W81250  44.000  42.854  10.919
19940W        W81251  42.415  25.635  11.925
19941W        W81252   7.863  29.175   4.323
19942W        W81253  33.407  32.433  14.917
19943W        W81254  26.117  25.121  10.642
19944W        W81255  26.581  20.531   2.869
19945W        W81256  40.498   1.746   0.825
19946W        W81257  34.911  22.251  13.939
19947W        W81258  10.662   8.898  14.355
19948W        W81259   4.268  19.206   3.378
19949W        W81260  11.743  41.925  12.926
19950W        W81261  24.220  10.257   4.314
19951W        W81262   3.231  29.587  13.394
19952W        W81263   7.175  32.097  11.053
19953W        W81264  39.011  20.254   3.843
19954W        W81265  25.175  10.147   1.745
19955W        W81266   7.807   8.858   3.247
19956W        W81267   3.829   7.286  10.528
19957W        W81268  10.870   3.873  14.004
19958W        W81269  21.563  11.789  12.072
19959W        W81270  33.548  11.158  10.614
19960W        W81271   3.883  44.895  14.383
19961W        W81272  42.522  19.208  11.500
19962W        W81273  40.438  12.746   2.846
19963W        W81274  10.384  35.901  12.995
19964W        W81275  31.455   8.696   2.181
19965W        W81276  44.801   1.261   3.672
19966W        W81277  13.324  38.470   0.332
19967W        W81278   6.903  26.024   3.683
19968W        W81279  10.350  43.874  10.926
19969W        W81280  26.094  38.542  14.925
19970W        W81281  38.032   6.334  10.031
19971W        W81282  22.069  18.051  12.917
19972W        W81283   6.256  23.712  10.450
19973W        W81284   8.180  34.969  14.909
19974W        W81285  34.406  11.673   2.776
19975W        W81286  38.842  31.561   4.721
19976W        W81287  43.802  33.953  13.407
19977W        W81288  11.834  31.623   2.219
19978W        W81289  37.432   7.409  11.874
19979W        W81290   9.852  31.603  11.485
19980W        W81291  27.683  15.776   0.891
19981W        W81292  38.934  43.445  11.432
19982W        W81293  25.663  27.633  14.445
19983W        W81294   2.249   4.206  10.501
19984W        W81295  21.540  41.037  12.357
19985W        W81296  24.031   9.646  13.544
19986W        W81297  28.436   0.749   2.838
19987W        W81298   3.786  34.968   4.172
19988W        W81299  43.987  11.215   3.267
19989W        W81300  25.514  23.593   1.925
19990W        W81301  32.621  33.596  12.464
19991W        W81302  29.655   0.947   4.614
19992W        W81303   7.756  31.923   2.356
19993W        W81304   8.259  27.095  14.442
19994W        W81305  41.043  39.541   3.162
19995W        W81306  33.024  21.197   2.358
19996W        W81307  30.530  28.050  12.057
19997W        W81308   1.353  15.313   3.260
19998W        W81309  11.718  44.008   1.449
19999W        W81310  38.532  34.587   1.729
20000W        W81311  37.384  41.330   1.318
20001W        W81312  31.467  32.584   1.778
20002W        W81313  26.171  21.175   3.726
20003W        W81314  19.748  27.508  10.428
20004W        W81315  20.630  27.150   2.386
20005W        W81316   8.700  14.200   4.327
20006W        W81317  15.821  22.209   2.187
20007W        W81318  30.157   1.476  14.373
20008W        W81319   1.258   2.769  12.469
20009W        W81320   8.761  16.143  13.059
20010W        W81321  41.371   1.360   2.293
20011W        W81322  39.935  23.628   1.887
20012W        W81323  22.092  41.969  10.474
20013W        W81324  24.989  30.657   1.764
20014W        W81325   9.301  44.277   1.225
20015W        W81326  31.062  40.811  10.425
20016W        W81327  42.359  15.749  13.392
20017W        W81328  10.149  17.284  11.049
20018W        W81329  21.153  35.429   4.296
20019W        W81330  37.052  16.259   4.770
20020W        W81331   0.484  40.823  12.830
20021W        W81332   6.327  39.920   0.844
20022W        W81333  26.664  14.305   1.777
20023W        W81334  32.619  25.578   3.821
20024W        W81335   4.870  22.227   1.866
20025W        W81336   6.424  16.567   2.800
20026W        W81337  34.949   3.793   3.152
20027W        W81338   2.863  22.121  14.505
20028W        W81339  27.999  36.514   0.388
20029W        W81340   0.860  12.684   5.171
20030W        W81341   6.292   7.289  13.331
20031W        W81342   2.429  15.190  11.869
20032W        W81343  41.498  17.219  11.409
20033W        W81344  25.096  43.424  12.881
20034W        W81345  39.407   2.738  11.005
20035W        W81346  18.074  34.534  11.493
20036W        W81347  14.160  38.469   0.445
20037W        W81348  25.070  31.533  13.999
20038W        W81349  17.202  17.286   0.247
20039W        W81350  16.220   0.250   2.267
20040W        W81351  18.193  34.502   4.296
20041W        W81352  12.658  18.562   4.277
20042W        W81353  35.527  11.757   2.318
20043W        W81354  13.729  34.377   4.689
20044W        W81355  21.623  25.193   2.255
20045W        W81356  42.525  36.082   2.218
20046W        W81357  33.555  19.674  14.502
20047W        W81358   2.816  33.971  10.504
20048W        W81359   6.678   7.403  12.564
20049W        W81360   5.423   3.418   5.106
20050W        W81361  38.939  11.341  10.001
20051W        W81362   1.261  40.000  11.552
20052W        W81363   0.755  20.077   3.370
20053W        W81364  31.002  41.416  14.960
20054W        W81365  23.580  13.235   2.263
20055W        W81366   2.424   2.848  13.952
20056W        W81367  28.549  39.968   1.886
20057W        W81368   6.801  18.649  10.055
20058W        W81369   2.273  22.073   4.279
20059W        W81370   1.448   1.947   0.947
20060W        W81371  10.336  29.573   5.175
20061W        W81372  35.027  37.052   1.852
20062W        W81373  24.197  40.490  14.850
20063W        W81374  37.979  33.895  14.366
20064W        W81375  23.111  31.079  14.358
20065W        W81376  15.254  11.858   2.847
20066W        W81377   0.282  15.697  14.857
20067W        W81378  29.607  37.413  13.519
20068W        W81379   0.931  16.730   3.782
20069W        W81380  16.301  29.449  13.426
20070W        W81381  10.138  25.038  10.135
20071W        W81382  41.823  42.812   0.850
20072W        W81383   4.906  17.114   2.695
20073W        W81384  23.049  21.090  14.763
20074W        W81385   5.228  28.001  12.437
20075W        W81386  15.245  36.960  12.477
20076W        W81387  20.120   0.771  14.304
20077W        W81388  23.501  11.283  11.948
20078W        W81389  11.176  41.007   2.752
20079W        W81390  26.651   5.311   9.926
20080W        W81391   9.705  38.881  13.365
20081W        W81392  33.461   4.810   0.919
20082W        W81393  41.300  11.801  12.011
20083W        W81394   2.837  40.455  11.028
20084W        W81395  28.544   4.407  11.910
20085W        W81396   1.359   1.297   2.695
20086W        W81397   2.910   0.285   4.723
20087W        W81398  37.966  32.990   3.346
20088W        W81399  40.514  31.513  10.581
20089W        W81400  39.453  21.550   4.808
20090W        W81401  44.789   9.748   3.245
20091W        W81402   5.838  38.364  14.335
20092W        W81403   0.370  13.732  14.878
20093W        W81404  16.693  10.822   4.180
20094W        W81405  20.538  22.539   0.848
20095W        W81406  20.236  25.185  10.023
20096W        W81407   4.372  40.362  14.344
20097W        W81408  30.058  37.573  13.489
20098W        W81409  39.904  20.216  11.937
20099W        W81410  34.555  10.841   2.679
20100W        W81411  17.787  37.879  12.434
20101W        W81412  37.947  35.008   4.765
20102W        W81413  42.402   3.736  13.429
20103W        W81414  24.998  43.289   3.814
20104W        W81415  22.692  30.942   3.861
20105W        W81416  37.059  13.341   4.332
20106W        W81417   8.187   3.749   3.681
20107W        W81418  40.507   9.840   2.407
20108W        W81419  35.400  21.731  13.825
20109W        W81420  13.637   4.315   2.901
20110W        W81421  16.782  13.250  13.057
20111W        W81422   5.825   5.385  13.435
20112W        W81423  32.574  34.097   0.483
20113W        W81424  24.541   6.425  13.054
20114W        W81425   8.212  12.292   0.285
20115W        W81426  44.887  26.047  13.524
20116W        W81427  40.030  10.149   3.641
20117W        W81428  27.168  13.815   0.449
20118W        W81429  15.094  38.335  12.898
20119W        W81430  34.936  44.431  11.983
20120W        W81431   9.300  18.057   3.720
20121W        W81432  25.532   7.872   5.207
20122W        W81433  36.094  32.928   2.668
20123W        W81434  23.622  12.272   4.792
20124W        W81435  27.687  16.264  14.926
20125W        W81436  43.317  35.510  11.957
20126W        W81437  10.792  27.658   3.822
20127W        W81438  20.095   0.397   2.678
20128W        W81439   8.750   0.753  14.000
20129W        W81440   5.792  12.175   3.204
20130W        W81441  26.001  28.140   5.143
20131W        W81442  37.849  38.450   1.235
20132W        W81443   3.319  10.722   2.401
20133W        W81444  22.549  28.143  13.919
20134W        W81445  28.485   5.395  11.973
20135W        W81446  23.026  14.736  14.942
20136W        W81447   1.859  31.512   3.841
20137W        W81448  30.524  39.993   2.769
20138W        W81449  15.266   5.327   3.373
20139W        W81450   0.400  31.897   3.856
20140W        W81451  27.570  22.655   1.854
20141W        W81452  15.662   8.740   5.315
20142W        W81453   7.761   9.252   2.885
20143W        W81454  38.529  17.066  12.395
20144W        W81455   0.802  24.716   1.360
20145W        W81456  14.154  29.572  11.520
20146W        W81457  42.404   9.887   3.164
20147W        W81458   9.260   1.833  11.450
20148W        W81459  39.510  28.064   1.707
20149W        W81460   2.413   6.782  12.824
20150W        W81461   6.678  36.546   4.276
20151W        W81462  12.184  30.487  10.528
20152W        W81463  21.144  34.555   2.403
20153W        W81464  27.144  18.196   5.171
20154W        W81465  42.389  30.625   2.284
20155W        W81466  38.871  40.351   3.265
20156W        W81467  24.542  34.028   1.287
20157W        W81468  32.461  37.495  14.327
20158W        W81469  24.094  32.529  10.919
20159W        W81470  41.361  26.551  14.015
20160W        W81471  25.706  13.618   2.895
20161W        W81472   7.222  39.490  12.008
20162W        W81473   5.778  39.017  14.355
20163W        W81474  22.169  29.664  11.471
20164W        W81475  42.353   1.312   3.361
20165W        W81476   0.307  32.526   4.774
20166W        W81477  21.034  19.174   3.778
20167W        W81478   1.422   2.324   1.725
20168W        W81479  16.264   5.905   2.702
20169W        W81480  11.214   3.713  11.988
20170W        W81481  22.686  19.108   0.483
20171W        W81482  16.219  26.987  10.997
20172W        W81483   4.425  11.756   1.819
20173W        W81484  14.300   1.407   3.671
20174W        W81485  25.986  29.136   0.968
20175W        W81486   9.872  28.988   4.652
20176W        W81487  21.183  32.995  14.344
20177W        W81488  44.317  23.191   2.192
20178W        W81489   0.326  12.199   1.892
20179W        W81490   5.219  16.191  12.086
20180W        W81491  38.870  31.403   3.735
20181W        W81492  18.139  29.953   0.736
20182W        W81493  36.587  13.675  14.852
20183W        W81494  22.702   8.167  12.400
20184W        W81495  31.538  41.033  10.947
20185W        W81496  19.764  44.278   4.813
20186W        W81497  43.516  27.574   3.382
20187W        W81498  38.864  17.108   2.371
20188W        W81499  34.566   3.827   4.803
20189W        W81500  28.572   3.436   0.440
20190W        W81501  25.623  36.388   4.336
20191W        W81502   2.821  17.689  10.931
20192W        W81503  40.352  32.910  14.446
20193W        W81504  34.008   9.284  13.448
20194W        W81505  44.464  17.669  11.575
20195W        W81506  39.540  10.255   1.223
20196W        W81507  36.091   1.816  13.912
20197W        W81508  35.397   3.459   3.637
20198W        W81509  14.666   8.245   0.757
20199W        W81510  33.581   0.487  10.565
20200W        W81511  35.502  10.234  12.835
20201W        W81512  14.299  34.613  14.280
20202W        W81513   9.698  28.997  10.948
20203W        W81514  16.306   9.679  10.598
20204W        W81515  17.158  42.878  11.464
20205W        W81516  33.014  10.725  13.952
20206W        W81517   4.420  29.529   1.320
20207W        W81518  15.718  10.829   3.290
20208W        W81519  34.898   7.692  14.804
20209W        W81520  44.324  37.416  11.876
20210W        W81521  16.233  17.145  14.353
20211W        W81522  40.501  40.939  13.380
20212W        W81523  21.521  35.400   0.758
20213W        W81524  16.309   9.779   2.209
20214W        W81525  31.444  14.721  13.907
20215W        W81526  13.821  11.868   4.781
20216W        W81527  17.589   3.942   2.871
20217W        W81528  37.941   0.889   0.455
20218W        W81529  18.287  10.231  11.444
20219W        W81530  34.604  39.968   3.656
20220W        W81531   2.940  40.961  10.956
20221W        W81532  21.675  13.610  14.346
20222W        W81533  27.999   0.468   1.933
20223W        W81534  33.999  12.313  12.953
20224W        W81535  18.057  20.615  12.474
20225W        W81536   2.376  38.972  11.445
20226W        W81537  14.803   4.943  12.981
20227W        W81538  32.953  17.137  11.412
20228W        W81539  14.258  40.461   0.955
20229W        W81540   5.234  30.086   0.868
20230W        W81541   2.785  35.517  14.399
20231W        W81542  43.477  21.664  12.899
20232W        W81543  32.092  38.404  11.091
20233W        W81544  27.179  15.654  12.417
20234W        W81545   2.764  36.566  11.402
20235W        W81546  13.839   4.700  12.427
20236W        W81547  24.117  39.024   1.307
20237W        W81548  27.971   8.256  11.379
20238W        W81549  44.377  42.467  12.351
20239W        W81550   0.408  23.068   0.363
20240W        W81551  35.541  31.499  13.939
20241W        W81552   2.364  21.553   2.903
20242W        W81553   4.333   7.745   1.769
20243W        W81554   9.354  43.373   3.695
20244W        W81555   7.221  34.968  11.993
20245W        W81556  15.748   0.931   4.626
20246W        W81557  33.613  13.341   1.436
20247W        W81558  25.187   6.834   1.407
20248W        W81559  41.005  19.697  10.576
20249W        W81560  33.588  25.037   9.991
20250W        W81561   8.800  42.372   2.325
20251W        W81562   1.417  22.714  12.545
20252W        W81563  31.148   5.375  11.066
20253W        W81564  10.685  15.279  11.520
20254W        W81565  25.121  22.650  13.314
20255W        W81566   4.406  29.537  13.440
20256W        W81567   9.706  23.209   1.814
20257W        W81568  23.608  24.993  10.640
20258W        W81569  28.459   5.897   1.763
20259W        W81570   2.913  39.831  13.344
20260W        W81571   4.415  23.054  14.785
20261W        W81572  19.545  20.161   2.321
20262W        W81573  31.951  39.419  12.485
20263W        W81574  28.008  32.073   3.857
20264W        W81575   9.837  30.911  14.498
20265W        W81576   0.970   9.835   3.855
20266W        W81577  20.241  31.992  10.592
20267W        W81578   5.869  22.224   1.320
20268W        W81579  25.139  38.353   4.202
20269W        W81580  42.467  35.093   0.847
20270W        W81581  22.106   0.973  10.497
20271W        W81582  12.728  32.628   4.114
20272W        W81583  26.096  10.717  13.854
20273W        W81584  19.169  32.068  12.029
20274W        W81585  20.192  32.566   2.769
20275W        W81586  35.010   7.682   2.755
20276W        W81587   0.965  28.063  13.906
20277W        W81588  43.900   1.393   0.396
20278W        W81589  15.280   8.201   4.121
20279W        W81590  19.659  33.602   1.899
20280W        W81591   9.298  34.535   4.820
20281W        W81592  38.006  15.579   0.910
20282W        W81593  13.349  17.126  14.461
20283W        W81594  36.359  17.593   0.784
20284W        W81595  11.200   0.305  14.311
20285W        W81596   6.382   2.243   1.727
20286W        W81597  25.187  32.106   2.822
20287W        W81598  16.569   5.792   0.754
20288W        W81599  35.059   6.335   0.955
20289W        W81600   9.186   4.428   0.780
20290W        W81601   0.833  22.153   3.808
20291W        W81602   6.206  16.807  10.975
20292W        W81603  28.183   8.326   0.858
20293W        W81604   2.884   1.377  10.955
20294W        W81605  31.446   6.232   1.351
20295W        W81606  27.121   7.783   2.194
20296W        W81607  29.969  22.680  12.841
20297W        W81608   0.259  22.615  10.955
20298W        W81609  20.536  21.580   9.470
20299W        W81610  43.459   3.287   1.827
20300W        W81611  35.937  41.363  14.512
20301W        W81612  32.086   7.394  11.960
20302W        W81613   5.272  27.510  12.085
20303W        W81614  39.419   0.986  12.506
20304W        W81615  27.459  26.187   3.841
20305W        W81616  16.274   2.322  13.543
20306W        W81617  11.698  34.877   3.167
20307W        W81618  40.875  34.415   1.332
20308W        W81619  44.315  13.820  13.440
20309W        W81620  13.795  22.639  12.506
20310W        W81621  40.894  29.623  11.011
20311W        W81622  35.511  44.981  12.973
20312W        W81623  17.212  14.248   4.286
20313W        W81624  35.090  30.945  11.571
20314W        W81625   2.371  42.884  10.523
20315W        W81626  15.808  33.945  11.021
20316W        W81627  10.777  16.588  13.546
20317W        W81628   6.337  17.790  13.818
20318W        W81629  33.119  34.391  11.007
20319W        W81630  40.450   3.746  13.521
20320W        W81631  11.290  33.113  12.843
20321W        W81632  24.636   4.419  11.504
20322W        W81633  14.333   2.918  12.895
20323W        W81634  37.547  12.202  12.828
20324W        W81635  28.548  35.449   1.934
20325W        W81636  38.824  32.021  12.355
20326W        W81637  26.577  28.539   1.826
20327W        W81638   3.795   9.822  13.525
20328W        W81639  31.606   5.868   3.859
20329W        W81640   7.360  28.671  12.381
20330W        W81641   2.426  35.901  12.440
20331W        W81642  18.106  37.564   1.361
20332W        W81643  35.447   7.889   4.332
20333W        W81644  21.512  25.562  11.544
20334W        W81645  14.658  24.128  11.046
20335W        W81646  30.962   7.690  12.068
20336W        W81647   0.334  31.460   0.943
20337W        W81648  39.340   7.882  11.605
20338W        W81649  13.346  19.578  10.632
20339W        W81650  19.095  35.877   0.302
20340W        W81651  26.087  19.725  14.493
20341W        W81652  12.778   6.914  10.453
20342W        W81653   8.668  19.210  11.055
20343W        W81654  34.448  17.703   3.693
20344W        W81655  33.534  42.971   2.715
20345W        W81656  11.177   9.862  14.504
20346W        W81657  14.713  33.923  13.532
20347W        W81658   3.380  12.671   4.625
20348W        W81659  40.053  44.888  12.043
20349W        W81660   2.344  31.545  13.520
20350W        W81661  14.698  13.616  13.863
20351W        W81662  35.979  18.788  11.076
20352W        W81663  31.591  20.719  13.370
20353W        W81664  26.147  40.465  13.992
20354W        W81665   8.689  31.905   2.252
20355W        W81666  38.873   3.226  12.459
20356W        W81667  38.052   7.814  12.967
20357W        W81668  43.017  24.491  11.893
20358W        W81669  18.109  13.762   3.765
20359W        W81670  32.903  21.524  14.504
20360W        W81671  33.052   3.289   3.665
20361W        W81672   7.904  44.422  14.859
20362W        W81673  21.152  26.096   4.671
20363W        W81674  11.343  24.029   9.968
20364W        W81675  16.098  36.916   4.737
20365W        W81676  29.041  21.188   2.898
20366W        W81677  27.107  20.711  12.956
20367W        W81678  39.953   3.834  14.965
20368W        W81679  10.164  23.510  10.480
20369W        W81680  21.263  27.602  12.002
20370W        W81681  14.699  17.255   0.409
20371W        W81682  34.958   8.711  14.390
20372W        W81683  41.923   4.418  11.595
20373W        W81684  11.632  13.327   2.718
20374W        W81685  24.673  32.888   2.196
20375W        W81686  35.387  37.888   0.833
20376W        W81687   4.214  10.243  14.477
20377W        W81688  16.736  41.472  10.423
20378W        W81689  43.387   5.349   1.816
20379W        W81690  13.344  24.586  13.365
20380W        W81691  14.175  16.138   4.728
20381W        W81692  31.434   9.643  13.019
20382W        W81693  41.346  33.582   0.457
20383W        W81694  23.618   1.275   3.191
20384W        W81695  19.751  21.539  14.492
20385W        W81696  30.134  38.467   0.785
20386W        W81697  12.188   0.424  12.953
20387W        W81698  13.115  38.862  14.277
20388W        W81699  29.642  41.319   3.815
20389W        W81700  44.785  25.004  11.025
20390W        W81701  18.599  43.884   2.662
20391W        W81702  44.456   4.293   4.602
20392W        W81703   7.781  42.948   1.243
20393W        W81704  15.591  17.163  13.465
20394W        W81705  14.722  27.561  11.465
20395W        W81706   0.469  10.283  11.104
20396W        W81707  36.972   5.897  13.836
20397W        W81708  11.816  15.214   3.756
20398W        W81709  41.333  13.193  10.935
20399W        W81710   7.290  37.426   1.710
20400W        W81711  15.601  40.356   1.293
20401W        W81712  29.433  13.804  14.821
20402W        W81713  25.209  33.946   1.726
20403W        W81714  28.516  31.444   1.714
20404W        W81715  31.980  37.836   1.300
20405W        W81716  24.587   0.433   4.606
20406W        W81717  24.015  23.128   2.861
20407W        W81718  18.114   8.351  12.067
20408W        W81719  40.834   4.313   4.831
20409W        W81720  12.254  14.780  10.558
20410W        W81721  38.908  34.989  11.415
20411W        W81722  41.464  41.802  10.628
20412W        W81723  10.864  13.748   0.271
20413W        W81724  42.025  17.100  14.445
20414W        W81725  14.794  36.896  11.062
20415W        W81726  19.235   2.249   4.187
20416W        W81727  29.452  26.138   1.312
20417W        W81728  28.030   2.300  14.395
20418W        W81729   2.402  29.111   4.222
20419W        W81730  15.774  27.072  11.087
20420W        W81731  37.485  41.326  13.986
20421W        W81732  18.197  40.346   3.816
20422W        W81733   9.713  39.903   3.777
20423W        W81734  22.240  27.109   0.244
20424W        W81735  34.970  11.666  14.987
20425W        W81736  28.161   7.405  13.331
20426W        W81737  22.221  13.787  11.988
20427W        W81738  10.249  36.858   2.738
20428W        W81739  42.910   5.370  11.389
20429W        W81740  10.378  12.679  10.585
20430W        W81741  17.776   8.889  11.030
20431W        W81742  14.738  14.224  11.602
20432W        W81743  27.631  29.475   2.263
20433W        W81744  19.758  11.828   5.194
20434W        W81745   3.369  21.623   4.137
20435W        W81746  25.554  42.337   1.730
20436W        W81747   1.790  23.197  10.914
20437W        W81748  26.169  33.623   0.759
20438W        W81749  38.409  23.142   3.211
20439W        W81750  42.844   3.736  12.879
20440W        W81751  34.484   4.758   1.445
20441W        W81752   5.706  28.016  11.123
20442W        W81753  33.054  17.207  13.802
20443W        W81754  26.627   3.357  13.467
20444W        W81755   0.909  37.985  10.155
20445W        W81756   5.221  16.195  13.319
20446W        W81757  23.506  34.086   2.256
20447W        W81758  18.754   3.325  14.940
20448W        W81759  34.907  27.006  13.037
20449W        W81760  17.100  27.167  14.477
20450W        W81761  40.825  14.207  13.447
20451W        W81762  13.836   5.918  14.930
20452W        W81763   6.922  10.158   3.366
20453W        W81764  28.639  34.068  14.815
20454W        W81765  44.905  38.486  13.966
20455W        W81766  31.990  29.480  12.517
20456W        W81767  34.956  40.451   3.785
20457W        W81768  22.651  10.842  12.423
20458W        W81769  36.019  41.494   3.822
20459W        W81770  22.236  15.727   3.748
20460W        W81771  34.007  34.050   3.826
20461W        W81772  33.465   6.393   4.194
20462W        W81773  23.598  12.170   0.471
20463W        W81774  41.515  27.490  11.451
20464W        W81775  19.598  22.698  13.498
20465W        W81776   9.670  16.095  13.381
20466W        W81777   5.367   8.234   4.257
20467W        W81778  20.726  32.575   1.803
20468W        W81779  11.661  32.606   0.768
20469W        W81780  34.079  22.507   4.161
20470W        W81781   7.381  33.420  14.342
20471W        W81782  20.640  39.929  14.448
20472W        W81783  44.347  43.508  12.968
20473W        W81784  25.585  14.784  13.520
20474W        W81785  10.284  20.719  13.457
20475W        W81786   7.171  12.160   0.889
20476W        W81787  40.982  42.340   3.829
20477W        W81788  17.253  23.088  14.436
20478W        W81789  39.042  35.450  13.951
20479W        W81790  33.380   0.353  14.994
20480W        W81791  11.212  40.827   0.810
20481W        W81792   4.815  21.251   1.923
20482W        W81793  33.438   9.684   4.604
20483W        W81794   4.221   9.727   2.270
20484W        W81795  41.320  29.573   4.799
20485W        W81796  10.284  30.567   4.209
20486W        W81797  32.404  18.558  11.872
20487W        W81798  17.211  27.669   1.830
20488W        W81799  29.938   8.316   1.215
20489W        W81800   1.244  28.550  14.489
20490W        W81801  43.012   2.940  12.366
20491W        W81802  16.192   6.199   3.672
20492W        W81803  33.116  41.345   2.780
20493W        W81804  38.994  26.676  12.053
20494W        W81805  24.074  30.079   0.925
20495W        W81806  39.018  27.986   4.129
20496W        W81807   6.684   0.776   3.700
20497W        W81808  20.253  26.076  10.994
20498W        W81809  37.530   2.314   2.354
20499W        W81810  13.289  13.834  13.524
20500W        W81811  15.256  37.343   3.275
20501W        W81812  30.962  18.083   3.330
20502W        W81813  22.202  30.476  12.350
20503W        W81814  24.496   1.762   1.304
20504W        W81815  14.624  41.867   4.121
20505W        W81816  40.347  38.075   4.244
20506W        W81817  21.063  44.348   0.739
20507W        W81818  12.201  22.508   2.885
20508W        W81819  16.696  18.653  11.923
20509W        W81820  32.396  12.127  10.508
20510W        W81821  12.737  14.240   1.325
20511W        W81822  32.012  30.040  11.036
20512W        W81823  41.314  38.971  11.536
20513W        W81824  42.866  42.814  14.430
20514W        W81825  11.719  42.376  13.895
20515W        W81826  44.815  21.261  12.075
20516W        W81827  29.076  21.037  12.020
20517W        W81828  14.677   8.366  12.032
20518W        W81829   0.863   8.307  11.551
20519W        W81830  16.678  16.758  14.915
20520W        W81831  28.486  37.445   1.722
20521W        W81832  28.934  14.725   3.814
20522W        W81833  32.404  29.640  11.865
20523W        W81834  30.544  14.672   0.964
20524W        W81835  27.162  10.188   4.794
20525W        W81836  13.109  26.193   1.317
20526W        W81837  15.590  15.781  11.515
20527W        W81838  40.461   4.384  13.423
20528W        W81839  27.172  39.017   0.734
20529W        W81840  26.524   2.296   1.880
20530W        W81841  27.182   2.461  12.524
20531W        W81842  12.266  44.320  12.986
20532W        W81843  13.350   0.878  10.480
20533W        W81844  23.144  41.444   3.687
20534W        W81845  11.297   1.872   3.222
20535W        W81846  35.867  38.022   3.861
20536W        W81847  30.030  24.705  14.407
20537W        W81848   7.666   2.813  14.471
20538W        W81849  21.529  34.474  10.623
20539W        W81850   7.801   5.748   0.926
20540W        W81851  26.982  43.829   1.218
20541W        W81852   9.762   5.832   3.317
20542W        W81853  34.877  29.046   1.211
20543W        W81854  20.565  30.909  11.859
20544W        W81855   7.319  15.153   9.993
20545W        W81856  26.174  18.677   3.321
20546W        W81857  25.608  30.091   3.364
20547W        W81858  29.054  33.102   3.827
20548W        W81859  13.755   8.357   4.204
20549W        W81860  16.575   7.237  12.490
20550W        W81861  10.306  25.161  10.940
20551W        W81862  38.332  22.160  12.014
20552W        W81863  35.974  33.586  12.553
20553W        W81864  25.527  32.098   4.705
20554W        W81865  44.437   0.841  12.954
20555W        W81866  33.596  28.180   1.275
20556W        W81867  19.708  40.366  10.953
20557W        W81868  19.201  41.932  11.942
20558W        W81869  19.281  39.469  14.292
20559W        W81870   3.267  29.454  11.376
20560W        W81871  31.509  24.202   3.303
20561W        W81872  41.999  21.640  11.491
20562W        W81873  18.726   6.704   3.346
20563W        W81874  18.565   2.794   0.845
20564W        W81875   7.899   1.838  11.085
20565W        W81876  34.061  36.860  13.796
20566W        W81877   5.378  23.537   4.799
20567W        W81878  15.294  38.982   0.951
20568W        W81879  41.925  41.031  11.539
20569W        W81880  15.811  28.516   4.320
20570W        W81881  38.822  15.611   2.302
20571W        W81882  25.170  31.110  12.464
20572W        W81883  21.564  10.140  14.332
20573W        W81884  33.382  31.946   1.760
20574W        W81885  32.578  18.176  12.073
20575W        W81886  24.530  12.823  11.946
20576W        W81887  19.697   4.772   3.644
20577W        W81888  43.873   2.282  14.845
20578W        W81889  11.724   6.347   2.876
20579W        W81890   0.331   0.755   4.811
20580W        W81891  20.580  28.670  13.506
20581W        W81892   4.243  33.879   0.815
20582W        W81893  30.017  43.845   2.748
20583W        W81894  14.791  38.395   0.283
20584W        W81895  34.053  22.532  13.950
20585W        W81896  39.881  42.906  10.586
20586W        W81897  38.374  22.528   2.304
20587W        W81898   5.817   0.959  10.421
20588W        W81899  31.511  40.445   3.717
20589W        W81900  16.628   8.681   2.870
20590W        W81901  27.502  37.576   0.793
20591W        W81902  15.776  11.256   4.225
20592W        W81903  24.076  21.573  12.825
20593W        W81904  20.178  37.930  12.435
20594W        W81905  32.586  17.198  11.376
20595W        W81906  27.129   5.826  14.771
20596W        W81907  29.969  11.261  14.487
20597W        W81908  25.487  19.741   2.300
20598W        W81909  18.226  19.054   3.704
20599W        W81910  26.532  42.360   1.917
20600W        W81911  44.494  20.660   1.747
20601W        W81912  16.299   6.383   1.883
20602W        W81913   2.804  26.690   1.923
20603W        W81914  30.126  14.294   2.347
20604W        W81915   0.487  37.434  10.148
20605W        W81916  16.709   9.316   1.284
20606W        W81917  17.165  25.980  13.501
20607W        W81918  10.777  25.197   4.636
20608W        W81919  36.549  42.923   2.332
20609W        W81920   3.429   3.431  14.337
20610W        W81921  30.081   9.853   4.793
20611W        W81922  25.643   7.696  14.022
20612W        W81923  21.210  35.989  10.908
20613W        W81924  34.024  12.280  14.349
20614W        W81925   3.904  20.689   2.832
20615W        W81926   4.907  43.017   0.325
20616W        W81927   3.844  30.131  14.334
20617W        W81928  26.028  36.393  10.519
20618W        W81929  13.808  35.451  11.558
20619W        W81930  22.606  16.787   2.339
20620W        W81931  41.453   0.456   2.226
20621W        W81932  37.528   4.936   3.791
20622W        W81933   0.389  15.717  11.935
20623W        W81934  38.470  38.414  12.994
20624W        W81935  17.770  15.591  10.601
20625W        W81936  15.589  35.493  13.882
20626W        W81937  15.256   4.815  12.492
20627W        W81938  42.839   8.752  11.415
20628W        W81939  28.440  15.781  14.435
20629W        W81940  26.952  41.937   4.692
20630W        W81941   4.800   3.445   3.763
20631W        W81942   0.326  29.468  12.854
20632W        W81943  36.885  24.480   3.296
20633W        W81944  14.286  41.956   5.241
20634W        W81945  22.167  21.664   1.250
20635W        W81946  33.923  25.530  13.470
20636W        W81947  20.260  38.436   0.871
20637W        W81948   1.794   4.783   0.318
20638W        W81949  22.105   0.912   0.934
20639W        W81950  30.507  26.621   0.358
20640W        W81951  21.111  14.621   1.918
20641W        W81952   0.491   0.494   1.799
20642W        W81953  43.455  34.029   1.897
20643W        W81954  26.096  36.413   3.683
20644W        W81955  24.577  37.406  13.818
20645W        W81956  37.868   6.725   2.210
20646W        W81957  40.969  15.700   3.709
20647W        W81958  30.111  44.843  12.496
20648W        W81959  23.669   5.710   3.321
20649W        W81960  11.161  27.564   2.203
20650W        W81961  44.435  13.706   0.384
20651W        W81962  34.534  26.621   1.912
20652W        W81963  38.884  34.083  14.507
20653W        W81964  24.524  10.666   1.763
20654W        W81965   9.359  12.272   1.819
20655W        W81966  10.359  12.850  10.111
20656W        W81967  38.403  22.246  14.861
20657W        W81968   9.292   2.911  12.371
20658W        W81969  17.740  41.911  10.528
20659W        W81970   1.263  37.405  13.341
20660W        W81971  29.066  40.522   1.720
20661W        W81972   3.838  19.745   4.629
20662W        W81973  13.813  40.373   4.752
20663W        W81974  30.658  10.653  10.905
20664W        W81975  39.937   8.275   2.875
20665W        W81976   1.246  41.510   1.757
20666W        W81977   9.813  43.288  12.070
20667W        W81978  12.173  22.033  11.443
20668W        W81979  16.114  24.592  14.841
20669W        W81980  37.357  34.120   2.302
20670W        W81981  37.559  21.185  12.859
20671W        W81982  31.109   5.844   0.250
20672W        W81983  15.320  21.066   0.452
20673W        W81984  24.666   3.305  10.611
20674W        W81985  44.288   4.909  12.384
20675W        W81986  40.493   8.723   0.918
20676W        W81987  31.041   2.959  13.895
20677W        W81988  24.126  27.963  11.078
20678W        W81989  44.369  20.624  13.954
20679W        W81990  14.691   5.411  10.564
20680W        W81991  37.462  12.778   2.317
20681W        W81992   6.328  17.747  10.088
20682W        W81993  15.606  15.107   5.790
20683W        W81994  42.802  40.839  13.348
20684W        W81995  13.789  25.589  13.338
20685W        W81996  18.670  28.984  13.330
20686W        W81997   9.657  18.716  10.099
20687W        W81998  28.638  40.484  10.953
20688W        W81999  35.570  40.503  12.945
20689W        W82000  27.015  43.887   0.421
20690W        W82001  31.591   0.361   1.852
20691W        W82002   3.717  24.135   0.284
20692W        W82003   2.768  32.904  12.031
20693W        W82004  17.297  14.334  11.035
20694W        W82005   2.362  34.384   4.148
20695W        W82006  19.091  14.240  12.847
20696W        W82007  16.233  30.942  11.552
20697W        W82008  34.389  29.008  12.401
20698W        W82009  24.999   4.366  10.968
20699W        W82010   1.783  25.614  11.106
20700W        W82011  14.726  13.138   9.997
20701W        W82012  24.624  41.040  14.898
20702W        W82013  36.577  16.603  11.119
20703W        W82014   6.244  38.484  14.306
20704W        W82015  14.136  41.435   0.406
20705W        W82016  35.364  19.704  14.881
20706W        W82017   2.319  16.797  10.608
20707W        W82018  27.976  40.850   3.719
20708W        W82019  33.421  37.567   1.724
20709W        W82020  41.389  27.981  14.944
20710W        W82021  36.002  11.134  10.631
20711W        W82022   1.455  22.516   3.734
20712W        W82023  24.161   2.729   4.600
20713W        W82024  33.952  23.718  12.567
20714W        W82025  20.126  21.606  12.905
20715W        W82026  16.794  11.830  13.439
20716W        W82027  38.067  33.951  11.060
20717W        W82028  31.620  41.500   3.714
20718W        W82029  25.488  28.466   2.806
20719W        W82030  20.625  36.561   9.602
20720W        W82031  21.192   5.364   1.754
20721W        W82032  12.128   2.842  13.436
20722W        W82033  14.689  25.657   3.213
20723W        W82034   7.857  35.022   0.733
20724W        W82035  19.565  23.045   4.224
20725W        W82036   0.848  25.514  14.806
20726W        W82037   3.406   0.938   0.428
20727W        W82038   5.819   5.690   4.699
20728W        W82039  30.124  13.748  11.890
20729W        W82040  26.662  11.142  12.081
20730W        W82041   2.276  41.845  10.492
20731W        W82042  39.399   7.703  11.862
20732W        W82043  22.635  27.980  10.424
20733W        W82044  33.968   2.865  14.322
20734W        W82045   2.279  19.224  14.792
20735W        W82046  36.435   2.389  12.918
20736W        W82047  44.359  43.849  11.535
20737W        W82048  43.418  22.594   1.888
20738W        W82049  34.042  34.021   1.264
20739W        W82050  11.632  27.063  11.915
20740W        W82051  33.097   3.900   2.741
20741W        W82052  13.295   3.372  13.867
20742W        W82053  29.963  28.635   2.358
20743W        W82054  17.083  33.443   1.892
20744W        W82055  27.473  19.115  14.798
20745W        W82056  39.048  35.914   3.839
20746W        W82057   8.252   7.327  12.381
20747W        W82058  28.973   1.293  10.943
20748W        W82059  12.778  36.035   3.739
20749W        W82060  37.431  31.896  12.969
20750W        W82061  39.388  24.717  14.489
20751W        W82062  15.754  29.037   2.823
20752W        W82063  41.001  13.639   3.809
20753W        W82064  28.671  21.103  10.489
20754W        W82065   2.311  43.817  12.915
20755W        W82066  26.003  19.236   3.185
20756W        W82067  42.020   2.843   3.347
20757W        W82068  42.847  42.403  13.442
20758W        W82069  13.267  22.073  10.423
20759W        W82070  42.511   8.889  12.395
20760W        W82071   4.728  29.594   3.735
20761W        W82072   9.177  24.064   0.819
20762W        W82073   2.818  41.363  13.522
20763W        W82074  19.275   1.312   0.477
20764W        W82075  35.600  12.225  13.999
20765W        W82076  18.265  11.625  11.564
20766W        W82077  15.597  25.697  12.904
20767W        W82078  11.747  20.689   2.274
20768W        W82079  16.204  29.160  11.400
20769W        W82080   0.894  43.814   0.877
20770W        W82081   1.773  12.643   2.729
20771W        W82082  35.889  19.071   2.198
20772W        W82083  35.498  27.100   3.636
20773W        W82084  12.719   2.411   1.777
20774W        W82085   7.384  23.625  11.901
20775W        W82086  18.101  30.447  10.596
20776W        W82087   3.404   6.913   1.806
20777W        W82088  20.662  40.016   0.255
20778W        W82089  21.206  41.433   1.450
20779W        W82090  21.171  39.315   0.738
20780W        W82091  18.282  11.735   4.772
20781W        W82092  33.068   9.269  14.978
20782W        W82093  23.133   7.805  10.577
20783W        W82094  12.243  15.800   2.390
20784W        W82095   0.763  20.065  13.031
20785W        W82096  16.585  44.497  12.094
20786W        W82097  32.488  16.797   4.211
20787W        W82098  17.579  27.458  13.902
20788W        W82099  23.682  11.314   2.284
20789W        W82100  38.382  37.582   1.724
20790W        W82101   8.208  15.260  14.484
20791W        W82102  24.101  18.600  13.411
20792W        W82103   9.299  34.981  14.374
20793W        W82104   0.472  15.260  13.479
20794W        W82105  37.541  42.936   3.352
20795W        W82106  41.427  28.448   4.756
20796W        W82107   1.762  31.548  10.423
20797W        W82108  20.656  16.286  14.829
20798W        W82109  15.657   7.284   1.737
20799W        W82110  33.576  15.324   2.678
20800W        W82111  36.448  40.886   0.265
20801W        W82112  43.498  36.085  12.072
20802W        W82113  31.504  13.350   0.928
20803W        W82114  15.186  37.518   2.236
20804W        W82115   3.411  38.336   3.810
20805W        W82116  10.773  14.114  13.933
20806W        W82117  26.188  22.028   3.312
20807W        W82118  33.901  29.104  13.475
20808W        W82119   6.348   4.826   4.178
20809W        W82120  24.231  29.431   2.724
20810W        W82121   2.270  13.269  11.572
20811W        W82122  21.691  19.255  13.911
20812W        W82123  35.406  13.258  13.858
20813W        W82124  12.709   4.841  14.375
20814W        W82125  34.980  31.928  10.519
20815W        W82126  12.822  10.856   0.343
20816W        W82127  36.577  14.610   0.743
20817W        W82128  12.352  21.589   4.607
20818W        W82129  30.559  15.269  13.865
20819W        W82130  24.676  41.503  11.597
20820W        W82131  44.474  43.410   4.750
20821W        W82132  13.845  23.678  14.482
20822W        W82133   2.387   7.907   3.671
20823W        W82134  27.090   9.226   9.612
20824W        W82135  11.746  18.733   4.243
20825W        W82136  27.006  28.448   2.379
20826W        W82137  28.162  15.708   1.779
20827W        W82138  17.294   4.315   1.782
20828W        W82139  23.554   5.688   1.243
20829W        W82140  28.647  28.557   0.244
20830W        W82141  21.697  44.414  14.860
20831W        W82142  32.454   1.333   0.809
20832W        W82143  29.582  16.569   3.265
20833W        W82144  18.580  29.657   2.235
20834W        W82145  20.206  42.429  12.515
20835W        W82146   9.789   7.356  14.963
20836W        W82147  32.508  12.264   3.774
20837W        W82148   2.277  14.726  13.412
20838W        W82149  41.344  36.055   0.411
20839W        W82150  14.717  14.686  11.579
20840W        W82151  27.553  35.460   4.618
20841W        W82152  43.893  31.110   4.297
20842W        W82153  15.203  36.423   2.801
20843W        W82154   0.252   7.905  13.965
20844W        W82155  19.149  22.554  13.317
20845W        W82156   3.300  11.705  13.435
20846W        W82157  19.228  40.803  13.507
20847W        W82158   2.285  20.181   4.304
20848W        W82159  11.360   1.241  11.870
20849W        W82160  42.838   6.778   0.477
20850W        W82161  23.013  40.506  13.538
20851W        W82162  40.505  25.576  12.350
20852W        W82163   2.808  17.638  11.933
20853W        W82164   6.870  30.007  14.790
20854W        W82165  17.199   2.933   0.449
20855W        W82166  14.106   8.285  14.421
20856W        W82167  40.363  22.534  10.082
20857W        W82168   2.260  33.539  12.578
20858W        W82169   5.217  14.813   1.882
20859W        W82170   5.700  37.034   3.814
20860W        W82171  35.074  32.969  13.523
20861W        W82172  22.220  10.671   3.764
20862W        W82173  22.638  24.095  12.421
20863W        W82174  10.802  16.725   0.430
20864W        W82175   9.876  42.926  14.796
20865W        W82176  11.168  34.019   1.426
20866W        W82177  12.626  28.467  12.977
20867W        W82178  18.208  42.341   3.697
20868W        W82179  43.325  10.167  14.495
20869W        W82180  16.217   3.751  12.431
20870W        W82181  42.393  40.497   4.318
20871W        W82182  18.548  28.546   1.259
20872W        W82183  11.629  44.967  13.878
20873W        W82184  18.136  13.721   0.288
20874W        W82185   4.743  27.460  11.573
20875W        W82186  38.926  32.579  11.891
20876W        W82187  21.627  16.198  11.511
20877W        W82188  24.636  12.655   1.852
20878W        W82189   8.842  41.524  11.417
20879W        W82190  42.509   1.392  11.590
20880W        W82191  21.635  38.565  14.927
20881W        W82192  16.284  34.926   1.808
20882W        W82193  24.717  27.685   4.663
20883W        W82194   0.433   0.942  13.326
20884W        W82195   3.804  20.743  12.975
20885W        W82196  23.986  31.586  11.892
20886W        W82197   6.393  22.037  10.923
20887W        W82198  25.117   8.288  13.031
20888W        W82199   6.280  22.211   1.811
20889W        W82200  17.162   4.924   0.478
20890W        W82201  17.307  13.834  14.010
20891W        W82202   2.958  30.063  11.096
20892W        W82203  22.670  10.778  13.794
20893W        W82204   0.835  44.318  13.984
20894W        W82205  24.630  19.665   3.228
20895W        W82206  25.651   3.316  10.570
20896W        W82207  18.052  32.938   2.341
20897W        W82208  25.616  19.739  11.436
20898W        W82209  12.287   5.215   1.926
20899W        W82210  34.515   4.280   2.258
20900W        W82211  30.568  39.446  12.923
20901W        W82212  43.923  17.172   0.394
20902W        W82213  26.691  19.057  10.537
20903W        W82214   3.823  21.149   1.312
20904W        W82215  13.131   9.363  14.289
20905W        W82216  18.734  21.617   3.842
20906W        W82217  22.246  35.587   2.390
20907W        W82218  24.122  44.378   1.265
20908W        W82219  27.138  41.041   0.880
20909W        W82220  10.146   6.827   4.171
20910W        W82221  15.082  26.013   1.316
20911W        W82222  32.128   3.910   5.208
20912W        W82223  16.319  31.906   1.266
20913W        W82224  42.494  42.817  11.050
20914W        W82225  18.292  10.795  13.317
20915W        W82226  26.626  43.501   2.360
20916W        W82227   0.783  18.176  13.059
20917W        W82228  39.318  38.525  11.869
20918W        W82229  32.088  23.054  11.462
20919W        W82230   7.351   2.295   0.332
20920W        W82231  37.866  16.294  10.448
20921W        W82232  37.366  36.038   3.717
20922W        W82233   4.888  28.558   1.806
20923W        W82234  39.006  37.847   0.757
20924W        W82235  39.986  44.834   1.859
20925W        W82236  44.374  26.963   2.213
20926W        W82237  29.990  32.423   3.743
20927W        W82238  29.026  23.077   0.434
20928W        W82239  19.583  28.493  14.770
20929W        W82240   4.351  29.059  12.511
20930W        W82241   8.740  15.147   3.278
20931W        W82242  22.654  26.061  13.471
20932W        W82243  44.332  34.550   2.340
20933W        W82244  27.166   2.951  12.020
20934W        W82245  32.016  39.045   0.374
20935W        W82246  30.570  28.120  13.903
20936W        W82247   8.327  31.119  13.819
20937W        W82248  43.338  15.589  11.922
20938W        W82249  14.299  25.021  14.012
20939W        W82250  24.048   4.397   4.801
20940W        W82251  11.295  31.014   4.214
20941W        W82252  14.169  43.301   0.965
20942W        W82253  34.528  27.147   1.311
20943W        W82254   7.829  12.202  11.015
20944W        W82255  20.610  16.582   4.599
20945W        W82256  20.610  36.377  13.886
20946W        W82257  14.608  14.629   4.774
20947W        W82258   3.800  24.492  11.121
20948W        W82259  33.540  35.358  12.853
20949W        W82260  14.318  25.978   0.356
20950W        W82261   0.484  35.400   3.239
20951W        W82262  18.596  21.511   4.126
20952W        W82263   0.326  34.484  13.899
20953W        W82264  30.650  20.228   4.339
20954W        W82265  32.033   1.951   4.252
20955W        W82266  44.443  12.141   3.803
20956W        W82267  21.148   5.319   1.383
20957W        W82268  17.083  24.566  13.544
20958W        W82269  28.600  37.402   0.423
20959W        W82270  20.215  29.472  11.899
20960W        W82271   9.237  19.766   1.448
20961W        W82272  15.232  20.096  11.054
20962W        W82273   8.185   8.771  10.462
20963W        W82274  12.848   0.482   3.284
20964W        W82275   5.752  19.727  14.333
20965W        W82276   9.766  16.636  12.910
20966W        W82277  12.687  35.934   3.319
20967W        W82278  33.581  29.940  11.988
20968W        W82279  23.617  39.371  12.355
20969W        W82280   7.227  31.502   0.387
20970W        W82281  44.924   0.908  14.928
20971W        W82282  42.849  29.150   1.778
20972W        W82283  17.787  15.809   1.733
20973W        W82284  23.103  36.551   3.715
20974W        W82285  35.515   2.725   2.691
20975W        W82286  33.447   2.369  10.920
20976W        W82287  14.171  25.687  12.837
20977W        W82288  15.675  41.826  11.059
20978W        W82289  26.182  37.381   4.276
20979W        W82290   2.878  39.417   0.453
20980W        W82291  22.119  40.530   2.189
20981W        W82292  34.998  37.440   5.093
20982W        W82293  36.399  24.649   4.302
20983W        W82294  29.095  23.503  12.566
20984W        W82295   9.206  22.036  10.420
20985W        W82296  13.787  11.147  14.308
20986W        W82297  19.631  11.621   1.859
20987W        W82298   3.801  32.904   1.223
20988W        W82299  34.072   1.938  13.484
20989W        W82300  25.499  38.426  11.108
20990W        W82301  21.637  34.370   1.374
20991W        W82302   9.865  23.985  13.021
20992W        W82303  12.147  20.068  12.390
20993W        W82304  40.978   6.299  12.984
20994W        W82305  20.682  43.803  12.861
20995W        W82306  36.370  38.900  14.759
20996W        W82307   1.290  16.073   1.747
20997W        W82308  25.607  17.713   1.213
20998W        W82309  19.664   9.819   1.358
20999W        W82310  35.407  32.134  11.513
21000W        W82311  14.232  29.145  10.053
21001W        W82312  32.479  27.988   2.821
21002W        W82313   7.734  25.097  11.609
21003W        W82314   2.453   4.225  10.997
21004W        W82315  14.338  31.546  13.366
21005W        W82316  17.719  27.658   3.222
21006W        W82317  13.620  11.224  11.953
21007W        W82318  38.371  27.942   4.258
21008W        W82319   8.689   9.347   4.806
21009W        W82320   9.257  36.509  11.529
21010W        W82321  17.302   7.674   1.805
21011W        W82322  11.231  18.787   1.420
21012W        W82323  40.356  14.604   0.362
21013W        W82324  11.174  31.906  12.022
21014W        W82325  10.650  37.049  10.927
21015W        W82326  29.470   8.192  11.006
21016W        W82327  21.225  12.162  13.394
21017W        W82328  43.447  23.210  11.035
21018W        W82329  43.411  20.694  13.839
21019W        W82330  32.030  38.861   4.625
21020W        W82331   1.932  13.714   0.841
21021W        W82332  11.317  27.131  13.963
21022W        W82333  33.924  25.046   4.628
21023W        W82334  17.275  35.920   1.702
21024W        W82335  29.044  33.068  14.483
21025W        W82336  30.939  41.381  10.949
21026W        W82337  20.081   1.453   0.423
21027W        W82338   2.294  28.047   1.849
21028W        W82339   6.318  20.738  13.044
21029W        W82340  25.057  20.685   2.378
21030W        W82341  15.315   2.859  11.428
21031W        W82342  30.563  29.515   0.923
21032W        W82343  18.142  13.639  13.546
21033W        W82344   2.960   7.753   0.938
21034W        W82345  21.121  22.147  13.817
21035W        W82346  30.647  28.936  12.853
21036W        W82347   5.311  27.059   1.313
21037W        W82348  11.772  10.764  13.804
21038W        W82349  40.330  31.593   2.310
21039W        W82350  16.165  13.277  14.446
21040W        W82351   5.816  41.462   4.171
21041W        W82352  25.029  18.175   2.263
21042W        W82353  14.147  31.422   1.743
21043W        W82354   9.279   9.681   3.323
21044W        W82355   9.328  15.193   3.299
21045W        W82356  43.358  29.944   3.752
21046W        W82357  23.168  44.377  10.563
21047W        W82358   2.302  19.070   1.284
21048W        W82359  32.619  27.478   0.389
21049W        W82360  30.979  27.155   2.330
21050W        W82361  38.940   4.245   3.377
21051W        W82362  41.987   0.253  14.400
21052W        W82363  10.826  23.712  13.795
21053W        W82364  37.848  27.181   2.697
21054W        W82365  42.938  19.668   4.729
21055W        W82366  43.473   8.274  11.070
21056W        W82367  10.801  30.989  13.913
21057W        W82368  12.805  26.613  11.894
21058W        W82369  11.334  10.851   4.285
21059W        W82370  42.344   2.867   3.204
21060W        W82371  12.250  28.599   2.413
21061W        W82372  24.695   1.324  10.529
21062W        W82373   1.891  31.459  14.888
21063W        W82374  28.509  18.063   0.771
21064W        W82375  13.261   9.769   2.197
21065W        W82376  36.889  33.561   0.296
21066W        W82377  26.651   5.424   3.856
21067W        W82378  15.632  12.119  10.895
21068W        W82379   8.347  41.855   1.774
21069W        W82380  25.558  37.059   0.343
21070W        W82381  39.385   9.360   2.346
21071W        W82382  39.952   4.386  13.891
21072W        W82383  34.521  20.197   4.289
21073W        W82384  32.471  41.024  14.506
21074W        W82385  30.528   6.865  11.091
21075W        W82386  24.717  28.628  13.851
21076W        W82387  31.092  29.144  14.459
21077W        W82388  34.933  22.037   3.708
21078W        W82389  24.120  28.626  13.053
21079W        W82390   0.423  43.414   2.838
21080W        W82391  37.033  31.071  14.851
21081W        W82392  16.093  40.518  14.426
21082W        W82393  16.748  29.162   1.858
21083W        W82394  36.982  15.180  11.543
21084W        W82395  25.984  14.676  10.479
21085W        W82396  18.254   0.425  13.432
21086W        W82397   6.326  10.383   2.178
21087W        W82398  21.694  28.164   3.778
21088W        W82399   8.279  42.994  14.483
21089W        W82400  23.707  22.132  14.442
21090W        W82401  41.817  40.527   2.284
21091W        W82402   2.237  29.425  12.884
21092W        W82403   2.294  34.545  11.910
21093W        W82404  11.763   5.808  10.947
21094W        W82405  39.879  20.620   2.789
21095W        W82406  11.828  11.802   3.679
21096W        W82407  12.116  12.772   0.314
21097W        W82408   0.774  24.635  14.503
21098W        W82409  10.312  21.575  11.897
21099W        W82410  43.516  22.207  14.351
21100W        W82411  40.379  15.137   4.148
21101W        W82412  39.963  41.823  11.056
21102W        W82413   6.807  43.444   4.687
21103W        W82414  44.325  44.912   4.784
21104W        W82415  21.581   2.942   3.747
21105W        W82416   1.818  42.801   0.922
21106W        W82417  16.316  19.121   2.199
21107W        W82418   8.821  25.710  11.940
21108W        W82419  21.111  15.816  10.628
21109W        W82420  15.312  15.323  12.877
21110W        W82421  14.295  30.581   2.249
21111W        W82422  36.848   3.879   3.176
21112W        W82423   4.805   2.863  10.923
21113W        W82424  11.753  41.787   2.890
21114W        W82425   1.802  31.098   3.286
21115W        W82426   3.254  39.059   2.239
21116W        W82427  39.530  23.493   2.880
21117W        W82428  22.083  15.201  13.424
21118W        W82429  37.498  10.775   1.729
21119W        W82430  13.232   6.823  10.615
21120W        W82431  17.594   4.820   1.739
21121W        W82432   4.216  39.420   4.729
21122W        W82433  40.313  15.135   1.444
21123W        W82434  35.876  44.373  14.958
21124W        W82435  38.857  33.977  12.393
21125W        W82436  12.133  38.507  14.295
21126W        W82437   7.284  27.174   1.931
21127W        W82438   9.214  21.570   0.740
21128W        W82439   1.352  17.305   1.759
21129W        W82440  12.721  38.893   2.230
21130W        W82441  10.653   7.202   2.203
21131W        W82442   9.316  39.408   0.349
21132W        W82443  29.936  37.364  12.091
21133W        W82444  22.009  22.669  13.328
21134W        W82445   6.898  16.642   0.258
21135W        W82446  32.891  32.468  11.453
21136W        W82447  31.596   9.155  14.508
21137W        W82448  15.586  42.030  12.512
21138W        W82449  18.653  36.991  11.045
21139W        W82450   6.775  32.966   1.329
21140W        W82451  11.749   7.201   1.317
21141W        W82452   7.207   7.776   1.809
21142W        W82453  14.330  37.972   2.860
21143W        W82454  28.012  29.088   3.745
21144W        W82455  16.792  41.894   3.771
21145W        W82456  14.675   0.408  11.478
21146W        W82457  23.213  20.586  14.904
21147W        W82458  17.630  20.072   3.202
21148W        W82459  22.200  20.597  10.546
21149W        W82460  23.094  29.489   2.372
21150W        W82461  27.631  43.022  13.527
21151W        W82462  13.337  20.209   2.886
21152W        W82463   7.365  33.441   3.852
21153W        W82464  14.156  22.612   9.496
21154W        W82465  20.679  42.454  12.954
21155W        W82466  16.570   2.261   3.720
21156W        W82467   1.819  16.732   4.249
21157W        W82468  33.995  15.086   4.228
21158W        W82469  37.840  31.575   5.195
21159W        W82470  30.624  32.954   4.737
21160W        W82471  34.110   1.394  13.499
21161W        W82472  43.480  23.176   0.312
21162W        W82473  28.960  17.299   0.341
21163W        W82474  37.076   2.853   2.870
21164W        W82475  40.922  27.562   3.681
21165W        W82476  21.224   6.748   2.690
21166W        W82477   1.733   5.410  11.922
21167W        W82478  22.596  27.994   3.253
21168W        W82479   5.229  41.421   4.659
21169W        W82480  10.778  21.620  14.439
21170W        W82481  15.144  26.174   9.440
21171W        W82482   8.871  20.662  10.505
21172W        W82483   6.701  18.132   1.385
21173W        W82484  37.393   5.363  11.004
21174W        W82485  27.968   8.173  14.294
21175W        W82486  13.285  36.548  11.987
21176W        W82487  36.002  25.966  13.003
21177W        W82488  26.465  13.646  13.366
21178W        W82489   0.256   1.880  14.898
21179W        W82490   6.904  32.919   1.741
21180W        W82491  15.084  13.741  14.320
21181W        W82492   8.197  40.403   0.322
21182W        W82493  44.283  32.576   4.301
21183W        W82494  36.564  42.524   4.130
21184W        W82495  20.739  29.128   9.438
21185W        W82496  11.141  24.547  10.573
21186W        W82497   8.847   2.336   1.930
21187W        W82498   8.880  11.215   3.343
21188W        W82499  23.172  17.600   9.955
21189W        W82500  34.559  22.155   4.288
21190W        W82501  37.935   8.777   5.209
21191W        W82502  40.456  14.659   0.898
21192W        W82503  18.556  43.977   0.812
21193W        W82504   9.252  37.532  12.012
21194W        W82505  23.681  16.704   3.824
21195W        W82506  41.818   2.300  12.530
21196W        W82507  28.156   2.776   2.325
21197W        W82508  25.472  11.748   1.273
21198W        W82509   6.268  33.898   0.927
21199W        W82510  14.630  29.086   3.256
21200W        W82511  10.145  26.583   2.346
21201W        W82512  21.673  27.613   2.812
21202W        W82513  29.512  20.072   0.791
21203W        W82514  21.084  26.172   3.187
21204W        W82515   7.370  41.509  10.976
21205W        W82516  19.141  33.505  12.911
21206W        W82517  18.257  11.657  13.941
21207W        W82518  17.214  28.492   2.411
21208W        W82519  17.712  12.643   4.765
21209W        W82520   2.730  26.026  12.874
21210W        W82521  12.619  13.617   2.726
21211W        W82522  19.051   9.677  14.331
21212W        W82523  17.270  16.285  10.510
21213W        W82524  25.699   5.434   0.299
21214W        W82525   2.737  33.488   2.704
21215W        W82526  40.862  38.358   5.656
21216W        W82527  37.459  29.558  12.022
21217W        W82528  36.029  34.505   2.329
21218W        W82529  41.329   9.707   1.749
21219W        W82530  20.252  31.976   3.384
21220W        W82531  19.711   2.809   1.408
21221W        W82532  36.390  24.594  13.321
21222W        W82533  26.635  12.355   2.355
21223W        W82534  10.218   2.391   1.772
21224W        W82535  13.842  22.567   3.773
21225W        W82536   0.979   4.438   2.254
21226W        W82537  40.351  19.116   2.211
21227W        W82538  33.504  16.692   0.800
21228W        W82539   3.262  12.149   4.248
21229W        W82540  10.359  10.287   2.721
21230W        W82541  36.560  10.790  12.541
21231W        W82542  22.037  21.738  11.125
21232W        W82543   0.324  22.594   4.290
21233W        W82544   1.440  13.675   2.680
21234W        W82545  26.606   0.477  11.997
21235W        W82546   4.878  10.261   0.771
21236W        W82547  29.058   0.934  11.953
21237W        W82548  20.108  29.091  11.405
21238W        W82549  42.936  18.596   3.846
21239W        W82550  25.487  25.104  11.109
21240W        W82551   7.290  30.501  13.060
21241W        W82552  22.144  43.343  14.006
21242W        W82553   9.215  44.884  13.878
21243W        W82554  36.427   9.222   2.723
21244W        W82555  13.640  43.355   1.424
21245W        W82556   4.844  29.475   4.768
21246W        W82557   4.761   4.934  12.364
21247W        W82558  20.736   9.323   2.235
21248W        W82559  44.890  32.429  10.457
21249W        W82560   5.912  15.597   3.700
21250W        W82561  16.072  20.040   3.237
21251W        W82562  10.710  10.706   0.812
21252W        W82563  43.439  11.731  14.936
21253W        W82564  34.009   8.890   2.822
21254W        W82565  23.513   7.276  12.540
21255W        W82566  28.179  39.043   0.330
21256W        W82567  26.133  14.724  13.395
21257W        W82568  25.650  33.504   4.325
21258W        W82569  35.502   3.805   4.247
21259W        W82570  42.842  38.944   4.239
21260W        W82571  24.561  36.890   0.927
21261W        W82572  29.434  43.901  11.532
21262W        W82573  39.965  32.957   0.322
21263W        W82574  16.693  14.785   0.430
21264W        W82575   2.243  24.671   3.145
21265W        W82576  44.460  17.117  12.855
21266W        W82577  10.304  17.132   3.307
21267W        W82578   4.206   4.740  13.535
21268W        W82579  26.458  13.135  12.451
21269W        W82580  15.247  42.428   3.853
21270W        W82581  39.456  17.617   3.216
21271W        W82582  25.165   6.274   0.918
21272W        W82583  10.834  35.484  14.931
21273W        W82584  15.821  28.084   2.278
21274W        W82585  30.914  26.173  13.923
21275W        W82586   8.802   0.296  10.430
21276W        W82587  17.621  16.162   3.364
21277W        W82588  25.555  25.474   3.264
21278W        W82589  39.924   1.322  14.285
21279W        W82590  35.386  33.382  13.963
21280W        W82591  35.930   8.372  11.110
21281W        W82592  28.977  11.830  11.582
21282W        W82593  21.114  23.990   0.316
21283W        W82594  30.910   9.812   4.345
21284W        W82595  37.028  38.921  11.473
21285W        W82596  37.019  38.827   0.482
21286W        W82597  12.252  22.247   2.265
21287W        W82598  42.948  38.020   1.216
21288W        W82599  27.492  19.668  14.363
21289W        W82600  18.093  24.724  13.503
21290W        W82601  42.322  40.880  12.973
21291W        W82602  23.653  10.305  11.460
21292W        W82603   9.835   9.728   3.841
21293W        W82604  40.516  39.971   5.600
21294W        W82605  44.795   7.299   0.908
21295W        W82606  33.546  19.546   0.886
21296W        W82607   1.753   7.766   4.347
21297W        W82608   5.268  27.107   4.320
21298W        W82609  44.443  17.611   2.312
21299W        W82610  41.499  15.090   0.317
21300W        W82611   4.223   6.679   1.413
21301W        W82612  14.759  11.319  13.478
21302W        W82613  24.652   1.451  14.359
21303W        W82614   9.321  39.330   3.631
21304W        W82615  32.593  37.039  11.875
21305W        W82616  32.907  18.077   3.374
21306W        W82617  33.537  26.034   0.938
21307W        W82618   0.375  41.447   3.311
21308W        W82619  28.143   7.198   2.303
21309W        W82620  34.939   2.320   0.909
21310W        W82621  39.537  39.485  11.572
21311W        W82622   4.207   9.888   3.323
21312W        W82623  43.874  42.476   0.763
21313W        W82624   7.729  41.870   1.891
21314W        W82625  31.151  32.602  12.495
21315W        W82626  31.950   3.770  14.406
21316W        W82627   0.396   1.745  12.948
21317W        W82628  42.842  13.185  10.420
21318W        W82629  43.419   6.788   2.742
21319W        W82630   4.330   2.815   2.824
21320W        W82631  40.986  13.229  12.366
21321W        W82632  11.756  11.690   2.792
21322W        W82633  15.775  34.413   4.162
21323W        W82634  15.178  28.467   1.307
21324W        W82635  28.948  38.432  12.014
21325W        W82636  42.973   1.817  14.475
21326W        W82637  36.466  25.217   4.116
21327W        W82638  27.132  25.542  11.447
21328W        W82639  13.763   8.312  10.576
21329W        W82640  32.513  17.231  14.295
21330W        W82641  33.530  29.930  13.804
21331W        W82642  35.980  23.552   3.272
21332W        W82643   9.323  31.503  13.029
21333W        W82644   2.235   9.274  14.466
21334W        W82645  12.345  21.569   0.416
21335W        W82646  12.253  21.734  13.518
21336W        W82647  25.642   1.342   0.390
21337W        W82648  21.699  20.676   2.224
21338W        W82649  16.733  17.675   4.270
21339W        W82650  15.666  13.188  14.331
21340W        W82651   0.932   6.864   3.632
21341W        W82652  29.096  13.619   3.357
21342W        W82653  42.300  34.097   3.387
21343W        W82654  11.718   5.905   3.674
21344W        W82655  11.835  13.262   0.387
21345W        W82656  41.799  21.022  12.940
21346W        W82657  31.495  26.204   4.722
21347W        W82658  12.758  26.200   1.805
21348W        W82659  25.142  41.968  12.350
21349W        W82660  37.573  44.008   4.299
21350W        W82661  17.253  19.647  14.817
21351W        W82662  42.367   3.403   4.665
21352W        W82663  29.162  35.527   1.917
21353W        W82664  19.060  14.670  12.008
21354W        W82665  26.675  43.984   4.115
21355W        W82666  30.011  17.654   3.174
21356W        W82667  41.460  38.910   2.264
21357W        W82668  40.335  30.135  10.998
21358W        W82669   3.215   4.222  13.422
21359W        W82670  42.970  23.506   2.213
21360W        W82671  34.024  26.635  12.840
21361W        W82672  12.694   0.392   2.235
21362W        W82673   0.831  31.923  11.479
21363W        W82674  12.676  43.854   0.926
21364W        W82675  32.576  33.874   1.912
21365W        W82676  26.046  24.195   0.812
21366W        W82677   4.753  38.397   4.708
21367W        W82678  30.130  14.159   1.855
21368W        W82679  13.604   4.445   0.450
21369W        W82680   8.204  21.658   1.291
21370W        W82681  15.243  19.611   3.811
21371W        W82682  36.565  34.107  11.104
21372W        W82683  28.637  21.043   4.616
21373W        W82684   1.256   6.287   4.663
21374W        W82685  22.162  43.000  14.458
21375W        W82686  28.044  27.506  10.944
21376W        W82687  26.151   9.238  14.275
21377W        W82688  15.708  14.293   0.794
21378W        W82689  35.409   8.394  12.034
21379W        W82690   3.407   3.840   3.316
21380W        W82691  39.061   3.863   3.715
21381W        W82692   0.860  15.700   3.754
21382W        W82693   6.240   4.893   4.635
21383W        W82694  10.196  40.838  11.127
21384W        W82695  13.608   5.332   4.763
21385W        W82696  32.500   5.378  11.993
21386W        W82697  18.089  37.048   2.392
21387W        W82698  18.132  21.102   4.244
21388W        W82699  16.106   5.917  13.962
21389W        W82700  27.488   9.159   0.827
21390W        W82701   9.704   4.275   2.822
21391W        W82702   5.226   1.880  12.996
21392W        W82703  41.014  36.549   2.271
21393W        W82704  33.486  14.595  14.418
21394W        W82705  19.154  33.400  10.561
21395W        W82706   5.793   6.267   4.167
21396W        W82707  44.943  41.015   2.837
21397W        W82708  14.834  33.381   3.319
21398W        W82709  44.802   3.828  14.774
21399W        W82710  25.593  26.633  10.463
21400W        W82711   3.301  28.492   4.713
21401W        W82712  35.038   7.287  13.803
21402W        W82713   3.818  24.048  10.428
21403W        W82714  34.998  17.621   2.261
21404W        W82715  30.608  22.510  12.039
21405W        W82716  43.272  40.339   0.405
21406W        W82717   5.867  41.481   0.751
21407W        W82718  27.506  22.601   2.862
21408W        W82719  29.011   1.938   1.402
21409W        W82720  37.885  14.801  10.918
21410W        W82721  29.936  41.003  13.393
21411W        W82722   6.746  39.559   1.310
21412W        W82723  11.254  42.002  13.399
21413W        W82724  31.492  30.513   2.354
21414W        W82725  24.627  25.115   3.159
21415W        W82726  34.887  19.154   0.471
21416W        W82727  22.230  16.134  13.038
21417W        W82728  28.622  11.809   0.767
21418W        W82729   1.288  32.472   3.651
21419W        W82730  18.053  19.261   4.327
21420W        W82731  12.176   1.915   4.806
21421W        W82732   3.765  21.537   0.406
21422W        W82733  19.548   1.432   3.675
21423W        W82734  35.909  10.216  13.420
21424W        W82735  35.969  30.920  14.905
21425W        W82736  30.967  37.416   2.769
21426W        W82737  36.900  12.698   1.758
21427W        W82738  27.003  21.751  11.416
21428W        W82739  43.973  21.190  10.119
21429W        W82740  22.996   6.245   2.717
21430W        W82741   9.250   2.821  11.573
21431W        W82742  38.076  10.190  10.894
21432W        W82743  37.388  19.685   3.796
21433W        W82744  38.397   1.459  12.024
21434W        W82745  31.055  36.988   4.236
21435W        W82746  14.613  22.607  11.483
21436W        W82747  41.999  14.824   3.859
21437W        W82748   7.909  43.888  11.524
21438W        W82749  21.616  18.590  12.067
21439W        W82750  37.370  26.590  11.941
21440W        W82751  14.751   3.755   3.750
21441W        W82752  27.035   8.399  13.810
21442W        W82753  17.165  44.785  13.801
21443W        W82754  15.268  10.335   2.343
21444W        W82755  23.199  14.772  11.031
21445W        W82756  10.728  29.440   3.310
21446W        W82757  27.023   5.439  13.437
21447W        W82758  38.549  44.996  12.014
21448W        W82759  25.125  20.703   4.302
21449W        W82760   6.312   9.257   4.253
21450W        W82761  27.944   8.312   4.149
21451W        W82762  12.748  32.108   3.644
21452W        W82763  40.334   5.332  12.859
21453W        W82764  11.288  12.123   2.730
21454W        W82765  43.467   1.854   2.875
21455W        W82766  40.044  43.420  13.344
21456W        W82767   6.209  44.992   2.182
21457W        W82768   2.453  34.052  14.914
21458W        W82769  20.054  14.625  14.001
21459W        W82770  13.263  29.666   4.205
21460W        W82771   7.665   0.264   3.684
21461W        W82772  23.202  23.216  12.442
21462W        W82773  29.107  38.525  12.905
21463W        W82774  31.552  25.543  14.310
21464W        W82775   1.860   2.353   4.226
21465W        W82776  14.298  43.002  11.865
21466W        W82777   4.911  17.620  10.973
21467W        W82778   7.373   4.366  12.348
21468W        W82779  37.504  27.073  13.998
21469W        W82780  31.548  33.968  12.529
21470W        W82781  28.444   9.793  12.472
21471W        W82782   5.281  10.687   4.705
21472W        W82783  44.327  41.497   3.802
21473W        W82784   1.365  11.783   3.773
21474W        W82785   5.422  31.599  11.501
21475W        W82786  16.800  29.175   3.793
21476W        W82787  18.127   8.767   3.807
21477W        W82788  28.177  15.641   3.662
21478W        W82789   3.238   1.239  10.414
21479W        W82790  42.990  29.621   1.926
21480W        W82791  40.936  29.609   3.682
21481W        W82792  44.772  40.035  13.530
21482W        W82793  11.251  32.986  11.463
21483W        W82794  43.309  31.088   2.670
21484W        W82795  14.611  28.947  13.467
21485W        W82796  44.915  24.067   0.355
21486W        W82797  29.055  42.326  11.886
21487W        W82798  25.197  38.450  13.377
21488W        W82799  32.069  19.157  12.468
21489W        W82800  10.181  43.919  13.837
21490W        W82801  17.069  44.816   0.769
21491W        W82802   5.348  33.947  12.398
21492W        W82803  26.459  44.475   2.379
21493W        W82804  33.913   1.321   4.211
21494W        W82805  33.611  28.669   2.763
21495W        W82806  40.356  13.764  12.878
21496W        W82807  15.288   9.705  10.521
21497W        W82808  44.425  30.536   0.331
21498W        W82809  27.551  16.679  11.060
21499W        W82810   4.294   4.939  12.941
21500W        W82811  36.982  36.386  10.603
21501W        W82812  27.997   9.206   0.815
21502W        W82813  17.204  19.191  13.372
21503W        W82814  34.109   4.345   2.274
21504W        W82815  30.569  32.998   3.341
21505W        W82816  44.381  14.164   2.274
21506W        W82817   4.913   2.297   1.876
21507W        W82818  24.160   1.765   4.341
21508W        W82819   1.780  21.532  14.026
21509W        W82820  15.244  40.998  14.396
21510W        W82821  24.220  31.588  13.877
21511W        W82822   3.847  33.896   3.652
21512W        W82823   2.907  27.450  14.318
21513W        W82824  43.899  38.915  12.556
21514W        W82825  23.493  24.646  12.507
21515W        W82826  42.965  38.335  10.553
21516W        W82827  14.643  27.463   4.120
21517W        W82828  13.827  13.109   2.308
21518W        W82829  43.345   4.256   4.278
21519W        W82830  16.107  16.772  13.802
21520W        W82831  19.760  24.173   2.723
21521W        W82832   4.276  41.828   4.678
21522W        W82833  18.164  10.695  12.863
21523W        W82834  33.406  20.124   1.282
21524W        W82835  30.128   8.389   4.231
21525W        W82836  21.132  29.475  13.500
21526W        W82837  33.880   8.173   3.327
21527W        W82838   0.453  30.004  12.914
21528W        W82839  42.881  13.268   1.820
21529W        W82840  20.035  43.308  10.436
21530W        W82841  19.683  24.974  12.996
21531W        W82842   9.162  16.713  10.924
21532W        W82843   0.771   2.305   4.793
21533W        W82844  43.901  23.160   4.171
21534W        W82845   5.705   5.909  11.029
21535W        W82846   4.329  19.279   2.819
21536W        W82847  31.458  40.309   2.207
21537W        W82848  36.882  43.427  13.939
21538W        W82849  20.575  36.565   4.262
21539W        W82850  20.215   0.744   4.335
21540W        W82851  14.213  21.215  12.545
21541W        W82852   6.834  21.075  14.003
21542W        W82853  40.317  44.833  13.410
21543W        W82854  28.133   0.771   0.388
21544W        W82855   5.823  16.809   0.856
21545W        W82856  33.081  38.000  12.365
21546W        W82857  37.886  44.837  13.488
21547W        W82858  23.512   4.720  12.015
21548W        W82859  36.363   9.181  12.344
21549W        W82860  14.651   7.262  11.929
21550W        W82861  19.099   3.709   2.691
21551W        W82862  20.094   7.250   4.206
21552W        W82863  36.458   5.918   2.786
21553W        W82864  20.149  21.058  11.993
21554W        W82865  10.769  26.082   1.796
21555W        W82866  27.002  26.605  14.467
21556W        W82867  27.078  36.374  10.948
21557W        W82868   6.346  33.436   4.206
21558W        W82869  28.638  30.547   1.428
21559W        W82870  20.562  31.537  13.049
21560W        W82871  38.896   1.873  11.904
21561W        W82872  43.784  17.223   1.271
21562W        W82873  42.307   8.802  11.466
21563W        W82874  16.316   5.695   1.851
21564W        W82875  25.499  16.627   1.351
21565W        W82876   4.384  34.533   3.631
21566W        W82877  13.106  11.779   1.396
21567W        W82878  32.918  15.648   3.658
21568W        W82879   3.931   5.767   0.953
21569W        W82880  25.968   6.829   3.252
21570W        W82881  33.449  15.587  10.426
21571W        W82882  33.025  41.964   0.837
21572W        W82883  21.129  16.184   3.338
21573W        W82884  24.556  15.257   2.821
21574W        W82885   5.201  15.657   3.651
21575W        W82886  36.946  20.217  11.000
21576W        W82887  29.989  37.936  10.977
21577W        W82888  32.070  16.085   4.743
21578W        W82889  33.419  32.536  12.418
21579W        W82890  25.134  17.260   2.414
21580W        W82891  27.653  19.573   3.772
21581W        W82892   5.194  25.471   0.389
21582W        W82893  15.620  30.443  11.483
21583W        W82894  39.955  23.234   0.461
21584W        W82895   4.725  29.426  10.974
21585W        W82896  23.198  39.063   4.305
21586W        W82897  39.065  35.993  12.486
21587W        W82898  26.023  42.345  11.000
21588W        W82899  14.182  10.266   2.825
21589W        W82900  24.173   7.774   0.795
21590W        W82901  33.466  40.432  11.094
21591W        W82902  38.881   6.690  10.931
21592W        W82903   6.705   9.168   2.279
21593W        W82904  29.011  29.641   2.358
21594W        W82905  22.625  20.710   3.706
21595W        W82906  16.800  40.408   2.797
21596W        W82907  16.730  26.582  13.842
21597W        W82908  28.084  37.001  14.926
21598W        W82909   2.419  25.981   1.366
21599W        W82910  14.292  34.905   4.731
21600W        W82911  41.460  39.515   0.785
21601W        W82912  30.428  29.113  11.027
21602W        W82913   2.751  22.096   3.870
21603W        W82914  31.032   1.959   1.403
21604W        W82915   6.813  34.458  11.479
21605W        W82916  31.517  26.487  10.892
21606W        W82917  19.141  34.551   3.237
21607W        W82918  23.045  42.288   3.183
21608W        W82919  29.973  35.573   2.838
21609W        W82920  16.117  33.125   3.384
21610W        W82921  44.308  21.701  11.003
21611W        W82922  10.177  10.743   1.228
21612W        W82923  42.451  19.086   2.692
21613W        W82924   7.804   1.769  12.044
21614W        W82925  20.229  15.119  10.934
21615W        W82926  44.330  26.494   4.148
21616W        W82927   2.854  39.387  12.905
21617W        W82928  15.321  12.637   5.247
21618W        W82929  30.453   7.382  14.339
21619W        W82930   3.271  12.846  13.403
21620W        W82931  10.311  25.007  12.551
21621W        W82932   0.743  15.753  10.536
21622W        W82933  23.543  42.302   4.312
21623W        W82934  20.196  33.060   1.715
21624W        W82935  35.387  36.082  14.289
21625W        W82936   9.183   8.822  10.066
21626W        W82937  26.952  11.685   2.309
21627W        W82938   0.795   4.929  13.034
21628W        W82939  36.503  38.404  13.443
21629W        W82940  34.016  38.034  12.406
21630W        W82941  23.690  21.103  13.965
21631W        W82942  30.516  30.130   4.188
21632W        W82943  37.014  44.321   3.234
21633W        W82944  23.706  32.521  11.412
21634W        W82945  22.150  39.336  14.854
21635W        W82946   6.914   8.341   0.830
21636W        W82947  40.864  32.928  13.381
21637W        W82948   9.165  39.864  14.836
21638W        W82949   4.223  32.935  12.910
21639W        W82950  32.969  39.956  12.974
21640W        W82951  33.382  39.489   4.645
21641W        W82952  32.038   9.262   1.265
21642W        W82953  33.503  10.323  11.595
21643W        W82954  35.976   2.225  12.855
21644W        W82955   8.345  16.246  11.951
21645W        W82956  22.590  21.185  13.324
21646W        W82957  26.584   2.893   3.174
21647W        W82958  10.709  22.224   4.153
21648W        W82959  17.118  26.484  10.889
21649W        W82960  38.376   6.711   2.363
21650W        W82961  29.437  16.088   0.749
21651W        W82962   0.352  31.633  13.025
21652W        W82963  25.632  24.999  11.560
21653W        W82964  32.000  10.227  13.525
21654W        W82965  19.076   3.951  13.472
21655W        W82966  41.494  14.322   1.382
21656W        W82967  13.628   0.263  13.825
21657W        W82968  30.102  13.725  11.037
21658W        W82969  20.738   1.831  11.521
21659W        W82970  30.431  44.475  10.420
21660W        W82971  40.445  13.272   1.887
21661W        W82972  44.389  26.044  14.394
21662W        W82973   1.444   3.778   0.350
21663W        W82974  17.699  10.707  10.519
21664W        W82975  24.724  16.715   4.690
21665W        W82976  12.216  33.904   1.450
21666W        W82977  32.033  10.155  11.418
21667W        W82978  40.898  14.671   0.444
21668W        W82979  14.788  17.142  14.833
21669W        W82980  38.442   2.879  14.027
21670W        W82981  31.935   1.460   1.699
21671W        W82982   8.321  12.264  11.010
21672W        W82983  39.370  34.072  10.596
21673W        W82984   9.236  32.074  12.408
21674W        W82985  36.055  26.129   4.329
21675W        W82986  33.994   4.719  11.865
21676W        W82987   0.353   4.286  10.576
21677W        W82988  20.048  10.801  13.332
21678W        W82989  28.963  42.795   1.279
21679W        W82990  13.303   9.357  11.074
21680W        W82991  39.543  13.676  13.034
21681W        W82992  20.271  22.708   0.348
21682W        W82993  21.208  29.522   1.864
21683W        W82994  33.494   4.350   4.333
21684W        W82995   3.264  18.677   1.314
21685W        W82996   0.300  25.116   4.797
21686W        W82997  28.548  22.648  10.993
21687W        W82998   9.234   4.367   4.682
21688W        W82999  21.174  38.383   3.387
21689W        W83000  20.171  22.193   1.710
21690W        W83001   6.875  33.937  14.389
21691W        W83002  20.762   6.330   3.819
21692W        W83003   2.380  36.011  14.278
21693W        W83004  23.530  22.584  12.062
21694W        W83005   6.692  21.605   1.220
21695W        W83006  34.420  43.796   3.635
21696W        W83007  19.717   9.730   2.345
21697W        W83008  26.152   8.711   1.906
21698W        W83009  21.647   4.890   2.733
21699W        W83010  17.114  10.292  14.311
21700W        W83011   3.336  23.532  12.049
21701W        W83012  15.094  11.221   2.762
21702W        W83013   1.476   0.751   2.285
21703W        W83014  42.484  20.741   0.961
21704W        W83015  38.842  27.572   1.721
21705W        W83016   3.781   8.684  14.833
21706W        W83017  38.879  23.619  11.586
21707W        W83018  17.140  26.196  14.425
21708W        W83019   3.233   7.213   9.958
21709W        W83020   1.309  20.162  12.085
21710W        W83021  34.601  31.902  14.865
21711W        W83022  29.169  22.706  14.903
21712W        W83023  30.982  37.847   4.194
21713W        W83024  37.386   3.857   4.184
21714W        W83025  27.576  39.426  11.947
21715W        W83026  29.441   2.812   2.855
21716W        W83027   2.962  26.526  10.591
21717W        W83028  41.903  13.619  13.963
21718W        W83029  36.863  11.365   3.329
21719W        W83030  12.288  43.011   4.303
21720W        W83031  32.634   8.219  12.008
21721W        W83032   4.332  24.620   3.290
21722W        W83033  44.008   6.243   3.186
21723W        W83034  18.060   6.216  13.833
21724W        W83035   1.432  32.109   2.665
21725W        W83036   7.349  33.097   0.456
21726W        W83037  22.228   7.365  13.465
21727W        W83038   0.949  30.634  12.987
21728W        W83039   5.409  35.047   0.861
21729W        W83040   4.408  14.267   4.782
21730W        W83041   2.227  24.021  12.375
21731W        W83042  16.315  32.097   2.344
21732W        W83043   6.278   6.421  14.468
21733W        W83044  21.687  37.361   9.924
21734W        W83045  15.182  39.480  13.875
21735W        W83046  32.973  39.842   4.825
21736W        W83047  27.476  18.596  12.867
21737W        W83048  24.150   3.944   0.466
21738W        W83049  10.175   8.753  10.112
21739W        W83050  23.522   3.392   3.701
21740W        W83051  32.886  31.034   4.220
21741W        W83052   6.379  37.392  11.543
21742W        W83053  43.473  22.545   0.759
21743W        W83054   7.869  36.433  11.100
21744W        W83055  33.428  38.875  13.970
21745W        W83056   6.828  10.648   1.223
21746W        W83057  36.358  27.175  14.024
21747W        W83058  24.698  16.703  14.800
21748W        W83059  27.466  37.540  13.433
21749W        W83060  16.783  11.184  13.995
21750W        W83061  42.413  19.253   3.299
21751W        W83062   2.921  20.065  10.643
21752W        W83063  28.511  27.053  12.836
21753W        W83064  35.480   5.805  10.921
21754W        W83065  43.941   0.379  12.996
21755W        W83066   6.312  10.232  13.343
21756W        W83067   6.840   4.759   1.920
21757W        W83068   5.398  28.139   1.210
21758W        W83069  19.737  24.030  12.899
21759W        W83070   1.783  14.763  11.984
21760W        W83071  32.919  11.702   3.678
21761W        W83072   6.319  25.990   3.169
21762W        W83073  37.436  27.657  11.927
21763W        W83074  38.407  43.452  12.981
21764W        W83075  36.901   6.238   3.246
21765W        W83076  22.526  10.800   3.825
21766W        W83077  17.223  42.969  12.865
21767W        W83078  40.507  12.203  12.839
21768W        W83079  16.602  11.146  10.580
21769W        W83080  34.968  17.248  10.052
21770W        W83081  17.727   8.782   1.764
21771W        W83082  23.185   4.261  12.340
21772W        W83083  10.199  17.744   0.862
21773W        W83084  39.970  33.917  14.992
21774W        W83085   2.963  13.105  13.977
21775W        W83086   1.306  38.356   3.357
21776W        W83087   9.696   8.177  13.004
21777W        W83088  44.778  35.514   2.742
21778W        W83089  16.736  32.106   1.708
21779W        W83090   5.323  12.189   2.216
21780W        W83091  30.925  27.155   0.431
21781W        W83092  17.120  44.882   1.307
21782W        W83093  15.222  35.895  12.528
21783W        W83094  10.760  21.648   3.368
21784W        W83095   7.883  42.328  13.309
21785W        W83096  26.020   3.924  14.455
21786W        W83097  15.177  17.711   0.250
21787W        W83098  32.911  30.966  12.857
21788W        W83099  10.270  34.069   3.226
21789W        W83100  37.357  29.560   4.154
21790W        W83101  25.598  31.516  14.394
21791W        W83102  15.265  13.622  14.927
21792W        W83103  21.702  14.644  10.599
21793W        W83104  24.527  12.127  12.867
21794W        W83105  13.307  25.533   1.236
21795W        W83106  17.568  26.609   4.326
21796W        W83107   7.807  30.447  10.097
21797W        W83108  25.179   9.165   0.821
21798W        W83109   3.799  31.599  12.832
21799W        W83110  27.468  17.140   1.855
21800W        W83111  35.419  26.019  12.364
21801W        W83112  18.179  39.503   3.187
21802W        W83113   2.912  10.674  13.420
21803W        W83114  42.981  42.516   3.348
21804W        W83115  18.161  28.550  13.462
21805W        W83116  21.706  30.133  11.946
21806W        W83117  18.253  39.838   0.804
21807W        W83118  16.314   9.268  13.469
21808W        W83119  30.586   0.988  11.584
21809W        W83120  40.368  40.995   1.716
21810W        W83121   2.872  27.979  14.334
21811W        W83122  13.769   4.883  12.095
21812W        W83123   4.241   3.337  14.468
21813W        W83124  29.464  32.962  14.977
21814W        W83125  18.687   9.219   1.855
21815W        W83126  27.446  29.030  13.057
21816W        W83127   2.398  21.701  10.975
21817W        W83128  36.482   0.899   2.401
21818W        W83129  40.912  27.560  13.965
21819W        W83130  15.682  36.950   0.444
21820W        W83131  43.479  33.976   4.287
21821W        W83132  43.391  36.876   4.124
21822W        W83133  37.946  26.124  14.473
21823W        W83134  36.043   5.261   0.259
21824W        W83135  41.913   8.901  12.552
21825W        W83136   6.715  26.561   2.359
21826W        W83137   4.708   8.733   4.832
21827W        W83138  41.812  23.585  12.053
21828W        W83139   3.884  36.512   3.358
21829W        W83140  31.487  40.811   4.828
21830W        W83141   0.358  38.889  14.843
21831W        W83142  38.453  40.864  10.485
21832W        W83143  35.881  32.414  12.837
21833W        W83144  22.129  18.549   1.767
21834W        W83145  29.918  20.052  12.855
21835W        W83146  13.266   7.369   1.864
21836W        W83147   6.786  39.944   1.355
21837W        W83148  27.970  37.505  13.356
21838W        W83149  35.564  30.497  14.021
21839W        W83150   3.890  37.994  12.827
21840W        W83151   0.494   0.947   1.890
21841W        W83152  12.326  40.383  11.005
21842W        W83153  27.474  32.033  13.418
21843W        W83154  32.927  25.656   0.915
21844W        W83155   6.258   3.221   2.752
21845W        W83156  20.161  19.710   3.179
21846W        W83157  34.555   5.825  14.411
21847W        W83158  18.651  21.059   1.379
21848W        W83159  23.000  33.592   3.668
21849W        W83160   7.745  20.264  11.475
21850W        W83161   5.850  43.874   1.250
21851W        W83162  18.098   4.282  11.858
21852W        W83163   7.686  31.139   1.429
21853W        W83164  37.060   5.693   3.634
21854W        W83165  10.351  37.833   1.735
21855W        W83166  27.641  29.053  14.359
21856W        W83167   5.272  30.577   1.777
21857W        W83168  24.539  27.162   0.295
21858W        W83169   0.870  36.045  12.488
21859W        W83170  27.668  44.984   1.440
21860W        W83171   0.265  33.566  11.435
21861W        W83172   9.385  43.326   0.329
21862W        W83173  12.354   6.716  14.865
21863W        W83174  39.026  34.498  13.888
21864W        W83175   9.316  30.495   2.185
21865W        W83176  24.996   6.840   0.968
21866W        W83177  32.553  10.649   4.322
21867W        W83178  28.149  20.705   2.838
21868W        W83179  22.226  20.621   4.760
21869W        W83180  28.982  29.603   0.785
21870W        W83181  30.007  39.903  12.037
21871W        W83182  42.469  27.975   4.795
21872W        W83183  29.051  36.966  11.031
21873W        W83184  25.580   5.789   2.274
21874W        W83185  31.487   7.377   2.323
21875W        W83186  25.692  20.766   2.284
21876W        W83187  23.100  27.511  11.554
21877W        W83188  14.659  44.299   3.858
21878W        W83189  16.273  25.607   3.253
21879W        W83190  26.113  17.234  14.396
21880W        W83191  27.477  36.013  14.421
21881W        W83192  13.637  15.765  14.805
21882W        W83193  19.664  30.933   4.338
21883W        W83194  37.043   9.863  13.978
21884W        W83195   6.210  27.969   9.976
21885W        W83196   9.171  19.193  12.951
21886W        W83197  36.410  15.314   4.829
21887W        W83198  22.149  16.748   2.699
21888W        W83199  39.878   1.923   4.129
21889W        W83200  22.626  22.038   2.662
21890W        W83201  32.011  26.185   0.460
21891W        W83202  19.198  36.956   5.180
21892W        W83203  11.211   0.493   3.764
21893W        W83204  37.073  13.167  11.417
21894W        W83205   0.812  10.233   1.811
21895W        W83206  28.490  27.123   3.198
21896W        W83207  22.149  19.613  13.054
21897W        W83208  13.649  26.133   1.785
21898W        W83209  35.376  28.098   0.276
21899W        W83210   7.891  24.666  11.129
21900W        W83211  26.024  14.588  12.900
21901W        W83212  13.118  16.204  12.849
21902W        W83213  20.747  11.175   4.271
21903W        W83214  34.918  15.682  14.457
21904W        W83215  26.520  10.242  10.984
21905W        W83216  39.917  43.946  14.310
21906W        W83217  33.497  16.092  12.016
21907W        W83218  41.786  23.166  14.511
21908W        W83219  40.818  26.675  11.936
21909W        W83220   0.805  22.208  13.005
21910W        W83221  24.114   3.316   4.678
21911W        W83222  32.528  21.720   2.197
21912W        W83223   7.748   7.390   0.819
21913W        W83224  20.156  40.403   9.949
21914W        W83225  20.250  19.182  10.949
21915W        W83226  37.964  39.465   2.751
21916W        W83227  37.514  36.085   2.402
21917W        W83228  44.765  33.427   0.832
21918W        W83229   7.768  37.402  11.075
21919W        W83230  21.609  42.918   0.381
21920W        W83231  15.256  38.422   4.733
21921W        W83232  17.690  14.150  12.552
21922W        W83233  40.989   5.403  12.433
21923W        W83234  26.070   3.239  13.894
21924W        W83235  40.439  21.124   4.184
21925W        W83236  22.197  24.481   2.745
21926W        W83237  43.399  32.924  14.468
21927W        W83238  15.591  40.356   5.283
21928W        W83239  11.799  18.092   4.314
21929W        W83240  24.037  41.832  13.340
21930W        W83241   7.179   1.763   0.776
21931W        W83242  10.638  26.673   1.338
21932W        W83243  12.356  26.971  10.936
21933W        W83244   2.951  39.884   2.369
21934W        W83245  39.524  42.792  11.066
21935W        W83246  16.794   4.363   2.764
21936W        W83247   4.747  42.827   4.708
21937W        W83248   8.680  17.205   4.206
21938W        W83249  34.977  41.941   2.256
21939W        W83250  18.785  11.680  11.448
21940W        W83251   8.331  35.882   2.849
21941W        W83252  24.166  25.121  12.840
21942W        W83253  33.603  23.084  12.539
21943W        W83254  19.553  19.061  14.414
21944W        W83255  44.780  38.516   1.291
21945W        W83256  27.493  23.542   2.710
21946W        W83257  29.468  10.762  13.522
21947W        W83258   5.252  40.807  10.593
21948W        W83259  37.476  15.644  12.382
21949W        W83260  20.701  44.298   1.866
21950W        W83261  18.721  16.692  14.315
21951W        W83262  35.942  41.993   2.803
21952W        W83263  24.084  19.285   9.932
21953W        W83264   7.394  39.851   3.315
21954W        W83265  21.561  25.001   1.390
21955W        W83266  34.445  39.903   1.888
21956W        W83267  15.824  12.282   0.412
21957W        W83268  17.727  13.317   3.725
21958W        W83269   1.794  34.422  12.476
21959W        W83270  42.878  44.762   0.371
21960W        W83271  44.493  12.695   2.712
21961W        W83272  42.499   3.947   4.166
21962W        W83273  29.983  41.295   1.390
21963W        W83274  26.676  15.686   3.191
21964W        W83275  38.443  29.594  14.456
21965W        W83276   2.360  28.136  14.444
21966W        W83277   1.337   4.830   4.657
21967W        W83278   7.771  13.105   0.951
21968W        W83279  30.942  27.046  14.766
21969W        W83280  10.268  17.261   4.661
21970W        W83281  25.482  22.686   4.205
21971W        W83282  32.593  26.961   4.146
21972W        W83283  41.009   2.792  11.065
21973W        W83284  10.353  24.028   3.301
21974W        W83285   4.835  15.214  11.879
21975W        W83286  16.639  29.923  13.325
21976W        W83287  42.446   1.466  13.372
21977W        W83288  26.976   2.910  14.811
21978W        W83289   9.349  43.342   2.900
21979W        W83290   0.798  10.723   2.744
21980W        W83291  22.580  20.528   4.159
21981W        W83292  41.829  25.219  11.391
21982W        W83293  43.484  43.271  11.574
21983W        W83294  10.219  17.213   5.167
21984W        W83295  34.578  10.170  11.552
21985W        W83296  23.512  27.675   1.266
21986W        W83297  33.403  22.672   0.825
21987W        W83298  22.583  21.220   2.198
21988W        W83299  28.527   3.861   1.430
21989W        W83300   8.262  25.992   4.651
21990W        W83301   2.380  32.633   3.869
21991W        W83302  15.207  18.206  14.842
21992W        W83303  40.030  13.316   4.687
21993W        W83304  41.833  30.022   1.733
21994W        W83305  13.727  13.791  12.916
21995W        W83306  24.019  16.213  13.318
21996W        W83307  40.050  43.512  13.952
21997W        W83308   9.306  34.037   0.797
21998W        W83309  29.032  26.113   4.818
21999W        W83310  22.722   4.438  11.997
22000W        W83311  42.017  32.528   2.797
22001W        W83312  29.484  37.351   3.382
22002W        W83313  10.806  30.051   1.828
22003W        W83314   7.710  32.581  11.889
22004W        W83315  16.186   5.211   3.707
22005W        W83316  19.551   3.948  10.508
22006W        W83317   2.882   6.768  13.983
22007W        W83318   3.800  32.456   1.860
22008W        W83319  22.168   4.211   1.392
22009W        W83320  37.350  13.292   3.865
22010W        W83321  31.446  26.547  14.766
22011W        W83322  42.810  31.912   9.932
22012W        W83323  38.065  31.629  11.435
22013W        W83324  30.647  44.895   0.961
22014W        W83325  37.557  10.722   3.192
22015W        W83326   9.359  10.355  13.011
22016W        W83327  42.776  11.363  11.905
22017W        W83328  16.604  13.824  12.487
22018W        W83329  12.211   1.409  13.795
22019W        W83330  38.455  10.147  12.861
22020W        W83331  15.608  36.065  10.126
22021W        W83332  41.850  11.756   5.277
22022W        W83333  28.642   2.818  12.959
22023W        W83334  29.506   3.453  11.862
22024W        W83335  37.499  24.562  12.957
22025W        W83336   7.810  42.779  11.607
22026W        W83337  19.561  11.738   3.775
22027W        W83338  36.898  23.548  13.307
22028W        W83339  14.303  12.646   4.605
22029W        W83340  31.052  40.938   1.874
22030W        W83341  22.234  42.429   4.666
22031W        W83342  39.946  16.738   3.788
22032W        W83343  37.366  33.515  13.346
22033W        W83344  25.189  31.921  12.070
22034W        W83345   4.874   5.323  13.381
22035W        W83346   4.203   5.856  10.949
22036W        W83347  21.023   3.325  11.070
22037W        W83348  14.595  42.810  13.917
22038W        W83349  31.138  37.937  11.409
22039W        W83350   8.804  14.685  14.985
22040W        W83351  20.661   5.780   2.304
22041W        W83352  26.574  15.234   1.389
22042W        W83353  31.610  34.118   4.650
22043W        W83354  22.071  26.459  11.885
22044W        W83355  20.682  37.049   2.277
22045W        W83356  22.997  39.522   2.419
22046W        W83357  24.499   4.827  13.013
22047W        W83358  22.653  43.396  10.146
22048W        W83359  16.710   4.851  13.346
22049W        W83360  20.629   5.211  14.935
22050W        W83361  43.453  26.028  13.045
22051W        W83362  27.998  26.627  14.959
22052W        W83363  23.606  41.822  10.572
22053W        W83364  15.213  39.318   1.445
22054W        W83365  32.026  20.069   3.194
22055W        W83366  35.902  37.572   0.735
22056W        W83367  28.080  10.340   1.718
22057W        W83368  26.959   5.243  11.926
22058W        W83369  29.031  10.866   0.811
22059W        W83370  44.364  21.245  13.389
22060W        W83371  41.395  44.829   0.269
22061W        W83372   0.476  10.303  13.859
22062W        W83373  19.631  17.676   3.343
22063W        W83374  19.753  29.524  11.595
22064W        W83375  24.092  11.329  11.940
22065W        W83376   2.877  36.535  10.518
22066W        W83377  33.501   2.868  14.968
22067W        W83378  35.908  43.301  10.628
22068W        W83379   7.673  40.481  10.569
22069W        W83380   6.911  23.595  14.425
22070W        W83381  18.170  31.084   3.365
22071W        W83382  29.060  13.627   4.665
22072W        W83383  14.281  21.688  11.488
22073W        W83384  29.491  20.572  12.933
22074W        W83385  21.748  33.548   2.821
22075W        W83386  36.374  24.113   3.317
22076W        W83387   9.176  13.676  12.040
22077W        W83388   8.686  41.342   0.372
22078W        W83389  11.272  30.613  12.926
22079W        W83390  18.675   8.742   2.708
22080W        W83391  23.520  33.563  14.305
22081W        W83392  15.251  38.830   2.367
22082W        W83393  25.499  44.956  10.904
22083W        W83394  21.043  26.533   3.763
22084W        W83395   2.351   7.297   0.355
22085W        W83396  23.598  17.194   5.143
22086W        W83397  38.509  25.098  10.415
22087W        W83398  11.316  26.493  13.026
22088W        W83399  27.528  11.197  11.886
22089W        W83400   9.156  17.251  10.595
22090W        W83401  27.147  39.502  13.451
22091W        W83402   5.353   0.892  12.091
22092W        W83403  10.799  16.787   4.794
22093W        W83404   2.323  25.539   2.265
22094W        W83405  27.132  32.093   2.414
22095W        W83406  12.752  39.049   3.194
22096W        W83407  15.610   2.929  14.886
22097W        W83408  17.095  10.851   4.624
22098W        W83409  38.382   7.842   0.418
22099W        W83410  31.990   8.249  13.344
22100W        W83411  16.097  29.646   1.266
22101W        W83412  42.827  38.917  11.895
22102W        W83413  41.959   3.787   0.788
22103W        W83414  17.067   0.480  13.812
22104W        W83415  15.657  26.137  12.876
22105W        W83416  43.916  26.526  14.321
22106W        W83417  29.083  15.259  12.016
22107W        W83418  41.506  42.469   1.286
22108W        W83419  44.469  17.661   0.859
22109W        W83420  19.626  12.232  10.536
22110W        W83421  17.081  28.116   4.825
22111W        W83422  44.753   8.840   1.785
22112W        W83423  44.957   7.688  14.446
22113W        W83424   3.250   5.203  14.379
22114W        W83425  22.249   0.282   1.849
22115W        W83426  38.452  17.662   0.259
22116W        W83427   3.863  34.920   1.910
22117W        W83428  41.025   4.835  14.820
22118W        W83429  37.973  25.045  11.511
22119W        W83430  31.141  43.356   1.838
22120W        W83431  29.943  40.433   2.890
22121W        W83432  27.555  16.670   3.668
22122W        W83433  14.128  29.556   0.799
22123W        W83434   6.750   5.388   1.367
22124W        W83435  43.883  12.774   0.283
22125W        W83436   0.855   7.759   3.759
22126W        W83437  42.822  30.417   1.868
22127W        W83438  19.601  24.174   3.280
22128W        W83439  44.790  41.528   2.819
22129W        W83440  15.168  27.004  11.036
22130W        W83441  10.755   3.901  14.783
22131W        W83442   1.951  44.804   4.614
22132W        W83443  41.902  28.487   1.725
22133W        W83444  26.566  16.292  12.366
22134W        W83445  22.007  38.526   0.321
22135W        W83446  22.179  24.206  13.545
22136W        W83447   2.244  24.140   4.745
22137W        W83448  33.422  24.990   2.689
22138W        W83449  17.634   4.730   4.210
22139W        W83450   0.314  18.625   4.764
22140W        W83451  30.515   8.205   2.666
22141W        W83452  40.489  25.051  11.124
22142W        W83453   4.407   1.842   4.833
22143W        W83454  43.442   9.376  10.645
22144W        W83455  41.432  21.121   4.743
22145W        W83456  29.638  24.039   0.839
22146W        W83457  23.081  43.340   0.860
22147W        W83458  27.125   5.920  13.540
22148W        W83459  30.450  44.281  11.960
22149W        W83460  22.171  35.873   3.692
22150W        W83461  43.785  24.586  14.351
22151W        W83462   2.797  29.505  10.510
22152W        W83463  24.023  19.270  14.477
22153W        W83464  18.101   1.758  12.049
22154W        W83465  30.093  24.493  13.353
22155W        W83466   2.759   2.228   3.315
22156W        W83467  26.499  24.205  13.391
22157W        W83468  34.480  22.724   2.841
22158W        W83469  37.994  17.587  10.906
22159W        W83470  34.488  37.924  12.830
22160W        W83471  28.153  35.394   3.283
22161W        W83472  33.045  11.737   2.894
22162W        W83473  29.656  28.136  13.885
22163W        W83474   2.880   3.770  13.546
22164W        W83475   0.354   1.780   4.808
22165W        W83476   5.927  14.185   5.735
22166W        W83477  19.752  12.796   1.445
22167W        W83478  17.636  14.110  13.845
22168W        W83479  44.901  20.134   1.316
22169W        W83480  43.431   2.431   1.698
22170W        W83481   1.325  35.539   0.757
22171W        W83482  15.163  26.563   3.377
22172W        W83483  41.339  42.811   4.117
22173W        W83484  39.421  39.451  14.357
22174W        W83485  38.505  18.142  14.461
22175W        W83486  44.282  36.474  14.351
22176W        W83487  12.769  39.980  14.862
22177W        W83488  10.150  17.165  13.322
22178W        W83489  25.048   8.202  10.969
22179W        W83490  22.140  26.209  11.453
22180W        W83491  26.184   8.815  11.612
22181W        W83492  15.312  10.377  10.929
22182W        W83493  35.492  33.901   1.385
22183W        W83494   6.399  30.475   2.793
22184W        W83495  41.014   1.313  12.358
22185W        W83496  20.162  42.835   2.763
22186W        W83497  42.933  27.035   1.414
22187W        W83498  18.783  35.925  10.632
22188W        W83499  13.205  12.633  11.408
22189W        W83500  15.689  34.949   0.966
22190W        W83501  34.973  10.354   3.242
22191W        W83502  33.467  31.098  10.938
22192W        W83503  20.127   5.857  10.978
22193W        W83504  18.700   3.776   0.464
22194W        W83505  20.706  18.257  14.366
22195W        W83506  31.148  39.450  14.852
22196W        W83507  38.357  25.691   0.393
22197W        W83508  28.081  39.876  13.332
22198W        W83509  19.767   7.315  14.760
22199W        W83510   6.263  12.629   1.318
22200W        W83511  38.022   9.335   3.248
22201W        W83512  30.939  16.721   3.297
22202W        W83513  14.119  14.287   2.740
22203W        W83514   8.780   0.931   0.478
22204W        W83515   4.802  42.907   0.902
22205W        W83516  43.305  21.662   2.675
22206W        W83517  25.703  12.849   1.862
22207W        W83518  16.250  29.603   4.661
22208W        W83519  44.851  40.873  12.043
22209W        W83520  33.006  13.337  13.054
22210W        W83521   4.916   2.727   3.836
22211W        W83522  21.119  32.616   9.446
22212W        W83523   5.924  44.504   2.349
22213W        W83524  18.624   6.330  12.371
22214W        W83525  40.955  27.620   1.300
22215W        W83526   6.287  44.851   4.682
22216W        W83527  31.472   5.276  13.823
22217W        W83528  18.582  29.923  14.821
22218W        W83529  38.326  24.517  13.322
22219W        W83530  28.010   3.436  12.958
22220W        W83531  22.699  16.087   3.694
22221W        W83532  31.486   1.880   4.643
22222W        W83533  27.994  23.695  14.339
22223W        W83534  35.016  15.233  10.570
22224W        W83535  17.685  16.082  10.467
22225W        W83536  36.591  22.655   4.769
22226W        W83537  34.535  29.638   1.909
22227W        W83538  22.109  33.924  13.057
22228W        W83539   1.366  15.655  14.953
22229W        W83540  12.834   4.346  13.497
22230W        W83541  22.622   7.358   1.431
22231W        W83542  22.228  25.493   4.700
22232W        W83543  18.082  20.532  11.400
22233W        W83544  17.247   8.392  12.051
22234W        W83545   5.397   6.709   4.644
22235W        W83546  31.475   4.298   3.255
22236W        W83547  14.216  11.626   5.091
22237W        W83548   6.186  10.180  14.372
22238W        W83549  16.252  37.409   0.740
22239W        W83550   6.199  29.656   2.256
22240W        W83551  37.053  33.603   3.840
22241W        W83552   3.743   4.705  12.087
22242W        W83553  16.177  23.654   3.252
22243W        W83554  27.181  12.636  10.603
22244W        W83555   5.817   5.276   0.784
22245W        W83556   8.180  30.974   3.241
22246W        W83557  10.781  30.128   1.277
22247W        W83558  26.158  34.613  11.044
22248W        W83559   0.799   6.315  11.528
22249W        W83560  17.222  33.497   5.096
22250W        W83561   7.228  40.448   0.404
22251W        W83562  15.297  36.449   4.176
22252W        W83563  26.173  43.995   4.830
22253W        W83564  25.484  44.448   3.643
22254W        W83565  10.327   4.728  10.914
22255W        W83566  14.235  41.820  12.369
22256W        W83567  32.123  31.917   3.762
22257W        W83568  16.287  42.376  12.039
22258W        W83569  35.927  26.476   5.156
22259W        W83570  18.127   4.384   0.475
22260W        W83571  30.109  17.624   0.921
22261W        W83572  35.497  12.127   4.639
22262W        W83573  39.361  43.484  11.479
22263W        W83574  20.639  41.365  13.991
22264W        W83575  23.591  41.313   1.439
22265W        W83576   7.257  14.322   4.818
22266W        W83577   3.932  28.983   1.886
22267W        W83578  16.116  13.693  14.882
22268W        W83579  15.758  34.444  10.026
22269W        W83580  19.643  39.925   3.653
22270W        W83581  40.386  25.711   3.789
22271W        W83582  34.087  44.381   2.193
22272W        W83583  43.833  39.452  13.540
22273W        W83584  43.012  17.565  10.431
22274W        W83585  32.956  34.610   0.962
22275W        W83586  32.588  16.751  13.950
22276W        W83587   4.404  23.651   1.299
22277W        W83588  34.439  12.172   2.302
22278W        W83589   3.365   1.887   1.748
22279W        W83590   8.814  43.501   2.854
22280W        W83591   9.676  40.374   1.917
22281W        W83592  17.145  43.400  11.397
22282W        W83593  42.484   6.305  13.960
22283W        W83594  12.203  25.021  13.874
22284W        W83595   3.903  37.861   3.374
22285W        W83596  34.918  35.467   2.240
22286W        W83597  17.141  11.825   2.711
22287W        W83598  35.909  43.831  11.487
22288W        W83599  32.505  33.417   4.689
22289W        W83600  10.177  35.379   2.341
22290W        W83601  44.298  41.979  14.402
22291W        W83602  34.589  31.565   4.801
22292W        W83603  31.590  30.979  11.400
22293W        W83604  39.047  10.376  12.532
22294W        W83605  37.507  36.393   4.797
22295W        W83606  22.244  12.781   1.249
22296W        W83607   8.835  32.890   1.228
22297W        W83608  10.365  22.648  12.988
22298W        W83609  39.503  22.012  10.574
22299W        W83610  18.581  12.188   1.305
22300W        W83611   7.229   6.231   4.275
22301W        W83612  18.580  23.530  10.014
22302W        W83613  42.958  13.646   4.255
22303W        W83614  43.277  42.516   0.405
22304W        W83615  36.567  29.474   0.420
22305W        W83616  12.277   4.366  13.002
22306W        W83617   0.856  43.286   2.808
22307W        W83618  32.051   1.459   0.937
22308W        W83619   9.703  11.343  10.604
22309W        W83620  25.216  26.038   3.232
22310W        W83621  35.024  26.065   1.817
22311W        W83622  20.220  15.745  14.344
22312W        W83623  34.067  40.028  13.381
22313W        W83624  44.775  42.954  12.350
22314W        W83625  19.128  41.845  10.992
22315W        W83626  26.093  11.825   4.309
22316W        W83627  27.066  11.748  12.906
22317W        W83628  23.591  41.950   4.761
22318W        W83629  13.240  44.389  14.286
22319W        W83630  43.912   1.897   4.226
22320W        W83631  14.113   1.804   2.307
22321W        W83632  11.205   3.816  12.893
22322W        W83633  29.664  35.513  12.910
22323W        W83634  19.656  16.192  12.015
22324W        W83635  39.903  19.229   2.764
22325W        W83636  39.887   4.793   2.306
22326W        W83637  34.431  13.677  14.955
22327W        W83638  23.161  19.594   0.832
22328W        W83639  19.244   7.818  10.626
22329W        W83640   5.821  31.459   4.147
22330W        W83641  43.836   9.376  10.409
22331W        W83642   5.913  38.537   3.797
22332W        W83643  26.073  41.944  12.349
22333W        W83644  14.621  37.388   0.329
22334W        W83645  11.830   3.332   2.676
22335W        W83646  28.135  35.599  11.863
22336W        W83647  10.802  18.161  10.890
22337W        W83648  38.946  17.719   0.299
22338W        W83649  18.216  44.315  11.540
22339W        W83650  26.171   6.374  12.345
22340W        W83651   3.370  43.869   0.400
22341W        W83652  18.683  11.357  14.900
22342W        W83653  43.950   5.251  10.557
22343W        W83654  39.353   8.731   2.226
22344W        W83655  42.963  41.972   4.827
22345W        W83656  13.834   4.935  10.557
22346W        W83657  33.554  16.294  14.794
22347W        W83658  13.186  10.662  12.842
22348W        W83659  32.454  39.813  12.062
22349W        W83660  27.194  38.856   3.648
22350W        W83661  38.526   0.937   4.714
22351W        W83662  17.759  39.900   3.775
22352W        W83663  37.400  10.847  13.062
22353W        W83664  17.165  18.151   1.376
22354W        W83665  28.602  27.097  11.446
22355W        W83666  11.787  11.788  10.971
22356W        W83667  17.681   7.366  14.860
22357W        W83668  23.584   7.851   4.190
22358W        W83669  30.015  21.029   4.714
22359W        W83670  33.904   9.660   1.799
22360W        W83671   3.282  38.884  12.891
22361W        W83672  35.921  15.203  14.466
22362W        W83673   0.277  38.446  11.002
22363W        W83674   3.255  33.530   1.210
22364W        W83675  36.569  27.451   3.243
22365W        W83676  14.276  18.107  11.497
22366W        W83677  11.196  35.063   0.277
22367W        W83678  14.262  23.232  12.937
22368W        W83679  42.988   2.443  11.932
22369W        W83680  38.950  44.839  13.364
22370W        W83681   8.319  27.036  13.513
22371W        W83682  12.193  14.300  12.041
22372W        W83683  19.716  25.561   3.844
22373W        W83684  36.353  44.501   0.953
22374W        W83685  21.065  40.929   0.378
22375W        W83686  37.868  38.848  12.558
22376W        W83687   3.385  34.450   0.471
22377W        W83688  19.246  36.391  14.433
22378W        W83689   4.245  43.502   0.427
22379W        W83690  39.842   8.183  12.436
22380W        W83691  17.777   8.812  12.941
22381W        W83692   1.478  25.479   0.296
22382W        W83693  33.969   2.936  13.482
22383W        W83694  13.682  21.161  11.575
22384W        W83695  44.272  18.685   2.791
22385W        W83696  16.254  32.091  12.537
22386W        W83697  25.617  12.199   2.303
22387W        W83698   0.965  30.480   4.258
22388W        W83699  44.793   6.750   1.426
22389W        W83700  11.290   9.802  13.385
22390W        W83701   6.244  32.543   0.305
22391W        W83702   1.339  10.351  10.113
22392W        W83703  25.591  18.579   5.126
22393W        W83704  21.107  11.752  11.038
22394W        W83705  26.640  26.165  14.440
22395W        W83706  42.420   8.772   4.743
22396W        W83707  13.792  35.471   1.230
22397W        W83708  33.937  44.898   3.220
22398W        W83709  39.896  30.583   3.335
22399W        W83710  25.530  41.421   0.868
22400W        W83711  43.948   8.262  11.951
22401W        W83712  12.347  13.752  11.000
22402W        W83713  31.624  37.871  11.406
22403W        W83714  38.044   3.953   4.805
22404W        W83715  11.288  29.032   4.805
22405W        W83716   4.809  24.579  12.967
22406W        W83717  20.202  38.384   9.509
22407W        W83718  41.020  18.614  11.110
22408W        W83719  30.064   4.792  13.043
22409W        W83720  10.172   6.750  11.448
22410W        W83721  32.413   1.253   0.463
22411W        W83722  20.586  30.461  14.813
22412W        W83723  20.746   5.804  13.342
22413W        W83724   1.255  24.577   3.641
22414W        W83725  19.208  19.547  14.000
22415W        W83726   9.333   3.387  11.090
22416W        W83727  15.210  14.783  11.070
22417W        W83728   9.370  33.428  14.467
22418W        W83729  44.949  27.464  12.878
22419W        W83730   7.756  10.247   4.821
22420W        W83731   4.328  43.427  10.948
22421W        W83732  17.590   9.854  12.516
22422W        W83733   7.386   8.368   2.233
22423W        W83734  13.816  29.663  12.999
22424W        W83735  37.422  19.660  13.471
22425W        W83736  27.021  14.187  11.481
22426W        W83737  35.576  27.998   1.394
22427W        W83738  10.846  24.192  14.488
22428W        W83739   2.409  45.000   2.211
22429W        W83740  37.902  15.266   4.145
22430W        W83741  14.739   0.979  11.399
22431W        W83742  40.053  41.861   1.910
22432W        W83743  41.847  37.560  10.057
22433W        W83744  25.468   0.918  14.425
22434W        W83745   9.815  39.856   2.759
22435W        W83746   7.314  43.303   2.866
22436W        W83747  36.558   2.839   1.394
22437W        W83748  18.160  16.802  13.062
22438W        W83749  22.009  26.049  13.020
22439W        W83750  42.895  23.221   4.684
22440W        W83751  29.150  44.329   1.431
22441W        W83752  13.140  36.883  11.438
22442W        W83753  22.022  36.372   3.722
22443W        W83754   2.234   7.217  14.419
22444W        W83755  12.124  42.474   0.937
22445W        W83756  39.816  40.967   0.750
22446W        W83757  20.532  31.428  13.399
22447W        W83758  11.198  33.495   3.194
22448W        W83759  37.378  16.661   3.790
22449W        W83760   3.740  36.859  12.010
22450W        W83761  12.615  28.994  14.412
22451W        W83762  14.331  40.346  10.643
22452W        W83763  30.580   7.745   3.235
22453W        W83764  11.236  31.645  11.401
22454W        W83765  37.488  33.533   5.270
22455W        W83766   2.933  44.792   2.391
22456W        W83767   2.390  14.326  11.047
22457W        W83768   8.381  37.933  13.489
22458W        W83769  21.586   0.375  13.839
22459W        W83770  21.120  40.836  12.950
22460W        W83771   0.913  11.262  13.033
22461W        W83772   9.754  22.016  12.403
22462W        W83773  28.013  33.909   0.306
22463W        W83774  22.629  44.476  13.456
22464W        W83775  35.430  15.748   2.397
22465W        W83776  14.733  23.692  13.964
22466W        W83777  20.075  32.532   0.808
22467W        W83778   4.716  40.881   1.261
22468W        W83779   0.893   2.760  11.556
22469W        W83780   9.392  22.064  11.918
22470W        W83781   7.909  43.406  10.442
22471W        W83782  31.431   8.380   0.842
22472W        W83783  19.269   5.409  12.088
22473W        W83784  35.059  37.559  14.863
22474W        W83785  14.325   5.788  13.418
22475W        W83786  18.634  33.589  11.541
22476W        W83787  18.176   6.913  13.490
22477W        W83788  21.699  38.966   0.469
22478W        W83789  26.542  41.319   2.330
22479W        W83790   5.824  13.725   2.315
22480W        W83791  11.753  40.888   0.947
22481W        W83792  26.586  26.501   4.309
22482W        W83793  31.911   9.774   2.300
22483W        W83794  22.033  20.213   2.239
22484W        W83795  29.135  19.651   1.719
22485W        W83796  19.766  26.010   1.710
22486W        W83797   6.383   5.831   2.365
22487W        W83798  42.288  10.317   1.235
22488W        W83799   1.299  40.479  12.379
22489W        W83800  11.859  22.183  13.354
22490W        W83801  15.320  41.303  13.830
22491W        W83802   8.864  19.151  14.481
22492W        W83803   1.320  43.456  11.868
22493W        W83804  35.046   6.357   4.222
22494W        W83805  44.772  35.093   2.245
22495W        W83806  24.226   9.647  13.967
22496W        W83807  31.459  23.532  10.934
22497W        W83808  43.451  18.711   0.266
22498W        W83809   4.413  12.124  11.114
22499W        W83810  32.422  17.163  13.938
22500W        W83811  28.050  17.061  11.452
22501W        W83812  13.621  21.141   2.741
22502W        W83813  18.139  43.349  10.559
22503W        W83814  33.098  16.754  11.489
22504W        W83815  35.387  24.556  13.030
22505W        W83816  34.918  24.059   4.814
22506W        W83817  33.477   0.279   4.167
22507W        W83818  38.824  31.026   3.809
22508W        W83819   5.810   6.911  14.024
22509W        W83820   9.705  13.121   2.397
22510W        W83821  39.365   9.394  12.074
22511W        W83822  14.610  30.486  12.983
22512W        W83823  32.534  24.528  12.985
22513W        W83824  10.278  42.001   0.479
22514W        W83825  35.375  42.995   0.954
22515W        W83826   7.821  23.001   2.675
22516W        W83827   9.681  17.769  13.848
22517W        W83828  42.942   1.818  11.119
22518W        W83829  27.635  34.565   1.752
22519W        W83830  29.047   6.382  12.949
22520W        W83831  11.627  19.708  12.471
22521W        W83832   5.202  13.791   0.251
22522W        W83833  27.047  44.451  10.931
22523W        W83834   8.846  16.093  13.948
22524W        W83835  22.132   1.260  14.340
22525W        W83836  43.956  21.705  12.487
22526W        W83837  25.504  12.247  10.965
22527W        W83838  44.919  38.883  10.439
22528W        W83839  38.059  34.922   3.651
22529W        W83840  21.533  40.306   1.917
22530W        W83841  12.131  35.924   4.760
22531W        W83842  40.454  39.521  13.901
22532W        W83843  31.048   1.365  12.509
22533W        W83844  32.422  15.208   1.331
22534W        W83845  35.567  31.980  14.976
22535W        W83846  17.080  36.558   0.440
22536W        W83847   8.789  11.714   5.134
22537W        W83848   2.232  10.186  10.563
22538W        W83849  11.366   7.370  10.970
22539W        W83850  40.315  41.949  11.575
22540W        W83851  25.499  29.937  11.514
22541W        W83852  30.955  13.155  10.467
22542W        W83853  21.751  11.812  11.557
22543W        W83854  12.834  14.734   1.258
22544W        W83855  36.081  43.011  13.455
22545W        W83856  29.607  17.741   3.787
22546W        W83857  12.683  17.589  11.518
22547W        W83858  30.945  12.749   0.420
22548W        W83859  29.929  42.800  13.370
22549W        W83860  39.449  14.189  12.959
22550W        W83861  15.292  17.252  11.581
22551W        W83862  14.252  18.704   1.442
22552W        W83863   1.812  31.032   2.388
22553W        W83864  35.431   0.283   1.904
22554W        W83865  39.373  33.035  11.548
22555W        W83866   2.278   8.181   4.804
22556W        W83867  41.522  18.086   4.814
22557W        W83868  23.194  38.947   2.701
22558W        W83869   9.667  35.903   2.344
22559W        W83870   2.434  38.487   3.642
22560W        W83871  28.513  26.649   0.892
22561W        W83872  17.593  31.554   1.894
22562W        W83873  31.985  40.396  12.861
22563W        W83874  34.554  42.333  11.993
22564W        W83875  28.602  16.157   2.411
22565W        W83876  23.518  37.018   5.150
22566W        W83877   4.210   0.469  13.830
22567W        W83878  21.739  31.103   1.793
22568W        W83879   3.380  42.849  14.339
22569W        W83880  33.553  12.142   2.898
22570W        W83881  37.439  28.098  10.945
22571W        W83882  32.440  29.653   2.244
22572W        W83883  19.712  36.991   3.149
22573W        W83884   7.234  17.733   0.762
22574W        W83885  44.421   9.152   3.331
22575W        W83886  14.596  18.756   4.151
22576W        W83887   1.385  23.099   3.662
22577W        W83888  28.453  37.904  11.860
22578W        W83889  41.997  25.083   5.322
22579W        W83890  22.677   0.977  14.973
22580W        W83891   8.183   6.219  11.554
22581W        W83892  32.920   6.685  11.448
22582W        W83893  21.039   4.922  13.983
22583W        W83894  36.356  27.031  13.441
22584W        W83895  32.437  21.661   1.837
22585W        W83896  42.013  26.510  14.515
22586W        W83897  12.251   3.881   1.295
22587W        W83898  12.286  18.710   0.907
22588W        W83899  25.696  37.417  11.380
22589W        W83900  44.882  21.223  10.415
22590W        W83901  37.074  43.914   0.350
22591W        W83902  38.336  10.666   1.249
22592W        W83903  30.521  17.644   1.781
22593W        W83904  30.996  23.573  12.550
22594W        W83905  24.481   9.697   4.769
22595W        W83906  38.465  13.201   2.415
22596W        W83907  15.748  32.890   2.786
22597W        W83908  24.559  39.548  14.324
22598W        W83909  14.239   6.903  11.897
22599W        W83910  23.735  22.589   4.756
22600W        W83911  10.634  23.184   2.883
22601W        W83912  44.774  41.391   3.285
22602W        W83913   6.265   1.459   2.316
22603W        W83914  26.010  12.255   4.757
22604W        W83915   5.249  23.112   3.700
22605W        W83916  29.025   6.797  10.503
22606W        W83917  35.009   7.374  10.605
22607W        W83918  34.900  41.437  13.458
22608W        W83919  34.965  40.937   1.840
22609W        W83920  33.903  24.050   3.723
22610W        W83921  18.781  34.423   3.372
22611W        W83922   1.349   2.875  14.858
22612W        W83923   5.866  31.037   4.757
22613W        W83924  12.801  27.571   0.290
22614W        W83925   3.712   9.185   0.253
22615W        W83926   3.289   0.842   3.709
22616W        W83927  21.169   1.961   1.385
22617W        W83928  39.988   9.171   3.178
22618W        W83929   7.269   7.715   0.303
22619W        W83930   0.401  23.734  11.446
22620W        W83931  37.034  29.570  14.506
22621W        W83932   8.353  33.956  13.896
22622W        W83933  11.244   5.895  11.978
22623W        W83934  27.556  41.835   0.336
22624W        W83935  38.492   2.414  10.433
22625W        W83936  16.223  16.577  10.897
22626W        W83937  32.092   9.180  13.794
22627W        W83938  44.502   8.828   2.706
22628W        W83939  15.165  26.991  12.021
22629W        W83940  40.467   4.222  14.392
22630W        W83941   9.274   0.452  10.527
22631W        W83942  31.949   7.334  14.421
22632W        W83943   5.836  10.289  11.429
22633W        W83944  22.024  36.005   0.774
22634W        W83945  42.898  26.119   1.353
22635W        W83946  23.541  12.761  12.922
22636W        W83947  22.016  43.392   5.141
22637W        W83948  31.920  41.325   2.233
22638W        W83949  35.875   7.801   2.345
22639W        W83950  42.483  33.605  11.380
22640W        W83951  11.156  28.097   3.383
22641W        W83952  16.240  18.249   2.322
22642W        W83953   1.836  13.771   0.318
22643W        W83954  30.056  24.994   0.910
22644W        W83955  41.529   6.308   3.669
22645W        W83956  10.822  38.870  10.483
22646W        W83957  42.982  20.542  11.018
22647W        W83958  19.230  16.177   4.345
22648W        W83959  26.171  14.311   1.428
22649W        W83960  16.787  29.582   4.345
22650W        W83961  34.527   9.303  13.368
22651W        W83962  14.251  20.558   3.720
22652W        W83963  25.124  40.851   3.179
22653W        W83964  10.800  40.410  12.441
22654W        W83965  29.494  24.612   3.640
22655W        W83966  28.077   7.261   4.302
22656W        W83967  27.582  39.944   1.709
22657W        W83968  20.248  41.346  12.387
22658W        W83969  37.438  39.920  11.590
22659W        W83970   1.838  15.684   1.817
22660W        W83971  31.479  15.086   1.856
22661W        W83972  10.679  29.497   1.833
22662W        W83973  26.983   3.387   3.743
22663W        W83974  43.466  39.360  14.462
22664W        W83975  22.712  20.614   4.708
22665W        W83976  24.720  30.915   1.298
22666W        W83977  19.285   5.434  11.375
22667W        W83978  35.051  27.969  10.508
22668W        W83979  32.605  25.704  11.106
22669W        W83980  19.745  27.470  14.396
22670W        W83981  19.660   0.455  10.592
22671W        W83982   9.314  16.662  12.485
22672W        W83983  23.144   1.899  14.882
22673W        W83984  28.169  32.420   2.715
22674W        W83985  29.173  39.386  13.373
22675W        W83986  38.855   6.275   0.900
22676W        W83987  16.106   4.242  13.494
22677W        W83988  38.825  16.732  11.978
22678W        W83989  27.124  10.197   0.966
22679W        W83990  34.459   0.338   4.113
22680W        W83991  11.167  27.656   1.419
22681W        W83992  29.483  23.990   3.280
22682W        W83993  10.734   3.312   3.817
22683W        W83994  37.998   3.255   0.774
22684W        W83995   1.778  18.600  13.792
22685W        W83996  27.109   8.865  12.415
22686W        W83997  12.317  24.034   2.716
22687W        W83998  30.470  36.588  10.956
22688W        W83999  31.128   3.268   1.795
22689W        W84000  19.737  23.717   0.406
22690W        W84001   2.419  37.486  11.965
22691W        W84002  15.751  25.537   3.381
22692W        W84003   6.206  42.863   0.244
22693W        W84004  16.184  40.847  12.096
22694W        W84005   9.266   2.922   4.243
22695W        W84006  11.772   6.700  14.289
22696W        W84007  21.705  24.541  13.938
22697W        W84008  36.913   8.398  12.892
22698W        W84009   0.852  33.105   0.919
22699W        W84010  35.036  39.970  14.949
22700W        W84011  19.759  22.640  12.942
22701W        W84012  39.370   9.834  13.403
22702W        W84013  38.062  37.431  10.596
22703W        W84014  29.543  42.316  10.429
22704W        W84015   3.728  17.089  13.449
22705W        W84016  30.441  18.646  14.457
22706W        W84017  30.148  24.688  10.434
22707W        W84018  40.811  43.277  14.995
22708W        W84019  10.376  25.548   1.784
22709W        W84020  31.604  31.953   1.860
22710W        W84021  16.808  32.618  12.034
22711W        W84022  19.661  24.162   5.132
22712W        W84023  25.491  13.789  14.967
22713W        W84024  17.765  35.479   2.313
22714W        W84025  37.851   9.807  14.363
22715W        W84026  37.481  17.763  11.425
22716W        W84027  14.738  16.166  12.478
22717W        W84028  30.636  22.649   4.816
22718W        W84029  27.496  37.031   4.611
22719W        W84030   7.770  37.882  14.019
22720W        W84031  23.590  14.139   1.361
22721W        W84032  16.704  25.985  13.977
22722W        W84033  10.173   0.852   5.105
22723W        W84034   4.789  38.398  13.485
22724W        W84035  41.039  36.362   1.425
22725W        W84036   2.735   6.884  10.494
22726W        W84037  40.879  28.112  13.457
22727W        W84038   1.259   8.700  10.892
22728W        W84039   5.871  11.824   2.789
22729W        W84040  16.211  39.889   0.445
22730W        W84041  26.642  37.533  11.386
22731W        W84042  26.001   2.295  10.928
22732W        W84043  33.906  21.242   3.198
22733W        W84044  38.982  39.538   0.436
22734W        W84045  23.573  41.965   1.262
22735W        W84046  43.876  14.113  10.562
22736W        W84047   3.909  29.143  10.102
22737W        W84048  15.182  21.034  12.419
22738W        W84049   2.232  43.461  13.012
22739W        W84050  24.003  35.361   2.360
22740W        W84051  31.976   6.249   3.349
22741W        W84052  27.584  12.360  10.498
22742W        W84053  12.270  44.426  10.472
22743W        W84054  32.534  29.159   0.338
22744W        W84055  28.568  18.668  11.098
22745W        W84056  39.822  35.858   2.252
22746W        W84057   6.686  24.531   4.829
22747W        W84058  35.904   9.883  13.925
22748W        W84059  12.617  11.244   4.810
22749W        W84060  34.381  33.003  13.064
22750W        W84061   2.315  33.882  13.910
22751W        W84062  30.020   3.904   0.381
22752W        W84063  17.263   8.741  11.872
22753W        W84064  14.644  43.509  14.441
22754W        W84065  15.241  19.074  11.980
22755W        W84066  28.162  14.102   0.246
22756W        W84067  21.091  18.623   5.741
22757W        W84068  20.105   4.837   0.775
22758W        W84069  39.870  41.298  11.954
22759W        W84070  19.541  30.500   3.666
22760W        W84071  10.726  10.718  14.505
22761W        W84072  21.673   5.796  12.094
22762W        W84073  11.700  36.584  13.908
22763W        W84074  20.114   3.909   3.328
22764W        W84075  20.646  14.814  13.331
22765W        W84076   8.373   8.803   3.833
22766W        W84077  10.673  27.447  11.968
22767W        W84078   2.727  14.706   3.281
22768W        W84079   3.270   4.335   4.786
22769W        W84080  29.508  25.199   9.932
22770W        W84081  12.204  12.633   3.275
22771W        W84082  27.496  32.009   4.789
22772W        W84083  19.196  12.646  13.522
22773W        W84084  15.713  30.521   2.673
22774W        W84085  31.544   7.821  11.600
22775W        W84086  28.152  39.346   3.633
22776W        W84087  40.948   7.897  13.523
22777W        W84088  41.787   8.220   1.875
22778W        W84089  11.290  43.295  12.990
22779W        W84090   0.359  42.885  12.500
22780W        W84091  19.244  35.073  14.448
22781W        W84092   6.223  40.818   1.397
22782W        W84093  10.843  30.624  14.820
22783W        W84094  41.422  26.479  14.381
22784W        W84095  15.301  39.463  14.899
22785W        W84096   9.739  24.101  10.469
22786W        W84097  26.634  33.573   3.863
22787W        W84098  44.308  34.927   3.787
22788W        W84099  22.114  43.479   1.299
22789W        W84100   9.394   5.830   1.284
22790W        W84101  15.758  23.172  12.432
22791W        W84102   6.341  24.615   0.457
22792W        W84103  39.038  40.468   4.694
22793W        W84104  21.615  29.609   1.398
22794W        W84105  15.787   4.238  14.286
22795W        W84106   5.879   2.745   4.277
22796W        W84107  15.597  13.331  14.818
22797W        W84108  16.093  22.222   4.323
22798W        W84109  29.007  32.578   4.115
22799W        W84110   3.738  24.083  12.433
22800W        W84111   7.403  12.856   1.712
22801W        W84112  13.728   7.245  12.895
22802W        W84113  23.168  20.625  11.123
22803W        W84114  22.726   3.371   1.355
22804W        W84115   3.794  37.448  14.300
22805W        W84116  44.322  41.978  10.408
22806W        W84117  22.249   2.786  13.496
22807W        W84118   9.781  44.765  11.033
22808W        W84119  43.484  37.900   3.855
22809W        W84120  43.016  20.735   4.686
22810W        W84121  26.963  19.676   3.778
22811W        W84122  22.127  28.554  13.954
22812W        W84123  38.482   0.291   1.359
22813W        W84124   8.842  17.235  12.851
22814W        W84125  10.264  19.689   1.234
22815W        W84126  39.955  12.256   4.128
22816W        W84127  31.131   5.324   3.846
22817W        W84128  43.899  38.826  11.433
22818W        W84129  13.723  44.493   2.802
22819W        W84130  18.659   9.301  13.546
22820W        W84131  42.998  27.179  13.435
22821W        W84132  13.701  19.282   4.327
22822W        W84133  36.524   9.762   4.753
22823W        W84134  32.491  30.123  11.104
22824W        W84135  21.083   7.381  13.000
22825W        W84136  20.712  28.970  14.778
22826W        W84137  42.508  32.916  12.894
22827W        W84138  28.942  29.571  14.960
22828W        W84139  13.226  19.596  11.576
22829W        W84140  10.723  18.596   4.146
22830W        W84141  23.174  22.067   2.197
22831W        W84142  38.861  35.412   2.301
22832W        W84143  33.507  11.317  10.086
22833W        W84144   7.787  40.411   4.336
22834W        W84145  27.593  34.447  10.440
22835W        W84146  24.141  37.061   2.763
22836W        W84147  40.993  32.095  14.302
22837W        W84148  23.164  25.548   4.273
22838W        W84149  16.641  44.397  12.456
22839W        W84150  20.195  34.377  11.104
22840W        W84151  33.625  25.579   3.161
22841W        W84152  15.201   8.235  13.823
22842W        W84153  25.489  23.038   0.420
22843W        W84154  33.019   2.914  14.028
22844W        W84155  31.974  28.486   1.736
22845W        W84156   3.337  20.547  14.329
22846W        W84157   7.894  22.034   4.821
22847W        W84158  10.206  40.458   1.362
22848W        W84159  13.744  44.911  13.957
22849W        W84160   1.424   7.385   4.776
22850W        W84161  23.576   5.223  13.906
22851W        W84162  19.282  33.112  12.964
22852W        W84163  11.253  36.479   1.721
22853W        W84164   6.838  20.550  10.941
22854W        W84165  23.090  35.032   1.865
22855W        W84166  22.554  35.899   5.276
22856W        W84167  36.878  19.591   1.214
22857W        W84168  16.125  28.990  13.030
22858W        W84169   5.710  15.589  11.533
22859W        W84170   9.675   3.328   5.205
22860W        W84171  37.974   3.417  11.408
22861W        W84172   0.855   1.375   3.856
22862W        W84173  35.595  21.545   4.695
22863W        W84174  26.028  25.209   1.762
22864W        W84175   2.729   9.855   1.270
22865W        W84176   9.778  13.699  10.618
22866W        W84177   9.385  28.173   3.843
22867W        W84178   2.843  40.913   1.707
22868W        W84179  19.569   1.819   0.855
22869W        W84180  25.181   7.703  13.322
22870W        W84181  44.815  18.155   2.664
22871W        W84182  13.787  23.695   2.267
22872W        W84183  39.003  27.082   4.839
22873W        W84184  31.620  29.165   0.731
22874W        W84185  33.590  42.396   1.708
22875W        W84186  16.182   2.889  10.987
22876W        W84187  17.116  15.603   3.185
22877W        W84188  14.231  31.437  13.920
22878W        W84189   8.280   9.655  11.459
22879W        W84190  38.474   4.417  11.438
22880W        W84191  28.018  44.995   1.708
22881W        W84192  21.070  41.997   3.199
22882W        W84193  28.162  25.648   2.180
22883W        W84194  12.189   9.844   2.667
22884W        W84195  19.053  32.520  14.777
22885W        W84196   3.919  28.986   1.286
22886W        W84197  19.205  43.863   1.433
22887W        W84198   2.383  14.277  10.118
22888W        W84199   9.186  41.502  12.487
22889W        W84200  25.049  42.459   4.263
22890W        W84201  16.188  19.612   2.840
22891W        W84202  24.701  37.901   1.933
22892W        W84203  32.910  28.656  12.895
22893W        W84204   9.690  33.045   4.686
22894W        W84205  40.340  40.888   2.857
22895W        W84206  42.348   6.771   1.852
22896W        W84207  32.975  11.150   0.353
22897W        W84208  15.750   0.982   1.808
22898W        W84209  17.174  33.388   2.410
22899W        W84210  43.892  39.954   4.150
22900W        W84211  21.097  16.744   0.848
22901W        W84212  11.169  15.772  14.851
22902W        W84213  28.513  37.082  11.561
22903W        W84214  15.214  28.061  10.060
22904W        W84215  19.176  30.988   2.882
22905W        W84216  38.833  35.517  12.339
22906W        W84217  31.554  10.319   3.361
22907W        W84218  12.181  34.993   2.888
22908W        W84219  38.013   1.420   0.338
22909W        W84220  34.507  30.436   2.717
22910W        W84221  27.178  11.754   2.835
22911W        W84222  19.728  35.034   1.358
22912W        W84223  33.452  44.332  12.579
22913W        W84224  28.930  36.431  10.508
22914W        W84225  23.175  10.861   0.385
22915W        W84226  13.840  17.071  12.063
22916W        W84227  23.673   1.290  12.978
22917W        W84228  29.138   8.836   3.717
22918W        W84229   2.880  33.949   4.259
22919W        W84230  10.357  44.332   4.335
22920W        W84231  26.164   4.358   3.240
22921W        W84232  21.040  10.324  13.944
22922W        W84233  22.658  34.925  11.016
22923W        W84234  33.571  43.316   1.271
22924W        W84235  24.224  17.762  10.621
22925W        W84236  40.877  14.143  14.840
22926W        W84237  31.136  32.596   3.342
22927W        W84238  29.970  33.123  14.912
22928W        W84239  32.430  39.055  10.115
22929W        W84240  14.190  35.889  14.815
22930W        W84241   3.430  35.951   2.313
22931W        W84242  17.749  29.612   3.332
22932W        W84243  32.041  12.735   1.235
22933W        W84244  23.620  34.109  13.829
22934W        W84245  10.214  29.967  12.948
22935W        W84246  15.103  10.335   3.743
22936W        W84247   4.278  40.025  12.892
22937W        W84248  19.605  18.593  10.896
22938W        W84249  15.092   5.235  11.551
22939W        W84250   9.860  34.112  10.976
22940W        W84251  42.512  10.652  14.998
22941W        W84252  20.752   8.209   2.397
22942W        W84253  18.619   1.428  11.939
22943W        W84254  35.057   9.885  13.997
22944W        W84255  16.153   8.239  11.400
22945W        W84256   4.738  21.714  14.411
22946W        W84257   6.921  20.575   3.648
22947W        W84258  32.602  20.222   4.290
22948W        W84259  11.139  39.396  10.913
22949W        W84260  37.933  10.144  12.344
22950W        W84261  42.288   4.271   2.186
22951W        W84262   5.862  27.456   0.426
22952W        W84263   8.322  43.851  12.408
22953W        W84264  18.063  35.953   3.786
22954W        W84265  20.639   7.268   4.171
22955W        W84266  32.539  19.086   2.323
22956W        W84267  44.823  15.178   3.347
22957W        W84268  24.112  38.965   4.246
22958W        W84269   9.740   7.793   0.265
22959W        W84270  17.799   5.421  14.937
22960W        W84271   1.377  11.719  13.333
22961W        W84272   9.255   1.821   0.779
22962W        W84273  21.644  26.032  13.490
22963W        W84274   5.914  29.573   3.849
22964W        W84275  26.143  20.186   0.319
22965W        W84276  41.460   7.691  10.619
22966W        W84277  14.652  10.786   4.654
22967W        W84278  17.721  26.510  10.020
22968W        W84279  26.952  10.190  12.545
22969W        W84280   0.771  40.479   0.956
22970W        W84281  30.646   6.293   1.426
22971W        W84282  42.941  44.456   4.724
22972W        W84283   9.262  35.028   3.726
22973W        W84284  11.708  36.566  10.424
22974W        W84285  37.518  19.284  11.959
22975W        W84286  28.629  42.286  13.528
22976W        W84287  16.784  42.908  12.513
22977W        W84288  35.492  42.003   4.285
22978W        W84289  37.902   3.375   2.309
22979W        W84290  23.049  18.167   0.856
22980W        W84291  10.823  16.739  11.507
22981W        W84292  24.154   5.348   2.345
22982W        W84293  28.068   9.875   3.840
22983W        W84294   8.726  15.706  10.589
22984W        W84295  20.214  40.951  10.469
22985W        W84296  15.626   6.894   3.633
22986W        W84297  27.023   8.728  11.101
22987W        W84298  28.615   4.211   5.737
22988W        W84299  16.266  11.159  14.979
22989W        W84300  36.537  25.651   1.314
22990W        W84301   2.344  38.403   2.728
22991W        W84302  15.735  30.561  11.119
22992W        W84303   6.774   7.173   4.226
22993W        W84304  27.673  27.678  14.398
22994W        W84305  15.684  39.053  14.770
22995W        W84306  35.949  41.411   4.231
22996W        W84307   7.308   0.303  14.781
22997W        W84308  30.643  10.305   4.659
22998W        W84309  12.136  12.637   3.840
22999W        W84310  39.930   4.288   4.165
23000W        W84311  43.512   5.412  14.795
23001W        W84312  12.666  11.131  13.007
23002W        W84313  23.107  43.457  12.926
23003W        W84314   9.650  23.213   1.305
23004W        W84315  32.934   8.255   3.818
23005W        W84316  38.464  10.167  12.367
23006W        W84317  16.140  10.339  12.378
23007W        W84318  16.618  11.265   3.791
23008W        W84319   7.855  30.557  14.980
23009W        W84320  16.211  35.572  12.346
23010W        W84321   1.336   2.416   2.720
23011W        W84322  33.515  32.555   9.632
23012W        W84323  16.680  41.920   2.281
23013W        W84324  36.090  33.584  12.010
23014W        W84325  13.328  35.519  13.032
23015W        W84326   5.231  10.249  13.513
23016W        W84327  14.762  30.565  14.991
23017W        W84328  21.725   1.843  11.890
23018W        W84329  24.990  29.504   1.848
23019W        W84330   5.333  36.890   3.233
23020W        W84331  41.320   6.309  13.977
23021W        W84332  35.373  20.094   4.349
23022W        W84333   5.419  12.773   2.303
23023W        W84334  27.097  36.923  12.394
23024W        W84335  23.168  11.791  11.546
23025W        W84336  38.397   8.405  12.520
23026W        W84337  25.183   4.713   3.174
23027W        W84338  11.861  38.843   5.107
23028W        W84339  29.580  27.598   3.700
23029W        W84340  39.054  33.081   5.245
23030W        W84341  37.527  39.842   4.314
23031W        W84342  28.458   5.325  10.975
23032W        W84343  26.118   5.224   3.751
23033W        W84344   6.217  11.210   1.280
23034W        W84345  39.893  17.662   1.354
23035W        W84346  39.996  21.673   2.390
23036W        W84347  16.147  21.612   1.410
23037W        W84348   2.796  28.010   2.315
23038W        W84349   0.347  31.478   1.399
23039W        W84350  40.426   0.453  12.897
23040W        W84351  39.846  34.962  14.467
23041W        W84352  18.189  24.186   2.870
23042W        W84353  41.536  40.826   4.312
23043W        W84354  14.236  23.655   0.470
23044W        W84355  26.677  44.482   4.219
23045W        W84356   8.804  33.555   1.303
23046W        W84357  37.506  42.817   2.315
23047W        W84358  20.673   4.941   3.319
23048W        W84359  35.373  20.239  13.893
23049W        W84360  24.032  26.672   0.778
23050W        W84361  30.950   5.419   2.350
23051W        W84362  19.256  31.132  13.428
23052W        W84363  10.225   5.824  10.444
23053W        W84364  20.633  20.136  13.443
23054W        W84365  20.542  33.414  12.901
23055W        W84366  42.806  27.463   3.847
23056W        W84367  26.188   8.232   1.736
23057W        W84368  33.543  29.011   4.688
23058W        W84369  33.961   6.706   2.901
23059W        W84370  31.525  22.015  10.980
23060W        W84371   9.273   6.305   0.464
23061W        W84372  13.670  10.737  14.323
23062W        W84373   5.196  12.675  10.582
23063W        W84374  44.793   3.282  11.035
23064W        W84375  38.412   5.343   3.847
23065W        W84376   0.472  27.984  13.893
23066W        W84377  12.677  37.902  13.484
23067W        W84378  35.041   7.333  14.390
23068W        W84379   9.728  22.625  13.476
23069W        W84380  32.003  21.216   5.175
23070W        W84381  41.009  37.536   4.620
23071W        W84382  38.947  35.019   3.805
23072W        W84383  17.700  39.906  12.390
23073W        W84384  38.490   6.749   4.323
23074W        W84385  23.555  16.304  12.389
23075W        W84386   5.720  31.533   3.670
23076W        W84387  13.207  14.611  11.012
23077W        W84388  30.143  25.136   4.661
23078W        W84389  25.068  13.114  10.968
23079W        W84390  42.979  11.284  12.848
23080W        W84391  30.128  43.793  13.398
23081W        W84392  39.972  10.265   0.356
23082W        W84393   9.360  22.165   3.378
23083W        W84394  39.963   9.383   3.693
23084W        W84395  40.397  11.312  11.034
23085W        W84396  15.138   3.295   1.400
23086W        W84397  34.424  23.579  12.852
23087W        W84398  20.557   5.214   0.408
23088W        W84399  43.361  29.629  12.071
23089W        W84400  15.169   4.772   1.411
23090W        W84401  26.545  19.735  11.885
23091W        W84402  13.167  25.076  12.402
23092W        W84403  16.637  26.194   2.240
23093W        W84404  38.030  35.470  11.065
23094W        W84405   0.765  12.320  12.542
23095W        W84406  44.360   7.267  12.957
23096W        W84407  38.005  27.182  11.424
23097W        W84408   3.456  35.056   2.751
23098W        W84409  37.481  38.377   4.352
23099W        W84410  11.670   7.679  14.007
23100W        W84411  15.289  10.747  12.938
23101W        W84412  26.563  30.131  11.934
23102W        W84413  32.521  33.071  12.487
23103W        W84414  16.695  37.512   1.726
23104W        W84415  23.492  26.685   3.307
23105W        W84416  33.393   7.371   0.873
23106W        W84417   4.849  30.509   5.134
23107W        W84418  21.095  41.831   4.140
23108W        W84419  35.009  17.601   2.806
23109W        W84420  11.325   9.322   1.926
23110W        W84421  30.412  14.187  14.816
23111W        W84422  39.482  12.693   3.640
23112W        W84423  40.464   7.214   3.349
23113W        W84424   3.831  20.699   4.168
23114W        W84425  29.990  40.524   4.806
23115W        W84426  15.298  13.136  12.065
23116W        W84427   4.328  14.205  14.812
23117W        W84428  22.223  37.007   4.298
23118W        W84429  41.450  19.163  10.998
23119W        W84430   2.731   4.375  11.051
23120W        W84431  18.550  21.627  14.862
23121W        W84432   6.205  35.604  12.012
23122W        W84433  42.320   7.370  12.897
23123W        W84434  36.842  34.049  12.403
23124W        W84435  36.455   6.406  12.464
23125W        W84436  34.525   4.320   1.413
23126W        W84437   2.721  32.091   3.262
23127W        W84438  22.244  44.008  13.440
23128W        W84439  14.814  11.851  13.547
23129W        W84440   4.828   0.979  14.277
23130W        W84441  31.575  10.314   1.271
23131W        W84442  24.166  28.601   5.234
23132W        W84443  11.149  33.092  10.635
23133W        W84444  33.543  41.384  13.050
23134W        W84445  10.739  15.321   2.336
23135W        W84446  40.927  22.173   4.705
23136W        W84447  36.365  19.731  11.396
23137W        W84448  26.637  24.641  10.605
23138W        W84449   9.868  38.008   2.217
23139W        W84450   4.854  25.651  14.964
23140W        W84451   4.881  23.097  13.394
23141W        W84452  37.552   0.812  14.361
23142W        W84453  31.447  32.616  10.569
23143W        W84454   7.850  15.256  14.864
23144W        W84455  41.398  11.738  13.365
23145W        W84456  12.781  42.993  14.810
23146W        W84457  33.008  31.045   4.642
23147W        W84458  38.998  44.967  12.573
23148W        W84459  43.777  10.214   0.466
23149W        W84460   9.854  15.616   4.242
23150W        W84461  20.045  19.133   4.230
23151W        W84462  10.837  13.226   4.221
23152W        W84463  10.781  30.019  14.392
23153W        W84464   2.922   9.205   2.751
23154W        W84465  31.636   5.278   2.274
23155W        W84466  26.627  13.127  11.061
23156W        W84467  21.022  17.275  12.389
23157W        W84468   3.290  40.387  14.305
23158W        W84469  34.559  30.589  10.009
23159W        W84470  22.625  17.629   1.447
23160W        W84471   9.734   9.754  14.923
23161W        W84472  30.505   6.834   4.706
23162W        W84473  32.451  42.830  14.314
23163W        W84474   7.339  18.178   3.322
23164W        W84475   6.828  22.996   2.213
23165W        W84476  11.301   3.391   2.700
23166W        W84477   6.270  30.603   0.482
23167W        W84478  10.285   1.887  14.481
23168W        W84479  16.584  17.268   4.809
23169W        W84480   2.250  12.833   1.774
23170W        W84481  41.821  29.626  13.421
23171W        W84482  42.963  30.118  14.960
23172W        W84483   0.472  12.189   3.672
23173W        W84484  35.881  25.173   4.653
23174W        W84485  40.362  28.061  11.492
23175W        W84486  16.211  12.210   2.405
23176W        W84487   1.243  40.479   2.879
23177W        W84488  39.505  40.351   0.754
23178W        W84489  13.828  20.266   1.857
23179W        W84490  16.306  35.929  13.856
23180W        W84491  30.463  38.505   2.824
23181W        W84492   1.972  42.976   2.188
23182W        W84493   7.728  41.296  12.069
23183W        W84494  23.531  13.248  11.510
23184W        W84495  12.133  16.256   3.277
23185W        W84496   0.874   3.444  10.468
23186W        W84497   4.895  15.326   2.896
23187W        W84498  42.992  39.443   0.378
23188W        W84499  12.173  38.853  14.859
23189W        W84500   7.340   5.840   0.261
23190W        W84501  20.091  31.463   3.188
23191W        W84502  13.299  30.159   4.176
23192W        W84503  38.417  17.630  12.415
23193W        W84504   2.275   4.306   2.374
23194W        W84505  37.375  13.772   0.923
23195W        W84506  41.849  10.812  11.119
23196W        W84507  39.042  26.017   3.706
23197W        W84508  21.100  23.647  14.313
23198W        W84509  32.960   7.188   3.161
23199W        W84510   1.343  16.176  11.022
23200W        W84511  12.325  41.831   0.469
23201W        W84512  17.105  19.663   2.298
23202W        W84513  14.174   3.458  13.840
23203W        W84514  24.203  28.591  12.374
23204W        W84515   9.389  38.828   1.896
23205W        W84516  14.160  30.114   4.611
23206W        W84517  25.085  22.117   2.808
23207W        W84518  14.733   2.237   1.745
23208W        W84519   3.888  17.138   1.279
23209W        W84520   3.259  15.795   4.694
23210W        W84521  42.322  33.036   4.307
23211W        W84522  37.368  36.002  14.822
23212W        W84523  39.968  27.034  13.891
23213W        W84524  32.114  29.986   1.715
23214W        W84525  37.495  39.824   5.309
23215W        W84526  34.988  23.999   2.185
23216W        W84527   5.242  26.088  11.552
23217W        W84528  40.856  27.180   4.797
23218W        W84529   5.341  44.934  12.518
23219W        W84530  15.727  24.053   1.277
23220W        W84531   2.312  17.796  10.472
23221W        W84532   1.390  29.017   2.900
23222W        W84533  17.154  18.775  13.895
23223W        W84534  13.750  20.097   0.339
23224W        W84535   3.299   9.834   2.201
23225W        W84536  12.787  17.213  12.923
23226W        W84537  35.382  23.112  12.897
23227W        W84538  30.993   8.881   2.793
23228W        W84539  18.147  30.158  13.443
23229W        W84540  20.032  37.393  13.821
23230W        W84541  39.059  30.641   2.887
23231W        W84542  18.235  36.948   2.817
23232W        W84543  12.703  32.911  13.826
23233W        W84544  34.942  23.235   2.395
23234W        W84545  16.700  26.699  14.803
23235W        W84546  18.655   2.288  14.805
23236W        W84547  30.016  32.981  12.035
23237W        W84548  40.919  29.060  12.872
23238W        W84549  12.848  42.350   2.250
23239W        W84550  32.609  18.666  13.843
23240W        W84551  31.599  11.307   3.831
23241W        W84552  26.020   7.363   2.309
23242W        W84553   6.808   3.446  12.905
23243W        W84554  31.120  28.133   1.285
23244W        W84555  15.185   4.711  14.792
23245W        W84556  24.129  36.439   1.218
23246W        W84557   1.285  16.253  14.846
23247W        W84558  20.211  14.210  12.927
23248W        W84559  30.024  25.524  12.835
23249W        W84560  42.785  32.937   4.285
23250W        W84561  37.457  25.099   0.373
23251W        W84562  11.775  42.286  12.403
23252W        W84563  33.530  13.351   0.373
23253W        W84564  29.584  40.375   4.722
23254W        W84565   9.676  35.867   0.948
23255W        W84566  40.938   5.722   3.857
23256W        W84567   3.401  43.368  13.900
23257W        W84568  12.336   9.336   4.268
23258W        W84569   7.697  13.707   3.698
23259W        W84570  12.144   3.219  11.523
23260W        W84571  15.643  38.365   2.292
23261W        W84572  28.128   4.894   9.979
23262W        W84573  22.071  37.011  12.516
23263W        W84574  29.647  28.089  12.561
23264W        W84575  37.848  16.165  13.792
23265W        W84576   5.816   5.438  12.907
23266W        W84577  29.608  24.136  13.001
23267W        W84578  18.181  13.297  11.467
23268W        W84579   1.850  13.268  14.840
23269W        W84580  43.021  23.164   2.806
23270W        W84581  31.074  26.506   0.794
23271W        W84582  10.839  22.528   4.179
23272W        W84583  20.756  22.052  12.579
23273W        W84584  16.728  11.308  12.095
23274W        W84585  19.182  35.000  11.577
23275W        W84586  30.621  31.472  13.050
23276W        W84587   1.754  29.434  10.495
23277W        W84588  40.842  31.514  13.537
23278W        W84589   4.823  13.766   2.743
23279W        W84590  26.089  25.576   1.387
23280W        W84591  36.072  21.038  13.400
23281W        W84592  12.721  18.705  13.879
23282W        W84593  13.824  13.330   3.356
23283W        W84594  28.125  19.602  10.923
23284W        W84595  31.594   4.313   4.787
23285W        W84596  17.596  10.271   3.764
23286W        W84597  10.351  17.162   0.796
23287W        W84598  20.104  13.765   2.808
23288W        W84599  32.901  42.521  13.536
23289W        W84600  21.563  27.459   2.401
23290W        W84601  22.509  43.859   1.382
23291W        W84602   2.423  35.007  12.517
23292W        W84603   3.240  37.539  11.872
23293W        W84604   2.730  35.093  11.940
23294W        W84605  30.569   2.816  10.994
23295W        W84606   8.801  24.591  14.772
23296W        W84607  18.147   7.785   1.787
23297W        W84608  27.561   7.764   2.237
23298W        W84609   7.391  22.156   3.796
23299W        W84610  31.980  19.601  11.014
23300W        W84611  43.432   5.213  12.995
23301W        W84612  18.733  36.966  12.377
23302W        W84613  13.236  39.930  11.037
23303W        W84614   9.209   9.729   1.218
23304W        W84615  10.732  35.466  10.917
23305W        W84616  42.460   0.310  10.512
23306W        W84617  20.703  13.125   3.226
23307W        W84618  12.687  23.729   0.414
23308W        W84619  27.170   6.685  11.882
23309W        W84620  39.874   5.708  13.421
23310W        W84621  43.974  25.050   2.357
23311W        W84622  15.796  32.536  14.768
23312W        W84623   2.897  21.111  13.044
23313W        W84624  12.722  27.500  10.593
23314W        W84625  27.182  40.040   5.158
23315W        W84626  15.143  42.495  11.889
23316W        W84627  21.064   2.334  13.352
23317W        W84628  32.474  41.893   4.281
23318W        W84629  44.994   6.235   3.300
23319W        W84630  42.514  37.069  13.526
23320W        W84631  30.100  34.017   0.904
23321W        W84632   6.233  42.324   4.332
23322W        W84633  35.390  39.831   1.340
23323W        W84634   2.255  35.096  13.482
23324W        W84635  21.031  31.559   2.825
23325W        W84636  14.671  33.543  13.875
23326W        W84637  24.606  17.784  14.824
23327W        W84638  25.637  33.974   3.641
23328W        W84639  28.564  29.160  10.521
23329W        W84640  11.149  11.269  14.967
23330W        W84641  10.654  28.613  12.078
23331W        W84642   5.758   6.242  11.513
23332W        W84643   1.317  37.922   0.403
23333W        W84644   5.727   8.175  11.606
23334W        W84645  41.983   9.649  12.027
23335W        W84646   5.755  11.846   1.815
23336W        W84647  37.519  15.820  10.073
23337W        W84648  19.140  16.297  14.500
23338W        W84649   1.773  36.004  14.341
23339W        W84650   6.307  44.898  13.873
23340W        W84651  11.363  35.545  14.777
23341W        W84652  17.227  43.391   3.748
23342W        W84653   3.904   8.755   1.307
23343W        W84654  31.468  26.152  11.968
23344W        W84655  14.334  35.926   2.349
23345W        W84656  41.008  27.018  14.883
23346W        W84657  39.409  41.952   9.922
23347W        W84658  30.434  37.854  13.348
23348W        W84659  42.499  39.976   4.775
23349W        W84660  36.593  10.811  14.417
23350W        W84661  15.744  19.599   4.142
23351W        W84662   5.193  15.651   0.297
23352W        W84663   5.830  11.697  12.393
23353W        W84664  11.306  39.318  12.840
23354W        W84665  10.271   2.366  14.350
23355W        W84666  27.189   2.793   0.351
23356W        W84667  24.014  17.574   1.773
23357W        W84668   6.327  25.173  12.496
23358W        W84669  21.566  16.179   4.755
23359W        W84670  26.022   8.298   1.392
23360W        W84671  23.702  30.435  14.292
23361W        W84672  37.529   2.925  11.077
23362W        W84673  32.598  26.092  14.839
23363W        W84674  42.018  44.833   3.320
23364W        W84675  32.469  12.821   2.293
23365W        W84676  23.230  36.861  14.450
23366W        W84677  22.232  35.368   3.308
23367W        W84678  40.883  43.352   1.357
23368W        W84679  41.956  34.443  14.413
23369W        W84680  25.982  19.540   1.226
23370W        W84681  41.357   8.731   4.188
23371W        W84682  21.248  23.622   3.856
23372W        W84683  13.280  36.500   4.331
23373W        W84684  29.044  27.583   4.621
23374W        W84685  41.384  12.172  13.361
23375W        W84686  28.019  12.148  13.921
23376W        W84687   8.400  27.013  13.015
23377W        W84688  37.836  30.943  13.432
23378W        W84689  34.392  25.073  14.382
23379W        W84690   3.892  11.275  14.950
23380W        W84691   7.257  44.349  14.834
23381W        W84692   4.341  35.602  13.408
23382W        W84693  16.674   4.927  10.136
23383W        W84694  42.779  10.713   1.326
23384W        W84695  25.157  22.063   0.393
23385W        W84696  39.960  44.406  13.317
23386W        W84697  43.790  26.606   3.305
23387W        W84698   1.795  19.237  10.920
23388W        W84699  33.115  26.476   2.712
23389W        W84700  33.471  10.827   3.685
23390W        W84701   4.903  21.622   2.288
23391W        W84702  29.943  26.047   2.367
23392W        W84703  10.717  25.563   0.900
23393W        W84704  35.102  35.372  10.560
23394W        W84705   7.702   8.659  14.321
23395W        W84706  23.534   9.872  10.549
23396W        W84707  10.759  21.233   4.693
23397W        W84708   8.173  32.620   3.153
23398W        W84709  16.717  17.230   3.383
23399W        W84710  17.288  21.637  12.091
23400W        W84711  14.686  39.861   2.358
23401W        W84712  17.564  26.109  14.297
23402W        W84713  12.160   3.361   4.625
23403W        W84714  21.513  27.189  11.060
23404W        W84715   2.863  17.598  13.455
23405W        W84716  29.142  18.594   2.675
23406W        W84717  17.189  40.325  13.982
23407W        W84718  25.206   3.299   2.285
23408W        W84719  15.140   5.932  11.875
23409W        W84720  31.073  14.181  10.966
23410W        W84721  21.155  14.777  14.502
23411W        W84722  35.947  17.181  13.801
23412W        W84723  30.963  40.962  13.858
23413W        W84724  24.664  40.032  12.556
23414W        W84725   1.296  42.523  10.463
23415W        W84726  23.587  18.115   2.288
23416W        W84727  37.858  29.924   1.915
23417W        W84728  24.157  34.449  13.361
23418W        W84729  40.497  27.969   1.810
23419W        W84730  38.897  26.980  10.470
23420W        W84731  24.517   4.774   3.284
23421W        W84732   5.401  26.010   4.227
23422W        W84733  39.454  12.140  14.403
23423W        W84734  25.070   8.886  11.448
23424W        W84735  19.054  16.681  11.946
23425W        W84736  20.600   3.801  12.516
23426W        W84737  30.138  30.552  13.030
23427W        W84738  42.996  21.197   0.960
23428W        W84739   6.912  41.497  12.051
23429W        W84740  36.011  19.689  13.863
23430W        W84741  26.192  11.290   4.807
23431W        W84742  39.984  40.513  14.513
23432W        W84743  43.451  42.999  14.338
23433W        W84744  38.512  43.015   0.927
23434W        W84745  29.051  43.949  14.825
23435W        W84746  20.137  14.780   0.908
23436W        W84747  23.181  10.343  13.879
23437W        W84748  30.161  20.689   3.147
23438W        W84749   3.420  17.759  10.532
23439W        W84750  39.522  29.959   9.507
23440W        W84751  29.108  28.557   2.370
23441W        W84752  18.252  26.687  12.431
23442W        W84753   7.331  16.249  11.992
23443W        W84754  15.610  13.217  11.973
23444W        W84755  11.130  21.634   3.751
23445W        W84756  30.485  28.175  13.363
23446W        W84757  28.598   0.283   1.846
23447W        W84758  12.292  23.507   0.474
23448W        W84759   3.217  44.501  14.970
23449W        W84760  13.846   2.292  13.951
23450W        W84761  44.340  15.635   2.866
23451W        W84762  33.029  13.678  13.927
23452W        W84763  24.694  20.105  13.004
23453W        W84764  40.340  38.525  12.047
23454W        W84765  17.729  28.127   0.897
23455W        W84766  19.053   4.706   2.354
23456W        W84767   2.334  14.206  11.375
23457W        W84768   7.410  36.365   3.855
23458W        W84769   6.371  18.178   0.923
23459W        W84770  43.320  42.998  10.974
23460W        W84771   4.310  20.551   4.123
23461W        W84772  34.387  16.628  13.499
23462W        W84773  30.471  32.468   0.863
23463W        W84774  38.367  16.243   2.402
23464W        W84775  16.756  15.686   0.397
23465W        W84776  22.010   7.274  14.853
23466W        W84777   8.335   2.845  13.905
23467W        W84778  41.526  24.042   4.658
23468W        W84779  11.302  40.520  10.495
23469W        W84780  27.191   2.797  12.836
23470W        W84781   7.896  29.548   1.387
23471W        W84782  19.746  15.800   2.330
23472W        W84783  37.084   6.751   0.469
23473W        W84784  30.435  24.099  14.456
23474W        W84785  31.522  39.826  13.801
23475W        W84786  21.067  43.408  10.011
23476W        W84787  35.476  22.105   3.166
23477W        W84788  40.914  38.979  14.400
23478W        W84789  41.877  40.465   3.168
23479W        W84790  41.493  29.969  14.350
23480W        W84791  14.749  18.551   2.835
23481W        W84792   9.330  19.259  14.777
23482W        W84793  42.983   5.771  14.818
23483W        W84794  27.503   0.779  12.095
23484W        W84795  42.923   4.757   1.244
23485W        W84796  16.727  29.574  12.381
23486W        W84797  15.167  26.165  11.399
23487W        W84798  21.669  14.793  11.880
23488W        W84799   7.348   3.329  11.989
23489W        W84800  40.941  29.622  12.342
23490W        W84801  22.160  21.737   3.639
23491W        W84802  44.841  26.661  10.940
23492W        W84803  33.097  18.265   1.884
23493W        W84804  19.651  15.706   5.192
23494W        W84805  13.834  43.347   2.676
23495W        W84806   8.778  25.037  11.495
23496W        W84807  24.595  42.504  10.607
23497W        W84808  17.118  38.474   1.779
23498W        W84809  16.625  32.632   2.326
23499W        W84810  22.247   5.805   2.688
23500W        W84811   7.732  36.090   3.257
23501W        W84812  35.020  29.049  14.995
23502W        W84813  17.175  36.864   3.275
23503W        W84814  32.888  16.721   1.297
23504W        W84815  10.218  36.065   0.278
23505W        W84816   2.449   2.926  13.402
23506W        W84817  41.484  25.627  13.801
23507W        W84818   5.276  25.639  14.943
23508W        W84819  25.057  33.519   0.793
23509W        W84820  27.105  10.165   0.470
23510W        W84821  41.391  43.387   1.382
23511W        W84822  14.750  10.735   1.291
23512W        W84823  44.314   3.946   2.343
23513W        W84824  33.055  10.339   1.272
23514W        W84825   1.429  25.183   3.296
23515W        W84826  19.241  27.969  11.990
23516W        W84827  12.695  14.771   3.207
23517W        W84828  22.155  34.093   2.676
23518W        W84829  26.150  11.267  10.910
23519W        W84830   3.715  26.017  14.772
23520W        W84831  24.686  40.876  12.080
23521W        W84832  18.724  23.010  10.484
23522W        W84833  28.674   8.206   0.243
23523W        W84834  25.580   4.731   1.714
23524W        W84835  14.135   4.754  12.912
23525W        W84836  28.464  19.752   1.273
23526W        W84837  17.691  20.049  13.525
23527W        W84838   9.673  43.880  11.968
23528W        W84839  35.468  18.696   2.372
23529W        W84840  16.297  18.057  10.430
23530W        W84841   3.841  24.528  11.611
23531W        W84842  13.266  20.764   3.859
23532W        W84843  26.106  44.469   3.252
23533W        W84844   7.670  28.051  14.407
23534W        W84845   2.434   8.691   5.170
23535W        W84846   6.752  37.423   0.859
23536W        W84847  37.467  27.685  11.038
23537W        W84848  20.582  42.808   4.254
23538W        W84849   8.304   4.340   2.220
23539W        W84850  28.152  13.701   0.829
23540W        W84851  41.505  15.217  14.319
23541W        W84852   9.854  13.161   0.359
23542W        W84853  17.229  14.273   0.782
23543W        W84854  39.905  22.076   3.778
23544W        W84855  44.346   8.345   0.836
23545W        W84856  31.097  35.442   4.147
23546W        W84857   6.242  28.002  13.021
23547W        W84858  26.969   5.371   1.931
23548W        W84859  19.713  44.503   0.375
23549W        W84860   8.396  18.219  14.402
23550W        W84861   6.201  23.213   2.286
23551W        W84862  33.606   9.886  14.759
23552W        W84863  20.044  18.586   1.304
23553W        W84864  18.768   6.763  12.913
23554W        W84865  13.231  43.358   2.793
23555W        W84866   5.366   3.410   3.769
23556W        W84867   1.761  19.228   2.851
23557W        W84868  11.341  17.166   4.611
23558W        W84869  27.036  19.233   2.873
23559W        W84870  40.335  16.231   1.701
23560W        W84871  12.216  16.602   4.271
23561W        W84872   4.208  22.035   3.224
23562W        W84873  11.220  23.577   9.938
23563W        W84874  14.693   7.725   2.841
23564W        W84875   9.883  38.033  12.838
23565W        W84876  18.656  13.675  11.529
23566W        W84877  36.941  25.184   3.828
23567W        W84878  17.562  20.191  10.413
23568W        W84879  10.253  33.439   4.266
23569W        W84880  44.831  15.725  12.021
23570W        W84881  11.355  23.023  13.471
23571W        W84882  24.191  36.359   0.959
23572W        W84883  39.319  32.537  14.289
23573W        W84884  34.093  28.112  11.445
23574W        W84885   5.336  34.061  14.328
23575W        W84886   6.881   9.660  13.513
23576W        W84887   1.378  22.529  12.972
23577W        W84888  22.060  27.682   4.149
23578W        W84889  40.923  44.913   0.911
23579W        W84890  33.936  13.831   4.168
23580W        W84891  29.588  34.600   4.778
23581W        W84892  24.518  25.085  10.482
23582W        W84893  26.083  24.576  13.409
23583W        W84894  41.316   5.211   0.833
23584W        W84895  25.190  15.143   0.298
23585W        W84896  38.035   6.710   1.786
23586W        W84897  12.312  24.201  13.388
23587W        W84898   3.225   3.411   9.978
23588W        W84899  12.842  41.386   2.898
23589W        W84900  29.432  44.432  14.967
23590W        W84901  27.501   3.239   3.276
23591W        W84902  32.453  10.285  10.419
23592W        W84903  20.168  17.584  11.994
23593W        W84904  36.898  17.765   0.783
23594W        W84905  13.799  16.302  14.316
23595W        W84906  12.143  14.720  13.466
23596W        W84907  41.844  29.023  13.801
23597W        W84908  32.446  34.120   2.730
23598W        W84909  32.499  20.547  11.949
23599W        W84910  27.639  10.782   0.366
23600W        W84911  34.504  20.540   4.265
23601W        W84912  22.686   9.252  11.568
23602W        W84913  15.302   8.280   0.271
23603W        W84914  12.296   4.831   1.313
23604W        W84915   2.893  22.028  12.828
23605W        W84916  33.918  24.666  13.890
23606W        W84917  33.906  33.085   4.343
23607W        W84918  31.627  32.460  13.889
23608W        W84919  18.196  29.517   2.365
23609W        W84920  23.601  33.492  13.461
23610W        W84921  27.655  21.721   4.712
23611W        W84922  35.904  10.737  13.353
23612W        W84923   3.809   4.785  10.009
23613W        W84924   1.275  11.296   4.205
23614W        W84925  31.971  36.850  14.308
23615W        W84926  33.922   1.244  12.447
23616W        W84927  31.588   0.756  10.590
23617W        W84928  43.428  30.946   4.697
23618W        W84929  43.881  25.053  14.904
23619W        W84930  33.615  23.501   3.209
23620W        W84931  10.303  40.392  12.577
23621W        W84932  23.124  19.241  12.843
23622W        W84933  11.712  34.081   4.158
23623W        W84934  19.142  41.336  10.422
23624W        W84935  34.435  19.244   2.662
23625W        W84936  43.283  12.816   1.727
23626W        W84937  31.622  39.868   1.698
23627W        W84938  28.168  36.015  14.324
23628W        W84939  40.896   6.874  14.292
23629W        W84940  16.616  25.969   0.288
23630W        W84941  36.572  31.479   0.310
23631W        W84942  44.972  11.226   1.237
23632W        W84943   3.711  10.741  10.485
23633W        W84944  44.460  15.614   4.741
23634W        W84945  25.572  11.345   4.350
23635W        W84946  16.269   8.786  12.071
23636W        W84947   5.216   6.753  12.041
23637W        W84948  31.451  13.149   3.698
23638W        W84949  24.492   2.806  13.318
23639W        W84950  30.619   2.270   5.162
23640W        W84951  14.611  18.749  10.580
23641W        W84952  23.556  15.783   3.359
23642W        W84953   8.329  17.247   1.407
23643W        W84954   7.831   4.750   4.779
23644W        W84955   1.289  14.806   3.802
23645W        W84956   1.474  19.619   4.625
23646W        W84957  21.563   3.878   2.855
23647W        W84958   9.824  22.017  11.867
23648W        W84959  23.730  43.411   2.330
23649W        W84960   4.793   9.750   0.451
23650W        W84961  12.293   1.301   4.716
23651W        W84962  27.531  11.739  11.604
23652W        W84963  31.104   2.345  10.965
23653W        W84964  18.589   3.898  14.826
23654W        W84965  16.761   5.720  14.019
23655W        W84966  42.832  42.789   0.298
23656W        W84967  36.413  24.544   2.716
23657W        W84968  42.415  11.626  10.941
23658W        W84969  35.572   4.205  12.382
23659W        W84970   6.753   9.698  12.408
23660W        W84971  27.511  17.753   3.719
23661W        W84972  29.062  27.612  11.402
23662W        W84973  29.580  15.603  13.459
23663W        W84974  40.546  23.130  12.345
23664W        W84975  44.488  30.435   3.228
23665W        W84976  25.471  38.385   0.806
23666W        W84977  41.912  17.196   1.349
23667W        W84978  12.629  42.913   0.442
23668W        W84979  25.523  38.912   0.733
23669W        W84980  27.155  28.653  12.504
23670W        W84981  29.484  30.038   3.733
23671W        W84982  18.786  21.650  11.010
23672W        W84983  25.515  14.790   1.345
23673W        W84984  38.337  21.163   3.742
23674W        W84985  11.636  31.074  11.586
23675W        W84986  25.691  29.539   5.567
23676W        W84987  16.717  36.399  12.970
23677W        W84988  17.141  38.034  12.889
23678W        W84989  14.219  26.099  12.427
23679W        W84990  38.431  35.397  11.434
23680W        W84991  38.000   5.805   4.187
23681W        W84992  29.476  18.640  14.914
23682W        W84993  14.150  27.195  11.378
23683W        W84994   4.790  41.425   0.268
23684W        W84995   3.334  15.124  11.462
23685W        W84996  36.391  24.554   0.792
23686W        W84997  42.421  22.245  10.951
23687W        W84998  40.381  29.433   2.857
23688W        W84999  17.659  42.512   3.162
23689W        W85000  31.897   7.889  12.402
23690W        W85001  29.432  39.493  13.546
23691W        W85002  18.098  16.770   2.733
23692W        W85003   7.862   7.300  10.422
23693W        W85004  37.433  25.080  14.459
23694W        W85005  15.256  15.682  11.988
23695W        W85006  35.061  10.175   4.271
23696W        W85007  44.771  31.103   4.697
23697W        W85008  42.463   4.731  10.641
23698W        W85009   2.936  36.050   0.342
23699W        W85010   6.847  26.189   2.338
23700W        W85011  26.634  41.294  13.325
23701W        W85012  38.959  35.929   5.159
23702W        W85013  19.574  34.018  13.831
23703W        W85014  15.098  21.565   3.789
23704W        W85015  21.115  28.651  11.593
23705W        W85016  20.749  11.771  14.356
23706W        W85017  42.481  13.338  12.010
23707W        W85018  39.830  38.481   3.777
23708W        W85019  16.139  13.735   2.202
23709W        W85020   7.669  44.458   0.752
23710W        W85021  29.934  26.130   4.807
23711W        W85022   4.254  21.074   1.373
23712W        W85023  20.182   8.319  13.831
23713W        W85024  30.069  43.949  10.434
23714W        W85025  13.236  15.654   5.090
23715W        W85026  21.607   4.882  12.454
23716W        W85027  33.894  37.987  13.495
23717W        W85028  23.162  21.094  13.871
23718W        W85029  14.097  20.244   3.742
23719W        W85030  34.013  13.270  10.983
23720W        W85031  36.380  14.671   4.735
23721W        W85032  40.436  27.155   1.695
23722W        W85033  14.761  36.364  10.451
23723W        W85034  30.010  13.183  11.546
23724W        W85035  27.171  37.870   1.738
23725W        W85036  19.103   6.258   3.290
23726W        W85037  23.141  36.057   1.708
23727W        W85038  43.416   3.867  14.477
23728W        W85039   4.733   0.911  14.972
23729W        W85040  30.053  41.395   0.416
23730W        W85041  37.907   4.828  10.068
23731W        W85042   7.357  24.583   4.621
23732W        W85043  32.613  16.186   1.244
23733W        W85044  31.149  34.465  14.858
23734W        W85045  23.693  26.007   1.798
23735W        W85046   8.309  25.536   1.407
23736W        W85047   8.894  14.800   4.714
23737W        W85048  31.138  25.519  11.549
23738W        W85049   7.899   0.347   1.239
23739W        W85050   6.833  41.804   1.924
23740W        W85051  21.157  42.515   4.702
23741W        W85052  24.602   9.213  11.920
23742W        W85053  36.537  43.327   4.624
23743W        W85054  36.064  25.141  14.335
23744W        W85055  21.206  39.366   0.334
23745W        W85056  14.323  18.191   1.811
23746W        W85057  35.038  21.176  14.341
23747W        W85058  26.206  16.711   3.833
23748W        W85059   7.281  41.902  12.084
23749W        W85060  21.660  36.479  14.397
23750W        W85061  23.566   7.725  13.801
23751W        W85062  23.998  29.012   4.833
23752W        W85063  31.927  27.950  11.403
23753W        W85064  11.223  34.051  12.482
23754W        W85065  15.765  41.526  10.077
23755W        W85066  40.512  41.960  12.376
23756W        W85067   7.413  38.389   4.620
23757W        W85068  29.962  24.008  14.274
23758W        W85069  29.004   4.841  12.558
23759W        W85070  43.919  23.190   2.413
23760W        W85071  31.073   1.898  10.587
23761W        W85072  25.684  15.294   0.938
23762W        W85073  21.250  32.120   1.324
23763W        W85074  42.932  13.126  10.913
23764W        W85075   9.299  41.871   2.881
23765W        W85076  36.041  25.115   3.755
23766W        W85077  24.075   9.648  11.113
23767W        W85078  39.014  42.032   3.214
23768W        W85079   9.156  21.756  12.860
23769W        W85080  27.632  11.633   2.864
23770W        W85081  41.424   3.362  14.003
23771W        W85082   2.393  13.304   0.369
23772W        W85083   6.913   4.913  13.918
23773W        W85084  22.177  18.131  11.878
23774W        W85085  41.861  28.136  14.769
23775W        W85086  31.931  39.469   0.824
23776W        W85087  27.559  28.639   3.165
23777W        W85088  28.665   7.248   1.909
23778W        W85089  34.373   8.258   2.756
23779W        W85090  37.068  39.932   0.853
23780W        W85091  21.704   2.867   0.321
23781W        W85092  41.889   4.791  11.931
23782W        W85093  21.212  28.068   4.605
23783W        W85094  16.675  25.968  12.925
23784W        W85095  37.567  33.987   5.126
23785W        W85096  36.510  22.673  11.579
23786W        W85097  12.335   1.327  13.508
23787W        W85098  31.527  20.725  11.593
23788W        W85099  37.558  31.993   0.273
23789W        W85100  26.667  34.112  11.038
23790W        W85101  42.013  17.093  14.979
23791W        W85102   8.788  23.504  12.490
23792W        W85103   9.709  24.023   2.332
23793W        W85104  38.504  31.143  13.966
23794W        W85105   1.288  32.422  12.015
23795W        W85106  32.510   8.332  11.069
23796W        W85107  33.614   5.902  10.921
23797W        W85108  28.007   4.821   0.868
23798W        W85109  13.642  12.677  14.809
23799W        W85110  42.502  26.083   1.355
23800W        W85111  41.448  15.758   0.444
23801W        W85112  41.877  31.897  14.803
23802W        W85113  38.343  29.631  14.941
23803W        W85114  12.806   6.379   4.171
23804W        W85115   0.370  38.881  12.969
23805W        W85116  15.691   0.816   0.467
23806W        W85117  29.099  28.446   1.385
23807W        W85118   1.824  10.637  13.971
23808W        W85119  41.830  19.252  11.934
23809W        W85120  10.229  40.884   2.804
23810W        W85121  37.872  39.821   0.394
23811W        W85122  25.047  11.629   1.303
23812W        W85123  15.794  11.145   2.381
23813W        W85124  33.514  38.367  12.482
23814W        W85125   9.174  23.196   4.666
23815W        W85126  11.652  15.129  10.458
23816W        W85127  24.166   1.950  11.504
23817W        W85128  34.615  39.511   1.373
23818W        W85129  16.310  18.642  13.339
23819W        W85130  12.823  39.381  10.516
23820W        W85131  11.654  38.050  11.489
23821W        W85132  36.068  19.692   4.166
23822W        W85133  28.450  34.572  13.858
23823W        W85134   7.889  13.322  12.977
23824W        W85135  39.896  40.345   0.329
23825W        W85136  21.071  39.893  14.865
23826W        W85137  40.458  38.923   3.202
23827W        W85138  30.052   5.366  12.069
23828W        W85139  29.460  30.969  11.915
23829W        W85140  11.304  39.035   4.684
23830W        W85141  14.623  19.193  13.416
23831W        W85142  26.069  31.965  13.469
23832W        W85143   3.443  26.669   0.802
23833W        W85144  29.946  43.857   4.188
23834W        W85145  17.178   9.227  10.443
23835W        W85146  24.139  22.534   3.778
23836W        W85147  21.240  18.582   2.190
23837W        W85148  12.833   2.230  13.450
23838W        W85149  25.048  33.394   0.459
23839W        W85150  17.758  34.601  12.396
23840W        W85151  35.443   9.821   2.665
23841W        W85152  24.608  18.698   2.705
23842W        W85153  18.715  43.776  12.008
23843W        W85154  28.599  23.653  13.999
23844W        W85155  19.586  29.472  14.425
23845W        W85156  17.132   6.894   1.451
23846W        W85157  13.704  38.935   3.678
23847W        W85158   9.188  35.539  10.582
23848W        W85159  24.551  36.080   1.371
23849W        W85160  39.325  17.626   2.797
23850W        W85161  33.092  30.535   3.281
23851W        W85162  25.168  12.643   1.277
23852W        W85163  10.702  13.228   0.885
23853W        W85164   0.461  20.612  14.815
23854W        W85165   0.939  42.401  12.570
23855W        W85166  24.653  27.967  12.408
23856W        W85167   3.317  33.436  10.441
23857W        W85168  27.076   1.765  10.411
23858W        W85169  12.207   4.765   2.357
23859W        W85170  30.980  20.555  12.350
23860W        W85171  13.255  29.006  13.015
23861W        W85172   9.832   0.862  10.936
23862W        W85173   9.878  13.328   3.719
23863W        W85174  22.614  25.569  11.592
23864W        W85175  33.889  33.455  13.378
23865W        W85176  18.649  20.762  14.318
23866W        W85177  26.573  20.595   3.357
23867W        W85178  33.911  10.223   0.269
23868W        W85179  41.302   7.375  13.393
23869W        W85180  43.403   5.856  14.780
23870W        W85181  14.671  25.046   9.957
23871W        W85182  30.037  10.198   4.251
23872W        W85183  23.058  28.664   5.081
23873W        W85184   0.339  42.876   1.432
23874W        W85185   3.351  31.488   4.221
23875W        W85186  38.823   7.885  10.916
23876W        W85187  10.664  42.468   0.847
23877W        W85188   0.262  29.426  11.530
23878W        W85189  41.450  42.512  11.409
23879W        W85190  41.861  11.257   3.219
23880W        W85191  43.005  39.915   4.255
23881W        W85192  20.678  38.389  12.361
23882W        W85193  32.998  29.939   9.956
23883W        W85194  43.490  17.600   1.781
23884W        W85195  35.920  22.128   3.289
23885W        W85196  35.033  27.010  10.440
23886W        W85197   5.227   6.868   0.904
23887W        W85198  21.606  44.914  14.956
23888W        W85199  33.594  21.018   1.861
23889W        W85200  23.560  24.486   3.852
23890W        W85201  39.555  44.882  13.851
23891W        W85202  44.439   2.386   1.891
23892W        W85203  11.130  42.355   0.289
23893W        W85204  42.332  18.092  12.340
23894W        W85205   9.157  38.390   3.783
23895W        W85206  10.225  23.730  13.537
23896W        W85207  25.093  32.058   0.326
23897W        W85208  34.523   4.381  12.038
23898W        W85209  17.128  27.110  10.978
23899W        W85210  29.428  31.914   2.728
23900W        W85211  40.489  22.596  10.463
23901W        W85212   1.958  13.671   1.368
23902W        W85213  44.763   9.643   1.281
23903W        W85214  30.026  23.576  12.476
23904W        W85215  18.586   3.771  12.486
23905W        W85216   7.323   8.256   0.459
23906W        W85217  32.532  44.380   1.795
23907W        W85218  23.096  31.577  14.806
23908W        W85219  44.008  23.688   1.861
23909W        W85220  35.387  41.475  13.354
23910W        W85221  25.664  11.289  11.400
23911W        W85222  43.933   5.390   0.902
23912W        W85223  35.599  19.209  14.767
23913W        W85224  16.242  28.624  11.561
23914W        W85225  39.934  26.626  14.837
23915W        W85226  19.757   6.823  13.807
23916W        W85227  36.483  18.259   4.151
23917W        W85228   0.893  15.283   4.686
23918W        W85229   1.938  11.329   1.884
23919W        W85230  16.131  20.250  12.554
23920W        W85231  40.937  28.961  11.972
23921W        W85232  28.150  40.452   2.327
23922W        W85233   8.814  38.332  11.378
23923W        W85234  40.918  16.572   0.964
23924W        W85235  13.121   4.826   5.082
23925W        W85236   4.722   3.262   2.737
23926W        W85237  35.061  40.358   4.832
23927W        W85238  13.257  25.041   0.483
23928W        W85239  40.944   3.800   2.881
23929W        W85240  12.667  21.588  12.888
23930W        W85241  33.504  35.998   3.690
23931W        W85242  37.978   2.896   2.276
23932W        W85243  17.666  30.055  10.602
23933W        W85244  17.620  44.264  11.442
23934W        W85245  26.092   5.855   2.219
23935W        W85246  25.637  26.488   1.824
23936W        W85247  21.589  10.357   1.223
23937W        W85248   8.323   7.172  13.334
23938W        W85249  19.646  11.753   0.447
23939W        W85250  20.658  26.608  14.345
23940W        W85251  32.462  34.079   0.827
23941W        W85252  28.164  11.146   0.894
23942W        W85253   8.206  38.458  10.597
23943W        W85254  19.712  39.559  14.898
23944W        W85255  19.681  41.803   3.748
23945W        W85256  21.082  26.082  11.508
23946W        W85257  36.487  10.668  14.912
23947W        W85258  22.152   3.744   1.238
23948W        W85259  32.515   6.857  13.422
23949W        W85260  32.619  26.476   1.773
23950W        W85261  35.919   5.220   4.275
23951W        W85262   8.353  20.732  12.472
23952W        W85263  34.973  22.213   4.321
23953W        W85264   1.304  20.048   4.706
23954W        W85265  34.953  16.696  12.410
23955W        W85266  12.637  33.574   4.810
23956W        W85267  15.611  16.604  12.987
23957W        W85268  36.424  14.299  12.418
23958W        W85269   2.793  13.727  13.537
23959W        W85270  29.981  30.053   1.351
23960W        W85271  10.729  29.922  12.531
23961W        W85272  28.511  13.170   1.213
23962W        W85273  14.329  13.800  10.507
23963W        W85274  43.933  18.577   2.306
23964W        W85275  25.551  24.992   2.370
23965W        W85276   3.819   5.365  13.466
23966W        W85277  20.112  10.776   3.754
23967W        W85278  20.553  28.635  13.058
23968W        W85279  24.979  16.236  13.863
23969W        W85280   3.752  39.348  11.562
23970W        W85281   3.221  44.274  13.373
23971W        W85282  15.634  27.467   4.136
23972W        W85283  21.089  36.853  14.917
23973W        W85284  24.521   8.313  11.875
23974W        W85285  35.516   4.884   3.709
23975W        W85286  38.994  41.868  14.372
23976W        W85287  18.591  37.075  11.581
23977W        W85288  15.317  15.246   1.852
23978W        W85289   9.752   5.250   2.707
23979W        W85290  15.786  22.078  10.451
23980W        W85291  18.210   4.732  14.497
23981W        W85292  17.606  12.747  14.784
23982W        W85293  10.278  32.482   3.192
23983W        W85294  21.640   8.713  14.917
23984W        W85295   9.730  30.103  12.426
23985W        W85296   3.740  14.737   4.809
23986W        W85297   9.719  27.097   4.657
23987W        W85298  13.286  24.045  14.279
23988W        W85299  32.478  41.839  14.003
23989W        W85300  12.158  39.333   3.798
23990W        W85301   0.829  41.023   2.869
23991W        W85302  25.571  29.439  11.482
23992W        W85303  33.024  28.451   2.704
23993W        W85304  17.722  28.167  11.923
23994W        W85305  38.948  21.226   2.784
23995W        W85306  16.317  32.538   3.155
23996W        W85307  14.185  32.914   4.772
23997W        W85308  17.112  44.437   1.706
23998W        W85309  21.037  28.987   1.212
23999W        W85310  39.493  40.041   0.287
24000W        W85311  14.627  41.297  13.839
24001W        W85312  14.796  31.101   1.234
24002W        W85313   4.795  20.682   2.241
24003W        W85314  27.456   7.346  10.624
24004W        W85315  21.023   7.302  11.440
24005W        W85316  34.877   2.951  11.869
24006W        W85317  36.566  20.759   3.740
24007W        W85318  27.625  35.368  11.878
24008W        W85319  23.168  19.151  14.404
24009W        W85320  16.080  36.966  14.405
24010W        W85321   5.719  12.318  13.463
24011W        W85322  11.359  38.974  10.896
24012W        W85323  16.772  24.193   1.884
24013W        W85324  25.515  23.729   0.338
24014W        W85325  19.215   2.795   0.826
24015W        W85326  27.457  39.558   0.362
24016W        W85327   8.885  32.631  13.356
24017W        W85328  12.359  29.151  14.467
24018W        W85329  38.003  14.610  12.349
24019W        W85330  10.220  42.930  13.458
24020W        W85331  40.534  39.366   1.325
24021W        W85332  37.075  12.157   0.756
24022W        W85333  43.483  16.812   3.822
24023W        W85334  18.142  20.748   3.729
24024W        W85335   4.449  12.808  13.899
24025W        W85336  39.475  27.054  14.840
24026W        W85337  17.281  13.798  13.313
24027W        W85338  29.663  41.530   3.329
24028W        W85339   0.285  20.545   2.235
24029W        W85340  40.036  16.244   4.662
24030W        W85341  20.070  29.448   3.385
24031W        W85342  38.446  40.415   2.727
24032W        W85343  38.527  28.579   3.199
24033W        W85344   9.741  31.074   1.231
24034W        W85345  18.192  32.589  11.378
24035W        W85346  35.978  15.223  10.474
24036W        W85347  42.017  11.320  14.973
24037W        W85348  27.080  26.090   1.756
24038W        W85349   1.824  12.777   0.734
24039W        W85350   9.693  30.923  13.866
24040W        W85351   6.304   0.899  12.349
24041W        W85352  44.310  29.594  11.870
24042W        W85353  13.289  25.190   1.729
24043W        W85354  17.182  23.714   5.220
24044W        W85355  12.829  40.924  14.846
24045W        W85356  37.379  21.512  13.350
24046W        W85357  39.033   6.421  14.762
24047W        W85358   4.410  15.597  10.129
24048W        W85359   9.649   4.248  11.120
24049W        W85360  36.957  43.458  12.957
24050W        W85361   8.392  28.486   0.298
24051W        W85362  18.739  18.126   1.236
24052W        W85363   2.929  30.446  13.920
24053W        W85364   3.890  28.970  14.892
24054W        W85365   7.298  38.870  10.623
24055W        W85366  37.931   7.357   1.396
24056W        W85367  38.077  40.885   0.246
24057W        W85368   3.445  42.838   1.445
24058W        W85369  18.140   0.249  12.447
24059W        W85370  39.880  29.662   1.328
24060W        W85371   6.919  43.018   3.832
24061W        W85372   6.807  18.721  12.434
24062W        W85373   3.215  32.549  11.901
24063W        W85374  37.881  35.435   3.261
24064W        W85375  32.588  24.500  13.918
24065W        W85376   7.856  38.060  10.420
24066W        W85377  14.669  36.412   0.751
24067W        W85378  37.035  42.915   2.315
24068W        W85379   4.698  41.432  10.536
24069W        W85380  24.717   4.382  14.474
24070W        W85381  28.093  22.149   1.344
24071W        W85382  41.888  41.312  13.797
24072W        W85383  28.519  17.691   4.140
24073W        W85384  35.991   6.819  13.818
24074W        W85385  19.566  20.049  12.972
24075W        W85386  13.346  17.074   0.354
24076W        W85387  21.555  39.970   0.878
24077W        W85388  42.845  30.119   1.713
24078W        W85389  14.257   9.224  13.326
24079W        W85390  22.648  42.516  12.064
24080W        W85391   3.951  15.100   2.810
24081W        W85392  20.114  33.024  12.466
24082W        W85393  17.194  33.417  12.065
24083W        W85394  26.484  29.131   0.273
24084W        W85395  44.946  17.247   0.479
24085W        W85396  33.533  32.508   3.241
24086W        W85397  41.978  32.135  11.045
24087W        W85398  14.753   2.410  11.082
24088W        W85399  31.591  40.410   4.707
24089W        W85400  38.838   3.799   2.704
24090W        W85401  23.556   7.174  14.772
24091W        W85402  16.143  34.470   3.280
24092W        W85403  37.481   6.714   3.191
24093W        W85404  35.103  22.680  13.013
24094W        W85405  17.146  37.389  12.373
24095W        W85406  41.996  27.629   0.324
24096W        W85407  27.167  44.006  13.396
24097W        W85408  22.169  10.310   2.346
24098W        W85409  28.134  21.244   4.703
24099W        W85410  32.529   6.257   0.453
24100W        W85411  42.337  10.266  11.395
24101W        W85412  22.664   4.241  14.015
24102W        W85413  28.611   8.891   1.737
24103W        W85414  32.108  28.513   0.935
24104W        W85415  19.626  19.203   0.830
24105W        W85416   2.411  27.586  13.540
24106W        W85417  22.206   4.875  11.579
24107W        W85418  16.135  21.688   1.742
24108W        W85419  35.377  41.042   2.740
24109W        W85420  33.599  14.196   2.328
24110W        W85421  23.076  34.949   3.213
24111W        W85422   1.286  32.908   0.404
24112W        W85423  12.703  20.219   0.398
24113W        W85424  24.670  37.456   1.401
24114W        W85425  42.412  24.013  14.508
24115W        W85426   3.238  10.243  13.449
24116W        W85427  39.960  24.198  10.544
24117W        W85428  39.317  22.109  11.084
24118W        W85429  41.468   9.718   4.353
24119W        W85430  42.501  22.108   3.303
24120W        W85431  41.899   3.716  11.543
24121W        W85432   9.653  11.850  10.459
24122W        W85433  27.655  40.021   2.255
24123W        W85434   6.251  28.606  12.375
24124W        W85435  14.798  12.853   4.614
24125W        W85436  32.571   8.742   4.347
24126W        W85437  19.261  24.060   2.676
24127W        W85438  20.175  43.938  13.458
24128W        W85439  29.621  16.203  13.349
24129W        W85440  25.040  15.678   1.862
24130W        W85441   6.256  39.836  14.788
24131W        W85442   8.672   2.871  14.845
24132W        W85443  43.334  18.178  14.494
24133W        W85444   8.693  34.594  10.641
24134W        W85445  14.665  28.458   2.743
24135W        W85446   2.784  25.571   2.684
24136W        W85447   1.269  25.506   3.663
24137W        W85448   5.904  33.876   0.878
24138W        W85449  41.944  27.641  13.409
24139W        W85450  35.539   5.296  11.057
24140W        W85451   6.346  13.617  12.505
24141W        W85452   9.340  15.734   1.412
24142W        W85453  43.446  27.017   1.214
24143W        W85454  39.960  13.701   2.300
24144W        W85455  15.129  30.930  10.425
24145W        W85456  36.976  24.706   3.742
24146W        W85457  23.187   4.261   2.680
24147W        W85458  43.879   7.827   4.612
24148W        W85459  24.183  24.047   4.730
24149W        W85460  14.300  38.844  10.084
24150W        W85461  13.281  18.068  14.999
24151W        W85462  44.807  33.992  11.492
24152W        W85463  39.864  31.096  13.509
24153W        W85464   0.955  14.216  14.785
24154W        W85465  10.259  13.204  11.925
24155W        W85466  14.721  30.936   2.714
24156W        W85467  38.518  32.452   2.195
24157W        W85468  21.169  20.569  11.992
24158W        W85469  16.267  32.613  13.842
24159W        W85470  14.779   2.435   2.716
24160W        W85471   4.354  37.369  11.514
24161W        W85472  24.009  25.211  10.521
24162W        W85473  17.238  31.129  12.011
24163W        W85474  44.449  38.509   1.291
24164W        W85475  43.777  29.511   0.768
24165W        W85476   4.391  10.218   3.701
24166W        W85477  32.423  12.841   0.356
24167W        W85478  36.045   5.924  11.604
24168W        W85479  21.176   1.929  14.852
24169W        W85480  33.493   5.703  14.806
24170W        W85481   4.759   7.828   1.320
24171W        W85482  11.816  37.954  13.953
24172W        W85483  33.453   0.844  14.999
24173W        W85484   6.215   2.742  13.437
24174W        W85485  29.488  39.915   3.863
24175W        W85486  36.464  34.968   1.226
24176W        W85487  26.991  38.973  12.067
24177W        W85488  44.982  26.467   3.794
24178W        W85489  10.787  20.677  10.909
24179W        W85490  29.621  16.722   3.854
24180W        W85491  32.996   2.406  12.916
24181W        W85492  13.623  37.979   1.437
24182W        W85493  33.608  27.099   0.314
24183W        W85494   5.324  17.563   4.650
24184W        W85495  35.891  43.327   4.731
24185W        W85496  31.955  26.637  14.981
24186W        W85497  30.629   8.664  10.523
24187W        W85498  38.039   1.835  13.454
24188W        W85499  27.499  19.747   2.733
24189W        W85500  15.142  42.505   4.602
24190W        W85501  17.173  39.924  14.830
24191W        W85502  15.627  26.496   0.308
24192W        W85503  22.093  35.569   3.816
24193W        W85504   4.721  23.701  14.493
24194W        W85505  12.253  26.468   1.258
24195W        W85506  25.594  26.064   4.622
24196W        W85507  16.755  27.136  11.033
24197W        W85508  26.456   8.703  12.974
24198W        W85509  37.484   6.783  11.599
24199W        W85510  40.475  16.586  12.853
24200W        W85511  13.317   7.274   9.976
24201W        W85512   2.465  21.559  13.894
24202W        W85513   1.736   7.893  12.438
24203W        W85514  32.535  17.609  13.973
24204W        W85515   0.421   7.174  10.457
24205W        W85516  13.740  44.494   0.248
24206W        W85517  12.179  13.642   0.383
24207W        W85518  34.429  36.534   3.854
24208W        W85519  43.772  12.121  14.777
24209W        W85520  28.056  29.107   0.477
24210W        W85521  19.588  13.250  13.915
24211W        W85522  12.695  36.522  13.514
24212W        W85523   9.182  27.602  13.855
24213W        W85524  22.699  28.079   4.253
24214W        W85525  28.144   0.773  10.409
24215W        W85526  29.053  11.815   2.668
24216W        W85527  17.785   7.331   4.644
24217W        W85528  24.692  22.233   1.416
24218W        W85529   6.334  18.790   4.608
24219W        W85530  44.463  38.922   0.924
24220W        W85531  20.563  19.686  11.374
24221W        W85532   0.886   6.290  10.917
24222W        W85533  14.788   2.226   3.330
24223W        W85534  24.621  42.972   1.695
24224W        W85535  17.228  29.608   2.784
24225W        W85536   8.330  33.610   4.674
24226W        W85537  32.473  17.171   0.424
24227W        W85538  32.979  26.965   4.624
24228W        W85539   3.261  41.352   3.838
24229W        W85540  23.163  27.556  12.553
24230W        W85541  35.909   8.900  12.033
24231W        W85542   7.226  36.361   2.341
24232W        W85543   4.396  29.003  14.490
24233W        W85544  17.197  33.114  14.433
24234W        W85545   6.328  30.544  13.044
24235W        W85546  32.942  18.677   2.872
24236W        W85547  30.423  32.986   2.717
24237W        W85548  16.581   2.801  10.999
24238W        W85549  30.128   1.345   1.275
24239W        W85550  37.078   6.778  12.033
24240W        W85551  10.294  26.585  10.497
24241W        W85552  42.508   8.192   2.238
24242W        W85553  23.070   4.910   0.946
24243W        W85554  27.666   9.881  14.982
24244W        W85555  32.036  36.070  10.604
24245W        W85556  20.628  10.783  11.432
24246W        W85557  12.633  34.571   2.248
24247W        W85558  19.735  10.844   4.746
24248W        W85559  40.937   8.885  10.424
24249W        W85560  35.048  15.276  13.896
24250W        W85561  28.143  29.013  12.917
24251W        W85562  22.042  10.335   4.658
24252W        W85563  37.838  40.851  12.472
24253W        W85564  18.552  35.449   4.284
24254W        W85565  22.063  37.541   0.303
24255W        W85566  20.075   0.478  14.335
24256W        W85567  43.447  14.655  14.313
24257W        W85568  32.904   9.165   4.757
24258W        W85569  24.128  36.855  10.517
24259W        W85570   4.709  37.883   2.735
24260W        W85571  15.604  37.435   4.313
24261W        W85572  38.921  19.193   0.866
24262W        W85573  17.640  23.013   1.354
24263W        W85574   1.965   9.295   2.808
24264W        W85575  22.008  17.118   2.756
24265W        W85576  24.174  12.645   9.968
24266W        W85577  10.286  44.897  14.858
24267W        W85578  32.084  13.330  14.956
24268W        W85579   2.789  30.437   3.226
24269W        W85580  37.515  18.209  10.902
24270W        W85581  12.276  40.333  11.935
24271W        W85582  24.997   8.688  12.825
24272W        W85583  22.100  24.482  11.590
24273W        W85584  23.006  38.422   0.816
24274W        W85585  41.334  16.658  13.507
24275W        W85586  24.186   3.262   2.233
24276W        W85587  24.062  39.062  10.476
24277W        W85588  13.801  31.110  11.449
24278W        W85589  44.431  15.146   0.945
24279W        W85590  28.949  17.304  13.464
24280W        W85591  12.127  21.126   2.679
24281W        W85592  26.014   6.258  13.795
24282W        W85593  44.460  17.135   2.804
24283W        W85594  41.918  14.813  11.116
24284W        W85595  12.656   1.318   2.335
24285W        W85596  17.166  18.220  10.479
24286W        W85597   8.175  40.042  11.455
24287W        W85598  20.053  30.017   2.859
24288W        W85599  10.758  19.232  13.844
24289W        W85600  12.312  36.352  10.617
24290W        W85601  42.966  16.650  14.971
24291W        W85602   7.792  30.082   3.242
24292W        W85603  19.687  23.631   3.682
24293W        W85604   4.301  25.540  12.532
24294W        W85605   2.942  38.017   0.800
24295W        W85606  20.713  36.369  11.057
24296W        W85607  27.535  18.681  12.473
24297W        W85608  44.810  39.495  10.537
24298W        W85609  36.501  42.787  11.021
24299W        W85610  43.931  23.522   4.693
24300W        W85611  32.491   6.899  14.810
24301W        W85612  30.502  37.402   2.410
24302W        W85613   5.746   6.375   1.360
24303W        W85614  14.695  43.382   3.341
24304W        W85615  10.750  32.418   4.162
24305W        W85616  32.467  44.434   4.149
24306W        W85617   1.483   7.209   3.840
24307W        W85618   4.786  10.660   1.781
24308W        W85619  14.147   8.778   4.333
24309W        W85620  39.558  34.937   2.192
24310W        W85621  15.163  35.363  10.461
24311W        W85622   3.838  38.458  13.321
24312W        W85623   3.347  44.000  11.981
24313W        W85624  32.976  29.435   0.468
24314W        W85625  22.233  23.625  12.953
24315W        W85626   0.429  25.571  13.386
24316W        W85627  28.613   2.958  11.375
24317W        W85628   3.727  34.407   2.691
24318W        W85629  39.824  31.503  12.362
24319W        W85630  18.132   6.393   0.911
24320W        W85631   9.187  29.113  12.972
24321W        W85632   1.953  18.675   1.316
24322W        W85633  14.308  15.112   0.742
24323W        W85634  19.204  29.089  13.793
24324W        W85635  14.683   9.780   4.684
24325W        W85636  21.600  39.505  13.980
24326W        W85637  13.167  23.120   3.355
24327W        W85638   1.746  21.172  14.999
24328W        W85639   1.287  39.522   4.141
24329W        W85640   2.446   9.369   4.718
24330W        W85641   1.768  18.769   1.737
24331W        W85642  10.321  11.258   0.740
24332W        W85643  16.615   2.266   4.660
24333W        W85644  18.613  41.942  12.950
24334W        W85645  33.580  33.495   1.239
24335W        W85646   9.822  12.283  10.483
24336W        W85647  40.385  43.951   0.914
24337W        W85648  22.509  34.532  14.912
24338W        W85649  43.321  37.082   2.900
24339W        W85650  11.849  21.752   4.815
24340W        W85651   5.223  32.467  11.047
24341W        W85652  14.802  39.852   1.698
24342W        W85653  31.453   1.875   2.901
24343W        W85654   6.226  43.373   2.785
24344W        W85655  27.545  42.464  14.830
24345W        W85656  14.635  38.489  12.479
24346W        W85657  29.942  32.394  11.578
24347W        W85658  25.004   3.764   0.841
24348W        W85659   2.317  18.580  10.919
24349W        W85660  33.114  34.523  14.402
24350W        W85661  15.627  41.851  13.820
24351W        W85662  24.550  44.824  13.308
24352W        W85663  17.612  30.485  13.884
24353W        W85664   8.743   3.320   4.667
24354W        W85665  28.495   1.311  12.558
24355W        W85666  40.975  20.742   4.763
24356W        W85667  20.695   9.720   4.632
24357W        W85668  40.397  19.611  12.052
24358W        W85669   5.708  14.198  13.371
24359W        W85670   1.344  24.111   2.402
24360W        W85671  35.891  24.071  13.404
24361W        W85672  11.856  30.079  10.972
24362W        W85673  33.623  37.923   1.787
24363W        W85674  38.002  15.695   1.262
24364W        W85675  37.062  12.293  12.871
24365W        W85676  19.731  15.185  10.492
24366W        W85677  28.583  13.826  14.300
24367W        W85678  12.267  37.418   1.784
24368W        W85679  17.796  30.084   0.336
24369W        W85680  36.463  13.841   4.692
24370W        W85681  15.765  19.659  14.312
24371W        W85682  30.915   7.334   1.303
24372W        W85683  20.608  14.749  12.035
24373W        W85684  25.573  18.188  13.058
24374W        W85685   0.420  40.446  13.376
24375W        W85686  29.979  36.029  12.443
24376W        W85687   3.898  21.599  11.399
24377W        W85688  13.141  12.720   2.815
24378W        W85689  11.168  10.862  12.376
24379W        W85690  22.108  39.335   0.367
24380W        W85691  43.484  17.638   2.714
24381W        W85692  26.126   9.748   0.842
24382W        W85693   6.353   5.923  11.072
24383W        W85694  21.673  27.086   2.669
24384W        W85695  22.691   9.231  14.471
24385W        W85696  30.567  31.514  14.904
24386W        W85697  31.073   0.385   1.825
24387W        W85698  19.229  14.230   2.361
24388W        W85699  26.105  35.877  13.024
24389W        W85700  12.638  39.462  10.889
24390W        W85701  41.355  22.181   0.821
24391W        W85702  29.998  41.318   2.687
24392W        W85703  11.315  24.583  13.429
24393W        W85704   8.249  21.701  11.420
24394W        W85705  10.733  28.660   3.725
24395W        W85706   2.947  38.983   0.394
24396W        W85707  13.133  44.318   4.328
24397W        W85708  42.982  24.710  10.574
24398W        W85709   4.224  33.071  14.914
24399W        W85710  13.729  42.979   0.353
24400W        W85711  33.927  28.582  14.863
24401W        W85712  32.576   2.320  12.025
24402W        W85713  32.568   9.257   0.782
24403W        W85714   5.808  30.523  14.864
24404W        W85715  22.645  43.484   2.771
24405W        W85716   6.866  21.048   0.278
24406W        W85717  23.157  32.417   1.226
24407W        W85718  28.444  42.350   0.910
24408W        W85719  39.441  22.542   4.648
24409W        W85720  42.005  34.526  10.047
24410W        W85721  13.126  10.380  10.011
24411W        W85722  30.591  28.147   1.235
24412W        W85723  12.190  34.869   3.316
24413W        W85724  35.916  29.174   0.966
24414W        W85725  28.622  17.789  13.373
24415W        W85726  20.079  38.354  10.945
24416W        W85727  40.844  17.125  11.946
24417W        W85728  27.663  10.800  14.918
24418W        W85729   5.329  38.480  13.430
24419W        W85730  22.090   0.479   4.320
24420W        W85731  37.432  41.987   3.292
24421W        W85732  13.769   9.342   1.247
24422W        W85733  11.368   6.327   2.349
24423W        W85734  17.795   2.466   3.247
24424W        W85735   0.396  13.257   4.683
24425W        W85736  20.068   3.362  11.935
24426W        W85737  42.784  34.560   4.732
24427W        W85738  30.485  19.644   4.750
24428W        W85739  14.206  28.483   0.292
24429W        W85740  10.652   4.767  11.855
24430W        W85741   3.436   2.420   4.744
24431W        W85742   9.327   4.264   1.778
24432W        W85743  31.995   7.834   3.165
24433W        W85744  14.251  25.033   1.424
24434W        W85745  29.142  20.167   0.260
24435W        W85746   9.865  30.933  12.979
24436W        W85747  17.299  10.865   1.796
24437W        W85748  14.633  28.617   3.682
24438W        W85749  26.997  21.056  14.342
24439W        W85750  37.466  20.052  14.430
24440W        W85751   6.259   0.300   3.764
24441W        W85752  39.860  29.495  13.376
24442W        W85753  24.072  25.605  13.449
24443W        W85754   7.719  39.969  10.998
24444W        W85755  29.647   7.884   2.698
24445W        W85756  43.503   7.736  10.963
24446W        W85757  30.063  29.127   4.734
24447W        W85758   8.184  36.057   3.826
24448W        W85759  18.180  10.299  10.926
24449W        W85760  20.690  30.476   4.800
24450W        W85761  21.037  13.170  10.527
24451W        W85762  13.750  10.178   3.298
24452W        W85763  41.393   9.680  11.380
24453W        W85764  40.504  22.101   3.677
24454W        W85765   4.827  18.054  13.355
24455W        W85766  38.521  31.916   2.187
24456W        W85767   9.660  33.618  11.048
24457W        W85768  15.107  17.631   2.784
24458W        W85769  15.228  35.437  13.046
24459W        W85770  44.437   9.172   0.950
24460W        W85771  18.568   8.675   4.615
24461W        W85772  42.336  30.121  11.400
24462W        W85773  29.093  16.575   2.732
24463W        W85774   7.378  29.503   3.637
24464W        W85775  21.641  44.444   1.783
24465W        W85776  11.850  14.260  11.483
24466W        W85777  40.527  33.927  13.446
24467W        W85778  35.520   7.284  12.988
24468W        W85779  38.562  40.367   1.815
24469W        W85780   9.368   8.268  10.595
24470W        W85781   5.706  35.471   0.461
24471W        W85782  21.043   5.856  13.545
24472W        W85783   4.713  11.265   2.683
24473W        W85784  24.597  37.410  14.350
24474W        W85785  23.199  27.513   5.133
24475W        W85786  39.410  41.972   2.417
24476W        W85787  31.522  40.028  13.509
24477W        W85788  21.214  29.567   3.758
24478W        W85789  26.033  44.810  10.603
24479W        W85790  33.882   2.341  11.481
24480W        W85791  16.777   8.666  12.394
24481W        W85792   0.840  11.252  11.966
24482W        W85793   9.300  42.878   4.660
24483W        W85794  29.427  37.466  11.927
24484W        W85795  43.799   6.277   1.871
24485W        W85796  37.990  15.272   0.309
24486W        W85797  33.973  29.028  10.963
24487W        W85798  29.454  19.590   1.731
24488W        W85799  26.492  19.046   2.205
24489W        W85800  31.615  35.993  10.600
24490W        W85801  22.581  20.574   3.319
24491W        W85802   9.817   4.394   4.830
24492W        W85803  37.080  29.468   5.722
24493W        W85804  30.941  39.429   0.885
24494W        W85805  33.043   4.803  12.399
24495W        W85806  20.658   3.332   3.701
24496W        W85807  16.586  27.173   4.230
24497W        W85808  18.586  17.789   0.314
24498W        W85809   1.819  20.667   4.351
24499W        W85810  26.185  39.317   2.278
24500W        W85811  24.531  14.650   2.865
24501W        W85812  34.081  33.983   1.745
24502W        W85813  22.105  19.591   0.456
24503W        W85814  11.154   0.285   1.327
24504W        W85815  10.805   2.289  10.478
24505W        W85816   8.211  18.745   0.902
24506W        W85817  26.101  32.460   0.820
24507W        W85818  25.658  22.589  14.482
24508W        W85819  26.005   7.738  13.391
24509W        W85820  39.981  18.279   4.639
24510W        W85821  31.129  23.135  13.477
24511W        W85822  11.762  22.232   2.853
24512W        W85823  26.193  35.986   4.686
24513W        W85824  25.485  25.661  10.620
24514W        W85825  19.039  25.620  14.423
24515W        W85826   0.797  34.528   4.602
24516W        W85827  20.243  13.193   3.870
24517W        W85828  36.464  36.450   0.365
24518W        W85829  21.119  11.774   3.251
24519W        W85830  11.843   4.707   0.754
24520W        W85831   3.796  15.593  12.565
24521W        W85832  16.102  19.079  10.889
24522W        W85833   9.251   5.321   2.690
24523W        W85834  23.007  36.859   4.618
24524W        W85835   0.766   0.255   2.869
24525W        W85836  29.081  32.928  13.894
24526W        W85837  42.820  26.667   4.777
24527W        W85838  34.882  42.347  14.323
24528W        W85839  30.090  35.431   1.344
24529W        W85840  30.574  14.617   4.675
24530W        W85841  27.118  35.999   4.263
24531W        W85842  42.329  12.727   2.685
24532W        W85843  37.471  14.739  13.925
24533W        W85844   9.704  18.188  12.987
24534W        W85845  28.561  32.936  11.924
24535W        W85846   7.379  19.063   4.705
24536W        W85847  44.767  18.667  13.358
24537W        W85848  28.540   8.337   2.756
24538W        W85849   0.255  35.000   1.904
24539W        W85850   7.701  40.916  12.484
24540W        W85851   6.676   2.933   3.239
24541W        W85852  40.428  29.935  12.354
24542W        W85853  43.998  26.648   1.708
24543W        W85854  34.022  41.496  13.967
24544W        W85855  19.578  18.247  14.921
24545W        W85856  31.904   9.276  12.082
24546W        W85857  40.954   9.196  11.394
24547W        W85858  31.087   5.415  11.493
24548W        W85859  28.961   4.812   2.877
24549W        W85860  37.073  44.358  10.140
24550W        W85861  32.121   5.199   1.729
24551W        W85862  39.914  37.900   2.747
24552W        W85863  42.460  42.865   1.358
24553W        W85864  10.695   5.345   4.725
24554W        W85865  36.574  11.167  12.388
24555W        W85866   9.877  12.616  13.362
24556W        W85867  31.152  44.350   2.313
24557W        W85868   3.432  33.404   2.898
24558W        W85869   0.905  28.102  12.372
24559W        W85870  37.353  12.812  10.118
24560W        W85871   4.917  16.695   2.853
24561W        W85872  38.350  11.654   3.720
24562W        W85873  35.513  38.880   9.594
24563W        W85874  40.973  44.930  12.864
24564W        W85875  23.037  13.715  10.507
24565W        W85876  36.562  41.451  13.470
24566W        W85877   0.890  38.013   2.701
24567W        W85878  17.198  34.012  11.884
24568W        W85879  43.826  27.602   1.694
24569W        W85880  28.931  42.356   0.959
24570W        W85881  32.542  22.709  11.959
24571W        W85882  29.556  28.480  11.481
24572W        W85883  15.607  11.135  11.575
24573W        W85884   1.240  37.532   3.843
24574W        W85885  12.762  12.731   4.704
24575W        W85886   5.722  37.500   2.669
24576W        W85887  23.165   0.396   4.623
24577W        W85888  26.968  42.498   0.322
24578W        W85889  37.534  21.648   0.337
24579W        W85890  25.995  42.906   1.217
24580W        W85891  36.931  27.966   0.427
24581W        W85892  14.284  17.066  14.496
24582W        W85893  27.598  34.952   4.209
24583W        W85894  33.988  25.124   4.334
24584W        W85895   1.811   7.737   4.735
24585W        W85896  29.476  43.441   1.872
24586W        W85897  11.203  15.791   1.210
24587W        W85898  22.170  26.128   2.761
24588W        W85899  40.811  30.139   4.303
24589W        W85900  14.298   2.458  11.912
24590W        W85901  38.994  19.737   3.729
24591W        W85902  28.956   8.176  14.782
24592W        W85903  27.550  39.397  10.564
24593W        W85904  30.646  16.225  12.948
24594W        W85905  25.540  23.064   0.770
24595W        W85906  33.897  21.036  10.553
24596W        W85907  38.531  33.962   2.398
24597W        W85908  12.661   2.410  10.020
24598W        W85909  15.283  34.938   2.743
24599W        W85910  34.486  41.870   1.840
24600W        W85911   9.236   3.751  11.456
24601W        W85912   6.389  31.529   4.115
24602W        W85913  25.157   6.356  10.533
24603W        W85914  30.974  41.502   4.738
24604W        W85915  30.433  31.439  12.371
24605W        W85916   5.263  35.882   1.229
24606W        W85917  22.720  20.674   2.289
24607W        W85918  15.113  10.788  12.053
24608W        W85919  31.012   8.169   1.270
24609W        W85920   3.892   1.340  10.928
24610W        W85921  42.423  18.106  14.011
24611W        W85922  38.409  32.566   1.726
24612W        W85923   1.467  42.868  14.317
24613W        W85924  38.376  41.817  11.543
24614W        W85925  27.629  43.360   0.294
24615W        W85926  28.489  31.419   0.749
24616W        W85927   8.165  22.232   4.622
24617W        W85928  15.224   1.471   0.945
24618W        W85929   4.848  18.558  10.612
24619W        W85930  44.967  34.945   4.610
24620W        W85931  43.916  28.548   3.245
24621W        W85932  41.940   8.716  10.540
24622W        W85933  31.060  35.031  14.309
24623W        W85934  41.320  11.192  14.866
24624W        W85935  15.640  35.081   3.738
24625W        W85936  13.615   7.203  12.002
24626W        W85937  24.021   8.853  13.061
24627W        W85938   8.321  35.369  11.456
24628W        W85939   2.915  15.723  13.888
24629W        W85940  15.135   6.763   1.357
24630W        W85941  14.216  20.753   4.639
24631W        W85942  41.793  25.540  12.955
24632W        W85943  31.112  28.542   3.180
24633W        W85944  15.765  14.651   2.213
24634W        W85945  25.213  44.435  11.931
24635W        W85946  32.632  15.226  11.048
24636W        W85947  12.196  37.046   4.187
24637W        W85948  39.835  39.932  14.494
24638W        W85949   8.730  20.721  11.915
24639W        W85950  23.495   6.853  12.443
24640W        W85951   3.806   8.900   1.739
24641W        W85952  36.383  18.283   0.835
24642W        W85953  26.674   8.792   3.368
24643W        W85954   0.858  37.473  13.991
24644W        W85955  10.350  38.488  11.457
24645W        W85956   5.224   6.901   2.307
24646W        W85957  29.617  17.798   0.903
24647W        W85958  40.462  17.634   2.876
24648W        W85959  16.072  35.975  10.406
24649W        W85960   0.952   4.330  14.992
24650W        W85961  22.696  29.163   3.718
24651W        W85962  28.109   7.231  14.321
24652W        W85963  26.696  28.112  12.521
24653W        W85964  21.045  36.352  14.432
24654W        W85965  34.907  28.641  12.027
24655W        W85966  22.614  17.064   4.602
24656W        W85967  12.223  13.775   1.805
24657W        W85968  25.206  42.316  10.991
24658W        W85969  40.930  28.465  14.859
24659W        W85970  40.804  34.029  14.855
24660W        W85971  42.834  35.908   2.178
24661W        W85972  22.695  32.111  14.347
24662W        W85973  14.112  41.393  13.909
24663W        W85974  29.663  16.746  10.005
24664W        W85975  43.982  24.525  12.459
24665W        W85976   3.934  20.571  10.419
24666W        W85977  23.239  22.674  14.946
24667W        W85978   1.945   1.463   1.216
24668W        W85979  11.145  44.262   2.320
24669W        W85980  26.952  24.598  12.938
24670W        W85981  25.176  41.425   1.349
24671W        W85982  28.510  30.606  11.129
24672W        W85983   1.415  27.639  11.383
24673W        W85984  24.226  33.899  13.309
24674W        W85985  38.986  17.727   4.608
24675W        W85986  16.625  21.213  13.519
24676W        W85987  28.444   7.859  10.643
24677W        W85988  31.913  27.126  14.275
24678W        W85989  38.920   6.362  13.532
24679W        W85990  15.781  28.145   4.703
24680W        W85991   6.703   2.323  11.928
24681W        W85992   9.737  10.174  13.445
24682W        W85993  33.536  34.438  14.454
24683W        W85994   5.701  37.931  14.838
24684W        W85995  39.912  37.911   2.389
24685W        W85996   0.869  11.810   3.342
24686W        W85997  39.994  24.185   2.294
24687W        W85998  30.113  34.893   3.826
24688W        W85999  44.776  37.343   2.738
24689W        W86000  18.647  24.571   4.337
24690W        W86001  36.427  10.180  11.937
24691W        W86002   7.318  36.437  11.069
24692W        W86003  43.425   2.382  11.507
24693W        W86004  20.601  26.057   2.844
24694W        W86005  41.919   1.763   2.780
24695W        W86006  42.500  12.336  13.806
24696W        W86007  18.243  20.678   2.365
24697W        W86008  42.411  37.550   1.327
24698W        W86009   7.251  38.865   4.141
24699W        W86010  36.556  15.286  12.928
24700W        W86011  26.159  34.925  11.550
24701W        W86012  30.623  13.834  11.608
24702W        W86013  20.568  23.636  11.025
24703W        W86014  41.947   9.202   1.263
24704W        W86015  10.709   6.757   3.838
24705W        W86016   2.440  12.621  11.861
24706W        W86017  33.416  18.270   0.827
24707W        W86018  39.425   8.898   4.278
24708W        W86019  31.947   6.725  10.556
24709W        W86020  41.016  34.406  10.985
24710W        W86021  27.999   6.241   0.313
24711W        W86022  36.445  13.134   2.347
24712W        W86023   1.416  17.176  14.279
24713W        W86024  10.326   6.246  14.801
24714W        W86025   9.766  35.875   2.731
24715W        W86026  38.392  23.133  12.405
24716W        W86027  43.398  13.792  13.019
24717W        W86028  34.030  16.112   1.742
24718W        W86029  28.089  25.616   3.705
24719W        W86030   7.260   2.814  13.390
24720W        W86031  40.982  19.730   3.384
24721W        W86032  28.642  39.428  13.345
24722W        W86033  22.109  21.084   0.823
24723W        W86034  27.998  38.383   4.761
24724W        W86035   2.411  19.185  10.570
24725W        W86036  24.559  15.593  11.860
24726W        W86037  42.446  15.622  12.384
24727W        W86038  11.338  32.900   0.339
24728W        W86039  19.717   5.791   4.177
24729W        W86040  15.758  20.071   4.827
24730W        W86041   0.280  13.316   0.839
24731W        W86042  38.384   4.909   2.779
24732W        W86043  30.600  32.007   5.275
24733W        W86044  15.226  29.020  10.430
24734W        W86045  12.298  40.510   2.361
24735W        W86046   9.378  17.708   5.243
24736W        W86047  10.716  29.013  11.542
24737W        W86048   4.291  25.707   4.653
24738W        W86049  21.113  15.719   3.855
24739W        W86050  20.531  29.080  12.055
24740W        W86051  16.291   4.934  12.961
24741W        W86052   6.249  32.105   3.861
24742W        W86053  22.227  39.951   1.860
24743W        W86054  34.976   5.902   4.714
24744W        W86055  20.584  43.952   4.775
24745W        W86056   0.483   8.267   3.790
24746W        W86057  33.475  29.458  10.107
24747W        W86058  22.112  18.101  11.535
24748W        W86059  20.767  42.337  10.479
24749W        W86060  36.487  33.089  13.457
24750W        W86061  10.374  25.622  13.031
24751W        W86062  39.011  38.486  13.533
24752W        W86063  22.628  13.132  14.321
24753W        W86064  35.504  37.407  13.479
24754W        W86065  42.427  28.174  12.396
24755W        W86066  32.398   3.231   1.787
24756W        W86067   3.867   6.192  14.971
24757W        W86068  41.963  27.967   4.244
24758W        W86069  37.517  33.608   2.398
24759W        W86070   7.377   9.889   4.296
24760W        W86071  38.544   2.914   1.367
24761W        W86072  22.568  11.770   3.149
24762W        W86073  22.238  36.077  12.501
24763W        W86074  33.996   9.861  12.452
24764W        W86075   4.215  17.643   3.229
24765W        W86076  31.092   7.207  10.910
24766W        W86077   6.748  38.043   3.691
24767W        W86078  34.487  33.061   3.184
24768W        W86079  30.966  34.484  13.542
24769W        W86080  22.996  22.724   4.686
24770W        W86081   1.459  30.616  12.431
24771W        W86082  21.050  42.925   2.271
24772W        W86083  40.330  10.140  10.946
24773W        W86084  27.978  10.207  14.455
24774W        W86085  21.220   1.777  11.429
24775W        W86086  42.293  20.149   0.869
24776W        W86087  39.834  14.177   3.194
24777W        W86088  30.513   0.470   2.720
24778W        W86089  23.588  22.177   2.395
24779W        W86090  32.142  38.468   3.833
24780W        W86091   1.448   7.682  14.789
24781W        W86092  11.358  39.444  11.894
24782W        W86093  16.678  34.404  11.883
24783W        W86094   2.758  14.253   2.187
24784W        W86095  16.713  21.551   2.380
24785W        W86096  32.637  39.410  12.356
24786W        W86097  29.013  30.417   4.149
24787W        W86098  14.292   4.712  14.922
24788W        W86099  13.115  27.955   2.220
24789W        W86100  20.161  26.669   4.142
24790W        W86101  37.047  26.529  13.889
24791W        W86102   4.844  39.421  11.110
24792W        W86103  36.841  34.437   4.225
24793W        W86104   4.342  37.043   2.374
24794W        W86105   9.690  30.525  11.031
24795W        W86106  25.689   6.295   3.182
24796W        W86107  34.973  10.174  11.994
24797W        W86108  19.561   4.896  11.425
24798W        W86109  13.171  23.179  11.890
24799W        W86110  41.532  19.773  14.999
24800W        W86111  14.687  20.618  13.397
24801W        W86112  38.381  38.075  10.888
24802W        W86113  31.633  29.653   2.861
24803W        W86114  12.178  23.212   1.732
24804W        W86115  19.138   9.198  12.494
24805W        W86116  32.432  25.050   0.749
24806W        W86117   6.732  42.300  10.558
24807W        W86118  34.952  40.489   5.201
24808W        W86119  19.626   1.430   0.749
24809W        W86120  42.943  23.583   4.143
24810W        W86121  15.651  19.199  14.876
24811W        W86122  37.347   1.274   4.126
24812W        W86123   8.772  30.518   3.651
24813W        W86124   3.270   9.170   1.895
24814W        W86125  13.743  34.885  10.478
24815W        W86126   3.872  12.681   0.940
24816W        W86127   5.276  41.372   1.301
24817W        W86128  15.715  29.581  14.445
24818W        W86129   0.251  10.285   3.818
24819W        W86130  29.649  11.728   3.320
24820W        W86131  27.045  19.202  11.110
24821W        W86132   2.753  43.409  11.542
24822W        W86133   6.904  16.312  10.546
24823W        W86134  40.489   1.798  14.993
24824W        W86135  29.030   3.460   4.313
24825W        W86136  29.114  35.560  13.839
24826W        W86137  28.446  12.831   3.273
24827W        W86138  25.690  21.082   0.924
24828W        W86139   1.886   2.858   4.182
24829W        W86140  21.667  24.054  14.966
24830W        W86141  27.983  44.820  11.459
24831W        W86142   1.860  11.693  14.482
24832W        W86143  41.895  10.267  11.553
24833W        W86144  28.091  29.578  10.494
24834W        W86145  27.596   8.226  10.944
24835W        W86146  33.106  26.498   3.243
24836W        W86147   9.655  19.621  14.759
24837W        W86148  38.402  10.249  14.828
24838W        W86149  23.505  21.540   4.269
24839W        W86150  40.931   8.341  11.377
24840W        W86151  34.090  20.146  12.409
24841W        W86152   9.766  36.973   4.202
24842W        W86153  20.081  26.551  10.026
24843W        W86154  16.297  42.281   1.216
24844W        W86155   7.290  36.847   3.174
24845W        W86156  34.983  40.806   4.300
24846W        W86157  19.715   6.839   3.297
24847W        W86158  40.846  44.862  14.435
24848W        W86159  30.110  39.552   2.698
24849W        W86160   2.755  43.853  14.977
24850W        W86161  43.391  40.019   0.389
24851W        W86162  16.188  42.310  10.430
24852W        W86163  24.675  17.709  12.090
24853W        W86164   9.876   5.401  14.796
24854W        W86165   1.903  18.752   5.210
24855W        W86166  19.696   8.875  11.957
24856W        W86167  11.818  11.813   1.794
24857W        W86168  19.265  17.217   4.690
24858W        W86169  35.905  14.634   0.345
24859W        W86170  44.887   8.719   3.290
24860W        W86171  32.420  32.096   4.832
24861W        W86172  40.962   3.432   3.765
24862W        W86173  13.687   5.837  12.864
24863W        W86174   3.366   6.372  11.975
24864W        W86175  23.549   8.342  12.836
24865W        W86176   3.405  29.140  10.938
24866W        W86177   0.900   8.277   1.316
24867W        W86178   6.852  31.607   4.324
24868W        W86179  18.780   9.250  14.412
24869W        W86180  36.490  25.519   2.306
24870W        W86181  19.666  43.864   2.204
24871W        W86182  40.470  33.083  11.046
24872W        W86183   0.297   6.374   4.284
24873W        W86184  34.093   4.352   3.728
24874W        W86185  44.502  42.777  13.991
24875W        W86186  25.652  13.204  12.851
24876W        W86187  23.702   1.948  12.469
24877W        W86188  11.764  33.516  11.004
24878W        W86189  38.421  40.817  14.420
24879W        W86190   8.787  10.649   3.176
24880W        W86191  20.151   5.237  13.023
24881W        W86192  16.213  14.624  11.439
24882W        W86193  13.691  20.669  10.917
24883W        W86194   8.764  16.148   1.258
24884W        W86195  38.430   5.324   0.469
24885W        W86196  31.563   9.334   1.835
24886W        W86197  20.266   0.916   1.932
24887W        W86198  42.015   0.812   4.155
24888W        W86199  14.614  12.847  11.610
24889W        W86200  13.842  22.650   4.611
24890W        W86201  13.179  13.222   1.256
24891W        W86202   5.787  27.568  10.539
24892W        W86203   5.883   6.814  14.905
24893W        W86204  32.138  26.086   3.841
24894W        W86205   9.176  42.351  13.850
24895W        W86206   3.831   9.285   4.643
24896W        W86207  42.996  18.285  13.041
24897W        W86208   2.313  42.911   1.282
24898W        W86209  34.579  34.900   3.182
24899W        W86210   5.375   7.823  10.517
24900W        W86211  16.744   4.711   9.562
24901W        W86212  23.707  44.394  11.977
24902W        W86213  10.695   4.316  11.451
24903W        W86214   8.338   9.310   2.766
24904W        W86215  37.042  35.963   2.375
24905W        W86216  21.096  18.279   0.367
24906W        W86217   8.230   6.323  14.970
24907W        W86218  30.555   8.198  14.872
24908W        W86219  35.535  42.782  11.070
24909W        W86220  43.845   8.291   0.760
24910W        W86221  30.075  44.458   4.740
24911W        W86222   7.878   1.393   0.398
24912W        W86223   6.196  13.843   3.245
24913W        W86224  34.571   1.271  13.864
24914W        W86225  30.491   5.397   4.195
24915W        W86226  30.015  34.978  11.103
24916W        W86227  23.073  18.582  14.881
24917W        W86228   0.886   4.848  13.897
24918W        W86229  25.970  15.322  14.301
24919W        W86230  20.680   4.807  12.959
24920W        W86231   8.307  35.552   2.243
24921W        W86232  29.442  33.974   4.242
24922W        W86233  34.462   3.868  13.844
24923W        W86234  16.306  17.667   4.714
24924W        W86235  30.648  28.639  11.029
24925W        W86236  16.168  19.583   0.433
24926W        W86237  36.009  33.937   3.685
24927W        W86238  34.874  37.029  11.068
24928W        W86239  20.569  24.034  13.438
24929W        W86240  35.406  15.607   1.445
24930W        W86241   3.291   7.834  10.937
24931W        W86242  34.080  12.309   3.650
24932W        W86243  34.447  21.737  14.825
24933W        W86244  41.319   2.386  12.370
24934W        W86245   0.456  34.563   1.444
24935W        W86246   6.755  44.814   4.208
24936W        W86247  31.961  31.954  11.928
24937W        W86248   7.187  37.997  12.915
24938W        W86249   7.699   8.660   4.242
24939W        W86250  39.489  16.812  10.896
24940W        W86251  42.871  27.572   0.325
24941W        W86252  42.861  22.707  13.542
24942W        W86253  32.919  40.305   0.901
24943W        W86254  34.608  33.948   9.943
24944W        W86255  19.108  26.660   3.865
24945W        W86256  30.651   9.176   3.714
24946W        W86257  18.205  42.919  14.988
24947W        W86258  26.975  43.894  11.420
24948W        W86259  33.940  41.332   4.636
24949W        W86260  26.688  30.094  12.849
24950W        W86261  14.729  41.806   1.428
24951W        W86262  37.905  35.961   0.962
24952W        W86263  32.029  29.595   5.221
24953W        W86264   0.856  28.949   3.206
24954W        W86265  44.467  23.504  12.042
24955W        W86266   8.324  14.244  12.048
24956W        W86267  39.822   6.228  14.415
24957W        W86268  33.465   6.852  11.443
24958W        W86269  38.371  42.887   2.886
24959W        W86270   9.862  44.397  13.392
24960W        W86271  22.154  34.039  13.378
24961W        W86272  30.457  16.287   4.121
24962W        W86273  36.590   7.691   5.302
24963W        W86274  14.214  31.095  13.894
24964W        W86275  17.205  29.463   4.650
24965W        W86276  31.408  13.708   3.752
24966W        W86277  24.610  24.587  11.439
24967W        W86278  29.962  25.177  14.785
24968W        W86279  34.502  18.077  10.596
24969W        W86280   5.291   1.972  14.466
24970W        W86281  15.613  31.109  13.445
24971W        W86282  38.867   4.259   2.727
24972W        W86283  27.619  17.134   2.198
24973W        W86284  18.646   3.411   5.216
24974W        W86285   3.917   0.742  10.620
24975W        W86286  36.383   9.817   0.760
24976W        W86287  15.317  18.642  11.061
24977W        W86288  19.090   2.398  11.538
24978W        W86289  21.075  28.124   2.713
24979W        W86290  12.319   0.817   3.820
24980W        W86291   8.800  42.359   3.222
24981W        W86292   7.803  28.672  12.886
24982W        W86293  25.541  24.054   4.131
24983W        W86294   4.731   2.766  10.589
24984W        W86295   9.710  25.169   3.159
24985W        W86296  16.304  34.460  11.584
24986W        W86297   5.757  44.899   3.629
24987W        W86298   2.421   3.931  14.877
24988W        W86299  25.163   9.804  12.893
24989W        W86300  35.478   5.364  12.488
24990W        W86301  30.151   3.414   2.865
24991W        W86302   7.879  36.576   2.727
24992W        W86303  37.916   4.309   1.366
24993W        W86304   3.293  14.651   1.864
24994W        W86305   0.945   9.727   2.383
24995W        W86306  13.140  16.614  10.967
24996W        W86307  12.842   3.438   2.404
24997W        W86308  44.003  26.520  11.934
24998W        W86309  36.552  15.697  14.960
24999W        W86310  33.982  44.352  14.957
25000W        W86311  43.456  13.685   0.296
25001W        W86312   0.416  25.984   0.389
25002W        W86313   8.303   4.938  11.962
25003W        W86314   0.383   6.793   0.808
25004W        W86315  23.105  30.922   0.340
25005W        W86316  25.653   5.276   9.483
25006W        W86317  14.258  33.400  11.457
25007W        W86318  42.403  36.532   2.387
25008W        W86319  13.236  41.346   1.213
25009W        W86320  10.226   3.835   3.257
25010W        W86321  22.658  35.063   4.756
25011W        W86322  33.968  31.440  13.795
25012W        W86323  21.638  25.023  14.030
25013W        W86324  14.593  17.166   1.239
25014W        W86325  10.873   1.813  10.922
25015W        W86326  19.258  25.150  12.016
25016W        W86327  24.534  42.339  11.410
25017W        W86328  22.011   4.385   1.780
25018W        W86329  39.862  24.672  12.563
25019W        W86330  11.711   8.836  12.002
25020W        W86331   5.388  40.887   4.248
25021W        W86332  41.792  32.121   4.189
25022W        W86333   3.316  21.667   0.746
25023W        W86334  35.505  24.998  13.836
25024W        W86335  36.460   0.919  10.490
25025W        W86336  44.492  24.700   1.926
25026W        W86337  28.511  27.489  14.506
25027W        W86338  30.624   0.816  13.460
25028W        W86339   1.305  31.616  13.962
25029W        W86340  19.628   3.231   1.733
25030W        W86341  31.911  12.155  11.459
25031W        W86342  17.727  24.041   4.115
25032W        W86343  25.054   7.236   2.287
25033W        W86344  13.708  12.850   3.323
25034W        W86345   6.223  21.514  12.906
25035W        W86346  39.996  19.588  12.884
25036W        W86347  32.455  16.129  13.873
25037W        W86348  28.454  43.455   0.297
25038W        W86349  44.493  15.150   2.388
25039W        W86350  12.668   0.809  12.093
25040W        W86351  19.197  44.801   1.713
25041W        W86352  18.125  19.660   2.343
25042W        W86353  21.076  33.581  11.544
25043W        W86354  23.577  33.394  12.534
25044W        W86355  30.001  18.163   1.704
25045W        W86356  34.373   4.233   0.833
25046W        W86357   0.985  29.626  10.493
25047W        W86358  44.356  10.200  12.519
25048W        W86359  26.095  18.253   3.377
25049W        W86360   8.802  29.163  14.769
25050W        W86361  10.227  16.733  11.473
25051W        W86362  30.510  35.097   1.396
25052W        W86363   2.325  34.563  11.075
25053W        W86364  27.481   4.310  14.344
25054W        W86365  31.571  21.746  14.784
25055W        W86366   4.383   5.741  13.537
25056W        W86367  15.595   3.801   2.784
25057W        W86368   4.928  19.089   4.280
25058W        W86369  32.546   5.695  10.582
25059W        W86370   8.193   1.762   2.714
25060W        W86371  23.583   1.886   4.311
25061W        W86372  42.472  31.462   1.856
25062W        W86373  22.680   7.291  13.929
25063W        W86374  28.475  31.112  11.945
25064W        W86375  26.190  44.872  13.877
25065W        W86376   2.828  32.491  14.865
25066W        W86377   6.808  42.365  14.407
25067W        W86378  43.847  35.870  12.068
25068W        W86379  11.128  29.460  12.895
25069W        W86380  32.988   4.383   4.137
25070W        W86381  24.108  24.612   0.916
25071W        W86382  40.900  15.789   0.869
25072W        W86383  13.610   4.707   2.689
25073W        W86384  14.719  20.680   2.227
25074W        W86385   6.916  35.891  12.431
25075W        W86386   2.855  25.993   2.388
25076W        W86387   0.807  11.673   0.940
25077W        W86388   7.836  31.009   3.736
25078W        W86389   8.180  19.242  12.964
25079W        W86390  24.486  43.376  10.549
25080W        W86391   7.385  38.475  14.930
25081W        W86392  39.339  36.455  14.815
25082W        W86393  22.645  42.461   4.183
25083W        W86394  18.782  12.672  14.343
25084W        W86395  17.176  41.919   4.614
25085W        W86396  21.148  28.062   2.241
25086W        W86397  41.935  40.952  12.989
25087W        W86398   1.763   5.790   2.716
25088W        W86399   7.214  17.200  12.882
25089W        W86400  42.014  39.911  13.393
25090W        W86401  29.918  42.974  10.906
25091W        W86402   8.353   2.928  13.476
25092W        W86403  19.118  31.030   2.380
25093W        W86404  44.265  16.258   3.835
25094W        W86405  14.175  37.854  14.296
25095W        W86406  38.976   0.960  13.386
25096W        W86407  31.529   9.375  14.803
25097W        W86408  24.484  41.970  12.876
25098W        W86409  10.821  20.697  10.532
25099W        W86410  27.472   4.941  11.474
25100W        W86411  36.445   6.425  11.972
25101W        W86412  36.892   9.645  11.476
25102W        W86413  12.235  28.176  13.336
25103W        W86414  34.951  32.431  10.451
25104W        W86415  32.009  26.095   3.287
25105W        W86416   2.400  21.698   1.243
25106W        W86417  13.811  34.951   0.884
25107W        W86418  38.417  19.081  10.907
25108W        W86419  41.849  35.542  11.896
25109W        W86420  26.586   1.435  11.381
25110W        W86421   9.215  13.624   2.898
25111W        W86422  44.938  32.061  12.870
25112W        W86423  42.379  41.521  11.590
25113W        W86424  22.149  39.005  14.480
25114W        W86425   8.664  23.626  13.049
25115W        W86426  18.205   6.818   1.920
25116W        W86427  12.834   6.823  13.515
25117W        W86428  42.997   5.769  12.428
25118W        W86429  14.095  27.168   1.844
25119W        W86430  18.292   6.765   4.250
25120W        W86431  31.047  35.986   1.755
25121W        W86432   4.842  24.115  13.356
25122W        W86433  12.764  29.664   1.835
25123W        W86434   2.316  29.923   3.172
25124W        W86435  30.423   6.897  10.141
25125W        W86436  34.577  13.626  12.577
25126W        W86437   4.906  11.313  14.828
25127W        W86438   0.358  31.066  10.891
25128W        W86439  43.965  30.040  10.912
25129W        W86440   0.847  29.442  12.558
25130W        W86441   9.294  16.312  10.058
25131W        W86442  41.324  38.527   3.716
25132W        W86443  29.470   2.352  14.457
25133W        W86444  16.268  39.383   0.759
25134W        W86445  22.637   5.805  11.601
25135W        W86446   1.872  19.260   3.191
25136W        W86447  27.946  30.982  13.324
25137W        W86448  20.647   4.936  10.556
25138W        W86449  33.602  21.050   5.119
25139W        W86450   4.378  37.843   3.370
25140W        W86451  11.173  29.590  11.508
25141W        W86452  40.410  33.544  12.540
25142W        W86453  42.475  20.146   4.787
25143W        W86454  28.983  39.895   1.437
25144W        W86455   5.437   6.272   0.808
25145W        W86456  43.878  11.851  10.616
25146W        W86457  28.993  27.607  11.001
25147W        W86458   7.378  10.672  11.599
25148W        W86459  26.055  13.254  14.474
25149W        W86460   3.371  30.600   2.299
25150W        W86461  10.811   2.463   1.236
25151W        W86462  36.557  33.120   1.298
25152W        W86463  14.181  34.535  11.399
25153W        W86464  14.096  20.765  11.109
25154W        W86465   9.884  32.547  14.846
25155W        W86466   7.699  37.918  12.828
25156W        W86467   5.372  27.455   3.309
25157W        W86468  12.234   1.407  12.980
25158W        W86469  44.295  35.381  14.875
25159W        W86470  31.572   6.716  12.887
25160W        W86471  31.602  40.951   2.876
25161W        W86472  12.211   1.929   2.216
25162W        W86473  42.511  17.758   0.838
25163W        W86474  19.606  27.191  13.354
25164W        W86475  14.615  18.283   1.286
25165W        W86476  24.125  19.059  13.966
25166W        W86477  23.735  41.311  11.545
25167W        W86478  42.886  34.038  12.558
25168W        W86479   4.785  42.327  13.308
25169W        W86480  44.365  15.663   3.277
25170W        W86481  31.613   1.959   3.212
25171W        W86482  29.935  22.512  14.938
25172W        W86483   2.264  36.923  11.522
25173W        W86484  43.513  28.463   0.327
25174W        W86485  32.031  16.279   3.256
25175W        W86486  39.389  37.911  14.395
25176W        W86487  40.465   9.748  12.386
25177W        W86488  27.982  11.247   2.334
25178W        W86489  25.694  24.071  13.934
25179W        W86490  23.547   4.809  14.387
25180W        W86491  38.927  44.456  10.494
25181W        W86492  21.525  16.307   0.413
25182W        W86493   5.386  27.497   2.205
25183W        W86494  32.508   9.687  11.486
25184W        W86495  19.573   0.779   3.653
25185W        W86496  32.957  23.037  11.871
25186W        W86497  15.133   5.736   3.247
25187W        W86498   3.930  17.685  11.094
25188W        W86499  11.793   5.837   4.832
25189W        W86500  13.293  42.281  12.392
25190W        W86501  20.137  36.936  14.509
25191W        W86502  31.472  42.306  11.519
25192W        W86503  12.727   2.326   2.346
25193W        W86504  24.127  32.630   4.334
25194W        W86505  16.176  36.552  12.481
25195W        W86506  21.718  40.473  10.958
25196W        W86507  38.887  42.322   3.233
25197W        W86508  39.443  26.670  12.573
25198W        W86509  14.664  41.489  14.346
25199W        W86510  16.590  40.869  13.897
25200W        W86511  30.015   1.967  11.438
25201W        W86512  26.155  26.672  14.842
25202W        W86513  30.083  35.886   0.832
25203W        W86514   0.771  12.712  14.990
25204W        W86515  34.386  18.182   0.759
25205W        W86516  21.632  12.644   4.837
25206W        W86517  43.784  30.461   0.967
25207W        W86518  29.032  42.463   4.130
25208W        W86519  10.215  22.224  14.010
25209W        W86520  26.988  12.118  10.999
25210W        W86521   1.313  19.217   2.294
25211W        W86522  18.171  38.486  14.926
25212W        W86523  16.258  28.644   2.230
25213W        W86524  40.432   1.301   2.811
25214W        W86525   2.467  36.049   2.203
25215W        W86526  20.189  44.310   1.932
25216W        W86527  42.908  38.509   4.131
25217W        W86528  32.992  24.487  12.924
25218W        W86529  11.698  28.082   0.433
25219W        W86530  14.732  33.120  14.303
25220W        W86531   1.482  32.955   1.738
25221W        W86532  12.681  34.869  13.050
25222W        W86533  11.249   1.366   3.219
25223W        W86534   4.344  27.016  12.952
25224W        W86535   8.281   0.394  10.914
25225W        W86536  16.276  38.371   3.704
25226W        W86537  22.037  17.706  11.869
25227W        W86538  20.048  41.483   3.689
25228W        W86539  15.290  21.137  14.473
25229W        W86540  12.301  27.450   2.192
25230W        W86541  26.550  23.018   2.227
25231W        W86542  25.706   3.425   3.263
25232W        W86543  12.219  35.935  12.463
25233W        W86544   6.799   9.672  10.544
25234W        W86545  39.326  19.138  12.570
25235W        W86546  43.468  35.558   1.417
25236W        W86547  41.847  11.802  12.483
25237W        W86548  36.564   1.378  10.602
25238W        W86549  22.068  15.737  13.522
25239W        W86550  31.960  32.420  12.032
25240W        W86551   9.797  16.771  14.364
25241W        W86552  16.756  14.757   1.259
25242W        W86553   6.703  39.873  11.013
25243W        W86554  11.721  30.522   2.867
25244W        W86555  34.979  33.048   1.261
25245W        W86556  30.448  18.070   2.253
25246W        W86557  25.644  44.863   4.689
25247W        W86558  43.967   5.238   1.404
25248W        W86559  34.476  13.272   2.850
25249W        W86560   2.735  24.009  11.045
25250W        W86561  18.557  12.249   2.676
25251W        W86562  33.435  41.885   2.323
25252W        W86563  31.081  37.396  14.479
25253W        W86564  16.669  33.450   4.237
25254W        W86565  19.655  19.062   1.261
25255W        W86566  33.950   7.729   4.230
25256W        W86567  22.710  35.986  14.413
25257W        W86568   7.858  38.396   0.343
25258W        W86569  37.363   6.755  12.518
25259W        W86570  44.355  24.646   2.384
25260W        W86571  27.187  26.033  12.013
25261W        W86572  38.003  28.648   0.806
25262W        W86573  29.560  36.542   3.168
25263W        W86574  39.475   1.253   2.766
25264W        W86575  40.453   6.373   5.222
25265W        W86576  25.684  17.641  11.059
25266W        W86577  11.848  44.300   0.249
25267W        W86578  42.995  25.012  11.057
25268W        W86579   9.876  13.141  14.441
25269W        W86580  20.539  35.515   4.116
25270W        W86581  17.164   2.311   0.848
25271W        W86582  30.533  18.100  11.038
25272W        W86583  28.030  30.160   2.689
25273W        W86584   7.701  26.538   0.880
25274W        W86585  10.814  41.985   1.248
25275W        W86586   0.258   8.774  12.380
25276W        W86587  15.139  33.535   3.303
25277W        W86588  11.251  38.492  11.470
25278W        W86589  10.666  18.131   2.860
25279W        W86590  21.201  14.298   5.090
25280W        W86591   3.449  20.552  12.418
25281W        W86592  44.346  20.739   2.828
25282W        W86593  15.580  31.995  13.516
25283W        W86594  34.009  31.899   4.282
25284W        W86595  31.998   2.834  11.395
25285W        W86596   9.369  12.266   3.725
25286W        W86597  30.651  14.231   3.180
25287W        W86598   5.821   2.871   0.289
25288W        W86599  35.976  27.470   5.201
25289W        W86600   9.249   8.852  12.491
25290W        W86601  44.393  40.835  10.899
25291W        W86602  32.584  29.506  11.582
25292W        W86603   4.843   0.338  12.967
25293W        W86604  42.475  13.820  14.334
25294W        W86605   2.728  43.284  10.939
25295W        W86606   7.394   6.799   2.286
25296W        W86607  38.427  29.512  10.633
25297W        W86608  35.094  14.769  12.407
25298W        W86609  19.771  25.969  11.604
25299W        W86610  42.307   5.432   2.218
25300W        W86611  30.069  38.980  14.987
25301W        W86612  44.485  11.810   0.443
25302W        W86613  22.535  36.396   3.767
25303W        W86614   4.834  27.676   9.959
25304W        W86615  17.650  23.207  12.061
25305W        W86616  19.154  12.826   0.775
25306W        W86617  34.600  33.471  14.969
25307W        W86618   9.168  23.986  10.548
25308W        W86619   9.885  22.228   0.756
25309W        W86620  39.315   5.781   3.277
25310W        W86621  16.684  23.223  10.422
25311W        W86622   8.308   6.760  10.421
25312W        W86623  29.597  32.587  13.938
25313W        W86624  25.970  16.139   1.243
25314W        W86625  11.856  11.834   5.191
25315W        W86626  40.936  32.632  13.329
25316W        W86627  40.474  31.949   1.413
25317W        W86628  23.576   2.264  13.822
25318W        W86629  19.648  41.341   1.341
25319W        W86630  33.890   1.430   3.245
25320W        W86631  12.198  27.520  14.942
25321W        W86632  42.980  13.191  11.434
25322W        W86633  20.572   0.808  14.904
25323W        W86634  11.803  20.162   4.835
25324W        W86635  43.299  41.305   3.145
25325W        W86636  29.093  33.511  10.942
25326W        W86637   3.905  20.674   0.772
25327W        W86638  31.447  20.735   2.365
25328W        W86639  21.178   1.322   4.139
25329W        W86640  11.783  25.561  13.482
25330W        W86641  43.384  13.821  14.338
25331W        W86642   1.865   5.732   2.282
25332W        W86643   5.717  17.255   1.734
25333W        W86644   0.899  18.708   2.286
25334W        W86645  22.619  28.006  12.342
25335W        W86646  18.196  38.840   1.901
25336W        W86647  29.072  34.510   2.665
25337W        W86648   5.746  43.986   4.682
25338W        W86649  31.113  35.920  14.469
25339W        W86650   8.844  28.133   4.118
25340W        W86651  32.897  37.916   2.669
25341W        W86652  26.040  10.161  11.456
25342W        W86653  11.806  35.017  11.859
25343W        W86654   4.222  20.172  12.046
25344W        W86655   3.846  28.501  11.890
25345W        W86656  22.580  25.623  13.032
25346W        W86657   4.832   3.319   1.754
25347W        W86658   8.669  10.278  10.623
25348W        W86659  10.364  18.581   0.780
25349W        W86660  23.141   5.818   3.201
25350W        W86661   3.855  12.284  11.958
25351W        W86662  24.687  15.125  10.892
25352W        W86663  11.313  40.818   4.835
25353W        W86664  40.346  44.458   4.631
25354W        W86665  34.511  27.594  12.027
25355W        W86666  29.583  19.088  13.014
25356W        W86667  25.987   2.271   2.699
25357W        W86668  24.123  14.680   1.429
25358W        W86669  29.536   1.351   0.933
25359W        W86670   2.744  16.229   2.267
25360W        W86671  11.184  28.933   3.705
25361W        W86672  36.470   3.372  12.024
25362W        W86673  12.244  40.882  10.575
25363W        W86674  19.627  42.792  13.051
25364W        W86675  35.038  14.096   5.195
25365W        W86676  39.509  30.413   0.454
25366W        W86677  10.778  22.129  12.364
25367W        W86678  27.975  34.502  12.852
25368W        W86679  25.994  12.241   2.737
25369W        W86680  18.235  43.962  12.491
25370W        W86681  10.793  31.434   4.736
25371W        W86682  23.083  44.486   0.250
25372W        W86683  32.448  41.966  13.461
25373W        W86684  16.215  11.263  13.337
25374W        W86685  10.299  19.081   4.648
25375W        W86686  29.545  15.156  13.020
25376W        W86687  19.276  20.662   2.417
25377W        W86688  24.103  10.230  12.834
25378W        W86689   3.250  31.070   4.217
25379W        W86690  23.712  40.050  12.093
25380W        W86691   2.856  25.160   3.782
25381W        W86692  23.639  42.345   3.699
25382W        W86693  14.191  15.698  11.031
25383W        W86694  17.752  22.033  10.447
25384W        W86695  29.585  37.441  12.535
25385W        W86696  40.481  25.663  14.500
25386W        W86697   4.204  29.994   2.881
25387W        W86698   8.288  16.122  11.544
25388W        W86699  13.188  19.134   3.201
25389W        W86700   6.746  41.455   2.369
25390W        W86701  42.989  17.613  14.490
25391W        W86702  42.440  37.024  12.385
25392W        W86703  31.047   3.277  10.917
25393W        W86704  11.745  25.480   5.186
25394W        W86705  37.339   7.289   1.723
25395W        W86706  27.685  43.778   2.671
25396W        W86707  20.649  17.225   9.579
25397W        W86708  41.029  38.374  11.509
25398W        W86709  10.311  41.914  10.896
25399W        W86710  37.379  15.170  12.042
25400W        W86711  34.590  10.875  11.007
25401W        W86712  23.571   4.271  11.889
25402W        W86713  27.631  33.103  12.378
25403W        W86714  25.018  36.919  14.857
25404W        W86715   2.955   7.764   3.369
25405W        W86716  26.969  39.911  10.439
25406W        W86717  27.628  39.499   2.727
25407W        W86718  40.857   4.922  10.471
25408W        W86719  42.894  29.551   0.890
25409W        W86720  13.618  38.334   1.874
25410W        W86721   2.267  36.031  13.005
25411W        W86722  19.228  13.293   0.404
25412W        W86723   3.268  12.197   2.721
25413W        W86724  36.480  44.843  14.029
25414W        W86725   0.935  27.969   5.201
25415W        W86726  32.131  34.467   4.148
25416W        W86727  43.496   6.839   0.424
25417W        W86728  27.000  22.580  14.953
25418W        W86729   4.401  25.605   2.285
25419W        W86730  11.759  37.367   1.820
25420W        W86731   2.318  15.649   3.197
25421W        W86732   1.842  15.267  11.963
25422W        W86733  36.366  11.641   2.403
25423W        W86734  12.831  31.509   0.272
25424W        W86735  14.233  16.628   4.332
25425W        W86736  25.709  17.700  13.865
25426W        W86737   3.769  42.416   4.820
25427W        W86738  17.249  13.260  13.895
25428W        W86739  31.945  10.203   3.638
25429W        W86740   0.323  10.215  13.477
25430W        W86741  26.186   1.802  14.362
25431W        W86742   5.366   6.860  13.393
25432W        W86743   3.822  18.295   3.317
25433W        W86744  40.302  39.544   0.958
25434W        W86745  33.888  29.509   3.260
25435W        W86746  41.844   8.264  10.461
25436W        W86747  20.224  20.036  14.917
25437W        W86748   0.298  13.620   2.417
25438W        W86749  19.752  12.325   0.816
25439W        W86750  23.054  20.736  12.066
25440W        W86751  20.599   9.285   4.769
25441W        W86752  15.668  15.253   4.289
25442W        W86753  40.930  32.988  10.575
25443W        W86754  27.539  30.483  10.983
25444W        W86755  21.617  40.376   4.621
25445W        W86756  34.102  21.250   1.806
25446W        W86757   6.883  24.483  11.374
25447W        W86758  40.881   0.267  12.874
25448W        W86759   7.407   5.856  12.978
25449W        W86760   6.871  39.357   1.798
25450W        W86761  27.500  37.907  12.961
25451W        W86762  21.630  24.642  11.984
25452W        W86763  39.975  21.588  14.351
25453W        W86764   2.309  39.510   2.866
25454W        W86765  24.024  35.438  11.937
25455W        W86766  21.683  23.006  14.285
25456W        W86767  44.391  24.219   5.302
25457W        W86768   0.397  10.169   1.289
25458W        W86769  35.472   0.829  13.460
25459W        W86770   3.920  38.927  11.556
25460W        W86771  33.578  25.104  12.454
25461W        W86772  44.337  13.136   5.206
25462W        W86773  44.432  39.896  14.334
25463W        W86774  41.963  44.948  11.507
25464W        W86775  32.033   6.268   2.204
25465W        W86776  41.972  10.361   0.314
25466W        W86777  23.179   3.761   2.683
25467W        W86778  23.063  23.049   4.748
25468W        W86779  39.426  32.417   1.297
25469W        W86780   2.274  21.707   4.133
25470W        W86781  11.726  29.569  13.396
25471W        W86782  26.631  13.345   2.226
25472W        W86783  31.592  44.996   1.815
25473W        W86784  11.257  29.475   1.286
25474W        W86785  41.031  17.270   3.152
25475W        W86786   8.819  15.609   0.326
25476W        W86787   0.480  40.921  14.308
25477W        W86788   2.911  38.421  12.516
25478W        W86789  29.041  34.542  14.991
25479W        W86790  44.796  19.546  12.532
25480W        W86791  10.769  28.613  13.821
25481W        W86792  35.015  12.783  13.390
25482W        W86793  30.542   1.939   0.436
25483W        W86794  35.574  14.803   2.335
25484W        W86795  44.755   7.363   3.763
25485W        W86796  30.061  44.426   3.868
25486W        W86797  16.302   6.226  13.920
25487W        W86798  40.503  30.958   3.697
25488W        W86799  28.164   0.387  10.587
25489W        W86800  33.459  17.788   2.765
25490W        W86801  14.180  43.370  14.455
25491W        W86802  29.497  26.459  14.958
25492W        W86803  43.822  25.544   2.689
25493W        W86804  15.201   4.773   5.774
25494W        W86805   8.753  25.470  13.328
25495W        W86806   9.648   4.222  13.494
25496W        W86807  37.405  24.541  14.872
25497W        W86808  32.449   1.367  10.604
25498W        W86809  42.503   7.769  12.901
25499W        W86810  25.671  35.031   3.378
25500W        W86811  24.108   8.298  14.331
25501W        W86812  31.550  25.009  14.775
25502W        W86813  43.361  43.427  13.016
25503W        W86814  23.607  23.603  14.838
25504W        W86815   0.771  39.478   2.707
25505W        W86816  23.492  23.576  11.994
25506W        W86817  17.680  28.550  12.428
25507W        W86818  18.706   3.939   0.766
25508W        W86819  17.723  41.905  11.452
25509W        W86820   2.866  18.746  10.915
25510W        W86821  34.927  17.149   3.280
25511W        W86822   0.778  11.319  13.911
25512W        W86823  30.507   2.469   1.880
25513W        W86824  27.123   0.810   1.363
25514W        W86825  13.655  27.142  13.946
25515W        W86826   8.274  31.102  11.082
25516W        W86827  33.411  11.281   2.253
25517W        W86828   8.662  44.297  11.935
25518W        W86829   2.462   9.158   0.911
25519W        W86830  25.049  27.049  10.462
25520W        W86831   3.296  37.888  13.390
25521W        W86832  25.122  44.947   3.357
25522W        W86833  30.611   7.310  11.118
25523W        W86834   9.317  40.412  13.344
25524W        W86835  17.602  22.086   1.217
25525W        W86836  25.206  27.495   4.682
25526W        W86837  23.546  36.857   1.869
25527W        W86838  32.548  21.070   2.356
25528W        W86839  12.220  39.814   1.713
25529W        W86840  12.732   9.345  12.566
25530W        W86841  34.584  11.804   0.798
25531W        W86842  20.650  26.646   2.262
25532W        W86843   7.870   2.241  13.441
25533W        W86844  21.628  29.565  11.984
25534W        W86845  13.225  35.600   3.284
25535W        W86846  43.793  44.375   1.828
25536W        W86847  39.995  12.727   4.738
25537W        W86848   1.474   1.902   2.377
25538W        W86849   9.764  32.598   0.363
25539W        W86850   7.903  17.689  11.595
25540W        W86851  25.566   2.424  10.975
25541W        W86852  15.645  19.694  12.943
25542W        W86853  43.814  34.544  11.373
25543W        W86854  33.379  19.780  10.549
25544W        W86855  15.103  10.277  12.536
25545W        W86856  40.871  21.742  13.042
25546W        W86857  12.697  14.790   3.799
25547W        W86858  36.496  25.700   3.820
25548W        W86859  30.079  42.980   3.669
25549W        W86860  44.984   3.777  11.596
25550W        W86861  37.013  32.935  11.963
25551W        W86862  20.087  19.559  13.383
25552W        W86863  39.481  23.653   0.804
25553W        W86864   4.748  32.075   3.777
25554W        W86865  15.768  34.483  11.588
25555W        W86866  41.924   5.896   4.169
25556W        W86867  28.092  11.824  13.497
25557W        W86868  37.565  12.126  14.375
25558W        W86869  10.731  32.533   2.707
25559W        W86870   4.390  34.918   3.857
25560W        W86871  44.958  22.023   1.231
25561W        W86872  44.908  22.089  10.901
25562W        W86873  28.540  25.610  10.942
25563W        W86874  12.226  21.205  12.073
25564W        W86875  23.075  34.579   1.700
25565W        W86876  32.032  26.499   3.242
25566W        W86877  31.414  24.172   1.858
25567W        W86878  22.559  28.584   4.655
25568W        W86879  11.165  14.201   0.847
25569W        W86880  39.451   9.248   4.213
25570W        W86881  35.457  22.019  12.458
25571W        W86882  25.656  33.967   3.300
25572W        W86883   1.872   1.883  13.515
25573W        W86884   8.681  11.749   3.209
25574W        W86885  31.071  38.946  11.443
25575W        W86886   2.274  36.580   3.167
25576W        W86887  39.480  31.102  12.339
25577W        W86888   0.803  22.610  11.940
25578W        W86889  17.232  13.277   0.931
25579W        W86890  44.767  21.562  10.526
25580W        W86891  42.370  13.317   2.215
25581W        W86892   9.836   9.394  11.879
25582W        W86893  23.015  19.148   2.899
25583W        W86894  15.323  19.631  11.610
25584W        W86895   4.265  44.894  14.838
25585W        W86896   3.421   8.796  11.601
25586W        W86897  33.547   6.424   1.931
25587W        W86898  41.336  42.512  12.477
25588W        W86899  12.137   9.236  11.458
25589W        W86900  13.142  11.839  11.857
25590W        W86901  25.705  24.062   2.403
25591W        W86902   2.239   2.299   2.670
25592W        W86903  20.206  16.789   4.786
25593W        W86904   9.770  23.618  11.577
25594W        W86905  33.051   9.854  14.855
25595W        W86906  24.068  24.709   1.418
25596W        W86907  37.958   2.781  13.039
25597W        W86908  32.054   1.783   3.226
25598W        W86909  15.814  44.929  13.830
25599W        W86910  15.655  39.917  11.898
25600W        W86911  41.906  34.089   0.880
25601W        W86912  19.766  42.982   0.429
25602W        W86913  21.723  42.002   1.745
25603W        W86914  40.338  29.126   4.330
25604W        W86915  39.873  30.125  12.874
25605W        W86916   7.912   9.788  11.598
25606W        W86917  26.043   8.161   4.691
25607W        W86918   5.203  38.397   4.648
25608W        W86919  44.410  41.439  11.428
25609W        W86920  32.929  41.399  11.877
25610W        W86921  25.666  40.831  11.943
25611W        W86922  18.571   5.251   5.314
25612W        W86923  20.146   5.745   1.292
25613W        W86924  14.696   7.360   0.402
25614W        W86925   3.869  32.926  12.021
25615W        W86926   4.351  24.010   4.781
25616W        W86927  36.349  26.580   1.342
25617W        W86928  40.547  10.659  11.511
25618W        W86929  19.549   6.782  12.923
25619W        W86930  27.173  32.947  12.968
25620W        W86931  18.755  19.161  14.422
25621W        W86932  40.370  13.599   1.915
25622W        W86933  10.647  35.582  12.372
25623W        W86934  12.750  26.121  14.975
25624W        W86935  41.988   4.810  12.441
25625W        W86936   3.722  24.088   4.642
25626W        W86937  29.617  31.125   1.219
25627W        W86938  30.103   6.780  12.989
25628W        W86939   5.264  42.505  10.425
25629W        W86940  26.953  30.437  12.546
25630W        W86941  34.575  17.295  11.007
25631W        W86942  24.568  16.271  12.839
25632W        W86943   0.367  15.797   0.249
25633W        W86944  42.024   4.444   3.650
25634W        W86945  20.638  22.724  12.511
25635W        W86946  12.649  36.041   0.890
25636W        W86947  38.508   8.177   1.782
25637W        W86948   7.414   7.723  14.291
25638W        W86949  15.251  10.653  11.528
25639W        W86950   3.326  21.127   4.741
25640W        W86951  36.434   6.273  10.999
25641W        W86952  31.621  43.880   3.847
25642W        W86953  35.002  38.906   5.163
25643W        W86954  24.102  14.165   4.615
25644W        W86955  40.854  14.617  14.323
25645W        W86956  23.509  41.864  14.413
25646W        W86957  41.296  25.584   4.336
25647W        W86958   6.415  28.004  11.042
25648W        W86959  24.557  15.099  14.441
25649W        W86960  12.681  15.084   2.294
25650W        W86961  30.443  43.312   1.216
25651W        W86962  15.139  23.512  11.901
25652W        W86963   5.691  24.526   1.218
25653W        W86964  27.092  27.687   1.304
25654W        W86965  11.728   9.769   4.141
25655W        W86966  42.323  34.586   0.867
25656W        W86967  40.985  15.639  13.955
25657W        W86968  27.065  38.538   4.127
25658W        W86969  26.091  19.651  10.978
25659W        W86970  42.935  34.942   4.608
25660W        W86971  42.472  41.458  13.847
25661W        W86972  43.827  19.714   0.264
25662W        W86973  27.620  42.827  13.014
25663W        W86974   8.166  36.540   3.692
25664W        W86975  38.398  37.007  12.420
25665W        W86976  17.119  43.334   4.641
25666W        W86977  22.026  32.575  14.802
25667W        W86978   6.291   8.681  12.921
25668W        W86979  10.184  19.070  11.010
25669W        W86980  35.468  40.878  12.044
25670W        W86981  37.079  15.769   1.439
25671W        W86982  29.434  44.399  10.995
25672W        W86983  17.095  12.283  13.019
25673W        W86984  23.521  18.600   3.294
25674W        W86985  29.576  41.036   2.874
25675W        W86986  23.073  25.156  13.531
25676W        W86987  22.603  31.084  14.842
25677W        W86988  30.987  10.648  11.059
25678W        W86989   2.899   0.838   2.891
25679W        W86990  33.536  18.143  13.470
25680W        W86991  25.590   6.753   4.310
25681W        W86992  34.037  29.967   3.799
25682W        W86993  10.798  25.690  12.091
25683W        W86994  33.414   7.751   2.277
25684W        W86995   2.401  27.998  12.373
25685W        W86996  44.491  27.066   3.163
25686W        W86997  43.319   2.945   0.942
25687W        W86998  19.775  29.979   4.734
25688W        W86999  31.072  23.985   3.303
25689W        W87000  41.017  19.205  14.824
25690W        W87001  11.786  39.913  13.827
25691W        W87002  44.989  28.605  12.887
25692W        W87003   9.691  42.519   1.292
25693W        W87004  11.357  17.622   2.264
25694W        W87005  38.381  17.750   2.817
25695W        W87006  35.098  41.487  12.912
25696W        W87007   6.183  43.355  14.878
25697W        W87008  10.674  39.410   4.657
25698W        W87009  14.143   4.810  14.029
25699W        W87010  16.115  44.463  12.036
25700W        W87011   0.952  40.319  14.467
25701W        W87012  31.561  41.039   0.312
25702W        W87013  26.621  32.080  14.437
25703W        W87014  43.987  10.870  11.038
25704W        W87015   3.781  30.488   3.729
25705W        W87016  35.458  11.758  11.937
25706W        W87017  41.476  13.841   3.765
25707W        W87018  42.405  23.619  12.034
25708W        W87019   0.260   3.363   0.855
25709W        W87020   7.809  42.022   3.847
25710W        W87021  11.688  31.469  14.914
25711W        W87022  38.516  24.656   4.214
25712W        W87023  39.024  14.739   4.657
25713W        W87024  20.032   7.841  12.555
25714W        W87025  30.527   4.938  11.528
25715W        W87026   8.796   3.912   5.289
25716W        W87027  28.492  13.148  13.050
25717W        W87028  23.677  37.966   3.853
25718W        W87029  32.392  42.400   4.684
25719W        W87030  20.155  12.796  12.023
25720W        W87031  17.295  37.935   2.750
25721W        W87032  27.120  30.071   3.180
25722W        W87033  40.925  31.407  11.121
25723W        W87034  34.395   2.288  11.109
25724W        W87035  39.914  22.196   1.846
25725W        W87036  22.232  10.280   0.321
25726W        W87037  13.649   6.411   0.963
25727W        W87038  43.817  25.086   1.923
25728W        W87039   3.243  25.090  11.505
25729W        W87040  43.407  14.616   0.795
25730W        W87041  16.198  11.218  13.817
25731W        W87042   2.281  44.413  14.778
25732W        W87043  11.801  25.161   1.868
25733W        W87044  15.227  40.339   4.736
25734W        W87045  16.770  11.241   4.687
25735W        W87046  17.100  18.639  11.601
25736W        W87047  44.483   6.297  11.525
25737W        W87048  13.835  30.651   2.273
25738W        W87049  11.187   7.186  10.481
25739W        W87050   7.678   0.981  13.536
25740W        W87051   5.911  22.611  14.948
25741W        W87052  20.247  44.923  11.489
25742W        W87053  27.090  19.715  10.133
25743W        W87054  26.642  26.008  10.968
25744W        W87055   2.838   2.464   4.766
25745W        W87056  33.050  28.580   4.715
25746W        W87057   0.274   3.225   2.826
25747W        W87058  15.670  26.459  14.901
25748W        W87059  38.953  36.976  14.015
25749W        W87060   3.246  27.102   0.952
25750W        W87061   0.267  39.979   2.879
25751W        W87062  24.043  27.062   4.251
25752W        W87063   3.435  18.212  12.382
25753W        W87064  13.702  35.437  11.929
25754W        W87065   3.295  42.950  10.410
25755W        W87066  41.383  11.630   3.334
25756W        W87067  18.677  12.616   0.763
25757W        W87068  15.318  43.922  14.955
25758W        W87069   2.839  13.817  11.486
25759W        W87070   8.259  34.986  14.504
25760W        W87071  39.414  41.789   5.131
25761W        W87072  44.965  19.690  14.942
25762W        W87073  30.073   0.778  13.921
25763W        W87074  25.983  35.597   4.306
25764W        W87075  13.728   7.394  11.101
25765W        W87076   6.712   2.856   1.325
25766W        W87077  28.565  29.947   4.772
25767W        W87078  23.988   6.907   1.373
25768W        W87079  41.440  21.049   2.739
25769W        W87080  24.191  44.990   4.127
25770W        W87081  35.577  18.278   3.866
25771W        W87082  14.665   5.908  11.558
25772W        W87083  18.158   1.466   0.283
25773W        W87084   9.370   5.260   3.181
25774W        W87085  31.598   8.249  11.894
25775W        W87086   4.785  12.773  14.308
25776W        W87087  39.473  29.508   0.475
25777W        W87088  39.831  17.144   2.401
25778W        W87089   8.323   5.699   4.749
25779W        W87090   6.907  15.660   9.943
25780W        W87091  37.086  37.518   1.386
25781W        W87092  20.556  23.239   3.823
25782W        W87093  17.113  30.938   0.464
25783W        W87094  11.329  13.237  10.538
25784W        W87095  37.381  20.660  12.469
25785W        W87096  15.121  40.520   0.884
25786W        W87097   1.973  21.086  10.630
25787W        W87098  35.602  15.581  13.409
25788W        W87099  13.765   7.754   4.121
25789W        W87100  15.713   5.786  13.951
25790W        W87101  14.230  22.589   2.284
25791W        W87102  16.669  21.529  11.094
25792W        W87103  20.664  39.020   0.922
25793W        W87104  32.541   0.840  12.949
25794W        W87105   3.725  32.943   1.718
25795W        W87106   4.310  15.228  10.520
25796W        W87107   9.792   7.704   4.616
25797W        W87108   8.847  25.128   0.271
25798W        W87109  43.788  42.921   3.268
25799W        W87110  10.712   9.344  12.551
25800W        W87111  23.206   0.781   3.817
25801W        W87112   8.698  42.856   0.812
25802W        W87113  27.672   5.362  10.003
25803W        W87114  43.315  18.652   1.299
25804W        W87115  16.311  27.494   2.218
25805W        W87116  25.603  13.173   1.336
25806W        W87117  23.674  35.005   2.888
25807W        W87118  41.316  22.530   0.448
25808W        W87119   7.774  35.975  13.430
25809W        W87120   9.252  42.784  11.897
25810W        W87121  35.860  33.115  10.989
25811W        W87122  43.497  35.361   2.885
25812W        W87123  20.203  39.968  11.070
25813W        W87124  14.823  18.166  10.918
25814W        W87125   2.919  42.915   2.242
25815W        W87126   2.436  17.783   3.310
25816W        W87127  16.217  26.478  12.981
25817W        W87128  44.783  27.160   3.706
25818W        W87129  33.588  16.571  10.982
25819W        W87130  27.552  24.579  10.969
25820W        W87131   3.309  27.096  12.345
25821W        W87132  37.882   8.749  11.550
25822W        W87133  44.853   5.921  14.408
25823W        W87134  28.544  15.229   2.692
25824W        W87135  13.633   3.413   1.837
25825W        W87136  41.913  17.230   0.467
25826W        W87137  35.034   7.795   1.249
25827W        W87138  33.555  43.805   3.868
25828W        W87139  14.740  20.172  13.004
25829W        W87140   5.773  24.188  11.066
25830W        W87141  33.467  13.826   3.648
25831W        W87142  20.711   4.772  14.336
25832W        W87143  34.516  27.953   3.251
25833W        W87144  33.579  23.172   3.386
25834W        W87145  22.630   0.310  14.301
25835W        W87146  43.012   7.783  11.590
25836W        W87147  17.110   1.875   4.164
25837W        W87148  20.088  34.514  13.947
25838W        W87149  20.703  31.481  14.419
25839W        W87150  23.097  33.033   0.879
25840W        W87151  39.518  10.323  12.531
25841W        W87152  31.463  30.050   1.302
25842W        W87153  35.985  26.024   3.716
25843W        W87154  16.288  14.325  12.936
25844W        W87155  13.322   2.826  13.451
25845W        W87156  30.078   8.318   1.923
25846W        W87157  15.107  16.158   3.207
25847W        W87158  30.039  36.930   2.759
25848W        W87159  25.508  39.053  10.056
25849W        W87160  34.470  22.226  14.962
25850W        W87161  15.300  31.063  14.377
25851W        W87162  18.097  19.231   2.837
25852W        W87163  25.092  35.971  14.972
25853W        W87164  29.966  42.315   3.147
25854W        W87165   6.752  18.749   4.805
25855W        W87166  42.308   9.323  13.512
25856W        W87167  39.873   8.883  13.048
25857W        W87168   3.906  27.623   0.802
25858W        W87169  22.535  16.584  14.430
25859W        W87170  25.523  16.098  12.045
25860W        W87171   3.295  16.121   2.352
25861W        W87172   4.376   3.309   0.355
25862W        W87173  40.045  19.229   0.380
25863W        W87174  43.452  40.825   1.725
25864W        W87175  26.679  22.037   1.373
25865W        W87176   8.317  17.258   0.836
25866W        W87177   3.239  24.709   2.224
25867W        W87178   4.803   2.387   1.345
25868W        W87179  43.829  14.264  13.029
25869W        W87180  23.198  21.084   4.199
25870W        W87181   1.251  15.189  14.342
25871W        W87182  28.570  29.005   0.771
25872W        W87183   3.292  23.160   0.425
25873W        W87184   5.257  39.419  13.337
25874W        W87185   9.724  20.573  12.416
25875W        W87186  26.532  37.507  14.390
25876W        W87187  29.043  24.223  14.966
25877W        W87188  39.910   1.862  14.283
25878W        W87189  31.125  44.779   3.840
25879W        W87190  11.867  28.478  14.975
25880W        W87191  18.663  13.257  11.977
25881W        W87192  18.267  32.415  13.347
25882W        W87193   0.985  11.789  10.583
25883W        W87194  18.613  19.612   4.117
25884W        W87195  40.979   7.809   0.823
25885W        W87196  17.749  34.947   1.227
25886W        W87197   7.369  32.466  14.479
25887W        W87198  42.484  31.640  13.490
25888W        W87199   4.210  40.907   1.740
25889W        W87200  34.395  43.769   4.597
25890W        W87201  33.881   1.766  11.126
25891W        W87202  42.969  15.233   3.351
25892W        W87203  37.376   5.828   4.142
25893W        W87204  18.147  23.144   2.190
25894W        W87205  24.548  20.702   3.188
25895W        W87206  12.309  16.661   0.459
25896W        W87207  16.746   2.773  12.520
25897W        W87208  35.975  24.142   0.343
25898W        W87209  17.272  24.197   4.661
25899W        W87210  14.783  39.838   0.246
25900W        W87211  24.675  41.363   3.785
25901W        W87212  31.514  17.143  11.084
25902W        W87213  33.383  29.586   1.371
25903W        W87214  42.494  35.027  12.434
25904W        W87215  26.019  13.219   2.210
25905W        W87216   2.397  22.643  13.397
25906W        W87217  10.243  24.569   2.300
25907W        W87218   6.773  44.968   3.659
25908W        W87219  10.176  38.826   4.298
25909W        W87220  18.294  26.085  11.553
25910W        W87221  29.581  20.230   3.377
25911W        W87222  26.068  37.894   1.815
25912W        W87223  37.355  42.978   3.794
25913W        W87224  35.579   3.437   3.245
25914W        W87225  25.170   0.793   2.370
25915W        W87226  28.648  44.824  10.535
25916W        W87227  44.790  21.125   4.290
25917W        W87228   5.817   4.880   4.121
25918W        W87229  27.482  15.295   2.822
25919W        W87230  25.185  19.593   5.745
25920W        W87231  23.692   8.182   2.418
25921W        W87232   0.845  22.636  12.473
25922W        W87233  43.996   4.729  14.828
25923W        W87234   9.158  26.629   2.782
25924W        W87235  28.118  34.950  12.416
25925W        W87236  36.963  29.432   2.350
25926W        W87237  41.899  11.811  10.589
25927W        W87238  14.227  40.974   3.259
25928W        W87239  26.130  11.146   3.808
25929W        W87240  11.774   6.734   2.299
25930W        W87241  29.124  29.076   3.817
25931W        W87242   4.818  27.994   0.435
25932W        W87243  14.742  33.606  13.470
25933W        W87244  30.612  29.172   3.333
25934W        W87245  19.642  15.595  14.946
25935W        W87246  34.083  11.667  12.395
25936W        W87247  14.763  43.935   0.954
25937W        W87248   7.671  37.058   2.324
25938W        W87249  16.180  13.223   2.879
25939W        W87250  26.996  10.203   3.636
25940W        W87251   8.243   0.325  11.931
25941W        W87252  36.911  43.407   2.331
25942W        W87253  37.559  19.285  11.580
25943W        W87254  14.188  39.511   3.343
25944W        W87255  21.253  44.847   1.709
25945W        W87256  43.818  42.851  13.061
25946W        W87257  30.657  18.243  11.922
25947W        W87258   2.228  39.545   2.230
25948W        W87259  40.055  44.278  13.991
25949W        W87260  38.920  13.304   1.365
25950W        W87261  39.379   0.443  11.057
25951W        W87262  28.978  26.672  10.506
25952W        W87263  40.420  37.947  12.909
25953W        W87264  22.619  26.606  13.337
25954W        W87265  22.017  12.193  11.392
25955W        W87266  10.313   6.713   4.756
25956W        W87267   2.747  41.959   0.258
25957W        W87268  43.765  37.835  13.359
25958W        W87269  38.980  15.771   1.876
25959W        W87270  27.508  22.054  11.986
25960W        W87271  37.495  42.018  12.938
25961W        W87272  33.106  25.009   3.678
25962W        W87273  29.648  20.246  13.336
25963W        W87274  33.914  35.411  12.370
25964W        W87275  12.719  32.446   3.283
25965W        W87276  25.559  14.282   9.958
25966W        W87277  25.968  23.083  10.473
25967W        W87278  33.936  19.611  12.566
25968W        W87279  41.517  39.472  11.537
25969W        W87280  26.521  17.236  13.469
25970W        W87281   7.373  19.722   0.272
25971W        W87282  37.553  23.525  11.471
25972W        W87283  33.582  34.003  10.042
25973W        W87284  19.090  37.978   0.392
25974W        W87285   5.845  27.481  10.911
25975W        W87286  17.667   9.251   4.637
25976W        W87287  43.498  17.161  11.416
25977W        W87288  17.577  13.208  13.533
25978W        W87289  26.172  15.656   0.824
25979W        W87290   1.277   0.977  11.588
25980W        W87291  34.062  22.174  10.948
25981W        W87292  29.038  39.380  11.933
25982W        W87293  44.470  34.909  11.902
25983W        W87294   6.881  35.091  13.799
25984W        W87295  10.847  21.108  13.332
25985W        W87296  44.785  12.142  13.027
25986W        W87297  23.211  31.934   1.234
25987W        W87298   2.866  11.147   4.789
25988W        W87299  44.920  20.054   2.266
25989W        W87300  23.644  12.293   2.280
25990W        W87301   3.274  36.000   4.317
25991W        W87302  36.396  10.255  10.634
25992W        W87303  21.256  28.541   1.423
25993W        W87304  29.436  17.066   1.778
25994W        W87305  30.159  26.962   1.441
25995W        W87306  17.294  18.182   1.864
25996W        W87307  33.483  29.970   9.604
25997W        W87308  19.591   1.903  13.419
25998W        W87309  13.285  36.990  10.963
25999W        W87310  20.638  21.090  14.968
26000W        W87311  36.062  43.301   3.375
26001W        W87312  27.498   5.918  12.507
26002W        W87313  33.913   0.856  12.461
26003W        W87314  23.183   2.268  11.504
26004W        W87315   8.739  18.671   0.336
26005W        W87316  27.988  31.527   4.692
26006W        W87317   1.352  33.516   4.706
26007W        W87318   7.384   5.370   0.822
26008W        W87319   8.324  42.379  10.478
26009W        W87320   4.702   5.344  11.391
26010W        W87321  44.397  10.724  12.062
26011W        W87322  43.437  16.135   0.287
26012W        W87323  36.472  30.625   2.755
26013W        W87324  36.055  42.784  12.554
26014W        W87325  10.200  25.158   0.444
26015W        W87326  35.487  25.585  13.813
26016W        W87327  11.839   6.205   0.448
26017W        W87328  36.014   3.906  14.000
26018W        W87329  18.202  44.772   2.338
26019W        W87330  38.565  28.965   2.681
26020W        W87331  31.637  37.423   4.354
26021W        W87332  36.951  14.769  11.893
26022W        W87333   0.420  23.735   2.276
26023W        W87334  38.471  14.675  11.016
26024W        W87335  23.588  26.470   0.927
26025W        W87336  18.565  35.997   4.145
26026W        W87337   6.286  35.437   3.819
26027W        W87338  16.759  14.603  12.559
26028W        W87339  29.088  10.634  11.454
26029W        W87340  12.785   7.280   0.957
26030W        W87341  14.337   8.321  14.769
26031W        W87342  25.708  43.979  13.473
26032W        W87343   6.866   2.840   0.833
26033W        W87344  17.789  30.057  13.412
26034W        W87345   8.782  32.130   5.096
26035W        W87346  31.464  13.135  13.541
26036W        W87347   7.196  14.135   1.694
26037W        W87348  10.289  38.517   0.740
26038W        W87349  40.369  37.463  10.095
26039W        W87350  40.496   0.279   0.823
26040W        W87351  11.362  25.055  10.498
26041W        W87352  34.426  41.870  11.899
26042W        W87353  24.153   2.244   4.778
26043W        W87354  24.625  16.156   1.770
26044W        W87355  40.464  40.375   4.116
26045W        W87356  34.577  37.341   0.875
26046W        W87357  23.598   5.259  14.502
26047W        W87358  21.179  11.226   9.976
26048W        W87359   4.827  19.666  11.880
26049W        W87360  12.235  20.036  11.918
26050W        W87361  23.643  25.181  14.003
26051W        W87362   7.850  14.158   0.301
26052W        W87363   4.393  35.886   0.819
26053W        W87364  27.689  43.374  11.535
26054W        W87365  14.187  37.875   4.138
26055W        W87366  14.322  32.511  10.412
26056W        W87367  30.975  13.669  10.601
26057W        W87368  27.541  11.365   4.831
26058W        W87369  37.376  22.517   2.375
26059W        W87370   2.762  25.487   3.360
26060W        W87371  39.491  17.273  14.373
26061W        W87372   6.704  29.490  10.405
26062W        W87373  23.558   2.246  14.973
26063W        W87374  42.377  33.394   4.302
26064W        W87375  29.501  15.326  14.001
26065W        W87376  30.954  40.935  13.061
26066W        W87377  30.602   1.398  13.328
26067W        W87378  33.102  11.847   4.654
26068W        W87379  16.788  15.596  13.333
26069W        W87380  12.214  13.159  14.946
26070W        W87381  17.123   0.451  13.036
26071W        W87382   0.756  13.640  10.453
26072W        W87383  35.026  43.013   2.708
26073W        W87384  24.178   0.440  13.365
26074W        W87385  22.117   1.301   3.353
26075W        W87386  26.627  38.949  13.516
26076W        W87387  44.919  16.665  12.541
26077W        W87388  40.315  41.375  14.874
26078W        W87389  17.149  11.141  12.011
26079W        W87390  11.290   7.735   4.253
26080W        W87391  25.574   0.447   3.146
26081W        W87392  34.451   2.400  12.090
26082W        W87393   8.797   3.420   4.267
26083W        W87394  42.360  16.654   2.368
26084W        W87395  29.925  41.827   4.620
26085W        W87396  28.027  18.198  10.635
26086W        W87397  17.606  23.688   0.431
26087W        W87398  23.156  32.524   4.275
26088W        W87399  13.705  24.533   2.813
26089W        W87400  28.090  42.310   2.662
26090W        W87401  31.588  28.678  10.630
26091W        W87402   2.392  31.987  13.908
26092W        W87403  12.125  22.223  14.436
26093W        W87404  26.498  21.040   2.330
26094W        W87405  44.905  24.127  13.547
26095W        W87406  44.274  33.542  11.611
26096W        W87407  23.680  39.497   1.357
26097W        W87408  13.716  39.854   4.171
26098W        W87409   5.284  23.169  12.579
26099W        W87410  43.279  10.813  13.342
26100W        W87411  39.478  16.223   3.794
26101W        W87412  13.659  23.718   1.816
26102W        W87413  36.880  43.970  13.988
26103W        W87414  44.290  17.668   1.877
26104W        W87415   2.722  22.745  13.314
26105W        W87416  14.729  16.202   3.277
26106W        W87417  15.157   3.814   5.267
26107W        W87418  27.500  13.621  11.086
26108W        W87419   9.824   3.896  14.437
26109W        W87420  32.429  37.929  13.888
26110W        W87421  16.311  24.513  11.087
26111W        W87422  10.383  30.659  13.313
26112W        W87423  37.464  36.076  13.459
26113W        W87424   4.205  42.359  14.795
26114W        W87425  44.418  26.562  13.312
26115W        W87426  23.720   5.869  13.894
26116W        W87427  41.299  14.151   2.283
26117W        W87428  44.305   0.491  11.514
26118W        W87429   6.354  14.322  11.462
26119W        W87430  34.912  10.670   4.203
26120W        W87431   2.342  43.848   0.363
26121W        W87432  21.679  41.871   3.848
26122W        W87433   9.181  41.376   3.761
26123W        W87434  37.976  24.687   0.356
26124W        W87435  24.165  16.118  10.522
26125W        W87436  34.539   4.718  14.865
26126W        W87437   6.878   3.360   2.785
26127W        W87438   2.316  41.293   3.274
26128W        W87439  19.772   8.327   0.294
26129W        W87440  40.326  25.639   1.731
26130W        W87441  31.098   7.893  14.932
26131W        W87442  35.508  29.954  14.846
26132W        W87443  19.591  11.362  12.390
26133W        W87444   3.721  35.852   4.343
26134W        W87445  25.606  31.627  10.501
26135W        W87446  28.587  15.621  10.498
26136W        W87447   8.295  11.306  13.980
26137W        W87448  23.620   6.257  14.481
26138W        W87449  24.094  35.975  13.807
26139W        W87450  44.894  44.280   0.787
26140W        W87451  44.428  26.493  12.368
26141W        W87452  13.140  26.075  12.040
26142W        W87453  36.958  22.142   4.647
26143W        W87454  15.181  23.560   3.862
26144W        W87455  44.784  31.568   1.780
26145W        W87456   5.423  34.867  10.430
26146W        W87457   1.883  18.772  13.052
26147W        W87458  35.881   7.789   1.439
26148W        W87459  15.292  24.589  12.906
26149W        W87460  34.448  11.712  14.354
26150W        W87461  12.739  30.013  13.327
26151W        W87462  34.870  41.321   2.290
26152W        W87463  34.406   9.840  12.407
26153W        W87464  44.854  39.438  14.804
26154W        W87465  16.240  19.780  11.386
26155W        W87466  44.383  11.315  11.972
26156W        W87467   9.320  27.961  10.627
26157W        W87468   1.293  37.849  10.429
26158W        W87469  19.757  23.538  14.772
26159W        W87470   8.686   3.727   0.781
26160W        W87471  35.475  25.206   1.382
26161W        W87472  25.675  42.307   3.165
26162W        W87473  44.795  32.514  11.499
26163W        W87474  20.756  16.173   2.892
26164W        W87475   2.349  20.767   4.244
26165W        W87476  43.803  37.870   2.303
26166W        W87477   1.470  28.547  11.054
26167W        W87478  32.477  14.818   2.337
26168W        W87479  29.636  25.696   2.737
26169W        W87480  15.750  29.446  10.576
26170W        W87481  16.733  36.352  14.778
26171W        W87482  22.525   2.262   2.754
26172W        W87483  39.966  10.204   1.225
26173W        W87484  30.099  20.575  14.482
26174W        W87485  22.064  15.304   3.649
26175W        W87486  22.689  39.339  14.000
26176W        W87487   4.251  42.447   0.464
26177W        W87488  29.596  16.629   1.824
26178W        W87489   0.917  36.562   1.849
26179W        W87490  25.507  14.264  10.979
26180W        W87491   2.462  16.314   2.338
26181W        W87492  26.141  33.506  10.990
26182W        W87493  23.069  44.337  13.041
26183W        W87494   6.371  12.802   3.809
26184W        W87495  37.087  10.864   3.216
26185W        W87496  32.601  32.546  12.859
26186W        W87497   8.793  40.439  12.375
26187W        W87498  12.694  40.983   2.871
26188W        W87499  33.038   7.665  12.938
26189W        W87500   5.257  19.628   1.289
26190W        W87501   6.315  39.369  12.525
26191W        W87502  35.065  22.564  10.497
26192W        W87503  21.183  27.999  13.829
26193W        W87504   8.660  44.460   2.393
26194W        W87505  34.505  18.270   0.322
26195W        W87506  14.147  23.635  13.891
26196W        W87507  44.486  43.277   2.230
26197W        W87508  37.891  17.151   1.836
26198W        W87509  37.986  44.822   4.278
26199W        W87510  11.748  13.289  10.445
26200W        W87511   7.359  12.622  11.864
26201W        W87512  26.149  39.930  13.884
26202W        W87513  11.131   6.373  13.348
26203W        W87514  39.862  37.835   1.211
26204W        W87515   6.339  39.420   2.737
26205W        W87516  37.484  18.754   3.383
26206W        W87517  11.219   4.248  11.503
26207W        W87518   8.175  26.527  11.534
26208W        W87519  40.807  29.052  11.570
26209W        W87520  44.264  28.936   4.245
26210W        W87521   7.811  21.224   4.730
26211W        W87522  41.298  10.870  11.513
26212W        W87523  37.952  42.402   0.928
26213W        W87524  33.881  11.647   3.689
26214W        W87525  34.976  44.287  12.971
26215W        W87526  17.085  19.084   0.342
26216W        W87527  44.402   3.234   2.704
26217W        W87528  10.856  40.833  11.593
26218W        W87529   1.880   4.824   3.680
26219W        W87530   7.817  39.063   1.743
26220W        W87531  37.876  16.088   0.764
26221W        W87532  42.414  19.138   3.680
26222W        W87533  17.574  33.952   4.321
26223W        W87534   8.804  31.484   2.737
26224W        W87535   1.883  24.210  11.598
26225W        W87536  35.956   4.725  14.770
26226W        W87537  16.087  18.073   0.403
26227W        W87538   0.848  41.494   0.751
26228W        W87539  11.142  22.236  11.534
26229W        W87540  23.652  23.659   0.243
26230W        W87541  14.724  44.897  12.870
26231W        W87542  29.170  12.825   4.612
26232W        W87543  42.821  44.899  12.578
26233W        W87544   5.733  26.112   4.756
26234W        W87545  22.552  11.369  10.551
26235W        W87546  28.960  17.302   0.726
26236W        W87547  20.121  13.792   4.209
26237W        W87548  10.700  40.427   3.651
26238W        W87549  12.657   9.820   0.733
26239W        W87550  10.667   3.218  11.511
26240W        W87551  12.794  17.571   3.194
26241W        W87552  15.159  30.970   0.288
26242W        W87553  39.016  31.954   1.266
26243W        W87554  25.527   1.333   0.764
26244W        W87555  44.418  30.632  13.478
26245W        W87556  23.616  34.439  11.478
26246W        W87557  34.473   8.362   3.335
26247W        W87558  33.915  21.166  10.996
26248W        W87559   4.702  40.948   2.403
26249W        W87560  36.513   6.895  13.990
26250W        W87561   3.839  43.840  12.069
26251W        W87562  37.352  37.345  14.389
26252W        W87563   4.893  16.229   1.899
26253W        W87564  40.379  17.801   3.349
26254W        W87565   9.853   6.281   2.860
26255W        W87566   6.810  10.268   3.753
26256W        W87567  24.504   6.823  14.295
26257W        W87568  11.641  38.566   3.181
26258W        W87569   8.259  16.227   1.305
26259W        W87570   5.208   1.478  10.589
26260W        W87571  44.499  40.317   3.196
26261W        W87572  23.567  42.918   2.181
26262W        W87573  20.709   0.841  10.911
26263W        W87574  31.611  41.968   2.181
26264W        W87575  41.536  37.050  12.435
26265W        W87576  36.975   3.888  11.952
26266W        W87577  42.383  41.429  14.940
26267W        W87578  32.433  36.496   1.283
26268W        W87579  11.302  36.574   0.852
26269W        W87580  26.560  29.530  14.513
26270W        W87581  25.556   8.245   1.854
26271W        W87582  33.887   9.695  12.839
26272W        W87583  22.707  36.841  14.028
26273W        W87584  39.397  16.174  10.915
26274W        W87585  25.068  12.295  13.353
26275W        W87586  10.257  18.699  12.044
26276W        W87587  36.398   0.286   1.324
26277W        W87588  22.566  38.489   5.660
26278W        W87589  35.025  25.074  13.920
26279W        W87590  21.652  21.054   2.198
26280W        W87591  16.129  25.181  12.968
26281W        W87592  41.912  30.511   1.903
26282W        W87593  43.962  18.731   1.832
26283W        W87594  12.362  35.963  14.976
26284W        W87595  18.117  42.877   3.629
26285W        W87596  35.578  38.917   5.697
26286W        W87597   1.826  13.204   3.657
26287W        W87598  22.623   9.724   2.355
26288W        W87599  10.827  38.367  12.425
26289W        W87600  38.963  22.662   0.438
26290W        W87601  30.056  29.943  14.483
26291W        W87602  32.056  28.104  12.556
26292W        W87603  40.889  23.631   2.285
26293W        W87604  36.890  17.075   3.361
26294W        W87605  43.839  13.786  14.782
26295W        W87606  14.826  38.964  14.478
26296W        W87607  44.904  29.666  13.051
26297W        W87608   6.236  18.742  12.896
26298W        W87609  26.158  36.981   4.835
26299W        W87610  43.015  17.588   3.186
26300W        W87611   1.878  20.059   1.220
26301W        W87612  28.930  14.126  14.275
26302W        W87613   3.712   4.343  13.022
26303W        W87614  19.143  44.350  11.062
26304W        W87615  15.228  37.004  10.517
26305W        W87616   5.753  18.269   1.874
26306W        W87617  16.083  40.442   3.207
26307W        W87618  26.067  20.633  10.545
26308W        W87619  28.034  41.490   2.182
26309W        W87620  43.896   2.883   1.845
26310W        W87621  15.310  37.553  14.481
26311W        W87622  21.631  35.407  11.373
26312W        W87623  23.214  26.488  10.482
26313W        W87624  17.628  11.317   3.859
26314W        W87625  10.146  20.718  11.886
26315W        W87626  29.974  41.485   4.255
26316W        W87627  20.694  25.027  11.944
26317W        W87628  41.969  44.997  11.860
26318W        W87629  15.298  18.556   3.632
26319W        W87630  12.686   1.407   2.856
26320W        W87631   8.818   5.401   2.710
26321W        W87632  44.438  13.621  11.383
26322W        W87633  22.732  28.966   1.254
26323W        W87634  26.663  32.019  14.826
26324W        W87635  42.787  14.308  12.430
26325W        W87636  18.263   1.911   3.282
26326W        W87637   2.394  15.323  13.819
26327W        W87638  20.562  26.539  14.989
26328W        W87639   0.912  15.744  12.088
26329W        W87640  20.759   8.856  12.424
26330W        W87641  15.223   0.490  14.868
26331W        W87642  23.693  25.663   3.190
26332W        W87643  24.170   1.394  11.518
26333W        W87644  20.601  17.574  13.930
26334W        W87645   4.354  24.032   0.781
26335W        W87646   0.331  20.129   2.372
26336W        W87647  23.102  39.463   0.915
26337W        W87648   7.409  29.519  10.900
26338W        W87649   2.245  17.741   1.703
26339W        W87650  23.649   6.918   2.345
26340W        W87651  35.603   7.888   2.216
26341W        W87652   1.807  41.502  12.949
26342W        W87653  36.386  43.785   1.272
26343W        W87654  21.135   0.986  11.417
26344W        W87655  29.488  42.499   1.777
26345W        W87656   7.332   0.860  14.907
26346W        W87657   6.375  21.685  13.519
26347W        W87658  30.562  11.867   3.771
26348W        W87659  42.946  37.366  14.762
26349W        W87660  23.192  39.948   2.805
26350W        W87661  28.031  43.505  11.072
26351W        W87662   7.730  38.058  13.409
26352W        W87663  16.644  39.837  14.872
26353W        W87664  42.324  41.999  12.900
26354W        W87665   2.460  23.155  12.993
26355W        W87666   9.882  16.750  13.326
26356W        W87667  39.961   6.819   3.219
26357W        W87668  11.169  10.336  11.004
26358W        W87669  15.592  38.893   0.882
26359W        W87670  23.577  20.068   3.376
26360W        W87671  44.796   6.684   1.903
26361W        W87672   1.439  16.713  14.368
26362W        W87673  20.537  35.900   2.752
26363W        W87674  10.332  21.216   4.711
26364W        W87675  16.596  21.622   1.331
26365W        W87676  22.087  24.037  11.856
26366W        W87677  38.947  32.575  14.491
26367W        W87678   9.227   5.354   1.910
26368W        W87679  37.390  27.528  10.464
26369W        W87680  27.987  33.595  12.562
26370W        W87681  20.173  44.483   0.480
26371W        W87682  12.719   3.752  14.446
26372W        W87683  13.293  23.499  12.455
26373W        W87684  33.084  21.523   0.919
26374W        W87685   0.328  33.018   1.397
26375W        W87686  12.763   9.792   2.665
26376W        W87687  25.027  11.362  10.451
26377W        W87688  13.656  24.688   1.706
26378W        W87689  34.380  26.511  11.899
26379W        W87690  41.493  14.592   3.250
26380W        W87691  22.216  26.669  12.349
26381W        W87692   5.235  38.442  14.404
26382W        W87693  22.666   0.395   3.190
26383W        W87694  15.303  35.478   4.744
26384W        W87695   0.847  32.081  10.001
26385W        W87696  34.418  25.557  12.916
26386W        W87697  37.874  24.677  10.501
26387W        W87698   8.854   7.829   1.715
26388W        W87699  16.161   9.196   2.397
26389W        W87700  13.259   4.361   2.666
26390W        W87701  15.581  40.802   3.216
26391W        W87702  39.348  26.118  12.448
26392W        W87703  32.528  15.299  11.858
26393W        W87704  12.837  26.151  13.335
26394W        W87705  36.553  19.752   1.445
26395W        W87706   8.372  19.716   1.705
26396W        W87707  37.465   3.232   3.827
26397W        W87708  11.690   9.296   1.836
26398W        W87709  42.284  34.497   3.309
26399W        W87710  26.662   4.855   2.691
26400W        W87711  22.100   6.242  12.841
26401W        W87712  43.366  21.628   2.394
26402W        W87713  32.911   9.829  13.394
26403W        W87714  43.928  24.601   2.210
26404W        W87715  34.460  28.994  13.514
26405W        W87716  25.193  12.780  10.947
26406W        W87717  38.023  42.847   3.387
26407W        W87718   8.244   6.859  13.970
26408W        W87719  37.060   1.949  10.456
26409W        W87720  41.845   6.388  11.992
26410W        W87721  17.787  23.518   2.403
26411W        W87722  33.084   4.304  12.983
26412W        W87723  40.497  30.040   0.261
26413W        W87724   2.747   0.881  11.425
26414W        W87725  15.702  25.965  10.905
26415W        W87726  30.574  10.216  13.323
26416W        W87727  22.208  25.483   4.322
26417W        W87728  34.392  28.671   1.427
26418W        W87729   4.882  39.812  14.414
26419W        W87730  17.271  19.592  14.461
26420W        W87731   0.431  39.821   4.627
26421W        W87732  12.262  13.116   4.716
26422W        W87733  43.014  17.595   2.798
26423W        W87734  27.073  14.622   1.302
26424W        W87735  27.015  27.168   1.385
26425W        W87736  25.191  35.488   4.781
26426W        W87737  32.090  36.884  12.090
26427W        W87738  19.271  39.848   0.902
26428W        W87739  34.558   8.894   0.277
26429W        W87740  12.355  44.385  13.330
26430W        W87741  11.277  44.389  10.631
26431W        W87742   2.299   7.784  10.564
26432W        W87743  11.154  42.373  11.416
26433W        W87744  19.664   6.730  11.033
26434W        W87745  40.962  39.552  14.427
26435W        W87746  24.547  35.962  14.397
26436W        W87747  40.381  37.433   5.270
26437W        W87748  17.291  44.480   1.390
26438W        W87749  10.742  43.916   0.813
26439W        W87750  30.538  27.588   0.460
26440W        W87751   9.852  19.618   5.264
26441W        W87752   8.862  10.697   4.250
26442W        W87753  11.760  22.094  13.830
26443W        W87754   0.951  27.980   1.916
26444W        W87755  17.645  38.004  11.492
26445W        W87756  28.568  18.567  14.418
26446W        W87757  34.116  39.551  12.961
26447W        W87758  27.091  25.022  10.128
26448W        W87759  18.100   5.751   3.651
26449W        W87760   8.728  38.469   0.738
26450W        W87761   1.843  17.235   0.427
26451W        W87762  24.176  12.296  11.955
26452W        W87763  14.828  21.154   4.331
26453W        W87764  26.182  18.634   0.915
26454W        W87765   0.883   2.747   1.781
26455W        W87766  15.166   5.224  12.009
26456W        W87767  42.312  29.036  10.555
26457W        W87768  25.964  30.098   2.298
26458W        W87769  38.954  31.086   2.238
26459W        W87770  23.506   0.819  11.889
26460W        W87771  14.307  15.251   3.825
26461W        W87772  33.000   0.752  14.399
26462W        W87773  16.226  15.203   0.463
26463W        W87774  40.023  25.182   4.235
26464W        W87775  40.403  32.494   0.365
26465W        W87776   4.842  34.950   5.298
26466W        W87777  44.399  10.257  12.880
26467W        W87778  15.133  19.620  12.495
26468W        W87779  15.650  28.010   3.641
26469W        W87780  23.625  14.660  12.354
26470W        W87781  34.572  38.022   9.949
26471W        W87782   2.889  31.482   4.618
26472W        W87783  28.490  40.941  13.983
26473W        W87784   7.297  44.788  11.104
26474W        W87785  17.681  42.996   0.435
26475W        W87786   8.324  39.042   2.870
26476W        W87787  23.075  40.013  12.023
26477W        W87788  39.843   8.245  13.027
26478W        W87789  22.583  24.185   1.700
26479W        W87790  13.826   1.401   1.404
26480W        W87791  14.118   5.386   2.823
26481W        W87792   1.444   7.788   0.330
26482W        W87793  35.561  31.003   2.889
26483W        W87794  39.921   0.767  13.523
26484W        W87795  18.192  44.323  14.933
26485W        W87796  44.378  30.117   2.396
26486W        W87797  39.015  41.974   0.815
26487W        W87798   1.925  43.771   4.800
26488W        W87799   3.752  41.824   0.394
26489W        W87800   4.295  32.521   1.313
26490W        W87801   1.418   2.321  10.894
26491W        W87802   7.673  21.167  11.944
26492W        W87803   6.693   7.390   3.260
26493W        W87804  23.000  10.831  13.516
26494W        W87805  18.284  22.591   3.760
26495W        W87806  34.073  34.562  11.111
26496W        W87807  39.444  28.142  14.868
26497W        W87808  13.166  41.384   5.276
26498W        W87809   7.185   9.861  13.465
26499W        W87810  42.502  38.987   1.354
26500W        W87811  19.558  26.480   0.835
26501W        W87812   1.290   0.783  10.478
26502W        W87813  18.749  39.846  12.898
26503W        W87814   9.888  26.525  10.927
26504W        W87815  40.413  34.462   0.474
26505W        W87816  18.663  33.566  11.892
26506W        W87817  43.000   3.932   2.671
26507W        W87818  18.585  11.328  11.464
26508W        W87819   8.753  18.155  12.382
26509W        W87820   6.849  17.105  12.858
26510W        W87821  40.388  37.087  11.544
26511W        W87822  40.441  16.082   2.812
26512W        W87823  31.552  15.709  12.484
26513W        W87824  23.142  39.855   0.765
26514W        W87825  28.052   5.342   1.376
26515W        W87826  43.859  44.824  10.595
26516W        W87827  25.120   5.337   1.771
26517W        W87828  12.229   5.330  11.916
26518W        W87829  27.514   7.729   0.861
26519W        W87830  43.927  29.969  11.457
26520W        W87831  31.919  38.412  10.545
26521W        W87832   0.771  33.561  12.421
26522W        W87833  22.229  19.650  11.927
26523W        W87834  25.502  42.890   0.875
26524W        W87835  22.690  25.561  13.853
26525W        W87836   7.265  24.167  11.855
26526W        W87837  34.592  32.920  10.965
26527W        W87838  10.634  40.386   4.319
26528W        W87839  38.826   2.388   2.193
26529W        W87840   2.902  26.679   4.347
26530W        W87841  14.340  31.972  12.905
26531W        W87842  14.257  10.795   0.257
26532W        W87843  26.034   2.848   0.482
26533W        W87844   4.880  19.595   1.332
26534W        W87845  36.510  43.362  11.422
26535W        W87846   3.264   4.407   3.242
26536W        W87847  20.059   5.380   1.262
26537W        W87848  40.497  28.019  11.903
26538W        W87849  37.560   3.781   0.370
26539W        W87850  24.061  39.854  14.374
26540W        W87851  19.649  32.970  14.873
26541W        W87852  28.493  24.526  13.428
26542W        W87853  41.494  16.250   3.350
26543W        W87854  10.229   7.685  12.998
26544W        W87855  13.815  29.073  12.386
26545W        W87856   0.399  39.946   1.272
26546W        W87857  39.422  11.678  14.486
26547W        W87858  23.490  30.650   3.365
26548W        W87859  37.510  36.911   4.650
26549W        W87860  36.930  37.559   1.842
26550W        W87861  16.108   8.353  13.379
26551W        W87862  22.524   6.274   3.765
26552W        W87863  15.323  29.955  14.939
26553W        W87864  36.455   9.855   2.861
26554W        W87865  43.473   7.873   2.216
26555W        W87866  20.219  42.469  13.505
26556W        W87867  12.660  12.129  14.026
26557W        W87868   8.868   2.917   0.879
26558W        W87869  12.245  24.488  14.994
26559W        W87870   9.305  15.578  10.475
26560W        W87871  30.148  23.028  12.991
26561W        W87872   9.866  34.110   0.953
26562W        W87873  23.506  10.785  13.548
26563W        W87874  38.383   2.872  14.327
26564W        W87875  35.012  27.148  14.029
26565W        W87876  38.337  37.494  10.933
26566W        W87877   7.892  31.469  10.904
26567W        W87878  29.461  25.555  12.433
26568W        W87879   4.335   0.328  12.562
26569W        W87880   6.784  21.738   3.357
26570W        W87881  19.631  25.501  12.946
26571W        W87882  29.150  27.086  11.458
26572W        W87883  21.620  29.484   5.642
26573W        W87884  37.507   0.254   0.811
26574W        W87885  24.589  20.235   3.163
26575W        W87886  23.227  16.597   3.679
26576W        W87887  14.178  18.774   0.307
26577W        W87888   2.732   2.904  14.765
26578W        W87889  20.548  30.457  10.607
26579W        W87890  37.024  36.949   5.212
26580W        W87891   8.296  34.101  14.399
26581W        W87892   9.254  36.994   0.248
26582W        W87893   5.279   5.771  14.023
26583W        W87894  16.115  21.538  13.836
26584W        W87895  43.437  27.075  12.856
26585W        W87896  40.540  15.757  10.042
26586W        W87897  21.120   3.890  10.412
26587W        W87898  31.073  19.549  12.384
26588W        W87899  30.036  33.397   1.775
26589W        W87900  35.877  16.083  14.943
26590W        W87901   8.250  24.005   2.744
26591W        W87902  27.102   1.931   0.932
26592W        W87903  23.727  27.187   4.650
26593W        W87904  30.460  35.585   3.368
26594W        W87905   6.841  21.689  12.913
26595W        W87906   7.873  34.984  14.889
26596W        W87907  41.294  23.634  10.944
26597W        W87908  13.765  16.741  12.445
26598W        W87909   4.322  13.105  12.968
26599W        W87910   7.897  19.205  14.841
26600W        W87911  32.108   0.472  13.804
26601W        W87912  26.029  18.592   1.404
26602W        W87913  44.934  39.944  14.472
26603W        W87914  34.075  11.834  13.367
26604W        W87915  32.920   6.843   4.334
26605W        W87916  34.048  20.247  14.866
26606W        W87917  36.946  25.668  11.054
26607W        W87918   4.361  33.379  14.445
26608W        W87919  43.962  41.522  10.434
26609W        W87920  36.484   1.906   2.254
26610W        W87921  13.684   7.688  13.988
26611W        W87922  10.290  29.542  12.353
26612W        W87923  41.930   0.332  11.083
26613W        W87924  30.156  34.547  14.380
26614W        W87925  16.686   0.798  14.284
26615W        W87926  41.904  28.967  10.598
26616W        W87927   9.853   8.195  13.388
26617W        W87928  24.071  34.001  14.988
26618W        W87929  38.878  29.435  13.464
26619W        W87930  35.921  32.115  14.988
26620W        W87931   0.459  27.644  11.906
26621W        W87932  32.893  15.672  13.880
26622W        W87933  27.592  10.655  12.850
26623W        W87934  28.157  38.021  11.064
26624W        W87935  34.545  15.087  13.494
26625W        W87936  10.260  28.944   4.235
26626W        W87937  29.591  28.671   3.707
26627W        W87938  19.218  40.943   4.338
26628W        W87939   4.838  39.492  12.463
26629W        W87940  13.740  42.940  11.128
26630W        W87941  43.914   1.399  12.879
26631W        W87942  32.407   9.692   0.439
26632W        W87943  29.645  21.127   2.704
26633W        W87944  37.544   8.764  13.983
26634W        W87945  19.727  11.803  10.504
26635W        W87946  42.466  32.080  13.060
26636W        W87947  22.607  14.747  13.916
26637W        W87948  26.685   0.294   0.323
26638W        W87949  37.453   1.356  10.454
26639W        W87950  38.911  25.004   0.270
26640W        W87951  38.959  14.171  12.465
26641W        W87952   9.670  16.150   2.734
26642W        W87953  34.078   3.400  11.510
26643W        W87954  14.340  39.502   3.853
26644W        W87955  19.682   8.769   0.325
26645W        W87956   4.736  26.990   1.297
26646W        W87957  40.846   9.180   1.924
26647W        W87958  44.352  11.291  11.422
26648W        W87959  28.171  14.300  11.861
26649W        W87960   9.281  42.391   0.794
26650W        W87961  19.190   3.916  14.798
26651W        W87962  24.046   4.242  12.940
26652W        W87963  34.024  39.527  10.605
26653W        W87964  22.664  42.385  11.537
26654W        W87965   0.264  19.704   3.787
26655W        W87966  24.668  11.661  11.011
26656W        W87967  23.216   8.336  12.023
26657W        W87968  33.098  13.795  12.039
26658W        W87969  14.594  40.422  13.884
26659W        W87970  12.143  30.018  11.118
26660W        W87971  33.058  17.663   1.211
26661W        W87972  14.646  27.951  13.920
26662W        W87973  42.818   8.848  12.012
26663W        W87974  38.986   6.818   2.712
26664W        W87975  25.695  25.547  14.867
26665W        W87976  21.168   3.833  10.998
26666W        W87977  16.606   9.265   1.767
26667W        W87978  37.879   8.820   2.406
26668W        W87979  38.952  24.597  12.937
26669W        W87980   7.900   9.245   0.350
26670W        W87981  11.710  44.456  12.393
26671W        W87982  26.469  10.746  13.392
26672W        W87983  14.787   3.845  11.565
26673W        W87984  17.567  34.119  13.021
26674W        W87985   6.711   1.757   1.419
26675W        W87986   1.360   8.794   0.302
26676W        W87987  25.985  37.415   0.483
26677W        W87988   2.874  15.620   1.734
26678W        W87989  34.613  14.284  13.799
26679W        W87990  42.489  44.918  13.533
26680W        W87991  23.138   5.201  13.048
26681W        W87992  19.150  38.003  14.484
26682W        W87993  28.033   1.789   5.262
26683W        W87994  10.857  36.007   3.809
26684W        W87995  34.938  14.715  11.878
26685W        W87996   1.947   2.941  14.500
26686W        W87997  28.517  36.462   3.630
26687W        W87998  23.215  23.140  10.917
26688W        W87999  19.069   5.830  13.032
26689W        W88000  26.459  22.707   1.418
26690W        W88001   5.381  32.583   3.746
26691W        W88002  32.949  42.439   1.753
26692W        W88003  24.724  29.589  11.471
26693W        W88004   8.396   7.177   0.826
26694W        W88005   4.934   3.941  11.485
26695W        W88006  17.102  21.049   2.681
26696W        W88007  15.242   8.686  14.030
26697W        W88008  23.525  23.192   3.293
26698W        W88009   4.896  12.665   3.211
26699W        W88010   0.848  41.503  13.891
26700W        W88011  39.501  35.361  12.033
26701W        W88012   4.888   5.304   2.327
26702W        W88013   6.332  40.486   2.755
26703W        W88014  33.399  10.781  13.447
26704W        W88015  20.193  22.021  14.921
26705W        W88016  23.568  36.565   3.380
26706W        W88017  15.681  21.577   9.924
26707W        W88018  17.095  27.972  14.306
26708W        W88019  28.613  20.709  12.090
26709W        W88020  32.123  13.245   1.445
26710W        W88021   6.800   9.752   2.852
26711W        W88022  33.126  42.920   3.702
26712W        W88023  31.613  19.197  11.006
26713W        W88024   8.742   1.281   0.887
26714W        W88025  28.083   2.892   0.403
26715W        W88026  25.477  19.077  13.484
26716W        W88027  24.553  42.866  11.982
26717W        W88028  44.979   4.292  13.509
26718W        W88029  41.336  18.718  14.925
26719W        W88030  38.426  38.945  12.091
26720W        W88031  44.364   4.380   2.305
26721W        W88032   9.191  33.600  12.528
26722W        W88033  42.895  13.807   4.768
26723W        W88034  17.608  44.480  14.307
26724W        W88035  11.837  34.093   2.407
26725W        W88036  35.905  23.177   2.278
26726W        W88037  24.598  29.176   3.203
26727W        W88038  40.054  44.913   2.326
26728W        W88039  14.782   6.284  12.562
26729W        W88040  19.275  36.052  14.814
26730W        W88041  25.012  23.653  12.395
26731W        W88042   1.358  19.733  14.397
26732W        W88043  11.312  26.531  14.928
26733W        W88044   0.303  38.490   0.746
26734W        W88045  11.319  37.509   5.206
26735W        W88046  41.016  31.507  11.445
26736W        W88047   5.268  28.522   4.735
26737W        W88048  37.362  42.463  10.556
26738W        W88049  32.967  37.057   0.253
26739W        W88050  34.882  19.545  14.333
26740W        W88051  15.597  30.078   3.631
26741W        W88052  38.825   9.326  10.520
26742W        W88053  21.019  14.781   1.304
26743W        W88054  18.136  29.979   1.241
26744W        W88055  11.803  36.541  14.503
26745W        W88056  22.586  10.166   4.351
26746W        W88057  43.794   7.229  13.997
26747W        W88058   7.862   0.430  13.506
26748W        W88059  40.837  29.927  13.032
26749W        W88060  31.963  43.398   3.204
26750W        W88061  10.816  27.182   4.735
26751W        W88062   6.818  24.628  14.445
26752W        W88063  16.586  21.027   0.295
26753W        W88064  36.556  33.023   3.193
26754W        W88065  13.822  19.625   4.716
26755W        W88066  16.296   0.440  14.301
26756W        W88067  39.823  13.618   0.965
26757W        W88068  35.557   4.746   4.832
26758W        W88069  30.442   6.749  14.408
26759W        W88070  12.636  25.522   4.230
26760W        W88071  40.846  23.216  10.589
26761W        W88072   0.779  28.542   2.808
26762W        W88073   8.166   2.247  14.009
26763W        W88074  39.984   7.189   0.800
26764W        W88075  14.676  14.817   3.192
26765W        W88076   7.412  15.756  12.578
26766W        W88077  18.766  24.119  12.898
26767W        W88078  34.969  41.842  12.395
26768W        W88079  33.438   2.835   3.804
26769W        W88080  15.289  16.230  14.999
26770W        W88081   4.292   7.705   0.280
26771W        W88082  16.231   8.789  12.361
26772W        W88083  16.152   0.950   4.826
26773W        W88084  13.732  43.936   1.368
26774W        W88085   6.798  10.337   4.756
26775W        W88086  21.670  24.588  13.029
26776W        W88087  13.741   9.355   2.763
26777W        W88088  32.524  30.097  14.469
26778W        W88089  10.637   2.740   0.869
26779W        W88090  17.289  15.281  12.835
26780W        W88091   4.926  11.171   4.684
26781W        W88092  14.157  29.502   1.430
26782W        W88093  24.693  19.725   0.430
26783W        W88094  42.495   8.351  10.950
26784W        W88095  32.976  18.200  13.326
26785W        W88096  26.551  21.194  12.968
26786W        W88097  28.595  17.757   0.731
26787W        W88098  25.550   4.934  10.566
26788W        W88099  16.753  23.546  12.873
26789W        W88100  30.925  18.249  13.471
26790W        W88101  13.800  37.855   2.227
26791W        W88102  37.887  11.742  12.519
26792W        W88103  30.574  40.028   0.745
26793W        W88104   6.300  28.066   0.817
26794W        W88105  32.617   2.318  14.882
26795W        W88106  27.453   6.869   5.239
26796W        W88107  39.528   0.749   0.744
26797W        W88108  22.041  20.274  11.048
26798W        W88109  34.945  22.542  13.823
26799W        W88110  17.066  34.878  14.925
26800W        W88111   9.345  15.744  11.080
26801W        W88112   9.364  17.275  14.020
26802W        W88113  40.990   0.296   2.264
26803W        W88114  44.795  19.161   0.348
26804W        W88115   1.964   8.896  10.898
26805W        W88116  18.636  20.565   1.360
26806W        W88117  37.408  32.108   1.239
26807W        W88118  21.038  28.573  10.952
26808W        W88119  35.969  18.097  13.460
26809W        W88120  32.578  27.010   3.789
26810W        W88121  25.601   6.792  13.017
26811W        W88122  33.452   2.355  13.835
26812W        W88123  30.938  24.695  10.633
26813W        W88124   7.172  20.627   3.814
26814W        W88125  30.930   1.906  13.021
26815W        W88126  23.519  38.404   3.764
26816W        W88127   6.359   6.899  12.872
26817W        W88128  32.497  28.504   3.785
26818W        W88129  39.040  30.161   1.242
26819W        W88130  39.004  31.524  12.946
26820W        W88131  22.612  24.603   2.333
26821W        W88132  39.920  10.338   1.920
26822W        W88133  30.626   9.872   2.378
26823W        W88134  16.738   3.371  10.957
26824W        W88135  30.493  40.315   2.272
26825W        W88136  41.513   5.246   4.213
26826W        W88137  12.361  26.066  11.875
26827W        W88138  11.761  32.143  10.098
26828W        W88139  18.072  40.809   4.220
26829W        W88140   1.315   7.667  14.448
26830W        W88141  44.340  41.877  12.378
26831W        W88142  11.645  30.419   0.368
26832W        W88143  28.081  20.245   3.638
26833W        W88144  36.442  32.967   3.867
26834W        W88145  10.635  30.504   2.694
26835W        W88146  20.708  41.385   3.695
26836W        W88147  29.584   5.224  11.507
26837W        W88148  13.218   9.671  11.115
26838W        W88149   6.336  18.103   3.770
26839W        W88150  35.092  26.174  12.084
26840W        W88151  12.689   8.892  12.014
26841W        W88152  35.578  31.454  14.878
26842W        W88153  39.950  17.751  10.980
26843W        W88154   9.826  28.998   3.806
26844W        W88155  44.262  21.552  12.826
26845W        W88156  27.196   8.350   1.448
26846W        W88157  21.726   3.253  11.610
26847W        W88158  13.672  26.200  13.044
26848W        W88159   1.440  21.107   4.770
26849W        W88160  34.913   5.227   1.274
26850W        W88161   6.740  41.907  13.361
26851W        W88162  34.991  36.049   1.764
26852W        W88163  35.552  42.338   3.745
26853W        W88164  33.504   5.215   3.360
26854W        W88165  38.429  24.087  13.995
26855W        W88166  15.631  19.047  11.526
26856W        W88167  28.656  44.384  13.456
26857W        W88168  16.120  43.827   4.807
26858W        W88169   2.729   2.780  12.890
26859W        W88170  30.479  32.484  10.889
26860W        W88171  12.828  15.224  12.940
26861W        W88172  40.866  32.105   4.328
26862W        W88173  21.127  43.298   1.765
26863W        W88174  14.792  13.821  13.529
26864W        W88175  13.168  11.753  12.468
26865W        W88176   9.814  24.568   3.746
26866W        W88177  33.104  11.704   3.189
26867W        W88178   7.217  23.548  11.057
26868W        W88179  11.697  21.152  13.407
26869W        W88180  27.581  30.907  13.876
26870W        W88181   7.305   8.384  11.952
26871W        W88182  11.738  21.070  10.621
26872W        W88183  38.902  27.465  13.897
26873W        W88184  38.501  11.665   0.940
26874W        W88185   3.834  40.034  12.095
26875W        W88186  16.805  25.662   1.250
26876W        W88187   3.940   9.172  13.418
26877W        W88188  33.504  35.109   2.226
26878W        W88189   0.885  17.207   0.471
26879W        W88190  44.318   2.813  14.856
26880W        W88191  18.546  25.700   0.891
26881W        W88192  42.826  25.568  13.544
26882W        W88193  14.745  25.560  12.944
26883W        W88194  38.475  43.953   3.819
26884W        W88195  11.675  14.717  12.864
26885W        W88196   9.806  19.710  13.021
26886W        W88197  19.172  12.306  10.479
26887W        W88198  42.479   7.821  11.014
26888W        W88199  18.244  14.331  13.864
26889W        W88200  12.647   4.802  12.997
26890W        W88201  31.423  18.660  14.993
26891W        W88202  17.158  38.360   2.703
26892W        W88203  24.563  35.057   1.789
26893W        W88204  39.919   6.905  12.948
26894W        W88205  19.250  40.368   3.866
26895W        W88206  15.769  34.023   1.335
26896W        W88207   0.424  20.617  11.528
26897W        W88208  43.352   6.366  12.424
26898W        W88209  32.617  26.552  14.850
26899W        W88210  19.066   1.756   3.196
26900W        W88211   8.329  36.352  11.479
26901W        W88212  16.710  21.067   4.340
26902W        W88213  31.445  35.526   1.816
26903W        W88214   2.794  19.061   4.721
26904W        W88215  30.108  27.013  11.027
26905W        W88216  10.268  44.338  13.401
26906W        W88217  44.502  28.512  12.824
26907W        W88218   9.876  34.388  11.486
26908W        W88219  27.135  33.585  10.466
26909W        W88220  38.940   2.356   3.252
26910W        W88221  20.619  35.083  14.428
26911W        W88222  16.299   7.667  13.001
26912W        W88223  18.731  39.951  13.503
26913W        W88224  39.926  35.988  14.508
26914W        W88225  13.243  22.733   3.684
26915W        W88226   0.880  16.734   2.760
26916W        W88227   3.798  44.782  13.331
26917W        W88228  10.684  22.089   1.431
26918W        W88229   2.830  37.422  10.513
26919W        W88230  25.630  42.002  14.283
26920W        W88231   7.268  16.086   0.809
26921W        W88232  39.812  34.910  13.004
26922W        W88233  18.782  43.282   1.444
26923W        W88234  23.712   7.784   3.851
26924W        W88235   3.951  29.664   0.375
26925W        W88236   9.818  21.206   2.267
26926W        W88237   0.750  18.214  12.378
26927W        W88238   8.385   6.726   2.738
26928W        W88239  10.667  18.075  11.391
26929W        W88240  11.814  37.062  12.874
26930W        W88241  32.540  17.211  10.526
26931W        W88242  25.571   7.195   2.770
26932W        W88243  39.910  15.685  12.354
26933W        W88244   8.224  40.911   3.148
26934W        W88245   3.444  30.109  14.394
26935W        W88246  27.097  24.642  14.838
26936W        W88247  25.976  44.879   2.859
26937W        W88248   5.405  44.348   3.631
26938W        W88249  31.527   5.755  10.639
26939W        W88250  23.709  12.787   4.281
26940W        W88251   4.204  35.852  14.283
26941W        W88252  30.065   5.823   1.712
26942W        W88253  33.477  41.380  10.485
26943W        W88254   1.268  26.968   1.878
26944W        W88255  43.335   6.284   1.401
26945W        W88256  25.987  41.861   3.175
26946W        W88257   4.905   0.879   0.396
26947W        W88258  11.829   1.862   5.090
26948W        W88259  41.821  15.319   4.231
26949W        W88260  33.397  40.009   2.239
26950W        W88261  24.123  10.365   3.649
26951W        W88262  32.615   0.281  14.436
26952W        W88263   3.247  40.482  14.937
26953W        W88264  15.708  34.518  12.024
26954W        W88265   7.785  40.817   1.733
26955W        W88266  31.963  10.206   5.278
26956W        W88267   1.750  35.967  12.410
26957W        W88268  44.356  41.420   3.277
26958W        W88269  17.789  20.590   3.284
26959W        W88270  23.643  42.410  12.466
26960W        W88271  43.484  28.512  11.872
26961W        W88272  43.976  32.889  11.984
26962W        W88273  28.656  44.963   3.257
26963W        W88274  44.805  33.456  13.853
26964W        W88275  31.037   3.802   1.841
26965W        W88276   8.851  29.086  12.404
26966W        W88277  20.084  18.127  11.431
26967W        W88278   8.203  40.992  12.084
26968W        W88279  43.408  10.377  10.602
26969W        W88280  18.556   4.298   3.147
26970W        W88281  39.996  38.418   5.118
26971W        W88282  43.992  11.133  11.501
26972W        W88283  39.049  16.224   3.193
26973W        W88284  17.659  42.516   1.259
26974W        W88285  35.555   1.460   2.842
26975W        W88286  23.207  14.747  12.550
26976W        W88287  22.596   1.940  13.447
26977W        W88288   0.822  39.825  13.028
26978W        W88289  13.284  17.781   0.775
26979W        W88290  38.565  34.931   0.769
26980W        W88291   8.315  39.480   1.320
26981W        W88292  28.995  39.317   4.645
26982W        W88293  18.595  37.494  11.013
26983W        W88294  21.522   3.940  10.969
26984W        W88295  37.064  22.024   2.411
26985W        W88296  29.044   1.955  14.374
26986W        W88297   9.183  15.662  14.888
26987W        W88298  14.686  43.805  14.386
26988W        W88299  32.988  22.176   0.887
26989W        W88300   0.966   5.807   4.118
26990W        W88301  43.785  43.505  14.492
26991W        W88302  32.393  18.152  10.440
26992W        W88303   5.823  26.160  13.796
26993W        W88304  28.131  13.745  14.401
26994W        W88305  29.072  23.526   2.765
26995W        W88306  33.940  15.275   1.712
26996W        W88307  33.491  41.798  13.854
26997W        W88308  16.808  17.170  11.531
26998W        W88309  42.369   4.858   0.915
26999W        W88310  32.572  28.968  14.286
27000W        W88311  21.062  16.620  12.514
27001W        W88312  26.983  34.571  14.508
27002W        W88313   5.206  32.924   0.825
27003W        W88314  27.546  37.048  10.633
27004W        W88315  25.006  19.637  14.907
27005W        W88316  25.593   5.850  12.506
27006W        W88317  42.383  23.185  13.863
27007W        W88318  28.018  16.698  11.420
27008W        W88319  20.650  27.971  13.547
27009W        W88320  14.295  14.724  14.970
27010W        W88321  15.617  41.841  11.958
27011W        W88322   8.296  44.407   4.354
27012W        W88323  44.416  24.692   3.148
27013W        W88324  33.007  20.168   1.825
27014W        W88325  16.636   8.268  12.468
27015W        W88326  41.987  11.343   4.321
27016W        W88327  16.152  18.782  12.366
27017W        W88328   5.312  28.038  14.375
27018W        W88329  35.921  18.630  12.898
27019W        W88330   1.836  33.041   1.414
27020W        W88331   2.937  11.671  13.046
27021W        W88332  12.216  19.098  11.478
27022W        W88333  19.623  25.544   4.714
27023W        W88334  15.209   3.823   2.868
27024W        W88335  32.399  21.110   4.349
27025W        W88336  30.982  41.042  11.568
27026W        W88337  28.664  21.086  11.441
27027W        W88338  21.218   9.863  14.966
27028W        W88339  15.824  43.908  13.920
27029W        W88340   3.909   7.867  14.003
27030W        W88341  38.496   4.266   2.797
27031W        W88342  15.775  13.285  10.473
27032W        W88343  26.159  20.251  11.071
27033W        W88344  30.652  20.179   2.717
27034W        W88345  36.360   6.221   4.134
27035W        W88346  26.155  40.516  11.510
27036W        W88347  20.722  44.316  10.442
27037W        W88348  11.339  41.900   2.791
27038W        W88349  15.103  20.180  12.352
27039W        W88350  15.807  11.155   3.747
27040W        W88351  38.933  12.329   1.747
27041W        W88352  34.456  24.620   0.939
27042W        W88353  24.193  24.562  10.537
27043W        W88354  23.709  44.489  13.061
27044W        W88355   0.773  14.635  10.994
27045W        W88356  36.423   3.415  14.276
27046W        W88357  30.458   6.869  10.482
27047W        W88358   4.773  36.532   3.229
27048W        W88359  16.626  27.092   2.336
27049W        W88360  36.063  26.514  11.943
27050W        W88361  17.081  17.213  14.317
27051W        W88362   8.183  37.928   3.370
27052W        W88363  11.703   4.886  14.912
27053W        W88364  18.734  12.616  12.942
27054W        W88365  43.384  26.590   4.247
27055W        W88366  37.061   3.286   2.383
27056W        W88367  12.200   2.831   0.425
27057W        W88368  24.028  14.125  13.388
27058W        W88369  22.660  13.793  11.578
27059W        W88370   3.794  28.993  11.609
27060W        W88371  30.484  11.790   1.229
27061W        W88372   9.384  17.684  14.782
27062W        W88373  38.856  17.635   2.266
27063W        W88374  41.386   2.352  13.353
27064W        W88375  13.109  10.850   0.253
27065W        W88376  41.374  18.710   2.237
27066W        W88377  44.973  14.336   1.340
27067W        W88378   3.715  29.533   0.913
27068W        W88379  39.821   1.916   3.286
27069W        W88380  32.400  19.053   4.794
27070W        W88381  31.025  43.818   0.424
27071W        W88382  36.086   8.331  13.375
27072W        W88383  15.710  17.641  12.028
27073W        W88384  28.982  29.528  12.083
27074W        W88385   5.864   0.444   3.262
27075W        W88386  33.528  44.787  10.948
27076W        W88387  18.762  43.510  10.898
27077W        W88388  44.920   3.330  13.863
27078W        W88389   8.712   6.418   1.758
27079W        W88390  19.157  38.989  12.069
27080W        W88391  31.936  21.585   3.319
27081W        W88392  16.733  21.086   0.818
27082W        W88393  22.236   1.367   4.728
27083W        W88394  29.992  15.580  12.342
27084W        W88395  32.631  40.344  14.372
27085W        W88396  44.902  14.159  12.849
27086W        W88397  18.139  18.549  10.902
27087W        W88398  22.558  16.570  12.883
27088W        W88399  15.751   5.907  11.997
27089W        W88400   9.825  12.750   1.882
27090W        W88401   1.787  10.322  14.835
27091W        W88402   2.830   5.241   3.736
27092W        W88403  20.614  12.723   0.943
27093W        W88404  31.551  27.165  14.291
27094W        W88405   3.398  28.993  11.869
27095W        W88406  10.232  27.649  11.052
27096W        W88407  29.975  18.092  14.330
27097W        W88408  15.620  13.762   0.800
27098W        W88409  33.625  29.566  10.610
27099W        W88410  36.044  42.473   0.816
27100W        W88411  16.598  26.061  13.412
27101W        W88412  28.556  42.849  13.398
27102W        W88413  41.876  31.901   1.789
27103W        W88414  32.954  28.099   2.760
27104W        W88415  14.171  34.611   4.640
27105W        W88416  35.951  16.616  10.895
27106W        W88417  36.914  28.160  14.818
27107W        W88418   6.676  37.569   1.388
27108W        W88419  24.046  24.530  12.826
27109W        W88420  17.288  39.547   0.419
27110W        W88421  17.610   7.912  12.414
27111W        W88422  40.932  42.329  12.890
27112W        W88423  43.924  16.147  14.982
27113W        W88424  27.671  28.563   3.845
27114W        W88425  23.991  23.010  13.052
27115W        W88426  25.094  40.509   3.354
27116W        W88427  24.615  16.747   3.770
27117W        W88428  12.181  27.103   9.576
27118W        W88429  40.872  18.265  10.627
27119W        W88430  38.403  39.010   1.807
27120W        W88431  12.133  33.915   1.803
27121W        W88432  22.020  11.244  14.348
27122W        W88433  28.579  42.383  12.953
27123W        W88434  25.133  38.838  12.496
27124W        W88435   3.845  17.247  12.956
27125W        W88436  31.577  24.722  14.507
27126W        W88437  21.151  19.629   4.785
27127W        W88438   5.398  27.627  12.392
27128W        W88439   7.679   5.823   0.413
27129W        W88440  28.620  41.887  10.634
27130W        W88441   4.335  33.429  11.464
27131W        W88442  13.197   0.250   3.855
27132W        W88443  25.065  21.242  11.458
27133W        W88444  10.168  31.609   2.795
27134W        W88445   6.220   1.328   0.789
27135W        W88446  39.509  31.950  10.946
27136W        W88447  12.684  30.092  12.861
27137W        W88448  13.691  21.605  14.872
27138W        W88449  17.792  29.121  13.391
27139W        W88450  27.198   8.331  11.456
27140W        W88451  11.668  29.571   0.246
27141W        W88452  15.606   1.300   3.303
27142W        W88453  20.568   6.899  12.474
27143W        W88454  26.467  26.624   2.824
27144W        W88455   2.733  31.930   4.223
27145W        W88456  35.511  37.027  12.397
27146W        W88457  36.920  26.646  14.285
27147W        W88458  42.439  22.102   0.334
27148W        W88459  43.827  39.345   1.440
27149W        W88460  29.501   5.437  14.847
27150W        W88461  36.083  39.559   0.734
27151W        W88462   1.418  10.658  11.449
27152W        W88463   7.792   5.816   2.261
27153W        W88464  27.151  26.979  10.477
27154W        W88465   9.803  43.482   2.308
27155W        W88466   3.882  23.191   3.347
27156W        W88467  28.177  13.661   2.706
27157W        W88468  38.352  25.031  12.428
27158W        W88469  20.533  38.050  10.978
27159W        W88470  16.230  23.532   2.716
27160W        W88471  17.174   5.866   1.855
27161W        W88472  41.970   8.823   3.827
27162W        W88473  17.773  30.921  11.961
27163W        W88474  14.679  10.165  12.422
27164W        W88475  17.091  13.615   0.366
27165W        W88476  34.034  38.943  10.979
27166W        W88477   5.413   5.756  12.490
27167W        W88478  42.294  24.542  14.986
27168W        W88479  34.904  18.587   5.108
27169W        W88480  41.298  26.120  10.551
27170W        W88481  29.964   0.797  14.835
27171W        W88482  44.452  14.108   4.325
27172W        W88483  37.921  44.983  12.994
27173W        W88484  12.357  14.308  12.475
27174W        W88485  20.630  15.710   9.956
27175W        W88486  28.038  37.348   3.338
27176W        W88487   9.660  10.363  14.937
27177W        W88488  15.179  29.498   0.378
27178W        W88489  42.391  35.452  11.530
27179W        W88490  25.669  10.638  13.922
27180W        W88491  26.550  38.050  10.465
27181W        W88492  32.072  13.322   3.211
27182W        W88493  40.983   8.324   2.286
27183W        W88494  35.504  32.455  13.862
27184W        W88495  13.754  16.205  12.841
27185W        W88496  35.873  42.029  13.415
27186W        W88497  13.735  44.788  12.067
27187W        W88498  39.833  11.772  14.363
27188W        W88499  26.654   1.417   1.340
27189W        W88500  18.548  33.013  14.435
27190W        W88501   1.751  10.367   5.191
27191W        W88502  17.599  31.062   3.189
27192W        W88503   8.856  19.660   0.875
27193W        W88504  41.818  24.662  14.296
27194W        W88505  23.563   9.376   3.786
27195W        W88506  38.506  16.105   0.901
27196W        W88507   0.967   1.885  10.116
27197W        W88508  36.089  18.751  11.489
27198W        W88509  34.089  15.815  14.973
27199W        W88510   1.253  38.971   3.254
27200W        W88511  21.718   4.881   0.367
27201W        W88512  28.105   3.771   1.802
27202W        W88513  43.914  13.728  11.072
27203W        W88514  25.034  10.234   0.358
27204W        W88515  10.668   1.964   2.792
27205W        W88516  22.229  40.833  12.066
27206W        W88517  34.013  42.334   4.281
27207W        W88518  24.683  23.014  12.009
27208W        W88519  29.083  17.285   4.781
27209W        W88520   6.358  14.829  10.031
27210W        W88521  41.426  11.353   2.755
27211W        W88522  31.074  17.184   1.783
27212W        W88523  13.643   4.213   3.267
27213W        W88524  23.637  29.520  12.833
27214W        W88525  42.002  21.590   0.805
27215W        W88526  17.723  15.604   2.278
27216W        W88527  40.851  16.767   1.443
27217W        W88528   5.199  18.599  13.821
27218W        W88529  26.509  13.742  13.956
27219W        W88530  15.685  40.022  13.522
27220W        W88531   8.406  42.002  13.875
27221W        W88532  42.009   5.255  10.441
27222W        W88533   3.788  42.945  12.501
27223W        W88534  19.724   6.413   2.705
27224W        W88535   0.491   4.208   4.659
27225W        W88536   7.870  33.391  11.439
27226W        W88537  30.658  37.984  12.859
27227W        W88538  22.579  25.536   1.360
27228W        W88539   0.390   2.785  12.034
27229W        W88540  12.240  33.874  12.497
27230W        W88541   6.248  41.918  11.024
27231W        W88542  37.572  22.628   0.304
27232W        W88543  20.730  18.600   2.392
27233W        W88544  37.425  10.226  14.993
27234W        W88545  10.190  26.476   3.737
27235W        W88546  26.557  29.156  14.413
27236W        W88547  13.819  43.909   0.383
27237W        W88548  25.702  15.664   0.747
27238W        W88549  15.231  26.131  14.498
27239W        W88550  25.577   1.957  10.430
27240W        W88551  30.150  32.952  12.477
27241W        W88552  10.866   1.967   4.211
27242W        W88553  23.601  19.128   9.940
27243W        W88554  13.346  13.312  12.537
27244W        W88555  15.589  21.100  12.547
27245W        W88556   7.251  42.934  13.008
27246W        W88557  19.746   4.403   0.423
27247W        W88558  38.977   2.770  14.884
27248W        W88559   0.795   0.782  11.499
27249W        W88560   5.890   6.782   1.893
27250W        W88561  34.967  44.458   2.263
27251W        W88562  33.915  42.418  11.561
27252W        W88563   1.297   6.285   0.851
27253W        W88564   0.956  41.965  11.531
27254W        W88565  15.106   6.703   5.151
27255W        W88566  43.801  37.980  12.936
27256W        W88567  38.477  43.820   2.662
27257W        W88568  22.550  23.044  14.318
27258W        W88569  38.989  18.561   1.764
27259W        W88570  19.046  40.528  13.323
27260W        W88571   8.681  22.596  13.032
27261W        W88572   1.314  41.396   3.670
27262W        W88573   2.907  17.763   3.215
27263W        W88574  40.501  34.563   4.633
27264W        W88575  20.083  15.722   4.715
27265W        W88576  13.236  32.085   2.758
27266W        W88577  41.961  37.389   1.854
27267W        W88578  23.597  25.972   3.183
27268W        W88579  39.350  18.547   3.774
27269W        W88580  23.581   1.277  11.011
27270W        W88581  25.999  35.363   1.326
27271W        W88582  44.462  43.013   4.298
27272W        W88583  33.122  14.304   0.946
27273W        W88584  15.313  18.656  14.790
27274W        W88585   9.154   5.785   0.291
27275W        W88586   2.773  23.112  13.797
27276W        W88587   3.220  35.590  12.381
27277W        W88588   2.927  32.101   3.668
27278W        W88589   4.390  18.167   0.954
27279W        W88590  39.475   9.189   0.784
27280W        W88591  25.612  23.133  12.060
27281W        W88592   3.847   9.261  14.801
27282W        W88593  40.936  44.296  14.486
27283W        W88594  30.448  42.501   4.140
27284W        W88595  31.454  31.489  11.926
27285W        W88596  21.201  29.430   2.223
27286W        W88597  28.061  33.976  11.572
27287W        W88598  21.177  26.606   2.818
27288W        W88599  31.068  35.979  11.943
27289W        W88600  20.074  32.131  14.357
27290W        W88601  44.795  38.850  13.445
27291W        W88602  21.237  14.631   4.766
27292W        W88603  28.100   7.216   1.278
27293W        W88604  27.187  34.076   2.706
27294W        W88605  11.256  10.872   2.286
27295W        W88606  31.050  31.646   1.437
27296W        W88607  34.888  16.139   1.834
27297W        W88608  42.864  12.259  13.994
27298W        W88609  28.597  34.419  10.930
27299W        W88610   3.836   6.691  12.454
27300W        W88611  10.193  23.529  13.997
27301W        W88612  14.295   8.767   5.227
27302W        W88613  34.950   2.430   2.692
27303W        W88614   4.698  39.873  11.960
27304W        W88615  41.992   6.323  13.307
27305W        W88616  33.382  38.448   0.794
27306W        W88617  33.605  28.445   4.823
27307W        W88618  34.533  31.987   0.261
27308W        W88619  38.932  19.724  14.396
27309W        W88620  32.455  19.730  12.935
27310W        W88621  28.112   3.861   5.741
27311W        W88622  34.876  24.092  14.987
27312W        W88623  19.045  17.712   3.185
27313W        W88624  35.434   6.877   1.751
27314W        W88625  11.641  17.146   3.820
27315W        W88626  42.977  42.308   2.705
27316W        W88627   5.263  32.114   0.945
27317W        W88628  43.363  27.550   1.845
27318W        W88629  14.683  12.360   4.201
27319W        W88630  35.449   2.886  12.896
27320W        W88631  31.062  13.657   1.897
27321W        W88632  19.675  19.695   2.805
27322W        W88633  15.319  31.436   1.352
27323W        W88634  35.923  24.025   3.797
27324W        W88635  17.132  42.506   0.339
27325W        W88636  17.750  23.070   4.607
27326W        W88637   5.733  19.736   3.150
27327W        W88638  18.545  38.917  14.770
27328W        W88639  37.034  23.167   1.281
27329W        W88640  30.562  22.731  10.992
27330W        W88641   2.866  43.865   3.712
27331W        W88642  35.586   1.466   0.776
27332W        W88643  24.054  17.747   0.278
27333W        W88644  14.164  12.265   1.436
27334W        W88645  22.155  18.173   1.851
27335W        W88646  17.622  19.711   4.617
27336W        W88647  37.915  28.034  14.793
27337W        W88648   5.775  36.577  13.523
27338W        W88649  25.087  44.952   1.888
27339W        W88650  11.633   8.704   2.850
27340W        W88651  23.064   3.812  11.111
27341W        W88652   9.744  24.205   1.423
27342W        W88653  33.558  42.916  12.877
27343W        W88654  43.949   5.316   4.127
27344W        W88655  29.534  20.650  11.610
27345W        W88656  39.967  44.319   4.197
27346W        W88657  29.963  31.999   4.658
27347W        W88658  44.970  12.155  13.791
27348W        W88659  18.675  36.478   0.377
27349W        W88660  22.563   7.280  14.859
27350W        W88661   7.758  34.872  14.364
27351W        W88662  19.569  28.645  12.074
27352W        W88663  36.551  13.260  14.918
27353W        W88664   6.316  28.464   4.758
27354W        W88665  20.088  44.828   3.196
27355W        W88666  34.485  42.961  12.991
27356W        W88667  33.909  22.688  11.100
27357W        W88668  10.380   7.199  11.936
27358W        W88669   6.335  20.161  13.872
27359W        W88670  21.054   1.932   9.994
27360W        W88671  30.413  39.020  11.454
27361W        W88672   0.914  13.626  11.510
27362W        W88673  27.478   1.278  10.615
27363W        W88674  36.397  36.866  14.896
27364W        W88675  17.158  28.142   0.874
27365W        W88676  37.934  31.944   5.128
27366W        W88677  28.958   6.204  14.916
27367W        W88678  34.441  27.483   4.602
27368W        W88679  15.617   8.343   1.258
27369W        W88680   1.908  21.668  12.929
27370W        W88681  42.906   5.755   2.679
27371W        W88682   3.864  26.697   5.270
27372W        W88683  30.100   1.256   1.791
27373W        W88684  15.094  11.266  11.468
27374W        W88685   1.819  28.046  10.545
27375W        W88686  12.291   1.338   3.651
27376W        W88687  31.090  21.089  10.489
27377W        W88688   7.414  24.484  11.963
27378W        W88689  29.051  35.071  13.048
27379W        W88690  37.841  27.165   3.867
27380W        W88691  26.578  42.993   0.375
27381W        W88692  21.553   5.371   2.852
27382W        W88693   5.791   2.856  11.539
27383W        W88694  39.931  29.920   2.192
27384W        W88695  29.088  22.124  10.578
27385W        W88696  27.084  11.635   4.834
27386W        W88697   0.935  28.500  10.405
27387W        W88698  21.648  39.384   5.229
27388W        W88699  38.064  18.227   2.356
27389W        W88700   7.200  31.983   0.393
27390W        W88701  43.948  12.789   2.767
27391W        W88702  18.105   7.415   3.152
27392W        W88703  39.041   5.747  14.301
27393W        W88704  10.285  16.646   1.783
27394W        W88705  19.618  32.608   1.915
27395W        W88706  37.517  34.001   2.843
27396W        W88707   1.943   9.261  13.948
27397W        W88708  44.904   0.455   1.267
27398W        W88709  11.755  20.155   3.217
27399W        W88710   9.816  14.297  13.328
27400W        W88711  36.504  20.591  11.915
27401W        W88712   3.348  26.055   1.884
27402W        W88713  16.617  24.503   5.666
27403W        W88714  44.938  10.691  10.997
27404W        W88715  39.394  31.553  10.564
27405W        W88716   6.238  11.161  13.531
27406W        W88717  32.074  17.085   3.324
27407W        W88718   6.425  23.127  10.574
27408W        W88719   8.810  40.010   0.933
27409W        W88720  21.259  28.505   4.685
27410W        W88721   4.325  36.579   4.224
27411W        W88722  32.394  20.131  12.857
27412W        W88723  20.693  10.345  11.019
27413W        W88724   4.306  34.885   2.880
27414W        W88725  43.872  39.948  14.030
27415W        W88726  17.129  40.321   4.678
27416W        W88727  28.132  31.583   3.746
27417W        W88728   1.973  37.922   0.802
27418W        W88729   8.339  35.549   1.870
27419W        W88730  33.982   4.770  14.830
27420W        W88731   4.296  27.190  10.557
27421W        W88732  27.974  32.939   3.830
27422W        W88733  21.672  38.929   1.713
27423W        W88734  26.644  26.198  13.877
27424W        W88735  15.091  12.181  10.996
27425W        W88736  26.197  16.747   2.369
27426W        W88737   9.340  37.397   2.848
27427W        W88738   5.818  17.294   2.794
27428W        W88739  23.515   0.308   0.794
27429W        W88740   8.237  17.230   9.621
27430W        W88741  26.173  39.051  14.474
27431W        W88742  37.011  33.526  10.113
27432W        W88743  37.052  25.496   1.790
27433W        W88744  22.017  14.654  11.865
27434W        W88745  24.223  21.743  11.563
27435W        W88746  28.475  36.470   2.288
27436W        W88747   1.347  30.475  14.347
27437W        W88748   5.922  14.741   3.757
27438W        W88749  26.509   4.926   0.443
27439W        W88750  31.083   6.210  13.031
27440W        W88751  15.785  26.665   4.659
27441W        W88752  35.455   8.281   0.401
27442W        W88753  30.450  17.130  14.420
27443W        W88754   0.443   8.234  11.880
27444W        W88755   0.855  28.483  11.096
27445W        W88756  23.624   1.742  13.910
27446W        W88757  43.512   6.707  12.365
27447W        W88758   8.324   5.352  11.505
27448W        W88759  33.503   0.895   4.134
27449W        W88760   9.806   8.670   0.290
27450W        W88761  14.265   9.274  14.859
27451W        W88762  36.086   4.426   0.289
27452W        W88763  19.608  32.986   4.250
27453W        W88764  36.874  37.059  14.464
27454W        W88765   8.180  34.565  14.299
27455W        W88766  40.397  19.564   1.923
27456W        W88767   4.810  13.159  13.364
27457W        W88768   5.235  34.445  14.482
27458W        W88769   0.886  22.162  10.484
27459W        W88770   0.776  20.695  12.897
27460W        W88771  43.326  30.003   3.358
27461W        W88772  26.188   2.266   0.859
27462W        W88773  35.008  10.786   1.421
27463W        W88774   6.701  20.725   0.463
27464W        W88775  27.001   8.882  11.523
27465W        W88776  24.126  34.115   2.698
27466W        W88777  29.111  31.595  10.481
27467W        W88778  41.030  20.268   4.221
27468W        W88779  36.931   8.882   4.793
27469W        W88780   7.249  17.203  13.307
27470W        W88781  26.691  32.015   0.418
27471W        W88782  29.132  34.461  11.913
27472W        W88783   5.720  20.035  11.434
27473W        W88784  39.016   8.261  14.336
27474W        W88785  35.909   6.883  11.888
27475W        W88786  10.229  33.483  14.275
27476W        W88787  15.174  29.076   0.335
27477W        W88788   0.493  39.894  12.871
27478W        W88789  23.558  34.566   4.306
27479W        W88790  27.468   9.199  13.831
27480W        W88791   6.187  36.390  14.486
27481W        W88792  18.255  23.681  13.311
27482W        W88793  32.510   0.870   1.908
27483W        W88794   2.370  20.222  12.948
27484W        W88795  30.989  12.803   3.857
27485W        W88796   2.378  11.151   4.803
27486W        W88797  38.459  39.930   9.965
27487W        W88798  42.998   2.228   3.656
27488W        W88799  35.891   4.738  13.398
27489W        W88800  40.314  10.180  13.548
27490W        W88801  40.361   1.746   3.208
27491W        W88802  28.988  14.774  10.984
27492W        W88803   6.343  38.062   4.669
27493W        W88804  25.053  31.060   5.266
27494W        W88805  15.714  11.822  12.002
27495W        W88806  13.798  36.465  13.416
27496W        W88807  37.461  28.443  10.407
27497W        W88808  15.667  33.481  14.358
27498W        W88809  13.696  31.616  10.572
27499W        W88810   6.808  10.800   3.234
27500W        W88811   3.307  26.038   2.234
27501W        W88812  12.779  24.572   2.798
27502W        W88813  15.182   1.264  14.007
27503W        W88814  30.158   8.235   2.287
27504W        W88815  12.270  40.332  13.873
27505W        W88816   3.768  10.212  12.499
27506W        W88817   8.210  27.639  12.917
27507W        W88818  22.168  11.313  14.897
27508W        W88819  10.368  31.491  14.511
27509W        W88820  14.810   9.864   3.846
27510W        W88821   3.725  37.887  11.097
27511W        W88822   1.267  43.936  14.013
27512W        W88823  36.574  44.459  11.491
27513W        W88824  31.080  42.794   0.762
27514W        W88825  43.468  24.533   0.333
27515W        W88826   6.794  16.812  14.929
27516W        W88827   2.275   6.244   5.261
27517W        W88828  20.642  42.504  11.585
27518W        W88829   2.749  27.545   0.395
27519W        W88830  20.175  20.179  10.926
27520W        W88831  14.801  36.848   3.629
27521W        W88832   7.777  19.743  13.507
27522W        W88833  15.312  13.118   2.865
27523W        W88834  42.007   4.303  12.041
27524W        W88835  43.879  31.064  13.905
27525W        W88836  41.295  38.553  11.449
27526W        W88837  24.128  13.318  12.000
27527W        W88838  20.597  38.393   2.298
27528W        W88839  28.553  38.046  10.551
27529W        W88840   8.718  40.505  10.919
27530W        W88841  42.374  11.718  14.463
27531W        W88842  30.508  18.705   3.282
27532W        W88843   2.347  22.745  11.031
27533W        W88844  43.331  34.591  13.005
27534W        W88845  36.568   0.393  13.322
27535W        W88846   3.934  17.146  11.455
27536W        W88847  10.661  18.075   2.357
27537W        W88848  12.704  11.179   1.816
27538W        W88849  37.956  31.135   3.210
27539W        W88850  11.640  28.042  14.924
27540W        W88851  32.637   9.693  12.914
27541W        W88852  31.571  26.954   3.245
27542W        W88853   7.800  20.066   2.343
27543W        W88854  33.109  42.446  14.783
27544W        W88855  18.766  44.771   3.207
27545W        W88856   8.173  30.448  14.004
27546W        W88857  25.711  12.673  12.849
27547W        W88858   1.253  29.548  10.626
27548W        W88859  26.138   4.909   3.789
27549W        W88860  28.035   3.299  14.298
27550W        W88861  20.664  30.652  13.913
27551W        W88862   1.900   2.819   4.779
27552W        W88863  43.336  24.155  10.562
27553W        W88864  43.289  43.409   1.271
27554W        W88865  19.216  22.039   0.420
27555W        W88866  11.796  25.125  13.325
27556W        W88867  33.047  11.865  13.494
27557W        W88868  42.340   7.415  13.490
27558W        W88869  25.671   4.750   3.818
27559W        W88870  18.644  30.583   0.875
27560W        W88871  40.869  21.053  12.451
27561W        W88872  32.001  28.011  10.582
27562W        W88873  26.172   5.223  14.479
27563W        W88874  42.780  31.444   3.256
27564W        W88875  32.402  37.439   4.346
27565W        W88876   2.737  18.100   4.821
27566W        W88877   7.764  37.560   1.879
27567W        W88878  27.104   5.434  11.543
27568W        W88879  30.593  40.395   4.345
27569W        W88880  25.212  12.837   4.195
27570W        W88881  21.655   8.897  13.498
27571W        W88882   7.308   7.271  10.569
27572W        W88883  18.660   1.334  11.035
27573W        W88884  28.572  22.168   3.732
27574W        W88885  28.453  26.128   0.334
27575W        W88886   6.185  34.931   2.869
27576W        W88887  21.203  35.098  13.021
27577W        W88888   1.466   1.391   0.943
27578W        W88889  33.895  26.167   1.225
27579W        W88890  25.513  43.897  11.962
27580W        W88891  18.247  21.575   0.887
27581W        W88892  42.879  32.605   0.411
27582W        W88893   4.729  33.512  12.368
27583W        W88894  17.149  17.789  10.003
27584W        W88895   6.187  18.590  13.930
27585W        W88896  35.914  20.061  12.056
27586W        W88897   1.412  20.263   4.298
27587W        W88898  43.953  31.528   3.177
27588W        W88899   7.875  21.548   0.437
27589W        W88900   1.965  18.152  12.432
27590W        W88901   4.330   4.214   2.779
27591W        W88902   2.438  44.409   5.246
27592W        W88903  37.001  23.686   1.359
27593W        W88904   3.379  18.619   3.284
27594W        W88905  22.187  40.829   9.509
27595W        W88906   3.818  19.648  12.508
27596W        W88907  17.192  37.353  14.826
27597W        W88908   8.880  34.097  13.397
27598W        W88909  24.154  18.164   0.756
27599W        W88910  44.851  32.427   4.224
27600W        W88911   9.793  27.962   3.631
27601W        W88912  39.967  27.512  14.873
27602W        W88913   6.800  39.969  11.604
27603W        W88914  42.315  32.561   0.456
27604W        W88915  37.525  42.440  11.084
27605W        W88916  14.620   2.455  11.392
27606W        W88917  40.535  36.518  11.549
27607W        W88918  43.983  39.342   3.354
27608W        W88919   7.723  14.649  13.901
27609W        W88920   3.264  15.143   1.935
27610W        W88921   9.228   5.437  12.023
27611W        W88922   7.741  40.941  11.020
27612W        W88923   6.299   0.861   2.383
27613W        W88924   1.388  25.496  11.546
27614W        W88925  36.949  21.182  12.345
27615W        W88926  36.552  28.485   2.736
27616W        W88927  21.248  25.594   4.670
27617W        W88928  23.233   6.207   1.394
27618W        W88929  31.402  31.421  13.527
27619W        W88930   6.822  20.075  14.942
27620W        W88931   9.395   9.211  11.010
27621W        W88932  42.859   6.220   1.299
27622W        W88933  15.803  35.899   0.943
27623W        W88934  31.083  25.103   2.382
27624W        W88935   6.729   5.296   4.717
27625W        W88936   6.848   6.330  11.925
27626W        W88937  15.645  18.715  13.341
27627W        W88938  41.302  38.559  11.973
27628W        W88939  21.704  34.375   0.772
27629W        W88940  20.145  13.790  13.034
27630W        W88941  40.856  24.586  12.530
27631W        W88942  35.873  36.539  12.051
27632W        W88943  11.357  21.674   2.185
27633W        W88944  28.100  20.633   4.787
27634W        W88945  31.491  22.584   1.874
27635W        W88946  13.622  37.548  14.393
27636W        W88947  43.950  23.693   2.901
27637W        W88948  43.832  19.609   1.419
27638W        W88949  11.803   0.844  11.123
27639W        W88950   5.727  31.082  10.969
27640W        W88951  28.169  41.318  14.961
27641W        W88952  34.505  21.182  12.429
27642W        W88953  27.974  37.928  11.968
27643W        W88954  37.359   5.352   2.342
27644W        W88955  33.477  16.099  14.290
27645W        W88956   6.248  17.581  10.632
27646W        W88957  37.051  40.410   1.773
27647W        W88958  25.011   7.282  13.019
27648W        W88959  13.805  12.165   3.356
27649W        W88960  16.784  17.219   1.430
27650W        W88961  15.651  17.731   0.425
27651W        W88962  21.740   0.338  12.972
27652W        W88963  17.625  20.133   3.814
27653W        W88964   6.325  29.522   5.305
27654W        W88965  31.488  43.794  13.911
27655W        W88966   6.905   6.901  13.420
27656W        W88967  13.725  28.998  12.844
27657W        W88968  30.528  33.043   3.828
27658W        W88969  38.920   3.711   1.858
27659W        W88970  36.866  24.221   4.249
27660W        W88971  28.042  32.998  12.898
27661W        W88972  39.426  26.514  11.089
27662W        W88973  21.138  40.381   5.230
27663W        W88974  24.066  42.324  14.778
27664W        W88975  20.077  15.123   4.274
27665W        W88976  10.221  18.790   4.693
27666W        W88977  39.900   7.855   2.342
27667W        W88978  39.963   1.914   2.682
27668W        W88979   8.252  43.464   3.255
27669W        W88980  10.875  43.459  11.986
27670W        W88981  43.513  14.206   2.880
27671W        W88982  31.110   9.689  14.979
27672W        W88983  25.561  29.523   9.549
27673W        W88984  33.420  24.552  14.025
27674W        W88985  41.494  24.024  12.995
27675W        W88986  13.628  20.194  12.385
27676W        W88987  15.783  13.619   2.828
27677W        W88988  12.194  17.631   1.813
27678W        W88989  25.615  25.206   1.805
27679W        W88990  42.909   7.792  14.919
27680W        W88991  11.227  20.133  12.887
27681W        W88992  39.506  12.610   2.397
27682W        W88993  40.470  22.747  12.437
27683W        W88994  13.817  14.314  11.946
27684W        W88995   2.227  42.922   0.766
27685W        W88996  42.807  33.398  12.574
27686W        W88997  26.657  15.174  13.357
27687W        W88998   1.883  36.433  14.803
27688W        W88999   6.343  39.042   4.819
27689W        W89000  24.523  32.011  12.458
27690W        W89001  23.115   5.916   0.467
27691W        W89002   1.257  17.131   0.294
27692W        W89003  17.715  18.705   3.327
27693W        W89004  11.663  40.527  11.084
27694W        W89005   1.877   1.298  13.887
27695W        W89006  40.525  42.524   3.668
27696W        W89007  36.928  23.634   0.363
27697W        W89008  31.535  33.623   1.803
27698W        W89009  38.999  10.181   4.300
27699W        W89010  20.731  21.172  12.513
27700W        W89011  10.693  24.229  12.933
27701W        W89012  42.783  11.236   3.733
27702W        W89013  35.603  12.620  14.958
27703W        W89014   5.424  42.964   4.166
27704W        W89015  20.666  21.675   0.270
27705W        W89016  22.546  42.010  13.529
27706W        W89017  34.073   7.207   4.641
27707W        W89018  38.017   1.320  14.420
27708W        W89019   2.397  38.050   0.250
27709W        W89020  30.435  30.443   1.378
27710W        W89021   5.368  19.122  12.944
27711W        W89022  25.069  43.281   4.805
27712W        W89023   1.278  39.393   0.873
27713W        W89024  24.076  43.826  13.956
27714W        W89025  13.165   1.387  12.062
27715W        W89026   6.745   1.432   1.916
27716W        W89027  33.617   3.934   3.183
27717W        W89028  41.321  27.637  13.035
27718W        W89029  32.131  19.740   3.222
27719W        W89030  36.519  20.603   1.315
27720W        W89031   2.727  41.354  10.925
27721W        W89032  11.830  32.467   2.317
27722W        W89033  44.913  42.814   4.258
27723W        W89034  22.035   8.186   2.886
27724W        W89035  33.032  19.148  12.830
27725W        W89036  31.466  19.561   2.299
27726W        W89037   9.826  40.542  12.854
27727W        W89038  11.334   2.286   0.477
27728W        W89039  16.192   0.928  11.436
27729W        W89040  39.822  33.999  10.991
27730W        W89041  38.421  41.359   3.371
27731W        W89042   3.935  30.909   4.642
27732W        W89043  13.128  32.902  10.602
27733W        W89044  22.252  39.889   3.343
27734W        W89045  34.028   9.786   3.306
27735W        W89046  40.336  42.924   5.200
27736W        W89047  21.250  12.241  12.825
27737W        W89048  32.905  44.840  14.006
27738W        W89049  30.063   1.236  12.417
27739W        W89050  31.521  31.058   3.236
27740W        W89051   9.337  19.668  12.984
27741W        W89052  43.764  24.011   0.965
27742W        W89053  18.706  25.525  10.121
27743W        W89054  20.244   9.822  11.894
27744W        W89055  39.995  11.693  12.905
27745W        W89056  30.156  31.573   1.224
27746W        W89057   4.761  35.588   2.787
27747W        W89058   5.906   7.288  11.053
27748W        W89059  34.386   7.403  11.065
27749W        W89060  38.436  15.737   4.665
27750W        W89061  22.214  26.474   4.273
27751W        W89062  29.654  11.850  13.922
27752W        W89063  22.688  35.548   1.418
27753W        W89064  21.718  40.050  12.522
27754W        W89065  33.590  22.075   1.429
27755W        W89066  32.417  29.600   4.626
27756W        W89067   0.937  31.127  13.950
27757W        W89068  33.983  31.566   2.229
27758W        W89069  29.084  13.637   0.292
27759W        W89070  35.098   7.381   2.375
27760W        W89071  17.772  20.232   2.776
27761W        W89072  13.649  43.513  11.898
27762W        W89073  31.466  12.851   1.749
27763W        W89074  24.710  42.938  12.355
27764W        W89075  43.840  17.643   3.845
27765W        W89076  31.136  42.862  11.497
27766W        W89077   8.849  24.146   3.713
27767W        W89078  25.707   2.438   3.833
27768W        W89079  36.543  40.332   2.344
27769W        W89080   7.829  31.094   4.134
27770W        W89081  29.081  36.540   4.260
27771W        W89082  16.612  37.072  13.850
27772W        W89083  14.678   1.952  11.443
27773W        W89084  44.842  27.190  12.993
27774W        W89085  24.020  13.273  14.411
27775W        W89086  13.700  28.077  10.913
27776W        W89087  28.521  40.501  10.001
27777W        W89088  21.552  21.207  14.890
27778W        W89089  22.722  34.900   2.377
27779W        W89090  41.808   7.665   3.687
27780W        W89091   0.934  38.993   4.319
27781W        W89092  30.978  39.323   1.220
27782W        W89093  19.738  32.065  13.540
27783W        W89094   7.742   9.353  11.895
27784W        W89095  29.529  44.931  11.055
27785W        W89096   7.824  15.578   5.577
27786W        W89097  26.689  26.094  12.402
27787W        W89098  40.367   3.939   1.298
27788W        W89099  34.492  23.567  11.376
27789W        W89100  17.121  34.537  10.037
27790W        W89101   9.361   4.855   1.374
27791W        W89102  22.598  25.029   4.196
27792W        W89103  23.555  31.045  12.837
27793W        W89104  28.172  32.050   2.759
27794W        W89105   2.942  41.981   1.314
27795W        W89106  10.849   6.765  10.434
27796W        W89107  15.702  13.661   3.753
27797W        W89108  24.170  31.941  13.800
27798W        W89109  25.548  21.546   4.321
27799W        W89110   3.935  27.007  12.563
27800W        W89111  35.852  38.342  13.466
27801W        W89112   4.332  26.055   3.363
27802W        W89113  15.323  41.351  11.930
27803W        W89114  44.920  36.419  14.430
27804W        W89115  17.603  21.585   3.744
27805W        W89116  12.775  42.481  11.945
27806W        W89117  40.950  16.773  13.371
27807W        W89118  20.044  20.605   0.937
27808W        W89119  25.685  21.197  11.397
27809W        W89120  15.234  25.127   3.344
27810W        W89121  31.116   3.952   3.650
27811W        W89122  38.869  37.069   4.269
27812W        W89123  37.063  21.204   2.859
27813W        W89124   4.805  22.179   4.702
27814W        W89125  32.423   3.901   4.821
27815W        W89126  34.075   3.242  13.464
27816W        W89127  11.622  25.508   5.785
27817W        W89128   0.988  36.498  12.831
27818W        W89129  24.160  15.669   1.341
27819W        W89130  34.932  14.770   4.781
27820W        W89131   2.380  41.322  11.592
27821W        W89132  25.633   9.247   1.889
27822W        W89133   0.956  13.204  10.561
27823W        W89134  23.651  32.027  14.793
27824W        W89135  41.429  37.554   0.849
27825W        W89136  21.727  42.016  12.974
27826W        W89137   7.843  17.620   0.846
27827W        W89138   4.881  14.332  13.943
27828W        W89139  25.485  19.170   2.213
27829W        W89140   6.681  39.533   4.678
27830W        W89141  38.035  28.530   1.283
27831W        W89142  15.646  38.474   4.165
27832W        W89143  26.014  31.464  12.062
27833W        W89144  40.397   8.300   4.827
27834W        W89145  18.759   8.287  14.931
27835W        W89146  19.722  41.864   3.354
27836W        W89147  29.573  28.058  10.639
27837W        W89148   9.300  14.100  12.480
27838W        W89149  15.685   6.788  12.049
27839W        W89150  43.808  20.549   4.623
27840W        W89151  10.838  12.289   3.345
27841W        W89152  19.122  29.564  13.986
27842W        W89153  19.190   3.868  14.463
27843W        W89154  28.558  17.237   0.433
27844W        W89155  14.144  26.456  13.945
27845W        W89156  17.580  14.149  14.993
27846W        W89157  41.333  20.253  11.028
27847W        W89158  40.322   7.383   0.316
27848W        W89159  43.807   5.726  11.610
27849W        W89160   1.451  17.278  12.979
27850W        W89161  37.964  25.087   0.346
27851W        W89162  11.258  24.190  13.863
27852W        W89163  41.925  38.963   0.445
27853W        W89164  11.307  20.219  10.496
27854W        W89165   7.763   2.902   0.782
27855W        W89166  26.638  40.549   1.283
27856W        W89167  28.471  42.509  13.916
27857W        W89168  12.688  38.046  10.618
27858W        W89169  41.943  29.621   0.878
27859W        W89170   3.913   6.404  12.955
27860W        W89171  36.090  11.335  12.372
27861W        W89172  18.108  28.024   0.312
27862W        W89173  17.288   5.826  14.001
27863W        W89174  17.159  18.061   0.468
27864W        W89175  23.162   4.339   0.846
27865W        W89176  16.670  20.549  12.507
27866W        W89177  13.667   1.379   4.252
27867W        W89178  33.592  32.502  11.955
27868W        W89179  13.747   4.806   0.957
27869W        W89180  18.639  17.274   2.228
27870W        W89181  14.689  14.648   3.667
27871W        W89182  17.223  10.281  10.568
27872W        W89183  29.463   4.324   0.950
27873W        W89184  38.379  42.893  11.532
27874W        W89185  27.680  31.482  10.936
27875W        W89186  12.757  22.014  12.531
27876W        W89187  36.447  20.107   1.834
27877W        W89188   2.467  23.122  11.018
27878W        W89189  39.860   5.811   3.262
27879W        W89190  13.802   6.731   0.308
27880W        W89191  24.714   9.200   2.707
27881W        W89192  33.989  30.064   2.870
27882W        W89193  34.061   0.823  11.605
27883W        W89194  43.942  18.567  13.406
27884W        W89195  32.997  24.209  10.599
27885W        W89196  15.701   1.890  13.895
27886W        W89197   3.885  32.449   2.800
27887W        W89198  10.802  17.222   0.917
27888W        W89199  19.598  44.815  12.406
27889W        W89200  22.077  12.156   2.211
27890W        W89201  23.044  33.500  11.891
27891W        W89202  36.407   8.204  14.907
27892W        W89203  24.582  38.935  10.007
27893W        W89204  44.857  23.104   3.246
27894W        W89205  24.230  27.686   4.675
27895W        W89206  40.347  11.258   4.286
27896W        W89207   0.329   3.396  14.997
27897W        W89208  18.581   0.486  10.504
27898W        W89209  29.478   2.426   2.257
27899W        W89210  40.473  15.144   0.437
27900W        W89211   8.293   4.408   0.809
27901W        W89212   0.274   2.351   0.393
27902W        W89213  20.592  37.446   2.788
27903W        W89214  39.060  23.657   2.203
27904W        W89215  32.950  29.947   2.870
27905W        W89216   5.831   2.421  13.312
27906W        W89217  17.188  27.054   1.404
27907W        W89218  33.470   6.917  11.056
27908W        W89219  18.095  15.622  12.008
27909W        W89220   8.189   1.865  10.513
27910W        W89221   2.349  26.016   2.182
27911W        W89222  37.537  13.268   3.182
27912W        W89223   7.761  42.381  10.616
27913W        W89224  18.137  17.240   1.832
27914W        W89225  35.080   9.864   2.236
27915W        W89226  23.643  23.109   3.632
27916W        W89227   5.294  24.497   2.262
27917W        W89228  38.997  20.256  14.992
27918W        W89229  42.334  15.230   3.264
27919W        W89230  20.564   9.806  10.955
27920W        W89231   4.355  10.720  14.329
27921W        W89232  44.990  26.188   4.234
27922W        W89233  36.968  21.634  13.972
27923W        W89234   6.771  31.086  13.007
27924W        W89235  24.558  27.986   4.604
27925W        W89236  41.026  15.731  10.953
27926W        W89237  43.391  34.090  14.501
27927W        W89238  30.945  30.949  10.576
27928W        W89239  43.424   9.680  12.480
27929W        W89240  13.221   5.384  11.557
27930W        W89241  34.404  38.417  13.443
27931W        W89242   5.728  21.679  11.940
27932W        W89243  16.089  16.175  14.902
27933W        W89244   4.713  29.156  13.475
27934W        W89245  19.649  32.605   3.710
27935W        W89246  39.419  36.392   3.303
27936W        W89247  22.654  20.228   2.822
27937W        W89248  30.576   8.880   4.690
27938W        W89249  34.506  35.436   0.316
27939W        W89250  20.728  15.604   1.245
27940W        W89251  16.293   2.766  10.080
27941W        W89252  22.173  40.391   0.777
27942W        W89253  40.459  32.103   4.714
27943W        W89254   8.869  12.733  13.425
27944W        W89255  27.537  27.116   2.812
27945W        W89256  41.883  34.608   0.770
27946W        W89257  16.715   1.817   2.309
27947W        W89258  11.803  16.168   1.260
27948W        W89259  14.304  40.340  11.002
27949W        W89260  17.071  17.171   5.196
27950W        W89261  35.869  26.161   3.256
27951W        W89262  42.908   8.405  10.596
27952W        W89263   6.227   7.275  13.032
27953W        W89264  34.509  30.983   1.795
27954W        W89265  20.083  35.579   3.217
27955W        W89266  12.742   0.464   4.310
27956W        W89267  43.311  17.234   1.271
27957W        W89268   8.280  23.016  13.488
27958W        W89269  35.538  29.077   2.317
27959W        W89270   4.257  32.016  14.962
27960W        W89271   4.870  43.405   0.280
27961W        W89272  37.384  11.831  11.878
27962W        W89273  10.357  40.408  10.934
27963W        W89274  15.739  17.620  13.494
27964W        W89275  39.908  39.928   5.659
27965W        W89276  37.863  36.093  10.522
27966W        W89277   4.315  20.756   1.281
27967W        W89278  25.712   7.741   1.216
27968W        W89279  22.524  33.550  14.284
27969W        W89280  39.841  42.345   1.826
27970W        W89281  12.840  27.544   1.907
27971W        W89282  35.054  30.063   3.211
27972W        W89283   7.892  16.110  13.023
27973W        W89284  35.020   9.674   1.375
27974W        W89285  40.515  31.512   1.431
27975W        W89286  42.520  35.024   3.805
27976W        W89287   2.807  28.942  12.393
27977W        W89288  25.210  38.507   0.283
27978W        W89289   9.302  17.647  10.418
27979W        W89290  44.413   5.797  14.013
27980W        W89291   4.301   4.874   1.262
27981W        W89292  38.964  22.097   3.660
27982W        W89293   8.809  26.004  14.909
27983W        W89294  43.010   5.324   0.921
27984W        W89295  38.493  34.580   3.708
27985W        W89296  15.649  27.668  13.817
27986W        W89297   7.260   0.868  11.868
27987W        W89298   1.799  30.078   0.938
27988W        W89299  25.689  21.148   3.326
27989W        W89300  31.445  31.600   3.257
27990W        W89301  27.601   9.249   4.777
27991W        W89302  38.028   4.717   3.321
27992W        W89303  22.165  32.899   0.435
27993W        W89304  13.803   0.395  11.589
27994W        W89305  32.059  44.892   4.673
27995W        W89306  31.004   0.808   0.383
27996W        W89307  42.880   7.256  14.354
27997W        W89308  30.018  39.048   4.149
27998W        W89309  29.011  28.017   3.156
27999W        W89310  27.122  19.566   0.909
28000W        W89311  15.677  41.996  12.993
28001W        W89312  20.212  16.667  12.462
28002W        W89313  20.095   4.234   3.669
28003W        W89314   2.768  17.142   0.400
28004W        W89315  32.553  16.682   1.264
28005W        W89316  43.470  29.481   2.364
28006W        W89317   1.389  32.630  13.407
28007W        W89318  31.420   3.248   1.372
28008W        W89319  28.947  25.154   0.828
28009W        W89320   5.295  20.160  10.615
28010W        W89321  22.198  35.871  10.075
28011W        W89322   2.888  38.865  12.516
28012W        W89323  22.192  18.160  13.460
28013W        W89324   0.984  41.854   0.749
28014W        W89325  44.463  44.836  12.827
28015W        W89326  20.721  39.385  13.324
28016W        W89327  22.173  33.391  13.964
28017W        W89328  33.129   2.335   1.722
28018W        W89329  29.985  43.377   2.417
28019W        W89330  29.090  10.364  12.401
28020W        W89331  36.479  15.716   1.388
28021W        W89332  28.999  13.257   3.864
28022W        W89333  22.579  43.393  11.102
28023W        W89334   8.235  13.717  13.966
28024W        W89335  26.989   8.891  13.307
28025W        W89336  32.480  15.771   2.204
28026W        W89337  42.988   0.257   1.417
28027W        W89338  44.400  18.723  12.016
28028W        W89339  27.950  37.389   0.312
28029W        W89340  21.109  15.230   4.144
28030W        W89341   7.172  42.793  10.537
28031W        W89342  24.540   9.792   3.645
28032W        W89343  16.698  29.932  12.016
28033W        W89344  11.308   2.871  14.474
28034W        W89345  24.587   2.883   2.246
28035W        W89346  18.084  41.421  13.461
28036W        W89347   7.388  15.126  12.502
28037W        W89348  32.888  33.384   1.713
28038W        W89349  39.062  31.140  11.549
28039W        W89350  32.511  21.559  10.921
28040W        W89351  12.133  23.594  14.502
28041W        W89352  36.438  14.598   4.315
28042W        W89353   8.876  27.998   0.898
28043W        W89354  25.600  34.926  14.513
28044W        W89355  21.073  43.464   0.474
28045W        W89356  38.557  15.663  10.431
28046W        W89357  41.944  40.542  11.037
28047W        W89358  31.136  13.801  11.004
28048W        W89359  30.983  16.127   0.732
28049W        W89360   9.731  33.976   2.359
28050W        W89361  19.102  22.511  12.412
28051W        W89362   6.368  30.496   3.697
28052W        W89363  16.095  43.011   1.273
28053W        W89364   9.220   7.791   1.717
28054W        W89365  24.700  38.935  11.954
28055W        W89366  16.192   3.858  11.591
28056W        W89367  14.220   5.908  13.880
28057W        W89368  27.602  34.568   2.215
28058W        W89369  34.572  33.943  13.342
28059W        W89370  42.884  22.527   2.195
28060W        W89371  28.629  43.876  11.022
28061W        W89372  31.032  31.142  13.833
28062W        W89373  12.124  39.996  11.978
28063W        W89374   4.913   6.713  12.923
28064W        W89375  18.082  33.961  12.056
28065W        W89376  17.300   4.348   2.744
28066W        W89377  10.865   1.398  13.001
28067W        W89378  11.208  18.250  13.312
28068W        W89379   8.284  25.631  11.127
28069W        W89380  42.523  20.224   1.242
28070W        W89381  19.536   0.979  14.874
28071W        W89382  19.576  26.675   0.459
28072W        W89383  21.757   5.772  10.415
28073W        W89384  38.893  44.335   1.903
28074W        W89385   0.749  10.300   2.356
28075W        W89386   0.786   0.886   1.908
28076W        W89387  13.129  17.230  11.497
28077W        W89388   8.899  25.010   4.312
28078W        W89389  41.868  37.084   1.249
28079W        W89390   8.715  36.014   3.686
28080W        W89391  39.520  26.550  10.061
28081W        W89392  15.151  16.085  11.563
28082W        W89393  27.111  26.546  13.829
28083W        W89394  15.153   1.938  13.409
28084W        W89395  41.513  18.269  13.907
28085W        W89396  37.447  11.810  14.286
28086W        W89397  24.725  13.748  11.539
28087W        W89398  20.655  32.487   9.972
28088W        W89399  10.372  41.452   0.865
28089W        W89400  13.322  36.373  11.112
28090W        W89401  28.971   1.806   1.860
28091W        W89402   9.344  29.562  14.299
28092W        W89403  21.130   7.282  11.965
28093W        W89404  26.989  17.305  11.915
28094W        W89405  18.561   9.252  11.497
28095W        W89406  25.186  27.611  10.507
28096W        W89407  15.685  39.988   4.736
28097W        W89408  15.725  37.039   1.398
28098W        W89409  13.607  31.488   2.332
28099W        W89410  17.141  25.666   2.337
28100W        W89411   8.248  16.595   1.242
28101W        W89412  20.710  27.593   1.703
28102W        W89413  15.162  42.289  12.539
28103W        W89414  37.967  18.176   5.110
28104W        W89415   9.750  43.389  14.976
28105W        W89416  40.021  31.466   2.716
28106W        W89417  39.813  20.739   4.804
28107W        W89418  15.681  17.167   3.184
28108W        W89419   6.418  27.686   4.284
28109W        W89420  10.762  33.974   1.758
28110W        W89421   8.711  37.869  12.081
28111W        W89422  43.825  23.163  14.307
28112W        W89423  19.576  18.585  10.509
28113W        W89424  39.925   5.919  10.565
28114W        W89425  41.513  34.895   2.900
28115W        W89426  11.365  16.726  13.524
28116W        W89427  24.505  28.096   0.883
28117W        W89428  21.224  19.563  11.455
28118W        W89429  18.596  27.951  13.421
28119W        W89430  29.989  31.021  14.780
28120W        W89431  40.548  30.021   3.265
28121W        W89432  25.125  21.105   2.372
28122W        W89433   4.210   7.328  10.935
28123W        W89434  27.020  15.625  11.371
28124W        W89435  35.359  38.041   5.316
28125W        W89436  18.079  30.513  13.888
28126W        W89437  42.931  33.951   3.260
28127W        W89438  21.744  14.292  13.062
28128W        W89439  12.239  11.252   0.908
28129W        W89440   3.292  41.022  10.945
28130W        W89441  19.264  15.274   2.718
28131W        W89442   0.894   2.770   2.698
28132W        W89443   9.190  19.199   1.880
28133W        W89444   4.381   0.829   3.788
28134W        W89445  36.080  31.140   2.841
28135W        W89446  25.175  35.960   3.339
28136W        W89447  33.459  13.194  11.864
28137W        W89448   6.753  13.608   2.394
28138W        W89449   0.443  15.098   3.750
28139W        W89450  21.652   1.295  14.873
28140W        W89451  12.611  18.548  10.570
28141W        W89452  23.650  18.224  14.411
28142W        W89453  36.083  21.184  14.417
28143W        W89454   4.909  10.822  10.490
28144W        W89455  38.352   4.826  11.918
28145W        W89456  18.296  28.522  11.908
28146W        W89457   9.661   6.722   1.932
28147W        W89458   1.876   7.199   2.207
28148W        W89459   5.204  27.454   0.796
28149W        W89460  33.411  38.485  12.911
28150W        W89461   1.787  35.930  11.953
28151W        W89462  43.379   6.905  11.949
28152W        W89463  36.534   1.946  13.528
28153W        W89464  12.268  42.488  11.382
28154W        W89465  14.828  43.875  13.988
28155W        W89466  33.900  26.547  11.553
28156W        W89467  17.705  18.183   4.734
28157W        W89468  43.909  28.550   3.798
28158W        W89469   7.733   9.797   4.810
28159W        W89470  11.156  28.936   0.401
28160W        W89471  43.896  27.605  13.316
28161W        W89472  44.369   6.827  13.029
28162W        W89473  12.769  27.009   5.097
28163W        W89474  26.994  25.511  12.076
28164W        W89475  43.866  11.733  11.101
28165W        W89476   4.359  23.560  13.866
28166W        W89477  38.569  34.920  14.358
28167W        W89478  24.215  22.701  12.557
28168W        W89479  37.367  30.993   2.371
28169W        W89480   4.428  16.198   1.314
28170W        W89481  37.087   9.844  12.404
28171W        W89482  35.528  15.199  13.895
28172W        W89483  24.063  40.040  12.555
28173W        W89484  34.962  41.479  12.345
28174W        W89485   1.472   4.370  13.840
28175W        W89486  43.412   8.745   3.806
28176W        W89487  33.537  30.052  14.425
28177W        W89488  37.993  28.015   4.661
28178W        W89489  15.137   2.309  13.989
28179W        W89490   3.833  25.083   3.712
28180W        W89491  20.747  13.836   1.782
28181W        W89492  20.263  17.198  13.056
28182W        W89493  43.279  27.018   2.825
28183W        W89494  23.660  23.013   0.449
28184W        W89495  31.992  38.353   2.840
28185W        W89496  44.896  36.476  10.447
28186W        W89497  18.583  25.038   3.248
28187W        W89498  13.186   8.659   2.818
28188W        W89499  14.274   7.676   1.822
28189W        W89500   2.885  33.535  13.911
28190W        W89501  44.389  34.071   3.783
28191W        W89502   5.805  40.932   2.404
28192W        W89503  25.217  13.166   0.329
28193W        W89504  19.086  25.008   2.835
28194W        W89505  13.163  26.010  10.948
28195W        W89506  34.897  33.941  10.599
28196W        W89507  11.213  24.211  14.297
28197W        W89508  13.665   8.756   1.384
28198W        W89509   4.343  39.334  10.944
28199W        W89510  13.107  34.530  14.295
28200W        W89511  38.423   9.223  13.914
28201W        W89512  29.540  15.821   4.115
28202W        W89513  23.540   8.354  10.637
28203W        W89514  14.271  29.064   0.752
28204W        W89515  28.664   8.679   4.155
28205W        W89516   4.883  18.218  10.494
28206W        W89517   6.239  20.092  12.053
28207W        W89518   5.256  20.639  10.496
28208W        W89519   6.314  19.164  11.478
28209W        W89520  39.490  32.996   0.935
28210W        W89521  14.765  41.861   2.684
28211W        W89522  40.958   1.812  13.812
28212W        W89523  11.229   9.814   1.708
28213W        W89524  42.823  36.552  10.451
28214W        W89525   0.825  35.427   4.644
28215W        W89526   1.870  33.589   2.387
28216W        W89527  15.230  32.084  12.408
28217W        W89528  17.092  22.151   4.316
28218W        W89529  31.994  41.981  12.366
28219W        W89530  33.387  16.135   3.711
28220W        W89531   3.923  35.398  10.509
28221W        W89532  34.543  44.856   2.724
28222W        W89533  21.549   8.284  14.307
28223W        W89534  42.837  16.793   1.894
28224W        W89535  41.349   3.388   3.865
28225W        W89536  18.580   1.866   0.244
28226W        W89537  38.519  35.489   4.231
28227W        W89538  20.758  19.229  12.399
28228W        W89539  15.102  28.678  10.551
28229W        W89540   9.259  13.295   4.156
28230W        W89541  23.016  22.019  12.467
28231W        W89542  41.973  20.113   2.797
28232W        W89543  22.172  41.902   0.727
28233W        W89544   8.297  23.490   4.786
28234W        W89545  14.233  28.946  11.440
28235W        W89546  18.100   7.694   1.311
28236W        W89547  17.261  20.158   2.675
28237W        W89548  29.157  16.280   4.638
28238W        W89549   2.871   0.291   0.437
28239W        W89550  25.009  23.240   2.213
28240W        W89551  11.649  18.686  10.616
28241W        W89552  41.373  34.589   4.350
28242W        W89553  18.163  21.178   4.652
28243W        W89554  19.665  29.974  14.029
28244W        W89555  29.670  42.424  12.534
28245W        W89556  11.771  17.187   3.266
28246W        W89557  37.973  21.242   1.274
28247W        W89558   0.949  24.985  10.930
28248W        W89559   7.875   4.839  11.054
28249W        W89560   9.728   2.354  10.891
28250W        W89561  11.787  13.679   4.277
28251W        W89562  28.474  42.782  14.885
28252W        W89563  32.490  41.036   2.774
28253W        W89564  44.800   9.643  13.931
28254W        W89565   7.852  26.192   1.269
28255W        W89566  15.714  28.485   4.621
28256W        W89567  10.792   7.308   4.338
28257W        W89568  44.385  35.569  10.511
28258W        W89569   2.307  21.541  14.332
28259W        W89570   2.852  33.598  14.998
28260W        W89571  15.208  35.384  12.511
28261W        W89572  12.138  43.306   4.614
28262W        W89573   7.251  39.013   9.976
28263W        W89574   0.837   1.263   4.599
28264W        W89575  29.033  29.124   3.238
28265W        W89576  34.997  17.676   4.115
28266W        W89577  36.094   5.699  11.967
28267W        W89578   2.375  21.062   2.794
28268W        W89579  19.538  28.005   3.284
28269W        W89580  25.988  41.356   4.809
28270W        W89581  27.673  20.192   4.177
28271W        W89582  12.796  44.260   0.803
28272W        W89583  16.629  24.191   9.499
28273W        W89584  28.084  15.115  11.479
28274W        W89585   1.914   9.159  12.965
28275W        W89586  22.529  44.998  12.967
28276W        W89587  39.365  18.588   3.173
28277W        W89588  35.926   4.722   2.875
28278W        W89589  25.658  31.077   4.641
28279W        W89590   2.261   1.967  12.379
28280W        W89591  38.069  22.524   4.179
28281W        W89592   5.688  25.962   1.360
28282W        W89593   2.400  17.088  10.458
28283W        W89594   3.912  28.949   2.307
28284W        W89595   5.856  38.032   3.285
28285W        W89596  10.721  39.859   4.682
28286W        W89597  31.547  13.144   1.439
28287W        W89598  27.501  13.239   1.906
28288W        W89599  10.197  16.601  10.889
28289W        W89600  14.320  24.495   1.404
28290W        W89601  21.753  14.589  13.853
28291W        W89602  28.540  32.510   4.730
28292W        W89603  30.999  11.273   1.929
28293W        W89604  16.641   8.850   4.618
28294W        W89605   7.208  35.420  13.362
28295W        W89606  44.385  29.604   0.804
28296W        W89607  26.555  23.634   4.194
28297W        W89608  35.040   9.325   2.787
28298W        W89609  32.126   4.424  13.499
28299W        W89610   7.370   8.787  10.412
28300W        W89611  33.121  30.069   1.360
28301W        W89612   3.439   4.825  11.040
28302W        W89613  40.496  28.507   4.678
28303W        W89614  23.073   4.850   4.300
28304W        W89615  44.474   2.371   4.166
28305W        W89616   5.392  23.230   4.731
28306W        W89617  13.778  21.129   1.771
28307W        W89618  14.163  40.962   1.397
28308W        W89619   8.194  14.324  14.495
28309W        W89620  13.663   8.242   0.836
28310W        W89621  23.208   6.409  11.608
28311W        W89622  25.151   5.279   3.812
28312W        W89623  25.165   4.273  11.380
28313W        W89624  14.167  15.655   4.224
28314W        W89625  44.823  27.688   2.284
28315W        W89626  10.818  33.123   0.950
28316W        W89627   8.855  17.130  14.852
28317W        W89628   8.866   6.294   5.099
28318W        W89629  18.158  41.040  11.967
28319W        W89630  13.772  17.227   3.788
28320W        W89631   1.315  31.412  14.426
28321W        W89632  23.018   5.834  11.881
28322W        W89633  29.440  26.180   2.873
28323W        W89634  40.910  19.258  11.373
28324W        W89635  16.809  21.076  12.392
28325W        W89636   5.217  23.585   3.201
28326W        W89637  11.204  33.976   3.684
28327W        W89638  11.154  43.961   0.309
28328W        W89639  25.121   2.756  11.075
28329W        W89640  43.805   5.709  14.826
28330W        W89641  39.495  22.089   1.443
28331W        W89642  30.078  32.951   4.663
28332W        W89643  36.894  15.667  12.833
28333W        W89644   2.344   3.350  10.063
28334W        W89645  28.508  29.447   4.276
28335W        W89646  14.629  24.658   2.193
28336W        W89647  28.615  33.605  12.344
28337W        W89648  43.828   4.921  11.023
28338W        W89649   6.693  33.482   3.345
28339W        W89650  11.805  39.928   4.835
28340W        W89651  37.362  24.171  12.347
28341W        W89652  23.534  18.547  14.814
28342W        W89653  44.929  43.460   4.731
28343W        W89654   4.211  41.371   1.383
28344W        W89655  39.429  23.084   4.316
28345W        W89656  15.267   6.343  13.460
28346W        W89657   6.259  13.161  11.116
28347W        W89658  42.292  44.501   3.358
28348W        W89659   4.431   9.366  11.929
28349W        W89660   6.678  41.855   4.605
28350W        W89661   3.416  14.628   1.401
28351W        W89662   7.304   9.887  13.944
28352W        W89663   9.216  30.084   4.753
28353W        W89664  15.141  17.147  13.839
28354W        W89665  33.456  20.656  12.069
28355W        W89666  17.743  25.113   1.707
28356W        W89667  22.047  32.620  13.453
28357W        W89668  22.075  40.322   2.897
28358W        W89669  17.757  44.956   1.353
28359W        W89670  17.291   3.396   3.375
28360W        W89671  37.981   5.196  12.948
28361W        W89672  17.234  29.495   1.364
28362W        W89673   8.885   0.913   3.286
28363W        W89674  10.370   5.751  14.417
28364W        W89675   5.375  11.855  13.489
28365W        W89676   2.430  33.402  10.639
28366W        W89677  19.123  10.844  10.943
28367W        W89678  18.296  28.618  12.450
28368W        W89679   1.873  17.273   2.844
28369W        W89680  38.959  11.836   3.324
28370W        W89681  20.147  25.158   1.428
28371W        W89682   7.341  29.926  14.378
28372W        W89683  30.923  30.038  12.048
28373W        W89684  32.946  35.403   0.461
28374W        W89685  41.439   6.884  11.464
28375W        W89686  42.487  44.970  10.935
28376W        W89687  13.695  44.954   1.934
28377W        W89688  16.770  11.341  14.767
28378W        W89689  20.532  30.511   0.466
28379W        W89690   8.873  34.539  13.862
28380W        W89691  41.018   0.743  10.601
28381W        W89692  43.846  38.960  14.469
28382W        W89693  39.370  37.349   0.438
28383W        W89694  23.525  15.146  11.391
28384W        W89695  12.123  19.591  12.397
28385W        W89696  19.592  37.433  11.028
28386W        W89697  36.545  17.745   2.866
28387W        W89698  37.881  43.906   2.821
28388W        W89699  18.089  42.994   2.374
28389W        W89700   1.458   5.252   1.410
28390W        W89701   5.783  26.576  11.484
28391W        W89702  31.896  38.933  12.453
28392W        W89703  42.907   0.490  14.381
28393W        W89704  44.793  32.937  10.438
28394W        W89705  19.183   7.188  13.332
28395W        W89706  39.393  44.334  10.462
28396W        W89707   2.470  29.018  13.854
28397W        W89708  31.065   9.771   4.790
28398W        W89709  34.467  29.555   3.808
28399W        W89710  11.332  40.432   4.769
28400W        W89711   9.328  36.912  12.530
28401W        W89712  24.514  42.813  10.635
28402W        W89713  13.601  36.935   3.665
28403W        W89714  42.006   0.319   4.319
28404W        W89715   2.231  36.391   2.401
28405W        W89716   5.198  34.593  10.559
28406W        W89717   8.825  25.595  14.860
28407W        W89718  30.571  29.087   0.323
28408W        W89719  21.017  38.959   3.811
28409W        W89720  18.718  44.971  12.510
28410W        W89721  29.947  17.183  10.572
28411W        W89722   6.703  37.432   3.699
28412W        W89723   0.308  43.367  12.534
28413W        W89724  32.108   9.168  11.611
28414W        W89725  30.518   4.702   3.248
28415W        W89726  30.976  34.384   2.694
28416W        W89727  25.216  16.757   1.898
28417W        W89728  40.972   4.819  13.916
28418W        W89729   6.393  29.125  12.966
28419W        W89730  33.488  12.838   4.333
28420W        W89731   9.358  23.105   1.330
28421W        W89732  27.049  32.428  12.960
28422W        W89733  23.163  36.011   4.821
28423W        W89734  30.528  12.646   0.775
28424W        W89735  43.430  13.780   1.728
28425W        W89736   4.218   5.395   1.891
28426W        W89737   6.264  16.736  11.452
28427W        W89738   9.669   4.336  11.593
28428W        W89739  44.756  17.122   4.804
28429W        W89740  22.071  22.646  12.851
28430W        W89741  28.131  23.491   0.948
28431W        W89742  28.450  32.957   0.456
28432W        W89743  43.388  33.546   3.861
28433W        W89744  39.501   2.423  14.807
28434W        W89745  38.039  14.286   1.828
28435W        W89746  31.046  11.155  12.829
28436W        W89747  19.643  21.033  11.399
28437W        W89748   0.325  32.984  10.934
28438W        W89749  20.601  36.061   2.275
28439W        W89750  41.390  41.456  11.606
28440W        W89751  18.054  38.894   3.178
28441W        W89752  40.502  34.535   1.245
28442W        W89753  18.254  11.836   0.301
28443W        W89754  28.577  38.431  12.052
28444W        W89755  40.910   1.959  14.446
28445W        W89756  40.333  42.917   0.242
28446W        W89757  43.497  25.212   2.237
28447W        W89758  30.462  26.116   3.850
28448W        W89759   1.449  13.761  11.979
28449W        W89760  15.276   1.940  14.477
28450W        W89761  40.422   4.748  12.972
28451W        W89762   5.803  29.166   1.805
28452W        W89763  11.785  31.585  13.009
28453W        W89764   7.878  11.371   3.252
28454W        W89765  16.085  34.886   2.775
28455W        W89766  28.498  22.546   1.890
28456W        W89767   8.795  32.565   1.793
28457W        W89768   1.299   8.882  10.413
28458W        W89769  27.954  20.275  12.473
28459W        W89770  44.332  14.273  14.454
28460W        W89771  44.855  24.017   0.737
28461W        W89772  40.433  20.523  12.468
28462W        W89773  29.490  13.110  12.492
28463W        W89774  35.451  39.397   9.652
28464W        W89775  32.549   7.303  13.338
28465W        W89776   5.360  26.482   4.347
28466W        W89777   8.237   2.457   2.694
28467W        W89778  18.740  16.685   1.734
28468W        W89779   4.834  34.922  14.317
28469W        W89780   5.760  27.608  14.436
28470W        W89781  36.958   4.385   0.786
28471W        W89782  37.375  39.990  14.915
28472W        W89783  26.652  36.887   0.958
28473W        W89784  29.134  25.981   1.238
28474W        W89785  41.346  28.489   3.307
28475W        W89786  10.755   5.351  12.474
28476W        W89787  21.667  38.463   4.337
28477W        W89788  38.452   0.309  13.310
28478W        W89789  43.350  40.950   4.167
28479W        W89790  13.320   5.777  10.637
28480W        W89791  17.125  39.810  10.501
28481W        W89792  42.459  12.310  12.580
28482W        W89793   7.755   2.467   3.242
28483W        W89794  18.165  32.626   4.829
28484W        W89795  20.195  38.382   4.699
28485W        W89796   4.338  12.204   2.720
28486W        W89797  38.377  34.536  14.878
28487W        W89798  15.804   1.901   9.959
28488W        W89799  19.734  25.497   1.322
28489W        W89800  29.457   4.379  14.505
28490W        W89801  30.418  43.395  13.459
28491W        W89802  39.926  27.149  10.949
28492W        W89803  38.990  21.579  11.056
28493W        W89804  17.660  27.637  11.045
28494W        W89805  21.563  42.799   1.782
28495W        W89806  38.441  30.472  14.939
28496W        W89807  31.963   7.715   1.895
28497W        W89808  30.492  22.195  12.978
28498W        W89809   3.287  27.456  12.968
28499W        W89810  30.556  16.084   2.664
28500W        W89811  17.101  28.675   2.718
28501W        W89812  15.183  21.054   1.377
28502W        W89813  40.421   8.792   9.924
28503W        W89814  26.648   5.315   1.348
28504W        W89815   4.264  21.626  13.467
28505W        W89816  16.270  30.951   0.770
28506W        W89817  20.673  10.659   3.770
28507W        W89818  32.111  29.650   0.290
28508W        W89819   5.934  30.570  13.861
28509W        W89820   0.356  42.352   4.152
28510W        W89821  28.602  33.074   3.823
28511W        W89822  10.667   9.652  14.419
28512W        W89823  15.143  42.897  11.522
28513W        W89824  15.773  12.773   1.828
28514W        W89825   4.941   6.248   4.140
28515W        W89826   0.426  20.244   0.736
28516W        W89827  22.618  35.887   2.852
28517W        W89828  25.055  34.103  13.803
28518W        W89829  13.296   2.432  12.344
28519W        W89830  27.974  33.044   0.463
28520W        W89831  22.048   6.737   4.749
28521W        W89832   1.324   2.339  12.517
28522W        W89833  40.381  38.061  13.532
28523W        W89834  37.417  10.270   2.773
28524W        W89835   2.323  27.023  12.442
28525W        W89836  42.824   0.965   0.897
28526W        W89837   4.705   3.902   0.919
28527W        W89838  26.045   0.273  13.882
28528W        W89839   7.257  11.266  13.423
28529W        W89840  28.445  24.978   3.257
28530W        W89841   6.895  10.636   2.690
28531W        W89842  24.700  23.582  13.947
28532W        W89843  22.517  27.582  12.007
28533W        W89844  25.532   8.808  14.306
28534W        W89845   5.430  21.655  13.490
28535W        W89846  19.737  25.666   4.195
28536W        W89847   9.655  42.943   3.345
28537W        W89848  39.394  17.166  11.038
28538W        W89849  34.487  30.584   2.248
28539W        W89850  14.634   1.798  12.347
28540W        W89851  36.584  26.183   4.328
28541W        W89852  43.876  29.993  11.912
28542W        W89853  11.650  40.973  10.410
28543W        W89854  39.318   3.324   0.866
28544W        W89855  14.138   9.184   4.270
28545W        W89856  13.152  16.635   4.826
28546W        W89857  13.733  15.118  13.326
28547W        W89858  42.465  39.925   2.220
28548W        W89859  25.514  14.103   3.178
28549W        W89860  20.671  19.685   0.422
28550W        W89861  44.003  39.846  11.557
28551W        W89862  10.797  44.437  11.603
28552W        W89863  18.729  10.657  11.060
28553W        W89864  27.067  13.344  14.480
28554W        W89865  25.077  43.270  13.329
28555W        W89866  32.592  16.759   3.636
28556W        W89867  25.120  38.448   2.313
28557W        W89868   4.243  19.171  12.934
28558W        W89869  16.263  44.392  11.581
28559W        W89870   6.203  20.167  12.909
28560W        W89871  35.407  44.008   2.804
28561W        W89872  29.599  42.032   1.743
28562W        W89873  42.386  30.499   1.748
28563W        W89874  34.537  21.625  12.961
28564W        W89875  17.299  19.749   0.267
28565W        W89876  43.837  32.074   0.938
28566W        W89877  33.017   4.811  14.828
28567W        W89878  44.811   5.355  12.882
28568W        W89879  35.882  30.083   0.400
28569W        W89880  25.972  35.872  11.539
28570W        W89881   9.307  41.851  12.453
28571W        W89882  14.204   8.783   4.627
28572W        W89883   3.752  40.914   3.693
28573W        W89884   0.252  33.886   0.283
28574W        W89885  35.942  18.714  12.507
28575W        W89886   7.873  23.181   0.751
28576W        W89887  30.446  17.794   0.746
28577W        W89888   3.344  41.940  14.763
28578W        W89889  30.613  32.935  10.644
28579W        W89890  18.283  44.756   1.386
28580W        W89891  14.111  22.039   1.404
28581W        W89892  13.783  15.604   3.319
28582W        W89893   3.803   0.824   4.154
28583W        W89894  17.648   4.421  11.462
28584W        W89895  16.302   5.237   0.454
28585W        W89896  17.095  11.622  12.389
28586W        W89897  40.495   1.948   2.784
28587W        W89898   8.791   9.209   0.747
28588W        W89899  15.799  41.441   1.728
28589W        W89900  18.208  35.538   0.452
28590W        W89901   9.395  36.091   0.735
28591W        W89902  32.403   7.308  14.881
28592W        W89903  37.966  38.059  12.400
28593W        W89904  25.640  11.211   3.830
28594W        W89905  30.907  27.526  12.866
28595W        W89906   1.949  36.563   4.727
28596W        W89907   7.350  41.510  12.856
28597W        W89908   0.839  15.277  13.373
28598W        W89909  26.189  14.173  13.050
28599W        W89910  37.873  42.946  10.623
28600W        W89911  42.980  44.809   2.410
28601W        W89912  35.886  21.526   2.667
28602W        W89913  36.500  35.493   3.754
28603W        W89914  13.174  23.036  13.921
28604W        W89915  21.599  39.357   1.361
28605W        W89916  42.310   5.334  12.499
28606W        W89917  40.391  16.260   3.165
28607W        W89918  26.653  18.164  10.132
28608W        W89919   0.806  32.400   4.813
28609W        W89920  28.441  11.853   4.169
28610W        W89921  37.464  40.835   2.806
28611W        W89922  37.375  18.640   1.699
28612W        W89923  24.018  31.466   5.285
28613W        W89924  42.440  12.142  11.498
28614W        W89925  25.219  33.086  10.887
28615W        W89926   0.468  36.550  12.881
28616W        W89927   8.292  23.680  12.349
28617W        W89928  23.000  31.636  14.458
28618W        W89929   6.729  32.121   1.278
28619W        W89930  30.162   3.718  14.976
28620W        W89931  10.855  32.000  12.530
28621W        W89932  14.689  11.790   4.229
28622W        W89933  38.566  13.713   3.714
28623W        W89934  17.258  19.216  10.961
28624W        W89935  34.434  16.595   1.846
28625W        W89936   7.743  43.959   1.392
28626W        W89937  29.513  25.083  14.898
28627W        W89938  32.903  12.682   3.644
28628W        W89939  37.024  15.820  11.473
28629W        W89940  32.125  44.912   2.679
28630W        W89941   0.302  24.983  13.997
28631W        W89942  40.029  43.485   0.253
28632W        W89943  19.069  44.801  12.003
28633W        W89944  20.690  33.060   4.746
28634W        W89945  38.933  40.460  11.092
28635W        W89946   3.955  30.436  10.474
28636W        W89947  44.793  29.079  13.408
28637W        W89948   5.912  42.434   1.256
28638W        W89949  11.769   0.288  12.937
28639W        W89950  26.146  22.139   2.693
28640W        W89951  28.488  44.355   1.874
28641W        W89952  35.423  29.975   9.485
28642W        W89953  21.588  31.063   0.803
28643W        W89954  34.035  14.749   1.286
28644W        W89955  18.545  35.109  10.488
28645W        W89956  38.973  31.604  10.406
28646W        W89957  38.561   3.457  12.835
28647W        W89958  25.205  25.709  12.539
28648W        W89959   9.296   5.391  11.484
28649W        W89960   4.418  44.784  11.388
28650W        W89961   0.755  24.537  11.401
28651W        W89962  28.944   8.314  11.935
28652W        W89963  30.451  23.618  12.827
28653W        W89964   0.841  33.983  12.422
28654W        W89965  40.992   6.911   3.680
28655W        W89966  32.990   8.847  12.841
28656W        W89967  43.959   2.450   4.690
28657W        W89968  30.426   0.286  14.358
28658W        W89969  44.944   4.427  12.889
28659W        W89970  37.072  12.644   0.949
28660W        W89971  26.157  38.384  11.106
28661W        W89972   9.800  40.952   2.181
28662W        W89973  11.760  18.696   5.158
28663W        W89974  36.013  20.677  10.428
28664W        W89975   8.868  26.140   0.920
28665W        W89976  19.706   0.351   0.926
28666W        W89977   1.303   9.281   0.949
28667W        W89978  12.260  10.198  14.775
28668W        W89979  22.180   5.730   1.860
28669W        W89980  15.307  19.708   4.251
28670W        W89981  32.399  15.788  14.778
28671W        W89982  33.474  27.529   2.409
28672W        W89983  38.980  39.498   3.360
28673W        W89984  28.089  24.026  14.024
28674W        W89985  17.185  26.685  10.545
28675W        W89986  32.438   6.305  13.999
28676W        W89987  17.684  11.763  14.286
28677W        W89988  27.448  33.622  14.323
28678W        W89989  18.695  36.476   4.685
28679W        W89990  21.683  20.220  14.490
28680W        W89991  38.835  16.253   1.701
28681W        W89992  31.142  32.110   3.302
28682W        W89993   7.713   1.329  14.831
28683W        W89994   9.170   0.483   0.964
28684W        W89995   9.770  32.528   1.356
28685W        W89996  25.163  10.879  14.763
28686W        W89997  26.612   8.232  14.992
28687W        W89998  39.914  12.300   0.481
28688W        W89999  25.663  20.068  13.546
28689W        W90000  19.607  22.135   4.131
28690W        W90001   2.257   0.385  12.922
28691W        W90002   2.721   7.320  13.013
28692W        W90003  17.795  20.199  14.404
28693W        W90004  14.643  19.619  14.802
28694W        W90005   7.232   0.481   0.816
28695W        W90006  33.070  27.674  13.990
28696W        W90007   0.494   0.880   2.384
28697W        W90008  21.032  12.318  12.512
28698W        W90009  44.502  33.955  14.500
28699W        W90010  34.407  20.252  12.371
28700W        W90011  26.034  44.451  13.342
28701W        W90012  20.268   5.843   1.928
28702W        W90013  15.726  28.478  13.430
28703W        W90014  36.534  27.686   1.286
28704W        W90015  27.563   7.416  14.930
28705W        W90016  32.980  30.966  14.514
28706W        W90017   5.349   1.840   4.608
28707W        W90018  26.647  11.160   4.781
28708W        W90019  37.481  19.210   4.151
28709W        W90020  13.839  32.448  11.113
28710W        W90021  32.416   3.276   4.168
28711W        W90022  19.101  43.801   0.266
28712W        W90023  32.925  34.567  11.599
28713W        W90024  18.161  29.486   1.700
28714W        W90025   0.943  27.179   3.867
28715W        W90026  16.282  31.427   0.749
28716W        W90027  21.594   2.732  14.973
28717W        W90028  42.383  25.587   2.899
28718W        W90029  21.245   1.351  13.896
28719W        W90030  26.036  12.214  12.356
28720W        W90031   0.800  41.439   2.889
28721W        W90032  14.114   1.241   0.856
28722W        W90033  33.122   0.297  13.939
28723W        W90034  33.089  28.495  10.916
28724W        W90035  44.785   3.856  13.799
28725W        W90036  24.184  30.584  12.996
28726W        W90037  29.066  24.601  11.906
28727W        W90038  27.658  32.066   1.775
28728W        W90039  37.927  13.605   2.712
28729W        W90040   8.306  31.136   3.796
28730W        W90041   6.216  22.119  13.972
28731W        W90042  10.351  20.754   0.762
28732W        W90043   3.366  32.100  12.005
28733W        W90044  26.026  34.582  13.512
28734W        W90045  18.050  31.634   4.188
28735W        W90046  32.922   4.319   0.279
28736W        W90047  30.572  15.173   3.811
28737W        W90048  19.609  41.891   2.259
28738W        W90049  12.167  44.409   1.438
28739W        W90050  36.021  22.621  12.876
28740W        W90051  34.894  25.557  13.891
28741W        W90052  32.606  14.278   1.213
28742W        W90053   6.812  26.162   0.248
28743W        W90054   2.750  24.622   4.638
28744W        W90055  11.143   6.197  10.546
28745W        W90056  18.231  30.047  11.380
28746W        W90057  30.013   4.927   1.886
28747W        W90058  44.795  41.968   3.177
28748W        W90059  36.947   9.226   1.377
28749W        W90060  35.426  15.301   1.326
28750W        W90061   3.411   6.372  10.914
28751W        W90062  43.290   0.795  13.983
28752W        W90063  38.014   5.263   4.682
28753W        W90064  30.479   9.851   4.718
28754W        W90065  28.155  41.003  11.384
28755W        W90066   9.791   7.325   1.828
28756W        W90067  25.512  22.691  12.038
28757W        W90068  17.618  34.995   2.888
28758W        W90069  28.621  32.571   4.346
28759W        W90070   1.804  15.590  14.883
28760W        W90071  39.325  32.120  11.407
28761W        W90072   4.764  10.719  13.800
28762W        W90073   0.375  25.504   4.703
28763W        W90074  19.668  35.447   0.400
28764W        W90075  25.618  31.615   3.186
28765W        W90076   8.317   2.728  10.991
28766W        W90077   3.247  30.999  14.819
28767W        W90078  31.621   2.774   2.265
28768W        W90079  29.597   2.879  14.413
28769W        W90080  29.621  34.079  14.445
28770W        W90081  14.243  23.025   0.353
28771W        W90082  15.718  18.114   1.335
28772W        W90083  35.499  41.531   3.638
28773W        W90084  11.371  20.611   2.313
28774W        W90085  21.528   4.719  12.911
28775W        W90086   3.451  31.507   2.903
28776W        W90087   3.357  43.987   2.212
28777W        W90088  18.709  31.470  12.095
28778W        W90089   9.394   1.797  11.953
28779W        W90090  19.132  37.042  14.965
28780W        W90091  16.143  26.027   3.700
28781W        W90092  36.468  35.040  13.979
28782W        W90093  42.301  14.834  13.507
28783W        W90094  41.999   9.173  13.050
28784W        W90095  42.858  14.124   0.316
28785W        W90096  11.282  35.361   1.812
28786W        W90097  29.435  38.464  12.362
28787W        W90098   8.223  26.005   1.333
28788W        W90099  42.306  39.344   3.864
28789W        W90100   9.826  28.976  10.413
28790W        W90101  14.261  44.371  10.623
28791W        W90102  34.488  35.564  14.966
28792W        W90103   7.282  17.671   3.714
28793W        W90104  27.446   8.751  13.880
28794W        W90105  40.496  11.640   0.771
28795W        W90106  11.764  16.306  14.822
28796W        W90107  23.092   2.296   0.805
28797W        W90108   6.325  33.095   1.361
28798W        W90109   0.927  23.021  12.965
28799W        W90110  17.196  24.005  10.011
28800W        W90111   3.327   7.382   2.297
28801W        W90112   7.385  31.104   2.418
28802W        W90113  35.594  22.032   1.329
28803W        W90114  17.750  43.349   2.903
28804W        W90115   5.239  19.764   2.223
28805W        W90116  29.494  37.941  11.573
28806W        W90117  44.834   0.977   3.844
28807W        W90118  32.897  40.966   2.217
28808W        W90119  24.066  44.360  12.001
28809W        W90120  14.157  24.539  11.374
28810W        W90121  26.565  30.629  10.613
28811W        W90122  23.558  21.152  12.487
28812W        W90123   0.269   0.760  12.009
28813W        W90124  42.986  22.695  14.974
28814W        W90125  35.488  21.642  11.124
28815W        W90126  37.016  36.466   0.322
28816W        W90127  26.476  37.348  12.947
28817W        W90128  33.583   9.746  11.421
28818W        W90129  23.099   9.692  12.073
28819W        W90130  38.362  44.278   4.746
28820W        W90131   2.472  30.089   4.177
28821W        W90132  22.521  14.317   1.413
28822W        W90133  36.877   0.930  13.393
28823W        W90134  20.106  35.909  11.382
28824W        W90135  22.670  40.993   4.245
28825W        W90136   3.936  42.401  14.336
28826W        W90137   6.375  38.967   0.382
28827W        W90138   2.344  33.117  11.511
28828W        W90139  39.864  22.601  12.019
28829W        W90140   0.347  11.679   0.801
28830W        W90141  31.957   6.291   4.158
28831W        W90142  38.334  13.713  10.537
28832W        W90143  27.608  44.859  12.952
28833W        W90144   5.422   3.380   4.196
28834W        W90145   2.461   0.795   0.469
28835W        W90146  11.633  21.212   1.932
28836W        W90147   4.936  30.034   4.695
28837W        W90148  33.087  14.629   1.350
28838W        W90149  26.625  23.192  12.871
28839W        W90150  44.889  14.106   1.838
28840W        W90151   0.338  28.593  11.487
28841W        W90152   8.307  13.209  12.344
28842W        W90153   7.403  24.640  13.042
28843W        W90154  29.095  19.128  14.893
28844W        W90155  15.107  22.038   3.200
28845W        W90156   4.377   9.341  11.441
28846W        W90157  33.059   3.793  11.967
28847W        W90158  20.647  11.278  13.918
28848W        W90159  26.069  41.294  11.419
28849W        W90160  31.150  19.583  12.920
28850W        W90161   6.858   0.475   0.451
28851W        W90162   3.715   6.265  14.297
28852W        W90163  24.705  34.392  12.907
28853W        W90164  21.539   8.275  13.319
28854W        W90165   5.409  18.719   0.729
28855W        W90166  37.946  20.759  11.037
28856W        W90167  26.997  37.436   0.851
28857W        W90168  24.718   0.328  10.490
28858W        W90169  41.868  28.676   4.735
28859W        W90170  10.703   0.317   1.915
28860W        W90171  42.374  33.082   3.653
28861W        W90172   4.267  18.210   3.856
28862W        W90173   7.385   7.271  13.884
28863W        W90174  17.172  15.654  13.370
28864W        W90175  13.217  23.657   3.370
28865W        W90176  23.601  42.797  11.380
28866W        W90177  27.081   7.363  10.409
28867W        W90178   4.377  13.194   4.181
28868W        W90179  26.661  44.435  11.460
28869W        W90180  10.825   6.813   2.360
28870W        W90181  41.466  20.709   1.767
28871W        W90182  44.420  20.198   3.301
28872W        W90183   2.801  25.558   4.170
28873W        W90184  34.587  19.190  11.857
28874W        W90185  41.523  28.179  10.583
28875W        W90186   8.169  42.347  14.961
28876W        W90187   9.232   9.350   0.931
28877W        W90188   4.700   7.858  11.516
28878W        W90189  31.997  23.155  10.478
28879W        W90190  27.138  20.079   1.903
28880W        W90191  25.081  40.047   0.275
28881W        W90192  26.001  22.519   0.823
28882W        W90193  38.449  34.934  11.589
28883W        W90194  34.387  42.281  14.364
28884W        W90195   2.903  17.139   4.737
28885W        W90196  24.117  38.473   3.803
28886W        W90197  42.820  37.872  11.006
28887W        W90198  14.640   2.313   9.556
28888W        W90199  11.662  38.891   2.869
28889W        W90200   1.415   4.716  10.475
28890W        W90201   0.361  44.877   4.247
28891W        W90202   6.208   5.820   4.183
28892W        W90203  11.254   0.259   4.608
28893W        W90204  21.047   1.959   0.958
28894W        W90205  13.714  12.227   0.959
28895W        W90206  22.710  24.702   0.277
28896W        W90207  29.448  25.215   5.313
28897W        W90208  39.913   3.753   2.212
28898W        W90209   0.862  41.407   1.335
28899W        W90210   7.382   2.238  10.535
28900W        W90211   2.432  29.444   0.946
28901W        W90212  13.142   6.842   0.292
28902W        W90213  27.072  19.063   3.258
28903W        W90214  44.928  16.187   1.276
28904W        W90215  20.101  25.708   4.784
28905W        W90216  34.108  37.571  11.008
28906W        W90217  36.503  13.210   1.239
28907W        W90218  18.590   5.407   4.798
28908W        W90219   7.694  13.325  11.965
28909W        W90220  44.393  18.172   1.415
28910W        W90221  21.181  13.251   2.839
28911W        W90222  18.660  39.859   0.270
28912W        W90223  18.051  21.151   2.772
28913W        W90224  25.219  16.628  11.033
28914W        W90225  27.676  17.666  13.907
28915W        W90226  28.647   4.248  14.393
28916W        W90227  39.535   5.829   3.751
28917W        W90228  25.547  14.172  13.312
28918W        W90229   0.432  15.224   1.722
28919W        W90230  37.354  27.453  13.448
28920W        W90231  31.409  28.005   2.195
28921W        W90232  28.957  22.223   1.316
28922W        W90233  17.786  25.035   1.365
28923W        W90234   6.417  31.645  11.432
28924W        W90235  17.094  44.991   2.831
28925W        W90236  42.839  25.560   0.429
28926W        W90237   9.314   9.727  10.906
28927W        W90238   1.873  31.127  10.447
28928W        W90239  22.228  33.961  14.391
28929W        W90240  17.098  15.600  11.108
28930W        W90241  44.980  43.020  13.347
28931W        W90242   6.388   1.732   2.232
28932W        W90243   1.301  27.525   0.913
28933W        W90244   5.882  19.556   2.182
28934W        W90245  12.838  22.042  11.504
28935W        W90246  26.085   8.672   3.690
28936W        W90247  18.726  40.823   3.829
28937W        W90248   1.247  17.576  10.989
28938W        W90249  31.929  37.488  12.361
28939W        W90250  12.182  18.692   1.803
28940W        W90251  38.976  32.120   2.847
28941W        W90252  37.420   7.258   4.767
28942W        W90253  10.715  14.741  12.904
28943W        W90254  32.989  15.262  13.955
28944W        W90255  11.641  33.997   4.737
28945W        W90256   6.859  20.703   3.221
28946W        W90257  11.809  30.082  12.349
28947W        W90258   5.205  42.463   4.342
28948W        W90259  42.450  38.974  13.449
28949W        W90260  25.216  17.168  13.881
28950W        W90261  15.669   1.797  12.978
28951W        W90262  29.660  12.810   1.920
28952W        W90263  30.938   5.377  14.923
28953W        W90264  26.483  41.369  12.373
28954W        W90265  25.663  27.078   3.227
28955W        W90266  38.512  26.603   4.718
28956W        W90267   8.725  12.282   1.302
28957W        W90268  16.169   8.304   2.248
28958W        W90269   7.851  37.438   4.127
28959W        W90270  31.907  35.398  12.378
28960W        W90271  26.045  12.633   2.273
28961W        W90272  36.437  33.382  11.119
28962W        W90273  30.656  42.914  12.559
28963W        W90274  29.118   0.348   3.758
28964W        W90275  27.604  25.584  13.409
28965W        W90276   5.862  21.180  11.045
28966W        W90277  22.133  20.547  11.512
28967W        W90278   9.790  41.439  10.930
28968W        W90279  19.134   7.713  14.322
28969W        W90280   9.356  25.500   0.791
28970W        W90281  41.297  15.620   1.441
28971W        W90282  30.938  19.071   2.759
28972W        W90283  42.024  30.604   0.305
28973W        W90284   2.387  29.046   1.704
28974W        W90285  21.637  26.054   2.790
28975W        W90286  35.911  13.338  13.806
28976W        W90287  30.915  33.075  12.466
28977W        W90288  11.194  28.638   3.358
28978W        W90289   5.315   2.824  14.920
28979W        W90290  15.223  27.040   0.817
28980W        W90291  36.897  35.361   2.666
28981W        W90292   2.753  33.902   0.366
28982W        W90293  32.529  15.138  14.359
28983W        W90294  30.439   1.830   4.296
28984W        W90295   5.341  33.566   9.957
28985W        W90296  32.566  22.644   1.409
28986W        W90297   6.348  35.571  10.990
28987W        W90298  15.740  35.526   2.203
28988W        W90299   2.367  44.905   1.277
28989W        W90300  18.719  24.652  14.008
28990W        W90301   2.804  31.440   1.863
28991W        W90302  13.762  19.081  13.514
28992W        W90303  40.826   7.789   3.317
28993W        W90304  36.539   2.862  10.614
28994W        W90305  20.089  34.456  10.497
28995W        W90306  39.064  32.900   1.231
28996W        W90307  39.351  31.603  13.376
28997W        W90308  10.639  26.623  11.426
28998W        W90309  39.035  32.459   2.358
28999W        W90310  24.081  27.132   0.268
29000W        W90311   4.858  24.578   1.694
29001W        W90312  33.624  28.156   2.869
29002W        W90313  24.652  21.227  13.938
29003W        W90314  26.527  32.425   0.298
29004W        W90315  33.444  12.795  12.994
29005W        W90316  18.232  30.093   0.336
29006W        W90317  24.129  10.352   1.242
29007W        W90318  29.468  38.554  10.568
29008W        W90319  39.979  21.238  12.864
29009W        W90320  15.668  44.998  13.344
29010W        W90321  14.270  31.044   5.290
29011W        W90322  37.039  30.435  13.525
29012W        W90323  21.204  17.622  12.094
29013W        W90324  35.058  12.679   3.802
29014W        W90325  39.353  27.593   2.873
29015W        W90326  13.317  17.163   4.274
29016W        W90327   8.750  37.074   3.828
29017W        W90328  26.525  10.249   2.784
29018W        W90329  41.391  16.805  13.967
29019W        W90330  43.979  34.040   3.810
29020W        W90331  20.542  27.973   3.778
29021W        W90332   8.784  25.707   1.758
29022W        W90333  33.878  36.055   4.312
29023W        W90334   3.923   0.970  12.041
29024W        W90335   6.823  40.886  13.409
29025W        W90336  40.336  18.610  11.601
29026W        W90337  10.746  42.878  10.541
29027W        W90338  10.169  28.059  12.482
29028W        W90339  42.506   0.793   0.411
29029W        W90340  28.667  13.671  14.017
29030W        W90341   2.862  41.008  13.333
29031W        W90342  23.139   9.388   0.445
29032W        W90343  11.721  44.408   4.115
29033W        W90344  31.405  33.914  12.915
29034W        W90345   8.705   2.314  11.412
29035W        W90346  10.205   2.861   3.238
29036W        W90347   8.212  30.996  14.899
29037W        W90348  24.215  31.614   3.748
29038W        W90349  24.713  10.384   2.215
29039W        W90350  44.295  41.001   4.787
29040W        W90351  24.207  28.483  10.090
29041W        W90352  11.258  28.593   1.430
29042W        W90353  34.447  10.702  10.584
29043W        W90354  15.289  27.564  12.545
29044W        W90355   6.224  18.725  13.539
29045W        W90356   4.932  11.173  11.546
29046W        W90357  26.108   7.677  11.064
29047W        W90358   6.730  24.506   3.200
29048W        W90359  27.532   7.230   4.251
29049W        W90360  43.326   1.240  12.090
29050W        W90361  26.670   9.230  11.098
29051W        W90362  17.678  30.612  14.949
29052W        W90363  20.606   2.325   4.246
29053W        W90364  22.197   9.396  14.020
29054W        W90365   1.240   6.796   1.391
29055W        W90366   1.433  27.167   2.754
29056W        W90367   2.322   6.343  13.431
29057W        W90368   9.694   9.680   1.333
29058W        W90369   9.771   0.315   4.322
29059W        W90370   2.793  35.050  14.482
29060W        W90371  21.753  12.319   3.174
29061W        W90372  13.647   1.923  11.458
29062W        W90373  32.432  10.171   0.857
29063W        W90374  39.490  40.375   4.322
29064W        W90375  32.574  23.729   4.735
29065W        W90376   2.277  41.339  10.896
29066W        W90377  44.895  40.309   4.309
29067W        W90378  41.326   7.821  12.090
29068W        W90379  12.138   9.685   2.412
29069W        W90380  10.327  15.755   3.682
29070W        W90381  35.597  27.679   2.830
29071W        W90382  23.594  30.957  14.436
29072W        W90383  18.554  11.660  14.929
29073W        W90384  41.504  27.095   1.746
29074W        W90385   7.236  12.683  12.863
29075W        W90386  20.270  37.570   2.696
29076W        W90387  27.586   7.879   2.691
29077W        W90388   4.287  22.513  13.922
29078W        W90389  43.333  33.532   2.384
29079W        W90390  15.096  39.962   3.841
29080W        W90391   1.959   0.341  11.458
29081W        W90392  35.392  25.077  11.922
29082W        W90393  32.047  41.988   2.409
29083W        W90394  25.635   8.841   1.878
29084W        W90395  32.476  27.054   3.201
29085W        W90396   0.487  25.139   0.781
29086W        W90397  18.271  34.556  12.070
29087W        W90398  44.477  17.780  12.995
29088W        W90399   2.764   9.854  12.889
29089W        W90400  21.547  14.272   2.227
29090W        W90401  32.518  24.163  13.536
29091W        W90402  21.639  22.682   1.415
29092W        W90403  37.917   9.318   2.716
29093W        W90404  38.931  23.129  13.792
29094W        W90405  13.794  16.608  11.894
29095W        W90406  42.450   7.284  12.530
29096W        W90407   2.799  24.225  11.462
29097W        W90408  14.155   2.849   1.922
29098W        W90409  30.997  17.703   1.215
29099W        W90410   2.301  15.657   9.926
29100W        W90411  42.308  27.082  12.918
29101W        W90412  30.480  26.153   4.739
29102W        W90413  24.086  31.020  11.419
29103W        W90414  14.310   1.817  11.507
29104W        W90415  32.557  34.895   0.434
29105W        W90416  42.945  24.725   1.375
29106W        W90417  21.745  28.168  11.897
29107W        W90418  43.827  19.573  13.865
29108W        W90419   0.927  26.162  10.543
29109W        W90420  20.081  13.284   0.776
29110W        W90421   0.847  30.641   0.326
29111W        W90422  37.981  40.523  14.967
29112W        W90423  44.773  42.401   2.792
29113W        W90424  37.431   7.190  12.516
29114W        W90425  23.011  41.840  11.561
29115W        W90426   2.444  28.619  13.345
29116W        W90427  22.036   3.793  10.891
29117W        W90428   7.336  25.611  13.946
29118W        W90429  23.677  15.654   2.722
29119W        W90430   0.336  26.989  14.978
29120W        W90431  29.046  18.774   0.361
29121W        W90432  13.728   7.228   4.825
29122W        W90433  34.076  15.130   0.409
29123W        W90434  23.527   6.787  14.346
29124W        W90435  26.518  24.498  12.012
29125W        W90436  40.885  38.486  14.310
29126W        W90437  23.600  19.555   5.112
29127W        W90438  21.720  10.839  13.022
29128W        W90439   3.232  20.667   2.731
29129W        W90440  14.783  24.179  14.436
29130W        W90441  37.400  19.642   1.785
29131W        W90442   6.297  20.748   0.456
29132W        W90443  29.967  25.170   2.808
29133W        W90444  32.498  28.990  10.989
29134W        W90445  28.075  17.701   2.812
29135W        W90446  33.048  42.472   1.279
29136W        W90447   2.278   5.204   4.817
29137W        W90448  27.522  24.085  10.998
29138W        W90449  13.765  15.811   1.220
29139W        W90450   1.800  11.669  11.104
29140W        W90451   6.208   7.718  10.422
29141W        W90452  22.642  15.711   2.822
29142W        W90453  28.566   5.217  12.445
29143W        W90454  28.656  34.002  12.028
29144W        W90455  14.221   0.844   0.252
29145W        W90456  29.504   1.754   0.404
29146W        W90457   5.883  40.489   4.166
29147W        W90458  27.006  13.623  12.853
29148W        W90459   3.918  19.282  14.876
29149W        W90460  10.251  23.572   4.208
29150W        W90461   1.923  11.702   0.748
29151W        W90462   8.712  21.168   2.686
29152W        W90463  24.003   6.683   0.912
29153W        W90464  41.822  22.523   3.361
29154W        W90465  19.566  14.256  14.277
29155W        W90466  38.916  28.620   5.102
29156W        W90467  26.615  17.610  10.592
29157W        W90468  20.526  20.053  14.473
29158W        W90469  36.435   4.864   3.858
29159W        W90470  19.562  44.765   3.167
29160W        W90471  21.706   8.664   3.243
29161W        W90472  30.529  16.695   0.312
29162W        W90473  32.998  27.064   2.310
29163W        W90474  12.301   5.324  14.276
29164W        W90475  21.030  23.524  12.467
29165W        W90476  21.713   2.339  14.796
29166W        W90477  35.029  17.728   1.724
29167W        W90478  15.159  39.965   4.815
29168W        W90479  10.774  32.130   0.738
29169W        W90480  22.700  28.566  14.297
29170W        W90481  27.064  17.668  12.474
29171W        W90482  26.601  18.287  10.475
29172W        W90483   2.458  23.070   3.694
29173W        W90484   2.376  21.709   0.453
29174W        W90485   4.269  23.114   0.256
29175W        W90486  17.648   1.379  13.950
29176W        W90487   0.319  16.591   0.278
29177W        W90488  43.326  26.643  13.969
29178W        W90489  43.470  12.688  11.399
29179W        W90490  34.917  38.051  13.030
29180W        W90491  39.852  13.291  12.350
29181W        W90492   5.357  40.319  10.984
29182W        W90493   9.878  14.182   0.948
29183W        W90494  33.892  19.114  13.038
29184W        W90495  18.743  29.583   9.961
29185W        W90496  32.511  42.775   3.646
29186W        W90497  25.130  21.663   3.832
29187W        W90498  41.371   9.345   3.659
29188W        W90499  18.788   4.894   3.631
29189W        W90500  27.082  11.817  11.912
29190W        W90501   2.345  32.016   1.291
29191W        W90502  39.839  20.064   1.231
29192W        W90503  44.410  23.065   0.838
29193W        W90504  43.981  38.019   3.733
29194W        W90505  37.005  26.985   3.818
29195W        W90506  37.539  38.511  13.842
29196W        W90507  28.470  15.612  11.512
29197W        W90508   4.253  17.726  14.943
29198W        W90509  10.218  28.533  12.854
29199W        W90510  10.784   6.737   4.248
29200W        W90511  38.973  42.480   1.828
29201W        W90512  36.478  28.064  14.477
29202W        W90513  29.622  24.036  10.928
29203W        W90514  37.947  13.681   1.837
29204W        W90515  22.658   1.792   4.133
29205W        W90516  19.752   8.662  10.590
29206W        W90517  40.407  38.850   5.242
29207W        W90518  33.951   6.768  12.516
29208W        W90519  21.231  30.532  11.928
29209W        W90520  10.645   2.959  13.488
29210W        W90521  28.137  15.731  13.844
29211W        W90522  32.582  25.621   0.419
29212W        W90523   8.182  27.687  11.907
29213W        W90524   2.324  32.598   1.852
29214W        W90525   9.776   8.899  11.947
29215W        W90526   6.708  12.295  10.524
29216W        W90527  15.296  38.968  14.938
29217W        W90528   1.276  23.588  11.084
29218W        W90529  12.176   5.365   0.731
29219W        W90530  13.116  19.220   4.198
29220W        W90531  12.836  37.552   0.321
29221W        W90532  23.070   1.851  11.886
29222W        W90533  37.939  20.543  12.542
29223W        W90534  22.149  39.925  11.594
29224W        W90535  28.004   8.723  10.431
29225W        W90536  11.367  34.437  10.563
29226W        W90537  17.727  18.634  14.464
29227W        W90538  19.279  31.935  14.850
29228W        W90539  15.638  21.627  10.445
29229W        W90540  14.157   8.387  13.532
29230W        W90541  39.964   9.664  14.881
29231W        W90542  44.347  43.833  14.287
29232W        W90543  39.991  27.955  14.306
29233W        W90544   7.376  43.467  10.970
29234W        W90545   5.299  24.002   4.822
29235W        W90546  39.459  11.263   2.260
29236W        W90547   2.783  21.081  11.608
29237W        W90548   9.316   5.412   4.644
29238W        W90549  38.326  20.219  14.469
29239W        W90550  11.829  34.472  10.627
29240W        W90551  33.086   6.766  13.470
29241W        W90552  43.393  37.573  10.551
29242W        W90553  21.223   4.294   2.205
29243W        W90554  17.784  15.784   1.359
29244W        W90555  38.424  25.496   4.280
29245W        W90556  12.774  34.544   3.301
29246W        W90557  39.016   6.247  10.958
29247W        W90558  18.290   2.321  14.323
29248W        W90559  11.837  18.138   3.694
29249W        W90560  30.431  10.372   5.321
29250W        W90561  30.060  16.144   2.864
29251W        W90562  18.617  26.959  13.897
29252W        W90563   8.215  34.607  13.932
29253W        W90564  27.646  15.131  11.008
29254W        W90565  31.151   9.328   1.356
29255W        W90566  21.613  38.948  12.372
29256W        W90567  41.404   9.706  13.876
29257W        W90568  44.879  33.557   2.230
29258W        W90569  13.714  33.107  13.462
29259W        W90570  14.618  15.599  14.779
29260W        W90571  16.686  26.167   1.714
29261W        W90572   5.350  30.918   3.262
29262W        W90573  37.486  42.339   4.311
29263W        W90574  11.152   3.910   0.818
29264W        W90575  33.476   3.896   2.266
29265W        W90576  25.518  28.434   1.811
29266W        W90577  17.141  17.607  14.823
29267W        W90578  23.186   5.852   2.696
29268W        W90579  26.594  12.725   1.930
29269W        W90580   9.165  42.397   2.316
29270W        W90581  26.618  42.406   3.219
29271W        W90582  36.491  10.651   1.763
29272W        W90583  26.575   5.311   2.399
29273W        W90584   3.920  25.547   4.253
29274W        W90585  12.351  30.946   1.708
29275W        W90586  17.154  33.116  13.063
29276W        W90587  41.018   3.309   2.294
29277W        W90588  13.208   4.236  11.375
29278W        W90589   8.266   5.284  14.919
29279W        W90590  25.491   4.252   0.395
29280W        W90591  31.544  31.145   0.841
29281W        W90592   4.736   4.834   3.822
29282W        W90593  27.555   1.743   0.804
29283W        W90594  35.974   1.313   3.642
29284W        W90595  10.335  29.931   1.839
29285W        W90596  31.957  17.702   4.645
29286W        W90597  24.024  36.571  11.011
29287W        W90598  38.452  18.685  12.537
29288W        W90599  24.669   1.917  13.538
29289W        W90600  36.513  36.917   5.243
29290W        W90601  38.851  20.074   4.776
29291W        W90602  13.734   4.218  14.396
29292W        W90603   7.887  11.186  10.470
29293W        W90604  25.054   2.862   2.849
29294W        W90605  26.542  25.568  10.608
29295W        W90606  14.649  21.691   2.255
29296W        W90607   9.243  36.482   4.322
29297W        W90608  32.513  35.391  12.958
29298W        W90609  34.943  11.368   4.821
29299W        W90610  29.546  36.367  10.973
29300W        W90611  24.196  16.730  10.957
29301W        W90612  35.871  22.247   2.229
29302W        W90613   8.165   5.769   0.382
29303W        W90614  27.083   4.922   3.668
29304W        W90615  25.171  32.595   0.375
29305W        W90616  10.661   0.335  14.287
29306W        W90617  26.155  39.385  11.484
29307W        W90618  18.579  25.665   2.200
29308W        W90619  37.490   7.670  11.871
29309W        W90620  21.111  14.670   4.256
29310W        W90621  23.989   5.815  12.446
29311W        W90622   7.906  13.606  11.476
29312W        W90623  25.512  28.087  12.890
29313W        W90624  28.491  34.491   2.309
29314W        W90625   7.335   9.214  13.804
29315W        W90626  26.682  40.831  14.497
29316W        W90627  14.640   8.839  11.918
29317W        W90628  35.509  26.110   0.960
29318W        W90629  19.655  34.925  13.947
29319W        W90630  12.200   3.771   9.565
29320W        W90631  30.454   5.896  11.863
29321W        W90632   1.815  16.111  12.422
29322W        W90633  12.325  42.404   4.814
29323W        W90634  30.980  20.767   1.710
29324W        W90635  11.312  32.621  12.482
29325W        W90636  24.050  15.220   1.838
29326W        W90637  38.489  37.340  11.951
29327W        W90638  15.626  11.203  13.806
29328W        W90639   6.831  41.314   1.442
29329W        W90640  32.537  19.265   4.183
29330W        W90641  26.102  25.188  14.296
29331W        W90642   6.824  15.770   3.773
29332W        W90643  14.267  10.255   0.738
29333W        W90644  42.852  17.610  12.417
29334W        W90645  13.270   7.241  12.908
29335W        W90646  35.043  11.286   3.784
29336W        W90647   2.949  39.492   1.788
29337W        W90648  44.397  26.167  10.468
29338W        W90649   7.912   7.304   4.315
29339W        W90650   4.299  42.343  12.984
29340W        W90651   9.660  22.052  14.000
29341W        W90652  26.693  15.725   0.470
29342W        W90653   0.345  34.489  14.762
29343W        W90654  32.128  15.231  14.419
29344W        W90655  18.154  38.347  12.520
29345W        W90656  39.455  12.290  11.040
29346W        W90657  25.127  12.324  11.406
29347W        W90658  13.687  38.864  11.569
29348W        W90659  21.167  19.733   5.645
29349W        W90660   4.364  24.533   1.827
29350W        W90661  19.123   7.688   1.404
29351W        W90662  43.304  12.786  11.004
29352W        W90663   3.772  32.926  12.889
29353W        W90664  41.933  44.384  10.915
29354W        W90665   4.770   6.283  13.816
29355W        W90666   0.858   4.815   0.415
29356W        W90667  32.930   4.399  12.005
29357W        W90668  31.065  40.457  13.374
29358W        W90669  30.523  40.435   2.891
29359W        W90670   7.757  14.190   3.364
29360W        W90671  24.100  31.034  12.060
29361W        W90672  24.030   3.911   4.612
29362W        W90673  17.692  13.212   2.796
29363W        W90674  12.807  20.042  13.405
29364W        W90675  33.411  43.822  12.876
29365W        W90676   6.901   6.292   2.896
29366W        W90677  42.908  19.186   4.667
29367W        W90678   5.910   5.702   3.211
29368W        W90679  35.088  44.303   3.175
29369W        W90680  34.419  31.585   3.221
29370W        W90681  37.855  31.023  11.915
29371W        W90682  13.124  37.884  14.921
29372W        W90683  30.002  31.109  13.807
29373W        W90684  38.013  41.465   9.984
29374W        W90685   3.272   5.747   2.764
29375W        W90686   9.743  25.036   3.681
29376W        W90687  23.491  44.315   1.760
29377W        W90688  27.648   4.755  10.473
29378W        W90689  37.557  33.093  13.448
29379W        W90690  12.151  27.034   3.195
29380W        W90691  39.029  37.951  12.403
29381W        W90692  14.782  36.583  12.524
29382W        W90693  19.767  27.571   4.118
29383W        W90694  17.628   0.950  11.087
29384W        W90695   1.759  16.251  14.279
29385W        W90696  42.374  36.910   2.779
29386W        W90697  20.256  21.046   4.244
29387W        W90698  40.903  19.734   1.307
29388W        W90699  20.262  19.658   4.729
29389W        W90700  18.765  30.954  13.401
29390W        W90701  13.315  27.097   0.796
29391W        W90702   7.339  19.143  10.486
29392W        W90703  43.787  29.612  14.975
29393W        W90704   3.293  17.761   4.223
29394W        W90705  27.523   4.794   2.738
29395W        W90706  43.976  12.739  10.957
29396W        W90707   1.464  16.231  11.917
29397W        W90708  10.263  30.092  13.994
29398W        W90709   8.822  26.602   3.720
29399W        W90710  23.523  16.183  10.994
29400W        W90711  20.098   6.314  11.024
29401W        W90712  21.533  44.476   3.678
29402W        W90713  31.153   8.371   0.256
29403W        W90714   7.334  23.679   4.283
29404W        W90715  26.009  34.598   2.316
29405W        W90716  37.480  43.504   5.678
29406W        W90717   5.220  43.437   2.270
29407W        W90718  17.604  43.377   3.176
29408W        W90719  33.906  22.687  14.765
29409W        W90720  16.726   1.316   3.691
29410W        W90721  40.888  21.721  10.941
29411W        W90722  22.103   1.335  10.917
29412W        W90723  31.080   2.762   1.802
29413W        W90724  38.352   5.207   2.370
29414W        W90725  38.939  22.677   0.908
29415W        W90726   4.254  33.934   3.706
29416W        W90727   2.236  40.548  11.399
29417W        W90728  14.241  25.676  12.396
29418W        W90729  37.371  19.766   0.449
29419W        W90730  37.565  36.472  12.833
29420W        W90731  28.010  31.591  11.446
29421W        W90732  29.987  37.943  11.457
29422W        W90733  41.793  34.493  11.569
29423W        W90734  23.623  20.169   2.287
29424W        W90735  16.192  21.752  14.994
29425W        W90736   8.733  21.034  10.920
29426W        W90737  24.981  35.860  10.528
29427W        W90738  27.191  29.502   5.255
29428W        W90739   9.342   2.263  14.958
29429W        W90740   5.799  20.267  14.370
29430W        W90741   2.407  31.995  14.441
29431W        W90742  42.505  39.356   2.418
29432W        W90743  29.127  31.508  12.444
29433W        W90744  38.844  12.182  10.546
29434W        W90745   1.838  13.208  13.543
29435W        W90746   4.326  18.131  14.781
29436W        W90747  12.690   4.834  13.475
29437W        W90748  23.562  34.412  13.392
29438W        W90749   2.281  10.771  13.991
29439W        W90750   0.263  19.118  11.077
29440W        W90751  22.615   5.265  12.504
29441W        W90752  15.692  43.816  13.311
29442W        W90753  20.141  20.635   2.827
29443W        W90754  32.128  29.030  12.863
29444W        W90755  17.732  11.651   4.649
29445W        W90756   7.351  26.535   5.202
29446W        W90757  42.887   8.288  14.405
29447W        W90758   0.423  31.517  10.947
29448W        W90759  33.912  20.639   1.366
29449W        W90760  44.291  23.677  10.130
29450W        W90761  22.177  22.148   0.944
29451W        W90762   7.878  41.357  10.472
29452W        W90763  26.006  35.485  14.477
29453W        W90764  17.770  39.554   4.766
29454W        W90765  18.127   0.373   0.348
29455W        W90766  26.650  10.145   4.266
29456W        W90767  13.722  41.353  12.566
29457W        W90768  10.154  44.765  13.009
29458W        W90769  21.097  19.582  14.389
29459W        W90770  23.227  36.382  10.416
29460W        W90771  24.724  32.108  11.433
29461W        W90772  14.789  12.635   0.791
29462W        W90773   2.330   1.414  13.400
29463W        W90774  24.615  43.406   2.740
29464W        W90775  41.802   4.899  13.861
29465W        W90776  42.970  35.992  10.059
29466W        W90777   7.250   6.753  11.022
29467W        W90778  44.861  24.652   0.459
29468W        W90779  28.019  43.311  11.552
29469W        W90780  21.198  40.971  10.584
29470W        W90781  14.144  11.285  14.820
29471W        W90782  24.020  33.926   4.267
29472W        W90783  16.190  11.780  11.967
29473W        W90784  14.617  22.206  14.986
29474W        W90785  35.895  21.738   4.306
29475W        W90786  40.922  23.688   1.289
29476W        W90787  28.487  39.531   0.281
29477W        W90788  26.665   3.720  11.070
29478W        W90789  40.892  18.085  13.005
29479W        W90790  21.748   7.716   2.734
29480W        W90791  30.112  27.559  11.959
29481W        W90792  38.453  38.024  10.471
29482W        W90793   4.215  32.943  11.442
29483W        W90794   1.939  16.249   3.280
29484W        W90795  24.982  36.482  14.899
29485W        W90796  35.945  35.394  12.437
29486W        W90797  23.727  34.922  14.367
29487W        W90798  28.956  39.971   2.266
29488W        W90799  19.126   6.295  11.483
29489W        W90800  31.430  17.601   0.478
29490W        W90801  30.481  14.301   4.714
29491W        W90802   0.866   9.191   2.852
29492W        W90803  30.598  18.692  12.082
29493W        W90804  31.032  19.159   3.667
29494W        W90805  32.949   2.324  11.045
29495W        W90806  13.105  27.035   1.716
29496W        W90807   4.440  12.252   2.273
29497W        W90808  42.281   6.415   3.703
29498W        W90809  18.060  31.600   0.886
29499W        W90810   4.919  16.105   2.740
29500W        W90811  11.715  25.633  12.008
29501W        W90812   9.809   2.844  13.377
29502W        W90813  17.748  22.667  11.545
29503W        W90814  32.470   2.955  13.800
29504W        W90815  26.685  15.310  11.375
29505W        W90816   4.790  39.521   1.242
29506W        W90817  40.950  39.900   3.320
29507W        W90818  11.803   9.188  14.938
29508W        W90819  27.026  42.993   0.923
29509W        W90820   7.379  30.990   3.170
29510W        W90821   0.418  23.112   4.133
29511W        W90822  11.701  29.173  14.837
29512W        W90823  17.202  22.525   4.682
29513W        W90824  13.695   3.443   2.832
29514W        W90825  25.007  34.581   3.198
29515W        W90826  13.814   4.866  10.076
29516W        W90827  19.712  38.476  14.021
29517W        W90828  37.005  16.289  12.886
29518W        W90829  15.111  25.530  12.572
29519W        W90830  40.807  38.478   5.228
29520W        W90831  27.061   1.375  10.455
29521W        W90832  29.514  23.532  13.841
29522W        W90833  43.895  21.541  12.046
29523W        W90834  30.484  43.823   3.346
29524W        W90835  29.491  26.497   3.831
29525W        W90836  33.485   5.695  11.979
29526W        W90837   2.813  28.043   4.795
29527W        W90838   7.715  18.681  10.403
29528W        W90839   0.432  20.054   1.380
29529W        W90840  23.530  15.661   4.323
29530W        W90841  24.061   3.867  12.017
29531W        W90842  32.963   0.267   2.748
29532W        W90843   3.385   4.248  12.840
29533W        W90844  29.108  35.915  12.982
29534W        W90845  37.514  28.013   5.173
29535W        W90846  16.575   1.248   4.599
29536W        W90847  27.971  16.177  13.471
29537W        W90848  30.426  17.557   4.662
29538W        W90849  34.953   6.398  12.517
29539W        W90850  19.577   9.265   2.877
29540W        W90851   1.439  15.310  11.977
29541W        W90852  29.070  42.351  11.408
29542W        W90853  36.932  27.569   0.749
29543W        W90854  40.044  29.622  14.842
29544W        W90855   3.843   8.830   2.233
29545W        W90856  35.010  30.152  12.419
29546W        W90857  11.144   8.735  14.948
29547W        W90858  28.131  25.213   1.780
29548W        W90859  23.681  43.515   4.158
29549W        W90860  17.216  20.121   4.691
29550W        W90861   7.325  41.521  13.836
29551W        W90862   4.793  22.644   3.168
29552W        W90863  28.554  32.928   2.367
29553W        W90864  10.752  41.507  13.064
29554W        W90865  20.582  41.523   1.892
29555W        W90866  19.134  19.201   1.852
29556W        W90867  22.114  21.648   0.478
29557W        W90868   6.415   6.732   0.895
29558W        W90869  13.285   8.715   4.813
29559W        W90870  37.921   5.384  11.573
29560W        W90871  21.553  24.597  14.447
29561W        W90872  35.951  43.350  11.522
29562W        W90873  12.749  38.443  13.497
29563W        W90874   7.340   9.370   4.815
29564W        W90875  30.153  29.977   0.437
29565W        W90876  10.734  24.136  10.944
29566W        W90877   5.230  25.072  13.314
29567W        W90878   5.747   8.728  14.313
29568W        W90879  42.944  40.833  12.374
29569W        W90880  40.882  14.793  11.128
29570W        W90881  42.515  33.958   2.861
29571W        W90882  11.210  44.870  14.373
29572W        W90883  37.937  18.560  10.540
29573W        W90884   8.361  27.526   1.787
29574W        W90885  34.929  14.300   4.145
29575W        W90886  17.724   2.918   3.247
29576W        W90887  44.447  35.444   3.378
29577W        W90888   7.787  19.556   2.235
29578W        W90889  34.115  14.241   2.792
29579W        W90890   6.257  23.186  12.927
29580W        W90891   2.385  42.843   0.462
29581W        W90892  40.000   1.875   1.894
29582W        W90893   9.749  29.080   2.896
29583W        W90894   1.868  12.799   1.883
29584W        W90895  44.466  39.955   3.674
29585W        W90896  35.545   1.914   0.837
29586W        W90897  30.078  43.838   3.727
29587W        W90898   4.828   1.351   4.658
29588W        W90899  26.998  17.611  10.456
29589W        W90900   4.852  25.569   1.306
29590W        W90901   6.780  34.483  13.855
29591W        W90902  38.535  38.077  13.448
29592W        W90903   7.342   9.170   2.835
29593W        W90904  18.690  17.211   3.324
29594W        W90905  31.012  31.443  13.518
29595W        W90906  23.518   5.694   0.470
29596W        W90907  22.007  38.840  14.835
29597W        W90908  26.464   3.783  10.023
29598W        W90909  22.658   7.890  12.442
29599W        W90910   9.232   2.388   2.348
29600W        W90911  23.517  35.047  11.453
29601W        W90912  27.448  23.582   0.884
29602W        W90913  29.443  11.268   3.160
29603W        W90914  32.548   3.745   1.407
29604W        W90915  28.482  26.011   4.222
29605W        W90916  27.553  21.239   3.663
29606W        W90917  12.355   6.794   0.890
29607W        W90918   2.787  27.539  11.904
29608W        W90919   8.344  12.661   4.176
29609W        W90920   5.356   4.781  13.534
29610W        W90921  21.036   5.804   1.748
29611W        W90922  37.073  14.303   2.744
29612W        W90923   6.835  27.624   0.769
29613W        W90924  16.735  12.783  10.587
29614W        W90925   8.271   7.800  14.385
29615W        W90926  24.096  42.955   1.707
29616W        W90927   7.230  10.275  13.950
29617W        W90928  43.447  34.411   1.858
29618W        W90929  18.785  35.923  10.028
29619W        W90930  18.759  20.692   3.633
29620W        W90931  35.998  12.787   3.699
29621W        W90932   1.432  10.785   1.840
29622W        W90933  30.131  22.546  12.464
29623W        W90934  39.473   9.288   3.840
29624W        W90935   7.794  19.539   2.671
29625W        W90936  43.878  30.635   2.266
29626W        W90937  38.343  38.041  11.864
29627W        W90938  41.985  23.031  11.596
29628W        W90939  26.491  12.754  10.440
29629W        W90940  24.995  20.557   0.875
29630W        W90941  28.007  37.870  14.851
29631W        W90942  34.589  27.132   4.304
29632W        W90943  18.180   0.472   2.324
29633W        W90944  23.200  34.533  14.928
29634W        W90945   9.728   6.345  10.491
29635W        W90946  39.393  16.133  14.422
29636W        W90947   7.195  35.925   1.334
29637W        W90948  36.517  38.876   1.741
29638W        W90949  11.193   1.366  14.458
29639W        W90950  27.638  19.052  13.384
29640W        W90951  22.233  20.252   4.157
29641W        W90952  10.664  19.092  11.014
29642W        W90953  14.216  29.173  14.512
29643W        W90954  31.913  34.980   4.834
29644W        W90955  39.553  40.973  10.600
29645W        W90956  16.161   5.254   4.838
29646W        W90957  18.167  44.901  12.925
29647W        W90958  30.092   4.433   4.324
29648W        W90959   7.696   3.833  12.490
29649W        W90960  19.535  33.105  10.543
29650W        W90961  12.194   9.170  14.480
29651W        W90962  31.494  30.627  11.110
29652W        W90963   6.393  44.426   2.702
29653W        W90964   5.841  23.569  14.285
29654W        W90965  38.432  34.059   3.287
29655W        W90966  41.789  34.086   1.229
29656W        W90967  37.467   5.231   3.703
29657W        W90968  22.715  12.214   3.223
29658W        W90969   1.881  40.379   0.786
29659W        W90970  13.613   2.369   1.227
29660W        W90971   6.788  30.075   2.744
29661W        W90972  32.636  39.325   2.700
29662W        W90973   4.873  37.361   3.868
29663W        W90974  37.907  42.783  12.571
29664W        W90975  39.863  23.530  12.499
29665W        W90976   7.177  28.547   3.174
29666W        W90977  29.002  15.292  11.454
29667W        W90978  32.986  15.728   2.748
29668W        W90979  15.818  27.446  11.082
29669W        W90980  31.617  19.112  10.409
29670W        W90981  37.013  44.346   0.854
29671W        W90982  24.163  22.728  14.389
29672W        W90983  33.929  28.530   4.649
29673W        W90984   1.970  21.755  14.438
29674W        W90985  41.032  17.109   2.717
29675W        W90986  29.645  36.480   2.299
29676W        W90987   8.192   0.801  14.875
29677W        W90988   5.367  38.471  12.997
29678W        W90989  41.821   9.359  11.085
29679W        W90990  35.927  14.711  12.911
29680W        W90991  27.189  40.915   4.173
29681W        W90992  24.039  42.949   3.250
29682W        W90993  44.842  38.041   1.720
29683W        W90994  23.071   3.831  11.970
29684W        W90995  15.202  20.606  14.812
29685W        W90996  35.921  14.703  10.644
29686W        W90997   1.739  30.918  11.107
29687W        W90998   4.425  24.131  12.868
29688W        W90999  26.061  19.202  11.463
29689W        W91000   9.789  15.715   1.274
29690W        W91001  32.494  28.570  14.946
29691W        W91002   1.744   2.786  10.518
29692W        W91003  34.450  22.009   4.646
29693W        W91004  26.599  18.725   2.671
29694W        W91005  34.936  33.971   1.790
29695W        W91006  44.394  26.183  12.836
29696W        W91007   8.880  31.015  10.484
29697W        W91008  34.056  24.685  12.877
29698W        W91009  37.534  32.988   9.542
29699W        W91010   1.971  39.480  13.928
29700W        W91011  37.406  17.629   4.769
29701W        W91012   2.915  11.645   4.338
29702W        W91013  39.891  39.981  12.567
29703W        W91014  42.322  33.128  10.944
29704W        W91015  12.734   5.221   4.224
29705W        W91016   1.372  28.967   4.216
29706W        W91017  23.203  36.495  14.759
29707W        W91018  35.410  35.550   4.720
29708W        W91019  29.037  31.913  11.494
29709W        W91020  43.328   8.161   2.407
29710W        W91021  28.594   3.282  12.094
29711W        W91022   8.754  13.230   2.310
29712W        W91023  30.092  34.440  12.373
29713W        W91024  13.308  36.458  11.518
29714W        W91025  11.700  31.571  13.829
29715W        W91026   5.310   6.371   0.368
29716W        W91027   4.724  43.907  14.975
29717W        W91028  24.149   8.297   3.350
29718W        W91029  27.675  15.100   3.381
29719W        W91030   5.900  19.550   2.682
29720W        W91031   4.399  28.519  10.527
29721W        W91032  31.528  13.308   2.412
29722W        W91033   0.297  28.055   0.857
29723W        W91034  28.446  11.179  14.918
29724W        W91035   3.901  30.117  13.519
29725W        W91036  34.991  29.918   2.874
29726W        W91037  16.159  43.279  11.460
29727W        W91038  15.152  43.009  13.920
29728W        W91039  14.637  15.803   4.121
29729W        W91040  25.013   2.727  13.385
29730W        W91041   1.294  33.902   3.645
29731W        W91042  30.423  39.847   0.247
29732W        W91043   9.869  19.181  11.945
29733W        W91044   7.759  35.017   4.735
29734W        W91045  29.641  22.244   4.269
29735W        W91046  28.133  24.134   3.230
29736W        W91047  27.138  24.692   0.390
29737W        W91048  16.743  37.405  12.444
29738W        W91049  21.170  20.074  14.399
29739W        W91050   1.731  43.459  13.818
29740W        W91051  14.187  40.521   2.392
29741W        W91052  33.596  20.057   2.192
29742W        W91053  10.378  17.176  14.479
29743W        W91054  26.470   7.889  11.067
29744W        W91055   4.726   7.814   3.150
29745W        W91056   7.388   1.326  14.996
29746W        W91057   0.790  38.053   4.797
29747W        W91058   5.844  41.480   3.338
29748W        W91059  33.555  13.661  11.999
29749W        W91060   5.439  19.689   3.778
29750W        W91061  20.120  11.735   2.699
29751W        W91062  41.293  44.482  10.603
29752W        W91063  42.800  23.599  14.499
29753W        W91064  36.060   4.415  12.533
29754W        W91065   9.778  37.073   3.187
29755W        W91066  21.694  17.070  14.914
29756W        W91067  20.173  18.557  11.109
29757W        W91068   5.385  15.720  13.840
29758W        W91069  23.492  37.054   2.293
29759W        W91070  14.734   1.368   4.220
29760W        W91071  14.312  33.957  14.790
29761W        W91072  42.397  13.610   3.776
29762W        W91073   6.428  37.403  14.836
29763W        W91074   9.346  23.057  12.839
29764W        W91075  24.118  35.601   4.675
29765W        W91076  28.170   4.407   0.964
29766W        W91077  42.511  35.019  14.338
29767W        W91078  31.986  20.646   2.847
29768W        W91079  37.336  26.002  12.898
29769W        W91080   7.406  44.336   2.387
29770W        W91081  27.482  22.672  11.387
29771W        W91082  11.676  18.214   1.410
29772W        W91083   7.690  39.055   4.749
29773W        W91084  31.562  35.498   3.387
29774W        W91085  21.041  19.268  14.439
29775W        W91086   5.830  44.866   4.232
29776W        W91087  39.823  11.626   3.174
29777W        W91088  33.531  44.307   3.801
29778W        W91089   0.786  35.506  11.511
29779W        W91090   2.784  23.011   2.233
29780W        W91091   8.292  21.077   9.958
29781W        W91092  33.479  42.981  13.853
29782W        W91093   6.764  14.778  11.575
29783W        W91094   8.879   9.704  11.999
29784W        W91095  17.263   9.662   3.850
29785W        W91096   0.404  42.509   2.334
29786W        W91097  31.413  17.086  12.421
29787W        W91098   0.920   1.808  14.777
29788W        W91099  29.926  18.202  12.050
29789W        W91100  23.611  12.271  11.033
29790W        W91101  24.513  18.637   0.920
29791W        W91102  39.954  19.167   4.272
29792W        W91103  10.664  24.007  14.018
29793W        W91104   0.969  38.005  12.020
29794W        W91105   9.257  26.017  10.988
29795W        W91106  14.675  32.527   1.399
29796W        W91107   8.698  36.519   2.818
29797W        W91108  31.576  39.414   1.812
29798W        W91109  21.543  32.042  13.382
29799W        W91110  44.963  16.592   0.257
29800W        W91111  13.754   4.292  12.033
29801W        W91112   1.820  29.008  12.395
29802W        W91113   0.930  26.457  13.514
29803W        W91114  25.015  32.457   4.780
29804W        W91115  17.624  42.948  11.606
29805W        W91116  19.237  38.562   1.887
29806W        W91117  18.761  41.304  12.368
29807W        W91118   0.468   5.785   0.409
29808W        W91119  43.864  33.037   4.781
29809W        W91120  36.489  16.711   0.889
29810W        W91121  37.981  37.499   3.199
29811W        W91122  27.975  14.321  13.835
29812W        W91123  12.171  20.695  14.286
29813W        W91124  12.325  40.327   4.651
29814W        W91125  18.698  38.332  11.422
29815W        W91126  38.521  41.972  10.613
29816W        W91127  16.691  28.525  12.387
29817W        W91128  34.429  29.527   3.197
29818W        W91129  30.919   6.845  10.409
29819W        W91130  14.697  22.700   1.213
29820W        W91131  19.243  22.649   3.264
29821W        W91132  21.706  31.097   0.308
29822W        W91133   3.448   9.210  11.608
29823W        W91134  34.058  21.549  11.500
29824W        W91135  27.649  35.601   3.688
29825W        W91136   0.849   6.282   4.670
29826W        W91137  32.412   3.723  13.040
29827W        W91138  17.239  39.925   2.207
29828W        W91139   3.726  28.562  14.410
29829W        W91140  10.222  31.055  11.482
29830W        W91141  11.183  17.123   2.295
29831W        W91142  29.468  19.647   0.387
29832W        W91143  14.154  44.766  14.001
29833W        W91144  23.001  43.318   3.169
29834W        W91145   2.773   4.734  14.882
29835W        W91146  25.568   5.884   3.289
29836W        W91147  21.698  10.315   1.920
29837W        W91148  12.346  31.102   4.696
29838W        W91149  26.131  41.021  12.562
29839W        W91150  43.849   6.292  12.344
29840W        W91151  13.351  38.027   2.208
29841W        W91152  25.002  12.834  12.830
29842W        W91153  32.066  16.151  14.889
29843W        W91154  15.668  32.404   2.800
29844W        W91155  40.381  32.025  11.004
29845W        W91156  28.559  39.947   2.249
29846W        W91157  15.710   3.806   1.444
29847W        W91158  29.002   1.765  13.445
29848W        W91159  14.142  15.276  14.464
29849W        W91160  20.649  34.989  14.962
29850W        W91161  14.628  14.738  14.430
29851W        W91162  38.925  29.109   1.796
29852W        W91163  23.017  43.505   0.431
29853W        W91164  14.123  34.060  11.388
29854W        W91165   7.377  35.437  11.110
29855W        W91166  23.998  42.977  12.483
29856W        W91167   5.858   6.732  10.915
29857W        W91168  38.949  11.333  10.943
29858W        W91169  43.467   2.234   4.230
29859W        W91170   4.699  14.602   4.754
29860W        W91171   0.302  26.116  11.468
29861W        W91172  41.986  30.106   0.789
29862W        W91173  43.013   2.389   1.740
29863W        W91174  22.597  27.078  14.798
29864W        W91175  35.571  43.325  11.924
29865W        W91176  32.580  30.098   1.259
29866W        W91177  18.175   4.359   2.748
29867W        W91178  13.702  32.532  13.531
29868W        W91179   1.465   5.278  11.543
29869W        W91180  15.146  19.707  10.896
29870W        W91181   6.359  19.560   0.888
29871W        W91182  33.402  20.565  13.044
29872W        W91183  42.291   1.940  12.020
29873W        W91184  40.467  27.573   1.316
29874W        W91185  36.390  39.042   3.785
29875W        W91186  27.038   6.389   3.835
29876W        W91187   9.247  27.573   0.303
29877W        W91188   6.388   4.315  11.077
29878W        W91189  20.591  10.793  15.000
29879W        W91190   7.355  14.723   4.303
29880W        W91191  41.954  16.075  13.519
29881W        W91192  12.294  35.078  10.446
29882W        W91193  17.628   9.347   3.727
29883W        W91194  11.754  35.931   1.930
29884W        W91195  14.127  34.557   0.451
29885W        W91196  20.137   6.732   3.278
29886W        W91197  40.359  42.314  11.424
29887W        W91198  16.777  25.105   3.810
29888W        W91199   0.447   5.202  11.564
29889W        W91200  21.571  40.029   2.203
29890W        W91201  18.696   1.741   4.140
29891W        W91202  20.272  11.729  10.575
29892W        W91203  15.606  24.556  13.052
29893W        W91204  21.517  20.118  12.532
29894W        W91205  35.490  24.698  11.949
29895W        W91206   2.449  25.140   1.761
29896W        W91207  25.539  19.080   1.217
29897W        W91208  42.300  35.883   3.182
29898W        W91209  28.459  36.067  11.085
29899W        W91210  27.454  30.534   2.227
29900W        W91211  29.165  24.134   0.461
29901W        W91212  42.388   3.456  13.957
29902W        W91213  43.889  11.287   1.795
29903W        W91214   3.381  30.603   0.365
29904W        W91215   7.703  33.929  13.874
29905W        W91216  15.192  42.819  14.383
29906W        W91217   9.305  11.220  13.522
29907W        W91218  44.464  39.356   4.806
29908W        W91219  35.427   3.723   3.303
29909W        W91220   5.898  23.080   2.402
29910W        W91221  37.565  15.700  11.028
29911W        W91222  34.095  10.760   0.753
29912W        W91223  42.475  14.636   2.260
29913W        W91224  38.060  25.587  11.976
29914W        W91225   1.257   3.460   3.285
29915W        W91226  22.505  15.605   2.261
29916W        W91227   1.262  36.421  13.975
29917W        W91228  14.755  19.253   2.841
29918W        W91229   3.294  34.910   1.406
29919W        W91230  44.439  21.667  14.019
29920W        W91231  14.251  27.100   2.323
29921W        W91232   3.250  39.365  12.029
29922W        W91233  16.238   1.312  11.421
29923W        W91234  41.346  19.238   4.354
29924W        W91235  38.828  23.207   9.982
29925W        W91236  40.897  37.410   2.843
29926W        W91237  38.541  32.966  13.838
29927W        W91238   4.708   2.840   3.344
29928W        W91239  23.618  12.338  10.418
29929W        W91240  44.441  39.437   3.658
29930W        W91241  31.911  10.177  10.429
29931W        W91242  12.181  13.197   2.305
29932W        W91243  41.921   2.825   3.846
29933W        W91244  15.210  18.786  12.839
29934W        W91245  26.496  16.118   2.321
29935W        W91246   1.822  38.423   0.762
29936W        W91247  33.938   2.775   1.444
29937W        W91248  41.313  13.642  14.382
29938W        W91249  12.771  42.411   4.626
29939W        W91250  19.110  40.040   9.663
29940W        W91251   9.382  31.556  13.441
29941W        W91252  42.513  36.944   1.917
29942W        W91253  24.581  26.504   0.753
29943W        W91254  35.359  15.238  12.377
29944W        W91255  18.199  18.586   5.188
29945W        W91256   6.884  34.389  13.060
29946W        W91257   8.756  10.235   0.457
29947W        W91258  10.265   7.387   2.272
29948W        W91259  23.003   0.903   1.838
29949W        W91260  42.410  29.569  12.564
29950W        W91261  38.550  21.621   1.724
29951W        W91262  19.123  24.561   1.342
29952W        W91263  12.837   8.390  10.565
29953W        W91264   3.307   4.348   1.422
29954W        W91265  10.759  42.316  14.836
29955W        W91266  25.180  44.302   0.768
29956W        W91267   1.270  28.148  11.871
29957W        W91268  38.497  39.973  11.441
29958W        W91269  21.158  29.052   4.151
29959W        W91270  38.832  29.971  14.466
29960W        W91271  25.115  10.643  12.555
29961W        W91272  18.247  41.345  12.380
29962W        W91273   3.277  41.489  11.398
29963W        W91274  33.040  43.334  11.861
29964W        W91275  24.073  25.609   1.286
29965W        W91276  43.972  34.531  12.990
29966W        W91277  26.613  20.061  13.997
29967W        W91278  35.962   7.393  12.011
29968W        W91279   8.354  33.532   4.159
29969W        W91280   0.915  29.943  14.941
29970W        W91281   0.851  24.039   3.658
29971W        W91282  31.061  28.590   0.455
29972W        W91283   8.671  36.402  13.798
29973W        W91284  38.021  16.209   4.749
29974W        W91285  34.982  25.169   1.392
29975W        W91286  33.446   7.726  11.995
29976W        W91287  12.736  22.209   4.749
29977W        W91288   5.827  30.504  11.496
29978W        W91289  17.790  32.919   2.408
29979W        W91290   0.927  39.019   4.795
29980W        W91291  38.472  43.396  11.893
29981W        W91292  28.650  14.334  14.348
29982W        W91293  23.069  44.932   4.196
29983W        W91294   1.859  11.627  14.760
29984W        W91295   9.215   8.862  11.597
29985W        W91296  40.919  17.683  13.973
29986W        W91297   1.410   0.382   4.700
29987W        W91298  24.704  21.126   3.330
29988W        W91299  14.218  41.420   2.872
29989W        W91300  36.588  18.692  11.974
29990W        W91301  20.756  17.099   2.896
29991W        W91302   3.907   0.451  13.028
29992W        W91303  37.422  10.655   1.443
29993W        W91304  42.777  39.386  14.908
29994W        W91305  24.028  44.350   2.248
29995W        W91306  41.836  22.155  14.497
29996W        W91307  39.929  22.181   3.207
29997W        W91308  31.033  11.266   4.278
29998W        W91309  31.415  37.925  11.009
29999W        W91310   3.438   2.377  10.957
30000W        W91311  42.792   3.902   1.273
30001W        W91312  16.085  12.784  13.791
30002W        W91313  31.551   5.393   9.930
30003W        W91314  34.008  17.251  14.972
30004W        W91315  24.994  11.632  10.993
30005W        W91316  13.663  42.290   1.934
30006W        W91317  24.195  32.932   4.643
30007W        W91318  26.991  28.988   2.336
30008W        W91319  37.029  43.780   4.634
30009W        W91320  16.249  39.390  14.790
30010W        W91321  24.119  41.995  10.897
30011W        W91322  30.596  36.844  14.931
30012W        W91323   2.797  24.181  11.957
30013W        W91324  22.091  36.370   9.936
30014W        W91325  24.212  32.890   5.308
30015W        W91326  34.517   8.249  11.933
30016W        W91327  11.640  28.046  12.443
30017W        W91328  21.577  27.537   4.204
30018W        W91329  19.044  21.022   2.833
30019W        W91330  19.175  13.738   3.803
30020W        W91331  43.920  10.712  13.385
30021W        W91332  27.144   1.736   1.729
30022W        W91333   9.709  44.769   2.196
30023W        W91334  13.272  29.460  11.443
30024W        W91335  42.943  35.957   3.782
30025W        W91336  24.197  12.734  12.870
30026W        W91337  17.188  31.463  14.445
30027W        W91338  24.648  35.446  14.774
30028W        W91339   9.667  18.159  10.570
30029W        W91340  30.993  39.384   1.883
30030W        W91341   1.338  22.561   3.175
30031W        W91342  36.891  40.922  11.437
30032W        W91343  43.810   6.769  12.051
30033W        W91344   8.202  30.922   1.792
30034W        W91345  41.014  36.452  13.461
30035W        W91346  22.170  35.992   1.348
30036W        W91347  43.360   7.374  10.617
30037W        W91348   3.926  38.064  12.031
30038W        W91349  10.634  29.040  13.951
30039W        W91350  40.345  38.332  13.821
30040W        W91351  11.740  16.305  11.110
30041W        W91352  35.942  23.081  13.971
30042W        W91353  15.751   7.873   5.311
30043W        W91354  34.383  41.327   0.745
30044W        W91355  21.575   5.213  12.416
30045W        W91356  13.292   6.250  14.459
30046W        W91357  29.983  24.039   2.859
30047W        W91358  34.023  39.928  11.933
30048W        W91359  29.650  11.226   0.916
30049W        W91360  16.180  11.273  14.465
30050W        W91361  44.392  18.569  11.430
30051W        W91362  21.230   9.769   3.222
30052W        W91363  27.550  40.525   0.924
30053W        W91364  20.270  11.866   2.381
30054W        W91365  31.532  15.751   2.891
30055W        W91366  35.430  33.036   4.140
30056W        W91367  12.128  33.052  13.505
30057W        W91368  39.556  24.140  12.542
30058W        W91369  30.051  31.571   1.823
30059W        W91370  33.092  32.988   0.726
30060W        W91371  13.129  38.041  12.927
30061W        W91372   3.366  30.651   0.966
30062W        W91373  32.980  29.969  14.845
30063W        W91374  22.545  42.808   1.383
30064W        W91375  40.512  34.921  10.482
30065W        W91376  20.599  35.079   0.484
30066W        W91377   0.470  39.065   4.828
30067W        W91378  21.144  24.980   9.926
30068W        W91379  21.719   2.456   4.312
30069W        W91380  12.176  14.147   1.799
30070W        W91381   9.662  20.109   0.857
30071W        W91382  36.572  29.988  10.041
30072W        W91383  18.741   5.370  14.476
30073W        W91384   1.887  39.525  11.090
30074W        W91385   3.933  36.417   2.381
30075W        W91386  42.912  11.209   4.162
30076W        W91387  29.087   6.834  14.926
30077W        W91388   4.347  27.111   0.876
30078W        W91389  34.471   8.162  14.017
30079W        W91390  23.597   7.780   3.372
30080W        W91391  14.290   8.857   0.428
30081W        W91392   9.881  31.492   3.376
30082W        W91393   0.365  31.510  13.881
30083W        W91394  32.528   4.245  13.465
30084W        W91395  30.476  11.181  10.607
30085W        W91396  28.477   7.909  12.040
30086W        W91397  41.896   0.987  10.968
30087W        W91398  44.308  21.216  12.538
30088W        W91399   1.783  39.040   0.295
30089W        W91400  31.926   2.255  12.462
30090W        W91401  41.363  20.559   3.698
30091W        W91402  42.785   3.378  12.468
30092W        W91403  23.146  33.444   1.880
30093W        W91404  32.564   3.397  11.430
30094W        W91405  23.199  26.980  13.458
30095W        W91406   6.238  42.295  10.944
30096W        W91407   9.249  11.646  12.493
30097W        W91408  25.154  34.075   4.299
30098W        W91409   2.401  36.442  13.919
30099W        W91410   9.213  37.350   4.120
30100W        W91411  14.105  29.008   4.137
30101W        W91412  42.353   8.162   3.277
30102W        W91413   4.796   9.215   0.382
30103W        W91414  15.587  44.493   2.243
30104W        W91415  11.230  27.480  13.923
30105W        W91416  35.936  39.869   5.174
30106W        W91417   0.399  13.305   3.166
30107W        W91418  35.861  39.976   3.801
30108W        W91419  13.791  36.078   4.782
30109W        W91420  34.088  15.610   4.604
30110W        W91421  41.487   2.362   0.781
30111W        W91422   1.357  10.225   1.245
30112W        W91423  14.285  24.598  11.942
30113W        W91424  22.034  31.526   2.412
30114W        W91425  26.664   8.350   2.384
30115W        W91426  41.291   8.776   3.234
30116W        W91427  43.001  44.320   3.682
30117W        W91428  28.019  11.716   2.298
30118W        W91429  34.030  13.351   0.736
30119W        W91430   5.921   6.866   2.193
30120W        W91431  43.289  25.527   2.378
30121W        W91432  37.370  44.901  13.048
30122W        W91433  35.098  19.168   0.827
30123W        W91434  22.688  40.804   3.838
30124W        W91435   3.374  19.563   1.262
30125W        W91436  11.834  34.911  10.567
30126W        W91437  25.551  28.450   4.294
30127W        W91438  16.633   4.725   1.428
30128W        W91439  37.084  20.529  13.876
30129W        W91440  25.148  36.351   4.746
30130W        W91441  27.051  17.150   1.451
30131W        W91442  25.541  44.831   1.361
30132W        W91443  37.424  40.928  10.959
30133W        W91444  24.599  32.997   3.313
30134W        W91445   7.323   3.941  13.490
30135W        W91446  21.219  25.614   3.797
30136W        W91447  30.512  10.855  13.386
30137W        W91448  30.569   9.683   4.311
30138W        W91449   2.230  23.574  10.583
30139W        W91450  31.909   0.470   0.352
30140W        W91451  10.238  32.546   4.698
30141W        W91452  37.564  23.627   2.315
30142W        W91453  38.403  28.676   4.176
30143W        W91454   0.804   7.339   0.753
30144W        W91455  16.704  37.397  12.006
30145W        W91456  41.537   7.816   4.704
30146W        W91457  16.163  41.789   2.898
30147W        W91458  12.665  12.121  13.005
30148W        W91459   7.413  13.648  14.900
30149W        W91460  13.732   3.399  13.314
30150W        W91461  36.893  17.218   2.366
30151W        W91462  17.758   4.881  13.871
30152W        W91463  17.209   1.827   1.799
30153W        W91464  20.257   0.957   4.765
30154W        W91465  34.019  35.979  14.954
30155W        W91466   5.319  28.565   4.192
30156W        W91467  13.153   3.241  13.400
30157W        W91468   1.408   8.323  10.979
30158W        W91469  28.096   7.370  10.630
30159W        W91470  23.041  10.851  14.002
30160W        W91471   5.281  27.577  10.590
30161W        W91472  10.265  17.783   4.650
30162W        W91473  17.633   7.262   1.868
30163W        W91474   6.279  14.641   2.739
30164W        W91475  30.092   9.218  10.107
30165W        W91476   6.223  24.484   4.719
30166W        W91477  19.122  30.490   4.316
30167W        W91478  14.616  22.512   4.667
30168W        W91479   6.682  44.366  12.551
30169W        W91480  27.182  32.124  13.006
30170W        W91481  24.661  21.663  11.912
30171W        W91482  35.576  16.664  11.089
30172W        W91483  15.643  15.273  13.522
30173W        W91484  22.740   9.863  10.593
30174W        W91485  25.999  22.130   0.379
30175W        W91486  18.685  22.022   1.219
30176W        W91487  12.346  39.328   1.352
30177W        W91488  34.536   0.425  11.522
30178W        W91489  14.136  18.757   3.156
30179W        W91490   3.244  25.070   2.695
30180W        W91491   0.288   6.891  13.812
30181W        W91492  22.025  17.767   2.301
30182W        W91493  14.340  32.962   0.911
30183W        W91494  27.176  11.764   1.228
30184W        W91495  21.228  13.197  13.936
30185W        W91496   8.200   4.910  12.343
30186W        W91497  34.045  39.495   3.151
30187W        W91498  15.265   7.668  12.053
30188W        W91499  33.912  13.763   1.314
30189W        W91500  35.550  13.126   1.254
30190W        W91501  32.117  39.314  14.418
30191W        W91502  22.694   0.885   0.954
30192W        W91503   6.235  42.957   4.338
30193W        W91504  26.165  21.131   3.345
30194W        W91505  40.809  13.226   4.248
30195W        W91506  15.621  40.967   0.961
30196W        W91507  44.442  14.675   1.327
30197W        W91508  35.481  43.809   0.872
30198W        W91509  39.905  37.855  14.298
30199W        W91510  37.053  15.159   4.773
30200W        W91511  38.476   2.930  10.895
30201W        W91512  42.491   5.691  14.316
30202W        W91513  20.097  15.743  13.381
30203W        W91514  25.631  11.835  11.941
30204W        W91515  17.104  12.297  13.469
30205W        W91516   0.360  39.365  13.376
30206W        W91517  12.745  36.084  11.399
30207W        W91518  21.686  16.743  10.050
30208W        W91519   3.398  43.385   4.694
30209W        W91520   8.679  23.706   3.209
30210W        W91521  43.327   1.940   0.782
30211W        W91522  33.538  38.034  14.922
30212W        W91523  40.806  37.994   3.268
30213W        W91524  13.787   4.727   4.702
30214W        W91525  17.557  13.700   0.870
30215W        W91526   2.369   1.837   2.180
30216W        W91527   9.243   8.197   3.758
30217W        W91528   2.265  10.843  11.028
30218W        W91529  12.251   3.228  14.949
30219W        W91530   2.825  38.895   3.768
30220W        W91531  34.917  14.677   2.881
30221W        W91532  29.997  14.251   3.358
30222W        W91533  32.596  21.257  13.329
30223W        W91534  21.710  36.850  11.901
30224W        W91535  18.183  11.685   3.246
30225W        W91536  17.065  10.863   0.774
30226W        W91537  23.123  11.307   4.186
30227W        W91538  29.508  17.182  12.065
30228W        W91539  15.155   1.837   1.813
30229W        W91540  34.580  29.138  11.547
30230W        W91541  30.100  16.318  12.929
30231W        W91542  32.916  11.296   3.272
30232W        W91543  39.334  26.136  11.086
30233W        W91544   7.183   3.419  10.593
30234W        W91545  43.273  31.502  11.406
30235W        W91546  19.230  10.742  14.018
30236W        W91547  39.931  33.526  14.773
30237W        W91548   4.798  13.600  10.997
30238W        W91549  31.921  19.692  10.566
30239W        W91550  31.991  17.587   2.697
30240W        W91551   8.198  32.018  14.799
30241W        W91552   0.856  19.652   3.366
30242W        W91553  30.436   0.793   2.776
30243W        W91554   0.251   7.391  12.411
30244W        W91555  41.978  34.973  10.928
30245W        W91556  31.500  20.730  10.951
30246W        W91557   8.710  21.595   2.686
30247W        W91558  11.631  31.000  13.035
30248W        W91559  31.050   7.719   0.787
30249W        W91560  17.192  41.337   5.147
30250W        W91561  17.108  21.512   0.245
30251W        W91562  30.564  17.674  12.911
30252W        W91563  33.051  24.556  11.017
30253W        W91564   6.873   9.253  11.588
30254W        W91565  44.322  16.714   0.742
30255W        W91566  37.001  11.711  13.869
30256W        W91567  27.014  40.049   0.397
30257W        W91568  16.208   7.888   1.796
30258W        W91569  15.316   9.680   1.338
30259W        W91570  17.236   1.900   5.266
30260W        W91571  30.499  43.771   3.845
30261W        W91572  14.697   1.766   2.182
30262W        W91573  22.719  24.226   2.329
30263W        W91574  20.672  29.599   2.762
30264W        W91575   4.699  33.887   0.736
30265W        W91576  40.497  33.990  14.418
30266W        W91577   7.255  28.094  10.532
30267W        W91578   3.339  31.552   1.826
30268W        W91579   5.894  14.208   9.464
30269W        W91580  35.386   9.739   1.733
30270W        W91581   6.321   7.413   0.340
30271W        W91582  19.559   3.847  13.508
30272W        W91583  10.758   1.336  11.094
30273W        W91584   3.352  12.700  12.000
30274W        W91585  26.002  10.151  14.864
30275W        W91586  13.156   1.910  11.520
30276W        W91587  33.894  36.074  11.862
30277W        W91588  40.990  30.645  12.836
30278W        W91589  26.534   5.319   4.282
30279W        W91590  33.077  41.338   0.941
30280W        W91591  10.287  28.164   0.774
30281W        W91592   9.647   2.766  13.013
30282W        W91593  44.832  24.485   3.640
30283W        W91594   3.234  10.648  13.885
30284W        W91595  15.207  28.628  14.861
30285W        W91596  14.743  35.481  11.882
30286W        W91597  30.008  27.535  11.573
30287W        W91598  26.137   7.893   4.646
30288W        W91599   2.950  15.602   0.408
30289W        W91600  16.779  19.190  14.009
30290W        W91601  39.460   2.735   2.294
30291W        W91602   2.765   2.348   1.395
30292W        W91603   4.342  14.619  13.947
30293W        W91604   8.333  25.629   3.638
30294W        W91605   5.355  15.304  14.292
30295W        W91606   5.390   7.268   0.755
30296W        W91607  42.937  38.992  13.959
30297W        W91608  16.761  25.154   2.742
30298W        W91609  29.567  27.187  14.362
30299W        W91610  37.905  37.443   1.248
30300W        W91611  11.747  35.477  10.444
30301W        W91612  22.093  29.424   4.795
30302W        W91613   2.784  40.534   2.882
30303W        W91614  43.906  24.152   4.759
30304W        W91615  39.506  31.472   4.262
30305W        W91616  28.154   9.773   1.278
30306W        W91617  38.408  18.223   4.719
30307W        W91618  29.555  15.110  12.412
30308W        W91619   3.357   7.893  11.606
30309W        W91620  23.703  24.204   1.853
30310W        W91621   2.451  23.710  11.115
30311W        W91622  16.574  31.150   0.793
30312W        W91623  24.162  15.693  11.600
30313W        W91624  13.699  26.156   0.468
30314W        W91625   8.245  35.418   0.253
30315W        W91626  15.688  28.065   3.278
30316W        W91627   7.758   8.819   5.245
30317W        W91628  38.873   0.926   1.295
30318W        W91629  44.291   6.893   4.331
30319W        W91630  20.681  15.190  11.489
30320W        W91631  25.056   5.335   2.809
30321W        W91632  20.153  36.080   3.201
30322W        W91633  25.650  13.312   2.270
30323W        W91634   6.326  33.021   0.391
30324W        W91635  23.724  15.796  10.520
30325W        W91636   6.849  23.569   4.718
30326W        W91637  25.668   0.865  13.046
30327W        W91638  41.517  28.550  13.501
30328W        W91639  21.052  19.760   2.760
30329W        W91640  25.540  44.503   2.883
30330W        W91641  21.676  27.594  10.967
30331W        W91642  11.655  28.614  10.997
30332W        W91643   4.336  36.434  14.488
30333W        W91644  22.722  28.500  13.485
30334W        W91645  35.399  26.024   1.432
30335W        W91646   5.797  15.088  14.763
30336W        W91647  18.095  44.420   0.880
30337W        W91648  21.080   9.684  12.062
30338W        W91649  27.567  16.580   2.196
30339W        W91650  23.691  15.130  13.984
30340W        W91651  31.104   6.684   0.475
30341W        W91652  13.266  42.468  11.447
30342W        W91653  32.549   2.887   2.195
30343W        W91654  31.056  43.482   0.370
30344W        W91655   5.279  26.533   0.802
30345W        W91656  15.321   4.433  13.042
30346W        W91657   9.370  19.263  12.480
30347W        W91658  44.338  40.839  11.504
30348W        W91659   0.250  25.064   3.244
30349W        W91660   2.937  21.555   4.300
30350W        W91661  42.920  44.900  14.800
30351W        W91662   6.834  36.014  10.465
30352W        W91663  30.989  44.971  14.356
30353W        W91664  31.090  23.540   4.757
30354W        W91665  33.561   9.204  12.370
30355W        W91666  23.609  13.225   4.793
30356W        W91667  30.538  36.967  14.343
30357W        W91668   3.296  17.097  13.510
30358W        W91669  31.926  29.493   4.153
30359W        W91670  37.392   3.404  11.955
30360W        W91671   1.950  22.013  13.833
30361W        W91672  23.601   8.689  13.339
30362W        W91673  18.698   9.748   3.831
30363W        W91674  22.168  28.956   1.930
30364W        W91675  40.027  36.945   2.819
30365W        W91676   3.265  12.733   1.819
30366W        W91677   6.412  37.009  10.155
30367W        W91678  13.149   3.843  14.960
30368W        W91679  25.600  31.915   0.274
30369W        W91680  39.874  26.498  13.004
30370W        W91681  24.054  13.219   4.608
30371W        W91682  25.469   9.791  12.069
30372W        W91683  24.216   6.731  14.312
30373W        W91684  36.412   9.663  14.966
30374W        W91685  41.923  28.645   4.287
30375W        W91686  26.608   1.440  10.957
30376W        W91687  22.098  20.562  12.434
30377W        W91688  34.987  37.862  12.339
30378W        W91689  27.996  21.056  13.388
30379W        W91690  38.393  42.478   2.249
30380W        W91691  37.870  16.676  14.828
30381W        W91692   4.238  23.011  13.362
30382W        W91693   5.839   2.941   3.170
30383W        W91694   1.841  29.434   2.314
30384W        W91695   5.893   3.401   3.262
30385W        W91696  19.779  32.055   0.278
30386W        W91697  36.928  43.858  10.568
30387W        W91698   7.860  18.674   0.362
30388W        W91699  29.147   1.320   0.871
30389W        W91700  10.678  23.563  12.850
30390W        W91701  17.728  18.255   2.333
30391W        W91702  30.135   2.440  12.051
30392W        W91703  32.914  36.911  12.406
30393W        W91704  15.727  39.018  13.494
30394W        W91705   5.415  30.014   2.277
30395W        W91706  44.765  37.397  14.906
30396W        W91707  11.251   4.822  10.051
30397W        W91708  33.547   7.388  11.088
30398W        W91709  29.100   7.383  13.808
30399W        W91710  26.670  17.145   3.215
30400W        W91711  26.679  26.562  11.512
30401W        W91712   8.257  37.450   1.809
30402W        W91713  14.596  41.506  10.933
30403W        W91714  12.651   0.748   3.699
30404W        W91715  27.089   5.697   2.878
30405W        W91716  44.386  13.290  13.528
30406W        W91717   9.349  12.265  12.032
30407W        W91718   8.776  17.263  13.424
30408W        W91719  12.640  10.382   2.322
30409W        W91720  19.748  22.165  13.328
30410W        W91721   5.310   1.960   3.721
30411W        W91722  17.213   2.819  12.825
30412W        W91723   3.942  22.717  13.855
30413W        W91724  36.415  19.769  12.485
30414W        W91725  24.223   3.276   0.246
30415W        W91726   3.813   0.257   4.130
30416W        W91727   0.376  38.949  14.454
30417W        W91728  36.949  23.534   4.290
30418W        W91729  25.980  19.254  11.083
30419W        W91730  35.379  13.818   1.788
30420W        W91731  26.133  20.629  14.013
30421W        W91732  10.689  40.007   3.148
30422W        W91733  33.529  30.433   1.318
30423W        W91734   9.217   2.939  11.067
30424W        W91735  18.059  44.926   4.660
30425W        W91736  40.548  31.539  10.968
30426W        W91737  34.576  12.166  11.006
30427W        W91738   8.711  15.616   3.710
30428W        W91739   3.433  23.051  10.605
30429W        W91740  35.953  22.009  12.019
30430W        W91741  44.865  19.079  11.914
30431W        W91742  25.661   2.268  11.982
30432W        W91743  28.160  22.650   4.335
30433W        W91744  26.602  37.906  13.820
30434W        W91745  12.711  30.144   3.645
30435W        W91746  23.080   7.317   4.717
30436W        W91747  18.119  26.998  10.930
30437W        W91748   0.473  22.563   2.892
30438W        W91749   6.847   8.390  11.484
30439W        W91750  38.871   5.414   2.196
30440W        W91751  42.406  13.792  12.060
30441W        W91752   4.254  11.302   3.261
30442W        W91753   4.448   3.289   1.407
30443W        W91754  12.314  23.182   0.760
30444W        W91755   2.781   3.222  14.030
30445W        W91756  41.970   6.330   4.166
30446W        W91757  16.305  27.582  14.502
30447W        W91758  16.571  30.614   3.690
30448W        W91759   2.333  25.076   3.798
30449W        W91760  20.657   1.943   1.897
30450W        W91761  20.550  36.453  11.470
30451W        W91762  16.124  23.605  13.525
30452W        W91763  42.950  18.125  11.427
30453W        W91764  14.779  17.676  12.377
30454W        W91765  37.986  11.791   2.707
30455W        W91766   1.266  12.336  11.106
30456W        W91767   1.299   1.338   4.225
30457W        W91768  27.534  29.163   0.744
30458W        W91769  42.887  12.171   0.827
30459W        W91770  20.256   0.912   3.201
30460W        W91771  41.336   3.364  10.961
30461W        W91772   7.796  14.622  10.523
30462W        W91773  27.085   4.919  10.919
30463W        W91774  31.934  29.116  13.908
30464W        W91775   2.923  27.090   0.247
30465W        W91776  30.145  29.626   4.272
30466W        W91777  26.689  38.335  10.572
30467W        W91778  22.035  16.659   4.607
30468W        W91779  13.294  18.124   3.172
30469W        W91780  21.708  20.701  11.935
30470W        W91781  33.584   5.287   3.722
30471W        W91782   9.228  18.243   1.266
30472W        W91783  43.895  22.563   3.791
30473W        W91784  17.089  37.880  13.970
30474W        W91785  28.126  13.350  13.035
30475W        W91786  44.308   1.347   3.373
30476W        W91787  37.420  32.601  14.967
30477W        W91788   2.737  20.203   1.751
30478W        W91789  10.835   5.774  10.917
30479W        W91790   3.907  30.974   3.764
30480W        W91791   8.204  40.315   2.768
30481W        W91792  34.479  23.626   2.281
30482W        W91793   6.842   4.787  14.931
30483W        W91794  30.035   9.851  11.562
30484W        W91795  21.713  41.021   2.367
30485W        W91796   5.785  23.621   4.626
30486W        W91797  29.564  18.724   4.146
30487W        W91798  38.346  15.612  11.048
30488W        W91799  18.127  40.898   5.124
30489W        W91800  26.107  14.190   3.300
30490W        W91801  23.543  37.057   0.894
30491W        W91802  43.482  44.870  13.322
30492W        W91803   7.267  13.137   0.879
30493W        W91804  32.582  35.517   3.796
30494W        W91805  33.565   4.721   3.728
30495W        W91806   9.774  10.216   4.199
30496W        W91807   7.197  26.606   0.780
30497W        W91808  42.445   1.264  14.899
30498W        W91809   0.875  17.208   3.320
30499W        W91810  36.015  21.105  11.492
30500W        W91811  25.199  30.946   3.162
30501W        W91812   0.857   7.825   1.260
30502W        W91813   7.305  29.536   1.794
30503W        W91814  11.699  44.314  11.612
30504W        W91815  15.148  22.077   4.192
30505W        W91816   7.172   5.832  11.903
30506W        W91817  18.173   0.481  14.423
30507W        W91818  21.158  25.029   2.851
30508W        W91819  42.461  16.222  13.453
30509W        W91820  42.929  35.005  10.473
30510W        W91821  35.526  31.092   3.175
30511W        W91822  23.190  15.655   3.871
30512W        W91823  16.615  42.819  14.972
30513W        W91824  28.470   1.731  13.931
30514W        W91825  38.561  30.468   2.243
30515W        W91826   5.436  22.600  13.919
30516W        W91827   4.928  25.689  12.908
30517W        W91828  41.037  37.999   4.604
30518W        W91829  40.017  40.422  11.030
30519W        W91830  30.431  20.711   3.152
30520W        W91831  16.582  13.183   1.817
30521W        W91832   1.417  18.164   4.267
30522W        W91833   9.353  32.118  14.950
30523W        W91834  10.306  28.134   1.436
30524W        W91835   3.228  38.411  10.078
30525W        W91836   0.365  20.257   2.856
30526W        W91837   5.433  42.369   3.270
30527W        W91838  36.888  17.606  12.944
30528W        W91839  41.532  18.216   0.353
30529W        W91840  25.207  17.709   3.214
30530W        W91841  20.078  19.610   4.322
30531W        W91842  10.783   3.939   4.728
30532W        W91843  10.220   2.273  14.919
30533W        W91844  43.313   3.790   4.333
30534W        W91845  43.809  30.564  13.495
30535W        W91846  23.151  39.939  11.107
30536W        W91847  12.356  16.190  13.831
30537W        W91848  18.680  19.262  14.811
30538W        W91849   5.206  17.151   9.445
30539W        W91850  26.981  29.539   3.272
30540W        W91851  31.561  29.019   0.441
30541W        W91852   2.823  25.014  11.493
30542W        W91853  28.640   5.752   0.345
30543W        W91854  26.593  11.647   0.859
30544W        W91855  15.582  42.946  13.364
30545W        W91856  40.303  37.930  14.906
30546W        W91857  25.542   5.847  10.932
30547W        W91858  21.224  27.500   3.381
30548W        W91859  29.108  24.605  13.312
30549W        W91860  35.524   0.872   1.303
30550W        W91861  43.809  26.041   4.248
30551W        W91862  39.450  31.629   3.636
30552W        W91863   3.348  40.911  11.455
30553W        W91864   8.163  12.116   3.261
30554W        W91865  38.993  43.907   1.761
30555W        W91866  21.131  11.830  12.496
30556W        W91867  27.171   8.850  11.875
30557W        W91868  12.718  29.101  13.828
30558W        W91869  31.126   2.247   2.758
30559W        W91870   1.279  16.112   0.946
30560W        W91871   0.746   0.349  13.479
30561W        W91872  10.376   3.742  11.120
30562W        W91873  42.387  21.664  11.479
30563W        W91874  25.630  20.748  12.553
30564W        W91875  27.679  24.219   2.413
30565W        W91876  39.537   5.885   1.762
30566W        W91877  16.076  38.962   4.122
30567W        W91878  19.281  30.005   4.354
30568W        W91879   8.301  25.491  12.076
30569W        W91880  32.481  22.740   2.840
30570W        W91881  17.555  40.887   1.294
30571W        W91882  16.096  12.824   4.637
30572W        W91883  26.494  30.453   0.309
30573W        W91884  41.315  34.005  14.941
30574W        W91885  26.995  16.241   2.198
30575W        W91886  29.964   3.897   1.806
30576W        W91887  43.284  33.039  10.451
30577W        W91888  29.595  28.075  12.046
30578W        W91889   1.275  18.563  10.532
30579W        W91890  24.720  40.351  11.488
30580W        W91891   2.457  17.110   1.342
30581W        W91892  21.631  29.056  14.299
30582W        W91893   9.348  36.913  13.515
30583W        W91894  25.149  23.065  13.917
30584W        W91895  43.820  10.878  11.935
30585W        W91896  11.745  24.587  12.870
30586W        W91897  32.982  42.796   0.788
30587W        W91898  33.449  41.883   4.338
30588W        W91899   3.886  10.717   3.686
30589W        W91900  15.104  34.094  12.096
30590W        W91901  32.026   4.378   3.311
30591W        W91902   6.789  14.644  14.431
30592W        W91903  38.857   6.298  12.433
30593W        W91904  26.569  25.134  12.356
30594W        W91905  11.782   5.812   3.299
30595W        W91906  21.667  38.011  13.019
30596W        W91907  19.665  12.283   4.256
30597W        W91908  32.901  32.547   0.395
30598W        W91909  16.685  41.446  13.016
30599W        W91910  19.717  13.703   9.954
30600W        W91911   5.222  16.213   3.630
30601W        W91912  27.664  30.944  11.971
30602W        W91913  13.196  17.170   2.777
30603W        W91914   1.463  14.274   1.755
30604W        W91915  18.600   1.972  12.542
30605W        W91916   4.307  17.637  11.477
30606W        W91917   9.273  43.813  10.414
30607W        W91918   8.718  42.454  11.447
30608W        W91919  24.656   7.398   3.365
30609W        W91920   4.718  24.533  14.893
30610W        W91921  13.605  19.538  14.782
30611W        W91922  38.549   1.881   1.925
30612W        W91923  31.935  18.691   4.732
30613W        W91924   4.272  43.996  14.309
30614W        W91925  20.571   0.315   1.432
30615W        W91926  28.586  20.593  14.784
30616W        W91927  32.480  33.095  14.382
30617W        W91928  33.033  14.790  14.443
30618W        W91929  39.365   2.862  12.450
30619W        W91930  41.376  37.578  12.855
30620W        W91931   8.261  23.563  14.510
30621W        W91932  21.244  40.456  14.326
30622W        W91933  24.716  16.135  14.867
30623W        W91934  33.024   7.798   3.649
30624W        W91935  16.086  38.982  10.441
30625W        W91936  27.016   1.375  11.591
30626W        W91937  19.039  37.511   9.507
30627W        W91938   4.901   5.357   1.375
30628W        W91939  42.809  17.240   3.680
30629W        W91940  30.058  40.342   1.707
30630W        W91941  18.140  41.332   3.835
30631W        W91942   2.325  37.047  12.853
30632W        W91943  13.205  18.210   5.272
30633W        W91944   4.722  20.599  11.405
30634W        W91945  32.021  42.283   0.413
30635W        W91946  39.833  34.425  10.596
30636W        W91947  35.415  23.036  11.434
30637W        W91948  42.031  10.359   4.806
30638W        W91949  15.687  19.156   0.771
30639W        W91950   1.420  15.787  14.371
30640W        W91951  15.210   2.857  13.895
30641W        W91952   1.295   4.390   2.214
30642W        W91953  37.082  38.562  14.314
30643W        W91954  27.978  22.018  14.782
30644W        W91955  23.579  38.451  11.892
30645W        W91956  42.872  19.602  12.496
30646W        W91957  38.419   6.712   4.688
30647W        W91958  13.160  23.591  12.079
30648W        W91959  21.103  26.129  14.401
30649W        W91960  32.415  33.470   9.954
30650W        W91961  32.109  32.943   2.774
30651W        W91962  25.191  41.918  13.464
30652W        W91963   4.888  34.538  10.596
30653W        W91964   9.756  20.127  12.547
30654W        W91965   7.316   0.297  11.884
30655W        W91966  10.728  14.170   4.134
30656W        W91967  36.504  13.262  11.956
30657W        W91968  44.944   1.314   4.297
30658W        W91969  26.576   7.242  13.376
30659W        W91970  20.112  21.533   3.632
30660W        W91971   2.816  11.321   0.416
30661W        W91972   0.445  25.177  11.450
30662W        W91973  12.246  31.135   3.759
30663W        W91974  19.180   1.325  13.049
30664W        W91975  42.893  20.538  13.502
30665W        W91976  15.648  12.253  15.000
30666W        W91977  18.695  23.656   1.349
30667W        W91978  21.701  25.043   3.790
30668W        W91979   8.169  39.376  14.991
30669W        W91980  37.542  13.802  12.523
30670W        W91981   2.749   4.746   3.814
30671W        W91982  15.600   5.929   1.433
30672W        W91983  29.527  25.999   0.454
30673W        W91984   9.851  34.527  11.013
30674W        W91985  25.677  25.613   1.349
30675W        W91986  18.237  40.837   4.642
30676W        W91987   7.772  27.490  14.762
30677W        W91988  36.861  25.049  13.832
30678W        W91989   1.262  10.294  11.005
30679W        W91990   0.477  28.184  11.100
30680W        W91991  38.369  32.038  12.472
30681W        W91992  27.014  36.995   3.723
30682W        W91993  38.405  22.530  12.884
30683W        W91994  41.341  35.039  13.043
30684W        W91995  21.029  19.129   5.293
30685W        W91996   2.956   2.319   3.748
30686W        W91997  10.240  25.711  10.902
30687W        W91998   3.259  39.479  10.477
30688W        W91999  23.570  35.480  13.319
30689W        W92000  12.620  30.028   4.815
30690W        W92001  11.622   8.770  14.031
30691W        W92002  38.059  36.458   1.212
30692W        W92003  39.479  27.105  13.063
30693W        W92004  21.212  23.506  14.782
30694W        W92005  42.434   5.906  11.460
30695W        W92006  30.603  14.834   2.844
30696W        W92007  18.616   9.387  12.426
30697W        W92008  41.364  37.495   1.289
30698W        W92009  36.394   9.262   3.350
30699W        W92010  32.124   2.722   4.266
30700W        W92011  20.219  41.972  11.450
30701W        W92012  22.129  16.660  12.980
30702W        W92013  19.611   6.393  11.585
30703W        W92014  17.653  40.815  10.496
30704W        W92015  42.282  42.465  12.444
30705W        W92016  38.855  25.990  13.025
30706W        W92017   9.223   5.814   3.213
30707W        W92018  20.660   8.864  13.800
30708W        W92019  26.595  24.089  14.337
30709W        W92020  21.686  41.800   2.216
30710W        W92021  14.330  12.232  14.444
30711W        W92022   6.187  42.868  10.423
30712W        W92023   9.727  37.901  13.385
30713W        W92024  37.528  40.939  10.488
30714W        W92025  26.112   0.446   1.778
30715W        W92026  35.593  35.529   2.737
30716W        W92027  22.569  26.512   0.830
30717W        W92028   4.754  44.464   1.725
30718W        W92029  12.129  11.759   3.380
30719W        W92030  30.064  10.820   4.316
30720W        W92031   1.903  42.439   2.704
30721W        W92032  29.568   2.256   3.703
30722W        W92033   1.287   3.775   0.777
30723W        W92034  22.724  22.178  11.472
30724W        W92035  39.896  25.098   1.267
30725W        W92036  26.573   8.389  12.071
30726W        W92037  26.477   8.178   0.242
30727W        W92038   0.871   7.861   2.186
30728W        W92039   1.865  30.568   4.343
30729W        W92040  33.985  38.491  14.319
30730W        W92041   5.737  32.021  14.993
30731W        W92042  10.859  13.330   0.458
30732W        W92043  21.055  42.314   1.847
30733W        W92044  40.535  36.026   1.361
30734W        W92045  14.176  18.118  10.995
30735W        W92046  42.339  14.832   1.408
30736W        W92047  26.074  13.656  14.338
30737W        W92048   6.276  28.665   4.186
30738W        W92049  25.506  23.123   3.634
30739W        W92050  19.744  43.827  14.454
30740W        W92051   8.828  25.970  13.018
30741W        W92052  34.063  30.095  13.464
30742W        W92053   9.388  18.146  14.949
30743W        W92054  10.756   7.860  13.408
30744W        W92055  35.448  16.674   0.313
30745W        W92056  39.440  36.393   1.863
30746W        W92057  36.858  22.728   1.836
30747W        W92058  42.447  26.622  13.032
30748W        W92059  29.457  25.685   3.219
30749W        W92060   1.940  31.421  11.074
30750W        W92061  35.882  11.311  11.921
30751W        W92062   3.823   9.362   3.781
30752W        W92063  32.011   9.880  12.432
30753W        W92064  26.979  32.042  13.848
30754W        W92065  41.843   5.279   1.785
30755W        W92066  24.496   3.345   1.444
30756W        W92067  37.942  37.845  13.039
30757W        W92068  18.178  38.890  10.067
30758W        W92069   5.327   7.837   0.884
30759W        W92070  19.187  40.520   2.679
30760W        W92071  39.329  16.202   2.833
30761W        W92072  16.239  16.122   3.746
30762W        W92073   7.826  29.048  11.498
30763W        W92074  20.237  42.449   0.879
30764W        W92075  38.822  24.701   1.932
30765W        W92076  30.930  18.613   0.919
30766W        W92077   1.301  39.417  12.578
30767W        W92078  27.080  43.861  10.931
30768W        W92079  29.984  42.348  12.392
30769W        W92080   7.803  42.794   4.790
30770W        W92081   9.863  39.936   0.398
30771W        W92082  44.760  10.231  13.823
30772W        W92083  30.433   6.812  12.509
30773W        W92084  39.919  30.048   4.783
30774W        W92085   5.841  22.148  12.426
30775W        W92086   4.877  13.600   3.187
30776W        W92087  11.631  38.971  13.383
30777W        W92088  37.087  21.684   3.654
30778W        W92089   8.165  19.756   3.768
30779W        W92090   3.766  14.827  11.570
30780W        W92091  44.759  22.020  12.947
30781W        W92092  38.937  25.034  11.543
30782W        W92093  26.537  16.806  12.573
30783W        W92094  20.585  24.498   1.912
30784W        W92095  23.072   3.354   0.284
30785W        W92096  44.466  38.427   2.721
30786W        W92097  41.883  26.980  11.511
30787W        W92098  20.201  39.974  13.001
30788W        W92099  39.850  33.014   2.805
30789W        W92100   0.472  33.545   0.305
30790W        W92101   3.397   0.968   1.359
30791W        W92102  27.107  14.765   0.894
30792W        W92103  34.018  19.673  11.399
30793W        W92104   3.952  44.455  10.942
30794W        W92105   4.444  18.262  11.436
30795W        W92106   5.861  28.012   1.898
30796W        W92107  24.174  34.547  10.542
30797W        W92108  21.234   3.253  10.639
30798W        W92109  17.619  27.483   4.763
30799W        W92110   3.398  44.475  10.592
30800W        W92111  12.175  17.147   3.294
30801W        W92112   7.874   1.341  10.481
30802W        W92113  41.987  32.936  13.470
30803W        W92114  29.117  28.005  10.938
30804W        W92115  40.821  12.130   3.708
30805W        W92116   7.270  14.749   2.186
30806W        W92117  42.354  16.775   4.202
30807W        W92118  16.749  34.387  14.408
30808W        W92119  19.228   6.852  13.859
30809W        W92120  10.330  24.213  11.388
30810W        W92121  40.435  10.289   5.291
30811W        W92122  26.517  14.632   1.418
30812W        W92123  44.304  23.205  14.980
30813W        W92124  10.829  37.386   2.338
30814W        W92125  41.896  42.339   0.885
30815W        W92126  20.224   2.817  13.484
30816W        W92127  13.242  17.603   4.187
30817W        W92128  19.209  33.424   0.813
30818W        W92129   8.303  36.044  12.071
30819W        W92130  24.002  19.605  14.286
30820W        W92131  28.066  37.363   2.876
30821W        W92132  28.602  42.981   0.754
30822W        W92133  14.653  43.290   2.681
30823W        W92134   6.739  22.713  13.353
30824W        W92135  37.459  29.019   0.404
30825W        W92136  29.436  28.450   0.462
30826W        W92137  41.464  32.570   4.721
30827W        W92138   2.886  40.875   3.713
30828W        W92139  24.092  34.024   2.219
30829W        W92140  26.601  29.438  10.436
30830W        W92141   6.417  12.617  11.122
30831W        W92142  18.189  39.957  12.375
30832W        W92143  16.185  25.077  13.348
30833W        W92144  35.510  27.556  10.939
30834W        W92145  43.007  19.144   3.186
30835W        W92146  41.897  14.658  12.001
30836W        W92147  26.535  41.816  13.798
30837W        W92148  22.996  30.919   2.405
30838W        W92149  40.359  27.569  12.894
30839W        W92150  14.630  39.841   4.679
30840W        W92151  39.045  37.439   1.294
30841W        W92152   9.828  20.622  14.463
30842W        W92153  10.699  26.043   1.442
30843W        W92154  37.550   0.899   4.813
30844W        W92155  36.948  22.247  14.972
30845W        W92156   9.149  35.572   3.653
30846W        W92157  12.337  43.321  10.593
30847W        W92158  22.608  10.294   2.407
30848W        W92159  41.314   6.292  14.792
30849W        W92160  37.966  13.634   3.230
30850W        W92161  25.593  26.116  13.428
30851W        W92162  21.059   0.864   3.269
30852W        W92163   4.779  13.755  11.473
30853W        W92164  20.596  33.536  11.027
30854W        W92165  14.193  17.718   0.824
30855W        W92166   5.698  18.645  13.872
30856W        W92167  27.949  17.153   1.356
30857W        W92168   7.826  25.660  11.560
30858W        W92169  40.509   8.299  12.366
30859W        W92170   6.716  26.625   3.147
30860W        W92171  15.717  13.278  11.122
30861W        W92172  21.232   7.320   4.127
30862W        W92173  16.767  20.565  14.414
30863W        W92174  30.006  41.805  11.583
30864W        W92175  17.194  17.571   0.826
30865W        W92176   4.817  32.526  13.062
30866W        W92177   7.173  18.567   9.656
30867W        W92178  40.801  35.583  14.973
30868W        W92179   8.852   2.421  14.434
30869W        W92180  31.110  38.348   3.254
30870W        W92181  34.478  17.629  13.943
30871W        W92182   6.906   0.485  10.556
30872W        W92183  35.383  42.319  11.031
30873W        W92184  25.695  16.677  14.807
30874W        W92185   3.946  39.365  12.386
30875W        W92186  43.777   6.192  14.395
30876W        W92187  36.908  32.112  13.465
30877W        W92188  13.636  35.477  13.433
30878W        W92189  18.180  43.982  13.425
30879W        W92190  20.246  24.649   1.825
30880W        W92191   5.372  38.348   2.721
30881W        W92192  19.083  24.057  12.503
30882W        W92193  31.127  10.735   2.319
30883W        W92194  14.288   9.336   2.701
30884W        W92195   1.263  24.683  13.307
30885W        W92196  16.121   1.298  10.898
30886W        W92197  32.620  23.522  12.403
30887W        W92198   4.731  37.465   0.341
30888W        W92199  29.534  28.675  13.395
30889W        W92200  15.652  26.042   3.300
30890W        W92201  13.283   2.451  11.578
30891W        W92202  33.586  37.554   4.731
30892W        W92203  37.503  22.695   1.352
30893W        W92204  19.096  22.702   4.662
30894W        W92205  32.487  15.779  11.120
30895W        W92206  20.054  21.528  13.856
30896W        W92207  20.575  16.692  11.565
30897W        W92208  35.401   7.818  14.806
30898W        W92209  16.701  39.327   0.441
30899W        W92210  10.246  26.078  13.438
30900W        W92211  28.462  23.236   4.804
30901W        W92212  10.368   5.353   3.740
30902W        W92213  25.153  37.369  10.951
30903W        W92214  32.454  14.702  11.981
30904W        W92215  21.589  37.513   4.778
30905W        W92216  36.356  26.140   0.282
30906W        W92217  12.247  38.887  12.858
30907W        W92218  15.593  20.736  11.896
30908W        W92219  18.173  19.555   1.699
30909W        W92220  19.221  33.062  10.936
30910W        W92221  38.435   3.341  11.551
30911W        W92222   8.751  18.636  13.849
30912W        W92223  10.812   7.821   2.713
30913W        W92224  14.113  25.711  11.606
30914W        W92225   7.407   5.745   3.340
30915W        W92226   0.420  15.328  10.956
30916W        W92227   6.196  38.001  11.991
30917W        W92228  19.131  32.401   3.345
30918W        W92229  27.525   0.803  10.428
30919W        W92230  19.779  42.310   1.268
30920W        W92231  32.118  38.982   5.118
30921W        W92232  44.943   1.305  14.448
30922W        W92233   6.697  38.528   4.177
30923W        W92234  19.096  20.163  11.964
30924W        W92235  39.559  28.506   2.288
30925W        W92236  27.191  35.394  13.536
30926W        W92237  28.590  32.493  12.826
30927W        W92238  34.882  33.626  14.412
30928W        W92239  38.424  17.643  14.406
30929W        W92240  38.409  43.863  11.881
30930W        W92241  10.810   0.342  12.395
30931W        W92242  21.561  36.963  10.996
30932W        W92243  20.052  30.468  11.455
30933W        W92244   5.373  18.737  11.487
30934W        W92245  44.951   1.481   2.208
30935W        W92246  21.141  20.154   5.617
30936W        W92247  36.958  36.039  12.566
30937W        W92248   4.740  42.844   9.979
30938W        W92249   5.247  25.098   2.740
30939W        W92250   5.233  30.648   3.267
30940W        W92251  12.832  19.757  10.492
30941W        W92252  13.753  42.412   2.194
30942W        W92253  16.125  34.989  11.500
30943W        W92254  25.122  10.247  12.490
30944W        W92255  28.497  44.922   2.269
30945W        W92256  32.994  17.207  14.385
30946W        W92257  11.770  32.902  12.070
30947W        W92258  33.433   5.407   1.855
30948W        W92259  34.062  31.981   0.963
30949W        W92260  26.140  43.512   1.756
30950W        W92261  42.894  17.692   4.184
30951W        W92262  32.627  11.133   3.281
30952W        W92263  18.254  20.137  10.428
30953W        W92264  38.951  13.194  11.933
30954W        W92265  17.629   0.962   2.239
30955W        W92266  15.675  43.984  11.955
30956W        W92267  16.607  38.488  10.576
30957W        W92268  21.598   3.915  13.014
30958W        W92269  39.999   9.376  11.987
30959W        W92270  18.250  34.482  10.926
30960W        W92271  10.669  32.924   3.643
30961W        W92272  11.665  43.898   2.348
30962W        W92273  20.082   5.319  14.898
30963W        W92274   6.882  40.369   3.682
30964W        W92275   2.954  40.527   3.193
30965W        W92276   8.768  39.344  14.303
30966W        W92277  35.509   6.376   0.735
30967W        W92278  42.834  11.829  10.464
30968W        W92279  24.056  37.345  12.061
30969W        W92280  37.073  36.477   5.242
30970W        W92281  16.803  19.565   4.203
30971W        W92282  31.067   2.925  10.447
30972W        W92283  37.492  12.850  12.004
30973W        W92284   4.698  19.258  12.835
30974W        W92285  26.143  12.757   0.368
30975W        W92286  16.607  21.516   4.635
30976W        W92287  31.115   7.293   4.753
30977W        W92288  27.942  42.362   1.223
30978W        W92289   0.451  24.162   4.638
30979W        W92290  41.902  44.877  14.911
30980W        W92291  12.296  15.674   9.937
30981W        W92292  37.034  32.494   4.786
30982W        W92293   8.710  33.495   2.881
30983W        W92294   4.825  11.752  10.523
30984W        W92295  30.908  31.510  10.488
30985W        W92296  42.021  31.018  10.446
30986W        W92297  30.433  20.744   2.407
30987W        W92298  15.160  43.379  12.923
30988W        W92299  37.494  43.304  11.402
30989W        W92300  10.754   2.369  13.451
30990W        W92301   5.845  20.586  12.942
30991W        W92302  42.934   0.478   1.739
30992W        W92303  19.096  36.517  14.876
30993W        W92304  17.155   4.698  14.768
30994W        W92305  19.591  35.603  14.926
30995W        W92306   7.749  11.350   1.708
30996W        W92307  31.090  22.538   2.244
30997W        W92308  14.639  19.091  11.129
30998W        W92309  24.628  40.937   0.438
30999W        W92310  30.126  24.030   3.661
31000W        W92311  33.065  41.943  11.962
31001W        W92312  44.410  10.339   3.855
31002W        W92313   3.782  14.757   1.924
31003W        W92314  24.988  14.322  11.899
31004W        W92315  31.918  12.850   4.661
31005W        W92316   6.693  34.541   3.674
31006W        W92317  28.940  30.997  10.441
31007W        W92318  42.946   2.255  14.876
31008W        W92319  42.867  17.136   1.867
31009W        W92320  28.984  40.820   4.666
31010W        W92321  27.085  33.968  10.470
31011W        W92322   4.437   8.875   3.190
31012W        W92323  44.363  30.101   3.709
31013W        W92324  40.422  28.522  12.919
31014W        W92325   2.250  20.032  11.061
31015W        W92326   8.802   0.859   4.716
31016W        W92327  31.036  32.980   3.302
31017W        W92328  12.616  12.654   0.313
31018W        W92329  33.111  17.557   4.735
31019W        W92330  25.169  11.290   1.347
31020W        W92331  44.395   6.873  14.020
31021W        W92332  16.196  31.151   4.664
31022W        W92333  27.497  24.163  14.927
31023W        W92334   2.882  20.637  12.459
31024W        W92335   9.890  42.281   0.266
31025W        W92336  31.130  37.982  10.984
31026W        W92337  39.360  28.045   3.837
31027W        W92338  30.128   2.468   2.294
31028W        W92339  10.721  22.655  12.021
31029W        W92340  31.479   4.784  10.950
31030W        W92341   3.310  20.196  11.523
31031W        W92342  10.681  40.454  10.973
31032W        W92343  32.505  22.126   2.739
31033W        W92344  34.112  21.173  11.378
31034W        W92345  10.639  20.672   0.783
31035W        W92346  42.358  42.417   0.812
31036W        W92347  17.648  32.570   0.802
31037W        W92348  30.500  42.886  14.366
31038W        W92349  13.682   4.738   5.110
31039W        W92350   2.355  10.244  13.057
31040W        W92351  17.705  21.523  11.056
31041W        W92352  44.438  16.265  11.103
31042W        W92353   6.872  16.723  11.380
31043W        W92354  24.186  11.735   3.727
31044W        W92355  21.063   1.929   2.873
31045W        W92356  39.885  22.560  13.956
31046W        W92357  30.528  39.407  11.104
31047W        W92358  23.554  13.155  13.320
31048W        W92359   7.218  42.989  13.511
31049W        W92360  31.408  29.438  10.959
31050W        W92361  10.825   8.210   0.336
31051W        W92362  10.650  44.907  10.411
31052W        W92363  44.908  29.152  13.964
31053W        W92364  10.739   1.312   3.789
31054W        W92365   0.311  22.212  10.558
31055W        W92366  23.727  18.196  10.156
31056W        W92367  26.619  29.941   3.645
31057W        W92368  40.889  31.435   1.420
31058W        W92369  32.040  42.501  11.975
31059W        W92370   0.261  38.967   0.412
31060W        W92371   0.852  40.886   4.717
31061W        W92372  28.625  29.988   2.718
31062W        W92373  38.492  17.071   1.827
31063W        W92374  16.720  27.452  14.774
31064W        W92375  13.135  17.186  12.884
31065W        W92376  31.559  14.832  13.020
31066W        W92377   8.663   3.457  11.961
31067W        W92378  36.904   0.459   0.827
31068W        W92379  38.334   9.824  10.946
31069W        W92380   8.317  27.518  14.922
31070W        W92381   7.260   1.318  12.996
31071W        W92382  11.680  34.896  12.359
31072W        W92383  42.846  38.490   2.729
31073W        W92384  31.106  29.056   4.292
31074W        W92385   3.377  32.111  14.420
31075W        W92386  12.777  39.336  11.855
31076W        W92387  39.396  19.057   2.199
31077W        W92388  38.486  20.206  14.868
31078W        W92389  23.020  29.526  14.768
31079W        W92390  26.545  28.130   1.874
31080W        W92391  28.119  43.001  11.925
31081W        W92392   9.333  39.382   4.282
31082W        W92393  43.833  19.668   1.764
31083W        W92394  19.268  22.662   0.362
31084W        W92395  23.590  32.926  10.503
31085W        W92396  26.123  27.526   0.936
31086W        W92397  38.507  27.952  14.847
31087W        W92398  43.994  43.474   2.787
31088W        W92399  12.615  20.549  11.932
31089W        W92400  11.736   4.859   4.169
31090W        W92401  42.463  35.029  12.900
31091W        W92402  30.560   0.936   0.913
31092W        W92403  37.554  21.623  11.908
31093W        W92404  13.222  34.545  14.944
31094W        W92405  42.423  15.159  14.360
31095W        W92406  22.160  13.661  13.921
31096W        W92407  44.997   1.919   1.922
31097W        W92408  19.690  17.618   4.201
31098W        W92409  21.571  23.158   3.329
31099W        W92410   2.824  29.071  14.816
31100W        W92411  31.617  25.114  11.521
31101W        W92412  30.005  21.070  14.800
31102W        W92413  29.061  44.999   3.798
31103W        W92414  24.661  30.650   2.414
31104W        W92415  35.079  34.908   3.775
31105W        W92416  22.722  33.876  14.794
31106W        W92417  24.510   2.363  13.476
31107W        W92418  35.097  41.416  14.875
31108W        W92419  31.611  13.762  11.046
31109W        W92420   1.931  11.806  10.469
31110W        W92421  31.100  39.864   1.725
31111W        W92422  22.632  28.597   2.236
31112W        W92423  43.848  15.690  14.003
31113W        W92424  14.638  25.967   2.811
31114W        W92425   9.719  32.421   3.316
31115W        W92426  13.260  39.533   0.804
31116W        W92427  39.005   2.879   3.864
31117W        W92428  15.627  14.685  12.394
31118W        W92429  28.463  15.207  13.504
31119W        W92430  29.982  11.214   4.632
31120W        W92431  23.508  17.788   9.635
31121W        W92432  36.039  42.850   4.685
31122W        W92433  37.563  17.633  14.913
31123W        W92434  34.594  44.381   3.724
31124W        W92435  14.278  24.666   0.952
31125W        W92436   4.859  24.021  11.117
31126W        W92437  23.694  30.042   4.121
31127W        W92438  23.705  11.181  10.518
31128W        W92439   7.411   4.844  12.580
31129W        W92440  27.149  37.054  12.011
31130W        W92441  13.109  35.512  12.346
31131W        W92442  34.942  20.166  13.541
31132W        W92443  26.538  35.520   0.922
31133W        W92444   9.318  20.678   0.452
31134W        W92445  16.668  42.460  10.934
31135W        W92446   0.953   9.870   0.865
31136W        W92447   7.847  39.388  13.792
31137W        W92448  41.472  15.311  13.480
31138W        W92449  32.995   7.854  13.490
31139W        W92450  44.952  26.485  10.592
31140W        W92451   6.844  40.802  10.588
31141W        W92452  39.935  39.559  14.771
31142W        W92453  32.987  21.634  12.446
31143W        W92454  35.908  21.689   0.962
31144W        W92455  21.716  28.557   1.873
31145W        W92456   6.206  34.071  14.832
31146W        W92457   2.950  20.664   0.253
31147W        W92458  38.405  39.977   0.734
31148W        W92459  42.852   2.363   1.269
31149W        W92460  23.008   8.676   4.734
31150W        W92461  31.490   3.813   1.438
31151W        W92462  32.926  29.619  13.024
31152W        W92463  22.668  43.920   2.713
31153W        W92464  23.703   8.845  13.820
31154W        W92465  11.216   7.366   4.730
31155W        W92466   6.313  24.506  12.984
31156W        W92467  25.211  10.646   4.150
31157W        W92468  13.128   8.754  12.414
31158W        W92469  31.929  38.552   1.829
31159W        W92470   8.268   7.744  12.985
31160W        W92471  43.320   3.401   4.834
31161W        W92472   4.903   5.299   0.792
31162W        W92473   8.808  24.006  14.006
31163W        W92474   8.669  21.589   1.390
31164W        W92475   7.683  15.099  11.866
31165W        W92476  33.593  29.120  10.107
31166W        W92477   0.987  36.089   2.214
31167W        W92478  18.754   7.413  10.404
31168W        W92479  36.393  36.027  11.125
31169W        W92480   2.818  21.653  10.533
31170W        W92481  28.678  35.371  14.976
31171W        W92482  11.148  28.025   4.225
31172W        W92483   5.436   6.265   1.267
31173W        W92484  25.191  31.482  12.850
31174W        W92485  19.285  28.591   4.273
31175W        W92486   6.356  11.146   4.813
31176W        W92487  18.613  25.209   0.885
31177W        W92488   8.377  18.673  11.372
31178W        W92489  25.527   0.253  13.825
31179W        W92490  27.653  36.086   0.736
31180W        W92491  29.023  33.107   0.834
31181W        W92492   0.372  40.946  14.923
31182W        W92493  24.535  42.485  12.930
31183W        W92494  21.708   9.221  14.870
31184W        W92495  43.796  27.100  12.036
31185W        W92496  37.068  43.927  13.431
31186W        W92497  23.005  29.164   0.319
31187W        W92498   1.848  20.163  13.857
31188W        W92499  44.350  16.079  10.576
31189W        W92500  19.180  22.716  14.029
31190W        W92501  24.570  40.436   9.674
31191W        W92502   6.238  14.179  12.417
31192W        W92503  41.033  31.646   4.333
31193W        W92504  28.614  13.805   3.641
31194W        W92505   2.799  13.790  13.874
31195W        W92506  43.500  19.268   4.611
31196W        W92507  44.466   2.784  12.926
31197W        W92508  14.660  20.096   4.735
31198W        W92509  37.490   0.810   2.305
31199W        W92510  35.864  38.921   2.362
31200W        W92511   6.365  22.588  13.975
31201W        W92512  38.522  34.982  13.010
31202W        W92513  27.008  24.642   1.212
31203W        W92514  42.783   0.849  13.539
31204W        W92515  29.633  11.293   2.890
31205W        W92516  40.028  38.501  14.513
31206W        W92517  35.976  23.703   4.218
31207W        W92518  12.178  29.453  12.005
31208W        W92519  12.254  11.371  13.803
31209W        W92520  11.751  30.907  13.513
31210W        W92521  37.049  30.600  11.928
31211W        W92522  41.491   7.762   0.802
31212W        W92523  41.874  19.563  13.981
31213W        W92524  32.009   6.785   0.910
31214W        W92525   0.264  17.069  10.544
31215W        W92526  17.677  15.322  12.056
31216W        W92527  44.499  11.175   2.211
31217W        W92528  29.157  25.131  13.819
31218W        W92529  22.007  13.846  13.433
31219W        W92530  26.688  44.289   4.680
31220W        W92531  15.821   5.417   2.407
31221W        W92532  15.304  22.033   1.306
31222W        W92533  42.292  32.424  11.063
31223W        W92534   7.234  44.903   1.817
31224W        W92535  27.612  21.734  14.989
31225W        W92536   7.798  12.333  13.543
31226W        W92537  11.166  36.394   1.409
31227W        W92538  42.401  38.503   4.739
31228W        W92539  19.152  18.603   2.897
31229W        W92540  10.773  44.499   1.269
31230W        W92541  24.229  19.632  12.413
31231W        W92542  15.776  13.675   1.759
31232W        W92543  35.549   2.232   0.354
31233W        W92544  12.347  23.643  12.951
31234W        W92545  39.493  21.065   4.267
31235W        W92546   3.446  31.440   0.338
31236W        W92547  30.908  33.940   4.284
31237W        W92548  17.150  20.110  14.491
31238W        W92549   2.860  16.736   4.122
31239W        W92550  44.492  40.044  14.998
31240W        W92551  27.667  43.893  13.444
31241W        W92552   3.377  12.239  14.892
31242W        W92553  37.960  37.384   2.767
31243W        W92554  14.599  25.508   2.182
31244W        W92555  19.663  37.027  10.896
31245W        W92556  23.547  27.447  13.319
31246W        W92557  20.164  19.109  13.932
31247W        W92558   9.812  35.063   4.773
31248W        W92559  34.611  43.010  14.286
31249W        W92560   5.887  23.579   2.754
31250W        W92561  22.675   6.770  12.037
31251W        W92562   5.380   1.908   2.375
31252W        W92563  27.533  29.054   3.225
31253W        W92564  28.019  32.465   1.735
31254W        W92565  20.680   5.860   3.769
31255W        W92566  36.951  11.197  12.421
31256W        W92567  30.098  16.315   3.303
31257W        W92568   2.387  34.868   0.762
31258W        W92569   3.266  43.910  13.345
31259W        W92570   3.894  32.621  13.409
31260W        W92571   7.881  34.993   1.349
31261W        W92572  33.446  32.947   0.476
31262W        W92573  11.686   2.900  12.899
31263W        W92574  36.410   9.811  12.425
31264W        W92575  38.526  38.839  11.446
31265W        W92576   9.669  43.801   3.235
31266W        W92577  36.485  34.383   1.846
31267W        W92578  33.397  15.748   1.777
31268W        W92579  13.636   8.829   4.272
31269W        W92580   7.763   3.742  14.959
31270W        W92581   6.859  24.551  14.834
31271W        W92582   4.266   0.904  12.837
31272W        W92583   3.386  27.564   1.244
31273W        W92584  22.089  14.102  10.902
31274W        W92585  30.111  13.609   1.708
31275W        W92586  35.865  43.920   2.256
31276W        W92587  30.036   9.861   3.301
31277W        W92588  24.526  35.538   3.728
31278W        W92589   6.395  22.073   2.837
31279W        W92590  25.000   4.882   1.733
31280W        W92591  16.807  37.920   3.342
31281W        W92592  20.700  28.634  14.329
31282W        W92593  27.946   4.396  10.497
31283W        W92594  20.205  34.549  14.806
31284W        W92595  28.509  13.315  12.561
31285W        W92596  36.499   3.385   0.734
31286W        W92597   0.343  22.171  14.347
31287W        W92598  31.442  25.148   2.328
31288W        W92599  34.002   9.244   2.180
31289W        W92600  31.413  43.464  14.825
31290W        W92601  39.536   6.810  12.538
31291W        W92602   3.913  34.088  14.326
31292W        W92603  42.520  30.643   3.741
31293W        W92604   6.299  13.130   2.386
31294W        W92605  20.037  23.516   2.679
31295W        W92606  31.127  31.992  14.348
31296W        W92607  25.095  21.743   3.375
31297W        W92608   8.796  18.684  10.582
31298W        W92609  29.655   3.728  10.059
31299W        W92610  13.206  33.537  13.043
31300W        W92611   3.916   9.321   2.226
31301W        W92612   9.200  26.174  13.876
31302W        W92613  19.757   8.736  12.864
31303W        W92614   7.395  38.057  10.622
31304W        W92615  29.578  10.213  11.080
31305W        W92616  40.407  30.957   0.740
31306W        W92617  31.530   6.850   2.808
31307W        W92618  17.561  44.423  12.522
31308W        W92619  39.025  23.134   2.765
31309W        W92620  25.483  43.912  13.052
31310W        W92621  43.845  12.120   2.361
31311W        W92622  35.371  32.441  13.322
31312W        W92623   3.391  21.734  13.393
31313W        W92624   7.672  27.996  13.808
31314W        W92625  16.093  27.993   1.247
31315W        W92626  42.471  33.989  11.568
31316W        W92627  43.292  40.540   1.273
31317W        W92628  17.565   1.272  14.948
31318W        W92629   8.722   2.859  11.073
31319W        W92630  10.163  39.338  13.840
31320W        W92631  42.306  32.894  11.881
31321W        W92632  31.958  20.167  11.608
31322W        W92633  34.377  25.629   0.796
31323W        W92634  37.555  43.339  13.476
31324W        W92635  23.500  20.609  10.958
31325W        W92636  33.572  12.696  13.320
31326W        W92637  21.020  30.140   9.942
31327W        W92638   7.784  33.547  14.324
31328W        W92639   0.321  42.321   0.383
31329W        W92640   0.469   1.792   3.855
31330W        W92641   9.853  34.541   1.261
31331W        W92642  31.492  12.673  11.551
31332W        W92643  35.453  14.222   0.392
31333W        W92644   8.686  12.655   4.214
31334W        W92645  14.823  18.244  10.121
31335W        W92646  44.427  14.791   2.277
31336W        W92647  11.822  20.069   2.199
31337W        W92648  30.140  30.154  10.484
31338W        W92649  34.998  39.965   2.263
31339W        W92650  43.398  18.106  10.126
31340W        W92651   1.389  42.514   1.331
31341W        W92652   6.208   2.306   3.280
31342W        W92653   7.225  37.053  12.970
31343W        W92654  20.088  38.921   2.183
31344W        W92655  42.451   4.837  13.814
31345W        W92656  28.944  38.058  12.062
31346W        W92657  38.389  15.764   9.954
31347W        W92658  41.508  17.763  11.042
31348W        W92659  10.797   9.277   1.899
31349W        W92660  35.357  18.080  13.533
31350W        W92661   5.847  28.037   0.889
31351W        W92662  34.382  37.448  12.961
31352W        W92663  40.488   6.719  13.430
31353W        W92664  14.653   6.703   3.863
31354W        W92665  27.118  29.646  13.461
31355W        W92666  32.965   6.410  12.448
31356W        W92667   5.775  24.585  14.760
31357W        W92668  32.475  42.413  12.417
31358W        W92669  29.144  35.017   0.906
31359W        W92670  14.745  35.546  14.477
31360W        W92671  41.465  15.629  11.380
31361W        W92672  11.150   8.680  12.551
31362W        W92673  33.384   3.230   2.273
31363W        W92674  13.311  21.045  14.374
31364W        W92675   2.938   7.302   0.452
31365W        W92676   4.217  39.457   4.192
31366W        W92677  35.422  24.055  11.941
31367W        W92678  41.879  24.036   0.894
31368W        W92679  38.401  38.480  14.326
31369W        W92680  33.043  33.581   2.200
31370W        W92681  36.023  39.018  13.442
31371W        W92682   9.737  37.516  12.551
31372W        W92683  18.121  38.471   9.991
31373W        W92684  24.058  40.892   2.841
31374W        W92685   3.798  24.594   3.830
31375W        W92686  11.658  30.952   0.455
31376W        W92687  20.166  30.975   4.137
31377W        W92688  28.445   6.752  12.068
31378W        W92689   8.866  41.036   4.323
31379W        W92690  19.067  39.315   1.215
31380W        W92691   3.371  12.728   1.309
31381W        W92692  30.953  17.799  14.326
31382W        W92693  34.549  29.939  13.390
31383W        W92694  43.838  36.446   2.764
31384W        W92695  30.454  25.712   5.248
31385W        W92696  15.613  10.342  10.961
31386W        W92697  21.045  19.759   4.119
31387W        W92698   1.847  28.075  14.862
31388W        W92699   0.254   1.418  14.804
31389W        W92700  24.052  28.590   0.792
31390W        W92701  10.719  19.626  12.071
31391W        W92702  40.025   6.856  13.499
31392W        W92703  21.584  16.098  14.970
31393W        W92704  12.813  21.035   1.301
31394W        W92705  36.045  15.268   2.227
31395W        W92706   1.318  17.762  14.353
31396W        W92707  37.878  31.497   5.709
31397W        W92708  21.681  30.522   3.248
31398W        W92709  38.840  36.466  10.030
31399W        W92710  31.625   6.338   0.325
31400W        W92711   6.770  39.041  10.415
31401W        W92712  13.761  39.535   4.824
31402W        W92713   3.370  14.281  13.899
31403W        W92714   1.447  38.911   4.769
31404W        W92715  36.458  35.503   1.862
31405W        W92716  44.981   9.323   2.206
31406W        W92717   2.887  10.161   1.843
31407W        W92718  14.634   2.879   0.966
31408W        W92719  22.017  19.575  13.816
31409W        W92720   8.784   2.856  13.877
31410W        W92721  39.839  38.045  12.980
31411W        W92722   3.269   0.981   3.204
31412W        W92723  37.034  36.020   5.226
31413W        W92724  19.111  30.554   2.771
31414W        W92725  39.872  19.701   3.228
31415W        W92726  26.953  20.573   3.651
31416W        W92727  17.612  33.580  12.060
31417W        W92728  35.360  10.859   2.832
31418W        W92729  20.180  23.158  14.934
31419W        W92730  16.153  29.621  12.402
31420W        W92731  12.692  25.467   2.240
31421W        W92732  16.086  38.901  10.948
31422W        W92733  13.608  33.508   3.147
31423W        W92734  33.091  36.933  13.371
31424W        W92735   5.803  35.014  13.319
31425W        W92736  39.064   3.389   5.286
31426W        W92737  32.069  37.396  13.984
31427W        W92738  21.163   7.699  12.373
31428W        W92739  29.606  42.915   4.657
31429W        W92740  40.410  11.731   9.936
31430W        W92741  16.109   2.816   0.929
31431W        W92742  28.648  44.464   0.954
31432W        W92743  26.027  26.036  11.102
31433W        W92744  27.032   9.232  13.922
31434W        W92745  15.230  10.780   1.344
31435W        W92746  21.097  31.009   4.240
31436W        W92747   9.692  25.139  12.436
31437W        W92748   4.413   5.864   1.934
31438W        W92749  24.525  19.655  14.811
31439W        W92750  22.071  29.989   0.367
31440W        W92751  17.190  21.653  13.967
31441W        W92752  18.570  35.540   1.376
31442W        W92753  21.664  17.260   3.666
31443W        W92754   1.814  26.961   1.777
31444W        W92755  14.186  10.206  11.415
31445W        W92756  39.975  28.081  10.606
31446W        W92757  18.169  11.729  10.089
31447W        W92758  12.157  25.042   9.659
31448W        W92759  11.350   6.425   1.843
31449W        W92760  41.529  39.476  12.512
31450W        W92761  34.487  33.459  10.403
31451W        W92762  13.825   5.840   4.130
31452W        W92763  28.086   4.272   1.876
31453W        W92764  29.611  41.471   2.749
31454W        W92765   4.331  14.698   3.795
31455W        W92766  23.604  22.156  11.430
31456W        W92767  19.632  32.104   4.148
31457W        W92768  17.790  23.671  10.569
31458W        W92769  38.472  41.914   4.624
31459W        W92770   8.167  42.479   2.685
31460W        W92771  13.710  19.256   2.359
31461W        W92772  13.321   6.329  10.439
31462W        W92773  30.933  16.305  13.938
31463W        W92774  35.023  22.561   1.914
31464W        W92775  17.765  41.788  11.108
31465W        W92776  28.113  34.080  14.400
31466W        W92777  38.551  26.207  12.857
31467W        W92778   2.272  35.395  14.460
31468W        W92779   4.892  34.569   4.123
31469W        W92780  30.143  26.534   1.780
31470W        W92781  41.325   0.763  10.470
31471W        W92782  39.904  22.667   0.264
31472W        W92783  29.645  42.907  11.978
31473W        W92784   1.955  26.961  13.001
31474W        W92785   7.418   0.905  13.486
31475W        W92786  42.918  26.096   0.840
31476W        W92787  13.194   2.950   5.278
31477W        W92788  32.966   2.255  14.335
31478W        W92789  30.486  22.563   0.454
31479W        W92790   9.150  33.429   3.738
31480W        W92791  14.772  19.659   1.783
31481W        W92792  32.600  11.688  11.887
31482W        W92793  15.649  10.383  13.339
31483W        W92794  37.984  38.893   2.323
31484W        W92795  19.275  26.504   2.321
31485W        W92796  44.314  32.981  13.006
31486W        W92797  35.596  34.893  14.908
31487W        W92798   2.797  43.927   2.735
31488W        W92799  33.433  36.520   0.343
31489W        W92800  27.602   5.717   3.217
31490W        W92801  44.905  35.500  13.376
31491W        W92802  35.993  24.175  12.075
31492W        W92803  27.034  30.509   3.702
31493W        W92804  20.197  43.312   1.240
31494W        W92805  33.421   3.858   2.779
31495W        W92806   4.853  24.173   3.784
31496W        W92807  26.141  33.027   1.880
31497W        W92808  17.118  34.460  13.827
31498W        W92809  34.388  10.276   0.825
31499W        W92810  34.887  38.439   2.674
31500W        W92811   0.307  43.411   2.279
31501W        W92812  20.156  36.036  11.025
31502W        W92813  40.852  41.994  12.047
31503W        W92814  25.574  33.464  13.416
31504W        W92815  19.725   0.831   2.665
31505W        W92816  19.538  37.017   0.406
31506W        W92817   5.222  42.867   4.659
31507W        W92818  18.575  17.124   1.761
31508W        W92819  30.095  17.579  12.004
31509W        W92820  29.599  11.718  12.512
31510W        W92821  14.321   4.817   3.234
31511W        W92822   9.780  21.566   4.708
31512W        W92823  32.027   6.782   2.304
31513W        W92824  20.090  20.036  13.443
31514W        W92825  31.513  25.539   1.909
31515W        W92826  29.996  11.192   1.810
31516W        W92827  40.413   1.935   1.318
31517W        W92828  29.518  14.203   5.146
31518W        W92829  17.765  28.457  12.080
31519W        W92830  24.502  13.212  13.873
31520W        W92831  31.494   6.872  12.418
31521W        W92832  40.887   6.405   2.225
31522W        W92833   4.274  29.081   2.250
31523W        W92834  36.979   0.318  13.493
31524W        W92835  35.964  16.743  14.925
31525W        W92836  41.527  39.027   1.439
31526W        W92837  36.951  17.778  10.598
31527W        W92838  30.154   6.358  14.985
31528W        W92839  36.892  41.802  13.375
31529W        W92840   6.400  19.589   3.383
31530W        W92841   5.203  18.758  11.879
31531W        W92842  15.244  26.190  12.963
31532W        W92843  41.842  17.776   3.861
31533W        W92844   1.285  40.430  10.435
31534W        W92845  34.975  43.974  12.844
31535W        W92846   8.255   5.203   1.259
31536W        W92847  16.295  32.547  11.591
31537W        W92848  23.122  40.414   3.858
31538W        W92849   2.901  39.557   0.852
31539W        W92850  19.128  12.284   3.687
31540W        W92851   2.261   9.761  11.504
31541W        W92852  19.216  41.383   4.136
31542W        W92853  24.687  44.302  13.931
31543W        W92854   6.739  15.083   4.236
31544W        W92855  37.357  11.862   0.755
31545W        W92856  10.753  22.138  11.572
31546W        W92857   7.382  14.597  13.439
31547W        W92858  25.015  43.007  14.283
31548W        W92859  33.480  14.708   4.603
31549W        W92860  13.787  39.862   2.347
31550W        W92861  10.732   5.349   2.397
31551W        W92862   4.364  23.609  10.564
31552W        W92863   9.181  28.089   1.451
31553W        W92864  43.439  42.918  12.971
31554W        W92865  19.182  21.060   0.741
31555W        W92866   1.455  22.581   2.410
31556W        W92867   0.796  39.922   2.785
31557W        W92868  21.659   9.329   3.311
31558W        W92869  36.460  35.430  12.951
31559W        W92870  44.305  12.619   4.719
31560W        W92871  18.608   7.865  14.845
31561W        W92872   7.797  10.839  12.489
31562W        W92873  22.643  14.225   4.198
31563W        W92874   2.905  38.496   4.781
31564W        W92875  10.744  41.293  10.590
31565W        W92876  24.500   9.887  10.491
31566W        W92877  16.570  37.006  12.836
31567W        W92878  28.989  33.522  14.506
31568W        W92879  21.556   4.799   0.939
31569W        W92880  34.916   1.421   1.302
31570W        W92881  32.514  22.120   4.819
31571W        W92882   7.263  36.031  14.297
31572W        W92883  44.408  43.013   4.827
31573W        W92884  34.528  18.198  12.540
31574W        W92885  40.032  10.786  13.541
31575W        W92886  15.307  41.514  10.583
31576W        W92887  16.226  41.457  11.007
31577W        W92888  14.287   7.249   2.784
31578W        W92889  30.427  23.119   1.735
31579W        W92890  36.010  41.533   2.731
31580W        W92891  33.020   5.827  11.981
31581W        W92892  14.126  10.651  12.393
31582W        W92893   4.267  22.646   0.873
31583W        W92894  31.086  23.123   0.929
31584W        W92895  27.141  26.621   0.755
31585W        W92896  21.556  30.069   5.159
31586W        W92897  35.988   4.801   3.344
31587W        W92898   7.897  42.346   3.222
31588W        W92899  26.634   5.853  13.389
31589W        W92900  20.686  20.764  13.382
31590W        W92901  39.932  33.908  11.935
31591W        W92902  34.407  42.791  14.789
31592W        W92903  10.808  16.813  10.500
31593W        W92904  16.671  28.556  12.031
31594W        W92905  32.606  26.960  12.972
31595W        W92906  16.806  17.132  12.926
31596W        W92907  24.035  14.812   2.216
31597W        W92908  13.686   8.249  12.348
31598W        W92909  30.044  38.461  14.897
31599W        W92910   7.392  22.065  13.972
31600W        W92911   3.764  23.010  11.602
31601W        W92912  33.959  40.377   0.737
31602W        W92913   3.286  30.941   3.155
31603W        W92914  36.348  40.335   3.366
31604W        W92915   2.420  26.527   5.134
31605W        W92916  39.541  26.136  14.829
31606W        W92917  34.068  22.233   3.313
31607W        W92918   6.218  29.530   1.806
31608W        W92919  11.822  29.034   4.805
31609W        W92920  37.963  33.969   1.824
31610W        W92921  41.869  25.032   2.366
31611W        W92922  22.729  26.596  14.870
31612W        W92923   0.378  14.613  11.423
31613W        W92924  16.784  16.567  10.437
31614W        W92925   0.939   6.327   3.668
31615W        W92926  12.699  29.121   2.803
31616W        W92927  26.676  15.141   3.340
31617W        W92928   1.237  17.592  10.640
31618W        W92929  19.561  42.344  13.467
31619W        W92930  24.662   8.809   3.193
31620W        W92931  10.210  35.480  10.637
31621W        W92932  24.593  40.322   0.870
31622W        W92933   5.234  34.027  11.988
31623W        W92934  44.831  26.513  11.585
31624W        W92935  21.058  40.801  14.483
31625W        W92936  22.098  28.625   4.224
31626W        W92937  34.455  24.203   4.164
31627W        W92938  18.640  31.591  14.883
31628W        W92939  11.636  40.545   3.711
31629W        W92940  40.362  30.640   2.803
31630W        W92941  13.727  18.766   3.182
31631W        W92942   5.822  31.567  12.424
31632W        W92943  15.160  41.974   2.238
31633W        W92944  23.229   8.668   1.715
31634W        W92945  13.301  34.889   1.862
31635W        W92946   9.878  28.139  12.961
31636W        W92947  38.870  21.208  10.480
31637W        W92948  32.619  19.621  11.376
31638W        W92949  35.364   9.695   1.412
31639W        W92950  21.756  10.811   4.341
31640W        W92951  32.119  41.305  11.475
31641W        W92952  38.562  41.927  13.349
31642W        W92953  39.935  34.391  12.348
31643W        W92954  31.612  15.249   3.296
31644W        W92955  34.904  29.919  14.971
31645W        W92956  13.345  25.613   3.836
31646W        W92957  38.348  33.432  10.496
31647W        W92958   4.303  30.071  13.962
31648W        W92959  35.522   6.253  11.391
31649W        W92960   7.895   8.731   0.794
31650W        W92961  44.327  42.345  11.932
31651W        W92962  29.967  40.501   4.120
31652W        W92963  31.557   9.762  11.053
31653W        W92964  27.118  37.996   4.831
31654W        W92965  42.777  28.150   2.727
31655W        W92966  21.217  44.475  13.022
31656W        W92967  18.784  42.299  11.950
31657W        W92968  31.964  33.569  11.915
31658W        W92969  12.180  38.373   2.367
31659W        W92970  44.801  32.451   3.679
31660W        W92971  19.584  40.014  12.849
31661W        W92972  29.583   3.952   0.869
31662W        W92973  11.272  19.766   4.147
31663W        W92974  43.350  17.695   0.874
31664W        W92975   9.201  34.974   4.212
31665W        W92976  16.793  37.001  11.003
31666W        W92977  12.352  20.693   2.853
31667W        W92978  19.136  15.131  14.024
31668W        W92979   1.764  15.629  10.445
31669W        W92980  22.074  34.071   3.672
31670W        W92981   8.786  37.497   0.291
31671W        W92982  19.116  37.367   9.961
31672W        W92983  24.033   1.926   3.219
31673W        W92984  23.494   8.847   4.282
31674W        W92985  17.642  13.635  11.548
31675W        W92986  15.779   8.797  11.875
31676W        W92987   4.756  29.140  12.476
31677W        W92988  19.193  12.310  12.029
31678W        W92989  38.870  15.816  12.466
31679W        W92990  16.174  34.935   0.763
31680W        W92991  32.027  36.559   3.190
31681W        W92992  29.946   4.358  14.827
31682W        W92993  44.263  36.990   5.322
31683W        W92994  29.974  20.093  12.561
31684W        W92995  31.084  26.669  12.077
31685W        W92996  15.243  43.471  14.805
31686W        W92997  27.485  19.754   0.365
31687W        W92998   0.834  30.601   5.113
31688W        W92999   6.734   7.301  13.462
31689W        W93000  33.934  23.560   4.652
31690W        W93001  19.040   3.781   1.221
31691W        W93002  22.665  43.900   4.351
31692W        W93003  38.846  14.678   2.893
31693W        W93004  35.540   6.827  11.414
31694W        W93005  23.239  44.766  12.921
31695W        W93006   8.895  27.454  11.071
31696W        W93007   8.388  24.100   4.695
31697W        W93008  37.439  14.205   0.808
31698W        W93009  18.555  36.393  13.948
31699W        W93010   1.451   8.818  12.077
31700W        W93011   4.770  41.500   3.326
31701W        W93012  12.736  38.055  13.989
31702W        W93013  15.156  28.057  13.868
31703W        W93014  31.476  44.776  14.942
31704W        W93015  34.534  41.468   9.948
31705W        W93016   7.700  12.254   0.281
31706W        W93017  32.137  19.620   0.430
31707W        W93018  33.113  44.946   1.748
31708W        W93019  15.132  18.240   2.406
31709W        W93020  12.616  39.849   1.798
31710W        W93021   7.372  39.452  11.565
31711W        W93022  22.060  37.454   0.926
31712W        W93023   9.329   2.761  13.462
31713W        W93024  29.984  19.564  12.573
31714W        W93025   5.426  13.808  13.546
31715W        W93026   4.753  37.551  11.120
31716W        W93027  40.435  41.525   1.362
31717W        W93028  17.275  28.461   0.294
31718W        W93029  20.221   1.741   0.883
31719W        W93030  35.381   9.763   0.889
31720W        W93031  24.550  19.256   2.330
31721W        W93032  44.853  27.116   4.333
31722W        W93033  25.513   8.871   2.697
31723W        W93034  21.714  31.940  12.986
31724W        W93035   7.799  18.156  14.795
31725W        W93036  10.685  44.376  14.376
31726W        W93037  27.968  36.073   4.250
31727W        W93038  32.992  40.421  10.927
31728W        W93039  32.601  41.528   1.334
31729W        W93040   7.356   9.319  11.550
31730W        W93041  26.649  12.841   4.776
31731W        W93042   4.771  42.297  13.915
31732W        W93043  29.435  16.779  13.828
31733W        W93044  36.873   0.384  12.991
31734W        W93045  12.853   4.405  14.903
31735W        W93046   9.666  41.360   4.344
31736W        W93047  39.982  44.934  10.516
31737W        W93048  12.174  25.194  12.945
31738W        W93049   5.254   9.792   4.172
31739W        W93050  34.026   7.860   2.254
31740W        W93051  20.584  29.593   2.239
31741W        W93052  19.177  15.638  14.516
31742W        W93053  32.055  23.083  12.957
31743W        W93054  21.607  28.498   4.256
31744W        W93055  17.188   7.329  12.917
31745W        W93056  30.926  29.475  14.467
31746W        W93057  31.579  21.561   3.718
31747W        W93058   7.357  37.518  12.368
31748W        W93059  13.311   0.858  14.801
31749W        W93060   5.697  23.669   0.475
31750W        W93061   2.313  25.108  12.492
31751W        W93062  19.574  20.233   1.894
31752W        W93063  41.413  19.195  12.547
31753W        W93064  23.722  26.084  13.340
31754W        W93065  19.198   9.866   2.202
31755W        W93066  13.832  19.249  14.428
31756W        W93067  35.367  18.126  12.359
31757W        W93068  14.213  17.182   4.785
31758W        W93069  28.072  32.492  12.453
31759W        W93070   3.294  10.139   5.280
31760W        W93071  20.757  16.795  12.092
31761W        W93072   2.405  24.097  13.925
31762W        W93073  44.886   3.448   1.442
31763W        W93074  17.249   7.385   5.197
31764W        W93075  16.105  16.605   3.856
31765W        W93076  44.386   4.767  11.980
31766W        W93077   1.474  10.829  12.858
31767W        W93078  35.056  18.128   0.735
31768W        W93079  24.074  24.152  13.376
31769W        W93080  11.304  11.354  13.794
31770W        W93081   6.246  28.071  12.537
31771W        W93082  16.712   2.402  12.441
31772W        W93083  33.472   9.366  12.907
31773W        W93084  38.474  11.647  11.871
31774W        W93085  12.698  29.568  12.051
31775W        W93086  15.292  13.230  14.772
31776W        W93087  32.416  10.840  14.296
31777W        W93088   8.827  14.336  13.062
31778W        W93089   5.858  26.206  14.407
31779W        W93090  21.022  33.989   4.154
31780W        W93091   0.974   5.249   1.767
31781W        W93092  15.697  15.659   1.793
31782W        W93093  43.959  39.517  14.926
31783W        W93094   2.856  35.924  12.446
31784W        W93095  43.885  13.167  13.033
31785W        W93096   4.364  34.453   0.927
31786W        W93097  35.398   4.205  10.521
31787W        W93098  39.033  19.147   0.390
31788W        W93099   6.691  19.676   3.288
31789W        W93100   5.735  18.578   2.388
31790W        W93101  18.578  30.963   3.752
31791W        W93102  10.147   6.701   2.734
31792W        W93103  29.151   1.951   3.702
31793W        W93104   1.295  39.329   4.811
31794W        W93105  32.076  16.742   3.385
31795W        W93106  18.687  42.781   2.876
31796W        W93107  16.133  37.086   4.191
31797W        W93108  24.481   9.289   0.248
31798W        W93109  19.564  19.778   3.326
31799W        W93110  22.539  30.449   2.797
31800W        W93111  11.760  32.444   1.409
31801W        W93112  37.051  22.528   0.281
31802W        W93113  36.399  41.787  12.357
31803W        W93114  38.962   7.727   4.742
31804W        W93115   7.689  18.120  11.529
31805W        W93116  20.118  28.489   3.756
31806W        W93117  26.026  22.112   1.298
31807W        W93118  34.498  43.310   1.715
31808W        W93119  20.146  17.641  14.395
31809W        W93120  15.329  30.437  10.509
31810W        W93121  11.725  25.611  14.336
31811W        W93122  24.582   2.243  14.294
31812W        W93123  43.486   2.786   0.415
31813W        W93124  38.900  42.472  14.296
31814W        W93125  40.852  33.410   4.672
31815W        W93126  19.221   5.748   4.763
31816W        W93127  40.373  18.072   4.220
31817W        W93128  32.098  19.120  13.434
31818W        W93129   9.765  18.163  14.362
31819W        W93130  29.566  40.927  13.907
31820W        W93131   6.266  39.822  10.424
31821W        W93132   1.286   9.875  12.359
31822W        W93133  28.585  38.562  10.500
31823W        W93134  34.911  22.016  10.420
31824W        W93135  27.023   1.257   4.725
31825W        W93136  38.004  43.992  11.468
31826W        W93137   4.336  19.226   5.697
31827W        W93138  20.728  23.227  12.084
31828W        W93139  39.461  24.205   2.767
31829W        W93140  29.621  14.797  11.491
31830W        W93141   6.688  37.006  11.538
31831W        W93142  33.510  40.536   2.730
31832W        W93143   2.268  39.402  12.497
31833W        W93144  36.988   5.340   0.345
31834W        W93145  12.309   0.370   0.761
31835W        W93146  36.089  23.574   4.614
31836W        W93147  11.261   9.668  12.895
31837W        W93148   8.356   7.867  13.910
31838W        W93149  35.981  36.919  11.595
31839W        W93150  30.077  15.131   4.333
31840W        W93151  15.660   3.818  14.971
31841W        W93152   4.901  30.566  12.539
31842W        W93153  12.294  15.209  10.986
31843W        W93154  15.636  36.384  11.022
31844W        W93155  36.080  25.047   2.741
31845W        W93156  19.728   6.208  12.483
31846W        W93157  14.239  16.197  10.462
31847W        W93158  30.574  11.275   2.816
31848W        W93159   3.714  42.848  14.361
31849W        W93160  28.515   1.241  13.009
31850W        W93161  29.573  35.464   1.815
31851W        W93162   2.862  20.111  11.856
31852W        W93163  21.663  35.453   2.739
31853W        W93164  26.619   4.747   4.638
31854W        W93165  30.913   6.744  11.889
31855W        W93166  35.591  26.500   1.312
31856W        W93167  32.106  24.585  13.859
31857W        W93168   3.275   3.259   3.277
31858W        W93169  41.031  22.578  13.407
31859W        W93170  22.537  13.344  14.913
31860W        W93171  31.547  19.645  11.873
31861W        W93172  24.583   9.752   3.356
31862W        W93173  10.225  20.727   1.440
31863W        W93174  38.829  23.669  11.020
31864W        W93175   3.918  40.324   5.221
31865W        W93176  44.993  36.503  12.496
31866W        W93177  25.194  23.500  11.862
31867W        W93178  16.162   0.448  13.935
31868W        W93179   2.843   6.700   3.207
31869W        W93180  16.101  25.581   0.856
31870W        W93181  30.554  27.000   3.803
31871W        W93182  39.047  27.639  12.971
31872W        W93183  18.267  39.501   3.752
31873W        W93184  33.579  43.498   3.298
31874W        W93185  19.256  31.613   4.231
31875W        W93186   4.934   7.912  12.944
31876W        W93187   4.783  12.170   3.837
31877W        W93188   3.727  40.336   1.816
31878W        W93189  24.083  36.498  10.545
31879W        W93190  37.994  31.005  12.455
31880W        W93191  35.068   1.968  14.439
31881W        W93192  10.140  20.155  10.463
31882W        W93193  22.190   6.241   2.279
31883W        W93194  39.868  16.185  12.093
31884W        W93195   5.402   8.747   3.860
31885W        W93196  31.033  39.840   4.750
31886W        W93197  40.445   8.278   0.887
31887W        W93198  23.015  24.515  14.397
31888W        W93199  19.561  19.044   3.819
31889W        W93200  37.401  24.507  10.514
31890W        W93201  31.098   0.811  10.140
31891W        W93202  25.003  25.502   4.681
31892W        W93203   3.806   0.421   1.891
31893W        W93204  28.538  11.765  14.492
31894W        W93205  12.737  24.663   5.596
31895W        W93206  30.919  24.646   2.680
31896W        W93207  36.001  33.957   1.697
31897W        W93208  19.241  34.568   1.276
31898W        W93209  11.719  36.942  13.889
31899W        W93210  31.506  25.105   4.144
31900W        W93211  19.549  26.493  14.878
31901W        W93212  39.832  38.883   2.810
31902W        W93213  17.133  41.521   3.707
31903W        W93214  21.169   0.911  13.431
31904W        W93215   0.763   5.243  11.467
31905W        W93216  27.643  25.551   1.215
31906W        W93217  18.670  20.118   3.299
31907W        W93218  35.081   7.287  13.393
31908W        W93219  44.441  15.296   4.665
31909W        W93220  19.193   9.176   2.222
31910W        W93221  44.859  17.755   3.225
31911W        W93222  17.780  36.961  13.323
31912W        W93223  25.069  11.693  12.893
31913W        W93224   9.270  16.639   5.083
31914W        W93225   0.913  38.997   2.228
31915W        W93226  28.666   4.395  12.432
31916W        W93227  16.075  20.184  11.057
31917W        W93228  33.898  18.222   3.278
31918W        W93229  11.301  20.735  13.316
31919W        W93230  25.489  44.773   0.397
31920W        W93231  14.243   6.901  12.504
31921W        W93232  33.557  29.017   2.835
31922W        W93233   7.200   2.722   3.317
31923W        W93234  24.494  23.683  13.430
31924W        W93235  19.744  16.700  14.454
31925W        W93236  27.089  11.666  14.882
31926W        W93237  41.320   9.321   0.256
31927W        W93238  42.497   4.774   3.718
31928W        W93239  39.425  17.682   4.788
31929W        W93240   9.247  22.516   4.695
31930W        W93241   2.401  43.482  13.984
31931W        W93242   6.767  34.534   4.818
31932W        W93243  28.031   2.914  10.128
31933W        W93244   2.872   5.294   2.670
31934W        W93245   0.366  31.426  11.522
31935W        W93246   8.700  22.704   3.725
31936W        W93247   5.781  34.524   4.797
31937W        W93248   7.885  14.257  13.884
31938W        W93249  35.028   5.391   3.820
31939W        W93250  42.337  22.192  10.629
31940W        W93251  15.737  42.492   3.644
31941W        W93252  27.044  12.270   2.896
31942W        W93253  23.126  28.184   5.128
31943W        W93254  31.901  42.356   0.813
31944W        W93255  14.169   3.438  11.497
31945W        W93256  23.647  26.042  14.502
31946W        W93257  26.591  44.361   1.911
31947W        W93258  23.997  33.513  10.891
31948W        W93259  38.484  32.126  14.976
31949W        W93260  32.433   7.768  13.547
31950W        W93261  21.184  11.332  12.923
31951W        W93262  12.729   3.911   4.300
31952W        W93263  26.980  14.146  13.467
31953W        W93264  43.413  39.058   3.223
31954W        W93265   0.893  15.637   2.304
31955W        W93266  10.787  29.987   0.391
31956W        W93267  16.265  37.057  12.068
31957W        W93268  12.171  19.206   3.183
31958W        W93269  13.202   4.914  11.890
31959W        W93270   8.188  33.881   0.903
31960W        W93271  14.711   6.706   1.741
31961W        W93272  22.512  28.001  13.053
31962W        W93273  27.533  16.229   1.909
31963W        W93274  29.482   0.882  11.100
31964W        W93275  16.163  40.399   2.882
31965W        W93276  13.285  14.726  13.395
31966W        W93277  17.775  22.086   2.886
31967W        W93278  33.449  33.585  13.840
31968W        W93279  31.020   8.812  10.117
31969W        W93280  28.118  43.349   0.422
31970W        W93281  13.648  30.633   3.855
31971W        W93282  28.502  24.100  12.401
31972W        W93283  33.075  32.482   4.292
31973W        W93284  21.166  42.449  11.960
31974W        W93285  42.285  29.004   2.838
31975W        W93286  36.381   0.419   3.812
31976W        W93287   6.730  39.428  13.412
31977W        W93288  18.164   2.928   0.875
31978W        W93289  15.097  38.844   4.130
31979W        W93290  36.902   3.416  14.287
31980W        W93291  39.049  36.031  10.006
31981W        W93292  24.096  42.890  11.548
31982W        W93293  13.760  28.167  14.454
31983W        W93294  41.858  10.831   1.880
31984W        W93295  36.365  39.063  11.397
31985W        W93296  37.575  37.395  12.968
31986W        W93297   9.388  27.948  12.348
31987W        W93298  26.956   3.433   0.748
31988W        W93299   7.892   6.769   0.740
31989W        W93300  40.349  27.638   1.929
31990W        W93301   0.414  31.960  13.999
31991W        W93302   6.718  43.414   0.257
31992W        W93303  16.710   1.941  13.919
31993W        W93304  33.606  34.953  13.899
31994W        W93305  28.593  27.039  12.431
31995W        W93306   6.297  21.038  10.114
31996W        W93307  13.744   4.239  12.492
31997W        W93308  43.395  38.431  14.767
31998W        W93309  32.970   3.734  12.411
31999W        W93310  34.582  33.075   1.224
32000W        W93311   0.876  27.522  11.507
32001W        W93312  36.001   1.356  14.810
32002W        W93313  12.761  23.075   3.161
32003W        W93314   7.776  24.059  11.391
32004W        W93315  38.485  31.598   0.831
32005W        W93316  41.323  17.702   2.404
32006W        W93317   6.236  31.496  12.017
32007W        W93318  31.605   8.339  10.548
32008W        W93319   8.340  25.599   0.257
32009W        W93320  43.409  25.018   5.269
32010W        W93321  17.640  41.932  14.965
32011W        W93322  34.026   4.892   2.395
32012W        W93323  28.503  41.346   1.374
32013W        W93324   6.326   2.342   0.461
32014W        W93325  10.726  37.050  14.462
32015W        W93326  41.382  15.742   3.641
32016W        W93327  12.356  22.019  13.394
32017W        W93328  43.294  14.739  11.452
32018W        W93329  36.010   0.852   1.230
32019W        W93330  12.247  30.550  14.899
32020W        W93331  37.340  32.988   4.179
32021W        W93332   9.669   5.244  13.937
32022W        W93333  16.092  13.273  12.900
32023W        W93334  20.045  25.157  12.947
32024W        W93335  30.488   9.720  12.945
32025W        W93336  31.413  34.506   0.843
32026W        W93337   5.321  37.968   1.863
32027W        W93338   1.794  37.057  12.000
32028W        W93339  28.531  18.666  13.329
32029W        W93340  38.888  20.208  11.011
32030W        W93341  15.159  44.953   2.727
32031W        W93342  22.251  37.364  10.574
32032W        W93343  18.141  35.027   1.784
32033W        W93344  41.977  44.911  10.597
32034W        W93345  36.023  23.146   4.189
32035W        W93346  24.616  43.874  11.528
32036W        W93347  37.949  20.660  14.312
32037W        W93348  30.045  17.114  11.971
32038W        W93349   4.911  15.218   4.770
32039W        W93350  23.562  38.532  11.103
32040W        W93351  24.694   8.372   2.749
32041W        W93352  42.899  12.188   2.741
32042W        W93353  25.616   2.780   2.683
32043W        W93354   2.412   8.812   1.314
32044W        W93355   0.793  37.033  13.866
32045W        W93356  24.485  35.945  10.442
32046W        W93357   4.779  41.872  11.603
32047W        W93358  20.523   3.365   0.262
32048W        W93359  43.873  21.142   4.714
32049W        W93360  11.663  11.195  11.868
32050W        W93361  10.297   1.739   5.319
32051W        W93362  14.779  31.646   2.292
32052W        W93363   9.314   2.748   2.678
32053W        W93364  22.503  22.226  10.949
32054W        W93365   1.921   7.249  13.544
32055W        W93366  20.200   6.205   2.375
32056W        W93367  40.444  43.861   4.259
32057W        W93368  27.598  12.326  13.547
32058W        W93369  44.753  43.879  14.294
32059W        W93370  35.094  28.600  12.383
32060W        W93371  26.591  12.851   2.899
32061W        W93372  11.851  35.537   4.818
32062W        W93373   8.357  43.790  11.524
32063W        W93374   2.813  18.054  11.558
32064W        W93375  32.518   4.263   4.608
32065W        W93376   2.355  27.120   1.433
32066W        W93377   2.763   1.407   2.745
32067W        W93378  17.274  20.048  12.443
32068W        W93379  26.108  19.705   1.732
32069W        W93380  26.686   0.801  12.935
32070W        W93381  26.206  26.113   2.409
32071W        W93382  21.163  39.920  13.963
32072W        W93383   0.870  11.743  14.824
32073W        W93384  29.427  31.476  11.085
32074W        W93385  39.861   6.257   3.275
32075W        W93386   8.701  39.880  14.990
32076W        W93387   2.832  27.950   0.886
32077W        W93388  15.230   6.835  13.984
32078W        W93389   0.369  36.346  10.633
32079W        W93390   7.263   7.709  10.412
32080W        W93391  25.152  25.624   4.145
32081W        W93392  44.914   6.244   3.776
32082W        W93393  43.313  10.339  11.376
32083W        W93394  15.184   8.326   2.819
32084W        W93395   0.410  10.188  11.553
32085W        W93396  15.738  42.437  11.862
32086W        W93397  19.732  40.871  10.994
32087W        W93398   6.351  21.521  14.794
32088W        W93399  34.930   6.779   1.873
32089W        W93400  29.551  17.200  11.114
32090W        W93401  16.142  40.030  13.361
32091W        W93402  24.991  35.530  13.958
32092W        W93403  16.654  26.603   1.840
32093W        W93404   0.350  32.509   0.445
32094W        W93405  41.332  17.136  11.028
32095W        W93406  44.782  15.603  14.928
32096W        W93407  32.896  16.253   2.363
32097W        W93408  40.327  41.033  10.133
32098W        W93409  16.268  39.356   0.297
32099W        W93410  14.801  41.034   4.750
32100W        W93411  18.210  18.234  12.035
32101W        W93412  28.033  29.432   4.770
32102W        W93413  15.289  40.927  12.093
32103W        W93414  33.513  11.822  12.505
32104W        W93415  15.156  33.956  13.319
32105W        W93416   0.882  34.868  11.881
32106W        W93417   9.811  21.608  11.431
32107W        W93418  16.238  43.492  14.883
32108W        W93419   1.259  19.158   3.244
32109W        W93420   7.273  26.179  14.342
32110W        W93421  31.640  17.283  10.546
32111W        W93422  36.064  44.009  12.858
32112W        W93423  22.032  41.880  11.546
32113W        W93424   9.706  19.692  12.044
32114W        W93425   1.732  24.996   1.241
32115W        W93426  22.235  15.105   3.333
32116W        W93427   6.352  13.789   0.396
32117W        W93428  44.890  28.439   3.209
32118W        W93429  30.624  35.602  10.641
32119W        W93430  26.609  14.699   0.799
32120W        W93431   8.374  15.597   0.372
32121W        W93432  13.820  18.153  11.476
32122W        W93433  20.670  13.333  13.040
32123W        W93434  14.735   2.744  10.012
32124W        W93435  23.039   3.799  10.564
32125W        W93436  42.428  40.875  11.519
32126W        W93437  24.071  19.576   3.210
32127W        W93438  30.618  30.485  12.497
32128W        W93439   1.414  43.993  11.543
32129W        W93440  31.053  28.602   2.259
32130W        W93441  34.444  12.166   0.847
32131W        W93442   3.954  22.714  10.470
32132W        W93443  38.518  42.998  10.534
32133W        W93444  40.484  43.799  13.841
32134W        W93445  11.680  29.143  14.312
32135W        W93446  44.873  15.799   1.747
32136W        W93447  36.501  25.514  14.395
32137W        W93448  21.521  32.436  13.353
32138W        W93449  32.405   8.254   4.241
32139W        W93450  34.383   5.435   3.260
32140W        W93451  21.661  26.118   2.369
32141W        W93452  19.265  33.520   4.282
32142W        W93453  42.426  30.071  14.376
32143W        W93454  29.090  24.053   1.252
32144W        W93455  30.083  10.277  10.460
32145W        W93456  36.882  32.632  11.043
32146W        W93457  25.606  43.374   3.385
32147W        W93458   9.254  25.574   2.321
32148W        W93459   1.907  15.155  10.923
32149W        W93460  28.142  26.665   2.751
32150W        W93461  28.117   3.857  14.983
32151W        W93462  12.844  23.029   1.720
32152W        W93463  36.087  13.776  10.631
32153W        W93464  21.618  42.395   2.789
32154W        W93465   5.278  30.508   1.298
32155W        W93466  17.177  35.912  11.878
32156W        W93467  29.447  28.985   1.219
32157W        W93468  27.504  17.282  14.017
32158W        W93469  20.240  18.242   1.907
32159W        W93470  18.625  16.646   4.742
32160W        W93471  26.624   8.351  13.792
32161W        W93472  21.094  25.550   0.842
32162W        W93473  30.508  30.155  14.355
32163W        W93474   7.327  19.161   3.726
32164W        W93475  28.534  22.214  12.473
32165W        W93476  33.428   6.298  13.816
32166W        W93477  43.440  35.543   0.743
32167W        W93478  27.496   2.382  14.342
32168W        W93479  40.929   2.328   1.271
32169W        W93480  32.490  41.888  11.000
32170W        W93481   0.806   9.264  12.929
32171W        W93482  25.597  36.925  12.994
32172W        W93483  36.462  44.975  13.402
32173W        W93484   5.755  31.142   1.742
32174W        W93485  28.541  19.737  14.509
32175W        W93486  25.470  43.893   3.288
32176W        W93487   6.362   0.304   1.344
32177W        W93488  13.835  39.813   4.655
32178W        W93489   1.345  33.612   2.246
32179W        W93490   1.912  24.197  11.947
32180W        W93491  15.294  17.752  14.308
32181W        W93492  40.495   2.401  10.945
32182W        W93493   8.801   7.205   3.175
32183W        W93494  23.559   7.788  13.495
32184W        W93495   0.878  25.549  11.895
32185W        W93496  13.791   9.158  12.488
32186W        W93497  20.141  44.273  12.005
32187W        W93498   7.800   8.758  11.033
32188W        W93499  28.988   7.354   1.867
32189W        W93500   9.348  22.051   2.357
32190W        W93501  33.959  19.566  14.871
32191W        W93502  33.518   9.279  13.507
32192W        W93503  13.298  35.053   3.722
32193W        W93504  17.689  34.518   1.326
32194W        W93505  36.533  27.491  14.856
32195W        W93506  15.102   3.841   4.734
32196W        W93507  21.062  35.105  13.464
32197W        W93508   2.866  21.698  13.485
32198W        W93509  18.667  39.421   9.982
32199W        W93510  15.275  22.200  10.414
32200W        W93511   4.824  26.179   2.209
32201W        W93512  23.996  24.083  14.353
32202W        W93513  13.182   9.713  12.003
32203W        W93514  43.896   5.354   0.283
32204W        W93515   0.398  15.141  12.563
32205W        W93516  26.542   1.793  10.485
32206W        W93517   9.169  33.886   4.723
32207W        W93518  22.658  23.568  10.431
32208W        W93519  29.582  42.510   2.860
32209W        W93520   4.391  41.483  13.389
32210W        W93521  15.134  17.203   1.211
32211W        W93522  16.215  28.168   2.874
32212W        W93523  36.850  37.847  10.130
32213W        W93524   3.368   6.762   3.867
32214W        W93525  18.187  14.196   3.762
32215W        W93526   4.726  27.986  12.823
32216W        W93527  41.471  16.729  12.500
32217W        W93528   1.338  20.199   3.333
32218W        W93529   5.770  43.765   3.768
32219W        W93530   0.469  19.752  14.503
32220W        W93531  44.856   2.759  13.044
32221W        W93532  25.203  20.094  12.051
32222W        W93533  43.944  38.565  12.077
32223W        W93534  12.360  27.641  12.447
32224W        W93535   8.310   2.436  13.496
32225W        W93536  40.393   8.866  12.386
32226W        W93537  15.159  30.023  14.322
32227W        W93538  40.367  24.073  10.637
32228W        W93539  11.333   9.726  11.070
32229W        W93540  28.033   5.361  11.548
32230W        W93541  41.380  29.455  12.574
32231W        W93542  36.095  40.970  11.421
32232W        W93543  41.480  44.909   2.810
32233W        W93544  31.431  34.885   0.400
32234W        W93545  27.617  40.844   3.331
32235W        W93546   3.217   3.785  12.951
32236W        W93547   6.834  27.667   4.176
32237W        W93548  18.555   1.308   4.808
32238W        W93549  17.622  26.600   1.763
32239W        W93550  27.452  24.501  10.626
32240W        W93551   7.187  33.919  13.537
32241W        W93552  32.061  15.191  10.954
32242W        W93553  23.581  27.055   4.276
32243W        W93554  25.516   9.691   3.330
32244W        W93555  13.616  37.835  13.351
32245W        W93556  20.749  30.542  14.444
32246W        W93557  27.466  35.404  11.381
32247W        W93558  10.334  15.266   3.374
32248W        W93559  34.398  22.709  13.808
32249W        W93560   5.776  38.364   0.295
32250W        W93561   3.433  12.851  14.407
32251W        W93562  15.595   8.742   1.292
32252W        W93563  22.175  16.306  14.851
32253W        W93564  30.556  12.344   4.836
32254W        W93565  41.927  27.005   3.736
32255W        W93566   0.269   9.884   0.866
32256W        W93567  11.153  30.542   2.823
32257W        W93568  24.563  30.629  11.515
32258W        W93569  41.491  42.514   0.837
32259W        W93570  36.367  27.456   4.147
32260W        W93571  28.130  36.537  12.069
32261W        W93572   7.839  32.912   3.157
32262W        W93573   5.801  18.717  10.599
32263W        W93574  12.228  39.896  12.504
32264W        W93575  15.172  27.553   3.221
32265W        W93576  22.056  40.319  13.339
32266W        W93577  11.137   9.800  11.607
32267W        W93578  19.566   7.902   3.781
32268W        W93579  41.041   1.843   2.275
32269W        W93580  18.589  41.844   1.445
32270W        W93581  29.964  29.451  12.048
32271W        W93582  23.181  15.178  10.442
32272W        W93583   1.306  17.069   4.676
32273W        W93584   6.286  10.230  11.455
32274W        W93585   2.354  36.540   1.297
32275W        W93586  27.955  20.156  14.884
32276W        W93587  40.437  41.850   1.756
32277W        W93588  43.890  14.309  11.538
32278W        W93589  17.781  18.226   0.766
32279W        W93590  43.278  28.088   4.825
32280W        W93591  11.223   6.393   3.175
32281W        W93592  13.805  11.700  14.886
32282W        W93593  28.654  33.525  11.408
32283W        W93594  43.918   3.750   4.311
32284W        W93595   5.425  20.661  14.858
32285W        W93596   3.946  24.499   0.913
32286W        W93597  27.103  42.913   4.653
32287W        W93598  32.562  21.262   0.738
32288W        W93599  15.818  38.479   2.714
32289W        W93600  32.482  19.184  12.840
32290W        W93601  26.555  10.831  12.578
32291W        W93602  41.470  33.974   1.387
32292W        W93603   9.796  17.123  13.891
32293W        W93604  22.545  17.191   1.417
32294W        W93605  22.622   9.348   0.875
32295W        W93606   5.837  29.078  10.897
32296W        W93607   8.673  28.451  11.920
32297W        W93608  35.480  14.780   2.719
32298W        W93609  31.482   8.660   4.320
32299W        W93610  42.430  15.639  11.515
32300W        W93611  12.696  26.470   1.706
32301W        W93612  18.052  21.144  14.898
32302W        W93613  23.005   3.383   3.691
32303W        W93614  39.419  16.281   2.357
32304W        W93615  18.125  14.187   0.483
32305W        W93616  26.606  16.783   3.753
32306W        W93617  10.825  31.922  12.924
32307W        W93618  20.553  26.546   0.933
32308W        W93619  35.092  24.094  11.536
32309W        W93620  37.022  11.721   0.437
32310W        W93621  27.667  24.611   0.906
32311W        W93622  11.714  15.730   4.316
32312W        W93623  29.104  35.906   4.746
32313W        W93624  23.534  21.121   2.779
32314W        W93625  34.474  42.859   1.358
32315W        W93626  28.678  19.607   2.885
32316W        W93627  16.572   1.290  10.461
32317W        W93628  42.845  32.000  11.404
32318W        W93629  21.213  33.392   0.316
32319W        W93630  26.504  11.283  10.452
32320W        W93631   2.412  10.845  11.925
32321W        W93632   9.182  18.715  10.999
32322W        W93633  42.876  22.245  14.781
32323W        W93634  35.046  33.626  13.955
32324W        W93635  41.372   0.926  11.452
32325W        W93636  17.148  17.177   1.891
32326W        W93637  16.574  33.502   0.299
32327W        W93638  33.582  28.930   5.138
32328W        W93639  35.547  22.614  13.460
32329W        W93640  16.175  34.427   3.650
32330W        W93641  30.995   3.259  10.044
32331W        W93642  14.294  18.240   1.345
32332W        W93643   0.481  41.427  12.420
32333W        W93644   2.957   4.729  12.081
32334W        W93645  40.939  38.474   9.473
32335W        W93646  27.081  14.237  12.539
32336W        W93647   1.765  38.431   1.342
32337W        W93648  23.588  34.505   3.250
32338W        W93649  34.027  27.638   0.931
32339W        W93650   1.735  30.131   1.791
32340W        W93651  30.427  42.927  13.532
32341W        W93652  33.064  42.827  11.998
32342W        W93653  44.942   5.814  13.043
32343W        W93654  27.453  11.669   1.255
32344W        W93655   2.469  11.646  10.531
32345W        W93656  11.781  20.261  13.898
32346W        W93657  27.670   0.852   2.811
32347W        W93658  36.043  10.344   1.410
32348W        W93659  37.915  32.122  14.399
32349W        W93660  32.474  34.914  12.889
32350W        W93661  10.784   2.907  11.078
32351W        W93662  27.976  15.233   4.683
32352W        W93663  17.179  43.946   1.427
32353W        W93664  42.337  12.702  13.437
32354W        W93665  20.172  25.573   4.131
32355W        W93666  26.976  15.099   4.281
32356W        W93667  16.092  27.128  14.415
32357W        W93668   9.375  37.926  14.803
32358W        W93669  40.538  11.791  13.884
32359W        W93670  17.101  44.948  11.117
32360W        W93671  16.163  43.823  14.933
32361W        W93672  44.875  20.537   0.936
32362W        W93673  29.060  34.589   0.859
32363W        W93674  41.381  25.611  11.870
32364W        W93675  20.255  37.404  10.434
32365W        W93676  19.189  17.599  14.418
32366W        W93677  25.168  26.576  14.355
32367W        W93678  10.176  18.212  10.917
32368W        W93679   3.250  29.592   2.345
32369W        W93680  12.612  41.318  14.957
32370W        W93681  31.054   1.306   3.641
32371W        W93682  27.033   4.713   4.644
32372W        W93683  44.980  40.388  13.522
32373W        W93684  35.577  26.520  12.408
32374W        W93685  15.666  24.023   2.735
32375W        W93686  13.703  39.339   1.867
32376W        W93687  17.228  43.868  13.799
32377W        W93688  43.290  14.307  14.802
32378W        W93689   0.955   9.854  11.028
32379W        W93690  24.669   3.273  12.886
32380W        W93691  42.936  25.691  14.008
32381W        W93692  32.479  20.766   4.766
32382W        W93693  42.402  30.153   4.141
32383W        W93694  16.730  31.903   0.277
32384W        W93695  34.614  39.976   2.694
32385W        W93696  14.214  28.457   4.243
32386W        W93697   0.913  34.554   2.193
32387W        W93698  42.889   5.928   3.797
32388W        W93699  36.385  20.736  12.916
32389W        W93700  14.321  44.270  14.368
32390W        W93701  42.312  37.394   4.131
32391W        W93702   3.753   4.398  14.373
32392W        W93703  12.285  36.046   0.482
32393W        W93704  13.645  13.840   2.317
32394W        W93705  42.784  16.123  14.969
32395W        W93706  40.044  26.468  14.388
32396W        W93707  10.747  14.655  12.446
32397W        W93708  25.049  21.254   1.746
32398W        W93709  20.242   6.897  14.786
32399W        W93710  12.752  14.130  13.898
32400W        W93711  20.600  10.838  11.082
32401W        W93712  23.520  17.238   0.892
32402W        W93713  17.659  27.974   3.840
32403W        W93714  25.176  25.193   4.348
32404W        W93715   8.380  25.703   1.922
32405W        W93716   3.715  36.581  13.372
32406W        W93717  33.566  29.467   0.728
32407W        W93718  21.539  32.067   4.131
32408W        W93719   5.233  23.535   4.188
32409W        W93720   2.753  25.998   1.726
32410W        W93721  18.174  22.233  12.042
32411W        W93722  25.216  27.599  12.354
32412W        W93723  14.156  28.615   0.832
32413W        W93724   4.339   7.708  14.359
32414W        W93725  22.734  16.714  13.329
32415W        W93726  23.676  30.967   2.223
32416W        W93727  15.212   7.868  12.429
32417W        W93728  11.137  14.154  13.521
32418W        W93729  16.783   9.310  10.425
32419W        W93730  38.010   9.374  14.797
32420W        W93731   3.455  35.033   0.873
32421W        W93732  19.573  29.433   1.265
32422W        W93733  17.172  35.365   4.721
32423W        W93734  29.018   0.474  14.030
32424W        W93735  23.170  28.042  11.878
32425W        W93736  33.081  24.511   4.821
32426W        W93737  16.225  35.020  13.475
32427W        W93738  19.215  37.034   4.180
32428W        W93739  23.619  19.150  14.990
32429W        W93740  21.119   7.754  13.339
32430W        W93741  29.479   1.450  12.028
32431W        W93742   2.363   1.901   3.327
32432W        W93743  21.188  29.098   0.349
32433W        W93744  22.609   2.856  10.004
32434W        W93745  30.096  32.951   0.304
32435W        W93746  42.324  16.203  11.928
32436W        W93747  22.025   7.823  11.055
32437W        W93748  23.551  18.282   1.698
32438W        W93749  26.105   2.901   1.790
32439W        W93750  14.601   9.376  11.057
32440W        W93751  36.996  29.668   5.147
32441W        W93752  27.178  28.615   2.729
32442W        W93753  29.646  12.333   3.674
32443W        W93754  13.721   3.368  14.785
32444W        W93755   5.210   1.753  11.562
32445W        W93756  44.292  34.566  11.473
32446W        W93757  16.176  39.321   4.763
32447W        W93758  32.600  38.423   4.786
32448W        W93759  15.248  25.974   4.716
32449W        W93760  24.590  24.697  12.490
32450W        W93761  33.095  17.785  10.613
32451W        W93762   7.759  33.941  14.840
32452W        W93763  12.248  37.018  10.631
32453W        W93764  20.569  34.904   2.839
32454W        W93765   2.333  33.416   5.136
32455W        W93766  19.089   8.400   4.216
32456W        W93767  43.421  17.063  10.904
32457W        W93768  22.545   5.332  14.284
32458W        W93769  27.539  23.114  11.482
32459W        W93770  42.463  25.073  12.566
32460W        W93771   2.772  40.952   3.373
32461W        W93772  42.016  26.201  11.926
32462W        W93773   8.294  18.141  14.879
32463W        W93774  41.933  31.986   3.299
32464W        W93775  24.026  38.875   1.859
32465W        W93776  31.073  34.897   4.722
32466W        W93777  15.789   2.331   0.449
32467W        W93778  21.684  22.055  14.320
32468W        W93779  40.974  33.400   9.953
32469W        W93780   6.380  31.110  13.950
32470W        W93781  26.592  24.685   0.369
32471W        W93782   0.844   0.811  12.548
32472W        W93783   0.336  28.148  11.869
32473W        W93784  27.037  33.573  11.910
32474W        W93785  42.354   5.886   4.242
32475W        W93786  24.996   9.266   3.196
32476W        W93787  20.718  23.177   1.291
32477W        W93788   8.666  10.232  14.478
32478W        W93789   6.697   4.295   1.819
32479W        W93790  19.173  11.310  10.596
32480W        W93791   4.245  11.722  12.927
32481W        W93792   9.671  42.853   1.444
32482W        W93793  39.500  18.666  13.035
32483W        W93794  38.388  17.738   2.300
32484W        W93795   2.902  24.555  11.482
32485W        W93796  40.828   9.261   0.821
32486W        W93797  20.118   9.769  10.521
32487W        W93798  29.657  24.007  11.532
32488W        W93799  26.018   5.835   9.639
32489W        W93800  16.717  12.215   3.278
32490W        W93801  31.523  20.251   3.839
32491W        W93802  37.369  22.072  12.488
32492W        W93803   0.359  40.013  13.410
32493W        W93804  27.066  19.661   4.824
32494W        W93805   8.365   0.479   1.858
32495W        W93806  29.052   6.329   0.734
32496W        W93807  10.761   1.921   1.397
32497W        W93808  42.957  32.007   0.350
32498W        W93809  10.768   8.197  11.081
32499W        W93810   9.693  15.234   9.510
32500W        W93811  36.910  35.867  11.473
32501W        W93812   9.777   8.304   1.757
32502W        W93813  10.826   6.786  14.390
32503W        W93814  43.516  19.150   0.801
32504W        W93815  14.708   4.891   0.942
32505W        W93816  39.456  32.120   3.688
32506W        W93817  23.524  10.169   3.731
32507W        W93818  30.060  37.490   4.779
32508W        W93819  25.034  40.824  12.357
32509W        W93820  11.720  36.509   3.272
32510W        W93821  29.930  32.107   1.932
32511W        W93822  12.360   9.152   0.440
32512W        W93823  41.480   6.684  14.495
32513W        W93824  40.322  28.170  14.335
32514W        W93825   1.945   3.454  14.786
32515W        W93826  17.688  35.044  11.926
32516W        W93827  11.283  20.742  11.396
32517W        W93828  21.157  44.469  13.839
32518W        W93829  23.175  11.833   3.774
32519W        W93830  37.990  42.795  14.999
32520W        W93831  20.626  31.921   4.792
32521W        W93832   0.384  34.450   3.334
32522W        W93833  36.547  44.469   2.190
32523W        W93834  34.578  36.545   0.924
32524W        W93835  23.016  21.153  12.538
32525W        W93836  40.970  20.760   1.927
32526W        W93837  40.424  43.344  14.482
32527W        W93838  25.675  19.283  12.050
32528W        W93839  19.040  20.532   4.225
32529W        W93840   8.831  16.171  12.375
32530W        W93841   1.925  13.148   2.358
32531W        W93842  28.992   2.724   0.754
32532W        W93843   2.866  18.074   0.476
32533W        W93844   9.809   0.754  12.855
32534W        W93845  37.460  33.917  12.015
32535W        W93846  42.875  31.126  14.296
32536W        W93847  21.225  18.243   1.384
32537W        W93848   8.323   8.254   4.335
32538W        W93849  14.120  33.623  14.007
32539W        W93850   3.723  41.856  11.094
32540W        W93851  39.468  13.314   0.413
32541W        W93852  32.430  19.197  13.918
32542W        W93853  30.567  17.632   4.342
32543W        W93854  20.549   1.376  13.997
32544W        W93855   3.806  15.818  14.416
32545W        W93856  11.850   4.891  12.866
32546W        W93857   2.266  15.156  14.783
32547W        W93858  43.768  21.188  12.902
32548W        W93859   9.318  29.515  13.939
32549W        W93860  34.536  25.074  11.931
32550W        W93861   3.451   7.718   1.917
32551W        W93862  13.747  18.255  11.880
32552W        W93863  28.457  31.085  13.005
32553W        W93864   1.262  30.458  11.925
32554W        W93865  12.794  41.377   4.186
32555W        W93866   6.789  40.493   4.807
32556W        W93867  16.256  22.507   2.269
32557W        W93868  37.474  38.890   4.280
32558W        W93869  12.319  38.343   1.347
32559W        W93870  34.497  26.456  12.474
32560W        W93871  39.022  18.739   0.892
32561W        W93872  43.888   7.787  12.486
32562W        W93873  43.892  25.132   4.236
32563W        W93874  12.298  28.624  13.470
32564W        W93875  35.022  39.836  10.960
32565W        W93876   6.917  42.302  13.354
32566W        W93877  36.908  30.139  12.385
32567W        W93878  34.117  15.711   4.218
32568W        W93879  33.956  42.429  13.927
32569W        W93880  36.860  19.058   3.300
32570W        W93881  41.014  37.044   2.247
32571W        W93882   6.827  26.168   1.431
32572W        W93883  29.119  43.383  13.902
32573W        W93884  36.473  30.593  14.909
32574W        W93885  34.465  19.193   0.334
32575W        W93886   2.347  28.949   4.723
32576W        W93887  16.220  39.994   2.898
32577W        W93888  27.460  33.885  13.445
32578W        W93889  41.324  33.489   1.738
32579W        W93890  35.896   0.935   0.293
32580W        W93891   1.875  19.203   2.411
32581W        W93892  28.601  16.717   3.829
32582W        W93893  30.567  22.562  13.940
32583W        W93894  28.567   8.360   2.300
32584W        W93895   3.786  37.921  11.447
32585W        W93896  11.368   7.292  12.917
32586W        W93897  40.004  21.641   3.208
32587W        W93898  21.050  34.033  14.994
32588W        W93899  39.063  10.807   2.665
32589W        W93900  41.844  34.439   2.292
32590W        W93901  17.730  18.137  11.578
32591W        W93902  21.178  28.993  11.063
32592W        W93903  44.423  23.986   0.916
32593W        W93904  18.096  34.106  14.454
32594W        W93905  33.453  42.446  11.047
32595W        W93906  11.717  35.927  10.456
32596W        W93907  28.038  10.819  12.481
32597W        W93908  39.060  18.599   5.289
32598W        W93909  18.274  12.268   2.223
32599W        W93910  24.027  24.010  12.425
32600W        W93911  43.830  19.245  11.464
32601W        W93912  29.026   6.707  11.417
32602W        W93913   0.924  32.074   1.783
32603W        W93914  24.526  20.637  10.494
32604W        W93915  32.457  36.009  14.475
32605W        W93916  34.572  10.161  13.537
32606W        W93917  25.043  13.634   1.904
32607W        W93918  12.671  23.113  11.960
32608W        W93919  11.250  41.425   2.356
32609W        W93920  28.109  35.945   4.738
32610W        W93921   4.408   0.887  11.442
32611W        W93922   4.449  44.880   4.743
32612W        W93923  44.917   3.397   0.795
32613W        W93924  12.639  38.520   4.202
32614W        W93925  13.322  31.119  11.102
32615W        W93926  18.240  22.165  10.968
32616W        W93927  33.529   6.806  14.928
32617W        W93928  34.920  18.292  14.919
32618W        W93929   8.694  42.342  13.346
32619W        W93930  44.270  25.970   0.278
32620W        W93931  25.630   5.272   5.204
32621W        W93932  40.469   4.889  14.834
32622W        W93933  33.540  27.534  11.039
32623W        W93934  33.003  28.054   1.447
32624W        W93935  11.781  41.505  13.061
32625W        W93936  43.310  10.152   4.178
32626W        W93937  20.091  31.482   2.856
32627W        W93938   1.318  36.084  10.912
32628W        W93939  36.846  25.484   3.694
32629W        W93940  29.029  31.954   1.815
32630W        W93941   1.403  39.353  12.987
32631W        W93942   0.974  20.098  12.392
32632W        W93943  15.135   4.780   5.088
32633W        W93944  32.455  36.989  14.428
32634W        W93945  17.121   5.218   9.929
32635W        W93946   7.810  33.477  14.892
32636W        W93947   4.863   5.902  13.793
32637W        W93948   0.890   1.776   4.249
32638W        W93949   6.859   2.378  14.361
32639W        W93950  19.639  24.018  14.499
32640W        W93951  17.684  19.225   4.759
32641W        W93952  23.104  27.036   0.414
32642W        W93953  21.051  22.559  14.025
32643W        W93954  30.549  24.221   1.322
32644W        W93955  15.619   9.760  13.530
32645W        W93956  36.389  25.967   1.826
32646W        W93957   8.298   3.323  11.561
32647W        W93958  30.053  26.572  11.446
32648W        W93959  30.423  36.436   3.211
32649W        W93960  19.214  12.837  11.938
32650W        W93961  22.682  11.677   2.903
32651W        W93962  11.185   7.840  14.930
32652W        W93963  13.794  28.551  12.050
32653W        W93964   2.237  21.549  11.478
32654W        W93965  38.383  26.003   4.310
32655W        W93966  27.636  10.222  13.324
32656W        W93967  27.970  22.144   4.122
32657W        W93968  27.597   3.447  10.416
32658W        W93969   4.391  34.563   4.256
32659W        W93970   7.319  21.100  14.440
32660W        W93971  36.923  21.673   4.828
32661W        W93972  34.429  33.076  11.426
32662W        W93973   9.706  41.982   3.647
32663W        W93974  37.032  32.973  14.350
32664W        W93975   8.364  33.498   2.300
32665W        W93976  25.592  15.266  13.447
32666W        W93977  14.261   9.707  13.051
32667W        W93978  12.761   6.321   5.238
32668W        W93979  15.625  24.718  14.865
32669W        W93980  26.490  10.305  14.025
32670W        W93981  36.512  20.710   1.896
32671W        W93982  32.601  35.971   0.918
32672W        W93983  37.357   2.311   5.131
32673W        W93984  14.315   6.869  10.492
32674W        W93985  44.274  37.359   5.101
32675W        W93986  43.323  35.591   3.718
32676W        W93987   5.838   2.469  10.481
32677W        W93988  31.992  33.576   3.745
32678W        W93989   4.738  10.355  11.436
32679W        W93990   7.836  24.529   1.846
32680W        W93991  29.004  29.001   4.115
32681W        W93992  13.180  22.161  12.962
32682W        W93993  19.567   1.778  12.413
32683W        W93994   2.406  21.152   4.614
32684W        W93995  39.920   0.814  10.979
32685W        W93996  28.467  35.441   2.850
32686W        W93997  29.643   1.809   4.620
32687W        W93998  37.382   9.727   1.916
32688W        W93999  33.034  40.481   2.868
32689W        W94000  15.283  16.627  11.405
32690W        W94001  23.024  17.641  13.478
32691W        W94002  11.709  33.040   2.211
32692W        W94003  36.532  32.430  11.954
32693W        W94004  44.408   3.747   0.873
32694W        W94005  36.927  30.017   3.800
32695W        W94006  11.853  37.517   3.704
32696W        W94007  15.189  38.981  12.431
32697W        W94008  16.617  25.120   1.784
32698W        W94009   8.389  14.204  14.902
32699W        W94010  11.737  26.099   2.838
32700W        W94011  14.650  24.055  11.586
32701W        W94012  42.001   1.368   4.630
32702W        W94013   5.813  23.075  12.372
32703W        W94014  35.595  33.391   2.303
32704W        W94015  28.539  25.166  10.594
32705W        W94016   4.879  38.967  13.820
32706W        W94017  33.611  39.474   3.210
32707W        W94018  35.426  32.483   1.374
32708W        W94019  32.501   1.874  11.536
32709W        W94020   8.218  25.126  12.025
32710W        W94021  12.136   0.788  10.480
32711W        W94022  11.822  20.042   0.962
32712W        W94023   5.198  40.472  11.988
32713W        W94024  36.079   1.344  10.961
32714W        W94025  39.462  22.177   0.883
32715W        W94026  36.057  21.594  11.471
32716W        W94027  29.616   2.251   5.261
32717W        W94028  21.089  20.164   4.716
32718W        W94029  11.754   4.440  14.478
32719W        W94030  26.148  41.521   3.198
32720W        W94031  30.124   7.227   3.259
32721W        W94032  31.504  26.562   3.288
32722W        W94033  10.285  38.499   2.824
32723W        W94034  35.487  35.367  13.855
32724W        W94035  38.908  40.466   2.664
32725W        W94036   0.887  22.118   1.731
32726W        W94037  43.272  24.020  13.490
32727W        W94038  29.027  31.555  13.467
32728W        W94039  14.682  28.590   1.229
32729W        W94040  18.734  18.272   4.340
32730W        W94041   9.150  14.750   4.795
32731W        W94042  42.379  34.448   2.727
32732W        W94043  41.975  36.416  11.858
32733W        W94044  41.402  35.856   4.737
32734W        W94045  27.606  27.547  11.460
32735W        W94046  19.240   0.953  12.084
32736W        W94047  41.490   4.377  12.360
32737W        W94048   5.296  23.059  11.961
32738W        W94049  23.109   2.808   0.841
32739W        W94050  10.296  35.935  11.408
32740W        W94051  26.068  10.683  14.303
32741W        W94052  15.192   4.252   5.310
32742W        W94053  40.482  10.177  11.543
32743W        W94054  43.502  19.747  13.476
32744W        W94055  24.707   0.979  12.425
32745W        W94056  23.583  29.653  13.486
32746W        W94057  42.983   9.714   4.266
32747W        W94058  37.396  35.047   4.643
32748W        W94059   6.844  32.039   0.317
32749W        W94060   7.910  25.053   1.412
32750W        W94061  23.503  15.173  13.456
32751W        W94062  34.030   6.364   2.337
32752W        W94063  23.581  16.758   2.288
32753W        W94064  23.703  14.660  11.877
32754W        W94065  38.424  14.651   3.859
32755W        W94066  12.650  44.418  11.460
32756W        W94067  21.518  36.879  10.483
32757W        W94068  17.586  16.766   0.254
32758W        W94069  42.333  35.919  11.923
32759W        W94070   9.360  39.408  14.448
32760W        W94071  44.904  16.182   3.322
32761W        W94072  20.597   0.877  11.399
32762W        W94073  24.076  17.165   2.835
32763W        W94074  32.530  30.136  14.961
32764W        W94075  37.402   8.400  11.088
32765W        W94076   6.772  18.291  12.916
32766W        W94077  41.940  20.622   1.415
32767W        W94078  16.691   3.788   2.260
32768W        W94079  16.809   4.837   3.826
32769W        W94080   4.888   5.418   1.924
32770W        W94081  31.512  33.471  10.430
32771W        W94082  31.500  16.580  12.478
32772W        W94083  20.239  13.197   0.384
32773W        W94084  38.412  31.577   2.193
32774W        W94085   4.930  38.519  14.766
32775W        W94086  40.442   6.361  13.853
32776W        W94087   0.328  36.967   4.164
32777W        W94088  28.667  36.433  12.409
32778W        W94089   1.887  38.866   1.253
32779W        W94090  30.154  11.693   3.799
32780W        W94091  12.819   6.688  10.971
32781W        W94092  15.278   2.828  14.515
32782W        W94093   4.346   8.260   2.742
32783W        W94094  40.012   3.297  11.383
32784W        W94095  36.901  42.880  13.882
32785W        W94096  44.320  41.306   5.126
32786W        W94097  25.679  24.551  14.495
32787W        W94098  30.083  15.126  12.886
32788W        W94099  15.167  13.174  11.509
32789W        W94100  41.425  18.629  10.489
32790W        W94101  36.517  37.875   3.313
32791W        W94102   8.892  23.065  14.815
32792W        W94103  16.188  24.167  11.904
32793W        W94104   4.273  32.585   0.957
32794W        W94105  44.399  43.371  13.499
32795W        W94106  43.907  17.724   2.223
32796W        W94107  35.359  42.493   4.152
32797W        W94108  10.183  40.429  14.023
32798W        W94109  44.985  29.517   4.829
32799W        W94110   4.887   6.775  14.379
32800W        W94111  24.028  31.107   5.698
32801W        W94112  29.022  43.927  12.353
32802W        W94113  27.515  40.829   0.258
32803W        W94114  23.582  11.130  14.504
32804W        W94115  39.014   9.355   1.795
32805W        W94116  27.476  37.509  13.914
32806W        W94117  18.203  26.964  11.864
32807W        W94118   9.645  31.907   2.663
32808W        W94119  15.812  34.526  13.536
32809W        W94120   4.835  19.701   4.834
32810W        W94121  13.652   8.717   0.735
32811W        W94122  31.900   4.428   0.913
32812W        W94123  19.584  14.191  13.804
32813W        W94124   5.745  28.475   4.790
32814W        W94125  10.227  39.947  13.476
32815W        W94126  39.441  15.095   1.790
32816W        W94127  26.458  44.884   2.712
32817W        W94128  44.915  14.250   3.277
32818W        W94129  42.433  19.648   1.743
32819W        W94130  40.327  26.573   1.350
32820W        W94131  24.229  24.542   3.673
32821W        W94132  42.980  10.740  11.967
32822W        W94133  24.680   8.215  12.388
32823W        W94134  38.456  10.748   2.809
32824W        W94135   4.233  41.984  13.977
32825W        W94136  27.607  44.881   3.262
32826W        W94137  27.659  30.504  11.391
32827W        W94138  40.006   6.731   3.636
32828W        W94139  32.583  14.827  11.456
32829W        W94140   6.317   4.266  12.514
32830W        W94141  20.763  19.223   4.284
32831W        W94142  18.742  12.223  13.385
32832W        W94143  33.613  30.531  12.530
32833W        W94144  10.862  36.055   2.349
32834W        W94145  16.711  33.392  10.428
32835W        W94146  37.959  11.271  11.087
32836W        W94147  22.164  14.139  10.511
32837W        W94148  11.628  39.532   0.929
32838W        W94149  23.650  35.019  13.856
32839W        W94150  20.616  25.152  11.047
32840W        W94151  15.812  41.351   1.246
32841W        W94152   5.762  36.998   0.364
32842W        W94153  25.632   1.419   1.282
32843W        W94154  17.663  12.758   5.661
32844W        W94155  40.040  27.129   2.350
32845W        W94156  44.504  28.434  13.347
32846W        W94157  29.159  30.025   2.185
32847W        W94158  30.537  27.170  14.834
32848W        W94159  13.786  39.352   0.897
32849W        W94160  39.533   5.715   2.363
32850W        W94161  41.461  27.543   1.252
32851W        W94162  21.244  37.878   1.751
32852W        W94163  21.611  38.458  12.571
32853W        W94164  36.394  20.041  13.007
32854W        W94165  14.768  21.709   0.893
32855W        W94166   7.320   7.783   2.319
32856W        W94167  42.480  24.512  10.488
32857W        W94168  26.682   6.249   9.943
32858W        W94169  13.174  20.613  10.938
32859W        W94170  28.613   0.320   4.225
32860W        W94171   0.256  31.498  11.915
32861W        W94172  12.789  38.018   3.238
32862W        W94173  10.338  27.655   1.311
32863W        W94174  21.196  31.429   0.286
32864W        W94175  41.826  39.854   2.886
32865W        W94176  35.937   1.273  10.488
32866W        W94177  22.741   7.264   4.794
32867W        W94178   9.717  37.018  14.906
32868W        W94179  40.907   1.874  12.945
32869W        W94180   6.422  13.669  14.920
32870W        W94181  37.981  33.957  14.001
32871W        W94182  41.907  32.071   0.944
32872W        W94183   3.332   8.682  13.861
32873W        W94184  30.944  35.445   3.149
32874W        W94185   6.708   7.358  14.401
32875W        W94186  43.449   4.222  14.913
32876W        W94187   4.890  33.496   4.710
32877W        W94188  35.016  33.968   3.763
32878W        W94189   8.273  17.597   4.128
32879W        W94190  23.040  26.691  13.836
32880W        W94191  37.906   5.205   2.364
32881W        W94192  33.957  38.570  10.893
32882W        W94193  44.979  27.650  13.973
32883W        W94194  41.994  31.624  13.351
32884W        W94195  24.130  23.634  10.436
32885W        W94196  12.620  13.293   2.903
32886W        W94197  12.733  36.919  11.558
32887W        W94198  28.549  37.977  14.394
32888W        W94199  34.929  16.219  13.311
32889W        W94200  19.241  37.935   0.959
32890W        W94201   7.897  22.739  11.552
32891W        W94202   5.308  12.360   4.200
32892W        W94203  38.872  31.444  14.292
32893W        W94204  24.688  30.440   0.809
32894W        W94205  41.385  39.436  11.023
32895W        W94206  19.679  34.374   0.784
32896W        W94207  23.113  24.121  13.470
32897W        W94208  25.125  41.911  11.496
32898W        W94209  16.219   6.716   9.665
32899W        W94210  19.611  10.232  14.839
32900W        W94211  40.806  26.977   2.354
32901W        W94212   8.297  32.616  10.420
32902W        W94213  27.467  19.662   2.351
32903W        W94214   9.396   9.396  11.863
32904W        W94215  31.117  25.527  14.304
32905W        W94216   3.444  16.152   3.282
32906W        W94217  38.474  23.232   1.873
32907W        W94218  29.030  23.575   3.857
32908W        W94219  36.460  16.134  13.456
32909W        W94220   6.904   2.232  11.104
32910W        W94221   5.799  37.057   2.776
32911W        W94222  24.518  12.619   4.322
32912W        W94223  11.732  20.215   2.710
32913W        W94224  25.516   5.380  10.560
32914W        W94225   7.720  37.352  12.043
32915W        W94226  31.449  21.715   2.294
32916W        W94227   6.353  19.167  12.496
32917W        W94228   5.879  34.120  10.633
32918W        W94229  14.704   2.376  12.059
32919W        W94230   0.487  14.692  12.953
32920W        W94231  26.175  21.195   2.877
32921W        W94232  41.015  16.302   1.806
32922W        W94233  30.151  35.033   3.256
32923W        W94234  37.866  24.173   1.235
32924W        W94235   1.775  27.522  13.036
32925W        W94236  44.374   8.351  11.527
32926W        W94237   1.389  31.647  12.368
32927W        W94238  43.501  29.987   2.834
32928W        W94239  10.291  36.436  13.917
32929W        W94240  15.679  23.656   2.790
32930W        W94241   1.372   2.356   1.320
32931W        W94242  17.242   9.730   0.345
32932W        W94243   6.412  12.229   4.232
32933W        W94244  21.074  35.565  12.500
32934W        W94245  26.117  33.545  11.976
32935W        W94246   1.945  27.554   3.188
32936W        W94247  17.116  40.388   0.890
32937W        W94248   9.337   5.430   0.249
32938W        W94249  30.559  40.016   1.810
32939W        W94250  11.358  18.231  12.510
32940W        W94251  14.600   9.258  12.050
32941W        W94252  31.963  34.608  10.035
32942W        W94253  33.418  33.503   2.253
32943W        W94254  23.725   5.274   4.186
32944W        W94255  35.525   1.749  12.560
32945W        W94256  31.993  14.722   3.817
32946W        W94257  22.083   3.841  12.058
32947W        W94258  18.711  42.011  11.060
32948W        W94259  17.142   4.824  10.464
32949W        W94260  19.758   8.335  11.487
32950W        W94261  30.417   0.804   3.644
32951W        W94262  38.021  37.359  13.498
32952W        W94263  37.854  22.202  12.861
32953W        W94264  18.597  31.639   3.663
32954W        W94265  23.706  19.615   0.739
32955W        W94266  18.567  18.787   0.879
32956W        W94267  22.179  27.116   2.230
32957W        W94268  25.076  16.623   0.931
32958W        W94269  14.760  11.813  10.502
32959W        W94270  41.955  42.416  14.889
32960W        W94271  38.458  44.375   3.823
32961W        W94272   5.269  41.466   2.357
32962W        W94273  22.041  19.135  12.824
32963W        W94274  19.065  23.512   1.448
32964W        W94275   0.472   5.813   3.336
32965W        W94276  39.049  34.076  10.529
32966W        W94277  17.728  39.386   1.402
32967W        W94278  14.183  24.121   2.375
32968W        W94279   3.947  27.973  13.377
32969W        W94280  42.992   1.910   2.735
32970W        W94281  20.198  22.611  12.912
32971W        W94282  31.403  42.835   1.798
32972W        W94283  44.328  22.090  13.919
32973W        W94284  37.466  29.504   2.825
32974W        W94285  33.413   5.197  13.930
32975W        W94286  25.126  20.673   0.271
32976W        W94287  34.033  20.250   1.262
32977W        W94288  43.440  13.290  12.055
32978W        W94289  27.973  44.468   5.308
32979W        W94290   3.409  40.865   0.933
32980W        W94291  14.832  25.157   1.846
32981W        W94292  25.539  42.487  14.825
32982W        W94293  42.969   4.431  14.810
32983W        W94294  24.613  40.032   0.435
32984W        W94295  18.671  34.964   3.334
32985W        W94296   5.210  41.313  12.942
32986W        W94297  19.726  30.507   3.362
32987W        W94298  14.609  30.060  10.927
32988W        W94299  10.317  35.068  10.519
32989W        W94300  34.871  42.429   0.844
32990W        W94301  31.578  25.510   3.340
32991W        W94302  14.597  18.616  13.494
32992W        W94303  34.103  38.515  12.824
32993W        W94304  38.519  42.430   4.638
32994W        W94305  30.514  24.157   3.737
32995W        W94306  42.961  21.018   2.901
32996W        W94307  39.994  21.686   0.912
32997W        W94308   4.709  23.130  11.987
32998W        W94309  34.526  41.832  12.515
32999W        W94310  20.727  30.920   4.170
33000W        W94311  24.664   7.756  10.610
33001W        W94312  23.560  43.787   3.293
33002W        W94313  29.992  24.104   0.368
33003W        W94314  29.493  30.078   0.902
33004W        W94315   8.226  28.047   3.742
33005W        W94316  35.498  40.846   1.412
33006W        W94317  40.350  14.093  12.941
33007W        W94318  31.610   0.780  11.084
33008W        W94319  12.820  24.720   1.291
33009W        W94320  33.531  27.549   3.378
33010W        W94321  36.431  14.619   1.869
33011W        W94322  27.647  29.132   0.320
33012W        W94323   0.293  26.592  11.930
33013W        W94324  37.401  11.208   2.221
33014W        W94325  12.248   1.310  11.861
33015W        W94326   1.783  21.543   0.840
33016W        W94327  37.943  10.720   1.266
33017W        W94328  17.555   2.306  11.118
33018W        W94329  27.018  23.997   4.831
33019W        W94330  33.554  35.032  13.388
33020W        W94331   4.720  12.190  10.502
33021W        W94332  26.505  40.503   0.248
33022W        W94333  10.254  38.446  14.997
33023W        W94334  40.338  32.972   1.720
33024W        W94335  35.410   7.407   3.792
33025W        W94336  16.274  20.654   2.875
33026W        W94337  39.508  29.656   2.878
33027W        W94338  19.272  44.802   2.834
33028W        W94339  44.876  30.513   4.252
33029W        W94340  16.744  23.558  10.592
33030W        W94341  14.736   6.908   0.852
33031W        W94342  36.572  33.529   5.310
33032W        W94343  32.969  42.464   0.810
33033W        W94344  12.333  16.113   4.744
33034W        W94345  22.131   7.293   4.624
33035W        W94346   6.854  23.583  12.469
33036W        W94347  36.059  15.667   0.396
33037W        W94348  22.547  44.916   4.820
33038W        W94349   2.739  12.170   3.775
33039W        W94350  34.961  22.238  11.103
33040W        W94351  12.686   5.718  13.469
33041W        W94352  16.184  10.288   9.924
33042W        W94353   9.720  28.533   2.251
33043W        W94354   3.232  30.058  11.114
33044W        W94355   8.348  26.625  10.445
33045W        W94356  25.679  33.525   0.962
33046W        W94357  23.664   9.810   1.307
33047W        W94358  38.554  17.214  10.926
33048W        W94359  22.514  21.751   3.331
33049W        W94360  21.516  37.075   2.674
33050W        W94361   5.411  10.320  11.856
33051W        W94362  37.014  13.691  12.906
33052W        W94363  39.031   8.728   5.191
33053W        W94364  17.305  42.481   2.290
33054W        W94365  34.894  13.291   2.851
33055W        W94366  28.582  10.696  13.316
33056W        W94367   3.281  20.072   4.599
33057W        W94368  18.687  32.550   2.182
33058W        W94369  22.997  11.790   2.249
33059W        W94370   1.297   1.346   2.331
33060W        W94371  13.329  17.755   4.620
33061W        W94372  21.630  28.529   2.824
33062W        W94373  26.120  26.487  10.634
33063W        W94374  32.522  22.024  12.570
33064W        W94375   2.370   7.341   4.172
33065W        W94376   3.366   9.882  14.835
33066W        W94377  39.973   7.258   2.419
33067W        W94378  24.683  24.650   3.158
33068W        W94379  31.645   0.385  10.906
33069W        W94380  25.646  19.215   3.255
33070W        W94381   4.835  21.537  12.988
33071W        W94382  32.537  35.458  11.378
33072W        W94383   4.912  40.397  14.844
33073W        W94384   2.941  32.978   1.696
33074W        W94385  16.756  19.735   1.779
33075W        W94386  11.329  25.629  10.125
33076W        W94387  14.774  20.689   2.731
33077W        W94388  37.429  19.706  13.792
33078W        W94389   9.705  20.262  11.917
33079W        W94390  39.320  15.265   3.675
33080W        W94391  20.769  25.525   4.161
33081W        W94392  34.897  42.367  12.350
33082W        W94393  33.516  15.124  13.425
33083W        W94394  12.209  44.491   1.852
33084W        W94395   4.855  27.119  11.999
33085W        W94396  26.968  30.528  14.866
33086W        W94397  43.491  14.687  11.941
33087W        W94398  23.509  35.887   2.212
33088W        W94399  44.801  22.193   0.936
33089W        W94400  37.086  20.082   2.366
33090W        W94401  26.017  13.648  13.042
33091W        W94402   3.344  44.504   4.256
33092W        W94403  24.180  22.010  11.435
33093W        W94404  39.967   8.382  14.814
33094W        W94405  32.540   8.298   2.666
33095W        W94406  13.279  32.887   2.297
33096W        W94407  41.441   9.360  12.870
33097W        W94408  28.605   7.395  11.380
33098W        W94409   1.829  13.329   1.912
33099W        W94410  37.370  20.612  13.396
33100W        W94411  32.468  15.215   3.231
33101W        W94412  16.113   8.665   3.384
33102W        W94413  25.674  42.880  12.079
33103W        W94414   6.192  24.158   3.797
33104W        W94415  11.705   4.436  11.901
33105W        W94416   0.283  12.187  14.945
33106W        W94417  39.871  28.996  11.397
33107W        W94418  41.465   3.413  11.975
33108W        W94419   7.347  23.066  13.439
33109W        W94420   2.736  30.145  10.602
33110W        W94421  30.135  22.563  13.929
33111W        W94422  19.122  41.998   0.762
33112W        W94423  11.242  17.115   2.674
33113W        W94424  25.094   5.876  14.503
33114W        W94425  30.030  30.009  12.448
33115W        W94426  20.112  25.987   4.172
33116W        W94427   3.936  29.132  14.005
33117W        W94428  30.642   3.908  12.000
33118W        W94429   9.360  22.704   1.911
33119W        W94430  26.148   2.422  11.889
33120W        W94431   0.827  32.933   0.259
33121W        W94432  35.976  20.244  11.383
33122W        W94433   5.824  44.857   0.424
33123W        W94434  24.106  39.443  10.569
33124W        W94435  15.096  14.232   4.226
33125W        W94436  12.249  15.111  13.323
33126W        W94437   5.931  30.525  12.889
33127W        W94438  20.138  28.665   1.419
33128W        W94439  11.672   0.260  11.411
33129W        W94440  30.994   0.293   3.799
33130W        W94441  38.505   2.743   2.739
33131W        W94442  12.647  12.184  13.481
33132W        W94443   6.843   6.311   3.351
33133W        W94444  33.558  12.665   2.208
33134W        W94445  42.323   4.446   1.375
33135W        W94446   6.900   1.474  14.767
33136W        W94447   8.341  21.146  11.504
33137W        W94448  32.042  43.836  13.882
33138W        W94449  38.371  33.055  14.771
33139W        W94450   6.386  44.367   4.261
33140W        W94451  14.211  42.971   1.314
33141W        W94452   6.210  43.838  11.429
33142W        W94453  17.671   3.285  11.556
33143W        W94454   2.406  33.388   4.603
33144W        W94455   6.348  12.309   1.792
33145W        W94456  31.148  18.615   3.737
33146W        W94457  11.352   6.199   0.343
33147W        W94458  29.034  44.450  12.528
33148W        W94459  21.093   5.408   0.276
33149W        W94460  44.005  12.190  13.336
33150W        W94461  40.943  31.935   4.683
33151W        W94462  38.442  35.396  10.952
33152W        W94463  28.445  15.611  12.404
33153W        W94464  39.980  34.910   2.362
33154W        W94465  12.271  42.938  10.489
33155W        W94466  19.282  32.102   1.927
33156W        W94467  25.065  25.483  13.977
33157W        W94468  35.416  19.640  14.001
33158W        W94469  25.521  43.960   0.862
33159W        W94470  13.799  38.872   3.155
33160W        W94471  12.177  25.503   4.243
33161W        W94472   9.782   1.786  13.887
33162W        W94473   1.932  29.520  12.955
33163W        W94474   7.713  36.008   5.293
33164W        W94475  15.587  33.524   1.739
33165W        W94476  34.027   9.261  10.557
33166W        W94477   5.249  17.133  10.159
33167W        W94478  10.798  31.100   3.254
33168W        W94479   2.817  32.613  10.966
33169W        W94480  26.034  35.985   2.366
33170W        W94481  28.133   0.873  12.398
33171W        W94482  19.232  21.646   4.176
33172W        W94483  20.133  22.245  10.902
33173W        W94484  29.543  43.317   3.860
33174W        W94485  31.608  14.292   4.322
33175W        W94486   8.664  43.418   2.375
33176W        W94487  43.506  39.983   2.319
33177W        W94488  26.571   3.922  14.499
33178W        W94489  41.375  35.068  13.408
33179W        W94490  18.625  42.452  11.559
33180W        W94491  38.517  44.918  12.876
33181W        W94492  15.211  44.937  12.497
33182W        W94493  39.362  35.953   4.688
33183W        W94494  11.634  14.592   3.178
33184W        W94495  30.105   9.380   1.880
33185W        W94496  40.337  40.322   2.832
33186W        W94497   4.236  19.102  10.431
33187W        W94498  31.420  33.585  11.894
33188W        W94499  16.751  38.034   4.242
33189W        W94500  21.616  38.051   4.735
33190W        W94501   3.324  42.424   0.326
33191W        W94502  36.939   5.817  12.997
33192W        W94503  30.610  30.549   3.835
33193W        W94504  20.680  28.113   2.837
33194W        W94505   6.296  43.277  11.114
33195W        W94506  13.200  18.151  13.974
33196W        W94507  42.785  11.647   3.252
33197W        W94508  16.133   1.404   0.731
33198W        W94509  18.267  25.599   5.580
33199W        W94510  19.114  10.313  12.870
33200W        W94511  28.482  35.944   3.241
33201W        W94512   5.405  12.796   2.707
33202W        W94513  18.159   5.878   1.220
33203W        W94514  13.662  25.137  14.769
33204W        W94515  21.574  40.912   2.849
33205W        W94516  29.554  26.551   4.719
33206W        W94517  16.605  30.031  10.494
33207W        W94518  43.902  38.469   1.302
33208W        W94519  31.959  44.412  13.876
33209W        W94520  26.130  37.878   2.689
33210W        W94521  12.335   4.367  12.358
33211W        W94522  40.023   5.325  10.505
33212W        W94523   7.173  21.533   3.669
33213W        W94524  37.561   8.711  14.883
33214W        W94525   9.770  38.059   0.403
33215W        W94526  20.555  22.531   0.246
33216W        W94527  18.112  37.347  12.866
33217W        W94528   3.460   8.253   4.799
33218W        W94529  23.708  25.005   1.730
33219W        W94530   9.162  22.218  12.982
33220W        W94531  36.989  34.484  13.958
33221W        W94532  38.396   5.908  13.044
33222W        W94533   9.226  35.852  12.525
33223W        W94534  29.594   6.397   0.273
33224W        W94535  42.809  39.524   0.917
33225W        W94536   2.393  31.611  13.862
33226W        W94537   8.663  43.460  14.503
33227W        W94538  33.574  28.998  14.880
33228W        W94539  27.682   4.285  11.868
33229W        W94540  38.933   7.241   5.302
33230W        W94541  16.693  13.175  12.019
33231W        W94542  11.200  27.608  10.463
33232W        W94543  34.883  13.680  14.886
33233W        W94544  35.358  18.748   0.478
33234W        W94545  24.624  31.931  13.434
33235W        W94546  34.068  17.571  10.442
33236W        W94547  36.552  30.654  13.860
33237W        W94548   2.816  33.389  11.570
33238W        W94549   2.456  38.029  10.902
33239W        W94550  31.051  11.171   2.809
33240W        W94551  22.243  15.296  10.602
33241W        W94552   8.367  33.888   2.401
33242W        W94553  35.464   2.394  13.053
33243W        W94554  33.981  37.003  11.450
33244W        W94555  16.618  20.658   1.413
33245W        W94556  38.845   8.299   4.663
33246W        W94557  16.601  35.102   1.851
33247W        W94558  21.186   2.885  11.564
33248W        W94559   7.331  12.348  13.904
33249W        W94560  17.646  43.784  12.459
33250W        W94561   8.871  16.688   5.743
33251W        W94562  29.041  12.715   3.310
33252W        W94563   0.871  38.880  12.522
33253W        W94564  36.051  29.065  14.890
33254W        W94565  22.576  22.077  10.454
33255W        W94566   6.286  35.106   3.808
33256W        W94567  39.038   5.270   0.868
33257W        W94568  40.385  43.850   3.156
33258W        W94569  27.500  40.473  10.636
33259W        W94570  23.130  26.051   3.263
33260W        W94571  14.225   1.834  10.630
33261W        W94572  27.046  34.953  13.955
33262W        W94573  14.638  23.619   1.889
33263W        W94574  29.067  33.978  12.858
33264W        W94575  37.400  41.392  13.010
33265W        W94576  10.766  19.578  13.041
33266W        W94577  15.676  43.291  13.344
33267W        W94578  40.476  11.308  13.536
33268W        W94579  36.052  41.353  14.897
33269W        W94580  27.644  18.081  11.469
33270W        W94581  44.303  16.235   2.691
33271W        W94582  43.364  13.290  14.995
33272W        W94583   2.301  41.803  13.384
33273W        W94584  26.115  33.600   4.279
33274W        W94585  10.265  12.146   4.176
33275W        W94586  11.737  30.948  13.795
33276W        W94587  33.582   1.301  13.948
33277W        W94588  27.487  11.140   1.902
33278W        W94589  38.388   1.355  14.855
33279W        W94590  33.899  30.641   9.481
33280W        W94591  16.749  21.622   0.829
33281W        W94592  17.177  14.127  12.039
33282W        W94593  44.859  11.283  12.416
33283W        W94594  29.455  22.562  13.370
33284W        W94595  32.022   0.411  13.024
33285W        W94596   5.372  12.682  11.073
33286W        W94597   7.848  32.004  10.074
33287W        W94598  27.103   4.291  11.856
33288W        W94599   7.666  15.736   9.981
33289W        W94600   6.812   8.690  14.859
33290W        W94601   2.453  20.064  10.425
33291W        W94602  34.595  37.967  13.479
33292W        W94603  10.693  31.929   4.334
33293W        W94604  10.827   7.294  12.580
33294W        W94605  22.635  14.125  11.440
33295W        W94606  35.877  32.491  10.897
33296W        W94607  19.072  26.565   2.701
33297W        W94608  21.667  40.374  13.396
33298W        W94609  24.002  20.274   2.797
33299W        W94610   4.726   2.738   1.744
33300W        W94611  14.282  11.148   2.347
33301W        W94612  30.463  38.991   3.369
33302W        W94613  30.412  41.964  11.988
33303W        W94614  43.910  32.451   1.265
33304W        W94615  37.504  11.791   3.205
33305W        W94616   4.773   6.340  12.396
33306W        W94617  41.959  17.606  10.562
33307W        W94618  34.571  25.623  13.865
33308W        W94619  15.745  16.808   3.216
33309W        W94620   1.371  20.638  11.051
33310W        W94621  14.155  36.407   3.777
33311W        W94622  15.733  41.326   2.680
33312W        W94623   5.384  35.997   0.814
33313W        W94624  28.050  40.868   1.800
33314W        W94625  16.190  34.511  14.867
33315W        W94626   3.228   3.952  14.979
33316W        W94627  11.135  37.873  11.389
33317W        W94628  21.063   6.292  12.385
33318W        W94629   9.157  25.213  10.503
33319W        W94630  26.571  40.372  13.365
33320W        W94631  34.009  17.243   2.416
33321W        W94632  44.812  11.372   3.386
33322W        W94633  39.421   8.794   1.707
33323W        W94634  40.513  42.382  12.900
33324W        W94635  12.831  38.031   1.901
33325W        W94636   1.284  44.449   3.795
33326W        W94637  26.488  30.129   1.234
33327W        W94638  22.576  17.620  14.834
33328W        W94639  42.310   2.273  12.414
33329W        W94640   9.160  28.602  13.868
33330W        W94641  36.507  21.696  13.853
33331W        W94642  29.492  35.892   4.223
33332W        W94643  16.274  42.960   0.313
33333W        W94644  44.878  44.483  11.557
33334W        W94645  30.109  23.515   4.822
33335W        W94646  11.859  17.227  14.408
33336W        W94647   1.820  12.781  11.470
33337W        W94648  33.590  20.197  14.827
33338W        W94649  27.176  41.919   4.132
33339W        W94650  22.517  29.157   1.752
33340W        W94651  24.010   7.750   1.354
33341W        W94652   9.777  28.152   2.257
33342W        W94653   6.395  44.271   0.870
33343W        W94654  28.649  42.001  10.921
33344W        W94655  11.784   7.323  12.574
33345W        W94656   4.361  18.110   3.244
33346W        W94657   5.251  31.603   3.244
33347W        W94658  34.388  23.501  10.478
33348W        W94659  17.276   6.914  12.547
33349W        W94660  29.639  40.872   0.784
33350W        W94661  19.663   2.874   3.291
33351W        W94662  13.225  10.310  13.311
33352W        W94663  36.897   5.697  10.497
33353W        W94664   3.217  41.476   4.645
33354W        W94665  43.976  31.956  13.393
33355W        W94666  31.102  14.769  12.922
33356W        W94667  35.979  41.396   3.251
33357W        W94668   9.239   3.224  12.406
33358W        W94669  13.793  38.044  12.956
33359W        W94670  20.241  38.018  11.980
33360W        W94671  16.092  44.468   2.388
33361W        W94672  14.625  35.884  13.320
33362W        W94673  28.049  31.489  13.002
33363W        W94674  37.033   7.854  12.019
33364W        W94675  24.573  10.354   5.254
33365W        W94676  22.073  18.723   2.358
33366W        W94677  30.474  40.808  12.544
33367W        W94678   3.859  28.562  11.397
33368W        W94679  17.302  38.469  14.020
33369W        W94680  38.890   8.711   3.237
33370W        W94681  24.702  29.479  12.406
33371W        W94682  40.917  11.775   2.269
33372W        W94683   6.370  35.591  11.457
33373W        W94684  39.969  41.942  13.797
33374W        W94685  31.525   5.276   3.669
33375W        W94686  11.146  21.667  13.546
33376W        W94687  39.338  22.148  13.821
33377W        W94688  28.456   9.820  14.294
33378W        W94689  44.429  15.322  10.114
33379W        W94690   1.763  44.424  14.799
33380W        W94691  41.355   1.977   3.223
33381W        W94692   0.285  14.727   3.650
33382W        W94693  18.570  14.690  11.524
33383W        W94694   2.293  30.959   0.405
33384W        W94695   6.320  28.646  10.436
33385W        W94696  16.743  24.070  14.913
33386W        W94697  38.897  22.103  12.481
33387W        W94698  43.769  15.697   0.417
33388W        W94699   4.713  31.563   1.322
33389W        W94700  42.308  35.371   3.154
33390W        W94701   1.778   8.772  10.468
33391W        W94702  25.626  29.660   3.202
33392W        W94703  22.142  43.400  12.028
33393W        W94704  15.176  33.407   1.816
33394W        W94705  21.581  29.957  13.834
33395W        W94706  30.594  16.244   2.360
33396W        W94707  44.306  34.576   3.682
33397W        W94708  39.956  19.741   4.262
33398W        W94709  15.707  29.475   3.342
33399W        W94710  33.556  29.637  14.891
33400W        W94711  33.978  35.907  10.894
33401W        W94712  27.986  16.198   4.238
33402W        W94713  41.408  10.665   1.713
33403W        W94714  42.832   9.199   1.803
33404W        W94715   9.176   6.278  11.610
33405W        W94716  41.537  13.347   1.395
33406W        W94717  14.671   1.450  13.893
33407W        W94718   5.774  39.058   0.259
33408W        W94719  14.289  42.926   4.830
33409W        W94720  32.627  15.148   4.349
33410W        W94721  29.944  13.643   3.299
33411W        W94722  43.985  38.990  11.859
33412W        W94723  26.665  19.280   4.619
33413W        W94724  18.079  20.261  12.990
33414W        W94725  24.573  37.009  13.307
33415W        W94726  43.837   4.329   2.343
33416W        W94727  11.864  33.524  11.558
33417W        W94728  27.087   0.882  11.487
33418W        W94729  31.905  16.129  13.807
33419W        W94730   5.383   3.246  14.407
33420W        W94731   3.911  31.526   1.431
33421W        W94732  32.424  33.006   4.254
33422W        W94733  37.981   4.767  13.905
33423W        W94734  23.173   3.318  12.390
33424W        W94735   8.828  36.372   4.154
33425W        W94736  22.071   2.264  11.498
33426W        W94737  37.412  19.648  14.855
33427W        W94738  29.611  30.458  14.807
33428W        W94739  32.434  16.701   2.821
33429W        W94740  27.474  14.608  14.514
33430W        W94741   8.356  12.705  13.443
33431W        W94742   3.933  33.095   2.178
33432W        W94743  15.715   0.468  11.406
33433W        W94744  29.937  23.141  10.410
33434W        W94745  26.501  34.100   4.180
33435W        W94746  31.477  28.172  13.999
33436W        W94747  12.146  26.552   4.327
33437W        W94748  35.018  21.708   0.963
33438W        W94749  28.516   5.928   3.792
33439W        W94750  21.041  41.021   3.284
33440W        W94751  29.512  36.097   1.352
33441W        W94752  24.546  10.142   1.863
33442W        W94753  11.681  38.503   0.945
33443W        W94754  42.895  42.331  14.341
33444W        W94755  22.055  41.536   1.266
33445W        W94756   2.287  28.974  13.064
33446W        W94757  17.256  33.467  14.373
33447W        W94758  27.194   2.966   1.243
33448W        W94759  33.015  37.419   1.440
33449W        W94760   1.350  11.690  13.052
33450W        W94761  34.933  44.856  12.498
33451W        W94762  19.722   3.409   1.386
33452W        W94763  42.440  30.020   4.707
33453W        W94764  11.332  30.478  13.510
33454W        W94765  40.394  19.717   4.325
33455W        W94766  34.048  40.863  13.312
33456W        W94767  44.495   6.874  12.351
33457W        W94768  23.513  25.533   2.810
33458W        W94769  15.224  27.510  11.394
33459W        W94770  10.701  23.217  13.835
33460W        W94771  29.051  30.559  11.527
33461W        W94772  26.471  33.091   0.357
33462W        W94773   2.237   7.245  13.392
33463W        W94774  14.183  44.290  11.869
33464W        W94775   5.292  29.160  12.478
33465W        W94776  36.932  15.659  12.533
33466W        W94777  18.696  20.536  12.981
33467W        W94778  18.563  43.957   1.367
33468W        W94779  25.629  29.593   4.620
33469W        W94780   3.298  15.606   3.748
33470W        W94781  34.567  12.768  14.338
33471W        W94782  32.961  12.140  11.576
33472W        W94783  22.152  20.213  14.844
33473W        W94784  41.324  41.874   0.259
33474W        W94785  15.694  20.237  12.892
33475W        W94786  29.069  21.610   3.298
33476W        W94787  21.730  32.393  10.542
33477W        W94788  44.351  28.627   0.741
33478W        W94789  43.494  37.944  12.901
33479W        W94790  12.348  10.633   3.797
33480W        W94791  12.697  18.729   1.433
33481W        W94792  11.312  25.025   0.836
33482W        W94793   7.222  12.692   4.243
33483W        W94794  37.375  29.622   3.376
33484W        W94795  43.319   6.798  13.430
33485W        W94796   4.710  43.863  12.032
33486W        W94797  27.648  28.017  10.999
33487W        W94798   4.381  20.767   1.844
33488W        W94799  11.784  43.945   2.673
33489W        W94800  12.201   2.849  14.781
33490W        W94801  44.454  24.087   4.736
33491W        W94802   8.853   6.920  14.866
33492W        W94803  28.948  41.442   2.828
33493W        W94804   2.438  17.248  10.012
33494W        W94805  41.437   3.342  12.896
33495W        W94806  14.655  24.502  11.083
33496W        W94807  21.581  19.560  13.424
33497W        W94808   8.393  11.812  11.860
33498W        W94809  33.901  25.512   1.295
33499W        W94810  12.219  25.607   2.690
33500W        W94811  37.000   3.730   2.280
33501W        W94812  25.620  31.537   2.190
33502W        W94813  23.658  43.005  12.525
33503W        W94814  28.609  28.169  13.517
33504W        W94815  11.367  37.438  13.505
33505W        W94816   7.176  25.987  13.476
33506W        W94817  22.232  27.454   4.731
33507W        W94818  33.447  27.109  13.345
33508W        W94819   3.277  30.042   4.749
33509W        W94820  34.883  18.768   4.220
33510W        W94821  31.422  10.184   4.188
33511W        W94822  43.847  11.169   4.648
33512W        W94823  20.574  31.645   3.675
33513W        W94824   6.694  15.625  13.025
33514W        W94825  31.054   8.342   3.220
33515W        W94826  31.962  34.443  12.958
33516W        W94827  32.601   0.425  12.541
33517W        W94828  25.074  30.049   3.196
33518W        W94829  26.059  18.183  12.825
33519W        W94830  24.997  13.770  13.029
33520W        W94831  29.583  33.012  12.075
33521W        W94832   4.882  29.544  11.547
33522W        W94833  38.471  18.587  10.950
33523W        W94834  18.754   2.411   4.777
33524W        W94835  34.104  30.978  13.402
33525W        W94836  28.965  12.275  10.497
33526W        W94837  20.271  42.866   3.381
33527W        W94838  19.175  16.076  11.930
33528W        W94839  22.238  37.459   2.194
33529W        W94840  16.770  12.683  13.456
33530W        W94841  23.148  28.442   4.350
33531W        W94842   9.794   6.306   2.206
33532W        W94843  42.483  27.531   1.277
33533W        W94844  43.452  26.526  11.088
33534W        W94845  32.635  27.077  10.901
33535W        W94846  38.569  20.225   2.246
33536W        W94847  29.064  21.213   1.418
33537W        W94848  10.718  42.883   4.827
33538W        W94849   7.782  28.667   3.832
33539W        W94850   7.271  17.638   5.174
33540W        W94851  42.890  26.056   4.172
33541W        W94852  31.586  33.936  14.905
33542W        W94853  23.684   2.962   3.341
33543W        W94854  14.752  23.014  10.427
33544W        W94855   6.397   5.362   3.308
33545W        W94856  20.256  13.256   3.329
33546W        W94857   4.880  43.840   4.231
33547W        W94858  14.129  42.452   4.140
33548W        W94859  10.355  31.641   3.170
33549W        W94860   0.849  28.101   2.865
33550W        W94861  22.034  16.195  10.958
33551W        W94862   8.215  32.518   2.199
33552W        W94863  11.346  12.705  12.009
33553W        W94864  19.671  17.292  10.049
33554W        W94865  26.152  13.838  11.528
33555W        W94866   8.366   4.371   0.450
33556W        W94867  11.643  28.984   1.915
33557W        W94868   2.722  14.117   0.429
33558W        W94869  39.350   9.299  14.424
33559W        W94870  36.051  17.762  13.906
33560W        W94871  16.273  43.473  12.435
33561W        W94872   9.166  19.566  10.416
33562W        W94873  28.605  35.876   5.177
33563W        W94874  39.900  36.466  12.487
33564W        W94875  42.435  31.103  12.849
33565W        W94876  40.974   2.901  14.787
33566W        W94877  20.627  34.870  11.088
33567W        W94878  40.418   2.765   1.735
33568W        W94879  43.797  34.108  13.909
33569W        W94880  34.932  40.396  12.053
33570W        W94881   3.875   5.720  11.085
33571W        W94882   4.382  30.094  12.055
33572W        W94883  40.857  43.842  10.956
33573W        W94884  19.655  23.991  11.121
33574W        W94885  10.760  29.062  14.809
33575W        W94886  43.806  44.006  13.989
33576W        W94887  24.158  37.843   2.417
33577W        W94888  10.338  23.132   0.918
33578W        W94889  19.159  35.920   2.817
33579W        W94890  37.951  24.492   2.294
33580W        W94891  38.021  23.672  10.637
33581W        W94892  41.979  41.522  11.990
33582W        W94893  26.973  37.410  14.019
33583W        W94894  13.337  32.982   1.741
33584W        W94895  24.210  27.546  11.564
33585W        W94896  10.227  36.490  13.478
33586W        W94897  26.665   4.302  10.478
33587W        W94898   4.322  42.971   0.728
33588W        W94899  16.316   9.867  12.962
33589W        W94900  30.070  14.650   4.665
33590W        W94901  31.037  20.274  10.439
33591W        W94902  26.692  22.614   0.439
33592W        W94903  22.155  40.364   0.285
33593W        W94904  10.378  34.614  10.479
33594W        W94905  39.436  24.509  13.866
33595W        W94906  22.694  27.481  13.866
33596W        W94907  14.152  39.981   2.400
33597W        W94908  33.391   8.270   0.276
33598W        W94909  22.584  17.124  11.440
33599W        W94910   3.361  12.358   0.764
33600W        W94911  42.852  23.177  14.022
33601W        W94912  40.446   3.314   4.693
33602W        W94913  44.921  44.858   3.233
33603W        W94914  10.331  16.780  10.149
33604W        W94915  30.569  16.135  13.922
33605W        W94916  37.543  40.898  13.932
33606W        W94917  44.281  39.020   2.261
33607W        W94918   7.318  25.552   1.921
33608W        W94919  38.863  44.851  12.976
33609W        W94920  22.697  37.001  12.868
33610W        W94921  30.108   3.268   2.258
33611W        W94922   0.862  16.236  13.944
33612W        W94923  21.067   6.428  14.879
33613W        W94924   4.425  36.006  11.594
33614W        W94925  36.438  16.609   0.282
33615W        W94926  11.781  23.596  13.440
33616W        W94927  35.016   4.897   2.356
33617W        W94928  44.903  31.471   2.179
33618W        W94929  35.992  30.074  13.909
33619W        W94930  18.051   3.855   2.739
33620W        W94931  13.761  31.519   1.781
33621W        W94932  11.694  10.639   0.752
33622W        W94933  40.315  41.377  13.938
33623W        W94934   2.393  39.549  10.418
33624W        W94935  29.435  30.086  13.468
33625W        W94936   7.821  34.059  12.023
33626W        W94937  10.304  32.067  10.945
33627W        W94938  19.555  15.248  11.568
33628W        W94939  36.393   5.899  14.337
33629W        W94940  31.426  21.631   4.196
33630W        W94941  39.922   5.808  13.025
33631W        W94942  33.608  33.501   4.328
33632W        W94943  20.076   4.205  12.525
33633W        W94944  13.633  22.704  12.040
33634W        W94945  18.692  33.593   4.349
33635W        W94946   8.770  14.299   3.318
33636W        W94947  35.885  25.688  12.448
33637W        W94948   6.288   9.689  14.998
33638W        W94949  22.507  20.680  13.318
33639W        W94950  14.712  11.708   0.245
33640W        W94951   7.883   1.815  14.362
33641W        W94952  41.790  38.449   3.221
33642W        W94953  28.621  22.140   0.409
33643W        W94954  28.986   2.289   1.796
33644W        W94955  19.665  33.499  13.795
33645W        W94956  42.885   2.872   3.238
33646W        W94957  13.335   6.188  10.102
33647W        W94958  26.156  11.126  13.389
33648W        W94959  14.644  23.135  14.449
33649W        W94960   0.384   4.421   1.819
33650W        W94961  40.902  36.057  13.880
33651W        W94962  36.403  11.634   4.292
33652W        W94963  12.245  30.952  11.436
33653W        W94964   6.917  29.486   4.253
33654W        W94965   8.807  33.602   5.088
33655W        W94966  29.426  41.343  11.528
33656W        W94967  28.435  12.247   1.726
33657W        W94968  39.875  10.729   4.344
33658W        W94969  37.012  44.872  11.077
33659W        W94970  18.138  13.156  14.031
33660W        W94971  20.600  19.677  14.909
33661W        W94972   6.877  10.779  12.511
33662W        W94973  13.214  36.002  12.458
33663W        W94974  26.028  27.553   2.834
33664W        W94975  16.088  39.559  14.350
33665W        W94976  20.030  15.101   5.221
33666W        W94977  24.724  24.067   2.373
33667W        W94978  31.964  25.089  12.064
33668W        W94979   8.395  37.507  13.825
33669W        W94980  42.287  16.733  13.886
33670W        W94981  27.574  33.562   3.147
33671W        W94982   8.237  19.261   2.364
33672W        W94983  30.077  38.975  11.603
33673W        W94984  32.007  31.417   3.755
33674W        W94985  26.643   2.364  13.349
33675W        W94986   3.835  21.651   2.747
33676W        W94987  41.944   6.324   2.396
33677W        W94988  38.983  42.807   3.274
33678W        W94989   9.215   8.190  14.888
33679W        W94990  38.994   3.308  11.886
33680W        W94991  23.016  17.236  14.969
33681W        W94992   8.225  30.924   0.726
33682W        W94993   2.762   3.304  14.995
33683W        W94994  34.084  36.456   4.173
33684W        W94995  22.672  33.394  11.950
33685W        W94996   9.655  43.350   3.778
33686W        W94997  44.326  41.822  13.880
33687W        W94998  22.721   6.418   2.717
33688W        W94999   5.887  27.967   3.637
33689W        W95000   2.378  36.550  12.864
33690W        W95001  21.220  18.749   9.446
33691W        W95002  10.198   1.412   3.317
33692W        W95003  39.372  29.041   2.285
33693W        W95004  32.397  23.718  10.920
33694W        W95005  17.086   0.466  11.996
33695W        W95006  13.663  12.318   1.933
33696W        W95007  44.484  17.570  10.498
33697W        W95008   6.207  42.301  13.929
33698W        W95009  19.232  37.869   3.224
33699W        W95010  18.138   3.354  14.818
33700W        W95011   9.244  28.116  14.765
33701W        W95012   0.914   0.366   4.651
33702W        W95013   4.923  10.292   4.323
33703W        W95014  30.950  41.847   4.177
33704W        W95015  43.320  40.317   9.935
33705W        W95016  24.162   2.337  13.444
33706W        W95017   7.375  23.043  13.932
33707W        W95018  31.528   2.892   3.219
33708W        W95019   6.197  44.261   9.928
33709W        W95020  20.077   7.873  11.928
33710W        W95021   9.843   1.316   1.749
33711W        W95022  40.931  32.142  11.916
33712W        W95023   4.821  42.348  11.476
33713W        W95024  26.571  24.143   4.827
33714W        W95025  31.970   5.894   2.720
33715W        W95026  39.005  41.896  12.450
33716W        W95027  12.799   4.357  10.605
33717W        W95028  28.047  27.486   0.727
33718W        W95029   5.765  23.053  13.906
33719W        W95030  17.133  41.324   0.782
33720W        W95031  28.642  43.484   4.678
33721W        W95032  33.986  30.065   0.394
33722W        W95033  43.293  12.753   5.096
33723W        W95034  38.341   7.229   4.203
33724W        W95035  33.994  41.476  14.990
33725W        W95036   6.715  38.541   2.297
33726W        W95037  21.118  20.096  11.482
33727W        W95038  14.770  37.903  11.105
33728W        W95039   8.888  30.478   1.239
33729W        W95040  41.337  23.170   3.323
33730W        W95041   2.826   1.336  10.629
33731W        W95042   4.794  26.567  10.992
33732W        W95043   3.403  42.892   0.851
33733W        W95044  32.092  31.453  13.844
33734W        W95045  22.573  24.520  11.054
33735W        W95046  13.251  33.580   1.436
33736W        W95047  26.178  17.195  12.983
33737W        W95048  29.966  16.192  14.354
33738W        W95049   6.919  12.269  11.438
33739W        W95050  38.028   2.441   4.824
33740W        W95051  27.533  23.174   3.273
33741W        W95052  30.080  17.656   1.820
33742W        W95053  29.458   9.693   1.878
33743W        W95054  21.681   1.342   0.918
33744W        W95055  24.126  41.340  12.439
33745W        W95056  27.485   5.352   1.851
33746W        W95057  37.477  17.616   2.888
33747W        W95058  30.503   0.280  11.926
33748W        W95059  41.899  28.989   0.471
33749W        W95060   2.325  22.588   1.412
33750W        W95061  31.629  18.134   4.617
33751W        W95062  28.603  37.336   3.381
33752W        W95063  12.281   8.758  11.942
33753W        W95064  22.165  27.614  14.841
33754W        W95065   8.397  44.881  13.969
33755W        W95066  42.469  17.600  14.002
33756W        W95067  32.518  33.503  14.476
33757W        W95068  25.980  23.102   0.885
33758W        W95069  25.533  18.663   9.632
33759W        W95070   0.934  21.018  14.769
33760W        W95071   3.740  15.308  10.572
33761W        W95072  22.007  14.685   2.699
33762W        W95073  39.027  23.066   3.339
33763W        W95074  20.077  28.940  14.833
33764W        W95075  35.858  15.179  12.029
33765W        W95076  31.084  28.112   4.598
33766W        W95077  43.500   9.793  11.952
33767W        W95078  25.115  21.638   0.287
33768W        W95079  22.235  43.427  12.986
33769W        W95080  27.173  32.522  10.143
33770W        W95081  23.702  35.595  13.034
33771W        W95082  26.674   6.801  12.881
33772W        W95083   5.773  24.113  11.880
33773W        W95084  43.969   8.742   0.886
33774W        W95085  44.451  41.973   2.224
33775W        W95086  44.418  33.573  14.284
33776W        W95087  34.532  25.190   4.771
33777W        W95088  29.054  25.142  13.470
33778W        W95089   1.265  39.907   0.843
33779W        W95090   0.907  23.002   0.446
33780W        W95091  28.463  12.356   4.352
33781W        W95092  14.757  21.562   4.607
33782W        W95093  22.019   0.746  12.966
33783W        W95094  23.711  44.324  11.059
33784W        W95095   0.839  27.575  13.933
33785W        W95096  39.060  33.504   0.285
33786W        W95097   9.746  18.272  11.431
33787W        W95098  34.369  11.694   3.164
33788W        W95099  26.464  34.447  11.055
33789W        W95100   8.352  23.091   2.732
33790W        W95101  39.466  28.628   1.407
33791W        W95102  29.979   0.751  11.578
33792W        W95103  24.125  40.473  12.507
33793W        W95104  38.381  39.923   3.345
33794W        W95105  10.691  19.188   0.280
33795W        W95106   9.281  11.839  11.534
33796W        W95107  12.165  10.272  10.583
33797W        W95108  43.357  23.161  10.563
33798W        W95109  18.174  18.202   4.771
33799W        W95110  19.710  16.667   3.831
33800W        W95111  21.745  11.751  14.276
33801W        W95112  32.988  28.609   3.724
33802W        W95113  18.746  38.452  10.118
33803W        W95114  38.940  37.865  13.401
33804W        W95115  13.278  39.469   2.232
33805W        W95116  31.439   6.703  14.996
33806W        W95117  40.876  28.583  11.044
33807W        W95118   1.319   7.174   4.241
33808W        W95119  43.492   9.681  11.593
33809W        W95120   0.333  37.833  12.526
33810W        W95121  15.682  29.506   1.263
33811W        W95122  37.580  13.727   2.666
33812W        W95123  15.223  17.136   4.272
33813W        W95124  20.585  19.119  13.833
33814W        W95125  33.072  38.948   4.331
33815W        W95126  37.945   6.387  13.867
33816W        W95127  17.733  40.343   0.926
33817W        W95128  11.330  31.088   1.754
33818W        W95129  15.319  35.891  14.373
33819W        W95130  33.938  20.758   0.860
33820W        W95131  12.669  11.693  11.548
33821W        W95132  14.793   1.732   1.276
33822W        W95133  25.145  18.198  12.086
33823W        W95134  33.549  37.350  12.040
33824W        W95135  23.137  22.647  10.102
33825W        W95136  21.631  20.600  10.610
33826W        W95137   4.868  40.908   1.792
33827W        W95138  10.248  29.176   3.207
33828W        W95139  16.653  14.788   3.156
33829W        W95140   6.722   4.830   1.230
33830W        W95141  31.019  22.535   3.255
33831W        W95142   1.376  16.601  11.600
33832W        W95143  37.024  12.287   2.892
33833W        W95144  28.994   2.762  14.027
33834W        W95145  41.452  16.282   4.778
33835W        W95146  15.274  10.299  14.367
33836W        W95147  34.007  13.135  13.408
33837W        W95148  40.825  29.600  11.538
33838W        W95149  26.063  28.176  12.022
33839W        W95150  14.113  32.092  13.350
33840W        W95151   2.783   6.794  10.981
33841W        W95152  36.873  16.745   4.831
33842W        W95153  44.984  29.546   4.314
33843W        W95154   6.879  28.161  11.072
33844W        W95155  16.667  13.757   3.213
33845W        W95156  39.896  19.625  11.463
33846W        W95157   4.203  37.921   1.747
33847W        W95158   4.809  13.603  12.342
33848W        W95159  23.505  32.039   9.459
33849W        W95160  12.773   5.714   3.274
33850W        W95161   3.382  29.518  10.477
33851W        W95162  24.135  35.868  10.643
33852W        W95163  37.501  35.075  10.965
33853W        W95164  28.130  12.791  14.354
33854W        W95165   9.806  41.879  13.864
33855W        W95166  38.012   7.318  10.901
33856W        W95167  27.492  37.922  13.969
33857W        W95168  42.866  21.218  11.605
33858W        W95169  24.519  18.128  13.939
33859W        W95170  35.946  35.953  11.022
33860W        W95171   0.791  32.615  10.497
33861W        W95172   3.920  17.257   0.844
33862W        W95173  12.190  34.039   0.389
33863W        W95174  19.730   5.770  13.443
33864W        W95175   6.805  15.150   1.323
33865W        W95176  25.594  26.654  11.450
33866W        W95177  43.341  17.264  12.932
33867W        W95178  18.579  32.492  12.434
33868W        W95179  25.054  38.383  12.559
33869W        W95180   8.210  27.457  13.907
33870W        W95181   7.828  11.759  13.332
33871W        W95182  32.027  32.082   0.958
33872W        W95183  44.404  39.989   2.378
33873W        W95184  38.825  12.227   2.394
33874W        W95185  11.306   3.836  11.547
33875W        W95186  12.771  14.714   4.245
33876W        W95187  39.541   6.235   0.864
33877W        W95188  18.671   6.724  11.481
33878W        W95189  29.533   6.893   2.315
33879W        W95190   0.865  25.066   3.832
33880W        W95191   4.326  12.800   4.247
33881W        W95192  20.214   4.894  14.863
33882W        W95193  14.751  20.636   0.286
33883W        W95194  20.683  44.310  11.437
33884W        W95195  44.754  32.618  11.956
33885W        W95196  27.187   9.170   2.218
33886W        W95197  29.121  31.114  12.872
33887W        W95198  34.110  36.575   2.412
33888W        W95199   4.216  33.427  12.002
33889W        W95200  31.987   4.300  10.551
33890W        W95201  23.181  25.536  13.836
33891W        W95202   7.707  21.230   2.352
33892W        W95203  17.701   5.277   0.941
33893W        W95204  39.501   5.308   1.362
33894W        W95205   1.357  27.636  13.371
33895W        W95206  10.672   7.378  10.582
33896W        W95207  11.798  29.507   1.416
33897W        W95208  14.158  18.100   4.821
33898W        W95209  42.374  14.731  12.063
33899W        W95210  37.366   5.857  13.502
33900W        W95211  29.111  39.512  13.986
33901W        W95212   6.736  15.130   3.728
33902W        W95213   2.228  34.446   3.189
33903W        W95214   2.868   4.205  12.430
33904W        W95215  30.951  24.065   3.743
33905W        W95216  26.607  35.045   1.873
33906W        W95217   8.335  15.668  14.983
33907W        W95218  28.563   5.720   3.215
33908W        W95219  25.154   4.296  12.078
33909W        W95220  37.958  20.537  10.535
33910W        W95221  30.030  44.937  10.591
33911W        W95222  14.218  36.845  11.024
33912W        W95223  22.662   6.359  10.446
33913W        W95224  19.148   3.438  12.861
33914W        W95225  20.537   6.317  14.771
33915W        W95226   5.926  11.202  10.556
33916W        W95227   6.897  19.095   0.458
33917W        W95228   2.735  38.032   4.773
33918W        W95229  20.071   9.659   1.391
33919W        W95230  10.811  40.437   0.873
33920W        W95231  34.921  14.757  14.451
33921W        W95232   7.194  16.800   1.745
33922W        W95233   0.774   4.222   4.186
33923W        W95234  11.240  37.545  11.532
33924W        W95235   7.181  34.886  12.941
33925W        W95236  20.162  33.465   0.753
33926W        W95237  24.525  36.983   4.210
33927W        W95238  38.948   6.877  11.859
33928W        W95239   9.297   2.954  13.809
33929W        W95240  12.188  16.662   3.836
33930W        W95241  40.870   7.252  14.759
33931W        W95242  12.286  16.257  13.449
33932W        W95243   2.274  37.080  10.636
33933W        W95244  44.820  41.830  12.083
33934W        W95245  20.123   5.742  14.305
33935W        W95246   6.206  11.633   3.843
33936W        W95247   4.749  21.225  11.423
33937W        W95248  28.057  38.532  13.963
33938W        W95249  17.069  22.512   4.317
33939W        W95250  19.774  11.673  12.903
33940W        W95251   2.864  13.804   4.159
33941W        W95252  40.893   2.462   3.255
33942W        W95253  40.051  43.370   2.795
33943W        W95254  42.851  23.670  10.456
33944W        W95255  27.610   4.867   1.232
33945W        W95256  17.158  28.638  14.440
33946W        W95257  34.506  30.472   0.433
33947W        W95258   5.434  19.164   0.349
33948W        W95259   5.379   7.223   3.199
33949W        W95260  35.575   9.321  13.347
33950W        W95261  39.992  11.158  12.825
33951W        W95262   1.740  25.076   2.683
33952W        W95263   8.263  27.004   3.647
33953W        W95264  33.498  22.604  10.961
33954W        W95265  44.275  23.241  10.119
33955W        W95266  34.439   7.231   4.726
33956W        W95267  36.979  18.096   4.700
33957W        W95268  44.754  34.056   4.336
33958W        W95269  34.460  30.948  11.552
33959W        W95270   2.946  18.091   4.330
33960W        W95271  44.395  14.096   1.370
33961W        W95272  41.857  13.724   3.652
33962W        W95273  12.820   1.409   1.872
33963W        W95274  34.907   3.461   0.262
33964W        W95275  32.072  21.099   3.728
33965W        W95276  28.123   1.850   3.833
33966W        W95277   2.781  27.628   2.735
33967W        W95278  36.391  26.600  14.010
33968W        W95279  26.684  30.102  13.827
33969W        W95280  25.987  13.222   0.355
33970W        W95281  19.620  41.851  12.890
33971W        W95282  34.064  30.147  10.589
33972W        W95283  27.137  18.686   1.349
33973W        W95284  20.114   3.268   2.888
33974W        W95285   1.347  12.848  10.643
33975W        W95286   9.165   4.803   0.917
33976W        W95287  33.029  38.058  12.902
33977W        W95288  11.836  13.619   3.252
33978W        W95289  29.149  40.020  11.474
33979W        W95290  32.622   1.968  11.061
33980W        W95291  14.654  31.993  11.946
33981W        W95292  10.703  21.546   0.354
33982W        W95293  36.853  17.622  12.413
33983W        W95294   4.797  16.125  12.369
33984W        W95295  28.057  17.123  11.963
33985W        W95296  11.654   0.961  14.361
33986W        W95297  36.424  21.133  13.049
33987W        W95298  39.452   9.875   0.288
33988W        W95299   5.325  42.904   0.262
33989W        W95300  41.333  12.158  14.399
33990W        W95301  38.991  12.249  14.322
33991W        W95302  42.284  28.606  12.846
33992W        W95303  31.025  41.935  14.012
33993W        W95304  25.499  35.040  12.094
33994W        W95305  11.793  31.115   4.136
33995W        W95306  12.166   2.876  11.467
33996W        W95307   0.358  23.607  12.509
33997W        W95308   4.746  11.834  12.409
33998W        W95309  30.593  30.075   4.753
33999W        W95310   2.818  28.455  13.053
34000W        W95311  39.827  12.844   1.287
34001W        W95312  16.764   6.263   4.223
34002W        W95313  24.695  25.670   0.261
34003W        W95314  28.990   7.411   3.234
34004W        W95315   6.848  30.071   0.392
34005W        W95316  34.062   7.728  12.075
34006W        W95317  20.116  38.427   1.735
34007W        W95318  19.547  16.161  14.906
34008W        W95319  25.070  40.484   5.099
34009W        W95320  17.161  20.124  10.459
34010W        W95321  35.984  26.597  13.328
34011W        W95322  43.000  25.617   1.764
34012W        W95323  22.501  40.873   0.468
34013W        W95324   3.723  33.055  14.774
34014W        W95325   5.272   2.853   4.729
34015W        W95326  34.376   8.296  12.896
34016W        W95327  13.107  27.071   0.375
34017W        W95328  28.140  22.705  12.549
34018W        W95329   0.778  16.297  12.077
34019W        W95330  34.528  11.186   4.304
34020W        W95331  29.971  37.059  12.373
34021W        W95332   7.826   7.172   2.294
34022W        W95333   6.807  40.884  12.561
34023W        W95334   8.661  38.977   1.784
34024W        W95335  34.449  36.028   4.682
34025W        W95336  31.017   0.334  14.339
34026W        W95337  36.020  38.057   3.363
34027W        W95338  26.955  37.473  13.038
34028W        W95339  43.982  17.194   3.667
34029W        W95340   8.772  33.994   4.294
34030W        W95341   4.207  33.902   2.263
34031W        W95342  10.741   2.943   4.190
34032W        W95343  37.507  44.294  11.534
34033W        W95344  37.344   7.397  13.015
34034W        W95345  27.493  25.678   3.362
34035W        W95346  38.541  16.730  12.834
34036W        W95347  35.454   1.891  14.298
34037W        W95348  27.064  35.017   0.245
34038W        W95349  42.907  18.685  12.371
34039W        W95350  38.450   3.818  14.339
34040W        W95351  44.778  22.515   1.805
34041W        W95352   6.384  15.644  13.371
34042W        W95353  21.711  13.730   3.645
34043W        W95354  14.152  33.614   2.416
34044W        W95355   2.795  44.488   1.449
34045W        W95356  18.705  40.821   0.964
34046W        W95357  26.962  21.062   4.177
34047W        W95358  15.094  34.462   2.898
34048W        W95359  39.877   0.743   4.737
34049W        W95360  15.619  30.063   2.745
34050W        W95361  12.141   8.239   2.188
34051W        W95362  13.738   9.302  10.900
34052W        W95363  33.122  12.745   0.756
34053W        W95364  40.832  37.914  13.063
34054W        W95365  15.136  28.102  12.908
34055W        W95366   2.314   4.778   4.172
34056W        W95367  32.424   5.695   3.376
34057W        W95368  14.669  23.032   0.470
34058W        W95369  19.642  17.615   3.643
34059W        W95370  24.123  13.206  13.879
34060W        W95371  43.372  18.190  12.883
34061W        W95372  29.576  26.196   3.323
34062W        W95373  33.607  27.041  12.536
34063W        W95374  35.574  13.620   3.721
34064W        W95375  21.120  44.804  14.363
34065W        W95376   9.659  26.200   4.815
34066W        W95377  42.861  35.001   3.257
34067W        W95378   6.321   0.871  13.383
34068W        W95379  21.613  37.064   5.106
34069W        W95380  23.588  14.658   3.832
34070W        W95381  43.456   9.798   0.269
34071W        W95382  10.227  34.103   2.338
34072W        W95383  24.098  15.712   4.831
34073W        W95384  42.890  16.137  12.538
34074W        W95385  18.198  18.271  10.130
34075W        W95386  33.556  36.979   4.210
34076W        W95387  22.678  10.641  14.836
34077W        W95388  29.007  25.605  11.434
34078W        W95389  41.855  44.440   5.147
34079W        W95390   5.915  18.055   1.387
34080W        W95391  38.368   5.784  13.941
34081W        W95392  30.911  14.700  12.395
34082W        W95393  36.952  39.064  11.936
34083W        W95394  31.506  28.115   0.804
34084W        W95395  35.004  28.061  11.014
34085W        W95396  42.843  40.430  12.405
34086W        W95397  29.670   5.342  11.992
34087W        W95398  28.530  41.367  14.913
34088W        W95399  42.510  14.751  13.060
34089W        W95400  23.610   7.862  11.965
34090W        W95401  15.731  18.719  12.948
34091W        W95402  38.356  17.174   3.239
34092W        W95403  43.003  32.016   1.314
34093W        W95404  18.116   3.757   2.256
34094W        W95405   6.226  27.118  14.326
34095W        W95406  23.731  34.480  12.968
34096W        W95407  24.206  34.391   1.793
34097W        W95408  28.949  31.133  12.535
34098W        W95409   0.947  19.076  12.967
34099W        W95410  40.533   7.781   2.855
34100W        W95411  31.952  32.465  12.390
34101W        W95412  30.530  26.535   2.364
34102W        W95413   4.362  36.092   2.247
34103W        W95414  17.793  20.722   4.603
34104W        W95415   6.280  27.692   2.263
34105W        W95416  25.027  11.230   4.302
34106W        W95417  23.032  18.214   4.224
34107W        W95418  43.802  19.261  10.633
34108W        W95419  44.763  22.655   3.238
34109W        W95420   9.249  24.535  10.894
34110W        W95421  23.197   0.985   4.200
34111W        W95422  41.385   4.933  10.613
34112W        W95423  15.641  10.309   5.196
34113W        W95424  39.039  32.956  10.450
34114W        W95425  16.315  30.058   2.844
34115W        W95426  39.855  42.807   0.744
34116W        W95427   5.340  33.439  11.126
34117W        W95428  34.396   5.321  12.532
34118W        W95429  12.210  34.549   1.787
34119W        W95430   1.838  31.589   2.289
34120W        W95431  26.702  25.503  14.784
34121W        W95432  38.908  26.505  14.894
34122W        W95433   7.188   6.768  13.816
34123W        W95434   5.811  18.284  12.971
34124W        W95435  12.654  17.167  10.892
34125W        W95436  30.572  40.361   3.224
34126W        W95437  13.840  43.447   4.331
34127W        W95438  11.676  29.118   2.218
34128W        W95439   8.288  11.867  14.915
34129W        W95440  33.457  21.568   2.356
34130W        W95441  17.108   7.838   2.202
34131W        W95442  10.302  11.758   0.730
34132W        W95443  43.780  36.076   2.397
34133W        W95444  16.588  11.721   9.935
34134W        W95445  31.636  44.944  13.007
34135W        W95446   1.799  22.654   2.402
34136W        W95447  14.653  18.086   2.222
34137W        W95448  33.433  42.333  12.888
34138W        W95449   8.787   7.317  13.828
34139W        W95450   4.394  40.360  14.025
34140W        W95451  16.106  37.833  12.827
34141W        W95452  14.181  13.205  11.381
34142W        W95453  34.069  24.574   2.694
34143W        W95454  40.516   2.767  10.936
34144W        W95455  34.952   2.421  13.504
34145W        W95456  26.676  42.525  10.592
34146W        W95457   0.773  43.803   4.757
34147W        W95458  18.154  18.136  12.352
34148W        W95459  39.385  32.900  10.594
34149W        W95460  29.662  24.223   0.469
34150W        W95461  23.705  27.032   1.236
34151W        W95462  40.851   4.221   2.715
34152W        W95463  20.689  18.758   5.293
34153W        W95464   4.279  23.155   2.669
34154W        W95465  43.872  18.051   1.248
34155W        W95466   2.736  13.790   3.764
34156W        W95467  18.733  32.964   4.682
34157W        W95468  20.664   8.375   3.659
34158W        W95469  30.551  29.598  14.919
34159W        W95470  43.352   9.785  10.575
34160W        W95471  15.241  25.612   1.789
34161W        W95472  37.396   6.842   0.796
34162W        W95473   3.780  23.128   2.401
34163W        W95474  32.978  25.995   4.156
34164W        W95475  38.555  27.574  11.590
34165W        W95476  19.073  16.153  13.030
34166W        W95477  27.186   1.824   2.662
34167W        W95478  41.845  12.768  13.049
34168W        W95479  13.205  25.607  12.887
34169W        W95480  32.470   2.447  11.398
34170W        W95481  23.238  42.425   4.342
34171W        W95482  23.557   8.304   3.185
34172W        W95483   8.178  41.320   0.313
34173W        W95484   7.383   3.447  14.823
34174W        W95485   6.323  44.806  11.511
34175W        W95486  12.228  19.581   3.282
34176W        W95487  38.005  37.869   3.837
34177W        W95488  41.931  17.787   0.956
34178W        W95489  25.131   5.931   1.250
34179W        W95490  25.083   0.937   4.679
34180W        W95491  28.573   1.245  11.869
34181W        W95492  11.706  42.448  14.813
34182W        W95493  10.179  12.194  13.529
34183W        W95494   0.873   1.766  14.012
34184W        W95495   7.875  13.700  14.373
34185W        W95496  22.511  37.456  14.310
34186W        W95497  19.568  39.412   3.334
34187W        W95498  23.220  12.713  10.622
34188W        W95499  23.201  29.030   2.755
34189W        W95500  36.072  13.286  13.324
34190W        W95501  40.477  26.158   1.861
34191W        W95502   6.377  41.977  12.016
34192W        W95503  27.051  23.566   0.325
34193W        W95504  12.159  33.084   0.266
34194W        W95505  39.456  21.024   0.912
34195W        W95506  31.956  38.325  13.042
34196W        W95507  19.696  28.634   3.864
34197W        W95508  12.779  14.595   2.277
34198W        W95509   0.451  17.631   2.785
34199W        W95510  44.933  11.363  10.467
34200W        W95511  40.985  25.992   3.738
34201W        W95512  32.456  41.414  10.635
34202W        W95513  43.324  29.009  11.990
34203W        W95514  16.271  44.886  14.285
34204W        W95515  13.833  38.951  13.051
34205W        W95516   4.883   3.282  14.339
34206W        W95517  11.273  28.118  11.033
34207W        W95518  12.821  34.864  14.861
34208W        W95519  13.653  41.505  14.024
34209W        W95520  42.009   3.766  12.488
34210W        W95521   3.717  39.904   3.359
34211W        W95522  11.165  22.618   2.259
34212W        W95523  11.151  24.038   2.388
34213W        W95524   9.243   8.658   1.250
34214W        W95525  16.233  25.161  11.908
34215W        W95526  43.868   0.283  12.043
34216W        W95527  30.505  17.290   0.267
34217W        W95528  15.146   5.696   2.219
34218W        W95529  36.072  30.068   2.379
34219W        W95530   8.655  37.948   1.744
34220W        W95531  31.121  15.288   2.257
34221W        W95532  28.584  23.067   3.712
34222W        W95533  18.187  19.217   1.277
34223W        W95534  38.070  43.974  10.482
34224W        W95535   6.700  22.626   3.691
34225W        W95536   0.939  40.328   5.189
34226W        W95537  44.290  23.221   4.265
34227W        W95538  33.880  36.352   0.885
34228W        W95539   2.250  10.248  11.446
34229W        W95540   2.957  11.242  14.329
34230W        W95541  37.435   6.371  14.775
34231W        W95542   3.791   5.863  13.335
34232W        W95543  15.811   9.707  14.920
34233W        W95544  17.641  22.547   1.337
34234W        W95545  29.524   7.671   3.381
34235W        W95546  26.668   0.291   4.706
34236W        W95547  28.108  36.426   4.658
34237W        W95548   0.404  31.144   3.307
34238W        W95549  44.278   7.264   0.335
34239W        W95550  39.506   0.312  14.451
34240W        W95551  39.949  44.434  12.440
34241W        W95552   9.388  43.431  10.941
34242W        W95553  30.655  11.330   0.476
34243W        W95554   0.925  28.501  14.859
34244W        W95555   3.238  40.353   3.361
34245W        W95556  13.790  38.331  11.426
34246W        W95557  39.040   7.306   2.841
34247W        W95558  34.954  38.943  10.016
34248W        W95559  22.710  12.689   3.759
34249W        W95560  23.021  26.668  10.968
34250W        W95561  33.504  24.526  14.387
34251W        W95562  42.936  30.571   2.268
34252W        W95563  35.893   6.724   0.481
34253W        W95564  26.586   9.839   2.204
34254W        W95565  35.484  43.337   1.726
34255W        W95566  41.454  25.179   1.250
34256W        W95567  36.092   4.291   2.296
34257W        W95568  41.879  43.916  14.989
34258W        W95569   4.254  21.656   3.281
34259W        W95570   1.280  15.768   1.425
34260W        W95571   9.833  41.482  13.958
34261W        W95572   5.436  42.935   2.363
34262W        W95573  42.405  40.830   2.716
34263W        W95574  42.419   2.395   1.900
34264W        W95575  36.842  13.795  14.827
34265W        W95576  20.256  26.033  14.781
34266W        W95577  18.243  15.252   3.735
34267W        W95578   3.915   2.954   2.843
34268W        W95579  26.055  37.412  14.950
34269W        W95580  13.822   7.350   1.885
34270W        W95581   6.772   3.890   2.310
34271W        W95582  26.689  11.335  12.910
34272W        W95583  10.639  34.540  12.526
34273W        W95584  33.566  37.838  13.934
34274W        W95585  38.361  37.008   0.856
34275W        W95586   0.327  18.193   4.318
34276W        W95587   0.768  37.055   0.342
34277W        W95588  41.952   7.382  10.897
34278W        W95589  18.168  26.467   4.270
34279W        W95590   3.223   0.446  10.533
34280W        W95591  32.441  12.610   5.158
34281W        W95592   2.791  36.457  12.032
34282W        W95593  13.297  35.455  10.499
34283W        W95594  32.095  24.164  14.794
34284W        W95595   3.812  28.469   2.291
34285W        W95596  40.967  34.569  13.020
34286W        W95597  28.456   4.736  14.828
34287W        W95598  14.201  41.523  14.939
34288W        W95599   2.401  40.852   0.422
34289W        W95600  23.684  23.489   1.915
34290W        W95601  37.991  26.069  13.421
34291W        W95602  23.638   6.313  10.573
34292W        W95603   4.904  31.564  11.047
34293W        W95604   4.714   9.811  13.024
34294W        W95605   8.870  11.658   1.270
34295W        W95606  16.077  18.268  11.892
34296W        W95607  36.492  19.761   4.241
34297W        W95608  22.167  44.347   2.803
34298W        W95609  32.415  28.587  13.959
34299W        W95610  30.653  26.696  14.974
34300W        W95611  32.017  33.053  14.364
34301W        W95612  13.830  21.084   0.839
34302W        W95613  24.640  16.284   2.696
34303W        W95614   3.343  36.908  13.861
34304W        W95615  27.619  17.730   0.820
34305W        W95616   6.898  25.112  13.971
34306W        W95617  31.609  38.373   0.736
34307W        W95618  16.676  42.996  14.440
34308W        W95619  26.504  10.838  13.013
34309W        W95620   8.321  16.643   1.818
34310W        W95621  31.065  23.162  14.411
34311W        W95622  29.581  22.202  12.400
34312W        W95623  25.159  17.203   0.446
34313W        W95624  31.519  29.610   1.928
34314W        W95625  17.767  29.108   2.772
34315W        W95626  20.251  19.095  12.901
34316W        W95627  20.230   0.771  12.074
34317W        W95628  38.364   6.309   1.410
34318W        W95629  29.488  28.479   1.857
34319W        W95630  38.891  11.724  11.102
34320W        W95631  28.006  19.716   1.913
34321W        W95632   2.744   4.432   3.652
34322W        W95633  22.653  35.596  12.340
34323W        W95634  20.636  15.601  12.970
34324W        W95635  42.945  35.986  11.068
34325W        W95636  25.621  25.176  10.423
34326W        W95637   0.330   2.788   4.724
34327W        W95638  35.042  44.432   2.761
34328W        W95639  37.430  24.978   0.924
34329W        W95640  13.143  31.440   0.889
34330W        W95641  13.842  41.819   4.734
34331W        W95642  44.290  36.516  10.532
34332W        W95643  36.001  22.742  10.420
34333W        W95644   0.799  14.786   0.821
34334W        W95645  27.056  36.390   3.374
34335W        W95646  28.458  39.517  13.964
34336W        W95647  20.214  16.672   3.726
34337W        W95648   4.371  13.749  12.526
34338W        W95649  41.889  17.657  12.873
34339W        W95650  42.971  27.965   0.358
34340W        W95651   8.716  14.243   1.708
34341W        W95652  19.090   5.315  12.983
34342W        W95653  25.965   8.358  12.428
34343W        W95654   1.449   9.670   0.899
34344W        W95655   1.281  44.808  10.573
34345W        W95656  43.513  27.181  11.382
34346W        W95657  43.307  15.585  14.977
34347W        W95658  27.948   1.742   4.236
34348W        W95659  13.675  26.500  13.849
34349W        W95660  40.861  20.603   3.645
34350W        W95661   9.255  12.235  13.532
34351W        W95662  28.520  39.339  12.358
34352W        W95663   5.389  14.801   4.249
34353W        W95664  28.655   9.198   0.259
34354W        W95665   8.303  33.035  12.568
34355W        W95666  43.270  31.918  12.828
34356W        W95667  41.382  11.289  11.008
34357W        W95668  28.640  17.067  13.987
34358W        W95669  38.485  16.687   2.821
34359W        W95670  17.629  37.007   4.264
34360W        W95671  11.663  31.064   2.335
34361W        W95672  26.021  37.059  13.391
34362W        W95673  18.620  22.056  12.544
34363W        W95674  11.373  38.376   1.347
34364W        W95675  36.889  34.412  11.399
34365W        W95676   8.704  26.170  11.025
34366W        W95677   5.763  10.829   2.880
34367W        W95678  22.747   4.263   0.295
34368W        W95679  19.217  11.341  14.312
34369W        W95680  31.009   5.802  12.902
34370W        W95681  10.201  42.907   0.454
34371W        W95682  32.566  41.520   4.605
34372W        W95683   7.348  26.574   2.675
34373W        W95684  29.555  41.948  13.879
34374W        W95685  29.002  40.335   2.186
34375W        W95686  15.235  24.514  12.360
34376W        W95687   8.845  42.000  10.566
34377W        W95688  13.827  11.319   4.695
34378W        W95689  30.966   0.474  13.046
34379W        W95690   1.820  23.714  11.483
34380W        W95691   5.902  16.098   2.727
34381W        W95692  15.690   2.274   1.344
34382W        W95693  10.699  22.692  11.580
34383W        W95694  19.636  33.538   3.321
34384W        W95695  42.805  35.884  12.530
34385W        W95696  38.388   0.405  10.508
34386W        W95697  27.129  29.560  13.876
34387W        W95698  32.635  36.415   1.754
34388W        W95699  20.140  20.187  12.050
34389W        W95700  13.762  25.215  14.432
34390W        W95701  12.354  42.333   2.236
34391W        W95702  44.982  20.185  13.409
34392W        W95703   0.371  25.115   1.431
34393W        W95704  31.016  44.358   3.319
34394W        W95705  20.724  38.551  11.431
34395W        W95706  21.065  39.860   0.802
34396W        W95707  29.119  10.335  14.758
34397W        W95708  42.467  38.479  14.427
34398W        W95709  28.443  30.447   4.834
34399W        W95710  33.990  34.867   0.801
34400W        W95711  12.317  37.856  11.518
34401W        W95712   1.383   5.688   2.896
34402W        W95713  25.666  15.103  14.479
34403W        W95714   6.837  20.756   1.711
34404W        W95715  15.592  24.212  13.882
34405W        W95716   9.354  34.369  13.434
34406W        W95717  22.055  30.040  11.400
34407W        W95718  25.129  18.579  12.470
34408W        W95719  14.814  22.044   4.318
34409W        W95720  30.932  24.097  12.077
34410W        W95721  36.053  31.407  13.963
34411W        W95722  33.444  38.964  10.573
34412W        W95723  11.280  32.130   0.257
34413W        W95724  28.112  37.431  12.403
34414W        W95725  29.045   4.833   3.150
34415W        W95726  37.381  22.157  12.021
34416W        W95727  26.642  20.216   5.321
34417W        W95728  14.800  15.605  13.359
34418W        W95729  19.598   7.408  13.537
34419W        W95730  11.736  23.627  11.950
34420W        W95731  41.984  38.014   1.317
34421W        W95732  40.892  32.577  14.489
34422W        W95733  13.291  43.906  11.936
34423W        W95734   3.856  35.407   1.352
34424W        W95735  40.363   4.323   2.220
34425W        W95736  28.946   4.205   4.714
34426W        W95737  34.477   4.344   2.827
34427W        W95738   4.773   2.343  12.824
34428W        W95739  18.254  40.895  13.352
34429W        W95740  40.472  10.332  12.017
34430W        W95741  35.021  15.268   3.176
34431W        W95742  18.121  21.534  11.557
34432W        W95743  14.797  15.799   5.300
34433W        W95744  18.259  15.205   0.956
34434W        W95745  23.493  31.940  11.566
34435W        W95746  20.194  30.126  14.400
34436W        W95747   0.481  15.326  11.481
34437W        W95748   0.309  25.028  13.380
34438W        W95749  40.347  43.293  14.877
34439W        W95750  32.078  13.690  11.522
34440W        W95751  19.243  43.853  14.987
34441W        W95752  23.023  44.495  12.384
34442W        W95753  36.454  29.030  13.872
34443W        W95754  42.510  17.685   3.866
34444W        W95755  30.144  19.672   3.832
34445W        W95756  20.079  32.596   3.724
34446W        W95757  33.068  29.981   9.572
34447W        W95758  16.276  17.596   0.938
34448W        W95759  13.640  34.120   0.817
34449W        W95760  38.389   0.850  14.346
34450W        W95761  16.093  24.661  11.877
34451W        W95762  37.833   5.313  12.389
34452W        W95763  34.539   0.772   1.768
34453W        W95764  38.512  36.861   4.619
34454W        W95765  39.958   0.904  12.449
34455W        W95766   0.278  11.741  11.049
34456W        W95767  33.118  30.498  11.446
34457W        W95768  16.678   5.404   1.891
34458W        W95769  24.498  22.137   0.435
34459W        W95770  17.104   8.170  10.593
34460W        W95771  27.050  37.916   3.690
34461W        W95772   3.901  16.587  12.836
34462W        W95773  34.413  15.280   4.255
34463W        W95774   4.715   5.218   2.841
34464W        W95775   0.792   4.747   1.735
34465W        W95776  15.603  40.041  11.528
34466W        W95777  29.049  34.466  11.463
34467W        W95778  14.287  30.998   0.962
34468W        W95779  13.637  12.800   3.751
34469W        W95780  17.076  11.141   2.210
34470W        W95781  31.968   7.314  13.021
34471W        W95782  24.622   3.873  10.453
34472W        W95783  34.517  23.115  13.435
34473W        W95784  42.859  20.182   0.732
34474W        W95785  28.475  34.531   4.244
34475W        W95786  10.324  29.962  10.571
34476W        W95787  39.053   3.724  11.050
34477W        W95788  15.608  36.386   3.795
34478W        W95789  30.510  32.957   0.322
34479W        W95790  38.472  13.642  10.962
34480W        W95791  13.722   4.214  11.402
34481W        W95792  20.051  28.475   4.721
34482W        W95793   0.323  42.830   4.133
34483W        W95794   3.252  15.208  11.993
34484W        W95795   1.354   8.294  12.031
34485W        W95796  35.556  14.672  12.485
34486W        W95797  37.399  14.794  10.432
34487W        W95798   7.755   7.781   4.789
34488W        W95799  35.473   3.312  13.977
34489W        W95800  25.103  31.925  14.311
34490W        W95801  33.484  33.076  14.389
34491W        W95802  16.653  21.130   2.692
34492W        W95803   5.420  35.476   2.366
34493W        W95804  14.184  23.730  12.055
34494W        W95805  18.787  23.652  14.812
34495W        W95806  41.043  29.542  13.522
34496W        W95807  21.719  16.673   1.908
34497W        W95808  41.418  17.209  14.413
34498W        W95809  21.144   7.755   1.399
34499W        W95810  39.537   0.392  11.857
34500W        W95811  14.798  26.644   3.369
34501W        W95812   6.839  35.578  13.369
34502W        W95813   9.236  40.336  13.980
34503W        W95814  38.950  22.739  12.965
34504W        W95815   9.771  32.448  13.959
34505W        W95816  12.678   4.747   4.716
34506W        W95817  10.766  23.503  10.973
34507W        W95818  38.953   2.850   2.672
34508W        W95819  21.072  19.634   3.779
34509W        W95820  32.451  32.024   3.308
34510W        W95821  15.111   5.735  12.950
34511W        W95822   0.451  35.023  14.470
34512W        W95823  42.465   2.956  14.972
34513W        W95824   8.361  23.059   0.342
34514W        W95825  17.757  38.953   3.833
34515W        W95826   6.382  23.727   1.823
34516W        W95827   7.799  26.136  14.328
34517W        W95828   6.725  38.971   1.733
34518W        W95829  30.973  43.503  12.075
34519W        W95830  14.152  15.209   4.143
34520W        W95831   4.908  42.440  10.473
34521W        W95832  26.512  42.367   0.359
34522W        W95833  17.713   3.334   5.233
34523W        W95834  26.125  41.510   0.778
34524W        W95835  13.810  32.045   3.151
34525W        W95836  30.482  20.216  14.287
34526W        W95837   1.393  33.385  11.950
34527W        W95838   3.387   3.847   3.694
34528W        W95839  35.430  21.551  12.964
34529W        W95840   0.848  28.489   1.267
34530W        W95841   4.400  30.643  10.539
34531W        W95842   0.878  44.835  12.448
34532W        W95843  16.191   5.208   1.439
34533W        W95844  43.437  33.608  13.532
34534W        W95845  40.449  36.868   1.349
34535W        W95846  35.439  13.303   4.252
34536W        W95847  14.282  17.768  10.515
34537W        W95848   9.211  17.291  12.841
34538W        W95849  39.897  42.416   4.762
34539W        W95850  14.113  34.382  10.900
34540W        W95851   2.298  44.484  12.956
34541W        W95852  33.476   1.409  10.902
34542W        W95853  16.683   5.389  11.119
34543W        W95854  19.546  35.984  13.971
34544W        W95855  40.885  15.274   3.775
34545W        W95856   4.816  33.969  11.585
34546W        W95857  25.104   2.809  12.951
34547W        W95858  26.131   1.735   2.388
34548W        W95859  39.058  11.226  11.888
34549W        W95860  33.991   1.948  13.828
34550W        W95861   0.336  33.012   0.734
34551W        W95862   5.909  41.948   2.751
34552W        W95863  18.190  42.864   0.759
34553W        W95864  28.624   7.786  12.368
34554W        W95865  28.966   0.362  11.974
34555W        W95866  27.572  29.949   0.929
34556W        W95867   0.408  10.288   2.893
34557W        W95868  38.465  27.123   1.244
34558W        W95869  17.188  26.096  11.405
34559W        W95870   2.368  36.434  14.508
34560W        W95871  21.130   1.400   0.467
34561W        W95872  23.547  30.561  10.918
34562W        W95873  29.107   2.820  12.380
34563W        W95874  37.435   4.242   0.877
34564W        W95875  10.795   6.197   0.269
34565W        W95876   5.862  35.387  13.988
34566W        W95877  24.709  26.456   2.669
34567W        W95878   2.356   7.256   3.787
34568W        W95879   7.188  26.191  12.519
34569W        W95880  18.110  37.068  11.955
34570W        W95881  38.936  35.381  13.492
34571W        W95882  38.062  28.601  13.944
34572W        W95883  36.568   7.788   0.371
34573W        W95884  32.622  44.972  11.885
34574W        W95885   6.280  31.402  14.379
34575W        W95886  22.093  18.247   5.577
34576W        W95887   0.833  40.905  10.602
34577W        W95888  16.574  20.141   1.797
34578W        W95889  33.008  37.433   3.230
34579W        W95890  26.107  31.998  12.409
34580W        W95891  34.400  29.086  11.925
34581W        W95892  16.598   9.833  12.936
34582W        W95893  33.469  22.239  11.514
34583W        W95894  28.008  30.413  14.848
34584W        W95895  40.415  39.959   5.274
34585W        W95896  22.559   8.726  11.105
34586W        W95897  41.006  14.800  14.797
34587W        W95898  44.786  34.056  14.807
34588W        W95899   0.492   4.703  11.127
34589W        W95900   0.817   2.754   0.848
34590W        W95901  40.044  21.151   0.740
34591W        W95902   1.845  13.261  11.600
34592W        W95903  16.584  23.579   5.154
34593W        W95904  41.293  38.069  14.930
34594W        W95905  16.252  38.333   2.738
34595W        W95906   8.803  12.124  13.379
34596W        W95907  37.416  43.996  11.444
34597W        W95908  44.308  19.576   0.956
34598W        W95909   0.287  36.509   0.871
34599W        W95910  20.165   9.187  13.823
34600W        W95911  35.943  29.591  14.402
34601W        W95912   3.377   5.384   2.261
34602W        W95913  19.540  35.373  13.812
34603W        W95914  29.625  39.938   0.344
34604W        W95915  35.494  39.027   2.781
34605W        W95916  41.793   0.286   3.165
34606W        W95917  23.176  15.154   2.408
34607W        W95918  25.142  36.586  11.508
34608W        W95919   3.239  21.215   0.840
34609W        W95920   9.362  33.530   4.223
34610W        W95921  38.945  24.488   4.222
34611W        W95922   2.831  31.641  12.983
34612W        W95923   0.867  19.209   1.879
34613W        W95924   6.906  33.621  13.928
34614W        W95925   6.779  28.488   4.326
34615W        W95926  14.699  39.557   2.209
34616W        W95927   1.450  27.685  12.032
34617W        W95928  36.081   2.267  14.926
34618W        W95929  38.865  15.677   1.394
34619W        W95930  16.641   1.810   0.342
34620W        W95931   2.422  33.915   1.758
34621W        W95932  39.872   6.264   2.200
34622W        W95933   9.252  14.310  12.833
34623W        W95934   6.411   6.710  12.403
34624W        W95935  13.293  11.739  13.362
34625W        W95936  23.663  40.810  11.611
34626W        W95937  38.382   3.717   2.275
34627W        W95938  17.176  40.451  10.603
34628W        W95939   1.286  31.149  12.019
34629W        W95940  38.401   1.884   1.231
34630W        W95941  14.655  38.453  10.539
34631W        W95942  30.933  44.321   2.847
34632W        W95943  20.564  37.027   1.355
34633W        W95944  22.238  39.816   2.417
34634W        W95945  34.000  26.067  10.443
34635W        W95946   6.676  14.593  13.841
34636W        W95947  22.592  41.303   3.829
34637W        W95948  25.507  25.615  14.513
34638W        W95949  14.120  22.659   4.648
34639W        W95950  22.121  14.821  13.008
34640W        W95951   7.202  33.562  13.014
34641W        W95952  27.468  29.074  10.546
34642W        W95953  40.904   0.825   0.846
34643W        W95954  17.568  19.650   0.468
34644W        W95955  25.022  27.564   2.854
34645W        W95956  42.425   1.298  12.504
34646W        W95957  27.600  44.933  14.501
34647W        W95958  33.956  35.880   1.857
34648W        W95959  28.139  15.616  13.359
34649W        W95960   0.878  42.503   3.234
34650W        W95961   5.432  25.090   0.413
34651W        W95962  14.319  15.671   3.710
34652W        W95963   0.983   6.382  13.402
34653W        W95964  39.411  24.524   1.830
34654W        W95965  17.273   3.846   0.403
34655W        W95966  35.540  11.246  14.441
34656W        W95967  41.395  25.580   2.336
34657W        W95968  39.003   7.899   1.757
34658W        W95969  32.075  36.885   4.291
34659W        W95970  14.188   9.773   3.382
34660W        W95971  44.302  34.070   2.356
34661W        W95972  29.122   7.211  11.084
34662W        W95973  18.598   1.328  13.337
34663W        W95974  17.573   9.682   3.380
34664W        W95975  16.200  18.596   3.769
34665W        W95976   7.910  18.177   2.902
34666W        W95977  11.842   5.427  11.019
34667W        W95978  25.573  17.220   3.783
34668W        W95979  23.048  28.464  14.025
34669W        W95980   7.343  43.348  11.531
34670W        W95981  35.547  29.498  13.868
34671W        W95982   1.240  13.745   4.809
34672W        W95983  28.492   1.968   2.206
34673W        W95984  37.359  10.299   3.809
34674W        W95985  40.868  32.509  10.522
34675W        W95986  36.046  38.000   4.165
34676W        W95987  39.441  43.408   0.267
34677W        W95988   8.739  28.484  11.592
34678W        W95989  16.095   3.782  13.846
34679W        W95990   3.804  33.524  13.509
34680W        W95991  30.960  38.913   3.660
34681W        W95992  22.550  36.495   4.715
34682W        W95993  11.856   8.190   2.823
34683W        W95994  12.344  10.161  11.425
34684W        W95995  38.053   3.882  12.459
34685W        W95996  34.492  23.050   2.765
34686W        W95997  32.078  23.600   4.832
34687W        W95998  35.005  10.636  14.957
34688W        W95999  13.638  14.155  11.465
34689W        W96000  40.484  41.484   5.151
34690W        W96001  20.060  36.360  11.553
34691W        W96002  30.925  30.000  14.279
34692W        W96003  33.974  37.434  11.915
34693W        W96004  36.053  29.490  14.933
34694W        W96005   3.401  11.141  13.407
34695W        W96006  19.193  26.624  13.880
34696W        W96007  25.098  40.913   4.632
34697W        W96008  26.024  29.098   3.760
34698W        W96009   7.680  44.835  10.533
34699W        W96010  29.506   3.290  13.924
34700W        W96011  10.863  36.006  14.863
34701W        W96012  41.452  37.492   1.740
34702W        W96013   8.756  18.732   2.265
34703W        W96014  27.536  35.056  12.095
34704W        W96015   1.849  28.139   1.260
34705W        W96016  25.617  29.922  14.511
34706W        W96017  12.303  36.535  14.792
34707W        W96018  12.292   1.927   3.214
34708W        W96019  38.970  36.860   3.644
34709W        W96020   6.301  18.243  13.805
34710W        W96021   0.465  25.045  14.894
34711W        W96022  20.595  28.659   9.966
34712W        W96023   0.258   0.959  12.347
34713W        W96024  17.204   1.812   0.849
34714W        W96025   2.901   2.955   0.900
34715W        W96026  23.231  22.667   2.759
34716W        W96027  38.054   4.282   4.810
34717W        W96028  33.406  26.203   3.752
34718W        W96029  22.229  10.280  10.108
34719W        W96030  19.610  10.341  13.316
34720W        W96031   0.755  34.386  11.377
34721W        W96032  29.494  21.694  13.403
34722W        W96033  27.643   3.796  13.313
34723W        W96034  20.261  25.523  10.497
34724W        W96035  10.639  42.982   3.283
34725W        W96036  18.256  33.617   2.709
34726W        W96037  41.509   9.817  11.051
34727W        W96038  26.677  13.234  14.826
34728W        W96039  25.598   2.267  12.874
34729W        W96040  14.325  11.747  11.049
34730W        W96041  10.147  24.139   0.945
34731W        W96042  38.987  11.841  12.971
34732W        W96043  21.528  23.527   2.325
34733W        W96044  15.096  20.625   3.720
34734W        W96045  30.522  20.067   0.416
34735W        W96046  34.949  25.689  13.542
34736W        W96047  28.004  10.771   2.863
34737W        W96048  39.405  20.551  11.432
34738W        W96049  25.678  27.589   4.336
34739W        W96050   9.807   2.743   2.305
34740W        W96051  11.336  38.027  10.948
34741W        W96052   7.836  38.969   2.867
34742W        W96053   1.405  20.753  14.477
34743W        W96054  43.411  31.984  13.973
34744W        W96055  34.592  17.733  14.295
34745W        W96056   4.775  29.584   2.334
34746W        W96057   2.274  36.403  11.008
34747W        W96058  26.458  37.350   1.302
34748W        W96059  29.635   0.276   3.680
34749W        W96060  30.648  30.459  11.865
34750W        W96061   2.391   4.758   4.669
34751W        W96062   0.764  25.213   3.318
34752W        W96063  13.834  36.374  10.487
34753W        W96064  28.507  10.315   1.225
34754W        W96065  16.660  25.145  12.426
34755W        W96066  20.637  30.016   0.329
34756W        W96067  40.401  18.763  10.962
34757W        W96068  42.511   6.355  12.552
34758W        W96069   0.437  27.140  10.591
34759W        W96070  34.487  18.610   4.665
34760W        W96071  33.602  18.109   0.286
34761W        W96072  11.300  26.645   0.817
34762W        W96073  33.442   1.268  14.277
34763W        W96074  22.689  14.300   2.260
34764W        W96075  10.165  10.179   0.273
34765W        W96076  24.012  41.933   5.173
34766W        W96077   6.242  10.712  10.450
34767W        W96078  39.393  27.972   0.423
34768W        W96079  28.560  37.483   2.416
34769W        W96080   8.327  33.491  11.392
34770W        W96081  25.704  44.500  11.541
34771W        W96082  22.647   5.317   1.416
34772W        W96083  19.758  18.215   4.182
34773W        W96084  28.495  35.516  12.516
34774W        W96085  23.564  24.973  11.930
34775W        W96086   0.355  13.286   2.772
34776W        W96087  31.433  38.498  12.560
34777W        W96088   4.809  27.676   0.829
34778W        W96089   8.303  10.201   1.818
34779W        W96090   4.861   7.318   3.359
34780W        W96091  44.809  20.228  11.992
34781W        W96092  10.805  10.264   1.443
34782W        W96093  11.241  16.724   0.479
34783W        W96094  23.670  23.623   3.254
34784W        W96095  41.885  35.943   3.377
34785W        W96096  40.811  15.156   4.265
34786W        W96097  32.533  29.011   4.170
34787W        W96098  19.213  35.441  11.917
34788W        W96099  23.569  21.685   3.377
34789W        W96100   1.475  12.744   1.761
34790W        W96101  10.691  12.185  11.126
34791W        W96102   9.376   6.213  13.013
34792W        W96103  18.163   0.398   4.620
34793W        W96104  11.206  23.007   2.819
34794W        W96105  43.499  31.581   2.798
34795W        W96106  10.806   7.383  14.437
34796W        W96107  18.058   5.209  13.902
34797W        W96108  44.008  32.593  12.828
34798W        W96109  19.676  11.149   0.389
34799W        W96110   9.171  30.073   0.246
34800W        W96111  15.624   5.837  11.598
34801W        W96112  31.915  19.777  13.877
34802W        W96113  24.522  24.044   3.285
34803W        W96114   6.854  39.967   2.722
34804W        W96115  21.667   1.896  14.829
34805W        W96116  25.534  26.467   4.299
34806W        W96117  36.434  22.512  12.488
34807W        W96118   3.406  30.504   1.897
34808W        W96119  10.375  22.067  10.000
34809W        W96120   1.441  31.044   1.917
34810W        W96121  39.457   4.346  13.314
34811W        W96122  18.209  22.017   3.768
34812W        W96123  30.569  26.968  12.443
34813W        W96124   5.882  36.873  11.446
34814W        W96125  31.039  12.812   2.689
34815W        W96126  26.068  33.540  12.963
34816W        W96127  21.023   8.720   3.352
34817W        W96128   8.174  20.740  11.975
34818W        W96129  32.401  37.451  13.405
34819W        W96130  20.050  26.689  11.937
34820W        W96131  16.193  12.350  14.920
34821W        W96132   7.346  19.726  14.874
34822W        W96133  36.473  44.338  13.844
34823W        W96134  32.922  27.531  11.508
34824W        W96135   6.774   0.288   1.711
34825W        W96136  22.715  10.696   0.317
34826W        W96137   0.974  34.572  10.981
34827W        W96138  22.230  22.571  10.407
34828W        W96139   4.830  14.704   1.835
34829W        W96140  40.011  23.198   2.412
34830W        W96141  42.365  10.857  12.052
34831W        W96142  22.054  41.452   4.692
34832W        W96143  15.100  37.883   3.646
34833W        W96144  22.246  21.543   2.344
34834W        W96145  32.395  42.967   1.322
34835W        W96146   1.243  12.192  14.851
34836W        W96147  17.297   9.310   3.863
34837W        W96148  13.242  13.316   0.256
34838W        W96149  41.388  26.127   3.749
34839W        W96150  43.370  38.560   0.273
34840W        W96151  14.646  39.885   2.680
34841W        W96152  27.489  12.125   2.411
34842W        W96153  32.390  40.304   1.792
34843W        W96154  38.974   2.463  10.445
34844W        W96155  14.221  16.582   0.263
34845W        W96156  42.519   3.321  14.994
34846W        W96157  29.437   2.807  11.609
34847W        W96158  29.171  44.804  12.040
34848W        W96159  24.621  12.287  13.412
34849W        W96160   8.403  24.642   1.380
34850W        W96161  17.278  22.670  10.542
34851W        W96162   3.886  20.678   3.695
34852W        W96163  25.497  38.478   2.352
34853W        W96164   8.377  14.340  10.969
34854W        W96165  32.463  15.316  11.546
34855W        W96166   4.344  31.069  10.469
34856W        W96167  23.171   4.843  11.986
34857W        W96168   1.255  16.778   4.155
34858W        W96169  34.545   6.202   2.271
34859W        W96170  19.650  26.016   4.635
34860W        W96171  15.135  32.485  12.471
34861W        W96172  12.659  11.667   3.192
34862W        W96173  11.291   2.923   3.770
34863W        W96174   4.875  34.009  12.863
34864W        W96175  19.666  30.063   3.652
34865W        W96176  26.675  13.782  12.462
34866W        W96177  34.933  14.798  14.760
34867W        W96178  10.809  28.624   4.678
34868W        W96179  34.039   6.861  11.123
34869W        W96180  11.868  19.572   3.765
34870W        W96181   9.175   8.658  10.980
34871W        W96182  14.786  18.123  12.546
34872W        W96183  20.121  12.270   0.272
34873W        W96184  19.560  20.721  10.525
34874W        W96185   9.645   0.921   0.881
34875W        W96186   7.223  25.566   0.850
34876W        W96187  11.252  19.601   0.341
34877W        W96188  16.625   7.356  11.582
34878W        W96189   9.673   9.173  10.416
34879W        W96190  40.419  36.390   2.855
34880W        W96191  44.892  24.074  10.980
34881W        W96192  16.317  29.065  14.955
34882W        W96193  17.247  18.580   5.216
34883W        W96194   2.878  41.477  12.575
34884W        W96195  24.057  13.674   0.830
34885W        W96196  40.544  19.278   4.179
34886W        W96197  10.759  19.169  14.915
34887W        W96198  26.015  17.264   3.781
34888W        W96199   3.346  16.233   1.211
34889W        W96200   3.769   7.306   1.356
34890W        W96201  21.256  36.926   0.254
34891W        W96202  21.183   8.173  13.390
34892W        W96203  41.385  18.261   0.867
34893W        W96204  42.867  15.103   1.320
34894W        W96205   8.878  27.994   2.239
34895W        W96206  12.774  21.026  13.388
34896W        W96207  32.481  32.518  13.323
34897W        W96208  28.475   6.201  13.356
34898W        W96209  43.460   7.789   4.771
34899W        W96210  30.922  12.271   0.823
34900W        W96211  33.905  24.003   2.814
34901W        W96212  44.778  17.299  10.452
34902W        W96213  32.463   8.252  11.588
34903W        W96214  36.985   2.325  14.486
34904W        W96215  42.512  35.852  12.563
34905W        W96216   4.235  25.963   0.961
34906W        W96217  39.475  28.929  14.373
34907W        W96218  22.016  20.220  13.031
34908W        W96219  44.966  29.061  11.414
34909W        W96220  27.118   2.727   3.757
34910W        W96221  44.293  41.374  13.062
34911W        W96222   6.697  32.059  14.000
34912W        W96223  41.490  18.165  14.467
34913W        W96224   2.344   9.251   1.808
34914W        W96225  36.050  12.699  11.612
34915W        W96226  19.701  29.651   1.726
34916W        W96227   1.332  20.721  13.823
34917W        W96228  39.503   6.793   1.443
34918W        W96229  32.014  18.555   3.248
34919W        W96230   1.323  22.139   2.416
34920W        W96231  28.578   1.775   4.330
34921W        W96232  42.786   4.410  13.489
34922W        W96233  29.432  40.490  13.355
34923W        W96234  13.216  15.177  11.446
34924W        W96235  23.156  15.186   1.402
34925W        W96236  43.399   4.910  12.373
34926W        W96237  12.260  14.162  13.873
34927W        W96238   0.884  37.873  14.456
34928W        W96239  35.092   3.780  14.824
34929W        W96240   6.354  28.544   2.264
34930W        W96241  20.236  38.349  13.061
34931W        W96242   1.856  33.574   0.402
34932W        W96243  12.797  19.200  13.355
34933W        W96244  31.074  36.429   4.160
34934W        W96245  27.069  16.261  13.407
34935W        W96246  12.803  33.075  11.006
34936W        W96247  26.477  27.587   4.330
34937W        W96248  17.076  40.324   0.446
34938W        W96249  43.488  21.547  14.803
34939W        W96250  44.993   6.290  10.892
34940W        W96251   3.715  26.163  12.353
34941W        W96252  16.801   1.751  14.818
34942W        W96253   8.787   9.325  13.334
34943W        W96254  32.138  36.096  13.500
34944W        W96255  32.926  16.112  11.385
34945W        W96256  25.056   0.288  12.858
34946W        W96257  18.165  17.634   0.328
34947W        W96258  35.447   4.737  11.042
34948W        W96259  32.030  36.399  11.569
34949W        W96260  38.445  14.751   2.816
34950W        W96261  18.081  35.547   0.831
34951W        W96262  18.732   6.394  10.157
34952W        W96263  37.513   1.844  13.812
34953W        W96264  18.666  34.023   2.709
34954W        W96265  22.181  36.847  13.854
34955W        W96266  35.597  42.509   4.716
34956W        W96267  13.733  22.090  12.531
34957W        W96268  10.809  12.215   1.339
34958W        W96269  36.408  19.182  12.945
34959W        W96270  26.696  19.728   4.796
34960W        W96271  23.615  21.593   5.278
34961W        W96272   3.234  19.083   0.480
34962W        W96273  35.411  32.458   4.207
34963W        W96274  33.091  33.496   3.368
34964W        W96275  36.088   3.820   4.294
34965W        W96276  22.139  20.708   4.198
34966W        W96277  40.051  13.351   1.752
34967W        W96278  22.110   5.842  11.924
34968W        W96279  26.202   3.875   1.366
34969W        W96280  11.661  14.201   0.854
34970W        W96281   5.206  19.556   2.781
34971W        W96282   0.959  44.840  14.326
34972W        W96283  25.589   8.899   0.926
34973W        W96284  28.582  14.283   2.730
34974W        W96285  19.118  16.634  13.038
34975W        W96286  17.282  41.496  12.424
34976W        W96287  19.641  10.324   3.379
34977W        W96288  39.008  15.214  12.447
34978W        W96289   8.742  13.776  14.979
34979W        W96290  22.515   1.897  12.551
34980W        W96291  34.118   9.236   1.313
34981W        W96292  14.335  24.088  12.359
34982W        W96293  24.536  35.523   3.307
34983W        W96294  18.058  36.895  12.869
34984W        W96295   2.804  14.215   4.770
34985W        W96296   4.737  42.990   4.318
34986W        W96297  41.413   3.398   4.610
34987W        W96298  23.570   1.478   4.215
34988W        W96299  20.135   6.186  13.446
34989W        W96300   4.847  11.716  13.361
34990W        W96301  39.816  38.855  10.090
34991W        W96302  10.269  16.266  12.083
34992W        W96303   7.246   8.289   3.222
34993W        W96304  36.412  25.613   1.765
34994W        W96305  16.669  31.449  14.371
34995W        W96306  43.503  17.733  12.083
34996W        W96307  29.094  23.103   2.287
34997W        W96308   7.730  20.699  10.461
34998W        W96309  13.220   2.895  10.968
34999W        W96310   7.202   0.427   3.324
35000W        W96311  14.194  37.862  12.903
35001W        W96312  18.265  38.879  10.466
35002W        W96313  37.875  27.621  12.989
35003W        W96314  44.439  39.984   3.241
35004W        W96315   8.381  37.506  11.502
35005W        W96316  19.057  11.688  11.448
35006W        W96317  27.572  28.453   0.250
35007W        W96318  15.089   4.773  10.076
35008W        W96319  41.462  20.073   3.239
35009W        W96320  26.177  25.060  12.367
35010W        W96321   8.786  21.657   4.643
35011W        W96322  43.374  30.138  10.546
35012W        W96323  26.645  32.074   0.871
35013W        W96324   7.298   9.787   3.684
35014W        W96325  20.180   5.694   2.283
35015W        W96326  44.853  38.825   1.376
35016W        W96327  44.920  14.807   4.694
35017W        W96328  36.095   8.658   0.387
35018W        W96329  31.076  37.538   4.192
35019W        W96330  26.093  18.084   0.766
35020W        W96331  10.815  19.635   4.724
35021W        W96332  20.554  30.432   3.151
35022W        W96333  38.461   1.769   3.216
35023W        W96334  29.478  38.451   1.329
35024W        W96335  43.013  35.524  12.382
35025W        W96336   1.245   8.851   3.783
35026W        W96337  40.829  25.041  13.808
35027W        W96338  22.731   5.866  10.556
35028W        W96339   2.808  17.161   3.288
35029W        W96340  38.464  28.990   1.837
35030W        W96341  39.003  14.725  13.435
35031W        W96342  38.437  41.508  13.979
35032W        W96343  26.031  27.102   2.375
35033W        W96344  23.038   2.352  13.391
35034W        W96345  20.669   1.327   4.354
35035W        W96346  40.978  33.585  14.776
35036W        W96347  26.176  44.432  10.561
35037W        W96348   9.208  25.627   4.625
35038W        W96349  36.418  29.131   1.905
35039W        W96350   5.340  40.319   4.790
35040W        W96351  24.551  38.820   0.331
35041W        W96352   8.284  44.285   1.871
35042W        W96353  20.082  24.589   4.254
35043W        W96354  29.039  30.134  14.018
35044W        W96355  25.561  42.330   4.298
35045W        W96356  27.636  29.547  13.379
35046W        W96357  10.157  37.516   1.228
35047W        W96358   2.412   4.941  11.474
35048W        W96359  35.458  29.476   2.419
35049W        W96360  19.160  17.789   4.652
35050W        W96361  11.842  21.230  14.960
35051W        W96362   0.347   6.854   4.737
35052W        W96363  34.460   8.870  13.879
35053W        W96364  34.601  21.541   1.308
35054W        W96365  33.085   7.260   4.260
35055W        W96366  31.026  17.181   0.788
35056W        W96367  21.179   0.935  13.826
35057W        W96368  16.293  12.307   1.859
35058W        W96369   7.277  28.543   0.889
35059W        W96370   6.356   3.914  13.021
35060W        W96371  14.227  41.962   0.368
35061W        W96372   5.932  28.948   3.819
35062W        W96373  36.496  29.494  10.145
35063W        W96374  14.788  31.548  14.414
35064W        W96375  13.336  40.991  11.606
35065W        W96376  41.476  15.783   4.600
35066W        W96377  15.099   2.845  10.011
35067W        W96378   0.410  25.044   4.179
35068W        W96379   8.744  28.084  14.303
35069W        W96380   3.389  13.330   4.194
35070W        W96381  17.582  33.541  11.064
35071W        W96382   8.162   7.354  13.889
35072W        W96383  32.551  42.979  12.528
35073W        W96384   0.951  18.684   0.835
35074W        W96385  13.219  39.815  10.560
35075W        W96386   7.305  24.133   1.324
35076W        W96387   6.312  40.906  10.405
35077W        W96388  10.185  42.320  12.896
35078W        W96389  18.281  25.084   3.291
35079W        W96390  21.520  38.037   2.882
35080W        W96391  40.966  11.357  10.626
35081W        W96392  19.085  25.050  14.971
35082W        W96393  44.853  40.046  10.555
35083W        W96394  37.409   0.251  13.366
35084W        W96395  20.046  44.960   2.256
35085W        W96396  43.914  13.658  11.499
35086W        W96397  33.429  13.324   3.742
35087W        W96398   1.298  37.352   2.690
35088W        W96399  15.697  36.084   0.323
35089W        W96400  27.169   5.370   0.266
35090W        W96401  31.461   0.773   1.794
35091W        W96402  27.605  34.443   0.945
35092W        W96403  30.518   9.151   4.630
35093W        W96404   1.745  13.837  12.553
35094W        W96405  12.258  36.868  14.374
35095W        W96406  23.605  26.618   1.869
35096W        W96407  39.899  29.519   2.663
35097W        W96408   4.247   6.843   1.745
35098W        W96409  44.457  23.139   3.306
35099W        W96410  21.181  23.028  10.476
35100W        W96411  38.052   0.759  11.910
35101W        W96412   6.413  28.069  13.414
35102W        W96413  17.595  16.787  14.975
35103W        W96414  38.854   5.697  13.412
35104W        W96415  10.194  17.192  13.843
35105W        W96416   4.285  18.202  10.454
35106W        W96417  19.204  10.803   3.805
35107W        W96418  42.896  15.759   0.328
35108W        W96419  30.069  39.511  11.092
35109W        W96420  12.753   3.291  12.342
35110W        W96421   2.384   4.449   3.299
35111W        W96422  36.080  42.413  13.467
35112W        W96423  30.992  13.661  12.874
35113W        W96424   9.840  21.552  14.928
35114W        W96425  30.643  43.435  12.886
35115W        W96426  36.491   1.903  12.019
35116W        W96427  26.498  22.723   0.795
35117W        W96428  37.945  35.543   3.778
35118W        W96429  35.098  37.933   2.204
35119W        W96430  11.373  21.063  12.833
35120W        W96431  15.143  28.633   1.829
35121W        W96432   3.398  43.016   4.813
35122W        W96433  25.115   4.728   2.287
35123W        W96434  14.830   3.455   0.267
35124W        W96435  43.308  33.948   0.400
35125W        W96436  10.291  26.666   0.248
35126W        W96437  41.992   6.846   3.209
35127W        W96438  12.303   6.743  13.983
35128W        W96439  41.948  44.369  14.318
35129W        W96440  36.419   4.702  11.928
35130W        W96441  35.874  44.819  14.281
35131W        W96442  33.005  19.534   4.162
35132W        W96443   0.390  41.329   1.441
35133W        W96444  24.055  40.486  14.466
35134W        W96445   3.759  32.101  11.908
35135W        W96446  16.741  22.141  11.123
35136W        W96447  40.831  24.141  14.857
35137W        W96448  24.670   2.776  14.769
35138W        W96449   0.820  22.520  14.935
35139W        W96450  14.781   7.709  11.486
35140W        W96451   1.473   3.936  10.461
35141W        W96452  30.500   4.918   4.654
35142W        W96453  29.623   3.723  12.002
35143W        W96454  41.790  34.594  13.856
35144W        W96455  32.112  44.842   1.407
35145W        W96456  43.899  25.138   3.185
35146W        W96457  36.426  33.429   2.404
35147W        W96458  11.846  22.182   3.829
35148W        W96459  22.603  38.894  13.947
35149W        W96460  29.982  20.136   0.804
35150W        W96461  10.348  27.005   3.752
35151W        W96462  13.695  37.851   4.180
35152W        W96463   7.311  32.634   2.394
35153W        W96464  35.438   0.260   1.427
35154W        W96465  21.714   2.349  11.583
35155W        W96466  40.913  41.346  14.935
35156W        W96467   7.768  41.326   0.412
35157W        W96468  19.662  28.652  13.506
35158W        W96469  12.328  16.302   1.358
35159W        W96470  42.981  35.546  14.487
35160W        W96471  19.109   9.648   3.830
35161W        W96472   4.342  25.576   3.308
35162W        W96473   9.386  31.607   4.141
35163W        W96474  17.780   5.343  13.911
35164W        W96475   1.378   7.203  11.062
35165W        W96476  13.299  28.985  14.337
35166W        W96477   7.299  24.208  14.969
35167W        W96478   3.270   8.173  10.498
35168W        W96479  24.207  16.707   1.394
35169W        W96480  17.621  37.555  10.463
35170W        W96481  42.900  31.014  12.456
35171W        W96482  28.135  16.619   3.726
35172W        W96483  28.580  33.595  13.020
35173W        W96484  33.585  15.209   1.392
35174W        W96485  17.164  34.095   0.385
35175W        W96486  14.752   8.735   1.408
35176W        W96487  35.545  44.855  12.386
35177W        W96488  17.305  35.885   3.657
35178W        W96489   0.325  19.173  12.879
35179W        W96490  22.203   6.291   3.783
35180W        W96491  33.985  11.265  14.878
35181W        W96492  23.155  42.969   1.412
35182W        W96493  30.560  44.904  11.462
35183W        W96494  31.125  11.140  12.005
35184W        W96495   7.200  11.346  10.930
35185W        W96496  36.361  44.480  14.351
35186W        W96497   2.784   0.836   3.783
35187W        W96498  26.672   3.237   4.822
35188W        W96499  41.452  18.654   2.851
35189W        W96500  27.469  20.750  13.057
35190W        W96501  38.445   0.841  10.424
35191W        W96502  15.274   4.229   2.698
35192W        W96503  13.123   7.229   2.705
35193W        W96504   2.244  27.484   3.315
35194W        W96505  20.753  41.956   3.274
35195W        W96506  12.186  18.213  11.961
35196W        W96507  33.925  21.113   4.241
35197W        W96508  27.044  30.969  14.291
35198W        W96509  43.973  32.437   2.375
35199W        W96510  13.291  32.102   1.263
35200W        W96511  13.721  35.396   3.681
35201W        W96512  33.506  23.051   1.920
35202W        W96513  38.036  44.460   2.811
35203W        W96514  31.608   7.781  13.928
35204W        W96515  22.110  17.213  14.416
35205W        W96516  33.516  37.986  14.340
35206W        W96517  11.299  41.897   2.246
35207W        W96518   6.287  12.800   3.253
35208W        W96519  32.077  30.647  10.529
35209W        W96520  34.512  24.014  13.955
35210W        W96521  39.040   1.951  14.855
35211W        W96522  12.297  39.557   2.180
35212W        W96523  41.835  21.611   3.204
35213W        W96524  40.824  17.662  13.321
35214W        W96525  15.661  34.893   2.265
35215W        W96526  38.954  32.935   2.898
35216W        W96527  35.088  40.910  13.518
35217W        W96528  10.262  29.662   1.882
35218W        W96529  44.458  25.029   1.446
35219W        W96530  32.485  18.645   1.315
35220W        W96531  22.082  20.234   0.922
35221W        W96532  18.211   1.453  13.467
35222W        W96533  39.895  33.915   1.717
35223W        W96534  35.929  40.822   0.739
35224W        W96535   2.274  11.298   4.185
35225W        W96536  12.693   1.315  14.994
35226W        W96537   5.342  19.210  11.868
35227W        W96538   0.333  24.624   4.811
35228W        W96539  31.551  28.950   4.645
35229W        W96540  35.033  14.098   3.863
35230W        W96541  33.119  38.541  11.922
35231W        W96542  25.544   1.889  11.928
35232W        W96543  34.433  33.130   4.814
35233W        W96544  32.908  41.437   4.659
35234W        W96545  24.209   7.360  14.357
35235W        W96546  17.144   8.233   3.795
35236W        W96547  19.145  29.659  12.833
35237W        W96548  26.977  20.062  11.522
35238W        W96549  34.511   2.447   4.666
35239W        W96550   3.749  34.481   1.396
35240W        W96551   8.753  19.563   1.791
35241W        W96552  10.740  32.474   0.799
35242W        W96553  43.839  27.476   4.253
35243W        W96554  40.048  36.431   0.729
35244W        W96555  22.122  19.729  14.323
35245W        W96556  31.641  30.501  14.335
35246W        W96557  18.741  30.959  10.920
35247W        W96558  27.957  25.675  12.454
35248W        W96559  23.994  12.215  14.502
35249W        W96560  26.483  40.339  13.995
35250W        W96561   9.799  38.538   1.708
35251W        W96562  12.316  41.340  14.420
35252W        W96563  37.423  35.456  11.492
35253W        W96564  22.166   6.314  13.970
35254W        W96565   0.884  23.215  10.462
35255W        W96566  24.687  10.260  14.421
35256W        W96567  43.777  44.367  12.065
35257W        W96568  26.560  14.230  11.928
35258W        W96569  37.075  27.156   0.942
35259W        W96570  32.075  14.145   0.352
35260W        W96571   3.892   8.234   2.856
35261W        W96572  14.200  22.243  13.422
35262W        W96573  23.228  31.549   1.243
35263W        W96574  27.131  20.557  11.557
35264W        W96575  38.380  17.756  11.490
35265W        W96576   4.821  18.747  14.399
35266W        W96577  32.441  18.623   4.653
35267W        W96578  35.540   9.702  11.479
35268W        W96579  11.339  38.460  12.512
35269W        W96580  44.921   6.751   2.846
35270W        W96581   3.382  11.167   3.769
35271W        W96582  36.569  35.377  11.987
35272W        W96583   8.369   4.821   3.786
35273W        W96584  40.944  36.519  10.978
35274W        W96585  10.204   5.825  13.028
35275W        W96586   0.923  20.229   0.420
35276W        W96587  16.583  21.054   1.829
35277W        W96588   2.836  34.034   1.831
35278W        W96589  17.603  41.843   3.825
35279W        W96590  27.947   0.273   1.246
35280W        W96591  33.931  44.465  13.368
35281W        W96592   7.903  44.372   1.410
35282W        W96593   6.335   4.325   3.682
35283W        W96594  24.043   5.267  14.802
35284W        W96595  43.339  41.957  13.516
35285W        W96596  26.464  20.725  13.992
35286W        W96597  39.537  37.563   2.857
35287W        W96598  30.488   9.184   1.223
35288W        W96599  34.509  20.719  14.514
35289W        W96600  25.067  16.089  14.855
35290W        W96601  28.002   0.898   3.385
35291W        W96602   8.370  23.599   0.336
35292W        W96603   3.227  31.436   4.604
35293W        W96604  15.648  33.009  12.440
35294W        W96605  33.541  10.183  14.385
35295W        W96606   2.283  21.687  14.966
35296W        W96607  12.681   6.752   3.328
35297W        W96608  18.211  19.155   4.737
35298W        W96609  27.623  41.457  13.433
35299W        W96610  36.582   1.955   4.354
35300W        W96611   2.426  11.853  13.433
35301W        W96612   1.310  13.808  11.505
35302W        W96613  18.634  39.359   0.943
35303W        W96614  22.695  24.011  14.421
35304W        W96615  28.930  36.864   0.410
35305W        W96616  27.134  25.157   1.278
35306W        W96617  22.686  31.403  13.800
35307W        W96618  40.995  31.481   4.645
35308W        W96619  21.173   0.775   4.652
35309W        W96620  32.511  39.863  14.870
35310W        W96621  26.188  21.057  11.863
35311W        W96622  11.363  21.748   1.361
35312W        W96623  11.366  34.106  13.929
35313W        W96624  12.852  19.720  14.839
35314W        W96625  34.876  30.449  14.802
35315W        W96626  40.488  16.595  11.027
35316W        W96627  40.360  24.059  13.533
35317W        W96628  10.364   8.882  12.946
35318W        W96629  41.462  12.293   4.675
35319W        W96630  14.247  22.157   1.797
35320W        W96631  43.344  30.517   0.746
35321W        W96632  24.015  25.010   0.260
35322W        W96633  29.127  31.535  13.823
35323W        W96634  14.134  25.061  14.415
35324W        W96635  11.196  13.152  12.005
35325W        W96636  26.170   0.943   3.364
35326W        W96637   6.246   9.793   1.442
35327W        W96638  33.091   5.842   3.351
35328W        W96639  13.814  16.257   4.636
35329W        W96640  19.091   1.734   0.381
35330W        W96641   4.842   7.677  10.896
35331W        W96642  22.735   6.263  12.902
35332W        W96643  36.354  41.905   5.128
35333W        W96644  21.563   4.910  13.463
35334W        W96645  21.262  27.481  10.450
35335W        W96646  27.188  21.698  12.445
35336W        W96647  16.212   5.324   0.873
35337W        W96648  29.639  22.016   4.709
35338W        W96649  27.469  36.497   0.333
35339W        W96650   9.725  11.838   2.211
35340W        W96651  17.145  14.633  14.954
35341W        W96652  31.636  21.602  10.609
35342W        W96653  26.976  17.601  13.514
35343W        W96654  10.672  34.413  14.448
35344W        W96655   3.421  12.328   1.893
35345W        W96656  36.879  44.851   3.697
35346W        W96657  37.495  18.264   4.708
35347W        W96658  18.746  21.177   1.890
35348W        W96659  32.545  37.378  10.639
35349W        W96660  39.358  13.757  11.906
35350W        W96661  32.536  25.646  11.381
35351W        W96662  10.182   4.415   0.806
35352W        W96663  21.564  32.580   2.218
35353W        W96664  28.011  34.370  13.916
35354W        W96665   2.758   8.284  13.935
35355W        W96666  22.212  23.628   2.228
35356W        W96667   7.342  17.715   5.794
35357W        W96668  28.534   9.366  14.860
35358W        W96669  26.101  33.585   2.852
35359W        W96670   4.369  18.660   0.414
35360W        W96671  43.999  24.701   3.773
35361W        W96672   0.422  41.473  14.842
35362W        W96673  25.978   5.723   1.746
35363W        W96674  30.520  28.152   1.778
35364W        W96675   6.360  16.204  13.367
35365W        W96676   3.740  26.558   2.410
35366W        W96677   3.812  43.931   0.958
35367W        W96678  13.184  18.124  12.036
35368W        W96679  16.205  34.415   4.654
35369W        W96680  29.442   8.323  11.861
35370W        W96681  35.988   0.396   2.781
35371W        W96682  15.703   3.245   1.360
35372W        W96683  20.238  40.393  13.397
35373W        W96684  36.997  16.266   2.876
35374W        W96685   7.853  27.578   2.203
35375W        W96686  15.245  34.969   1.764
35376W        W96687   3.739   6.781   0.294
35377W        W96688  44.291  10.279   1.719
35378W        W96689  20.273   4.763   2.732
35379W        W96690   0.298  24.590  13.404
35380W        W96691  29.566   6.893   0.929
35381W        W96692  16.258  40.829  13.982
35382W        W96693   3.257  16.647   4.636
35383W        W96694  19.265   5.417  13.538
35384W        W96695  41.007   7.702  10.902
35385W        W96696  23.624  11.716   1.912
35386W        W96697  14.154  36.082  13.908
35387W        W96698  29.118  34.098   1.725
35388W        W96699   1.913  20.050  14.884
35389W        W96700   5.775   7.174   0.944
35390W        W96701  15.644   9.812  11.028
35391W        W96702  40.544  19.061   4.775
35392W        W96703  25.490  11.780   4.120
35393W        W96704   0.461  29.110   4.834
35394W        W96705  19.246  11.672  11.124
35395W        W96706  35.545  28.439   0.289
35396W        W96707  12.137  39.879  14.987
35397W        W96708  14.744   1.454   0.779
35398W        W96709  32.046   7.875  13.897
35399W        W96710   0.921  38.351  11.055
35400W        W96711  21.199  14.785  12.403
35401W        W96712  38.510  43.315   1.712
35402W        W96713   0.287  28.517  10.612
35403W        W96714  38.520  31.041  11.429
35404W        W96715   3.401  29.617  14.798
35405W        W96716  42.473  14.662  10.629
35406W        W96717  19.171  32.941  11.561
35407W        W96718  33.918   4.355  12.434
35408W        W96719  16.236  43.806  12.443
35409W        W96720   1.383  21.150  13.545
35410W        W96721   3.374  37.862  13.038
35411W        W96722  18.774  29.651   0.388
35412W        W96723  15.294  22.137  13.802
35413W        W96724  29.622  44.368   3.173
35414W        W96725  26.175  18.259  12.446
35415W        W96726  34.952  42.838  14.920
35416W        W96727  27.576  36.435   2.286
35417W        W96728   0.391  27.472   1.385
35418W        W96729   5.299   6.203   2.838
35419W        W96730  18.586  31.631   1.233
35420W        W96731  16.711  26.479   3.190
35421W        W96732  42.310  41.463   0.819
35422W        W96733  36.374  26.009   2.284
35423W        W96734  24.974   7.749  10.507
35424W        W96735  24.540  22.105  10.084
35425W        W96736  27.992  30.911  11.525
35426W        W96737   8.221  34.032  14.902
35427W        W96738  41.806  11.801   0.361
35428W        W96739  29.511  40.330  13.028
35429W        W96740  16.652   7.406   4.812
35430W        W96741   8.763   4.885   1.808
35431W        W96742  27.178  36.573  11.570
35432W        W96743  20.138  16.779  14.890
35433W        W96744  11.324  40.013   4.293
35434W        W96745  44.278  17.085   1.275
35435W        W96746  34.995   5.315   2.325
35436W        W96747  30.637   6.233   0.875
35437W        W96748  42.326  34.918  10.917
35438W        W96749   7.817  28.523   2.781
35439W        W96750  11.692  35.061   4.695
35440W        W96751  28.182  12.262   4.835
35441W        W96752  29.975  30.634   4.218
35442W        W96753   7.342   7.752  13.914
35443W        W96754  44.970  38.461  12.044
35444W        W96755   5.755  30.512   1.811
35445W        W96756   1.830  39.849  14.767
35446W        W96757  12.767  16.781   4.355
35447W        W96758  17.155  16.616   0.885
35448W        W96759  28.169  40.837   3.351
35449W        W96760  11.292  32.009  13.042
35450W        W96761   5.361  14.619  12.363
35451W        W96762  19.557  40.409  13.944
35452W        W96763  24.639  34.893  13.504
35453W        W96764   0.262  23.003   2.796
35454W        W96765  13.611  25.641  11.901
35455W        W96766  40.344   8.330  11.539
35456W        W96767  40.953  40.511   4.656
35457W        W96768  26.459  11.793   0.431
35458W        W96769  10.705  26.129  12.095
35459W        W96770  19.702  20.194   1.352
35460W        W96771  11.672  43.463  13.412
35461W        W96772  37.451  43.498  14.401
35462W        W96773  42.848  22.059   2.348
35463W        W96774   3.286  15.646  11.504
35464W        W96775  29.579  31.020  11.427
35465W        W96776  24.480   7.726  10.895
35466W        W96777   3.392  42.343  12.480
35467W        W96778  42.505   2.321  14.896
35468W        W96779  26.663  25.608  11.109
35469W        W96780  14.094  13.698   2.671
35470W        W96781  14.126  37.399  10.528
35471W        W96782   9.697  40.404   3.838
35472W        W96783   5.697  22.684   1.926
35473W        W96784  40.365  40.037  10.929
35474W        W96785  31.478  24.571   0.786
35475W        W96786  26.532   8.312   1.812
35476W        W96787  31.575   0.908  12.011
35477W        W96788   7.764  22.036  11.566
35478W        W96789  21.237  20.161   2.665
35479W        W96790  34.496  33.413   1.807
35480W        W96791  16.616  26.511   3.629
35481W        W96792  33.525   0.870   3.751
35482W        W96793  27.032  26.992   3.158
35483W        W96794  16.247  26.649   2.811
35484W        W96795  17.260  15.624  10.543
35485W        W96796  33.967  27.555  13.499
35486W        W96797  32.966  35.962   4.144
35487W        W96798  40.950   3.318   4.652
35488W        W96799  36.986  15.327   3.737
35489W        W96800  18.574  37.041  13.365
35490W        W96801  12.648  20.028   0.901
35491W        W96802   9.201  18.261   3.287
35492W        W96803   8.166  11.807   1.340
35493W        W96804  33.932  10.294   0.952
35494W        W96805  35.427  11.621   4.119
35495W        W96806   3.447  15.640  13.541
35496W        W96807  43.354  34.960  12.824
35497W        W96808   1.772  16.257  14.022
35498W        W96809  36.095   3.826  12.851
35499W        W96810  33.479  27.008   3.693
35500W        W96811  16.745   9.389   4.755
35501W        W96812  34.512  40.524   0.920
35502W        W96813  37.964   0.755   2.210
35503W        W96814  33.610  32.511   5.206
35504W        W96815   8.739  39.816   1.743
35505W        W96816  41.850  19.701  11.935
35506W        W96817   6.753  24.061   0.901
35507W        W96818  22.667  35.579  13.360
35508W        W96819   7.864  42.880  13.373
35509W        W96820   3.368   6.365  14.356
35510W        W96821   3.747  44.809   1.310
35511W        W96822  44.798  32.601  12.838
35512W        W96823  41.893  37.522  11.878
35513W        W96824  17.265  16.738   5.626
35514W        W96825  19.135  21.561   0.882
35515W        W96826   6.880   4.735   3.858
35516W        W96827   0.979  30.025   4.174
35517W        W96828  27.561   6.789   1.293
35518W        W96829  41.394  10.697  10.494
35519W        W96830  16.150   2.372  13.850
35520W        W96831   5.884  36.013   2.303
35521W        W96832   2.349   1.881  11.561
35522W        W96833  14.776   4.272   0.855
35523W        W96834  31.451  32.515   2.864
35524W        W96835  12.247  17.739   0.803
35525W        W96836  24.708  33.997   5.664
35526W        W96837  18.723  37.923  11.035
35527W        W96838   7.791   2.438  12.893
35528W        W96839  17.128  12.716  10.152
35529W        W96840  25.975  15.159  14.971
35530W        W96841  25.030  15.106  14.403
35531W        W96842   8.657  14.689   1.403
35532W        W96843  12.632  28.097   3.150
35533W        W96844   0.404  25.563   1.393
35534W        W96845   7.904   8.727   0.452
35535W        W96846  42.472  22.137   4.685
35536W        W96847  26.556  30.012  14.304
35537W        W96848  23.198  11.291  12.516
35538W        W96849  12.712  14.141   4.601
35539W        W96850  17.787  19.776   4.125
35540W        W96851  11.787  19.135  13.915
35541W        W96852  14.103  37.538   2.717
35542W        W96853   7.296  20.608  13.532
35543W        W96854   6.923  18.196   5.286
35544W        W96855  31.954  44.447  13.534
35545W        W96856   3.316  20.166   2.710
35546W        W96857   6.731  21.740   1.764
35547W        W96858  26.588  26.168  13.055
35548W        W96859  19.749   0.293  14.833
35549W        W96860   2.403  35.950  14.009
35550W        W96861  16.264   7.838   1.334
35551W        W96862  10.872  42.850  10.102
35552W        W96863  12.785  36.094  12.040
35553W        W96864  23.691   2.751  10.603
35554W        W96865  14.251  23.650  13.333
35555W        W96866   4.433  30.135   2.208
35556W        W96867  21.700  15.696  10.000
35557W        W96868  32.461   7.249   3.734
35558W        W96869   1.327   4.754   3.333
35559W        W96870  24.226  11.689  11.008
35560W        W96871  31.976  19.173  10.609
35561W        W96872  10.309  12.232   5.250
35562W        W96873   9.763  35.970   1.750
35563W        W96874   6.806   8.875   1.876
35564W        W96875  11.705   0.938   3.804
35565W        W96876  16.072  40.442  11.411
35566W        W96877  19.637  12.335  14.968
35567W        W96878  12.782  23.688  14.935
35568W        W96879  26.050  38.856  11.476
35569W        W96880  26.698   2.886   0.301
35570W        W96881  26.174  10.704   2.738
35571W        W96882  16.688   7.411   4.297
35572W        W96883   6.187   2.326   2.679
35573W        W96884   1.443   2.313   4.693
35574W        W96885  15.310  17.670   1.864
35575W        W96886  13.318  19.558  12.909
35576W        W96887  13.238  39.811  14.297
35577W        W96888  20.137  17.165   4.181
35578W        W96889  30.090  13.603  13.834
35579W        W96890  16.751   2.919   1.246
35580W        W96891  18.069   1.461   4.169
35581W        W96892  12.140  14.318   4.345
35582W        W96893  28.151  39.974  11.931
35583W        W96894  14.661  39.383  12.956
35584W        W96895   0.493   4.291  12.901
35585W        W96896  35.403  35.582  13.384
35586W        W96897   3.905  18.190  13.313
35587W        W96898  32.553  19.669   0.424
35588W        W96899  30.980   4.235  13.473
35589W        W96900  13.115  36.006  12.007
35590W        W96901  23.140   0.340  11.461
35591W        W96902  18.242  12.785   4.788
35592W        W96903  23.051  33.091   3.241
35593W        W96904   7.195  26.129   4.691
35594W        W96905  29.102  29.085   0.324
35595W        W96906  24.545   6.370  13.520
35596W        W96907  34.561  40.011   3.190
35597W        W96908  14.166  27.500   0.264
35598W        W96909  16.177  16.254  12.906
35599W        W96910  20.597  17.756   2.813
35600W        W96911   5.205  21.234  12.985
35601W        W96912  36.068  16.200  12.340
35602W        W96913  10.748   0.874  11.124
35603W        W96914  36.875  28.147   5.220
35604W        W96915  21.087   2.411  12.405
35605W        W96916  32.030  24.573   3.652
35606W        W96917  28.149  15.125  11.105
35607W        W96918  10.795   0.804  14.027
35608W        W96919  31.135  15.276   0.390
35609W        W96920   1.349  14.715   0.929
35610W        W96921  13.606   8.680  11.088
35611W        W96922  21.189  39.486  13.311
35612W        W96923  33.409   4.911   2.305
35613W        W96924  28.526  31.121   0.846
35614W        W96925   1.772  13.347  12.561
35615W        W96926  28.042  22.575   1.788
35616W        W96927  44.495  31.032  11.124
35617W        W96928   0.859  13.211  14.413
35618W        W96929  27.571  24.150   0.914
35619W        W96930  29.993  38.347   2.827
35620W        W96931  23.510  28.149   1.725
35621W        W96932  29.067  35.395   3.710
35622W        W96933   9.731  31.983  13.481
35623W        W96934  16.242   6.724  10.970
35624W        W96935  28.565  26.198   2.247
35625W        W96936   2.755  14.741   1.902
35626W        W96937  25.638  37.377  12.946
35627W        W96938  35.050   5.909  14.989
35628W        W96939  33.542  11.829  11.596
35629W        W96940   0.347   9.877   3.849
35630W        W96941  17.201  42.962  13.855
35631W        W96942  44.883  22.106  11.385
35632W        W96943  17.288  21.035   0.929
35633W        W96944  44.813  17.701  12.462
35634W        W96945  16.745  28.562  14.407
35635W        W96946  22.237  25.090  13.956
35636W        W96947  28.549  41.424  10.637
35637W        W96948  32.522  17.595   2.867
35638W        W96949   4.852   0.421   1.882
35639W        W96950  34.512   9.737  14.319
35640W        W96951  37.040  14.642  11.017
35641W        W96952  39.979  41.825   0.900
35642W        W96953  27.487  43.795   1.725
35643W        W96954  21.263  39.495  13.857
35644W        W96955  24.985  16.672   4.765
35645W        W96956  33.088  18.189  12.961
35646W        W96957  38.884   6.703   0.380
35647W        W96958  40.913  12.816  12.414
35648W        W96959  29.985  18.100  13.498
35649W        W96960  38.849  10.863  11.465
35650W        W96961  22.534   1.332   4.748
35651W        W96962  13.834  19.056  13.921
35652W        W96963  19.692  14.272   1.417
35653W        W96964   1.896  28.965  14.013
35654W        W96965  31.953  11.339  10.994
35655W        W96966  23.642  26.511   3.698
35656W        W96967  39.485  23.218   1.397
35657W        W96968  39.421  23.707   2.309
35658W        W96969  32.963  13.831  10.530
35659W        W96970  20.242  13.758  14.325
35660W        W96971  41.973   5.873   2.351
35661W        W96972  29.553  35.496  10.545
35662W        W96973   1.249  38.987   0.780
35663W        W96974  26.122   7.272  13.338
35664W        W96975   1.928  38.347   2.219
35665W        W96976  31.478   0.417   4.728
35666W        W96977  27.477  19.696   5.287
35667W        W96978  26.043   4.932  13.045
35668W        W96979   6.787  38.374   0.456
35669W        W96980  18.592  44.461   4.613
35670W        W96981  38.490  44.938   4.300
35671W        W96982  44.963   3.930   4.665
35672W        W96983  41.843  21.699  14.998
35673W        W96984  33.064  43.998  14.853
35674W        W96985  25.491  28.052   0.934
35675W        W96986  26.060  42.294   0.298
35676W        W96987  30.164  35.503   4.296
35677W        W96988   0.878   3.843  11.921
35678W        W96989  40.857  20.635  14.278
35679W        W96990  34.535  21.132  14.766
35680W        W96991  35.568  17.304   0.919
35681W        W96992  44.821  43.472   2.211
35682W        W96993  33.103  21.174   2.863
35683W        W96994  22.150  12.211  10.587
35684W        W96995  36.545  31.117  14.989
35685W        W96996   5.897  19.223  13.896
35686W        W96997   0.930  33.562  13.354
35687W        W96998  31.436  18.791  11.881
35688W        W96999  36.524   9.326   4.698
35689W        W97000  10.712  33.392   2.308
35690W        W97001  25.607  11.295   0.746
35691W        W97002   4.263  22.057  13.383
35692W        W97003  21.712  27.086  11.448
35693W        W97004   1.764   2.966   3.384
35694W        W97005  32.960  36.452   3.247
35695W        W97006  29.518  31.597  13.443
35696W        W97007  43.771  25.476   3.173
35697W        W97008   0.310  43.516  11.504
35698W        W97009   8.250  24.984  11.001
35699W        W97010  10.338  36.579  11.448
35700W        W97011  40.957   8.830   2.846
35701W        W97012  22.098   3.869   0.307
35702W        W97013   9.805  18.582  14.438
35703W        W97014  34.370  28.128  14.896
35704W        W97015  15.821  13.637  11.555
35705W        W97016  23.069  17.254   4.823
35706W        W97017   2.435  37.014  13.911
35707W        W97018  22.177  25.681  11.396
35708W        W97019  18.087  36.573  12.096
35709W        W97020  42.883  44.266  11.406
35710W        W97021  33.131  28.449  11.857
35711W        W97022  22.634   4.776  13.502
35712W        W97023  36.410  27.065   2.721
35713W        W97024  17.790  37.472   1.711
35714W        W97025   6.762  20.046  10.949
35715W        W97026  32.444  29.438   9.943
35716W        W97027  16.725  17.733   0.286
35717W        W97028  29.626  30.465  10.110
35718W        W97029   3.389  17.073   1.903
35719W        W97030  24.100  14.592  10.530
35720W        W97031  27.991  32.090   1.773
35721W        W97032  30.978  27.177   2.666
35722W        W97033  14.818  37.022  14.009
35723W        W97034   2.829  40.405   2.221
35724W        W97035   7.226   3.793  10.953
35725W        W97036  20.752   4.238   0.246
35726W        W97037  24.098  29.171   2.827
35727W        W97038  24.573  33.916  12.561
35728W        W97039  44.499  20.720  12.923
35729W        W97040  18.752  23.520  12.094
35730W        W97041  15.238   0.441  10.974
35731W        W97042   4.789  20.755   4.723
35732W        W97043  22.511  23.068   4.245
35733W        W97044  35.959   0.761  12.397
35734W        W97045  11.739   3.864   1.835
35735W        W97046  23.001   2.911  14.874
35736W        W97047   5.704  12.622   4.783
35737W        W97048  34.425  11.707   4.689
35738W        W97049  43.435  35.912   5.148
35739W        W97050   4.898  21.678  11.524
35740W        W97051  34.539  22.081  12.466
35741W        W97052  20.698  14.306  11.382
35742W        W97053  39.451   3.953  11.562
35743W        W97054  30.099  11.333   0.429
35744W        W97055  43.838   2.784   4.795
35745W        W97056  33.045  42.827   3.273
35746W        W97057  37.472  44.803   1.281
35747W        W97058  21.023  10.193  14.981
35748W        W97059  41.790  27.173  11.008
35749W        W97060   6.735  28.099   4.353
35750W        W97061   2.926   7.680   2.414
35751W        W97062  11.210  15.119  12.502
35752W        W97063   2.253  13.334   2.662
35753W        W97064  26.663   9.747  12.470
35754W        W97065  17.184  26.561  10.154
35755W        W97066   8.207  30.090   0.865
35756W        W97067  12.221  34.889  12.006
35757W        W97068  31.967  10.878  10.640
35758W        W97069  11.332  14.606  12.848
35759W        W97070  39.849  34.372  14.481
35760W        W97071  28.508  16.141   3.828
35761W        W97072  44.414  38.351   0.318
35762W        W97073  42.382   3.803   3.372
35763W        W97074  36.899  35.008  12.006
35764W        W97075  11.840   1.854  13.484
35765W        W97076  25.674  42.310   1.377
35766W        W97077   2.309  27.540  14.492
35767W        W97078  22.055  36.061  14.386
35768W        W97079   7.285  31.495  12.527
35769W        W97080  24.192  24.005   1.706
35770W        W97081   2.868  20.140   4.805
35771W        W97082  14.697  26.579   5.237
35772W        W97083   6.334  43.915   2.791
35773W        W97084  38.394   4.226   0.471
35774W        W97085  18.712   2.815  10.467
35775W        W97086  35.033   0.955   3.279
35776W        W97087  11.802  42.335  14.418
35777W        W97088  29.455  13.774  13.806
35778W        W97089  15.671  20.726   4.818
35779W        W97090  32.391  35.080  10.951
35780W        W97091  22.078   2.417   3.709
35781W        W97092  23.151  38.371   4.326
35782W        W97093  44.421  14.258  12.015
35783W        W97094  17.162  22.130   1.886
35784W        W97095  34.078   4.276  10.515
35785W        W97096  27.580  38.972  12.904
35786W        W97097  44.883  31.012  11.471
35787W        W97098   7.252   6.339   1.348
35788W        W97099  31.604  18.267  11.121
35789W        W97100  19.043  23.622   1.887
35790W        W97101  33.507  15.218   2.394
35791W        W97102  18.677  28.160  10.101
35792W        W97103  41.338  26.034  11.384
35793W        W97104  43.832  32.527   4.309
35794W        W97105  25.470  13.604   4.123
35795W        W97106  33.013  37.489   5.090
35796W        W97107  22.587  20.254   1.911
35797W        W97108  14.284  13.258  10.067
35798W        W97109   6.292  31.995  12.008
35799W        W97110   4.882  30.423   3.357
35800W        W97111  28.672  33.040  14.771
35801W        W97112  31.913  27.129   3.155
35802W        W97113  25.058  18.146   2.768
35803W        W97114  31.084  23.644  10.534
35804W        W97115  35.919   3.385  14.830
35805W        W97116  32.066  16.773   3.693
35806W        W97117  35.981  28.147  13.414
35807W        W97118   1.787  30.120  12.924
35808W        W97119  30.081   5.847   3.761
35809W        W97120  30.950  31.594  10.927
35810W        W97121  26.179  13.241  13.929
35811W        W97122  12.136  34.378  11.071
35812W        W97123  42.412  30.513   0.446
35813W        W97124  17.117  16.243   2.219
35814W        W97125   6.220   7.668   1.390
35815W        W97126  29.516  27.061  10.417
35816W        W97127  40.524  31.023  13.047
35817W        W97128  11.775   1.896   1.393
35818W        W97129  21.674   1.356  13.847
35819W        W97130  16.117  15.641  14.303
35820W        W97131  41.387   8.259  11.556
35821W        W97132  29.524  20.272  14.980
35822W        W97133  20.530  13.263   1.325
35823W        W97134   7.260  27.546   2.686
35824W        W97135  16.088  11.297  11.381
35825W        W97136  31.935  41.344   1.224
35826W        W97137   2.403  19.253   4.605
35827W        W97138  12.324   2.783   1.931
35828W        W97139  38.363  31.556   2.831
35829W        W97140   5.932  36.502   3.766
35830W        W97141  38.983  10.844  13.405
35831W        W97142  15.166  17.258   9.955
35832W        W97143  15.733  16.315   4.340
35833W        W97144   7.905  14.706  11.581
35834W        W97145  31.605  18.184   1.222
35835W        W97146  21.093  13.669   0.922
35836W        W97147   0.277  20.572   0.925
35837W        W97148  38.349  44.944  13.827
35838W        W97149   7.766   5.230  12.953
35839W        W97150  43.277  40.025   3.776
35840W        W97151   3.809  21.188  13.885
35841W        W97152  41.328   3.372  10.633
35842W        W97153  25.984  14.693   1.281
35843W        W97154  41.798  10.767  10.439
35844W        W97155  26.482  38.450  12.970
35845W        W97156  40.474  30.023   1.716
35846W        W97157  43.397  30.009  11.901
35847W        W97158  39.993   3.309   4.604
35848W        W97159   7.223   5.766  13.426
35849W        W97160  29.440  36.459   1.320
35850W        W97161   2.902  31.092   4.624
35851W        W97162  39.830  15.102  14.011
35852W        W97163   9.393  28.943  14.936
35853W        W97164  38.473  42.910  11.874
35854W        W97165   8.692   9.360  12.473
35855W        W97166  10.682  24.491  10.448
35856W        W97167  44.499  42.429  12.947
35857W        W97168  29.496   8.838   4.697
35858W        W97169   5.244  41.033   0.946
35859W        W97170  25.678  17.064   2.699
35860W        W97171  13.749   5.848  11.004
35861W        W97172  13.714  40.497  13.535
35862W        W97173  14.260  11.160   4.313
35863W        W97174   6.209  21.036  10.984
35864W        W97175  19.729   5.401   3.759
35865W        W97176  35.532  28.560  14.382
35866W        W97177  44.444  13.754   0.791
35867W        W97178  33.515  27.031  12.883
35868W        W97179  20.214  25.598  11.490
35869W        W97180  33.456  10.365   2.794
35870W        W97181   9.856  20.167   3.813
35871W        W97182   0.748   7.342   3.665
35872W        W97183  26.123   5.368   3.344
35873W        W97184   0.333  25.040  12.549
35874W        W97185  11.713  20.538  11.031
35875W        W97186  13.844  24.680  13.025
35876W        W97187  43.992  41.984  13.029
35877W        W97188  33.100  44.498   4.688
35878W        W97189  12.617  25.111   3.640
35879W        W97190  28.025  40.545   3.744
35880W        W97191  15.100  10.169  13.830
35881W        W97192  12.159  35.545  13.419
35882W        W97193  39.044  13.149  12.376
35883W        W97194  39.813  36.887   1.918
35884W        W97195  40.473   3.800   4.655
35885W        W97196  28.139  32.396  10.639
35886W        W97197  33.055  21.100  13.380
35887W        W97198   2.430  33.128   1.354
35888W        W97199   3.879  10.349   0.747
35889W        W97200  21.154  15.690   3.379
35890W        W97201  22.613   9.769  11.563
35891W        W97202  41.529  23.101  12.895
35892W        W97203   8.765  16.690  13.531
35893W        W97204   4.937  27.135  11.099
35894W        W97205   1.472  27.955   4.664
35895W        W97206   8.342  44.798   2.687
35896W        W97207  33.537  18.558   5.209
35897W        W97208  15.655  17.630   4.630
35898W        W97209  23.732  35.506   4.768
35899W        W97210   9.376  16.649   5.661
35900W        W97211  33.429  34.414  10.418
35901W        W97212  32.634  36.352   2.395
35902W        W97213  14.748  21.659   4.277
35903W        W97214   9.212   2.409  10.501
35904W        W97215  42.900  26.578  12.505
35905W        W97216  15.716  38.371   4.824
35906W        W97217  35.379   4.944  10.575
35907W        W97218   6.252   8.224   3.247
35908W        W97219  42.371  39.025  12.893
35909W        W97220  24.991  12.754   0.945
35910W        W97221  22.505  19.057   3.378
35911W        W97222  40.828  14.319   0.912
35912W        W97223  38.017  25.711   2.210
35913W        W97224  40.360  22.226   3.296
35914W        W97225   2.807   3.439  12.093
35915W        W97226  30.104  43.809   2.333
35916W        W97227  28.114  27.473  12.368
35917W        W97228   3.924  10.333   1.238
35918W        W97229  34.104  19.747   4.122
35919W        W97230  42.875  12.855  14.420
35920W        W97231  21.219   8.227   3.374
35921W        W97232  16.758  37.554  11.536
35922W        W97233  12.343   8.315  14.498
35923W        W97234   3.222  10.361   3.719
35924W        W97235  35.990  32.633   0.424
35925W        W97236   1.420  41.981  11.602
35926W        W97237  31.021  28.631   1.239
35927W        W97238  26.074  18.714  14.351
35928W        W97239  37.522  27.068  11.092
35929W        W97240  31.150  37.859  14.763
35930W        W97241  21.701  37.508   5.633
35931W        W97242  25.090  21.196  12.026
35932W        W97243   4.272  26.607  11.381
35933W        W97244  12.821  42.793  12.992
35934W        W97245  38.550  27.056  14.908
35935W        W97246  39.937  16.640   4.128
35936W        W97247  40.436  37.560   0.333
35937W        W97248  28.036  25.024  11.940
35938W        W97249  36.045  26.025   0.342
35939W        W97250  31.965  14.122   4.211
35940W        W97251  28.993  39.444  12.892
35941W        W97252  26.551  27.082   3.755
35942W        W97253   9.741  40.875   3.776
35943W        W97254  41.865  30.087   4.784
35944W        W97255   2.795   5.834  11.531
35945W        W97256  19.115  30.987  14.432
35946W        W97257  26.673   0.363  11.583
35947W        W97258  36.846  40.915   4.133
35948W        W97259  18.756  37.521   0.280
35949W        W97260  18.226  22.680  12.899
35950W        W97261  24.197  33.598  12.911
35951W        W97262  15.185   3.845  12.011
35952W        W97263  38.433  20.046  13.935
35953W        W97264  38.007  36.932   1.832
35954W        W97265  35.574   3.724  14.903
35955W        W97266   0.885  26.101  13.467
35956W        W97267  19.734   2.860   0.922
35957W        W97268  23.704  36.962  10.455
35958W        W97269  42.434  30.980  11.939
35959W        W97270  20.623  38.074   2.762
35960W        W97271  14.829   1.828   3.817
35961W        W97272  28.593  17.275   9.979
35962W        W97273   1.303  18.080  11.916
35963W        W97274  44.910  17.197  12.482
35964W        W97275  11.356  36.939   4.758
35965W        W97276  12.359   8.826   4.726
35966W        W97277  40.388  17.557  11.423
35967W        W97278  26.548  10.641   4.812
35968W        W97279  17.568  15.799  13.534
35969W        W97280  14.715   0.457  12.870
35970W        W97281   4.321  40.936   4.802
35971W        W97282  38.912   4.435  11.386
35972W        W97283   9.224   3.335   3.217
35973W        W97284  24.121  12.678   0.298
35974W        W97285  17.563  23.014   2.687
35975W        W97286  34.953  34.439   3.857
35976W        W97287  42.893   2.272   3.384
35977W        W97288  22.054  29.453  12.880
35978W        W97289   0.814  24.218   1.790
35979W        W97290  28.032   9.302  14.952
35980W        W97291  25.001  15.821   2.201
35981W        W97292   2.748  29.922   1.825
35982W        W97293  27.447  15.813   1.434
35983W        W97294   5.928  34.422  11.421
35984W        W97295   5.371  21.748  12.426
35985W        W97296   7.292  25.011  13.547
35986W        W97297  20.119  32.412  12.475
35987W        W97298  43.882  26.674  13.522
35988W        W97299  42.974  37.521   2.775
35989W        W97300  33.563  23.692   1.373
35990W        W97301  16.737  18.235   4.638
35991W        W97302   7.729  28.591   2.188
35992W        W97303  39.815  33.525  13.849
35993W        W97304  37.514  18.553  11.932
35994W        W97305   1.776  28.443  10.912
35995W        W97306  31.985  13.112   1.755
35996W        W97307  37.954  10.245   1.341
35997W        W97308   2.767  36.961  11.957
35998W        W97309  17.293   9.154   0.868
35999W        W97310   9.155  26.603  14.780
36000W        W97311   9.763  44.001   1.911
36001W        W97312  30.611  18.063  14.854
36002W        W97313   2.888  43.456   4.626
36003W        W97314  30.566  11.818  14.359
36004W        W97315  15.190  11.835   2.354
36005W        W97316  33.892   2.288  14.785
36006W        W97317   3.728  28.463   2.775
36007W        W97318  12.654   5.886   4.185
36008W        W97319  42.336  30.041   2.264
36009W        W97320  20.234  40.983   2.351
36010W        W97321  31.561   7.772   3.333
36011W        W97322  33.396  35.572  12.547
36012W        W97323  24.989  23.133   1.789
36013W        W97324  26.113  26.098  13.966
36014W        W97325  28.543   0.855   4.754
36015W        W97326  17.296  39.379  10.542
36016W        W97327  24.634  35.045   4.222
36017W        W97328   9.882  26.105  13.325
36018W        W97329  16.665  40.001  14.352
36019W        W97330  41.458   2.418   2.353
36020W        W97331   2.369  29.656   4.326
36021W        W97332  12.759  29.952  10.933
36022W        W97333  43.817  42.368   4.270
36023W        W97334  34.979  15.315  12.560
36024W        W97335  23.214  10.301   4.237
36025W        W97336  10.233  22.229   3.803
36026W        W97337  39.406  11.841  14.981
36027W        W97338  16.225  41.383  13.896
36028W        W97339  30.039  15.097  11.408
36029W        W97340  41.947  13.660  10.441
36030W        W97341   1.879  36.952   2.241
36031W        W97342   7.793  26.695  10.922
36032W        W97343   5.877  37.868  14.409
36033W        W97344   9.826   7.338  13.942
36034W        W97345  44.399  18.709   0.942
36035W        W97346  39.005  15.636  10.087
36036W        W97347  35.854  19.211   4.303
36037W        W97348  23.200  26.025   1.432
36038W        W97349  23.093   3.922   4.835
36039W        W97350  26.644  41.876  11.585
36040W        W97351   9.337  43.480   3.325
36041W        W97352  12.742  43.769  10.998
36042W        W97353   7.909  14.629  12.856
36043W        W97354   2.764  26.008  11.924
36044W        W97355  18.706  28.086   4.602
36045W        W97356  35.022  43.283   4.689
36046W        W97357   8.712  37.891   4.118
36047W        W97358  38.864  13.690   3.756
36048W        W97359  21.522  38.002  11.018
36049W        W97360  36.886  16.636  12.565
36050W        W97361   0.300  17.749  11.006
36051W        W97362  25.635  43.377   1.855
36052W        W97363  28.177  10.303   2.854
36053W        W97364  42.478   8.402   4.672
36054W        W97365   8.198  34.442   1.697
36055W        W97366   3.273  21.112   5.223
36056W        W97367  16.173  11.773   1.216
36057W        W97368  30.100  22.140  13.350
36058W        W97369  13.163  15.592   2.359
36059W        W97370  33.085  31.525   4.301
36060W        W97371   8.336  39.467  12.395
36061W        W97372  11.754  17.297  10.114
36062W        W97373  26.032  34.959  12.517
36063W        W97374   8.655   4.443  13.431
36064W        W97375   9.206   1.924   1.704
36065W        W97376  33.036  38.956  13.975
36066W        W97377  11.646  32.001  10.487
36067W        W97378  10.335  15.088   0.761
36068W        W97379  39.390  43.423  13.525
36069W        W97380   1.239  30.082   3.278
36070W        W97381  13.334  44.814  13.413
36071W        W97382   6.274  30.098   3.871
36072W        W97383  32.950  42.015  13.526
36073W        W97384  12.793  12.337  12.418
36074W        W97385  20.580  18.681   3.772
36075W        W97386   8.778  22.998  12.567
36076W        W97387  39.882  14.667   0.316
36077W        W97388  10.197  41.937  10.556
36078W        W97389  31.048  29.176  11.493
36079W        W97390  36.987  26.088  14.808
36080W        W97391  10.726   7.767   4.205
36081W        W97392   0.907  12.239  13.900
36082W        W97393  12.193  21.560   3.786
36083W        W97394  18.586  30.109  14.330
36084W        W97395  32.010  33.523  12.948
36085W        W97396  40.403   3.744   1.935
36086W        W97397  19.595  15.277   4.812
36087W        W97398  31.564  30.529  11.575
36088W        W97399  34.489  28.174   1.773
36089W        W97400  11.685  15.236   3.176
36090W        W97401  12.834  41.789  11.974
36091W        W97402  38.875  40.985  14.449
36092W        W97403  36.442  29.946  11.971
36093W        W97404  17.087  35.444   4.116
36094W        W97405  26.539   9.669  10.121
36095W        W97406  25.592  25.966   4.265
36096W        W97407   6.914   0.360   4.813
36097W        W97408  25.594  16.232  12.973
36098W        W97409   7.685  28.161  10.134
36099W        W97410   8.328   0.425   0.750
36100W        W97411  21.547   4.847  11.422
36101W        W97412  18.761  12.197  13.862
36102W        W97413  32.529  13.784   1.241
36103W        W97414  21.737  40.803   0.333
36104W        W97415  39.054   2.459   9.969
36105W        W97416  32.543  33.026   4.616
36106W        W97417  38.957  41.010   3.871
36107W        W97418   8.275   7.678   1.335
36108W        W97419  39.344   7.688   2.791
36109W        W97420  16.776   4.412  12.974
36110W        W97421  17.232   0.798  14.895
36111W        W97422   7.263   4.206   2.812
36112W        W97423  10.299  44.839   2.828
36113W        W97424  15.800  39.014  13.853
36114W        W97425  41.967  36.385  11.395
36115W        W97426  36.933  27.640   2.338
36116W        W97427   5.869   1.280   0.883
36117W        W97428  34.947  12.291  10.417
36118W        W97429  35.465   1.341  13.869
36119W        W97430  27.511  26.597  10.936
36120W        W97431  17.266  25.675   0.834
36121W        W97432  41.012  28.586   2.304
36122W        W97433  14.271   1.841   3.865
36123W        W97434   2.294  20.647  14.339
36124W        W97435   3.824  43.947   2.256
36125W        W97436  25.600  37.044  11.938
36126W        W97437  35.854  33.017   3.817
36127W        W97438  15.766  23.497  13.960
36128W        W97439  23.526   9.738  13.038
36129W        W97440   2.816  40.936   2.241
36130W        W97441  20.197   6.754  11.565
36131W        W97442  30.061  17.579   2.307
36132W        W97443  39.479  30.581  11.923
36133W        W97444  40.890  44.791  13.418
36134W        W97445  44.891  13.715  11.072
36135W        W97446   4.284  12.805   1.445
36136W        W97447  27.050  31.094   5.093
36137W        W97448  36.559  23.604   4.698
36138W        W97449  13.694  11.363  13.547
36139W        W97450  41.994  33.594  11.586
36140W        W97451  38.048  11.248  10.445
36141W        W97452  22.654  13.323  12.421
36142W        W97453   2.852  22.724   4.294
36143W        W97454  37.524  34.875  12.552
36144W        W97455  34.071   6.814  10.554
36145W        W97456   3.300   7.801  14.392
36146W        W97457  38.509  40.430   0.946
36147W        W97458  21.730  43.421   2.743
36148W        W97459  32.961   5.797  13.938
36149W        W97460  17.284  28.090   3.870
36150W        W97461  42.806  34.046   1.418
36151W        W97462   8.843   4.446  12.536
36152W        W97463  32.958   4.731  11.383
36153W        W97464  35.366  24.983   2.738
36154W        W97465  25.991  19.592  11.479
36155W        W97466  11.317  33.611  12.077
36156W        W97467  27.553  30.553  12.875
36157W        W97468  36.982   4.747   3.693
36158W        W97469   1.755  35.572   3.654
36159W        W97470  23.495  13.834  12.840
36160W        W97471  10.182  30.976   1.316
36161W        W97472  26.991  40.891  12.901
36162W        W97473  29.629  37.573  14.817
36163W        W97474  41.470   6.681  10.510
36164W        W97475   8.188  38.894  10.410
36165W        W97476   9.737  14.688   0.777
36166W        W97477  18.734   9.863  14.380
36167W        W97478  32.075   0.893  11.079
36168W        W97479  13.771  36.477   2.853
36169W        W97480  29.098  23.515  12.859
36170W        W97481  27.519   6.914  13.521
36171W        W97482  16.185  12.224  13.422
36172W        W97483  22.738  43.421  11.560
36173W        W97484   9.151  30.133   2.364
36174W        W97485  15.169  37.418   3.646
36175W        W97486  31.914  39.497  13.847
36176W        W97487   2.469   2.957   4.780
36177W        W97488  29.433  21.250  10.917
36178W        W97489  10.315  12.206  11.108
36179W        W97490  43.308  14.712   2.859
36180W        W97491  41.538   8.387   2.900
36181W        W97492  40.429  29.546  14.408
36182W        W97493  18.187  27.663   2.695
36183W        W97494  30.911  26.496   1.418
36184W        W97495  11.346  22.675   0.289
36185W        W97496  29.598   5.310  12.429
36186W        W97497  29.569  31.459  10.475
36187W        W97498  27.974  36.900   2.860
36188W        W97499  11.857   9.205   2.814
36189W        W97500   6.406  33.055  12.470
36190W        W97501   6.822  14.631  12.422
36191W        W97502   3.215   5.891  13.958
36192W        W97503  33.618  16.614  10.007
36193W        W97504  35.484  40.798   0.390
36194W        W97505  19.575  32.530   2.737
36195W        W97506  30.937  14.247  11.880
36196W        W97507  17.208  28.618  10.042
36197W        W97508  20.104   8.685   3.299
36198W        W97509  33.121  21.047   4.337
36199W        W97510  34.905  13.602  14.382
36200W        W97511  32.120  44.374   2.383
36201W        W97512  21.555  43.347  10.430
36202W        W97513  20.698  37.502   1.786
36203W        W97514  43.856  20.768  12.407
36204W        W97515  27.586  32.606   2.773
36205W        W97516   0.375  24.528  10.451
36206W        W97517  37.528  40.541  11.051
36207W        W97518  24.021  41.845   2.337
36208W        W97519  21.688  41.802   1.409
36209W        W97520  27.665  26.984   0.957
36210W        W97521  35.500  37.866  14.480
36211W        W97522  23.110  18.588  12.951
36212W        W97523   8.855  27.457   3.168
36213W        W97524  32.091  40.934  11.918
36214W        W97525  13.730  12.630  12.027
36215W        W97526  12.853  28.041  12.530
36216W        W97527  40.411  23.700   2.365
36217W        W97528   2.778  33.384  10.603
36218W        W97529  22.059  18.586   3.343
36219W        W97530  32.040  19.109   1.788
36220W        W97531   3.389  30.072   0.929
36221W        W97532  29.543   5.726  11.417
36222W        W97533  19.576  15.604  12.505
36223W        W97534  43.481  29.154  14.411
36224W        W97535  29.521   0.256   3.170
36225W        W97536  15.612  41.993  10.570
36226W        W97537  33.483  28.932  10.624
36227W        W97538   3.338  11.301   4.253
36228W        W97539  34.387  10.866  11.511
36229W        W97540  43.810  16.680  13.367
36230W        W97541  20.260  11.187   0.785
36231W        W97542  17.604  17.071   9.936
36232W        W97543   5.276   7.351   0.416
36233W        W97544  40.948  13.822   1.913
36234W        W97545  35.359  12.245  12.942
36235W        W97546  26.639  11.820  14.995
36236W        W97547   3.728  43.972   3.656
36237W        W97548  41.890   3.366   0.348
36238W        W97549  41.471   3.231   1.903
36239W        W97550  31.471  34.904  10.930
36240W        W97551  11.819   6.385   1.894
36241W        W97552  19.582  34.885  10.980
36242W        W97553  25.614  32.628  14.438
36243W        W97554  15.732  31.153   0.307
36244W        W97555   6.406  29.440  10.451
36245W        W97556  16.571  43.512  14.957
36246W        W97557  30.644   2.867   0.770
36247W        W97558  40.000  24.530   0.830
36248W        W97559  17.575   9.251  12.031
36249W        W97560  32.432  44.920  10.612
36250W        W97561   5.375  40.896   3.638
36251W        W97562  22.714  21.644   4.339
36252W        W97563  43.901  10.198   0.796
36253W        W97564  41.498   5.878  12.057
36254W        W97565  36.489  12.238   0.296
36255W        W97566  30.414   4.345  12.575
36256W        W97567  30.027  25.061  11.608
36257W        W97568  18.216   2.303   4.726
36258W        W97569  39.050  14.737   3.704
36259W        W97570  39.916  11.830   0.947
36260W        W97571   9.767  28.517   4.311
36261W        W97572  39.951  10.218   2.794
36262W        W97573  22.179  38.066   3.194
36263W        W97574  24.668  15.609   0.783
36264W        W97575  13.730  27.446  14.761
36265W        W97576   7.275  28.596  10.433
36266W        W97577  10.268  21.065  10.137
36267W        W97578   9.771   5.926  14.515
36268W        W97579  25.625  41.995   4.716
36269W        W97580  37.529   0.858  10.947
36270W        W97581   6.830  21.601   0.398
36271W        W97582  31.992  12.641   2.818
36272W        W97583  25.984  34.075   0.880
36273W        W97584  34.596  27.951  13.800
36274W        W97585  42.906  37.963  12.491
36275W        W97586  18.724  25.632   3.324
36276W        W97587   2.344  24.052  11.973
36277W        W97588   1.469  27.564  12.535
36278W        W97589  40.894  32.886   1.280
36279W        W97590  37.408  14.686  13.504
36280W        W97591  34.416  39.405  13.547
36281W        W97592   1.807  35.419   1.440
36282W        W97593  36.457  35.878   3.353
36283W        W97594  23.628  44.849  13.919
36284W        W97595  29.074  12.144  11.040
36285W        W97596  36.075   1.901  11.541
36286W        W97597  39.881   3.860   3.795
36287W        W97598  11.839   3.249   1.887
36288W        W97599   9.781  14.315  11.940
36289W        W97600  25.114  23.497  10.120
36290W        W97601   5.780   6.701  14.381
36291W        W97602  25.474   9.834   2.310
36292W        W97603  20.716  11.145  11.926
36293W        W97604  30.440  44.866   1.707
36294W        W97605   7.242   2.823   1.257
36295W        W97606  15.264  27.026   0.410
36296W        W97607   9.809  30.098   3.689
36297W        W97608  43.344   2.390   0.433
36298W        W97609  14.793  13.298   0.408
36299W        W97610  18.721  34.424   1.825
36300W        W97611  14.814   5.225   3.157
36301W        W97612  16.753  16.739  11.414
36302W        W97613  33.997  19.740  13.489
36303W        W97614  37.422   7.714   2.783
36304W        W97615  43.929  38.339   3.340
36305W        W97616   0.812  39.037   0.408
36306W        W97617  19.233  13.784   5.796
36307W        W97618  21.046  40.874  14.029
36308W        W97619  44.340   9.809  10.573
36309W        W97620   4.264  22.568  11.473
36310W        W97621  20.754   3.937  11.381
36311W        W97622  31.145  26.115  10.604
36312W        W97623  33.510  26.003  12.043
36313W        W97624  12.191  11.755   0.471
36314W        W97625   3.787   5.349  10.634
36315W        W97626  34.913  20.560  11.957
36316W        W97627  18.160   0.946   4.207
36317W        W97628  19.758  31.561   4.711
36318W        W97629  39.879  22.564   3.865
36319W        W97630  28.144  18.636   0.840
36320W        W97631  30.941  41.990  11.069
36321W        W97632   7.902  23.692   2.828
36322W        W97633  39.527  37.490  12.379
36323W        W97634   8.350  32.069   3.214
36324W        W97635  41.011  33.544   1.362
36325W        W97636  16.290  13.768   2.770
36326W        W97637  18.633  36.953   2.761
36327W        W97638  31.947  23.180   3.669
36328W        W97639  21.706  37.069  10.151
36329W        W97640  33.594  17.235   2.709
36330W        W97641  38.889  36.046   0.368
36331W        W97642  22.140   3.214   3.637
36332W        W97643   9.245  29.120   4.215
36333W        W97644   7.378  30.932   2.708
36334W        W97645  11.818  32.441  10.456
36335W        W97646  17.135   9.335   2.801
36336W        W97647  39.830  22.576   0.840
36337W        W97648  41.965   1.367   3.201
36338W        W97649  41.346  23.623  10.620
36339W        W97650  34.895  40.909  12.421
36340W        W97651   4.847  14.796  12.423
36341W        W97652   9.837   9.256   4.135
36342W        W97653  43.901  20.256   2.346
36343W        W97654  33.582  23.623  14.468
36344W        W97655  26.138  10.203  12.862
36345W        W97656  37.532  43.825  10.956
36346W        W97657  43.821  29.643  13.981
36347W        W97658  33.085  20.059  13.374
36348W        W97659  12.154  42.841   1.806
36349W        W97660  43.315  11.220  11.992
36350W        W97661  21.662  35.470  12.956
36351W        W97662  28.068   1.853  12.078
36352W        W97663  38.398  25.614   3.781
36353W        W97664   0.483  44.393  11.395
36354W        W97665  39.495  20.722   3.272
36355W        W97666   3.872  10.247   2.731
36356W        W97667  40.896  43.507   0.244
36357W        W97668  26.010  22.136  12.543
36358W        W97669  28.519  17.605   3.185
36359W        W97670   3.250  16.227   3.642
36360W        W97671  19.740  38.871  13.949
36361W        W97672  25.498   2.915   4.806
36362W        W97673  34.386  16.659  13.024
36363W        W97674  38.877  20.579  14.783
36364W        W97675  16.642  28.945   4.706
36365W        W97676  17.613   3.359   4.729
36366W        W97677   9.684  43.360   2.866
36367W        W97678  12.289   8.196   0.779
36368W        W97679  41.986  23.229  13.456
36369W        W97680  17.744  11.658   3.306
36370W        W97681  26.534  13.828  14.923
36371W        W97682  25.635  16.634   4.290
36372W        W97683   0.283  40.032   0.751
36373W        W97684  13.176  23.703   2.706
36374W        W97685  34.020  26.693   3.688
36375W        W97686  22.055  22.101  13.422
36376W        W97687   8.215  33.510   1.810
36377W        W97688  30.132  25.984   1.716
36378W        W97689  23.603  23.714  10.593
36379W        W97690  16.247  19.137  13.025
36380W        W97691  25.975  27.594   0.440
36381W        W97692   1.926   5.282   4.243
36382W        W97693  38.442  39.903  12.876
36383W        W97694  31.627  24.043   0.294
36384W        W97695  26.085   7.377   0.243
36385W        W97696  33.480  34.102   3.262
36386W        W97697  37.895  23.099   2.274
36387W        W97698  10.696  14.258   0.445
36388W        W97699   2.352   2.462   0.915
36389W        W97700  13.331  25.663   1.874
36390W        W97701  43.022  25.107   2.694
36391W        W97702   5.796  31.432  13.397
36392W        W97703  24.003   3.923  12.444
36393W        W97704   7.666   0.294   2.347
36394W        W97705   4.375   1.731   2.712
36395W        W97706  15.801  40.450  14.963
36396W        W97707  26.614  44.316  13.937
36397W        W97708  24.976  16.107   4.319
36398W        W97709  24.569  44.975  14.998
36399W        W97710  30.141  10.267   2.372
36400W        W97711  41.341  31.117   5.148
36401W        W97712  21.700  29.527  13.913
36402W        W97713  33.980  41.323   4.173
36403W        W97714  14.191  14.785   0.453
36404W        W97715  25.166  43.837   1.724
36405W        W97716  34.538  38.026   0.447
36406W        W97717  44.308  31.582  13.434
36407W        W97718  14.813   1.419  12.025
36408W        W97719  27.654   1.286   4.814
36409W        W97720   8.800  15.612  13.892
36410W        W97721   6.348  21.249   1.916
36411W        W97722  30.090  32.549  10.951
36412W        W97723   7.413  14.197   2.226
36413W        W97724   0.351  25.501  10.624
36414W        W97725  33.088   8.256   3.235
36415W        W97726  16.131  23.055   5.197
36416W        W97727  44.942   1.461  12.007
36417W        W97728  43.945  37.958   1.365
36418W        W97729  44.006  41.986  12.575
36419W        W97730  34.414   3.792  10.616
36420W        W97731  10.786  25.993  14.395
36421W        W97732  28.142  28.642  10.981
36422W        W97733  33.411  11.837   1.858
36423W        W97734  12.269  35.910  13.498
36424W        W97735  40.504   5.216  13.823
36425W        W97736  20.605  24.110  13.851
36426W        W97737  31.114   0.428   4.656
36427W        W97738  28.989  36.366   0.343
36428W        W97739  18.721  11.673   4.731
36429W        W97740  33.425  34.086  13.384
36430W        W97741  24.541  27.038  10.522
36431W        W97742  31.061  15.638   2.779
36432W        W97743  34.911  44.333  10.084
36433W        W97744  39.500  42.398  13.362
36434W        W97745   9.256  42.915  13.845
36435W        W97746  34.914  37.403   3.343
36436W        W97747  28.940  12.841  11.032
36437W        W97748   6.777  17.237  12.408
36438W        W97749  40.051  31.909   3.656
36439W        W97750  40.986   5.848  12.834
36440W        W97751  23.086  25.658   0.477
36441W        W97752  43.787  42.384  12.906
36442W        W97753  34.867   4.294   1.898
36443W        W97754  27.151   5.370   0.776
36444W        W97755  30.432  37.411   3.236
36445W        W97756  34.402   9.265   1.765
36446W        W97757  11.295  41.294  14.448
36447W        W97758  13.108   8.745   3.208
36448W        W97759  24.011  36.939   1.395
36449W        W97760  32.990  28.981   2.852
36450W        W97761   1.326  22.034  13.935
36451W        W97762  24.103  37.558   3.698
36452W        W97763  18.257   4.397   0.785
36453W        W97764  42.283   9.859   1.896
36454W        W97765  38.986  11.659   5.185
36455W        W97766  13.106  12.662  10.451
36456W        W97767  44.796  22.135  14.890
36457W        W97768  23.065  42.795  11.030
36458W        W97769   5.359  22.744   3.838
36459W        W97770  18.673  34.076  12.026
36460W        W97771  14.619   3.341  11.958
36461W        W97772   8.281  33.558  10.941
36462W        W97773  38.888   3.942  13.978
36463W        W97774  13.329  32.126   0.885
36464W        W97775  29.994  26.017  13.968
36465W        W97776  37.508  42.914  11.388
36466W        W97777   8.754  31.446   1.835
36467W        W97778  39.903  14.158   1.395
36468W        W97779  29.062  16.223  14.437
36469W        W97780  38.848  40.326   1.294
36470W        W97781  40.026  35.019   1.385
36471W        W97782  38.334  39.925  14.333
36472W        W97783  11.257  14.757   0.945
36473W        W97784  40.933  27.569  13.445
36474W        W97785  44.881  30.986   1.449
36475W        W97786  13.838  22.160  11.981
36476W        W97787  10.242  10.795  13.859
36477W        W97788  20.064  20.667   1.262
36478W        W97789  19.741  34.543  10.040
36479W        W97790  36.431  12.229  14.313
36480W        W97791  31.623  35.007   1.777
36481W        W97792  40.509  18.264   3.767
36482W        W97793   0.942   9.776  11.909
36483W        W97794  12.343  19.569  11.380
36484W        W97795  40.981   9.157  14.314
36485W        W97796  35.896   3.807   2.883
36486W        W97797  32.109  23.604   2.670
36487W        W97798  10.824  33.494  11.520
36488W        W97799  17.221  30.482  13.361
36489W        W97800  12.356  37.059   2.296
36490W        W97801  19.266  39.458  11.957
36491W        W97802  14.712  17.572  12.836
36492W        W97803  29.169  37.468   2.680
36493W        W97804   5.869   0.492  12.367
36494W        W97805  19.244   7.397  11.121
36495W        W97806  43.276  24.152  12.418
36496W        W97807  44.762  26.148   0.365
36497W        W97808   0.826  13.833  13.863
36498W        W97809  27.021   3.332  11.978
36499W        W97810  16.789  18.637   5.243
36500W        W97811  24.980  12.798  11.538
36501W        W97812  27.079  42.795   0.435
36502W        W97813  28.485   5.336  13.313
36503W        W97814  27.016  36.045   1.299
36504W        W97815   5.769  19.560  12.408
36505W        W97816   5.815  12.142  10.546
36506W        W97817   3.765   3.326  10.467
36507W        W97818  16.746  38.908   3.679
36508W        W97819  29.527  36.092   0.347
36509W        W97820   9.339  30.493  11.014
36510W        W97821  40.995   8.761   2.186
36511W        W97822  40.361  38.479  10.423
36512W        W97823  33.420  41.402  10.111
36513W        W97824  36.922  39.420  13.013
36514W        W97825  27.526  44.862  14.925
36515W        W97826   1.467  18.185  14.789
36516W        W97827  20.607   1.378  12.568
36517W        W97828  11.201  18.097   4.771
36518W        W97829  44.000  17.238   4.235
36519W        W97830  33.036   2.470  14.977
36520W        W97831  44.399  20.265  13.825
36521W        W97832  14.589  24.217   9.960
36522W        W97833  21.629  12.760  11.105
36523W        W97834  32.612   7.860  14.296
36524W        W97835  30.484  42.833   0.886
36525W        W97836   8.849  32.081   1.279
36526W        W97837  13.350  41.339  13.358
36527W        W97838  13.825  30.649  10.519
36528W        W97839  37.579   2.774  13.031
36529W        W97840  24.047  43.307   4.659
36530W        W97841  32.611  13.289   0.804
36531W        W97842   7.275  44.855  11.880
36532W        W97843  20.693   8.764   2.286
36533W        W97844   2.875  13.177  11.503
36534W        W97845  23.117   8.816   0.875
36535W        W97846  21.093  17.112  10.009
36536W        W97847   1.891  11.150  12.049
36537W        W97848  25.133  10.248   1.254
36538W        W97849   9.869  25.010   2.218
36539W        W97850  28.167  20.201   4.778
36540W        W97851  44.850  42.004  14.769
36541W        W97852  23.996  29.151  11.862
36542W        W97853  16.664  36.510  14.408
36543W        W97854  32.921  36.906  10.517
36544W        W97855  17.198   5.229  10.965
36545W        W97856  32.999  39.406  10.590
36546W        W97857  16.117  34.098   2.708
36547W        W97858  24.985   1.411   0.867
36548W        W97859  10.187  41.500  10.602
36549W        W97860  15.635  36.480  12.403
36550W        W97861   5.787  15.148  10.032
36551W        W97862  32.420  21.584  13.944
36552W        W97863   5.381  25.121  12.355
36553W        W97864  28.077  38.895   2.395
36554W        W97865  31.921  26.591  11.414
36555W        W97866  20.657  23.214   3.200
36556W        W97867   8.751  37.534   1.764
36557W        W97868  17.756  44.355  13.357
36558W        W97869  38.914   2.279  12.069
36559W        W97870  40.497  31.525   2.697
36560W        W97871  28.084  33.967  13.027
36561W        W97872  33.938  32.081  13.004
36562W        W97873  14.645  30.521  11.096
36563W        W97874   7.713  33.964   1.301
36564W        W97875  28.663   7.742  13.029
36565W        W97876   8.731  43.770  13.354
36566W        W97877  14.171  37.984  10.606
36567W        W97878  33.606  12.252  12.826
36568W        W97879  27.577   0.385  12.054
36569W        W97880  13.144  37.394  14.446
36570W        W97881  36.849  20.214  13.521
36571W        W97882  38.015  17.112  10.906
36572W        W97883   6.269   2.775  14.426
36573W        W97884  20.622  12.295   2.691
36574W        W97885  23.144  37.371   1.385
36575W        W97886  21.168  31.596   9.949
36576W        W97887   6.426  12.275   1.265
36577W        W97888  31.448  44.406   3.208
36578W        W97889  17.128  13.282  10.577
36579W        W97890   8.336  36.962   0.905
36580W        W97891   4.395  34.585  12.087
36581W        W97892  39.060  34.992   0.354
36582W        W97893  16.312  23.509  14.280
36583W        W97894   4.864  43.926  13.987
36584W        W97895  24.684  14.726  11.968
36585W        W97896  32.587   2.330  14.390
36586W        W97897  14.151   5.374   3.739
36587W        W97898  38.540  11.132  12.928
36588W        W97899  24.518  16.184   0.277
36589W        W97900  27.127  22.746  13.829
36590W        W97901  35.502   0.924   2.417
36591W        W97902  41.914  43.467   3.682
36592W        W97903   6.696   1.936  14.971
36593W        W97904  34.385  16.144  11.383
36594W        W97905   9.765  12.162  14.476
36595W        W97906   6.856  35.417   2.664
36596W        W97907  33.447  29.666   3.305
36597W        W97908  16.130   9.285   3.319
36598W        W97909  26.169   7.753   1.438
36599W        W97910  24.018  17.227   5.289
36600W        W97911  28.459  14.126   0.349
36601W        W97912  35.018  19.676  10.419
36602W        W97913  28.631  14.760   0.435
36603W        W97914  44.914  43.867   4.295
36604W        W97915  14.756  12.215  12.565
36605W        W97916  31.951  31.017  14.841
36606W        W97917  24.088  20.722   3.235
36607W        W97918   6.915  41.408   3.847
36608W        W97919  13.248   0.858  11.956
36609W        W97920  10.730  24.109   0.392
36610W        W97921   9.327   6.749   1.712
36611W        W97922  28.964   3.275   1.745
36612W        W97923  18.560   0.372   3.174
36613W        W97924   4.843   8.208  12.421
36614W        W97925  43.317  14.247   0.735
36615W        W97926  40.003  12.707   4.153
36616W        W97927  25.702  14.282   2.689
36617W        W97928  22.141   3.784   3.727
36618W        W97929  25.477  12.314  11.472
36619W        W97930  33.894  22.564  10.464
36620W        W97931  44.954  10.767  12.579
36621W        W97932   9.321  12.727  13.385
36622W        W97933   1.880  16.749  11.529
36623W        W97934  22.061   6.341  14.921
36624W        W97935   1.412  15.246   3.636
36625W        W97936  35.917  44.382   0.784
36626W        W97937  17.127  25.124   3.721
36627W        W97938  35.491  30.920  14.020
36628W        W97939  11.326   7.272  12.507
36629W        W97940   4.336   1.254  11.909
36630W        W97941  43.771   0.480   4.825
36631W        W97942  39.499  21.249  14.815
36632W        W97943   1.936   0.254   2.842
36633W        W97944   9.225  29.543   1.444
36634W        W97945  24.191  12.350   0.482
36635W        W97946  38.019  14.231  12.946
36636W        W97947  20.620  15.184  10.017
36637W        W97948  33.408   8.889   3.816
36638W        W97949  18.619  34.927   3.678
36639W        W97950  42.844  22.671  11.937
36640W        W97951  35.399  18.552  12.040
36641W        W97952   5.918  40.855   3.817
36642W        W97953  23.562   6.740   3.749
36643W        W97954   7.700   3.906  13.399
36644W        W97955  15.785  41.294  11.977
36645W        W97956  25.070   7.405  11.547
36646W        W97957  31.089   0.755  13.831
36647W        W97958   0.306  30.931   4.292
36648W        W97959   3.928  38.052   0.791
36649W        W97960  14.674  41.397   0.404
36650W        W97961  31.958  12.206  12.930
36651W        W97962  42.348  38.326  10.623
36652W        W97963  36.440  44.889  12.445
36653W        W97964   3.728  33.590  14.863
36654W        W97965  17.187  24.977  13.482
36655W        W97966  28.015  17.681  14.987
36656W        W97967  10.770  12.659  14.866
36657W        W97968  12.692  11.809  13.828
36658W        W97969  32.887  26.604  11.404
36659W        W97970  32.428   0.850  10.968
36660W        W97971   2.346   1.892  14.411
36661W        W97972  19.193  26.516  11.065
36662W        W97973  44.421  31.089   2.739
36663W        W97974  15.645   8.891   2.317
36664W        W97975  44.843  12.304   1.358
36665W        W97976   0.854  15.753  14.001
36666W        W97977  16.096  15.147   0.952
36667W        W97978   4.435  43.828  12.377
36668W        W97979  28.599  13.245   4.702
36669W        W97980   1.483  31.069  14.301
36670W        W97981  14.645  33.892  10.521
36671W        W97982  36.028  17.130   0.276
36672W        W97983   5.861  25.077   3.848
36673W        W97984  29.993  33.432  12.406
36674W        W97985  20.041  22.650   4.235
36675W        W97986  22.639  15.304   4.210
36676W        W97987  23.143  17.194  11.381
36677W        W97988   2.406  42.899   4.734
36678W        W97989  22.577  33.598  13.802
36679W        W97990  27.453   0.368  11.442
36680W        W97991  25.473  24.137   0.811
36681W        W97992  41.456  32.634   1.257
36682W        W97993  41.974  15.154   2.234
36683W        W97994  20.212  44.285  10.519
36684W        W97995  20.763   5.729  12.464
36685W        W97996  28.515  10.789   3.649
36686W        W97997  19.193  35.946  11.598
36687W        W97998  35.852  22.154   3.817
36688W        W97999  36.047   9.689   2.724
36689W        W98000  18.227  29.941   2.394
36690W        W98001  21.533  41.381  13.959
36691W        W98002  24.485  28.009   4.202
36692W        W98003  20.106  33.980  11.053
36693W        W98004   6.680   2.249   4.832
36694W        W98005  38.840  37.477  11.575
36695W        W98006   5.747   4.373  13.030
36696W        W98007  41.867  43.312   3.308
36697W        W98008   9.344   9.305   2.311
36698W        W98009  24.512  35.012   2.698
36699W        W98010  21.607   2.464   0.282
36700W        W98011  44.370  26.014  12.371
36701W        W98012   0.417   7.799   2.677
36702W        W98013  31.471  29.464   4.207
36703W        W98014  30.467  32.419  11.962
36704W        W98015  39.452   4.289  14.965
36705W        W98016   8.311  11.641   1.759
36706W        W98017  23.507  14.330  11.083
36707W        W98018   3.461  36.068  14.495
36708W        W98019  30.000  29.554   1.449
36709W        W98020  38.359  22.557   4.196
36710W        W98021  40.474  26.109   4.158
36711W        W98022  26.584  39.044  12.460
36712W        W98023   3.288  25.687   2.233
36713W        W98024   1.238  16.613   1.298
36714W        W98025   9.796  18.770  12.519
36715W        W98026  37.896  34.043  12.049
36716W        W98027   0.814  29.126  10.014
36717W        W98028  24.636  21.026   4.762
36718W        W98029  39.947  28.663   1.428
36719W        W98030   7.296   5.231  13.950
36720W        W98031  39.977  38.419   3.171
36721W        W98032  17.630  15.820  14.024
36722W        W98033  23.667  32.463   3.682
36723W        W98034  18.548  41.949  14.326
36724W        W98035  40.824  21.142   1.746
36725W        W98036  41.913  22.730   1.239
36726W        W98037  36.085  29.561   1.773
36727W        W98038  40.463  40.356   4.679
36728W        W98039   1.898  16.670  11.029
36729W        W98040  37.509  23.224  11.032
36730W        W98041  36.011  18.269  14.481
36731W        W98042   5.328  35.085  13.482
36732W        W98043  39.377   3.847   2.899
36733W        W98044   1.765  39.320   4.197
36734W        W98045   3.427  29.438   0.823
36735W        W98046  33.030  26.072  13.870
36736W        W98047   1.948  29.662   4.339
36737W        W98048  41.968  34.051   0.356
36738W        W98049  35.057  19.146   1.436
36739W        W98050   4.351  43.802   2.252
36740W        W98051  36.990   6.346  14.482
36741W        W98052  37.474  36.872   1.770
36742W        W98053  33.906   2.325  10.895
36743W        W98054   3.851  19.643  14.434
36744W        W98055  22.026   0.277   3.778
36745W        W98056  24.157  27.511   1.895
36746W        W98057  17.690  27.007   4.695
36747W        W98058  31.571  37.462   1.391
36748W        W98059  21.135   9.670  10.440
36749W        W98060   9.734  20.641  10.470
36750W        W98061   9.156  23.611  10.423
36751W        W98062   2.298   6.761  11.421
36752W        W98063  18.092  23.642   4.250
36753W        W98064  30.147  25.484   4.154
36754W        W98065  44.262  20.110   1.830
36755W        W98066   3.759  39.427   4.290
36756W        W98067  13.646   6.752  11.590
36757W        W98068   9.738  20.263  12.907
36758W        W98069  25.674  34.489  12.538
36759W        W98070  31.987  44.000   1.891
36760W        W98071  28.990  20.058  11.038
36761W        W98072  16.596  28.085   3.290
36762W        W98073   2.260  42.026  11.545
36763W        W98074   7.300  31.031  14.309
36764W        W98075  24.231   3.348  11.985
36765W        W98076   4.705  27.526   4.632
36766W        W98077   5.870  42.868   4.747
36767W        W98078  35.973  18.222  11.978
36768W        W98079   0.416   3.800   1.725
36769W        W98080  10.326  44.322   2.754
36770W        W98081  29.946  17.154  14.876
36771W        W98082   0.320  17.607   3.270
36772W        W98083  30.433  34.889  14.005
36773W        W98084  43.808  33.539   0.877
36774W        W98085   9.836   1.276  12.485
36775W        W98086  40.839  24.164  14.367
36776W        W98087  33.921  28.567   3.158
36777W        W98088   0.378  28.471   4.295
36778W        W98089  31.525  26.049   1.317
36779W        W98090  34.042  40.485  12.891
36780W        W98091   8.872  10.632  13.501
36781W        W98092  40.805  14.611   3.684
36782W        W98093  28.076  38.429   1.777
36783W        W98094  34.543  21.614   4.128
36784W        W98095   3.829  20.169   4.695
36785W        W98096  10.240   8.246  11.921
36786W        W98097  41.980  23.563   9.943
36787W        W98098  23.073   1.467   1.427
36788W        W98099  32.495  14.194   3.708
36789W        W98100  37.418   7.772  11.482
36790W        W98101  37.883  32.581   2.897
36791W        W98102  10.212   2.894   2.216
36792W        W98103  14.326  12.199  10.424
36793W        W98104  43.779  11.749   3.859
36794W        W98105   7.188  35.537  10.633
36795W        W98106  21.034   1.481   2.312
36796W        W98107   8.680  10.278  11.501
36797W        W98108  10.353  37.409   4.242
36798W        W98109   8.271  44.287  13.831
36799W        W98110   0.954  13.715  14.393
36800W        W98111  24.151  30.572   4.789
36801W        W98112   9.686  37.982  12.412
36802W        W98113  21.681   2.875  10.644
36803W        W98114  20.622  32.414   2.292
36804W        W98115  11.136  19.567   0.764
36805W        W98116  44.871  23.590   1.282
36806W        W98117  31.583  19.260  14.384
36807W        W98118   6.888  29.989   4.129
36808W        W98119  30.443  39.519  11.542
36809W        W98120   0.345  19.632   2.283
36810W        W98121  43.001  28.992  10.097
36811W        W98122  42.871  37.506  14.317
36812W        W98123  17.686  32.522  12.840
36813W        W98124  31.127  42.914  14.404
36814W        W98125   2.358  40.396   0.833
36815W        W98126  44.390  25.558  11.578
36816W        W98127  11.307  19.582  11.007
36817W        W98128  10.345   2.741   0.421
36818W        W98129  19.195  43.850   3.795
36819W        W98130  31.909  36.991  10.905
36820W        W98131   4.736  15.707  11.462
36821W        W98132   0.438  29.592   1.324
36822W        W98133   0.464   1.894  13.518
36823W        W98134  40.398  10.802  11.942
36824W        W98135  37.968  42.922   1.926
36825W        W98136   3.382   5.403  11.966
36826W        W98137  43.428  17.724  12.559
36827W        W98138  11.257  11.755   1.814
36828W        W98139   5.225   4.903   0.739
36829W        W98140   2.459  22.132  10.573
36830W        W98141  11.634  16.602   2.399
36831W        W98142  15.225   3.303  14.853
36832W        W98143  16.161  35.034   4.261
36833W        W98144   9.264  34.469  13.014
36834W        W98145  37.382   2.426  14.355
36835W        W98146  21.581  24.694  13.468
36836W        W98147  40.860   4.204  11.081
36837W        W98148  17.211  12.634  14.448
36838W        W98149  40.929  27.129  10.907
36839W        W98150  36.354   1.447   0.906
36840W        W98151   8.803  31.611   1.249
36841W        W98152  10.738  22.006  13.513
36842W        W98153   4.848   9.834  12.555
36843W        W98154  11.628  41.494   2.392
36844W        W98155  39.529  11.205   2.785
36845W        W98156  18.652   4.342   4.153
36846W        W98157  23.984  14.167   3.813
36847W        W98158  11.285  11.189  10.552
36848W        W98159  20.623  23.050  12.976
36849W        W98160  31.035  44.471  14.447
36850W        W98161  27.662  35.981  13.001
36851W        W98162  27.109  36.023   5.234
36852W        W98163  11.846   5.711   1.708
36853W        W98164  32.413  11.167  14.386
36854W        W98165  38.962  37.393   2.232
36855W        W98166  18.234   8.832  10.601
36856W        W98167  12.660   7.390  11.064
36857W        W98168  23.148  37.898   3.363
36858W        W98169   4.444   3.887   4.152
36859W        W98170  32.058  35.855   2.816
36860W        W98171   4.784  24.075  13.827
36861W        W98172  34.951  43.973   1.211
36862W        W98173  33.046  38.353  10.641
36863W        W98174   5.699  10.185   2.413
36864W        W98175  10.370  43.811  12.923
36865W        W98176  15.102  22.229  12.446
36866W        W98177   1.932  19.750   4.747
36867W        W98178   0.278  28.544   1.255
36868W        W98179  33.029  29.014  11.995
36869W        W98180  40.421  44.452  14.884
36870W        W98181  29.611  33.418   4.244
36871W        W98182  35.564  28.634  13.956
36872W        W98183  11.150   4.736  12.410
36873W        W98184  21.091  35.358   4.707
36874W        W98185  20.685  24.525  13.394
36875W        W98186  32.135  41.941  14.028
36876W        W98187  27.965  40.901   0.353
36877W        W98188  33.461  32.465   3.764
36878W        W98189  38.399   4.442  11.863
36879W        W98190  38.883  39.425   1.918
36880W        W98191  25.680   1.946   1.776
36881W        W98192   0.911  37.901  14.002
36882W        W98193  36.532  44.435   1.728
36883W        W98194  24.571  20.635   4.338
36884W        W98195  42.789  22.066   1.745
36885W        W98196  14.135  20.689  14.865
36886W        W98197   3.455   2.415   3.297
36887W        W98198  31.580   9.215  11.946
36888W        W98199   4.288  12.317   3.666
36889W        W98200   7.883   8.846  13.484
36890W        W98201  23.636   2.383  11.419
36891W        W98202  30.078  34.511   4.251
36892W        W98203  30.560  33.534  14.457
36893W        W98204  30.494   4.746   2.809
36894W        W98205  23.052   1.935   0.286
36895W        W98206  34.567   6.768  14.439
36896W        W98207   4.308  23.229  11.006
36897W        W98208   6.824  14.617   9.571
36898W        W98209  25.054  16.077  14.339
36899W        W98210  12.296  25.079   2.202
36900W        W98211  13.195   3.799  11.969
36901W        W98212   7.253  24.724  10.582
36902W        W98213  25.625  32.944   1.832
36903W        W98214  41.794  26.082  13.397
36904W        W98215  31.511  35.905   4.325
36905W        W98216  37.561  34.881  14.769
36906W        W98217   7.731  14.740  11.986
36907W        W98218  31.556  41.960  12.899
36908W        W98219  41.920  25.116   4.609
36909W        W98220  42.325  32.927   1.909
36910W        W98221  41.534  41.003   1.323
36911W        W98222  11.775  10.341   0.754
36912W        W98223   8.870  18.132  14.971
36913W        W98224  33.481  35.939  11.044
36914W        W98225  33.464  30.012  10.405
36915W        W98226  15.628  39.418  10.999
36916W        W98227   1.878   0.973   2.832
36917W        W98228   0.355  43.828  14.437
36918W        W98229  15.656  22.700  13.367
36919W        W98230   1.756  17.144  13.532
36920W        W98231  14.335  39.454   1.764
36921W        W98232   1.399   2.234  14.837
36922W        W98233  13.137  12.159  13.410
36923W        W98234  10.151   4.345  11.573
36924W        W98235  32.918  30.970   2.813
36925W        W98236  25.141  34.504  13.508
36926W        W98237  13.600  31.429   0.871
36927W        W98238  11.783  29.536   3.251
36928W        W98239  42.370  44.971   0.739
36929W        W98240  32.023   6.681  10.958
36930W        W98241  18.270  44.455   0.245
36931W        W98242  44.991  25.187   0.421
36932W        W98243  14.194   0.481   3.330
36933W        W98244  28.058   7.811   1.849
36934W        W98245  38.995  37.502   3.283
36935W        W98246  38.509  40.830   3.377
36936W        W98247   3.774  10.355  13.314
36937W        W98248   2.923  24.667  12.512
36938W        W98249  39.922   6.268  13.050
36939W        W98250   1.419   6.710  11.469
36940W        W98251  43.820  31.523  10.947
36941W        W98252  19.646  27.990   2.341
36942W        W98253   6.763  20.251  13.914
36943W        W98254  14.642  12.853  14.510
36944W        W98255  36.970  31.049   1.697
36945W        W98256  15.642   6.293  14.363
36946W        W98257  38.881   0.387   2.254
36947W        W98258  21.246  21.201   2.854
36948W        W98259  42.427  39.339  10.905
36949W        W98260  27.688   6.837   0.260
36950W        W98261  23.620   8.731   3.147
36951W        W98262  13.618  14.793  14.015
36952W        W98263  43.955  14.602   3.238
36953W        W98264   8.342  43.335   3.825
36954W        W98265   5.739  22.036   3.757
36955W        W98266  24.644   5.342  12.948
36956W        W98267  15.204  12.132   2.401
36957W        W98268  26.054  16.088  14.307
36958W        W98269  33.596  30.160   3.279
36959W        W98270  18.055  20.645   1.880
36960W        W98271  41.502  38.427  14.304
36961W        W98272  39.878  22.026   1.277
36962W        W98273  17.636   1.395   4.833
36963W        W98274  13.635  26.044  12.557
36964W        W98275  18.122  13.769   2.262
36965W        W98276  19.128  11.338  14.887
36966W        W98277  16.598   9.155  14.503
36967W        W98278   0.439  42.310  10.889
36968W        W98279  15.266  27.179  13.428
36969W        W98280  12.231   6.880  13.446
36970W        W98281  40.336   7.224   3.695
36971W        W98282   5.902   4.894  13.902
36972W        W98283  28.998  38.418  13.965
36973W        W98284  25.481   8.256  10.471
36974W        W98285  33.090   7.415  14.966
36975W        W98286   0.787  25.679   0.469
36976W        W98287  23.589   3.711  11.601
36977W        W98288  42.389  35.920  11.031
36978W        W98289   1.280  34.540  13.865
36979W        W98290  34.536  14.650  12.537
36980W        W98291   4.884  18.130   0.270
36981W        W98292   2.322  23.029   4.267
36982W        W98293  10.878  28.120  11.886
36983W        W98294   1.936  33.412  12.963
36984W        W98295  20.607  25.070   2.730
36985W        W98296   3.323   2.823   2.890
36986W        W98297  36.505  35.099   0.950
36987W        W98298  17.766  11.333   0.942
36988W        W98299  14.232  19.696   2.883
36989W        W98300  38.854  33.611   1.850
36990W        W98301   8.283  32.954   1.302
36991W        W98302  34.118  43.778   0.787
36992W        W98303  13.783  21.123   3.342
36993W        W98304  25.152  32.636   2.903
36994W        W98305   2.434   2.281  13.029
36995W        W98306  43.787  42.878   0.380
36996W        W98307   0.743   3.856   3.869
36997W        W98308  23.640  31.940  14.416
36998W        W98309  23.633  30.001  14.968
36999W        W98310   9.380  24.508   1.403
37000W        W98311   4.234  18.241  14.322
37001W        W98312  36.477  12.787   9.962
37002W        W98313  26.021  32.537  13.020
37003W        W98314  35.108  20.754  14.968
37004W        W98315  34.990  15.212  13.472
37005W        W98316  28.520   6.288   2.763
37006W        W98317  11.653  36.560  12.570
37007W        W98318  12.147  41.372   1.831
37008W        W98319  24.230  11.762  14.340
37009W        W98320  35.937   8.862   4.638
37010W        W98321  26.990  17.151  13.916
37011W        W98322   4.205  15.237  13.523
37012W        W98323  14.682  43.935  11.066
37013W        W98324  30.933   9.161  12.576
37014W        W98325  17.302  43.968  11.576
37015W        W98326  35.500  27.653   4.251
37016W        W98327  40.378  32.631  10.557
37017W        W98328  26.962  18.620   0.278
37018W        W98329  30.543   2.948  13.969
37019W        W98330  16.111  44.276   3.632
37020W        W98331  26.701  36.909   4.212
37021W        W98332  23.229  18.574   0.408
37022W        W98333  38.443   2.746  12.859
37023W        W98334  27.682  15.682   3.209
37024W        W98335  41.460  32.129  13.989
37025W        W98336  26.072  26.016  12.974
37026W        W98337  16.098  40.455  13.977
37027W        W98338  26.628  24.509   4.147
37028W        W98339  43.785   8.718   4.738
37029W        W98340  19.142  29.988  11.532
37030W        W98341  26.610  42.281  14.886
37031W        W98342   2.944  37.084  10.547
37032W        W98343  34.493  30.985   3.329
37033W        W98344  13.255   3.457   9.448
37034W        W98345  24.202   2.304   0.751
37035W        W98346   3.805  19.111   0.350
37036W        W98347  26.109   8.663  12.900
37037W        W98348  11.675  29.099  11.460
37038W        W98349  16.587  18.601   3.363
37039W        W98350  37.067  27.179   3.319
37040W        W98351  25.549  24.615   4.621
37041W        W98352  40.809  40.407  11.888
37042W        W98353  16.097  42.351   0.369
37043W        W98354   8.829  44.340  14.349
37044W        W98355   0.951  20.030  14.966
37045W        W98356   8.851   4.236  11.855
37046W        W98357   4.712  22.734   2.685
37047W        W98358  18.582  38.555   5.742
37048W        W98359  23.627   7.283  13.807
37049W        W98360   8.847  26.626  13.931
37050W        W98361  26.962   2.368   3.630
37051W        W98362  40.421  39.404  12.354
37052W        W98363   1.818  31.454  14.394
37053W        W98364  31.510  10.776  11.954
37054W        W98365   3.819  34.869  13.456
37055W        W98366  41.464  29.668  13.469
37056W        W98367   7.186   8.180  10.459
37057W        W98368  43.301  20.696  12.377
37058W        W98369  24.720   3.316   0.962
37059W        W98370  23.082  16.139  13.523
37060W        W98371  44.967  25.552   2.710
37061W        W98372   6.183  30.455  10.588
37062W        W98373  40.373  14.707   2.254
37063W        W98374  13.632  32.050  12.458
37064W        W98375   7.750  42.988   0.483
37065W        W98376   6.855  15.218   0.284
37066W        W98377  35.911  26.053  13.382
37067W        W98378  11.628  23.985   5.196
37068W        W98379  22.531  42.819  14.978
37069W        W98380  26.952  42.425  13.832
37070W        W98381  36.997  11.852   2.393
37071W        W98382  31.908   0.910  12.506
37072W        W98383  19.725  20.203  14.946
37073W        W98384  16.156  35.876   4.306
37074W        W98385  32.583  26.597  10.531
37075W        W98386  32.626  35.529   3.279
37076W        W98387  11.631  23.113  13.878
37077W        W98388  25.117  14.165  10.414
37078W        W98389  15.672  12.698   3.682
37079W        W98390  23.664  27.480  12.476
37080W        W98391   7.737  43.331   2.672
37081W        W98392  38.877  36.419   4.317
37082W        W98393  26.517  38.458  12.433
37083W        W98394  37.535  41.848  10.465
37084W        W98395   8.784   1.803   3.361
37085W        W98396  29.119  31.474   2.845
37086W        W98397  11.847  39.874  14.320
37087W        W98398  18.097   8.263   4.617
37088W        W98399   3.243   7.173  10.407
37089W        W98400  27.546  12.695   1.825
37090W        W98401  40.370  16.101   4.724
37091W        W98402  30.472  43.413   0.803
37092W        W98403  39.017  14.743   2.273
37093W        W98404  28.456  43.802  11.387
37094W        W98405   8.192  11.190   2.196
37095W        W98406  14.672   6.902  12.530
37096W        W98407   4.243  36.900  12.966
37097W        W98408  30.164  35.871   4.756
37098W        W98409   3.260  13.822  14.375
37099W        W98410  29.090  41.396   1.858
37100W        W98411  18.785  29.064  10.512
37101W        W98412  23.712  43.394   3.667
37102W        W98413   1.472  13.761   0.343
37103W        W98414   1.964  16.589   2.258
37104W        W98415  44.925  26.057   1.428
37105W        W98416  44.343  13.250   2.316
37106W        W98417  17.178  21.252  11.390
37107W        W98418   2.350  16.210   1.840
37108W        W98419  19.754  13.332   1.798
37109W        W98420  42.289  40.534   1.883
37110W        W98421  36.063  20.243   0.258
37111W        W98422  11.242  20.185  13.836
37112W        W98423  17.098  38.349  13.024
37113W        W98424  30.525  25.130  11.033
37114W        W98425  43.389  44.836   0.735
37115W        W98426  30.659  29.038   1.865
37116W        W98427  17.267  13.789  14.332
37117W        W98428  36.883  37.407   0.954
37118W        W98429  24.562  25.050  14.018
37119W        W98430   1.474  28.577  13.434
37120W        W98431   0.441  31.443   2.401
37121W        W98432  25.514   0.399  10.559
37122W        W98433  13.145  14.288   5.293
37123W        W98434  10.636  20.677  14.434
37124W        W98435  10.309   4.741  10.056
37125W        W98436  43.878  23.096   2.687
37126W        W98437  35.362   8.294   3.800
37127W        W98438   9.169  12.223  14.380
37128W        W98439  36.579   0.874   1.878
37129W        W98440  34.575   3.921  14.965
37130W        W98441  32.447  41.323   2.246
37131W        W98442  40.351  23.105  10.954
37132W        W98443  30.032  26.989  11.407
37133W        W98444  28.012  27.944  14.349
37134W        W98445  27.643  38.363   2.750
37135W        W98446   3.844   1.765  10.935
37136W        W98447  44.971  14.165  14.338
37137W        W98448  38.044  20.034  11.396
37138W        W98449   6.365  37.365  12.395
37139W        W98450  28.099  28.934   0.940
37140W        W98451  10.729  24.192  12.530
37141W        W98452  38.425  18.631   2.222
37142W        W98453   0.306  26.115   2.405
37143W        W98454   9.771  24.605  10.972
37144W        W98455   4.751   7.390   2.827
37145W        W98456   3.243  15.728  10.638
37146W        W98457   8.250  29.127  13.345
37147W        W98458  39.907  38.958   2.266
37148W        W98459  37.858  22.735  13.049
37149W        W98460  25.509  44.381   2.309
37150W        W98461  20.193  10.260   1.313
37151W        W98462  44.326  13.779   2.402
37152W        W98463  36.036  39.381  14.905
37153W        W98464  18.569  28.441  13.385
37154W        W98465  24.019  29.006   2.398
37155W        W98466   9.319  25.088   4.209
37156W        W98467   1.303  28.561   4.663
37157W        W98468  20.582   1.297  12.867
37158W        W98469  25.013   9.696  11.422
37159W        W98470   1.741  17.092   1.862
37160W        W98471  30.571  10.346  13.952
37161W        W98472  28.452   8.202   3.153
37162W        W98473  12.186  35.066   0.840
37163W        W98474  32.598  23.036   2.361
37164W        W98475  28.622   9.183   0.816
37165W        W98476  44.448  29.624   4.147
37166W        W98477  35.422  20.196  10.510
37167W        W98478  14.247  32.028   4.703
37168W        W98479  12.228  23.721   4.140
37169W        W98480  14.168  27.187  10.087
37170W        W98481  29.650  22.222   0.933
37171W        W98482   7.820  21.691  13.830
37172W        W98483  11.835   5.228   4.792
37173W        W98484   0.985  22.636  14.402
37174W        W98485   6.696  12.146   3.205
37175W        W98486  35.985  29.506  11.531
37176W        W98487  32.030   7.885   0.783
37177W        W98488  24.086  28.076  12.480
37178W        W98489  38.863  28.078   2.882
37179W        W98490  27.188  19.055  14.909
37180W        W98491  11.857  25.536   1.338
37181W        W98492  24.134   2.953  10.447
37182W        W98493  11.643  35.431   0.956
37183W        W98494   4.351  36.861  10.922
37184W        W98495  34.433  30.481  11.555
37185W        W98496  34.071  12.325   4.280
37186W        W98497  40.359   6.832   4.677
37187W        W98498  36.044  19.058   2.701
37188W        W98499  17.763  28.443  13.503
37189W        W98500  38.470  26.551   0.800
37190W        W98501  14.213  30.547   2.901
37191W        W98502  31.010  34.034   4.721
37192W        W98503   7.910  41.939  14.976
37193W        W98504  30.469  22.588  12.862
37194W        W98505  19.766  41.881  14.445
37195W        W98506   4.225  20.671  12.486
37196W        W98507  13.841  39.537   3.629
37197W        W98508  16.213  22.572   3.336
37198W        W98509   3.842  29.138   2.714
37199W        W98510   0.486   7.804  14.473
37200W        W98511  19.277  10.689  14.902
37201W        W98512   3.291  15.261  14.010
37202W        W98513  28.101  38.830  12.883
37203W        W98514  28.013  30.485   2.748
37204W        W98515  11.191   8.703  11.032
37205W        W98516  30.583  23.060  14.849
37206W        W98517  42.987  13.754  12.043
37207W        W98518  22.121   5.260  14.948
37208W        W98519  14.313  16.217  14.484
37209W        W98520   2.846  39.855  11.914
37210W        W98521  14.612  21.635   5.156
37211W        W98522  15.725  32.078   2.191
37212W        W98523  28.450  31.497  12.862
37213W        W98524  13.624  23.559   3.637
37214W        W98525   8.341  20.228  12.831
37215W        W98526  27.995  43.841   0.409
37216W        W98527  36.944   7.784  14.388
37217W        W98528   0.828  16.085   4.304
37218W        W98529   4.738   7.696   0.852
37219W        W98530   6.284   8.210  12.418
37220W        W98531  11.826   4.799   1.253
37221W        W98532  34.510  29.549  11.538
37222W        W98533  28.671   0.821  14.318
37223W        W98534  23.996   6.684   0.258
37224W        W98535  21.520  20.644   3.353
37225W        W98536  23.231  27.579  10.910
37226W        W98537  33.072  38.858   4.725
37227W        W98538  20.174  23.535  12.451
37228W        W98539  21.684  17.096   2.323
37229W        W98540   4.445  34.093   4.289
37230W        W98541   1.860  17.755   2.184
37231W        W98542   4.868  25.693   4.793
37232W        W98543   7.713   2.814   3.719
37233W        W98544  12.329  41.340   0.770
37234W        W98545  43.011  22.657   0.476
37235W        W98546   9.674  21.030  12.562
37236W        W98547  19.089  28.145   2.865
37237W        W98548  36.382  24.075   0.349
37238W        W98549  14.113   3.351  12.576
37239W        W98550  20.630  34.443  11.045
37240W        W98551   2.939  22.060   4.740
37241W        W98552  36.434  18.563  14.366
37242W        W98553   9.379  36.367   4.724
37243W        W98554  28.968  10.633   1.934
37244W        W98555  32.009  29.491  11.857
37245W        W98556  31.510   7.234   1.341
37246W        W98557  38.913  37.911   3.251
37247W        W98558  21.172   5.289   3.228
37248W        W98559  36.060  17.227  11.892
37249W        W98560  27.511  40.027  11.541
37250W        W98561   4.925  20.552  14.326
37251W        W98562   7.413  27.116   1.363
37252W        W98563   7.816  18.771   1.755
37253W        W98564  21.712  28.061  10.421
37254W        W98565  39.868   4.313  13.019
37255W        W98566  22.564  26.601  11.409
37256W        W98567  37.402  40.465   5.796
37257W        W98568  12.345  43.859  12.091
37258W        W98569   1.793   9.674  10.923
37259W        W98570  33.006  37.471  14.891
37260W        W98571  12.667  39.044  11.946
37261W        W98572  31.001  26.560   3.177
37262W        W98573   4.855   7.697  13.488
37263W        W98574   2.367  16.568  13.435
37264W        W98575  14.323  40.015   2.773
37265W        W98576  14.799  23.221  12.339
37266W        W98577   8.831  12.137   0.735
37267W        W98578  43.942   3.439   1.755
37268W        W98579  26.547  38.378   3.785
37269W        W98580  43.885  35.510  14.896
37270W        W98581  11.656  26.488   0.736
37271W        W98582  29.971  40.526   3.371
37272W        W98583  36.522  35.026   9.973
37273W        W98584  43.333  26.609   4.782
37274W        W98585  11.692  23.682   3.689
37275W        W98586  31.611  44.948  11.973
37276W        W98587  27.083  43.360   4.147
37277W        W98588  39.367  35.951   1.814
37278W        W98589  24.603  13.283   0.947
37279W        W98590  26.599  43.832   1.259
37280W        W98591  29.976  11.666  11.856
37281W        W98592  24.172  27.000   4.675
37282W        W98593  30.649  44.777   3.736
37283W        W98594   4.815  39.022  12.562
37284W        W98595  14.804  15.653   0.941
37285W        W98596  24.650  11.836   0.344
37286W        W98597  28.044  30.037   3.368
37287W        W98598   9.776  22.709  11.504
37288W        W98599  12.160  14.241  10.924
37289W        W98600  41.891  24.660   4.610
37290W        W98601  22.220  33.577   1.701
37291W        W98602   5.259  16.097   3.252
37292W        W98603  42.517  40.911  14.395
37293W        W98604  15.588  40.361   2.900
37294W        W98605  33.109  43.786   0.467
37295W        W98606   6.815  29.148  12.514
37296W        W98607  13.145  33.898   1.774
37297W        W98608  14.696   5.918  12.068
37298W        W98609  38.004  38.024  13.852
37299W        W98610  39.016  43.414  12.472
37300W        W98611  26.559   0.378  12.476
37301W        W98612  23.099  37.571  12.850
37302W        W98613  15.597  31.488  12.578
37303W        W98614  12.695   2.788   4.296
37304W        W98615  36.458   1.480  14.031
37305W        W98616  15.661  41.368  14.379
37306W        W98617  23.138  44.816  14.440
37307W        W98618  32.048  41.318   2.718
37308W        W98619  20.666  31.022   1.343
37309W        W98620  20.192  25.608  10.983
37310W        W98621  16.785  29.661   3.791
37311W        W98622  17.093  42.300   2.816
37312W        W98623   3.267  10.861   3.708
37313W        W98624  20.714   3.231   0.855
37314W        W98625  24.135  11.265  11.608
37315W        W98626  20.697  23.659   0.876
37316W        W98627  17.622  16.697  14.428
37317W        W98628  35.542  23.595   2.416
37318W        W98629   6.713  39.396  13.907
37319W        W98630  18.279  44.463  10.466
37320W        W98631  13.789  39.909   0.795
37321W        W98632  12.810  12.694  13.806
37322W        W98633   3.900   6.864   1.755
37323W        W98634  22.731   0.319  13.382
37324W        W98635  33.444   5.844  12.346
37325W        W98636  35.081  10.679  10.990
37326W        W98637   6.830  20.548  11.974
37327W        W98638  25.048  36.922   4.239
37328W        W98639  11.623   0.833   4.324
37329W        W98640   0.856   8.295   0.860
37330W        W98641   3.387  13.682  13.399
37331W        W98642  38.838  10.822   0.461
37332W        W98643  20.217  20.569  13.886
37333W        W98644  29.601  16.118  10.404
37334W        W98645  38.924  11.181  13.339
37335W        W98646   1.294  36.951   4.742
37336W        W98647  10.669  25.709  10.548
37337W        W98648  18.238   4.843  10.496
37338W        W98649  43.453   8.374  12.362
37339W        W98650  30.589  16.277  14.383
37340W        W98651  40.839  20.713   0.263
37341W        W98652  27.007   1.925  13.836
37342W        W98653  36.872  24.988   1.863
37343W        W98654  24.638  13.790  14.025
37344W        W98655  19.740  11.181   0.885
37345W        W98656   0.816   3.711  11.025
37346W        W98657  30.628  20.715  13.956
37347W        W98658   7.385  15.323   1.928
37348W        W98659   6.910  19.238  13.332
37349W        W98660   1.749  42.493  12.867
37350W        W98661  19.078   2.233  13.401
37351W        W98662  34.911  36.971   3.312
37352W        W98663  25.164   8.767   4.832
37353W        W98664  11.304  38.878  13.888
37354W        W98665   7.867  26.556  11.459
37355W        W98666  15.768  11.787   2.260
37356W        W98667  17.081  26.020   0.890
37357W        W98668  23.161  37.353  14.918
37358W        W98669  16.740  32.506  14.457
37359W        W98670  16.090   9.873   3.681
37360W        W98671   1.453  33.486  12.901
37361W        W98672  39.330   0.963  14.350
37362W        W98673  42.363   1.834   1.312
37363W        W98674  30.530  21.056   3.335
37364W        W98675  29.592  11.702   1.399
37365W        W98676   9.665  33.092  12.928
37366W        W98677   8.356  26.074   0.412
37367W        W98678  19.183   9.364   0.873
37368W        W98679  34.076   5.768   4.809
37369W        W98680  39.925  31.634  13.835
37370W        W98681  13.734  35.969   1.731
37371W        W98682  31.617  43.452   2.412
37372W        W98683  32.527  17.225   0.838
37373W        W98684  31.432   9.158   4.117
37374W        W98685  23.581   4.306   1.430
37375W        W98686  13.611  22.053  12.827
37376W        W98687  24.619  36.096  11.108
37377W        W98688   0.960  44.944   3.316
37378W        W98689  24.206   1.469   3.343
37379W        W98690   0.355  28.151   2.863
37380W        W98691  36.997  44.812  11.934
37381W        W98692  41.346   0.762  13.878
37382W        W98693  38.381   4.273  13.416
37383W        W98694  13.346  22.120   3.646
37384W        W98695  37.575   6.216   1.347
37385W        W98696   7.792   1.874  14.876
37386W        W98697  10.221  32.111  12.515
37387W        W98698  35.370  21.708   0.780
37388W        W98699  28.601   4.939  11.874
37389W        W98700  37.979  14.154  12.496
37390W        W98701  39.891  19.136  14.403
37391W        W98702  15.141  36.022  13.391
37392W        W98703  11.685  40.326  11.540
37393W        W98704  21.642  39.954   4.168
37394W        W98705  44.983  30.483  11.997
37395W        W98706  28.018  14.613  11.891
37396W        W98707  22.996   5.296   3.694
37397W        W98708  38.466  26.195   0.384
37398W        W98709  28.466  22.711  13.489
37399W        W98710  24.223  21.067   4.821
37400W        W98711  25.645  40.856   4.622
37401W        W98712   5.216  32.558  12.361
37402W        W98713  18.244   7.704   3.377
37403W        W98714  41.446  41.292   1.253
37404W        W98715  33.535  22.190   4.170
37405W        W98716  34.017  27.630  12.972
37406W        W98717  43.788  20.140  10.602
37407W        W98718  22.570  27.107  14.381
37408W        W98719  24.616  36.434   3.199
37409W        W98720  33.973  43.359  12.037
37410W        W98721  38.367  14.612   3.226
37411W        W98722  19.568  39.358   3.763
37412W        W98723  41.305  16.199   2.767
37413W        W98724  33.415   0.442   3.354
37414W        W98725   8.390  26.042  14.319
37415W        W98726   2.279   1.831  13.466
37416W        W98727  40.021  18.672  13.531
37417W        W98728  41.312   4.804   1.427
37418W        W98729   8.317  10.173  13.947
37419W        W98730  13.136  29.481  12.045
37420W        W98731  11.755  38.365   4.141
37421W        W98732   7.223  30.446   0.794
37422W        W98733  24.077  25.031   2.278
37423W        W98734  20.534   6.210   1.354
37424W        W98735  16.301  22.723  14.870
37425W        W98736  21.226  34.938   4.653
37426W        W98737  17.612  41.802   2.743
37427W        W98738  15.822  34.968  12.870
37428W        W98739  44.807   6.287  14.866
37429W        W98740   1.428  22.704   4.317
37430W        W98741  26.051  13.194  11.542
37431W        W98742   4.260   8.682  11.875
37432W        W98743  22.996  43.785   2.862
37433W        W98744  34.427  23.140  14.827
37434W        W98745  26.198  36.939  11.490
37435W        W98746  31.901  28.080   4.617
37436W        W98747  31.554  19.185   4.780
37437W        W98748  41.518  37.043  13.960
37438W        W98749  14.255   9.719   2.738
37439W        W98750   2.307   0.872   1.416
37440W        W98751  23.160  37.563  12.563
37441W        W98752   1.810   9.285   1.890
37442W        W98753  21.548  32.458   1.249
37443W        W98754  15.785   9.154  14.866
37444W        W98755   1.274   4.834   0.325
37445W        W98756  39.818  35.949  10.567
37446W        W98757   4.817  34.061  10.465
37447W        W98758  29.934  23.042   1.262
37448W        W98759  37.495   7.307  10.890
37449W        W98760  40.830  17.245   2.265
37450W        W98761  31.585   0.802   4.646
37451W        W98762  28.601  30.641  14.350
37452W        W98763  18.750  35.887   5.156
37453W        W98764   8.374  37.343   3.357
37454W        W98765  14.590   3.349  14.325
37455W        W98766  36.506   4.797   2.334
37456W        W98767  17.260  44.435  12.544
37457W        W98768  44.277  32.136  12.570
37458W        W98769  40.031  29.970  14.775
37459W        W98770   2.358  21.557  10.581
37460W        W98771   4.731  15.250  10.996
37461W        W98772  33.487  20.753   0.739
37462W        W98773  12.802  29.477  12.961
37463W        W98774   0.897  35.481   0.923
37464W        W98775  17.617  38.857   4.149
37465W        W98776   5.402  34.592   2.705
37466W        W98777  13.780  36.417   3.709
37467W        W98778  43.354  14.128  13.860
37468W        W98779   6.718  33.011  14.484
37469W        W98780  14.220  16.267   3.339
37470W        W98781  26.187  16.088  13.982
37471W        W98782  42.954  16.616  10.603
37472W        W98783  25.571  35.920  14.403
37473W        W98784   2.354  44.793   0.927
37474W        W98785  19.663  11.316   4.198
37475W        W98786  37.526  32.955   0.925
37476W        W98787   2.959  26.583  14.888
37477W        W98788  23.030  13.622   2.673
37478W        W98789  34.993  19.045  13.978
37479W        W98790   4.274  38.556  13.982
37480W        W98791  23.106  32.984  10.449
37481W        W98792  24.551   7.249  14.916
37482W        W98793  20.691  41.839   1.790
37483W        W98794  34.586   4.803   2.309
37484W        W98795  12.118  41.312   3.374
37485W        W98796  27.132  33.053   1.750
37486W        W98797   2.786  20.623  14.451
37487W        W98798  10.352   2.355  11.116
37488W        W98799  30.030  21.187   1.385
37489W        W98800  17.186  26.572  11.593
37490W        W98801  33.925  25.110  11.068
37491W        W98802  23.055  37.972  11.561
37492W        W98803   5.265   4.770  12.514
37493W        W98804  16.725  29.006   0.340
37494W        W98805   1.449  25.514  13.310
37495W        W98806   8.781  18.205  11.488
37496W        W98807   7.177  11.195   0.906
37497W        W98808  19.188  38.499   2.201
37498W        W98809   3.355  28.931   2.369
37499W        W98810  28.582  12.155  12.346
37500W        W98811  22.216   2.771  10.561
37501W        W98812  40.903   6.345  13.336
37502W        W98813  39.053  15.658   3.696
37503W        W98814  10.642   6.410  12.909
37504W        W98815  42.860  29.557  11.885
37505W        W98816  22.632   0.361  12.542
37506W        W98817  23.727  17.128  11.128
37507W        W98818  31.594  44.954   3.669
37508W        W98819   3.272   9.708  14.471
37509W        W98820  41.876  27.660   1.803
37510W        W98821  26.028  31.560  11.505
37511W        W98822   0.293  32.518  13.868
37512W        W98823  39.528  34.552  13.810
37513W        W98824  16.777  39.040  10.473
37514W        W98825  34.073  34.042   3.253
37515W        W98826   1.737   3.862  11.590
37516W        W98827  43.469   1.459  11.378
37517W        W98828  35.460  33.612   3.870
37518W        W98829  22.657   9.307   3.634
37519W        W98830   7.294   1.949   4.754
37520W        W98831  22.710  37.904  14.280
37521W        W98832  11.238   8.310   3.817
37522W        W98833  41.935  11.844   4.294
37523W        W98834   5.296   5.923   3.225
37524W        W98835  17.579  19.080   3.750
37525W        W98836  38.872  34.906   9.986
37526W        W98837  25.613  16.699  12.438
37527W        W98838  37.493  34.086   4.697
37528W        W98839  43.469  17.701  14.765
37529W        W98840   0.775  18.090  10.452
37530W        W98841  13.336  18.653   2.751
37531W        W98842  35.972  36.410   0.965
37532W        W98843   2.754  13.793   1.253
37533W        W98844  27.029  19.561  13.846
37534W        W98845  29.503  16.257  12.031
37535W        W98846   1.317  38.067  11.558
37536W        W98847  35.590   9.770  14.928
37537W        W98848  16.258  17.134  11.591
37538W        W98849  27.979  27.523  13.465
37539W        W98850  15.226  36.373  14.430
37540W        W98851  24.563   1.851  14.362
37541W        W98852   1.924  13.739  11.402
37542W        W98853   6.729  11.688   2.359
37543W        W98854   2.336  21.096   1.339
37544W        W98855  44.811   4.261  12.566
37545W        W98856  41.034  26.979   2.788
37546W        W98857  10.661   7.292   1.213
37547W        W98858   0.439  15.174   0.884
37548W        W98859  23.236  11.849  12.429
37549W        W98860  31.058  17.173   4.777
37550W        W98861   2.890   8.772   1.251
37551W        W98862  16.621  10.327   0.879
37552W        W98863  22.546  33.511  12.900
37553W        W98864   1.468  34.578   1.388
37554W        W98865  14.155  21.752   1.695
37555W        W98866  15.657  43.392  11.938
37556W        W98867  18.703  37.449  13.323
37557W        W98868  36.551   0.283   3.366
37558W        W98869  10.142  21.640  13.897
37559W        W98870   7.350   0.786   2.727
37560W        W98871  28.067  18.057   5.227
37561W        W98872  15.324  12.645   1.239
37562W        W98873  27.627   2.430   3.162
37563W        W98874  35.046  21.672   2.359
37564W        W98875  39.861  22.192  13.907
37565W        W98876  36.882  36.586   2.849
37566W        W98877  41.844  20.647   2.238
37567W        W98878   6.331  22.018  12.517
37568W        W98879  22.679  35.538  13.913
37569W        W98880  24.218  10.739   0.284
37570W        W98881  10.239  11.838  10.510
37571W        W98882   4.714  25.212  14.027
37572W        W98883  30.124   3.838   3.852
37573W        W98884  31.899  34.563  11.391
37574W        W98885  27.015  36.942  14.892
37575W        W98886  25.983  10.186   0.778
37576W        W98887   9.802  32.895   3.246
37577W        W98888  29.547  25.550   0.380
37578W        W98889  33.490  34.548   0.446
37579W        W98890  20.535  26.001  14.009
37580W        W98891   9.228  17.285   9.438
37581W        W98892  26.597  24.996   2.237
37582W        W98893  11.276  23.631  14.389
37583W        W98894   7.757   2.756  12.066
37584W        W98895  15.686  34.494  12.951
37585W        W98896  39.390  23.089  10.490
37586W        W98897  15.224  30.091   3.375
37587W        W98898   7.303  14.738   4.671
37588W        W98899   8.707  14.629   5.238
37589W        W98900  44.909  19.718   2.383
37590W        W98901  19.587   7.333   0.323
37591W        W98902  20.538  22.594  13.035
37592W        W98903  29.996  44.970  13.038
37593W        W98904  17.228  33.570   3.307
37594W        W98905  33.570  18.240  10.459
37595W        W98906  31.638   7.675  12.962
37596W        W98907   1.340  17.592  13.338
37597W        W98908  36.908  34.952   4.639
37598W        W98909  43.894  16.133  13.912
37599W        W98910   2.926  20.272  11.057
37600W        W98911   9.802  14.782  13.938
37601W        W98912  43.320  29.551   3.360
37602W        W98913  20.087  20.178   1.842
37603W        W98914  20.675  29.561  11.416
37604W        W98915  32.889  33.573  10.954
37605W        W98916  24.104  35.406  13.839
37606W        W98917   1.952  29.971   3.787
37607W        W98918  34.037  27.179  12.852
37608W        W98919  11.819  11.683   0.883
37609W        W98920  24.977  40.426  11.513
37610W        W98921  39.832  43.951   0.842
37611W        W98922  10.792  41.979   4.736
37612W        W98923   2.734   7.886  11.006
37613W        W98924   6.317  44.361   1.793
37614W        W98925  29.631  28.531  13.835
37615W        W98926   8.366  10.320   0.446
37616W        W98927   6.700  36.468   0.302
37617W        W98928  38.884  41.412   1.348
37618W        W98929  21.709  14.257   1.338
37619W        W98930  14.169   9.228  11.535
37620W        W98931  40.521   9.277  11.967
37621W        W98932  39.960   6.315   0.865
37622W        W98933  20.550  19.144  14.505
37623W        W98934  21.079  29.631   4.598
37624W        W98935  18.086  41.349  13.872
37625W        W98936  20.229   4.330  14.924
37626W        W98937  44.504  30.024  12.964
37627W        W98938  24.562  17.602  13.364
37628W        W98939  13.239  26.177   2.807
37629W        W98940  42.356  35.437   2.206
37630W        W98941  33.495  23.716   0.404
37631W        W98942  33.602   1.923  12.488
37632W        W98943  10.294  25.560  13.986
37633W        W98944  41.414  30.596  14.278
37634W        W98945  42.297  12.222   1.360
37635W        W98946  15.646  10.682   0.404
37636W        W98947  12.124  29.150  10.625
37637W        W98948  44.949   7.329  14.917
37638W        W98949  29.056  29.085  12.366
37639W        W98950  21.021  13.661   1.213
37640W        W98951   7.763  25.647   0.396
37641W        W98952  34.603   7.368  10.559
37642W        W98953  29.593  27.070   3.233
37643W        W98954  39.901   3.895  11.392
37644W        W98955  35.452  36.982   0.867
37645W        W98956  23.167  26.027   0.799
37646W        W98957  39.425  12.134  10.513
37647W        W98958  19.094  18.155   4.137
37648W        W98959  18.199  17.720   1.347
37649W        W98960  29.622   5.369   0.945
37650W        W98961  41.344  24.092  14.875
37651W        W98962   0.837  17.254  13.540
37652W        W98963  11.792   7.218  14.767
37653W        W98964  25.522   0.326  12.983
37654W        W98965  10.338   3.777   1.892
37655W        W98966  24.687  35.037   3.274
37656W        W98967  32.424  28.476   4.189
37657W        W98968  23.006  34.981  14.798
37658W        W98969  12.803  11.266  11.047
37659W        W98970  20.271  44.792  13.372
37660W        W98971  21.062   4.712   0.835
37661W        W98972  35.967  12.342  12.926
37662W        W98973   5.432  16.285  12.393
37663W        W98974   6.396  44.843  10.007
37664W        W98975  17.573  27.955  12.486
37665W        W98976  18.713  36.356  13.490
37666W        W98977  26.965  28.547  14.904
37667W        W98978  35.409  37.979  13.926
37668W        W98979  19.538  23.995  14.822
37669W        W98980  15.756   9.653   3.356
37670W        W98981  35.421   4.821   1.365
37671W        W98982  21.263   2.825  10.437
37672W        W98983  17.306  16.258  10.069
37673W        W98984  18.717  39.949   4.682
37674W        W98985  28.125  44.271  13.987
37675W        W98986  22.037  39.548  13.814
37676W        W98987  20.565  16.231  13.970
37677W        W98988  22.107   2.816  13.063
37678W        W98989  16.629  14.230  12.504
37679W        W98990   7.411  25.098   0.787
37680W        W98991  44.335   2.743  14.498
37681W        W98992   5.280  28.136  13.839
37682W        W98993  39.330   6.237  13.324
37683W        W98994  25.126  22.573  14.892
37684W        W98995   1.863  23.142   2.885
37685W        W98996  29.559  24.138  13.924
37686W        W98997  41.337   1.938   2.411
37687W        W98998  26.018  28.994   2.302
37688W        W98999  20.556   2.925   1.738
37689W        W99000   8.298  22.738   0.275
37690W        W99001  19.645  31.527   1.717
37691W        W99002   8.873  16.073   0.843
37692W        W99003   8.329  13.321   4.825
37693W        W99004  43.003   0.359   3.326
37694W        W99005  16.154   7.784   4.131
37695W        W99006  35.878  36.394  11.482
37696W        W99007   3.444  40.829  13.005
37697W        W99008  44.980  39.965   0.395
37698W        W99009  31.087  21.203  14.817
37699W        W99010   1.439   1.477   3.336
37700W        W99011  28.085  15.109  14.509
37701W        W99012  31.494  13.267   0.441
37702W        W99013  39.500  14.178  13.505
37703W        W99014   6.870  27.495  14.838
37704W        W99015   1.916   8.272   2.220
37705W        W99016  44.380  29.474  13.834
37706W        W99017  36.074  38.041  13.015
37707W        W99018   7.842  29.085  13.911
37708W        W99019   7.882  19.635  10.463
37709W        W99020   3.260  42.930   3.201
37710W        W99021  30.029  36.092  14.503
37711W        W99022  33.467  22.601  13.806
37712W        W99023  41.826  11.862  11.494
37713W        W99024  17.190  30.601   2.199
37714W        W99025   6.399  24.704   3.681
37715W        W99026  34.607  26.035   2.408
37716W        W99027   1.799   5.737  12.882
37717W        W99028  29.083  37.909  12.571
37718W        W99029  16.221  35.510   0.318
37719W        W99030  19.199  19.071  12.409
37720W        W99031  22.037  37.481  12.035
37721W        W99032  30.421  20.705   3.799
37722W        W99033   2.291  32.563   4.729
37723W        W99034   5.214   4.209  14.391
37724W        W99035  19.043  37.952  10.554
37725W        W99036  22.550  17.103  14.448
37726W        W99037  35.516  30.064   5.321
37727W        W99038  43.460   6.350  12.947
37728W        W99039  23.175  36.484   1.369
37729W        W99040  40.484  12.351   4.602
37730W        W99041   4.384  11.293   0.886
37731W        W99042  37.003  18.721  11.870
37732W        W99043  12.710   2.885  10.988
37733W        W99044  36.026  38.332  14.452
37734W        W99045   0.306  25.630  14.344
37735W        W99046  21.584  16.809  10.414
37736W        W99047   2.838  12.358   2.195
37737W        W99048  34.488  37.042  13.047
37738W        W99049  16.074  15.583  13.854
37739W        W99050  27.967  36.539  12.357
37740W        W99051  14.621  25.500  13.326
37741W        W99052   8.397  27.942  13.811
37742W        W99053  32.955   1.423   0.879
37743W        W99054  33.880  16.804  13.813
37744W        W99055  32.455  36.492  10.503
37745W        W99056  31.144   4.825   3.246
37746W        W99057  33.095  25.706  12.901
37747W        W99058  39.483  12.121   4.350
37748W        W99059  34.405   7.845   1.775
37749W        W99060  28.536  29.554  14.776
37750W        W99061   4.877  28.162  14.378
37751W        W99062  34.550   2.770  14.341
37752W        W99063   6.248  14.104  10.954
37753W        W99064  31.112  33.452   5.195
37754W        W99065  25.518  21.123  10.404
37755W        W99066   1.780  33.547  11.576
37756W        W99067  20.753   7.244  12.839
37757W        W99068  37.501   5.229  12.843
37758W        W99069  22.077   8.895  14.844
37759W        W99070  12.717  20.640  14.420
37760W        W99071  16.728  42.499   1.413
37761W        W99072  13.225  33.448   4.233
37762W        W99073  42.784  42.857  12.480
37763W        W99074  31.968  19.241   3.359
37764W        W99075  38.824   3.780  13.542
37765W        W99076  39.925  38.012  11.902
37766W        W99077  22.053  30.423   0.381
37767W        W99078  19.771  10.149   3.763
37768W        W99079  16.128   1.820   0.474
37769W        W99080  20.728  14.139  13.541
37770W        W99081  44.403  44.437  14.856
37771W        W99082  27.446  40.510  13.904
37772W        W99083  14.665  19.572  10.560
37773W        W99084  38.490  36.901   3.331
37774W        W99085  12.184  37.518  12.513
37775W        W99086   3.348  30.605   3.685
37776W        W99087  32.053   1.314   2.693
37777W        W99088  19.675  29.112  12.944
37778W        W99089  27.520   3.374  12.507
37779W        W99090  40.940   4.784  13.386
37780W        W99091  20.525  11.232  12.847
37781W        W99092  36.414  13.729   1.816
37782W        W99093   9.161  42.018   1.280
37783W        W99094  38.384  12.290  10.559
37784W        W99095  27.525  21.223  11.900
37785W        W99096   2.932   0.810  12.040
37786W        W99097   2.794   8.176   2.828
37787W        W99098  25.508   5.295  14.993
37788W        W99099  31.965   6.287  11.936
37789W        W99100  41.361   5.824  13.369
37790W        W99101  32.457  12.303   3.345
37791W        W99102  15.640  18.721  12.339
37792W        W99103  22.220  43.912  12.851
37793W        W99104  40.802  21.671   4.836
37794W        W99105  27.623   6.358  12.555
37795W        W99106   6.758  32.612  12.429
37796W        W99107  21.040  37.558   2.321
37797W        W99108   1.479  32.606   0.258
37798W        W99109   7.814  33.886  11.577
37799W        W99110  17.608   1.978  11.968
37800W        W99111  25.000  18.733  11.498
37801W        W99112  34.994  37.955  10.624
37802W        W99113  42.437  38.947   4.689
37803W        W99114  28.985  39.933   4.612
37804W        W99115   1.290  36.475  12.410
37805W        W99116  40.024  12.676  10.549
37806W        W99117  34.880  35.917   2.180
37807W        W99118   6.271  38.463   3.324
37808W        W99119  35.090  10.255   3.812
37809W        W99120   7.856   9.670  14.934
37810W        W99121   3.889  44.853  13.854
37811W        W99122  27.990  15.617  10.903
37812W        W99123   2.950  23.715  10.438
37813W        W99124  11.671  34.949   5.275
37814W        W99125  40.481   2.331   3.784
37815W        W99126   0.426  30.155   4.296
37816W        W99127   2.791   3.253   4.786
37817W        W99128  25.527  41.962   3.230
37818W        W99129  44.404  12.704   1.307
37819W        W99130  25.999  32.984   0.765
37820W        W99131  37.349  15.759  14.462
37821W        W99132  26.667  24.991  11.054
37822W        W99133   0.437   5.424  13.385
37823W        W99134   7.219  10.201  13.053
37824W        W99135  13.186  26.583   0.410
37825W        W99136  17.151   7.888   0.834
37826W        W99137  31.908  15.673  10.547
37827W        W99138  40.036   6.878   4.184
37828W        W99139  26.964  25.088  14.348
37829W        W99140  14.283  26.617   4.301
37830W        W99141  28.434  25.148   4.704
37831W        W99142  40.334  41.855   3.867
37832W        W99143  20.717  11.144  12.553
37833W        W99144  31.537   4.742  10.465
37834W        W99145   1.767  11.673   4.290
37835W        W99146  22.197  33.537   3.808
37836W        W99147  44.410  22.043   3.680
37837W        W99148   1.962  35.996   0.760
37838W        W99149   7.861   8.761   2.877
37839W        W99150  43.469  21.028   1.248
37840W        W99151  33.010  16.616  12.874
37841W        W99152  29.525  31.099  13.490
37842W        W99153  32.065  36.974  12.401
37843W        W99154  36.456  11.223  14.022
37844W        W99155  26.019  17.238   1.254
37845W        W99156   3.402   3.264  10.947
37846W        W99157  36.024  12.124  10.910
37847W        W99158   1.438  32.902   1.356
37848W        W99159  33.580  15.813   0.794
37849W        W99160  25.022   5.416  14.978
37850W        W99161   5.734  23.990   4.294
37851W        W99162  12.682  16.748  14.359
37852W        W99163  44.352  32.563  10.966
37853W        W99164  42.912  32.117  13.356
37854W        W99165  35.905  40.961   2.819
37855W        W99166  34.441   9.157   0.745
37856W        W99167  42.462  18.237   0.761
37857W        W99168   3.455  27.122  10.575
37858W        W99169   4.232  44.454  12.981
37859W        W99170  41.441  33.411  11.569
37860W        W99171   7.199  10.748   1.373
37861W        W99172  18.761   3.850  10.066
37862W        W99173  30.419   8.722   1.771
37863W        W99174  43.445   5.898  12.975
37864W        W99175  31.896   4.701   9.967
37865W        W99176  31.069  15.667   4.256
37866W        W99177   6.706   1.302   4.808
37867W        W99178  33.905   6.873  12.091
37868W        W99179  40.365  31.562  12.455
37869W        W99180  26.092  41.795   4.272
37870W        W99181  23.562  33.484   3.178
37871W        W99182   2.886  29.433  14.434
37872W        W99183   9.311  35.001   0.754
37873W        W99184  19.557   3.756   4.836
37874W        W99185  36.467  30.538  12.412
37875W        W99186  40.881  29.997   3.297
37876W        W99187   3.748   0.921   3.250
37877W        W99188  31.642  43.829  11.576
37878W        W99189  40.883  24.051   0.761
37879W        W99190   6.704  31.514  12.083
37880W        W99191  12.141  41.321   3.675
37881W        W99192  41.520  12.628  12.435
37882W        W99193   7.718  24.631  13.461
37883W        W99194  15.623  19.112   3.222
37884W        W99195  18.619  27.115   0.301
37885W        W99196  15.252   9.854  11.984
37886W        W99197  41.490  30.596   1.805
37887W        W99198   5.418   7.192   4.332
37888W        W99199  22.136  28.579  12.457
37889W        W99200   4.237  23.589   3.643
37890W        W99201   2.322  31.089  13.793
37891W        W99202  17.285   1.380   0.901
37892W        W99203  34.387   8.860  13.308
37893W        W99204  34.120  30.952   1.889
37894W        W99205  37.959   4.440   0.818
37895W        W99206  16.316  16.622   1.783
37896W        W99207  19.780   0.905   0.455
37897W        W99208  39.509  21.677  14.913
37898W        W99209  37.883  19.541   2.668
37899W        W99210  42.871  32.932   3.190
37900W        W99211  34.106  14.290  12.401
37901W        W99212  37.053  11.744  11.564
37902W        W99213  28.091  24.677   1.362
37903W        W99214  26.692  33.876   3.687
37904W        W99215   0.372  40.358  12.826
37905W        W99216  11.159   5.760  14.274
37906W        W99217  25.019  18.191   3.368
37907W        W99218  10.848  32.562   4.692
37908W        W99219  40.512  38.924   2.897
37909W        W99220   6.334   8.744   4.254
37910W        W99221  36.374  25.187  10.488
37911W        W99222  20.126   2.295   3.373
37912W        W99223  31.077  28.665  14.384
37913W        W99224  19.059   3.234   2.400
37914W        W99225   0.904  43.447  13.510
37915W        W99226  31.499  28.599  11.584
37916W        W99227  40.455  13.835   3.802
37917W        W99228  43.993  40.023   1.211
37918W        W99229  15.280  15.747   1.389
37919W        W99230  10.295  30.987  12.957
37920W        W99231  43.500  37.482  14.809
37921W        W99232  22.059   1.846  11.502
37922W        W99233  13.266  30.564  12.358
37923W        W99234  16.218   3.925  14.365
37924W        W99235  37.559  15.727  10.489
37925W        W99236  13.241  37.461  12.958
37926W        W99237   1.406  43.913  11.089
37927W        W99238  23.220   8.775   4.129
37928W        W99239   9.342  36.084  14.026
37929W        W99240   9.765  44.267   4.829
37930W        W99241  14.671  36.446   2.384
37931W        W99242  22.531  30.427  14.972
37932W        W99243  24.720  21.538  12.555
37933W        W99244   1.890  19.543  13.514
37934W        W99245  21.680  40.413  12.007
37935W        W99246  35.977  34.393  12.950
37936W        W99247  40.886  34.098  12.427
37937W        W99248  22.598  22.199   4.235
37938W        W99249  27.091   2.375  14.443
37939W        W99250   1.397   4.438   4.238
37940W        W99251  39.857  43.397   2.415
37941W        W99252   8.217  39.557   2.226
37942W        W99253  38.404  39.026   0.747
37943W        W99254   2.794  42.899  11.950
37944W        W99255  22.504  32.521   0.846
37945W        W99256  20.734  37.336   3.748
37946W        W99257  10.721  10.316   4.608
37947W        W99258  40.352  27.689   2.281
37948W        W99259  21.602  29.945  11.550
37949W        W99260  42.517  25.703   4.823
37950W        W99261  13.166  36.029  13.441
37951W        W99262  24.641   8.746   1.929
37952W        W99263  32.513  15.269  12.831
37953W        W99264  14.128  11.297  13.955
37954W        W99265   1.736  30.570  13.830
37955W        W99266  44.962  33.540  12.924
37956W        W99267   3.316  27.955  10.893
37957W        W99268  16.167  35.956   2.719
37958W        W99269  19.573  32.530  11.937
37959W        W99270  31.034   6.724   2.859
37960W        W99271  27.945  23.545  11.979
37961W        W99272   2.799  26.684  13.968
37962W        W99273   7.672   9.708  10.436
37963W        W99274  14.812   5.318   0.782
37964W        W99275  32.109  22.017   4.239
37965W        W99276  31.936  34.070   0.291
37966W        W99277   0.267  29.922   0.386
37967W        W99278   2.362  22.526  11.934
37968W        W99279  41.881   2.872   0.903
37969W        W99280  29.053  34.516  13.374
37970W        W99281  38.907  13.259   3.776
37971W        W99282  28.566   9.859  13.860
37972W        W99283  32.625  27.669   3.726
37973W        W99284  26.091  12.244  12.093
37974W        W99285  32.440  42.405  13.480
37975W        W99286  10.356  30.015  11.876
37976W        W99287  44.861   1.912   2.372
37977W        W99288  39.505  29.152  11.928
37978W        W99289  44.449  31.131   0.481
37979W        W99290  14.107  15.692  14.017
37980W        W99291  34.584  34.431   4.128
37981W        W99292  40.004  35.499   2.685
37982W        W99293  17.206  23.159   3.844
37983W        W99294   4.282   9.284   2.303
37984W        W99295  17.126  24.532   3.674
37985W        W99296  39.447  15.714  10.517
37986W        W99297  41.926   2.300   5.278
37987W        W99298  32.907  32.067  14.863
37988W        W99299  38.543  27.591   4.621
37989W        W99300   3.419  22.151  13.899
37990W        W99301  16.608  25.586  11.016
37991W        W99302   1.404  12.743  13.474
37992W        W99303  30.420  38.980   1.237
37993W        W99304  14.730  14.135  12.067
37994W        W99305  40.485  25.076   0.296
37995W        W99306  18.733  36.582  14.342
37996W        W99307  19.624  28.498   0.318
37997W        W99308  13.256  41.426  13.902
37998W        W99309  29.468  30.581   0.329
37999W        W99310  29.620  15.762  12.061
38000W        W99311   6.346  19.240  14.980
38001W        W99312  34.560  20.691  14.770
38002W        W99313  13.336  41.022  10.480
38003W        W99314  35.968  22.119   1.226
38004W        W99315  17.104  37.564  12.830
38005W        W99316  40.307  38.328   5.200
38006W        W99317   9.236  12.618   2.278
38007W        W99318  16.772  39.433  14.416
38008W        W99319  11.254   4.920   2.896
38009W        W99320  43.869   2.417  10.578
38010W        W99321  15.796  29.588  13.544
38011W        W99322  24.517  44.278  14.907
38012W        W99323   8.181   1.815   3.677
38013W        W99324  19.156  14.685  11.392
38014W        W99325   6.851  24.555   0.345
38015W        W99326  37.526  23.639  13.460
38016W        W99327  20.078  20.263   4.771
38017W        W99328  12.202   0.392  13.865
38018W        W99329  19.664   9.259  10.994
38019W        W99330  20.681  23.096  11.424
38020W        W99331  21.590  19.121   3.374
38021W        W99332  24.088   6.202  13.322
38022W        W99333  18.715  35.405   3.194
38023W        W99334  17.773  40.322  11.127
38024W        W99335  11.686  38.516  10.899
38025W        W99336  32.073  14.782  11.398
38026W        W99337  21.028   2.303   0.302
38027W        W99338   3.846   0.468  13.863
38028W        W99339  20.103  26.652  12.346
38029W        W99340  27.683  34.078  14.953
38030W        W99341   4.277   6.868  10.965
38031W        W99342  16.734  38.984   4.213
38032W        W99343   9.211   3.276   4.645
38033W        W99344  33.554  43.516  10.551
38034W        W99345  16.306   9.284   2.836
38035W        W99346  39.979  32.081  10.595
38036W        W99347  36.555  26.475   3.640
38037W        W99348  42.949   5.750  10.421
38038W        W99349  19.622  39.845   1.789
38039W        W99350   3.870  34.892   4.798
38040W        W99351  16.116   9.376  11.542
38041W        W99352  33.434  39.340  12.397
38042W        W99353   6.702  11.333  13.809
38043W        W99354   5.794  14.632   4.120
38044W        W99355  22.730  19.776  14.821
38045W        W99356   9.218   9.374   2.769
38046W        W99357  25.666  23.193  13.311
38047W        W99358  38.965   1.283   0.251
38048W        W99359  18.153   7.760  12.426
38049W        W99360  18.636  25.503   3.746
38050W        W99361  30.023  41.847  10.946
38051W        W99362  43.807  29.088   0.765
38052W        W99363   6.372  11.757   4.330
38053W        W99364  13.269  20.136  10.538
38054W        W99365  40.898  41.799   2.766
38055W        W99366  24.103  29.633  11.418
38056W        W99367   1.780  20.143   1.873
38057W        W99368  19.145  34.585   0.762
38058W        W99369  27.535  26.045   0.373
38059W        W99370   1.931  40.875   0.941
38060W        W99371  17.705   9.357  11.465
38061W        W99372  41.980  18.088  10.540
38062W        W99373  27.469  44.789   4.771
38063W        W99374  43.857  44.920   3.848
38064W        W99375   0.824   2.876   4.674
38065W        W99376  12.854  27.500   4.652
38066W        W99377   1.779  30.636   3.332
38067W        W99378   6.187   5.385   4.767
38068W        W99379  33.416  14.716   3.213
38069W        W99380  34.089  39.326  11.994
38070W        W99381  13.115  21.608  14.390
38071W        W99382  22.702  24.185  14.770
38072W        W99383  17.092   4.246  12.965
38073W        W99384  16.129  29.557   3.786
38074W        W99385  17.750  28.135   2.243
38075W        W99386  13.253   5.333  13.996
38076W        W99387  12.733  25.002  14.445
38077W        W99388  30.504  25.522   1.239
38078W        W99389  29.041   4.358  13.500
38079W        W99390  32.612  25.104  12.398
38080W        W99391  10.156  13.798   3.198
38081W        W99392  11.227  14.592   4.276
38082W        W99393  35.590  25.525  14.433
38083W        W99394   4.746  18.691  12.087
38084W        W99395   3.429  27.667   1.700
38085W        W99396  33.918   6.193   3.230
38086W        W99397  10.771  33.918   0.257
38087W        W99398  15.769  29.994  11.609
38088W        W99399   3.283   7.755   4.245
38089W        W99400  31.508  21.180   3.275
38090W        W99401  40.381  21.738   4.654
38091W        W99402  20.167  29.577  12.853
38092W        W99403  13.336   5.216  13.321
38093W        W99404  10.157  15.643   2.206
38094W        W99405  24.141   4.883  12.529
38095W        W99406  32.555  34.512  12.559
38096W        W99407   9.183  34.431   1.218
38097W        W99408  21.236  40.407  12.476
38098W        W99409  39.849   8.239   3.688
38099W        W99410  32.979  27.985   2.233
38100W        W99411  34.423  39.540  14.311
38101W        W99412  29.027  40.457  13.945
38102W        W99413  10.750  25.081   4.348
38103W        W99414  32.930  23.551   2.210
38104W        W99415  18.555   0.450   4.808
38105W        W99416  24.493   0.848   4.660
38106W        W99417  19.567  11.844  11.910
38107W        W99418  13.730   5.775   3.737
38108W        W99419  23.991  20.061  13.443
38109W        W99420   1.783  11.319   3.739
38110W        W99421  44.309  21.246   4.786
38111W        W99422  33.618  26.520  11.099
38112W        W99423  38.030  40.912  11.888
38113W        W99424  20.234   9.312  13.357
38114W        W99425   6.310  25.504   2.181
38115W        W99426  31.476  29.923   0.966
38116W        W99427   5.230  26.478   2.854
38117W        W99428  35.433  35.533   2.305
38118W        W99429  27.011  20.245   2.677
38119W        W99430  40.877  21.731   0.904
38120W        W99431  25.512  34.865   1.375
38121W        W99432   5.719  13.749   5.263
38122W        W99433  23.104  27.130   4.312
38123W        W99434   2.738  22.683   0.762
38124W        W99435  29.527  37.579  10.450
38125W        W99436  36.392  23.710  11.913
38126W        W99437   5.338   9.780  13.794
38127W        W99438  30.912   9.194  13.871
38128W        W99439   0.478   7.886  11.521
38129W        W99440  14.608  16.224   1.903
38130W        W99441  41.404  41.514   1.896
38131W        W99442  36.551  31.553   4.350
38132W        W99443  24.038  17.662   3.155
38133W        W99444  23.686  29.514   2.416
38134W        W99445  15.669  21.676  12.827
38135W        W99446  13.613   6.427  12.381
38136W        W99447  35.430   5.305   2.224
38137W        W99448   6.214   5.913   0.882
38138W        W99449  34.507  20.718   2.706
38139W        W99450   5.773  15.182   4.121
38140W        W99451  18.582   8.332   4.141
38141W        W99452   2.296  17.630   2.406
38142W        W99453  29.594  35.018  11.571
38143W        W99454  31.521  15.104  12.876
38144W        W99455   3.956   3.221   4.218
38145W        W99456   0.812   6.810   0.309
38146W        W99457   0.404  31.533   4.227
38147W        W99458  39.489  10.755   2.903
38148W        W99459  41.471  21.042  11.883
38149W        W99460   8.875  25.976   1.892
38150W        W99461   3.339   3.770  11.921
38151W        W99462  21.035  11.215   4.152
38152W        W99463   7.296  12.174   1.411
38153W        W99464   7.883  20.068   9.972
38154W        W99465   1.847   1.284  11.090
38155W        W99466  36.866  15.255  14.996
38156W        W99467  15.264  31.082   4.247
38157W        W99468   3.779  13.705  10.518
38158W        W99469  33.583  17.569   1.910
38159W        W99470  19.163  30.623  11.998
38160W        W99471  40.044   5.297   1.812
38161W        W99472  43.399  22.239  11.927
38162W        W99473  24.668  41.340   4.143
38163W        W99474  26.533  31.124   3.791
38164W        W99475  35.523   0.449  10.626
38165W        W99476   1.850  15.633   0.478
38166W        W99477   4.432  26.565   4.619
38167W        W99478  23.999   8.819  12.556
38168W        W99479  12.667  10.826   4.332
38169W        W99480  15.751  11.244  10.575
38170W        W99481  38.046  22.533   2.692
38171W        W99482  32.630  14.295  14.857
38172W        W99483  18.065  37.554   1.803
38173W        W99484   8.777  43.798   2.385
38174W        W99485  36.972  25.019  13.421
38175W        W99486  23.502   0.973   2.678
38176W        W99487   4.380  44.303  11.965
38177W        W99488  39.433  25.711  13.453
38178W        W99489  44.897   7.860   2.212
38179W        W99490  11.287  20.620   2.792
38180W        W99491   9.276  29.117  10.422
38181W        W99492  13.655  17.173  10.546
38182W        W99493  26.542  28.084  13.944
38183W        W99494  27.070  10.861   3.740
38184W        W99495  12.204  37.064   3.232
38185W        W99496  24.512  34.508   3.195
38186W        W99497  20.124  24.001  12.083
38187W        W99498  37.399   9.713  14.356
38188W        W99499   6.860   6.841  10.505
38189W        W99500  42.944  24.502  14.852
38190W        W99501   2.944   7.815  12.568
38191W        W99502  35.068  30.490   0.881
38192W        W99503  39.816   7.249  13.944
38193W        W99504  11.163  34.542   0.745
38194W        W99505   6.786   6.789   3.258
38195W        W99506  32.523  30.487  11.416
38196W        W99507   2.447  24.600   1.211
38197W        W99508  38.981  24.208   0.255
38198W        W99509  13.290  32.513   3.763
38199W        W99510  11.284   5.921   0.785
38200W        W99511  30.543  12.800   2.798
38201W        W99512  18.219  21.610   4.837
38202W        W99513  32.119   8.853   1.700
38203W        W99514  12.693   4.419  12.061
38204W        W99515  18.228  26.007   1.331
38205W        W99516  22.628  14.238  12.345
38206W        W99517  38.481   4.373  12.389
38207W        W99518   6.307  27.940   0.467
38208W        W99519  20.653  42.919  12.429
38209W        W99520  28.475  33.612  10.555
38210W        W99521  16.167   1.370  11.977
38211W        W99522  29.433  40.491   3.777
38212W        W99523  19.162  11.747   0.741
38213W        W99524  16.130  12.769  10.906
38214W        W99525  29.441  26.208   1.789
38215W        W99526   0.980  44.833  14.874
38216W        W99527   0.881  11.691   2.259
38217W        W99528  14.128  10.349   5.227
38218W        W99529   7.272   1.291   1.427
38219W        W99530  24.660   0.318  13.939
38220W        W99531   9.317  32.516  14.927
38221W        W99532   7.322  15.176   4.826
38222W        W99533  24.132  38.355  13.953
38223W        W99534  25.578  12.126   1.418
38224W        W99535   7.395  12.283   0.281
38225W        W99536  13.143  19.742  13.529
38226W        W99537  40.326  33.439   4.327
38227W        W99538  41.494  36.375   3.816
38228W        W99539  19.120  23.153  13.958
38229W        W99540   7.349  40.882   0.744
38230W        W99541  16.611   3.449  11.872
38231W        W99542  12.315  14.131   4.674
38232W        W99543   3.908  33.444  10.578
38233W        W99544  42.312  13.655  10.935
38234W        W99545   5.792  38.826   0.772
38235W        W99546   9.859  12.669   0.317
38236W        W99547  38.000  27.185  14.331
38237W        W99548  21.135  21.038  12.922
38238W        W99549  26.018   3.755  10.472
38239W        W99550  21.636  34.898  11.441
38240W        W99551  19.637  24.608  11.525
38241W        W99552   7.838   9.321  13.412
38242W        W99553  17.566   2.412   4.632
38243W        W99554  34.911  44.787  14.001
38244W        W99555  25.674   1.419   2.734
38245W        W99556   3.855  18.581  14.350
38246W        W99557  23.626  17.581  13.427
38247W        W99558  35.540  14.718  12.027
38248W        W99559  30.432  15.083   1.921
38249W        W99560  31.014  23.156   2.758
38250W        W99561   0.790   8.191   3.785
38251W        W99562  14.774  26.058   1.419
38252W        W99563  32.460  28.172  12.447
38253W        W99564   9.737  23.988  13.915
38254W        W99565  43.410   9.746   2.662
38255W        W99566  35.506   2.732  14.516
38256W        W99567  11.740  25.574   3.218
38257W        W99568  19.146  41.960   3.277
38258W        W99569  11.801   6.400   2.345
38259W        W99570  44.807  19.257  12.341
38260W        W99571   3.314  22.507  12.496
38261W        W99572  41.354  12.632  13.794
38262W        W99573  11.148  41.991   4.614
38263W        W99574  33.590  43.821  10.442
38264W        W99575  23.060   3.799  12.463
38265W        W99576  19.653  27.510   9.920
38266W        W99577  22.174  13.336   1.796
38267W        W99578  33.586   8.682   5.323
38268W        W99579   0.819  24.190   5.212
38269W        W99580  10.266  33.447  14.944
38270W        W99581  41.467  17.757   4.262
38271W        W99582  33.084  29.963  12.391
38272W        W99583  19.701  11.273   3.757
38273W        W99584  35.422  37.075  10.981
38274W        W99585   7.776  27.681  12.925
38275W        W99586  26.684  34.038  10.503
38276W        W99587  37.834  34.105  14.794
38277W        W99588   3.280  35.497   2.769
38278W        W99589  13.746  15.181   1.266
38279W        W99590  24.599  16.223  10.476
38280W        W99591  41.916  19.588   0.795
38281W        W99592  40.529  28.978   3.811
38282W        W99593   4.942  36.005  11.955
38283W        W99594  35.478  14.303  11.473
38284W        W99595   6.417  10.813   3.265
38285W        W99596   8.867  41.989  14.913
38286W        W99597  33.488  44.765   0.797
38287W        W99598  41.330  28.636   4.147
38288W        W99599   2.306   5.803  13.005
38289W        W99600  29.549  36.950   1.336
38290W        W99601  31.897  17.275  12.451
38291W        W99602  27.038   9.167  14.274
38292W        W99603  43.895  19.738  14.853
38293W        W99604  20.619  39.441  12.847
38294W        W99605   8.686  10.317  11.037
38295W        W99606  23.059   2.375   0.434
38296W        W99607   4.272   2.234   4.812
38297W        W99608  19.100  29.441  10.584
38298W        W99609  30.498  24.501   1.906
38299W        W99610  32.001  27.084  13.055
38300W        W99611   7.779   1.746   3.819
38301W        W99612  27.994   8.365  13.531
38302W        W99613  25.173  21.079   3.209
38303W        W99614  12.798  26.564   4.173
38304W        W99615  41.523  33.046  12.006
38305W        W99616  21.528  28.455  14.963
38306W        W99617   4.842  19.626  12.832
38307W        W99618  43.426   1.473   0.483
38308W        W99619   4.347   3.826   1.306
38309W        W99620   6.308  29.491   4.658
38310W        W99621  14.162  35.890   0.895
38311W        W99622   3.279  14.787  11.013
38312W        W99623   1.474  34.019   2.296
38313W        W99624   5.881  40.531   2.749
38314W        W99625  44.881  40.034  11.044
38315W        W99626   0.466  16.311   4.347
38316W        W99627  32.956   9.228  10.472
38317W        W99628  36.368  32.600   5.135
38318W        W99629  38.872   6.696  10.461
38319W        W99630  21.672  26.643   2.834
38320W        W99631   9.875  38.062   0.965
38321W        W99632  12.785   0.340  10.913
38322W        W99633  20.522  23.041  11.004
38323W        W99634   3.276  23.633  11.487
38324W        W99635  23.238  21.736  14.826
38325W        W99636  38.376  43.502  12.456
38326W        W99637  42.876  33.008  13.388
38327W        W99638   1.969  17.111  10.487
38328W        W99639  31.565  24.105  10.527
38329W        W99640  11.848  12.296   2.860
38330W        W99641  33.875   5.812  13.037
38331W        W99642   9.874  25.667   1.221
38332W        W99643  35.991   3.372  14.385
38333W        W99644  30.595  27.607   2.182
38334W        W99645  26.520   8.771  11.596
38335W        W99646  24.696   4.249  11.954
38336W        W99647  31.518  10.737   1.398
38337W        W99648  37.415  36.587   0.381
38338W        W99649  33.041  15.213  10.480
38339W        W99650  21.254  43.429   5.205
38340W        W99651  28.530  13.599   0.267
38341W        W99652   0.471  44.786  11.602
38342W        W99653   9.775  21.243   2.714
38343W        W99654  41.846  16.649   9.927
38344W        W99655  29.479  19.727  10.951
38345W        W99656  13.121  39.418   4.292
38346W        W99657  37.861  34.935  14.487
38347W        W99658  26.035  43.360   0.401
38348W        W99659  27.194   2.238   4.277
38349W        W99660  28.954  39.901   3.280
38350W        W99661  34.904  27.481   1.820
38351W        W99662  39.472  11.145  13.881
38352W        W99663  39.346  32.977  13.412
38353W        W99664  42.327  44.342  12.994
38354W        W99665  12.845   9.367  13.064
38355W        W99666  39.028  21.127   3.685
38356W        W99667   7.354  29.670   0.365
38357W        W99668  15.621  42.860   5.218
38358W        W99669  40.340  25.024   4.137
38359W        W99670  27.558  13.192   2.719
38360W        W99671  40.949  35.958   2.833
38361W        W99672   6.702  20.755  14.985
38362W        W99673  22.053   8.378   4.648
38363W        W99674  44.908  41.003  14.817
38364W        W99675   0.769  17.083   5.141
38365W        W99676  39.860  35.011  11.384
38366W        W99677   3.881  40.546   4.252
38367W        W99678  35.510  28.980  10.545
38368W        W99679  22.996   0.811   3.325
38369W        W99680  40.383  12.331  11.936
38370W        W99681  26.641  35.037  12.084
38371W        W99682  30.482  35.015  13.475
38372W        W99683  28.058  19.248   4.749
38373W        W99684  30.649  14.750  11.955
38374W        W99685  13.228  44.487  13.934
38375W        W99686  39.812  39.062  13.410
38376W        W99687  15.279   6.706  11.050
38377W        W99688  35.431  20.148   4.672
38378W        W99689  35.486  20.667   3.662
38379W        W99690  29.936   8.228   3.192
38380W        W99691  40.517   0.965   0.357
38381W        W99692  43.768   4.888   2.710
38382W        W99693   6.335  25.017  11.973
38383W        W99694   2.454  20.268   1.223
38384W        W99695   1.313  15.098  12.363
38385W        W99696  18.113  30.556  11.592
38386W        W99697  36.867  37.936  11.459
38387W        W99698  44.917  25.984   4.817
38388W        W99699  43.513   1.289   4.317
38389W        W99700  33.436  39.330  10.471
38390W        W99701  26.964   1.836   2.415
38391W        W99702  19.632   9.772  10.888
38392W        W99703   0.760  23.988   2.854
38393W        W99704  30.126  17.072   0.863
38394W        W99705   0.951  29.098   2.291
38395W        W99706  13.351  29.076   3.386
38396W        W99707   4.851  23.691  12.487
38397W        W99708  37.032  43.852   3.148
38398W        W99709  41.001  41.504   3.814
38399W        W99710  35.097  44.372  13.978
38400W        W99711  40.438  33.496   1.879
38401W        W99712  31.906  42.949  12.457
38402W        W99713  13.742   0.332   1.892
38403W        W99714  44.482   9.684  13.833
38404W        W99715  19.776   8.324  10.567
38405W        W99716  33.601   4.260  12.900
38406W        W99717  28.956   9.307   2.256
38407W        W99718  39.969  15.240   1.415
38408W        W99719   1.953   5.839   1.903
38409W        W99720  41.485   9.764  12.526
38410W        W99721  40.441   6.390  11.513
38411W        W99722  18.662  28.610   4.343
38412W        W99723  23.152  36.957  11.920
38413W        W99724  44.927  35.419   0.907
38414W        W99725  36.045  44.435   1.786
38415W        W99726  44.465   3.443  13.809
38416W        W99727  21.549  28.557  13.800
38417W        W99728  22.207  16.686  13.333
38418W        W99729  14.158  15.108  11.988
38419W        W99730  18.609  17.289  12.873
38420W        W99731  27.592  21.721  12.382
38421W        W99732  12.752  42.898   4.785
38422W        W99733  30.507  29.475  11.879
38423W        W99734  29.629  39.906   1.785
38424W        W99735   4.445  43.442   1.831
38425W        W99736  19.650  19.183  10.557
38426W        W99737  37.553  31.004  14.820
38427W        W99738   6.685  22.605  11.970
38428W        W99739  26.613  10.713  13.853
38429W        W99740  28.542  13.718   4.227
38430W        W99741  13.217  44.873  12.388
38431W        W99742  25.042  37.359  14.332
38432W        W99743  22.020  40.895   4.333
38433W        W99744  44.493  14.177   0.443
38434W        W99745  29.070  23.123  11.535
38435W        W99746  29.474  26.570  14.329
38436W        W99747   3.405  31.000   2.792
38437W        W99748  10.636  26.556   4.630
38438W        W99749   5.827  36.846  14.403
38439W        W99750  31.116  33.003  10.890
38440W        W99751  40.426  11.801   2.816
38441W        W99752  37.897  37.034   1.397
38442W        W99753  40.445   3.243  10.023
38443W        W99754  13.646   1.791   3.337
38444W        W99755  17.571  36.356  14.492
38445W        W99756   9.704  29.564  11.877
38446W        W99757   2.385  27.959   3.802
38447W        W99758  10.856  10.838   4.352
38448W        W99759  44.791  39.865   4.214
38449W        W99760  12.611  42.917   3.770
38450W        W99761  37.067  31.108  13.322
38451W        W99762  29.581  30.127   1.877
38452W        W99763  26.637  11.850   1.369
38453W        W99764   0.803  15.809   1.257
38454W        W99765  40.904  23.123   3.672
38455W        W99766  41.318   6.894  11.913
38456W        W99767  30.485   1.735  13.823
38457W        W99768  29.589  23.524  14.854
38458W        W99769  28.078  40.819   4.754
38459W        W99770   3.869  43.784  11.603
38460W        W99771   3.404   4.284   4.149
38461W        W99772  38.935   0.965  14.834
38462W        W99773  34.606   6.250  14.776
38463W        W99774   9.803  40.890   2.717
38464W        W99775  13.667  13.312   0.377
38465W        W99776  29.541  21.738   3.281
38466W        W99777  14.611   8.367  10.539
38467W        W99778  28.012   4.934   3.196
38468W        W99779  32.967  26.516  10.945
38469W        W99780  33.956   9.339   3.704
38470W        W99781  38.532  27.185   2.337
38471W        W99782   2.815  34.970   0.810
38472W        W99783  44.952  37.366  12.831
38473W        W99784  26.193  21.593  13.806
38474W        W99785  10.779  30.553  11.529
38475W        W99786  42.781  37.538  12.417
38476W        W99787  32.108  11.351   4.699
38477W        W99788  12.841  15.322  13.412
38478W        W99789   4.369  29.559   1.838
38479W        W99790  27.518   7.896  13.359
38480W        W99791   7.328  28.435   2.315
38481W        W99792  15.587  33.489   2.236
38482W        W99793  28.116  21.758  14.775
38483W        W99794  36.929   9.379  11.495
38484W        W99795  19.190  18.592  14.414
38485W        W99796  41.906  35.428   1.241
38486W        W99797  41.529  18.646   4.217
38487W        W99798  40.479  34.495  14.856
38488W        W99799  13.696  17.094  13.062
38489W        W99800  16.193   9.830  14.824
38490W        W99801  13.262  42.825  11.523
38491W        W99802  39.851   5.380  13.423
38492W        W99803  35.923  19.606  14.804
38493W        W99804   8.355  22.223   0.889
38494W        W99805  11.704  19.565  14.981
38495W        W99806  11.696  23.679  11.571
38496W        W99807   5.352  36.587  10.926
38497W        W99808  18.124  27.117   0.417
38498W        W99809  18.174   0.972  12.916
38499W        W99810  32.111  36.476   5.302
38500W        W99811  37.349  30.993   1.736
38501W        W99812  38.541   5.292  13.899
38502W        W99813   4.759   6.378   3.644
38503W        W99814  24.984  17.169   1.718
38504W        W99815  32.105  35.013  14.822
38505W        W99816   9.845  39.527   4.776
38506W        W99817  43.856  17.698  14.784
38507W        W99818  42.401   9.799   0.375
38508W        W99819  44.412  31.084  14.929
38509W        W99820  26.680  17.301   4.742
38510W        W99821  30.986  44.839  13.046
38511W        W99822  39.037  18.083  10.098
38512W        W99823  30.492  20.616  11.024
38513W        W99824  42.821  16.179   2.242
38514W        W99825  31.431  36.988  11.406
38515W        W99826   8.816  10.184  14.822
38516W        W99827   4.415  27.563  14.284
38517W        W99828  44.790  42.855   3.704
38518W        W99829  24.023  35.530  11.378
38519W        W99830  10.292   6.711   1.763
38520W        W99831  43.499   7.254   4.652
38521W        W99832  38.054  41.808   0.748
38522W        W99833  29.528   8.184   3.188
38523W        W99834  43.479  40.534  14.998
38524W        W99835  26.168  41.916   2.363
38525W        W99836  44.445  11.184  11.055
38526W        W99837  18.768  33.388  12.881
38527W        W99838  35.424  10.776   4.612
38528W        W99839  27.621   8.338  12.900
38529W        W99840  27.027   5.257  10.970
38530W        W99841  17.121  29.051  10.550
38531W        W99842  26.557  25.115   2.809
38532W        W99843  29.943  12.325   4.294
38533W        W99844  27.056   4.450  14.364
38534W        W99845   8.362  16.631  13.013
38535W        W99846  21.680  32.576  11.495
38536W        W99847  13.793   0.971  12.459
38537W        W99848  36.493  38.503  14.867
38538W        W99849   8.161   1.287   4.147
38539W        W99850   6.712  15.237  13.997
38540W        W99851  19.174   6.746  11.460
38541W        W99852   9.662  39.905  10.424
38542W        W99853  33.040  19.189  14.758
38543W        W99854  36.443  21.707  14.372
38544W        W99855  23.148  24.612  11.382
38545W        W99856  16.240  27.568  11.883
38546W        W99857  36.934   8.800   2.405
38547W        W99858  22.144  35.963   5.235
38548W        W99859   2.463   8.659  10.487
38549W        W99860  35.420  34.893  11.439
38550W        W99861   9.318  22.576  13.402
38551W        W99862  34.960  18.253  10.551
38552W        W99863   2.238   9.177  10.940
38553W        W99864   0.770  40.016   1.279
38554W        W99865  31.511  20.268  11.120
38555W        W99866  42.500  28.442   0.332
38556W        W99867  39.498  13.663   3.745
38557W        W99868  28.483  15.805  13.479
38558W        W99869  27.177  20.687  14.789
38559W        W99870   8.708  43.366  13.914
38560W        W99871  31.996  44.785  14.885
38561W        W99872  10.824  39.040  14.476
38562W        W99873   1.941  18.139   1.767
38563W        W99874  13.271  28.975  12.033
38564W        W99875  36.574  25.483  11.413
38565W        W99876  43.859  42.948  14.891
38566W        W99877  40.490   9.830   3.736
38567W        W99878  14.725  26.114   5.789
38568W        W99879  24.152   9.710  12.544
38569W        W99880  33.414  13.313   2.797
38570W        W99881   8.738  26.535  11.083
38571W        W99882  20.271   1.344  13.915
38572W        W99883  22.640   0.392   4.327
38573W        W99884  41.376   1.768  12.573
38574W        W99885  26.112   8.338   0.243
38575W        W99886  26.152   0.822  12.436
38576W        W99887  25.096  33.560   1.757
38577W        W99888   6.346   4.737  12.914
38578W        W99889  24.015  28.484   4.737
38579W        W99890  43.948  28.646  12.930
38580W        W99891  42.977  17.094   1.245
38581W        W99892  25.187   0.812  10.572
38582W        W99893  38.553  16.611   3.658
38583W        W99894  31.097   3.884   3.281
38584W        W99895  23.216   9.889   2.719
38585W        W99896  42.409  38.370   2.900
38586W        W99897  36.927  35.889   0.941
38587W        W99898  20.632  28.112   4.704
38588W        W99899  27.490   9.344  12.470
38589W        W99900  15.239  34.879   0.439
38590W        W99901  22.684  10.287  13.947
38591W        W99902  21.527  21.522   0.464
38592W        W99903  20.524  33.589  11.519
38593W        W99904  16.178  19.575   1.875
38594W        W99905  40.863  24.976  11.916
38595W        W99906  35.017  44.916   3.697
38596W        W99907  22.728  36.015  12.940
38597W        W99908  25.018  21.653   4.305
38598W        W99909  21.663  22.529  11.495
38599W        W99910  18.662   0.778  12.025
38600W        W99911  35.374  30.609  14.904
38601W        W99912  28.045   6.816   2.865
38602W        W99913  22.626  35.408  10.639
38603W        W99914  30.494  17.754   2.277
38604W        W99915  44.295   7.854  12.353
38605W        W99916  14.727  29.080  12.359
38606W        W99917  42.949  21.064  10.541
38607W        W99918  31.953   8.658  11.907
38608W        W99919  40.509  14.224  10.136
38609W        W99920  39.883  26.999   0.326
38610W        W99921   2.414  44.759  13.472
38611W        W99922  33.403  11.695  13.452
38612W        W99923  33.613  23.519  14.933
38613W        W99924  35.102  40.802   3.227
38614W        W99925  23.725  14.616   1.225
38615W        W99926  11.338  30.089  14.013
38616W        W99927  15.609  11.341  14.905
38617W        W99928   8.219  20.763  12.995
38618W        W99929  17.762   0.855  11.379
38619W        W99930  29.463  22.565   4.243
38620W        W99931  17.642  34.486   3.208
38621W        W99932  18.777  23.719  13.474
38622W        W99933  35.595  16.243   3.674
38623W        W99934  39.443  32.035  14.832
38624W        W99935  40.437   8.804  13.936
38625W        W99936   8.890   9.745   0.320
38626W        W99937  36.406  23.102   2.866
38627W        W99938  22.504  22.067  12.078
38628W        W99939  19.193   7.382   0.476
38629W        W99940  18.181  31.011   3.760
38630W        W99941  27.032  43.314  13.453
38631W        W99942   7.865  34.546  10.023
38632W        W99943  24.706   9.709  11.960
38633W        W99944   5.230  24.140  11.863
38634W        W99945  16.646  22.528   4.354
38635W        W99946  34.381  35.444  10.468
38636W        W99947  40.916   0.446   0.777
38637W        W99948  14.827  30.135   4.773
38638W        W99949  29.967  42.905  14.925
38639W        W99950  29.544  13.604  13.001
38640W        W99951  19.568  11.713  14.993
38641W        W99952   6.778   9.167   0.351
38642W        W99953  37.488   2.904   3.635
38643W        W99954   2.816  27.120  14.004
38644W        W99955  21.617  21.669  12.974
38645W        W99956  42.010  26.094   3.636
38646W        W99957  28.131  18.581  10.041
38647W        W99958   4.863  17.727  14.929
38648W        W99959  35.484  24.176  13.827
38649W        W99960  40.399  30.965  14.476
38650W        W99961   4.900  31.896  13.972
38651W        W99962  14.595  33.513  10.592
38652W        W99963   9.306  21.610   4.315
38653W        W99964   3.385   4.347   3.686
38654W        W99965   4.783  39.457  13.494
38655W        W99966  18.704  22.009  12.907
38656W        W99967  28.011  23.133  11.962
38657W        W99968  25.685  28.452   3.322
38658W        W99969  28.533  42.026  12.918
38659W        W99970  29.932  18.679   1.326
38660W        W99971  16.645  37.964  13.995
38661W        W99972  28.449  40.536   1.415
38662W        W99973  27.962   2.908  11.450
38663W        W99974   3.879  40.866  11.928
38664W        W99975   1.415  30.589   4.143
38665W        W99976  36.041   5.898   1.394
38666W        W99977   0.986  37.483   2.693
38667W        W99978  11.848  19.661   3.277
38668W        W99979  42.377  27.169  11.410
38669W        W99980  15.159  23.051  13.521
38670W        W99981  19.162  10.832  13.433
38671W        W99982   4.388   9.265   0.746
38672W        W99983   3.312  15.257   4.258
38673W        W99984  27.125   7.286   2.784
38674W        W99985  12.774   3.721   4.795
38675W        W99986  24.034  39.018  11.531
38676W        W99987   8.738  21.581  11.902
38677W        W99988   1.357   5.355   2.784
38678W        W99989  15.089  27.626   1.782
38679W        W99990  20.646  11.346   1.921
38680W        W99991  29.941  38.371  11.976
38681W        W99992  23.710  23.038   4.716
38682W        W99993  44.794  15.696   4.655
38683W        W99994  41.845  36.374  13.821
38684W        W99995  25.588  28.594  12.904
38685W        W99996  23.639  15.704   1.728
38686W        W99997   4.826  44.791   4.629
38687W        W99998   7.793  26.140   2.883
38688W        W99999  20.094  18.215   3.364
38689W        W    0  18.685  24.993  14.407
38690W        W    1  13.608  32.624   1.341
38691W        W    2  23.664  10.668   3.755
38692W        W    3  44.964  12.846  11.553
38693W        W    4  40.418  34.007   0.326
38694W        W    5  14.210   0.386  11.557
38695W        W    6  20.080  15.161   5.778
38696W        W    7  12.674  23.055   0.952
38697W        W    8  15.759  29.154   1.231
38698W        W    9   8.724  10.376  12.927
38699W        W   10  17.737  17.128   1.725
38700W        W   11  15.272  31.913   3.673
38701W        W   12  13.121  27.181   3.809
38702W        W   13  19.761  23.630   2.789
38703W        W   14  21.728  32.113   3.345
38704W        W   15   1.834  44.272   4.262
38705W        W   16  30.657  24.175   2.299
38706W        W   17  30.433  19.129  14.372
38707W        W   18   4.925  29.071   2.813
38708W        W   19   1.740  23.669  14.326
38709W        W   20   8.706  34.544   0.257
38710W        W   21  37.513  42.009  13.352
38711W        W   22  33.454  22.536  12.532
38712W        W   23  28.586  24.214   4.268
38713W        W   24  38.054  38.414   2.402
38714W        W   25  13.114   6.756  13.523
38715W        W   26  22.205  23.590   1.393
38716W        W   27   0.957  10.321   3.163
38717W        W   28  34.069  42.484   4.617
38718W        W   29   3.274  43.385  14.959
38719W        W   30  18.184  21.638  10.427
38720W        W   31   7.797   2.253  12.528
38721W        W   32  16.583  11.756  10.946
38722W        W   33   7.854  23.586   4.236
38723W        W   34  13.622  14.153  13.345
38724W        W   35  38.918  20.216   1.336
38725W        W   36  21.543  22.202   4.615
38726W        W   37  31.914  30.074   2.831
38727W        W   38  31.986  29.099  11.088
38728W        W   39  34.371  32.557   2.827
38729W        W   40  33.436  16.799   3.665
38730W        W   41   6.231  38.025   3.237
38731W        W   42   1.765  41.395   2.709
38732W        W   43  22.015  11.168   0.326
38733W        W   44  23.497  38.065  12.859
38734W        W   45  21.689   3.891   0.301
38735W        W   46  44.763  34.978   1.340
38736W        W   47  13.812   9.652   0.319
38737W        W   48   1.404  31.001   0.431
38738W        W   49  31.434  42.525   1.436
38739W        W   50  28.120   9.377   1.242
38740W        W   51  38.384  19.635   3.156
38741W        W   52  41.326  36.929   2.693
38742W        W   53  33.625  44.335   0.849
38743W        W   54   5.438  36.476   2.266
38744W        W   55  21.023   5.877  13.053
38745W        W   56   4.337  23.558   2.705
38746W        W   57   8.884   1.852  11.411
38747W        W   58  19.600   1.383   3.147
38748W        W   59   7.208  39.389  10.420
38749W        W   60  42.839  15.160  10.998
38750W        W   61  21.099  44.453   2.245
38751W        W   62   6.269  36.945   0.271
38752W        W   63   2.822  32.446   2.741
38753W        W   64  44.276   0.289  13.506
38754W        W   65  37.394  39.854   4.801
38755W        W   66  16.585  33.509  13.440
38756W        W   67  37.060  35.561  11.104
38757W        W   68  16.586  37.967   1.400
38758W        W   69  33.552   9.366  11.876
38759W        W   70  36.350   1.374   4.221
38760W        W   71   1.773   2.260   5.099
38761W        W   72  33.560  23.996   0.759
38762W        W   73  23.026  13.695  11.106
38763W        W   74  36.913  26.635   0.289
38764W        W   75  12.312  38.363   4.125
38765W        W   76  33.613   1.747   0.873
38766W        W   77  21.156  30.635  12.953
38767W        W   78  15.653  21.613  14.016
38768W        W   79   4.239   9.661  13.813
38769W        W   80  19.628  24.080   1.288
38770W        W   81  12.747  12.294   3.860
38771W        W   82  35.565  34.374  11.926
38772W        W   83  14.773   5.867   1.361
38773W        W   84  21.733  23.131  13.803
38774W        W   85  34.415   9.841   3.841
38775W        W   86   9.237  20.607   2.684
38776W        W   87  37.374  37.446   9.579
38777W        W   88  29.087  32.034   3.836
38778W        W   89  17.155   8.868   0.904
38779W        W   90  21.729  29.642  14.357
38780W        W   91  28.608   2.310  11.944
38781W        W   92  36.846  18.076  11.090
38782W        W   93  21.736  13.122   3.285
38783W        W   94  31.979  30.639   3.216
38784W        W   95   4.731  14.314   0.815
38785W        W   96  17.181  37.971  14.793
38786W        W   97  43.791  33.452  12.040
38787W        W   98  43.442  20.114   1.864
38788W        W   99  42.997  16.758  14.496
38789W        W  100  37.066  23.214   3.333
38790W        W  101  16.116  30.110  11.920
38791W        W  102  12.168  16.597  12.578
38792W        W  103  37.538  14.309   0.421
38793W        W  104  16.689  18.557   3.723
38794W        W  105  13.242  14.652   1.325
38795W        W  106  36.488  30.501   0.474
38796W        W  107   4.925  37.833  12.057
38797W        W  108  39.047  12.228   1.224
38798W        W  109  18.271  18.767   3.731
38799W        W  110  22.591   8.211   2.286
38800W        W  111  37.400  33.441   4.655
38801W        W  112  21.590  12.832   2.799
38802W        W  113  20.766   2.270   1.848
38803W        W  114   6.345  38.540   0.867
38804W        W  115  27.063  17.584   3.730
38805W        W  116  10.323  24.060   1.216
38806W        W  117  33.060  20.760   4.220
38807W        W  118  43.937  34.552  14.314
38808W        W  119  24.226  38.343   2.782
38809W        W  120  40.819  28.533   4.672
38810W        W  121  34.491  26.521  10.027
38811W        W  122  15.192  40.861   1.730
38812W        W  123  36.398   3.245  13.026
38813W        W  124   7.268  39.378  13.989
38814W        W  125   4.762  36.059  13.516
38815W        W  126   5.374  26.658  14.939
38816W        W  127   3.761  18.682  13.857
38817W        W  128  35.994  36.382   3.824
38818W        W  129  43.313  24.075   1.771
38819W        W  130  14.196   7.858   3.859
38820W        W  131   2.272   7.831  13.989
38821W        W  132  18.591  38.469   4.232
38822W        W  133  18.662  26.620  13.000
38823W        W  134  19.248   7.725   3.255
38824W        W  135  10.837  33.600   0.317
38825W        W  136  31.965  41.917  11.015
38826W        W  137  40.532   3.331  13.416
38827W        W  138   0.410  32.055   4.195
38828W        W  139  29.481   3.311   0.399
38829W        W  140  42.785   8.306   0.422
38830W        W  141  28.171  29.438  11.955
38831W        W  142  12.119  29.132   2.845
38832W        W  143  22.213  26.558  11.397
38833W        W  144   8.277  32.456   2.884
38834W        W  145  38.039   0.322   0.462
38835W        W  146  40.473   8.307   3.234
38836W        W  147  23.013   2.357   1.269
38837W        W  148  12.815  32.087  11.480
38838W        W  149  14.135   0.962   2.373
38839W        W  150  42.963  29.973   1.377
38840W        W  151  18.784  22.518   3.796
38841W        W  152  10.381   9.382   2.794
38842W        W  153  44.444  20.052   3.639
38843W        W  154  41.905  38.429  12.035
38844W        W  155  12.196  30.136  11.856
38845W        W  156  23.640  39.465   3.252
38846W        W  157  23.103  38.015   0.367
38847W        W  158  31.573  10.161   2.756
38848W        W  159  14.211  28.016   4.237
38849W        W  160  38.961  24.591   3.865
38850W        W  161  16.788  42.362   3.349
38851W        W  162   7.257  19.550  11.379
38852W        W  163  42.326  13.138  14.908
38853W        W  164   7.741   9.379   2.298
38854W        W  165  26.156  15.800   1.866
38855W        W  166  32.962   0.355  10.637
38856W        W  167   4.821  11.137   3.225
38857W        W  168  15.107   7.406  14.022
38858W        W  169  12.792   3.418   4.139
38859W        W  170  12.669  34.479  11.043
38860W        W  171  38.387  23.506   2.190
38861W        W  172  17.610  34.529  13.975
38862W        W  173  34.986  39.409   1.295
38863W        W  174  39.411  36.869  11.021
38864W        W  175  28.584   8.372   4.160
38865W        W  176  12.185   7.690  10.958
38866W        W  177  35.026  21.610   4.140
38867W        W  178   1.311  42.389   0.944
38868W        W  179  30.621  32.052  11.446
38869W        W  180   3.748  16.647   1.407
38870W        W  181  23.640  14.780   3.374
38871W        W  182  35.956  44.003   3.217
38872W        W  183  18.194  20.037   0.459
38873W        W  184   3.457  28.062  10.450
38874W        W  185   3.945  23.012   0.296
38875W        W  186   9.372  42.844  14.359
38876W        W  187  11.284   2.827  11.030
38877W        W  188  11.260  16.154   4.833
38878W        W  189  30.951  21.645   1.807
38879W        W  190  38.041   9.363  12.011
38880W        W  191  14.703   3.289  14.767
38881W        W  192  31.153  28.947  11.952
38882W        W  193  11.675  40.901  11.912
38883W        W  194   7.351  39.036  12.882
38884W        W  195   9.733  29.939  13.016
38885W        W  196  28.935   0.955   4.196
38886W        W  197  37.864  43.430  12.888
38887W        W  198  41.874  15.637   3.327
38888W        W  199  25.157  14.118   0.265
38889W        W  200  36.073  16.639  12.502
38890W        W  201   9.709   8.208  14.819
38891W        W  202  17.229  11.712   3.309
38892W        W  203  24.544  33.510   0.929
38893W        W  204   2.755   0.374   1.442
38894W        W  205  32.963  36.946   2.808
38895W        W  206  20.218  14.634  11.022
38896W        W  207  16.099  27.037  13.430
38897W        W  208  16.279  21.641   0.769
38898W        W  209  20.179  14.189   0.818
38899W        W  210  33.622  24.147   1.816
38900W        W  211  28.929  35.859   4.278
38901W        W  212  27.592  32.550  11.978
38902W        W  213  19.617  32.547   0.264
38903W        W  214  28.153  24.057  11.459
38904W        W  215  43.269   8.825   0.268
38905W        W  216  32.423  12.336  12.542
38906W        W  217  15.169  37.913  12.541
38907W        W  218  27.979   0.482  11.092
38908W        W  219   1.478  22.726  11.049
38909W        W  220  24.658  22.168  14.811
38910W        W  221  30.981  11.281  11.120
38911W        W  222   2.727  26.125   4.352
38912W        W  223  35.886  25.144   1.825
38913W        W  224  12.825  35.025   4.314
38914W        W  225   2.876  20.752   4.680
38915W        W  226  16.267  23.049  13.315
38916W        W  227  44.428  27.525  12.015
38917W        W  228  27.461   0.374   1.283
38918W        W  229  19.241  12.798   1.332
38919W        W  230  19.109  40.459  12.003
38920W        W  231   8.799  35.930   2.808
38921W        W  232   4.855   6.912   2.725
38922W        W  233  23.053  27.150   2.697
38923W        W  234  40.003  23.575   2.401
38924W        W  235  39.459  36.936   4.298
38925W        W  236   0.906   4.421   4.785
38926W        W  237   5.765  35.865   4.274
38927W        W  238  17.751  26.060   4.290
38928W        W  239   4.394  30.510  11.054
38929W        W  240  13.304   5.724   0.380
38930W        W  241   4.823  40.451   3.384
38931W        W  242  11.672  25.101  10.425
38932W        W  243   3.789  24.625  12.888
38933W        W  244  10.791  16.250  13.936
38934W        W  245  14.192  35.871  12.854
38935W        W  246   3.416  34.508  12.032
38936W        W  247  19.250  38.557  11.129
38937W        W  248  44.940  36.949  11.456
38938W        W  249  24.492  25.113  14.981
38939W        W  250  43.983  33.107   1.935
38940W        W  251  33.078  19.588   3.808
38941W        W  252   1.736  39.845  12.391
38942W        W  253  20.689  29.541   0.749
38943W        W  254   9.170  36.879  11.418
38944W        W  255  14.721  19.671   3.368
38945W        W  256  31.403  33.416  12.396
38946W        W  257  22.158  40.814  13.020
38947W        W  258  24.055  27.116   1.749
38948W        W  259  43.330  27.050   2.345
38949W        W  260  22.105  13.316  10.620
38950W        W  261  33.380  41.863   3.250
38951W        W  262  44.300  18.273  14.356
38952W        W  263  43.898  30.947  14.993
38953W        W  264  43.906   3.730  11.436
38954W        W  265  21.077  38.397  10.920
38955W        W  266  38.424  29.926   3.806
38956W        W  267   0.971  17.710  11.536
38957W        W  268   1.381  23.155  11.864
38958W        W  269  33.436   7.736   0.372
38959W        W  270  16.180  29.642   0.285
38960W        W  271  29.518  15.820  14.980
38961W        W  272   4.204  16.616  10.085
38962W        W  273  39.477  27.055   4.695
38963W        W  274  19.546  42.873  11.893
38964W        W  275  13.186   3.803   3.146
38965W        W  276  36.379  44.346   2.716
38966W        W  277  23.596  14.338   5.111
38967W        W  278  33.579  37.528   3.311
38968W        W  279  30.570   7.345  13.971
38969W        W  280   9.815  40.872   1.741
38970W        W  281   8.896  41.536   3.862
38971W        W  282  10.800  27.531   1.381
38972W        W  283  36.865  17.783  13.500
38973W        W  284  22.732  41.865  14.776
38974W        W  285   4.899  39.915   0.861
38975W        W  286  31.443  19.650   0.430
38976W        W  287  38.858  44.807  11.939
38977W        W  288  43.852  23.716   3.377
38978W        W  289  20.047  29.532   1.842
38979W        W  290  23.690   5.205  11.994
38980W        W  291  13.672  17.250   0.402
38981W        W  292  27.500  27.631   0.301
38982W        W  293  35.402  11.838  13.532
38983W        W  294  38.338   1.297   3.815
38984W        W  295  42.469  20.251  13.440
38985W        W  296   4.851  38.347   0.449
38986W        W  297  34.465  19.573  10.950
38987W        W  298  30.062  44.940  11.413
38988W        W  299  25.618   0.263  10.948
38989W        W  300  43.843  43.330  14.027
38990W        W  301  18.165  43.948  13.916
38991W        W  302   1.898  12.674   4.703
38992W        W  303  41.469  40.492  12.830
38993W        W  304  37.057  42.007  11.560
38994W        W  305  44.904  29.011  14.289
38995W        W  306   3.437   2.301   1.380
38996W        W  307   2.876  37.519  14.992
38997W        W  308  15.144   6.283   2.699
38998W        W  309  12.258  19.102  14.794
38999W        W  310  38.461  29.465  10.889
39000W        W  311  11.282   4.308   4.820
39001W        W  312  23.693  36.005  11.109
39002W        W  313   0.885   2.359   3.362
39003W        W  314  19.201  15.755   3.770
39004W        W  315  30.913   0.887  13.507
39005W        W  316  14.668  40.861  14.020
39006W        W  317  29.527  14.101  14.916
39007W        W  318  34.585  38.507   3.251
39008W        W  319  20.275  44.853   4.281
39009W        W  320  43.441  42.506  13.889
39010W        W  321   2.841   0.832   0.365
39011W        W  322  10.331   2.275  12.964
39012W        W  323  32.575  37.085   3.165
39013W        W  324  30.937  33.986  11.916
39014W        W  325  39.051  13.233  14.787
39015W        W  326   7.323  25.476  14.920
39016W        W  327  30.513  36.422   4.313
39017W        W  328  31.999  31.002   3.215
39018W        W  329  12.618  20.242  11.071
39019W        W  330  12.724  25.024   4.699
39020W        W  331   2.852  21.658  11.552
39021W        W  332  27.543   1.483   3.761
39022W        W  333   1.732   8.879   3.318
39023W        W  334  38.417  42.021   0.908
39024W        W  335  42.898   7.389   3.767
39025W        W  336  23.540  11.362   4.132
39026W        W  337  11.340  24.980  13.419
39027W        W  338  23.111  42.833  12.874
39028W        W  339  42.424   8.765   1.384
39029W        W  340  38.065   2.886  13.468
39030W        W  341   0.374  24.020   3.253
39031W        W  342   6.405  19.644  10.140
39032W        W  343  14.340  32.114  14.287
39033W        W  344  13.635  32.452  14.374
39034W        W  345  19.078  10.857   4.738
39035W        W  346   1.333  27.593   1.299
39036W        W  347  24.621  10.320  13.874
39037W        W  348  44.995  42.876   0.783
39038W        W  349   2.940  10.827   4.776
39039W        W  350  22.008   6.681  14.411
39040W        W  351   5.910  40.480  13.545
39041W        W  352   8.665  42.776  10.947
39042W        W  353   9.158  29.576   2.277
39043W        W  354  30.482  12.232   2.411
39044W        W  355  30.596   6.718   0.746
39045W        W  356   2.828  30.913   0.786
39046W        W  357   9.259  17.800  10.915
39047W        W  358   1.409  35.389   2.872
39048W        W  359  40.459  30.533  11.858
39049W        W  360  20.713   1.815  13.430
39050W        W  361  27.494  17.264  13.445
39051W        W  362  31.102  37.512   3.691
39052W        W  363  17.186  22.712  11.449
39053W        W  364  20.242  32.497   2.249
39054W        W  365  18.079  44.438   1.700
39055W        W  366  32.913   9.831   1.864
39056W        W  367  10.772   8.320  11.988
39057W        W  368  17.141  31.146  11.521
39058W        W  369   7.248  28.481  14.000
39059W        W  370   5.405  11.330   3.239
39060W        W  371   2.255   0.293  14.897
39061W        W  372  22.094   6.841  13.328
39062W        W  373   5.885  39.838   4.314
39063W        W  374  27.067   4.852  10.111
39064W        W  375  33.123  31.012  12.571
39065W        W  376  31.925  43.012  14.374
39066W        W  377   4.873   7.788  13.905
39067W        W  378  34.991  39.501  12.073
39068W        W  379  23.580  38.395   2.400
39069W        W  380  11.278   0.974  12.956
39070W        W  381  27.619  18.739   1.325
39071W        W  382  20.605  17.184  14.809
39072W        W  383  28.071  13.733  13.318
39073W        W  384  25.116   4.382   2.215
39074W        W  385   3.237  26.077  11.465
39075W        W  386  19.642  34.548   2.255
39076W        W  387  32.614  30.499  14.296
39077W        W  388  32.997   4.764   4.627
39078W        W  389   7.864  24.647   3.346
39079W        W  390  11.210   0.784   1.842
39080W        W  391   3.334  17.213   2.389
39081W        W  392  20.165   2.387  11.023
39082W        W  393  28.170  43.429  11.857
39083W        W  394  22.636   1.882   4.658
39084W        W  395  10.708  38.919   4.354
39085W        W  396  35.396   5.278   4.267
39086W        W  397  42.437  11.345   0.907
39087W        W  398  24.586  44.915  12.012
39088W        W  399  22.645  10.245   4.802
39089W        W  400   4.322   8.194   4.629
39090W        W  401  18.559   7.824  10.617
39091W        W  402  12.657  26.175  12.442
39092W        W  403   0.486  37.508   1.918
39093W        W  404   4.261   7.343  11.419
39094W        W  405  36.485   9.650   2.290
39095W        W  406   8.166  30.128   0.447
39096W        W  407  42.002   7.758  11.387
39097W        W  408  33.906  40.906   9.657
39098W        W  409  12.730  14.317   2.668
39099W        W  410  31.535  30.148  12.852
39100W        W  411   3.792   3.888  11.555
39101W        W  412   5.845   0.925   3.253
39102W        W  413   1.756   0.292  10.513
39103W        W  414  15.697   7.892   2.841
39104W        W  415   4.409  19.635   1.785
39105W        W  416  43.293  31.904  11.121
39106W        W  417   8.841  11.752  14.359
39107W        W  418  24.551  38.013   0.876
39108W        W  419  34.023  41.002  12.562
39109W        W  420   6.393   6.916   0.415
39110W        W  421  10.719   7.742  11.114
39111W        W  422  32.511  14.179  13.832
39112W        W  423  43.907   0.747  13.383
39113W        W  424  26.697  27.479  10.441
39114W        W  425   0.973   1.377  12.346
39115W        W  426  40.352  43.974   2.702
39116W        W  427  40.473   7.866  13.858
39117W        W  428  27.171  27.030  12.920
39118W        W  429  43.395  29.506  13.014
39119W        W  430  38.544  29.038  14.917
39120W        W  431  28.955   0.836  10.473
39121W        W  432  31.039  10.338   3.268
39122W        W  433  12.257  23.188  14.483
39123W        W  434  23.102  19.752   1.808
39124W        W  435   7.702   3.950   3.769
39125W        W  436  11.145   4.939   4.651
39126W        W  437  31.643  12.664   4.293
39127W        W  438  33.398  30.425  14.322
39128W        W  439  41.003  35.893  14.274
39129W        W  440  25.554  31.591   1.912
39130W        W  441  26.082   4.916   2.381
39131W        W  442  40.832  27.167  10.572
39132W        W  443  29.519  21.659  11.592
39133W        W  444  36.440  39.455  14.277
39134W        W  445   0.779  41.476   2.292
39135W        W  446  22.555   3.348   1.708
39136W        W  447  28.464   9.773   9.544
39137W        W  448  42.372   3.398   2.349
39138W        W  449  12.258  33.390  10.958
39139W        W  450   8.884  12.319   2.788
39140W        W  451  42.297  29.042  13.484
39141W        W  452  33.996  10.306  10.469
39142W        W  453  23.156   7.173   1.325
39143W        W  454  11.796  43.935  14.337
39144W        W  455  25.032  36.451  13.342
39145W        W  456  29.648   3.741   1.311
39146W        W  457  27.499   0.290  14.968
39147W        W  458  42.298  40.432  14.922
39148W        W  459   2.891  12.669  14.961
39149W        W  460  29.445  39.539   3.218
39150W        W  461  27.001  11.130   1.241
39151W        W  462  42.517  40.453  10.553
39152W        W  463  14.110  10.833   4.352
39153W        W  464  12.266  15.316  14.858
39154W        W  465  27.532   2.782   3.831
39155W        W  466  10.702   8.398  14.898
39156W        W  467  12.614  20.195  12.433
39157W        W  468  23.667   6.395   1.839
39158W        W  469  20.639   0.899  13.939
39159W        W  470  43.797  22.667  12.053
39160W        W  471  17.236  10.787   3.854
39161W        W  472   0.826  27.070  12.544
39162W        W  473  43.275   7.242   4.290
39163W        W  474  13.153   4.740   4.712
39164W        W  475   7.769  19.566  12.957
39165W        W  476   8.401  35.881   1.803
39166W        W  477  40.398  12.135  13.402
39167W        W  478  16.282   3.439  14.436
39168W        W  479  10.253  35.966  10.574
39169W        W  480  29.976  15.299   0.916
39170W        W  481  41.020  11.211  11.406
39171W        W  482  36.095  33.593  14.490
39172W        W  483  19.555  40.033   4.265
39173W        W  484   8.310  24.983   2.671
39174W        W  485  40.833  39.443  14.902
39175W        W  486  31.568  12.195  13.949
39176W        W  487  24.592  43.298  12.876
39177W        W  488  39.416  16.743   3.359
39178W        W  489   9.719   6.307   4.808
39179W        W  490  15.652  27.563   1.267
39180W        W  491  15.589  30.971   3.180
39181W        W  492  21.209   3.340  14.382
39182W        W  493  32.603   5.849   4.259
39183W        W  494  42.842  10.363   0.763
39184W        W  495  15.269  22.671   4.797
39185W        W  496  40.338   5.763   0.746
39186W        W  497  33.467  22.640   0.245
39187W        W  498  13.317   3.868   1.769
39188W        W  499  33.938   8.393   1.904
39189W        W  500  18.641  44.278   3.711
39190W        W  501  18.659  10.241   3.370
39191W        W  502  17.722  10.173   0.453
39192W        W  503   8.338  23.580   3.283
39193W        W  504  27.139  27.481  13.491
39194W        W  505  22.517  13.234   0.341
39195W        W  506  37.076  20.260   1.384
39196W        W  507   5.933  37.375  11.117
39197W        W  508  23.050  36.847   1.446
39198W        W  509  33.626  28.447  11.064
39199W        W  510  24.556  19.081  13.809
39200W        W  511  38.522   7.702  11.093
39201W        W  512   9.345  29.454  13.537
39202W        W  513  16.134   5.898   2.212
39203W        W  514  13.306  35.573   1.834
39204W        W  515   2.346  42.959  13.019
39205W        W  516  41.398   6.203  13.061
39206W        W  517  35.929   5.860  10.536
39207W        W  518  17.691  19.221  10.579
39208W        W  519   9.797  12.693  12.031
39209W        W  520  12.843   9.779   1.817
39210W        W  521  16.669   8.237  12.066
39211W        W  522  10.735  10.803   2.770
39212W        W  523   5.370  28.469  13.052
39213W        W  524   9.326   3.906   4.142
39214W        W  525  19.189  17.634  12.013
39215W        W  526  27.639  35.041   1.770
39216W        W  527  28.498  34.865  11.393
39217W        W  528   1.477  18.579  14.938
39218W        W  529  42.385  11.347  11.504
39219W        W  530   8.345  25.624   0.759
39220W        W  531  32.576  17.141   1.263
39221W        W  532  30.503  42.786   1.246
39222W        W  533  24.689   7.802   0.881
39223W        W  534  37.044   2.877   2.366
39224W        W  535  31.127  22.554  11.934
39225W        W  536  18.124  12.627  14.885
39226W        W  537  33.441  12.206  14.498
39227W        W  538  42.951   6.885   0.809
39228W        W  539  23.710  32.887   3.155
39229W        W  540  19.632   5.308  13.495
39230W        W  541  35.395  26.466  11.511
39231W        W  542  30.930  22.232  12.550
39232W        W  543  34.052  44.787   3.695
39233W        W  544   6.794  42.027   2.802
39234W        W  545  29.109  30.056  11.438
39235W        W  546   5.689  19.568   4.246
39236W        W  547  43.919  34.001  14.976
39237W        W  548  29.075  10.769  14.452
39238W        W  549  34.893   7.731   0.759
39239W        W  550  15.706   4.255   0.961
39240W        W  551  29.022   9.751  11.501
39241W        W  552   5.901  19.222   1.824
39242W        W  553   4.291   1.354   2.242
39243W        W  554  33.466  11.807  14.458
39244W        W  555  21.532  28.437  10.944
39245W        W  556  39.047  42.485  10.966
39246W        W  557   3.268  35.036  14.426
39247W        W  558  43.340  28.610   0.867
39248W        W  559  44.375  29.046  14.345
39249W        W  560   6.232  20.601   4.743
39250W        W  561  24.218  43.870  14.499
39251W        W  562   1.828  39.458   3.326
39252W        W  563   6.305  36.427   0.797
39253W        W  564  20.765  13.742  14.422
39254W        W  565  25.001  35.882  12.479
39255W        W  566  34.988   9.687   4.221
39256W        W  567  26.470  11.173  12.498
39257W        W  568   0.327  42.798   1.721
39258W        W  569  15.182   5.745  12.566
39259W        W  570  31.492  17.697  12.392
39260W        W  571   4.873  20.065  13.451
39261W        W  572   1.405  23.701  14.418
39262W        W  573  31.617  32.104  11.129
39263W        W  574  37.396  26.619   5.165
39264W        W  575   7.777  20.229   3.274
39265W        W  576  11.288  17.202   4.289
39266W        W  577  22.006   8.258   0.768
39267W        W  578  40.884   1.323   3.728
39268W        W  579  44.908  35.448   1.414
39269W        W  580  43.846  30.108  12.979
39270W        W  581  27.453  24.559   4.159
39271W        W  582   1.820  32.055   3.816
39272W        W  583   8.394  40.390   2.314
39273W        W  584  36.546  14.816  13.419
39274W        W  585   2.888  27.670   1.836
39275W        W  586  43.899   2.449  13.526
39276W        W  587  31.563   4.877   1.854
39277W        W  588  41.809   9.286  13.492
39278W        W  589  11.364  43.993   0.778
39279W        W  590  15.792  44.296   0.757
39280W        W  591  11.311  12.294   4.272
39281W        W  592  22.504   0.254  12.008
39282W        W  593  13.645  33.050  10.930
39283W        W  594  31.076  19.135  11.127
39284W        W  595  43.801   0.807  11.588
39285W        W  596  21.594  36.432  12.567
39286W        W  597  36.478  10.355  12.396
39287W        W  598  39.427  14.674   1.800
39288W        W  599  24.214  30.121  11.088
39289W        W  600  21.718  13.692  14.859
39290W        W  601  18.129   5.244   0.338
39291W        W  602  40.310  23.073   3.782
39292W        W  603   5.238  10.205  10.009
39293W        W  604  26.609  36.365  13.501
39294W        W  605  41.942  42.032   1.695
39295W        W  606  26.138   8.850  11.059
39296W        W  607  42.815  34.030   0.948
39297W        W  608  23.163  38.956  14.336
39298W        W  609  21.631  27.470  12.871
39299W        W  610  24.561  43.984   2.317
39300W        W  611   0.933  30.102   1.433
39301W        W  612  27.973   0.272   0.467
39302W        W  613  41.349  16.107   0.478
39303W        W  614  17.565  42.805   4.804
39304W        W  615  24.684  44.902  11.045
39305W        W  616  14.764  44.933  10.922
39306W        W  617  24.669  29.523   0.895
39307W        W  618  19.245   6.392  10.967
39308W        W  619  19.572  29.427  11.079
39309W        W  620  29.663  32.017  13.901
39310W        W  621  28.655  15.282  11.527
39311W        W  622  23.556  24.693  13.818
39312W        W  623   6.407  18.548   2.403
39313W        W  624  35.943  22.210   0.793
39314W        W  625  19.070  44.924  12.581
39315W        W  626   4.231  44.819  11.941
39316W        W  627   2.325  42.431   1.721
39317W        W  628   3.269  42.335  11.411
39318W        W  629  39.495  26.146  11.501
39319W        W  630  15.289  14.206   0.783
39320W        W  631  16.244   2.419  12.975
39321W        W  632  30.424  12.203  11.967
39322W        W  633  36.082   5.368  11.455
39323W        W  634  28.073  19.762   3.224
39324W        W  635  19.194  27.539  13.411
39325W        W  636  42.408  16.230  10.893
39326W        W  637  25.648  25.629  11.511
39327W        W  638   1.438   7.333  10.643
39328W        W  639  28.512   7.744   1.723
39329W        W  640  14.097  22.036   4.664
39330W        W  641  12.210  40.326   3.868
39331W        W  642  25.545  10.227   0.891
39332W        W  643  29.971  44.380   2.728
39333W        W  644  18.221  38.027   2.211
39334W        W  645  22.061  38.487   1.824
39335W        W  646  40.366  23.019  11.872
39336W        W  647  25.193  25.607   2.307
39337W        W  648   5.194   6.699  14.861
39338W        W  649  17.172  23.564   2.401
39339W        W  650   0.842  36.976   4.165
39340W        W  651  30.026   1.390  14.001
39341W        W  652  39.030  33.072   3.162
39342W        W  653  32.637   3.461  12.096
39343W        W  654   0.328   8.856  11.984
39344W        W  655  42.521  16.784   1.912
39345W        W  656  39.422  23.569  13.507
39346W        W  657  12.185  27.534  12.999
39347W        W  658  25.697  37.866   2.208
39348W        W  659  13.231  40.013   1.360
39349W        W  660  34.924  31.601   1.874
39350W        W  661  13.161   6.345   1.339
39351W        W  662  17.112  36.933   4.143
39352W        W  663  25.695  18.628  11.502
39353W        W  664  10.843  35.482   4.129
39354W        W  665  23.213   4.930  11.065
39355W        W  666  35.464  40.021  11.011
39356W        W  667   8.729  40.028  12.404
39357W        W  668  22.580   4.734   9.929
39358W        W  669   3.304  40.922  13.500
39359W        W  670  38.879  16.189   5.274
39360W        W  671   8.221  29.530  10.962
39361W        W  672  34.418  25.470   1.928
39362W        W  673  37.851  36.846  10.132
39363W        W  674  37.434  21.678   4.317
39364W        W  675  16.130   8.302   3.725
39365W        W  676  21.187  36.865   1.246
39366W        W  677  41.479  18.100  11.448
39367W        W  678  27.494  36.353   4.335
39368W        W  679  12.756   7.240  14.291
39369W        W  680  32.529  41.899  14.382
39370W        W  681  31.056   8.160  14.791
39371W        W  682  11.848  19.653   0.792
39372W        W  683  44.913  36.398   2.276
39373W        W  684  28.979  44.322   2.272
39374W        W  685  15.743   8.835   3.314
39375W        W  686  39.369  41.309   0.453
39376W        W  687  44.296   2.832   2.323
39377W        W  688  36.030   7.725  14.359
39378W        W  689  24.058  23.105  12.531
39379W        W  690  27.450  13.204   4.124
39380W        W  691   7.850  14.169   1.371
39381W        W  692   9.760  34.496   3.634
39382W        W  693  21.261  43.014  11.010
39383W        W  694  18.106  18.614   0.385
39384W        W  695  37.543  10.289   4.136
39385W        W  696  28.609  38.049   0.293
39386W        W  697  16.587  27.669   3.692
39387W        W  698  24.989  22.615   2.308
39388W        W  699  39.331  15.729  11.980
39389W        W  700  16.218  44.774  11.044
39390W        W  701   9.786   3.912   4.212
39391W        W  702  13.783   7.410   3.216
39392W        W  703   9.222   5.842  11.426
39393W        W  704  20.747  42.908  14.818
39394W        W  705  35.105  34.434  11.581
39395W        W  706  37.557  20.686   4.728
39396W        W  707  31.009  42.023   0.910
39397W        W  708  38.044  12.686   3.843
39398W        W  709   9.721   1.938  14.782
39399W        W  710  39.833  40.952   1.336
39400W        W  711  38.510  34.392  14.365
39401W        W  712  44.823  20.102   0.371
39402W        W  713  27.125  14.599   4.117
39403W        W  714  42.887   9.650  14.335
39404W        W  715  36.869   1.451  11.879
39405W        W  716  14.201  24.028   1.898
39406W        W  717  11.236  24.530   2.398
39407W        W  718  14.773  30.979  14.496
39408W        W  719   6.237  24.001  14.891
39409W        W  720   4.730  32.091   4.774
39410W        W  721  23.214  34.907   0.303
39411W        W  722  12.626  40.893  14.399
39412W        W  723   1.869   5.804  14.965
39413W        W  724   6.824  40.477   0.889
39414W        W  725   3.323  16.155   5.281
39415W        W  726   4.714  39.411  10.542
39416W        W  727   2.321   7.729   0.735
39417W        W  728  27.596  16.787  12.511
39418W        W  729  20.102  26.966  12.844
39419W        W  730   6.831  30.463   2.889
39420W        W  731  26.136  26.157  14.830
39421W        W  732   4.330   9.218  14.901
39422W        W  733  29.954  28.473   3.326
39423W        W  734   4.266  19.239   0.912
39424W        W  735  35.950  43.890  14.873
39425W        W  736  29.096  14.174   3.196
39426W        W  737  23.154  32.588  10.016
39427W        W  738  22.068   3.912  12.359
39428W        W  739  30.066  34.458  11.386
39429W        W  740  19.222  39.993   5.094
39430W        W  741  31.462  20.769  11.912
39431W        W  742  23.184  20.198  14.431
39432W        W  743  12.239  44.973  14.016
39433W        W  744  39.415  41.025  11.121
39434W        W  745   0.873  26.513   0.781
39435W        W  746  12.803   1.940   0.400
39436W        W  747   4.758  10.676   1.434
39437W        W  748  10.309   7.904   0.959
39438W        W  749  29.170   3.729   2.312
39439W        W  750  10.768  31.493   2.814
39440W        W  751   9.756  38.031  10.457
39441W        W  752  39.901  44.906   0.949
39442W        W  753  37.420  18.719  11.591
39443W        W  754   6.871  15.174   2.890
39444W        W  755  30.553   1.877  11.439
39445W        W  756  38.060   8.287  14.354
39446W        W  757  30.656  44.951   4.227
39447W        W  758  42.464  16.072   3.216
39448W        W  759  37.868  24.173  13.392
39449W        W  760  41.018   9.213   3.811
39450W        W  761  32.090   3.289   3.670
39451W        W  762  31.983  38.914  10.414
39452W        W  763   4.865  24.652   2.228
39453W        W  764  44.789  23.637   2.256
39454W        W  765  27.137  36.916  14.000
39455W        W  766  34.407  26.667   2.354
39456W        W  767  40.020  31.118   3.750
39457W        W  768  32.985  31.934   3.842
39458W        W  769  14.229  44.340  11.445
39459W        W  770  19.265  29.954  14.346
39460W        W  771  10.763  31.639  13.501
39461W        W  772  22.593  12.832  13.548
39462W        W  773   5.898  30.045  11.425
39463W        W  774  34.412  30.542  12.991
39464W        W  775  44.459   1.360   1.363
39465W        W  776  28.572   6.860  12.443
39466W        W  777  30.534  26.105   0.833
39467W        W  778  41.301   5.923  12.469
39468W        W  779   4.813  35.906   3.317
39469W        W  780  11.194  43.274  13.495
39470W        W  781  14.160   5.329  11.506
39471W        W  782  37.423  29.474   0.796
39472W        W  783  24.608  29.537  14.401
39473W        W  784  43.329  44.496   0.840
39474W        W  785  35.455  18.252  14.975
39475W        W  786  13.270  27.982  13.328
39476W        W  787   7.350  16.093   1.891
39477W        W  788  30.513  43.357   2.208
39478W        W  789  31.410  33.475   0.418
39479W        W  790  43.887  44.419   1.380
39480W        W  791  41.881   6.386   1.737
39481W        W  792  20.761  14.733   0.818
39482W        W  793   4.307   3.872  11.081
39483W        W  794  14.779  25.010   3.217
39484W        W  795  40.985  39.852  10.586
39485W        W  796  42.807   5.861  12.015
39486W        W  797  24.592  35.013  14.810
39487W        W  798  20.210  40.861  11.469
39488W        W  799  10.310  37.986  13.446
39489W        W  800   6.706  22.205  13.837
39490W        W  801   0.304  37.022   2.257
39491W        W  802  35.079  30.000   0.960
39492W        W  803  30.918  44.948   0.386
39493W        W  804  35.092  36.925   1.437
39494W        W  805  10.315  18.242   2.703
39495W        W  806  28.495  31.559  10.988
39496W        W  807  32.491   5.310   9.596
39497W        W  808  24.216  35.944  11.464
39498W        W  809  33.016  24.219  13.874
39499W        W  810  19.171  14.274  13.825
39500W        W  811  42.342  28.002  13.398
39501W        W  812  34.002  36.937   3.683
39502W        W  813   9.746  20.257  11.423
39503W        W  814  36.043   1.347   4.212
39504W        W  815   8.190  24.067  14.886
39505W        W  816  21.662  24.104   0.414
39506W        W  817  34.480   3.712  13.044
39507W        W  818  13.293   2.792   3.228
39508W        W  819  31.629  36.473   4.185
39509W        W  820  41.531   2.960   3.235
39510W        W  821  23.181  31.928  14.435
39511W        W  822   1.940  16.762   3.703
39512W        W  823  17.275  27.114  14.012
39513W        W  824  17.758   3.306   0.430
39514W        W  825   5.199  17.641  13.923
39515W        W  826   3.836  19.738   3.632
39516W        W  827  20.173  28.949  12.554
39517W        W  828   0.442   6.704  11.005
39518W        W  829  20.234  32.891  11.032
39519W        W  830  36.565  17.628  14.294
39520W        W  831  34.917  11.721  13.408
39521W        W  832   0.873  32.035   2.269
39522W        W  833   9.335  18.647   4.600
39523W        W  834   9.708   1.819  12.490
39524W        W  835  42.920  41.370   3.251
39525W        W  836  30.957  18.082  12.094
39526W        W  837  16.732   7.175  13.942
39527W        W  838  18.700   4.932   0.393
39528W        W  839   6.272  19.094  14.436
39529W        W  840  29.434  28.580  12.463
39530W        W  841  33.603  34.560  13.392
39531W        W  842  35.366   2.390  13.995
39532W        W  843  24.006  12.781  13.348
39533W        W  844  16.121  22.713  11.069
39534W        W  845  26.133   4.722  14.907
39535W        W  846   0.781  42.937   1.723
39536W        W  847  37.380  31.412  12.926
39537W        W  848   2.408  28.620  13.984
39538W        W  849  39.866  15.775   1.903
39539W        W  850  23.185  34.011  13.389
39540W        W  851   9.349   9.841   3.682
39541W        W  852  17.173  17.282  10.129
39542W        W  853   8.331  14.607   3.327
39543W        W  854  10.680  34.464   0.853
39544W        W  855  11.795  37.968  11.046
39545W        W  856  28.086  19.642  13.048
39546W        W  857  16.756   6.856  11.595
39547W        W  858  33.493  40.467   2.378
39548W        W  859  11.351  11.293   1.384
39549W        W  860  12.803  11.759   0.449
39550W        W  861   3.794   7.718   1.889
39551W        W  862  31.492   4.282   3.774
39552W        W  863  33.115  26.506   0.451
39553W        W  864  18.212   8.659  11.009
39554W        W  865  43.433  12.262   2.306
39555W        W  866  21.031   3.876  13.936
39556W        W  867  37.944  10.828  14.395
39557W        W  868  44.311  34.614  13.994
39558W        W  869  34.881  31.943  14.829
39559W        W  870  13.732   2.350  11.488
39560W        W  871  28.140  39.432  14.854
39561W        W  872  19.600  19.181   3.170
39562W        W  873  12.348  42.909   2.819
39563W        W  874   4.705  41.842  14.886
39564W        W  875  39.354  15.693   2.213
39565W        W  876   1.341  28.042  13.338
39566W        W  877   9.352  30.520   4.336
39567W        W  878  23.721  34.477  12.396
39568W        W  879  24.508  22.078  12.570
39569W        W  880   3.771   0.958  12.490
39570W        W  881  24.138  21.250   1.220
39571W        W  882  20.675  33.412  14.427
39572W        W  883  43.338  10.688  14.881
39573W        W  884  16.280  36.036  12.917
39574W        W  885  18.139  14.672   0.831
39575W        W  886  20.181  10.662   4.758
39576W        W  887   3.353  27.077  13.448
39577W        W  888  23.570  29.640  12.035
39578W        W  889  15.102  32.926   1.415
39579W        W  890  40.951  38.931  11.999
39580W        W  891  14.312  20.126  10.569
39581W        W  892  26.474  35.080  11.542
39582W        W  893  33.423  43.789  11.855
39583W        W  894   8.235  27.686   3.853
39584W        W  895  39.054   2.232  11.394
39585W        W  896  36.051  17.093  10.965
39586W        W  897  26.601  26.115   2.395
39587W        W  898  41.351   4.704   0.255
39588W        W  899  43.873  28.149  13.844
39589W        W  900   0.874  22.240  12.489
39590W        W  901  10.309  39.875  13.864
39591W        W  902  37.053  29.566  11.549
39592W        W  903   3.815  43.497  11.965
39593W        W  904   5.350  26.118  10.497
39594W        W  905  23.633   9.368  13.406
39595W        W  906  15.231  12.677  14.998
39596W        W  907  36.511  22.092  11.562
39597W        W  908  31.527   3.390  14.484
39598W        W  909  28.554   7.822  14.789
39599W        W  910   7.392  37.830   1.353
39600W        W  911  36.365   3.864  13.431
39601W        W  912  14.720  25.154   0.361
39602W        W  913  11.790   9.289   0.755
39603W        W  914  11.700  41.928   0.870
39604W        W  915  19.540  26.613  14.329
39605W        W  916  29.958  35.468  14.327
39606W        W  917  18.120  28.436   3.147
39607W        W  918   5.206  42.962  10.955
39608W        W  919  15.127  14.130  13.064
39609W        W  920  34.536  44.308  11.128
39610W        W  921   7.238   6.402   2.792
39611W        W  922   6.718  10.750   3.700
39612W        W  923  26.105  22.577   1.887
39613W        W  924  28.011  33.934  11.976
39614W        W  925  26.678  23.178   3.766
39615W        W  926  32.597  26.070   3.840
39616W        W  927  30.040  25.588  11.046
39617W        W  928  44.906  40.972  14.009
39618W        W  929  42.436  28.562   1.935
39619W        W  930  25.670   4.318   4.655
39620W        W  931   6.905   4.447  10.529
39621W        W  932  11.179   7.909   3.856
39622W        W  933   1.426  24.479  13.835
39623W        W  934  15.776  29.995   4.118
39624W        W  935  37.978  44.859  11.888
39625W        W  936  11.805   2.260  14.463
39626W        W  937   7.333   6.763   0.952
39627W        W  938   5.890   0.746  13.814
39628W        W  939   3.319  26.555   3.189
39629W        W  940   1.447   5.711   1.925
39630W        W  941  31.958  33.565  11.558
39631W        W  942  25.678  37.904  12.506
39632W        W  943   9.243  17.247   5.226
39633W        W  944  28.532  26.149  12.011
39634W        W  945  12.350  41.321  12.350
39635W        W  946   6.919  39.834   0.921
39636W        W  947  14.127  35.036  12.520
39637W        W  948  18.595  33.986  11.522
39638W        W  949   3.273  35.079  14.029
39639W        W  950   7.413  30.148  10.518
39640W        W  951  26.486  35.549   1.346
39641W        W  952  17.206  31.532  11.403
39642W        W  953  33.026  12.227   1.227
39643W        W  954  44.902  18.709   1.868
39644W        W  955  36.458  11.317  12.836
39645W        W  956  19.545   5.221   2.881
39646W        W  957  16.659  30.500   3.174
39647W        W  958  43.389   7.349   3.709
39648W        W  959  39.809  13.343  14.956
39649W        W  960   3.799  36.478  11.074
39650W        W  961  44.776  29.496  11.543
39651W        W  962  16.664  27.518   0.321
39652W        W  963  28.532  39.043   1.786
39653W        W  964   8.251  30.148  14.367
39654W        W  965  38.564  44.261   0.946
39655W        W  966  27.488  15.301   0.270
39656W        W  967   0.274  28.467  12.390
39657W        W  968  41.488  31.085   1.807
39658W        W  969  22.676  13.299   1.395
39659W        W  970   8.684  26.990  14.402
39660W        W  971  35.477  29.968  12.930
39661W        W  972  26.702  11.794  12.965
39662W        W  973  26.173   0.949  12.990
39663W        W  974  37.531  10.866  11.948
39664W        W  975  13.706  18.252  11.083
39665W        W  976  14.180  23.568   2.319
39666W        W  977   6.424  26.064  13.482
39667W        W  978   2.878  42.470   1.335
39668W        W  979  20.103  26.631  14.023
39669W        W  980  17.274  18.076  11.080
39670W        W  981  18.107  41.311  12.955
39671W        W  982   6.861  44.302  12.939
39672W        W  983  37.872  43.819   2.378
39673W        W  984   8.714  44.810  10.418
39674W        W  985  32.611   5.434   4.287
39675W        W  986  19.623  38.841   1.726
39676W        W  987  35.533  31.130   1.412
39677W        W  988  17.790  36.017   1.779
39678W        W  989   3.265  40.327  11.964
39679W        W  990   7.228  39.852  12.966
39680W        W  991   2.465  29.106   2.710
39681W        W  992  34.090  44.796   1.448
39682W        W  993  21.635  41.459   2.239
39683W        W  994  42.430  25.146  11.436
39684W        W  995  19.603  26.671   2.731
39685W        W  996  18.711   3.370   4.799
39686W        W  997  24.204  17.599  11.109
39687W        W  998  21.633  17.610  10.967
39688W        W  999   5.751   6.781  10.571
39689W        W 1000   2.402  28.517   2.197
39690W        W 1001  24.126  25.068   4.763
39691W        W 1002   4.786  23.043   0.370
39692W        W 1003  21.548  41.459  10.958
39693W        W 1004  12.181  28.047   2.275
39694W        W 1005  22.574  43.364  13.064
39695W        W 1006  38.830   9.723  11.507
39696W        W 1007  22.527  40.928  11.578
39697W        W 1008   3.318   6.242  10.439
39698W        W 1009  33.384  18.581   1.933
39699W        W 1010  25.647  39.357  10.534
39700W        W 1011  40.496  13.300  11.976
39701W        W 1012  37.421  33.037  10.473
39702W        W 1013  37.568  13.818  13.958
39703W        W 1014  37.507   5.788   3.290
39704W        W 1015  37.459  18.068  14.322
39705W        W 1016   0.774  20.068   3.700
39706W        W 1017   0.807   2.345   2.394
39707W        W 1018  10.315  27.948  11.400
39708W        W 1019  35.025   1.806  11.901
39709W        W 1020   2.440   7.800  14.385
39710W        W 1021  42.993   4.807  13.335
39711W        W 1022  17.301  20.228  13.313
39712W        W 1023  20.526  25.477   3.741
39713W        W 1024  18.265   1.464   4.750
39714W        W 1025  16.655  21.728  13.470
39715W        W 1026  36.046  34.507   9.972
39716W        W 1027  18.587  22.101   4.287
39717W        W 1028  42.452  28.557   3.808
39718W        W 1029   5.806  33.963   2.300
39719W        W 1030  19.096  10.192   2.686
39720W        W 1031  11.145   9.776   3.655
39721W        W 1032  40.909   9.708   1.786
39722W        W 1033  27.052  13.845   1.431
39723W        W 1034  17.269  17.777  11.114
39724W        W 1035  19.740  14.173  14.787
39725W        W 1036  31.097   0.901   4.621
39726W        W 1037  43.462   9.712   4.705
39727W        W 1038  17.254   4.448   5.621
39728W        W 1039  14.302  31.426   0.419
39729W        W 1040  25.594   8.728  13.538
39730W        W 1041   3.922  24.488  10.532
39731W        W 1042  41.829  15.781   1.349
39732W        W 1043  33.595  18.214   2.396
39733W        W 1044  15.605  37.943   2.310
39734W        W 1045   1.355  14.335  12.017
39735W        W 1046  20.230  32.989  10.636
39736W        W 1047   0.776  22.691   2.746
39737W        W 1048  32.559  25.565  13.974
39738W        W 1049   7.377  28.084   4.354
39739W        W 1050  14.699   6.228   1.256
39740W        W 1051  44.356  29.031   1.752
39741W        W 1052  10.675  10.807  12.479
39742W        W 1053  18.567  11.303   3.379
39743W        W 1054  40.866  27.194  11.498
39744W        W 1055  24.534  33.961  13.982
39745W        W 1056  43.469  12.270   0.411
39746W        W 1057  12.300  27.059   1.404
39747W        W 1058  31.078  27.098   4.633
39748W        W 1059  32.573  19.584  13.999
39749W        W 1060  20.139  12.634  14.335
39750W        W 1061  19.772  28.468  11.520
39751W        W 1062  41.303   3.755  10.429
39752W        W 1063  23.656  30.427   3.802
39753W        W 1064  35.914  33.952   0.480
39754W        W 1065  13.696  41.946   0.285
39755W        W 1066  43.492  27.661   3.866
39756W        W 1067   1.859  23.039   1.423
39757W        W 1068   6.776  24.090  13.529
39758W        W 1069  32.526   7.683  12.532
39759W        W 1070  20.110   3.336   3.652
39760W        W 1071  21.260  18.158  12.843
39761W        W 1072  23.227  29.531  11.421
39762W        W 1073  11.628  21.211  11.554
39763W        W 1074  24.566   5.813   1.351
39764W        W 1075  31.547  31.514   4.609
39765W        W 1076  28.037  30.980   2.374
39766W        W 1077  39.370   3.333  13.381
39767W        W 1078   0.986  35.427  12.036
39768W        W 1079  27.582  42.005  12.046
39769W        W 1080  25.154  41.324  12.911
39770W        W 1081  10.194   2.726   3.701
39771W        W 1082  23.991  14.272   3.202
39772W        W 1083  15.703   9.351  11.920
39773W        W 1084   7.248   4.875  10.906
39774W        W 1085  13.607   4.302   3.692
39775W        W 1086  14.698  10.291   3.148
39776W        W 1087  35.369  27.981  10.580
39777W        W 1088  27.499  19.597  12.865
39778W        W 1089  37.931  29.524   3.222
39779W        W 1090  12.180  27.648   4.328
39780W        W 1091  18.630  27.663  10.920
39781W        W 1092  33.128  10.867   4.154
39782W        W 1093  35.529  32.479   1.843
39783W        W 1094  21.244  25.626  11.093
39784W        W 1095  39.534  38.569  10.931
39785W        W 1096  13.293  29.114   4.318
39786W        W 1097  22.657   6.833   1.737
39787W        W 1098  31.498  27.533   2.755
39788W        W 1099  42.491   6.858  14.477
39789W        W 1100  22.236  43.890  10.629
39790W        W 1101  19.611  29.142   0.359
39791W        W 1102  24.496  10.756  14.942
39792W        W 1103   8.220   7.816   4.317
39793W        W 1104  28.473  19.654   3.800
39794W        W 1105  12.720  30.453  10.628
39795W        W 1106   8.349  14.310   1.826
39796W        W 1107   6.916  44.854  12.094
39797W        W 1108  18.556   0.861  12.883
39798W        W 1109   9.739   3.383  11.901
39799W        W 1110   7.196  15.213  10.940
39800W        W 1111  34.872  36.907   2.309
39801W        W 1112   4.310  20.238   1.814
39802W        W 1113  44.502  42.373   2.688
39803W        W 1114  20.057  32.980   2.312
39804W        W 1115  22.229  34.936  10.589
39805W        W 1116  33.580  24.055  14.862
39806W        W 1117  27.689  33.026   3.259
39807W        W 1118  11.193  38.863  13.318
39808W        W 1119  15.634  44.868   3.710
39809W        W 1120  39.832  41.483  14.411
39810W        W 1121  42.811  22.590   0.905
39811W        W 1122   5.201  29.516  14.303
39812W        W 1123  42.813  34.982   4.227
39813W        W 1124  11.244  32.901   4.837
39814W        W 1125  16.239  18.664   3.361
39815W        W 1126  42.509   6.407  14.794
39816W        W 1127  14.828  44.803  11.856
39817W        W 1128   9.295  37.063   2.271
39818W        W 1129   5.327  20.748   1.859
39819W        W 1130  27.468  11.165   1.360
39820W        W 1131  28.053   7.740  11.382
39821W        W 1132   4.371  26.529  13.791
39822W        W 1133  10.361  32.983  12.361
39823W        W 1134  15.257  40.429   3.747
39824W        W 1135  35.015  34.980  12.054
39825W        W 1136  20.162   1.909  13.358
39826W        W 1137  42.013  29.918   3.280
39827W        W 1138  15.658  41.814   2.757
39828W        W 1139  39.471  41.312   1.839
39829W        W 1140  16.780   0.387   0.480
39830W        W 1141  24.603  22.248   0.950
39831W        W 1142  26.179  34.579  13.804
39832W        W 1143   3.778  41.321  12.558
39833W        W 1144  22.661  31.153   2.188
39834W        W 1145  17.644  38.326   2.712
39835W        W 1146  29.918  12.825  14.765
39836W        W 1147  25.972  18.670  10.481
39837W        W 1148  30.527  28.612  11.887
39838W        W 1149   2.946  12.750   3.658
39839W        W 1150   5.860   8.345   2.416
39840W        W 1151  19.775   2.729  14.833
39841W        W 1152  40.321  28.967  14.446
39842W        W 1153  30.586  14.592  11.450
39843W        W 1154   2.959  27.494   2.346
39844W        W 1155  43.353  30.537   1.217
39845W        W 1156   5.802  25.584   4.189
39846W        W 1157  28.574  11.347   0.376
39847W        W 1158  31.055  38.569   1.448
39848W        W 1159  25.142  18.690  11.932
39849W        W 1160  39.334  32.090   4.155
39850W        W 1161  17.567  29.569   3.837
39851W        W 1162  15.261  29.111  11.951
39852W        W 1163  36.359  12.620   5.083
39853W        W 1164  42.835   1.239  11.465
39854W        W 1165  16.732  10.340   4.819
39855W        W 1166  11.682  25.087   1.430
39856W        W 1167  30.956  17.091  13.850
39857W        W 1168  20.212  19.208  11.473
39858W        W 1169   7.710   0.973  12.474
39859W        W 1170   5.899  16.711  12.426
39860W        W 1171  20.274  35.893   5.132
39861W        W 1172   8.362   0.792   4.229
39862W        W 1173  23.621  18.662  13.517
39863W        W 1174  37.031   0.932  10.587
39864W        W 1175  17.599  27.646   1.717
39865W        W 1176  26.525  12.137  12.833
39866W        W 1177  22.016  25.567  13.454
39867W        W 1178   1.972  35.373  12.393
39868W        W 1179  42.819   4.923  10.995
39869W        W 1180  29.569  27.502  14.922
39870W        W 1181  38.458  27.650   2.379
39871W        W 1182  42.375   1.876  12.384
39872W        W 1183  34.539   2.864   1.893
39873W        W 1184  11.325  10.867   1.825
39874W        W 1185  30.045  29.477  12.468
39875W        W 1186  29.423  23.107  14.469
39876W        W 1187  27.135  33.412   1.799
39877W        W 1188   6.292   3.926   0.292
39878W        W 1189  31.945  18.152  11.392
39879W        W 1190  32.491  10.358  11.006
39880W        W 1191  33.054  31.987  13.529
39881W        W 1192  19.190   3.952  11.582
39882W        W 1193  31.903  18.592   5.230
39883W        W 1194  28.169  22.035   3.645
39884W        W 1195  41.339  37.369   0.350
39885W        W 1196  12.777  23.138  10.931
39886W        W 1197  37.384  13.284   4.611
39887W        W 1198   4.346   0.803   0.962
39888W        W 1199  14.184  35.110   2.754
39889W        W 1200  32.890  29.511  11.887
39890W        W 1201  42.785  28.139   4.204
39891W        W 1202   6.756  17.671  10.493
39892W        W 1203  43.449  23.733   0.261
39893W        W 1204   7.392  23.503   2.822
39894W        W 1205  10.810   4.844  13.520
39895W        W 1206  44.847  15.691  12.577
39896W        W 1207   0.340  24.724   2.230
39897W        W 1208  29.488  36.924  14.379
39898W        W 1209   2.396  13.647   4.127
39899W        W 1210   6.305  32.545   1.772
39900W        W 1211  40.954  33.899  10.984
39901W        W 1212   5.236  21.018  13.320
39902W        W 1213  43.834  21.546   3.349
39903W        W 1214  35.927  39.417  12.063
39904W        W 1215   5.356  39.062   1.731
39905W        W 1216  39.903  10.292   0.961
39906W        W 1217  14.625  31.421  13.370
39907W        W 1218  19.772  40.043  13.812
39908W        W 1219  33.990  40.016   3.676
39909W        W 1220  27.169  38.435   4.642
39910W        W 1221   9.179  21.545  11.036
39911W        W 1222  22.109  32.458  12.030
39912W        W 1223   3.224  27.029   2.848
39913W        W 1224  38.842  43.817  14.513
39914W        W 1225  23.631  13.166  13.049
39915W        W 1226  43.421  33.501   4.312
39916W        W 1227  26.033  21.735   4.308
39917W        W 1228  32.084  38.925   1.372
39918W        W 1229  37.470  44.370   4.717
39919W        W 1230  18.554  37.392   2.865
39920W        W 1231   9.300   6.778  13.854
39921W        W 1232  27.674  38.878  13.478
39922W        W 1233  13.284  42.973   0.842
39923W        W 1234  28.657   9.164   2.834
39924W        W 1235  44.834  13.799   0.371
39925W        W 1236   2.396  33.970   1.335
39926W        W 1237   2.732  31.483  14.872
39927W        W 1238  10.276  29.082  14.798
39928W        W 1239   4.740  34.459   1.870
39929W        W 1240  42.921  31.007   0.419
39930W        W 1241  25.043  18.179  14.826
39931W        W 1242  39.058  36.975  11.965
39932W        W 1243  23.639  25.646  12.490
39933W        W 1244  28.504  44.317  12.572
39934W        W 1245  33.063  17.610  11.374
39935W        W 1246  21.162  17.646   4.657
39936W        W 1247  40.980  35.535   1.884
39937W        W 1248  38.368  31.411   0.465
39938W        W 1249  42.928  25.969  14.395
39939W        W 1250  35.927  42.382   4.329
39940W        W 1251  35.537  14.685   4.786
39941W        W 1252  31.644  31.510   0.954
39942W        W 1253   9.198   3.844   1.408
39943W        W 1254  21.102  38.982  12.409
39944W        W 1255  11.693   0.395   3.688
39945W        W 1256   0.374  44.311  14.979
39946W        W 1257   9.686   5.243  14.480
39947W        W 1258   3.919   4.821  14.786
39948W        W 1259  16.120   0.815  12.959
39949W        W 1260  29.991  38.325   3.285
39950W        W 1261  13.716   6.226  13.514
39951W        W 1262  32.455  28.482  10.622
39952W        W 1263  18.053   3.309  11.373
39953W        W 1264  21.657  19.543  14.856
39954W        W 1265  28.557  19.242   3.315
39955W        W 1266  25.554  28.481   4.814
39956W        W 1267  39.967  27.621   3.684
39957W        W 1268  30.486  22.120  14.481
39958W        W 1269  42.881  20.149  11.855
39959W        W 1270  38.513  41.439   2.309
39960W        W 1271   4.296  10.332   0.954
39961W        W 1272   5.236  18.114  14.992
39962W        W 1273   8.742  12.203  13.863
39963W        W 1274  14.795  12.254   2.384
39964W        W 1275  25.111  38.516  12.900
39965W        W 1276   2.956  32.524   4.607
39966W        W 1277   4.764   0.349  10.405
39967W        W 1278  43.939  44.927  14.276
39968W        W 1279  42.363  30.495  11.573
39969W        W 1280   9.737  17.677   5.580
39970W        W 1281  35.397   9.267   4.147
39971W        W 1282  29.114  16.649  13.817
39972W        W 1283  21.592  34.042   2.364
39973W        W 1284  22.073  11.796   1.825
39974W        W 1285  32.905  16.304   1.829
39975W        W 1286  31.639   6.269  10.501
39976W        W 1287  39.454  23.575  10.499
39977W        W 1288  17.203  32.015   3.780
39978W        W 1289  31.513  39.820   3.697
39979W        W 1290  41.797  15.158  11.445
39980W        W 1291   3.417   6.363   2.353
39981W        W 1292  33.589  13.656   2.689
39982W        W 1293  11.333  20.259   4.215
39983W        W 1294  10.261  24.015   0.281
39984W        W 1295   7.215   9.179  12.855
39985W        W 1296   9.665  36.563  10.597
39986W        W 1297  14.099   8.403  11.472
39987W        W 1298  36.032   5.916   4.285
39988W        W 1299  23.623  22.156   2.724
39989W        W 1300  34.112  22.007  14.873
39990W        W 1301  10.658  43.987  13.438
39991W        W 1302  24.081  19.233   3.147
39992W        W 1303  17.284  12.152   1.270
39993W        W 1304  16.809  20.250  11.959
39994W        W 1305  28.082  11.679  10.960
39995W        W 1306  22.636  11.767  14.809
39996W        W 1307  29.662  26.189  12.358
39997W        W 1308   4.849  19.113   5.159
39998W        W 1309  38.027  34.058   4.745
39999W        W 1310   4.842  44.805   2.801
40000W        W 1311  18.644  12.126   4.806
40001W        W 1312  14.596  26.658   2.210
40002W        W 1313  34.462  38.422  14.366
40003W        W 1314  12.730  43.365   1.392
40004W        W 1315  27.461   8.188   1.923
40005W        W 1316  26.004  37.950   0.754
40006W        W 1317  13.253  27.102   1.230
40007W        W 1318  12.745  27.617  11.890
40008W        W 1319   8.787  16.205   5.801
40009W        W 1320  30.133   9.190   2.793
40010W        W 1321  19.081   6.797  14.865
40011W        W 1322   6.820  27.639   3.644
40012W        W 1323   8.279  14.248   4.645
40013W        W 1324   8.341  18.571  13.861
40014W        W 1325  40.397  39.960   2.325
40015W        W 1326  42.390  31.583   3.738
40016W        W 1327  33.054  26.001   0.446
40017W        W 1328   1.928   7.905  13.807
40018W        W 1329   8.673  13.208   2.675
40019W        W 1330  14.729  37.965  10.604
40020W        W 1331  27.565  21.148   3.288
40021W        W 1332  31.426   3.284  13.378
40022W        W 1333  27.601   3.309  14.927
40023W        W 1334  39.005  26.198   2.678
40024W        W 1335   1.901  26.566   4.738
40025W        W 1336  37.888  34.991  13.446
40026W        W 1337  21.077  35.996  13.540
40027W        W 1338  43.377   7.416  12.871
40028W        W 1339  28.077  33.577  10.542
40029W        W 1340  17.714   0.828  12.093
40030W        W 1341  33.440  37.417   2.359
40031W        W 1342  24.703  44.308  10.960
40032W        W 1343   9.793  39.997   4.611
40033W        W 1344  32.418  23.658  13.885
40034W        W 1345  40.443  27.574   0.849
40035W        W 1346  44.487  17.788   2.889
40036W        W 1347  16.577  41.872   1.859
40037W        W 1348  18.090   9.846   3.797
40038W        W 1349  38.462  22.026   1.343
40039W        W 1350   7.863   2.940   4.281
40040W        W 1351  25.595  32.893  11.398
40041W        W 1352  24.489  39.924  12.913
40042W        W 1353  43.797  16.078   2.888
40043W        W 1354  28.547  21.248  14.287
40044W        W 1355   9.322  32.586  10.611
40045W        W 1356  27.015  32.934  14.290
40046W        W 1357  13.261  24.999  12.014
40047W        W 1358  40.393  20.085  13.850
40048W        W 1359  28.623  19.205  13.922
40049W        W 1360  21.629  43.472  13.458
40050W        W 1361   8.213  29.655  14.862
40051W        W 1362   2.866  35.393  14.954
40052W        W 1363  33.391  27.992   4.725
40053W        W 1364   8.679   4.304   0.735
40054W        W 1365  26.533  40.809   4.222
40055W        W 1366  18.741  39.516   5.203
40056W        W 1367  22.158  41.965   0.261
40057W        W 1368   0.440  11.801  13.935
40058W        W 1369   6.720  13.624  10.011
40059W        W 1370  36.862  36.565  11.053
40060W        W 1371  35.551  28.067   4.172
40061W        W 1372  21.552  34.549   3.206
40062W        W 1373  43.854  32.955  13.497
40063W        W 1374  23.617  27.020   3.790
40064W        W 1375  11.365  16.295  13.832
40065W        W 1376  23.532   2.339   0.801
40066W        W 1377  33.498   5.879  14.306
40067W        W 1378  23.081   1.304  12.385
40068W        W 1379  42.808  18.175   4.185
40069W        W 1380   5.740   6.185  13.416
40070W        W 1381  36.915  18.096   3.771
40071W        W 1382  25.590  11.360  12.909
40072W        W 1383  29.455  20.105  14.504
40073W        W 1384  37.839  24.688  14.837
40074W        W 1385   5.411   4.738   3.638
40075W        W 1386   1.400   3.827  12.016
40076W        W 1387  32.096  20.635   1.373
40077W        W 1388   3.876  35.969   3.204
40078W        W 1389  36.032  40.835  10.514
40079W        W 1390  29.923  40.324   1.253
40080W        W 1391  22.167   8.347   0.318
40081W        W 1392  25.984  29.057  14.358
40082W        W 1393  26.110   4.296   0.796
40083W        W 1394  36.407  25.006  11.122
40084W        W 1395  14.331  18.588   3.830
40085W        W 1396  30.592  35.421  13.411
40086W        W 1397  36.969  19.579  10.459
40087W        W 1398  33.033  34.904  13.326
40088W        W 1399  35.105  18.783  11.501
40089W        W 1400  13.652  32.092   3.750
40090W        W 1401  19.156   4.313   3.337
40091W        W 1402  13.120   0.272  14.352
40092W        W 1403  28.442  31.411   3.149
40093W        W 1404  42.401  17.235   0.775
40094W        W 1405  43.419  33.929   3.717
40095W        W 1406  38.335  41.371  10.638
40096W        W 1407  43.948  14.781   1.913
40097W        W 1408  18.614  21.143  10.044
40098W        W 1409  35.504   8.722  10.456
40099W        W 1410  31.577  15.690  10.987
40100W        W 1411  10.313  26.017  13.923
40101W        W 1412  25.098  12.794   3.360
40102W        W 1413  38.566  31.546  11.958
40103W        W 1414  29.065   9.394  13.492
40104W        W 1415  40.443  18.160   2.210
40105W        W 1416   0.881   2.829   4.341
40106W        W 1417   0.881  25.606   3.241
40107W        W 1418  15.716  41.505   4.803
40108W        W 1419  35.437   3.388   0.403
40109W        W 1420  36.050  43.273  10.999
40110W        W 1421  42.032  40.856  11.866
40111W        W 1422  17.069  31.492  12.076
40112W        W 1423  20.726  36.949  13.448
40113W        W 1424  38.828  28.127  12.949
40114W        W 1425   0.982  26.206   4.215
40115W        W 1426  22.621  24.508  13.493
40116W        W 1427   7.733  23.100   2.273
40117W        W 1428   2.935   5.419   4.170
40118W        W 1429  13.229  10.331   5.262
40119W        W 1430  22.031  21.123  11.063
40120W        W 1431  29.575  14.204  11.949
40121W        W 1432  14.811  23.127   0.777
40122W        W 1433   4.361   8.322  12.060
40123W        W 1434  39.870  34.467   3.294
40124W        W 1435  44.880  24.017   3.831
40125W        W 1436  33.595  31.600  10.999
40126W        W 1437  30.493  17.647  13.799
40127W        W 1438  20.113   5.363   4.255
40128W        W 1439   0.922  28.542  12.505
40129W        W 1440  19.553  37.447  13.984
40130W        W 1441  16.085  27.008  12.982
40131W        W 1442  40.342  19.755  10.123
40132W        W 1443  40.842  10.346   4.272
40133W        W 1444  12.321  39.468  11.952
40134W        W 1445  14.766  25.706  14.761
40135W        W 1446  38.894  40.542  11.427
40136W        W 1447   0.845  17.264   2.689
40137W        W 1448  14.267  21.538   2.390
40138W        W 1449  37.017   4.873  11.072
40139W        W 1450  14.593  17.077  12.556
40140W        W 1451  44.971  10.764   1.213
40141W        W 1452  22.617  32.011   4.298
40142W        W 1453  41.442  37.873   4.157
40143W        W 1454  21.551  41.452   4.697
40144W        W 1455  15.256  24.554  11.859
40145W        W 1456  26.028  42.925   4.776
40146W        W 1457  30.942  16.168  10.414
40147W        W 1458  26.083  21.113   1.426
40148W        W 1459  33.546   3.778   0.933
40149W        W 1460  26.570  36.985  14.460
40150W        W 1461  43.337  18.173   3.844
40151W        W 1462  13.209  34.070  13.377
40152W        W 1463  44.481  26.481  11.039
40153W        W 1464  29.577  23.532   2.894
40154W        W 1465  37.424   6.236  10.424
40155W        W 1466  19.281   6.299  14.491
40156W        W 1467  44.474   5.303  11.071
40157W        W 1468   2.732  33.982   4.649
40158W        W 1469  40.925  38.867   0.426
40159W        W 1470  28.460  27.573   0.291
40160W        W 1471  30.614  43.924  12.462
40161W        W 1472  28.069  34.382  12.542
40162W        W 1473  16.269  13.643  11.980
40163W        W 1474  29.426  13.278  14.774
40164W        W 1475  21.640   4.342  14.952
40165W        W 1476   2.912  34.601  14.791
40166W        W 1477  23.689  42.894  12.823
40167W        W 1478  19.572  31.152   2.764
40168W        W 1479   2.432  11.735   2.892
40169W        W 1480  35.400   9.348  13.976
40170W        W 1481  36.942   6.792  13.493
40171W        W 1482  23.050  11.840  10.986
40172W        W 1483   2.914  10.377  13.476
40173W        W 1484   7.755   4.714   0.410
40174W        W 1485  37.386  23.178   3.200
40175W        W 1486  26.493  23.541   0.796
40176W        W 1487  25.030   9.758  12.516
40177W        W 1488  11.373  24.694  14.355
40178W        W 1489  21.557  27.564  10.078
40179W        W 1490   4.277  11.156  12.532
40180W        W 1491  18.788  41.475   1.437
40181W        W 1492   0.809   6.743  13.369
40182W        W 1493  39.036  25.090   2.316
40183W        W 1494   9.253  35.425  13.047
40184W        W 1495  44.840  34.045   1.384
40185W        W 1496  33.397  29.652   4.714
40186W        W 1497   6.691  34.922   1.230
40187W        W 1498   3.776  31.476  12.434
40188W        W 1499  42.410  34.570  14.308
40189W        W 1500  44.286  14.317  11.392
40190W        W 1501  34.014   0.943  10.464
40191W        W 1502  24.071  29.533   3.784
40192W        W 1503  26.066  42.436  14.897
40193W        W 1504  28.077   8.687   2.234
40194W        W 1505  23.080  29.507   1.745
40195W        W 1506  41.390   4.815  13.895
40196W        W 1507  34.937   3.824   1.896
40197W        W 1508  24.220  21.049  10.915
40198W        W 1509  28.067   3.812  13.894
40199W        W 1510  37.899  35.363  11.571
40200W        W 1511   3.793  35.591  13.996
40201W        W 1512  44.460  20.529  14.396
40202W        W 1513   3.740  24.217  10.110
40203W        W 1514   2.411   5.296   4.255
40204W        W 1515  38.407  34.527  11.885
40205W        W 1516  41.389  28.657   1.881
40206W        W 1517  35.072   2.737   3.205
40207W        W 1518   9.754  33.560  12.529
40208W        W 1519  41.482  33.944   2.308
40209W        W 1520  17.666  21.598   0.910
40210W        W 1521  39.816  14.681  12.345
40211W        W 1522   9.646  30.131   2.198
40212W        W 1523  20.710  21.657   9.941
40213W        W 1524   0.273  12.278   4.671
40214W        W 1525  24.973  32.923  14.799
40215W        W 1526  22.165  44.942  13.056
40216W        W 1527   0.911  39.969   3.735
40217W        W 1528  36.921  27.119   1.305
40218W        W 1529  12.160  24.025   4.607
40219W        W 1530   5.290  25.688   4.204
40220W        W 1531   4.840  32.611   4.598
40221W        W 1532  21.156  18.180  14.898
40222W        W 1533  20.209  19.644   1.906
40223W        W 1534  40.466  18.572   2.662
40224W        W 1535   7.801  18.268  14.370
40225W        W 1536  39.018  22.211  10.431
40226W        W 1537  34.050  42.448   2.783
40227W        W 1538  24.637  40.979   3.764
40228W        W 1539  33.035  44.810   2.208
40229W        W 1540   3.455  27.547  11.444
40230W        W 1541   5.715  28.538   3.285
40231W        W 1542  24.171  34.981  14.964
40232W        W 1543  27.944  37.852  13.382
40233W        W 1544  29.008  27.043   2.768
40234W        W 1545  30.562  22.028   1.302
40235W        W 1546  15.673   4.838   1.376
40236W        W 1547  21.689  25.027  13.360
40237W        W 1548   2.374  41.984   1.293
40238W        W 1549  10.174  43.360  10.405
40239W        W 1550  17.752  13.652  12.511
40240W        W 1551  11.188  30.994   1.257
40241W        W 1552  23.023   7.844  13.927
40242W        W 1553  17.778   5.855   0.764
40243W        W 1554  44.427  37.042  13.982
40244W        W 1555  35.017  38.898  13.521
40245W        W 1556  17.563  34.547   4.782
40246W        W 1557  43.452  11.843   2.788
40247W        W 1558  27.459  12.315  12.367
40248W        W 1559  25.647   7.787   3.309
40249W        W 1560  21.721  12.190  13.524
40250W        W 1561  21.535  36.418   3.243
40251W        W 1562  32.535  11.780   1.417
40252W        W 1563  32.506  31.556  10.914
40253W        W 1564  23.239  23.000   0.946
40254W        W 1565  16.670  38.532  11.095
40255W        W 1566   4.841   5.726   4.138
40256W        W 1567  42.360  15.174   0.937
40257W        W 1568  39.891  43.403  11.576
40258W        W 1569  27.154  38.987   0.321
40259W        W 1570  40.961   0.471   2.827
40260W        W 1571  31.616  31.058   0.416
40261W        W 1572  18.673  23.648   2.842
40262W        W 1573  10.672  29.092   2.372
40263W        W 1574  39.351  31.640  14.405
40264W        W 1575  35.410  38.989  12.942
40265W        W 1576  10.866  27.515   2.866
40266W        W 1577   7.304   0.824  12.855
40267W        W 1578   6.691   6.296  13.390
40268W        W 1579  43.949  18.702   4.270
40269W        W 1580  39.497  22.718   2.275
40270W        W 1581  17.581  31.991  11.020
40271W        W 1582  44.835  42.962   0.267
40272W        W 1583  42.443   2.333  12.998
40273W        W 1584   6.289   5.707   1.883
40274W        W 1585  28.442  40.872  11.885
40275W        W 1586  14.165  29.071  10.424
40276W        W 1587  33.967  25.189   2.284
40277W        W 1588  16.731  44.819  10.567
40278W        W 1589   5.395  28.979   4.212
40279W        W 1590  32.603  36.350   0.476
40280W        W 1591  35.585   4.877   0.832
40281W        W 1592  20.597  23.656  13.334
40282W        W 1593  34.943  19.055   1.858
40283W        W 1594  26.044  31.896   0.405
40284W        W 1595   4.761  24.517   4.695
40285W        W 1596  23.093  13.348  11.109
40286W        W 1597  16.074  14.127  14.964
40287W        W 1598  30.554  32.412  13.954
40288W        W 1599   6.267  43.277  11.501
40289W        W 1600  35.021  38.968  14.400
40290W        W 1601   9.781  15.644   2.188
40291W        W 1602  43.375  27.464   4.733
40292W        W 1603  38.826   2.809  11.414
40293W        W 1604  28.092  10.316   3.697
40294W        W 1605   7.742   9.239  10.618
40295W        W 1606   3.381  21.645   1.411
40296W        W 1607   4.354  25.621   0.726
40297W        W 1608   7.371   9.184  14.987
40298W        W 1609   8.700  25.030   0.950
40299W        W 1610  28.650  11.785  11.604
40300W        W 1611  36.995  25.579  10.634
40301W        W 1612  10.180  19.633  14.910
40302W        W 1613  39.060  13.345   2.665
40303W        W 1614  11.728  24.168  12.516
40304W        W 1615  31.988  42.891  12.076
40305W        W 1616  13.808   3.832  14.364
40306W        W 1617  12.188  21.220  14.288
40307W        W 1618   4.834  41.352  10.078
40308W        W 1619  37.446  43.881   0.913
40309W        W 1620  25.051  23.061  10.419
40310W        W 1621  27.637  11.815   0.374
40311W        W 1622  30.045  13.288   3.379
40312W        W 1623  39.436  16.098   1.723
40313W        W 1624  23.542   6.222  13.910
40314W        W 1625  30.926  17.589   4.749
40315W        W 1626   4.830  14.802   3.633
40316W        W 1627  31.034  44.370  11.918
40317W        W 1628   2.288  36.005   5.237
40318W        W 1629  26.546  22.087   1.740
40319W        W 1630  44.448  17.589  14.305
40320W        W 1631  38.558   4.923  10.585
40321W        W 1632  37.992  16.743   4.634
40322W        W 1633  20.747  29.464  11.869
40323W        W 1634  21.255  20.528   2.389
40324W        W 1635  23.537  38.941   3.301
40325W        W 1636  31.598  35.901   2.780
40326W        W 1637  12.726   6.410  13.403
40327W        W 1638  18.192  15.741   2.814
40328W        W 1639  17.612  39.822   3.269
40329W        W 1640  43.829  33.119  14.862
40330W        W 1641  31.114  30.986   0.774
40331W        W 1642  18.642  11.838  10.029
40332W        W 1643  27.014   2.724   1.770
40333W        W 1644  21.160   8.687   2.289
40334W        W 1645  12.123   4.851   3.175
40335W        W 1646   6.326  15.196   0.246
40336W        W 1647  32.094  34.459  11.915
40337W        W 1648  26.525   5.193  14.759
40338W        W 1649  12.696   9.288  13.887
40339W        W 1650  22.670  27.955   2.312
40340W        W 1651  30.458  21.747   3.793
40341W        W 1652   4.742  43.949   2.892
40342W        W 1653  33.508   5.910  12.997
40343W        W 1654   6.255  40.025   4.248
40344W        W 1655  36.928   0.484  12.353
40345W        W 1656  17.676  41.481  12.042
40346W        W 1657  29.050  19.080   3.725
40347W        W 1658   8.821  40.021   3.219
40348W        W 1659  24.634  41.294  13.014
40349W        W 1660  28.544  16.587   4.341
40350W        W 1661  37.528  30.637  13.396
40351W        W 1662  28.650  17.071   3.163
40352W        W 1663  40.538   8.403  13.800
40353W        W 1664   2.809   2.800   2.834
40354W        W 1665  44.963  17.763  11.399
40355W        W 1666  43.304  28.614   3.255
40356W        W 1667  31.611  11.195  11.064
40357W        W 1668  39.393  20.526  12.039
40358W        W 1669  12.653  29.518  13.876
40359W        W 1670   2.356  36.962  13.371
40360W        W 1671  29.966  12.857   4.676
40361W        W 1672  23.513  44.467  14.304
40362W        W 1673  26.192  27.542   9.619
40363W        W 1674  36.935  37.488   5.744
40364W        W 1675  40.035   3.290   1.695
40365W        W 1676  36.410  43.902  10.626
40366W        W 1677  43.332  12.766  14.991
40367W        W 1678  11.759  29.948  11.965
40368W        W 1679  32.510  28.542   2.850
40369W        W 1680  40.897  40.451   2.213
40370W        W 1681  32.905  27.453   3.842
40371W        W 1682   2.369  18.064  12.896
40372W        W 1683  23.570  31.087   0.289
40373W        W 1684  30.538  19.769  13.332
40374W        W 1685  37.069  12.190  11.487
40375W        W 1686   3.749   6.272  10.516
40376W        W 1687  41.789  35.020   4.209
40377W        W 1688  35.409  35.884   4.327
40378W        W 1689   6.762  12.695   3.260
40379W        W 1690  38.076  41.360  13.014
40380W        W 1691  30.588   4.800  14.907
40381W        W 1692  42.336  30.463   3.157
40382W        W 1693  19.262  28.110  13.970
40383W        W 1694  11.732  22.613   5.113
40384W        W 1695   5.727  11.322   3.224
40385W        W 1696  44.358  28.590   1.292
40386W        W 1697  26.060  27.042   1.232
40387W        W 1698  33.550  18.613  10.152
40388W        W 1699   2.961  21.239  10.419
40389W        W 1700  14.734   4.743   3.165
40390W        W 1701  12.803   7.745   2.241
40391W        W 1702  38.881   7.836   0.868
40392W        W 1703  35.026  20.616   1.340
40393W        W 1704  18.214  35.518   1.327
40394W        W 1705  35.073   4.874  10.098
40395W        W 1706  29.481  27.012   1.932
40396W        W 1707  25.166  21.676  14.347
40397W        W 1708   1.863   1.421  14.417
40398W        W 1709  35.957  28.563  12.552
40399W        W 1710   3.826  19.053  12.831
40400W        W 1711  20.527  22.200   0.438
40401W        W 1712   9.875  13.222  12.091
40402W        W 1713  14.601   8.775  12.443
40403W        W 1714   0.818   1.926   4.659
40404W        W 1715   6.884  14.109   5.170
40405W        W 1716  44.402  22.500   2.219
40406W        W 1717  38.857   4.754   2.196
40407W        W 1718   9.689  28.981  14.990
40408W        W 1719  16.734  20.611   3.172
40409W        W 1720  38.501  19.284   3.177
40410W        W 1721   9.741  35.861   3.858
40411W        W 1722  14.338   2.294   3.266
40412W        W 1723  27.093  42.865   3.258
40413W        W 1724  24.193  32.628   4.827
40414W        W 1725  21.123   9.824   0.850
40415W        W 1726  29.945   6.206   3.269
40416W        W 1727  23.235   1.811  10.943
40417W        W 1728  39.016  43.499  10.903
40418W        W 1729   9.786   0.455   3.173
40419W        W 1730  20.757  18.651   4.662
40420W        W 1731  19.689  38.952  12.360
40421W        W 1732  33.447  44.780   3.290
40422W        W 1733  34.916  13.604   4.353
40423W        W 1734  40.401  16.100  11.893
40424W        W 1735  10.855  37.525  13.064
40425W        W 1736  36.489  43.835   2.779
40426W        W 1737  41.367  15.604   2.771
40427W        W 1738  23.731   7.398  14.422
40428W        W 1739  18.601  14.629  14.010
40429W        W 1740  21.206  40.845  14.798
40430W        W 1741   7.382  28.043   0.316
40431W        W 1742  12.740  32.567   3.718
40432W        W 1743  10.188   8.738   0.745
40433W        W 1744  18.734  10.381  10.040
40434W        W 1745  19.752  35.002   2.330
40435W        W 1746  42.409  36.364  11.943
40436W        W 1747  22.100  30.026  14.414
40437W        W 1748  23.048  13.642   3.654
40438W        W 1749  23.080  25.031  13.011
40439W        W 1750  24.009  14.596   1.742
40440W        W 1751  40.926   1.851   4.726
40441W        W 1752  34.110  13.753   0.341
40442W        W 1753  18.071  30.556  12.013
40443W        W 1754  20.634  38.380   3.650
40444W        W 1755  38.336   7.841   3.321
40445W        W 1756  26.060  39.396  13.457
40446W        W 1757  43.297  11.212  12.405
40447W        W 1758   0.852  37.361   1.824
40448W        W 1759  42.810  12.200   2.298
40449W        W 1760   5.752  20.640   4.679
40450W        W 1761  17.222  27.477  13.513
40451W        W 1762  35.556  22.212  14.295
40452W        W 1763   3.262  24.489  12.861
40453W        W 1764  17.725  22.558  13.984
40454W        W 1765  41.000  30.413  13.846
40455W        W 1766  41.030  11.790   4.166
40456W        W 1767  17.762   3.401  10.544
40457W        W 1768  31.407  39.407   1.444
40458W        W 1769  10.372  35.570  11.427
40459W        W 1770  14.748  38.858   0.302
40460W        W 1771  42.283  24.061   4.684
40461W        W 1772  26.048   4.406   2.701
40462W        W 1773  21.162  16.569  13.014
40463W        W 1774  21.736  19.613   1.373
40464W        W 1775  37.466  39.896  10.938
40465W        W 1776   0.764  16.662  10.427
40466W        W 1777   0.447  20.736   3.256
40467W        W 1778   7.703  28.491  10.585
40468W        W 1779  37.883  30.089   5.254
40469W        W 1780  16.763  44.989  10.919
40470W        W 1781  11.840  17.790   0.365
40471W        W 1782  33.034  11.273  12.466
40472W        W 1783   4.788  11.632  14.939
40473W        W 1784  44.840  30.161  11.063
40474W        W 1785  24.519  36.393   4.823
40475W        W 1786   8.860  28.564  14.387
40476W        W 1787  23.026  21.668  12.962
40477W        W 1788  24.193  44.282   4.622
40478W        W 1789  34.610  21.052   1.893
40479W        W 1790  43.845   0.315  13.933
40480W        W 1791  31.526  17.774   2.695
40481W        W 1792  31.994  26.495   2.822
40482W        W 1793  20.577  13.122   2.327
40483W        W 1794  36.556  42.483   1.409
40484W        W 1795  18.100   8.395  14.786
40485W        W 1796  35.896  32.103  12.017
40486W        W 1797  20.527  27.072   1.236
40487W        W 1798  20.705  33.558   0.412
40488W        W 1799  33.099  30.014  14.389
40489W        W 1800   4.281  11.757   2.695
40490W        W 1801  27.151  14.267  13.014
40491W        W 1802   6.851  26.061  14.458
40492W        W 1803  15.176  32.406   1.420
40493W        W 1804   9.683  24.119   1.923
40494W        W 1805  34.607  40.858   2.758
40495W        W 1806  38.027  37.033  12.468
40496W        W 1807   7.689   4.937  12.069
40497W        W 1808  33.603  39.992  11.878
40498W        W 1809  21.071  14.106  11.515
40499W        W 1810  41.925   9.720  13.922
40500W        W 1811  13.123  30.565   4.137
40501W        W 1812  18.066  19.097   0.462
40502W        W 1813  38.072   8.290  10.496
40503W        W 1814  27.971  42.864  14.803
40504W        W 1815  33.554  33.497  13.494
40505W        W 1816  33.113   1.772  10.406
40506W        W 1817  33.582  14.173   0.903
40507W        W 1818  40.394  15.662  14.434
40508W        W 1819  29.074  29.919   3.711
40509W        W 1820  38.940  13.836   4.350
40510W        W 1821  11.345  19.134   4.293
40511W        W 1822  31.083  40.393   3.325
40512W        W 1823  41.415  33.912  12.059
40513W        W 1824  43.457   3.829  14.863
40514W        W 1825  38.380  17.556  12.962
40515W        W 1826  40.954  15.711  11.921
40516W        W 1827  44.388  33.951   1.377
40517W        W 1828  13.268  23.618   4.827
40518W        W 1829  11.180   9.801   4.743
40519W        W 1830  35.422  36.918   3.153
40520W        W 1831  44.490   3.281   5.084
40521W        W 1832   1.371  29.995  14.843
40522W        W 1833  29.551  11.651   0.275
40523W        W 1834  29.169  15.276  14.462
40524W        W 1835  23.610   4.736   2.808
40525W        W 1836   6.806  15.729  12.577
40526W        W 1837  20.552  34.906   4.719
40527W        W 1838  41.341  30.011  13.525
40528W        W 1839  37.076  19.188   1.841
40529W        W 1840   6.761  31.032   0.334
40530W        W 1841  27.078  35.059  14.381
40531W        W 1842  12.352  31.639  10.488
40532W        W 1843   1.756  13.263   4.745
40533W        W 1844  21.188  35.931   1.750
40534W        W 1845  36.896   6.230  12.354
40535W        W 1846   3.918  15.205  12.573
40536W        W 1847   8.710  31.077   3.749
40537W        W 1848  26.988   6.390   0.437
40538W        W 1849   6.845  30.583   4.667
40539W        W 1850  28.603   3.300  11.396
40540W        W 1851   1.820  30.098  10.963
40541W        W 1852  37.944  28.447   2.754
40542W        W 1853  21.109   3.347   0.252
40543W        W 1854   3.926  42.793  10.476
40544W        W 1855  10.219  35.095  14.325
40545W        W 1856   4.860  24.051  11.496
40546W        W 1857  40.818  24.018   1.824
40547W        W 1858   9.721  41.403  11.487
40548W        W 1859  35.589  32.024   1.840
40549W        W 1860  44.837  36.014  11.118
40550W        W 1861  36.927  20.658   3.786
40551W        W 1862  40.520  37.505   1.797
40552W        W 1863   8.219  38.535  13.900
40553W        W 1864  26.026  20.648   3.151
40554W        W 1865  14.134  30.487  14.840
40555W        W 1866  24.105  37.895  10.433
40556W        W 1867  38.437  23.037   2.895
40557W        W 1868  32.456  39.447   4.162
40558W        W 1869  21.744  11.242   3.648
40559W        W 1870  34.872  40.463  12.378
40560W        W 1871  29.462   3.378  12.899
40561W        W 1872  32.088   6.386  13.871
40562W        W 1873  17.771  20.533  12.849
40563W        W 1874   5.730  43.939  13.898
40564W        W 1875  22.154  42.797   5.131
40565W        W 1876   5.828   1.337   4.143
40566W        W 1877  29.026  36.437  11.035
40567W        W 1878  32.486   6.375   4.133
40568W        W 1879  19.593  13.317   2.323
40569W        W 1880  17.298   6.401  13.801
40570W        W 1881  32.433  17.218   2.670
40571W        W 1882  14.212  27.632  14.362
40572W        W 1883  32.080  12.320   2.681
40573W        W 1884  41.814  43.809   3.309
40574W        W 1885  34.596  16.089   2.694
40575W        W 1886   6.344   6.836  13.390
40576W        W 1887  35.412   4.250   4.191
40577W        W 1888  14.113  30.638   3.806
40578W        W 1889   4.319  17.087   0.892
40579W        W 1890  17.229  22.121  10.070
40580W        W 1891  34.405  32.131   2.399
40581W        W 1892  27.082  32.602   0.858
40582W        W 1893  12.223   7.347  13.058
40583W        W 1894  15.196  10.304   2.679
40584W        W 1895  13.164  27.602  11.972
40585W        W 1896  14.102  20.133   2.886
40586W        W 1897   7.347  42.002  13.392
40587W        W 1898  31.965  35.889   4.700
40588W        W 1899  15.785   7.839   0.449
40589W        W 1900  26.633  35.591  11.902
40590W        W 1901   0.305   1.773   2.726
40591W        W 1902  18.657   3.438   0.930
40592W        W 1903  10.362   8.697   4.338
40593W        W 1904  23.659  30.086   0.263
40594W        W 1905  10.779  11.169  10.987
40595W        W 1906  39.460   6.862   1.817
40596W        W 1907  17.086   3.793  11.944
40597W        W 1908  30.445  41.915   3.279
40598W        W 1909  12.854  21.094   4.818
40599W        W 1910   8.745  37.454   2.848
40600W        W 1911  12.240  29.028   3.282
40601W        W 1912  22.629  36.862   2.416
40602W        W 1913   9.188  18.749   0.392
40603W        W 1914  12.200  18.744  12.414
40604W        W 1915  16.140   6.871   4.156
40605W        W 1916   9.259   1.476  13.489
40606W        W 1917  42.833   1.433   3.299
40607W        W 1918  26.174   4.418  10.961
40608W        W 1919  30.955   1.879  10.008
40609W        W 1920  19.124  29.956   2.729
40610W        W 1921  42.485  32.516  13.808
40611W        W 1922  15.292  37.371  12.924
40612W        W 1923   1.752  36.458  11.567
40613W        W 1924  37.529  35.033   1.858
40614W        W 1925  11.269   9.167  13.328
40615W        W 1926   1.851   2.403   4.642
40616W        W 1927   5.226  38.457   0.323
40617W        W 1928   4.376   5.237  14.325
40618W        W 1929  16.596   6.246   1.450
40619W        W 1930  29.175  37.901   3.735
40620W        W 1931  11.865  10.138  14.384
40621W        W 1932  37.073   7.368   0.934
40622W        W 1933  34.540  27.545   1.711
40623W        W 1934  39.993  17.288  11.456
40624W        W 1935  13.792  35.578  11.077
40625W        W 1936  11.856  41.976  11.921
40626W        W 1937   4.339  42.398   1.884
40627W        W 1938   1.763  11.709   1.753
40628W        W 1939  27.631  39.027   0.910
40629W        W 1940  26.953  13.265  10.456
40630W        W 1941   6.747  32.917   0.728
40631W        W 1942  22.232  28.949  11.570
40632W        W 1943   8.391   4.384  11.990
40633W        W 1944  12.759  13.315   3.656
40634W        W 1945  10.707  13.710   1.750
40635W        W 1946  26.594  34.520  13.851
40636W        W 1947   7.313  34.868  10.920
40637W        W 1948  19.592  43.904  12.884
40638W        W 1949   8.848  18.607   2.751
40639W        W 1950  20.652  30.625   1.449
40640W        W 1951  22.580  40.842  12.454
40641W        W 1952  13.121  44.763  14.851
40642W        W 1953  37.013  37.981   4.611
40643W        W 1954  10.173  41.924   2.709
40644W        W 1955  31.648  30.109  12.088
40645W        W 1956  19.246   0.411  14.479
40646W        W 1957  28.117  41.855   0.818
40647W        W 1958  25.495  16.173  13.323
40648W        W 1959  31.945  42.419  14.012
40649W        W 1960  31.060  33.022  10.549
40650W        W 1961   1.473  29.080  11.891
40651W        W 1962  15.689  27.085   5.306
40652W        W 1963  39.869  30.930  12.539
40653W        W 1964  22.532  38.884  12.871
40654W        W 1965  27.068  24.045   0.875
40655W        W 1966  44.858  13.176  11.408
40656W        W 1967  13.635  17.243  11.609
40657W        W 1968  11.801   6.720   1.212
40658W        W 1969  34.510  19.560  14.945
40659W        W 1970  13.821  11.341   0.759
40660W        W 1971   4.850  13.602  12.071
40661W        W 1972   3.285  39.379   3.803
40662W        W 1973  14.595  22.201  11.573
40663W        W 1974  44.967  31.632   1.423
40664W        W 1975  15.805   6.353  10.064
40665W        W 1976   3.948  19.705  10.955
40666W        W 1977  18.125   9.783   1.924
40667W        W 1978  30.447  36.418  14.003
40668W        W 1979  23.029  32.536   0.921
40669W        W 1980  23.181  36.018  11.914
40670W        W 1981  20.632  39.833  12.377
40671W        W 1982   7.855  43.399   0.942
40672W        W 1983   6.851  14.676  11.918
40673W        W 1984   5.811  13.259   0.351
40674W        W 1985  11.172   8.666   0.270
40675W        W 1986  17.250  38.399  13.386
40676W        W 1987  39.907  29.435   2.257
40677W        W 1988  40.307   9.764  14.899
40678W        W 1989  37.342   7.204   4.254
40679W        W 1990  29.117  20.726  12.903
40680W        W 1991  26.202  22.024   0.769
40681W        W 1992  28.103  31.638  14.935
40682W        W 1993   0.368   3.273  12.365
40683W        W 1994  24.187  14.275   2.341
40684W        W 1995  40.531  19.634   0.346
40685W        W 1996  32.139  25.477  11.563
40686W        W 1997  33.503  33.401  10.156
40687W        W 1998   2.737   1.391   3.369
40688W        W 1999  18.122  30.984  10.428
40689W        W 2000  44.907  37.345  13.425
40690W        W 2001  16.308  24.191  11.529
40691W        W 2002  43.437  25.672  13.399
40692W        W 2003   7.734  16.286  14.398
40693W        W 2004   9.874  21.744   1.927
40694W        W 2005  41.844  32.394  11.389
40695W        W 2006   5.858  32.140   2.733
40696W        W 2007   2.275   7.735   2.393
40697W        W 2008  43.401  11.364   1.920
40698W        W 2009  33.082  21.050  13.999
40699W        W 2010  31.077  43.891   4.804
40700W        W 2011  38.901  32.096   4.156
40701W        W 2012  33.457  10.298  13.852
40702W        W 2013  10.338  29.987   1.299
40703W        W 2014  12.781  41.871   1.892
40704W        W 2015   0.932   8.718  11.598
40705W        W 2016  13.350   9.683  14.380
40706W        W 2017   7.800  27.113   2.242
40707W        W 2018   6.352  21.234  11.417
40708W        W 2019  13.825  17.147  13.411
40709W        W 2020  32.069  43.438   1.342
40710W        W 2021   7.383  34.908  12.543
40711W        W 2022   6.805  26.101   3.241
40712W        W 2023  25.133  42.420   3.302
40713W        W 2024  39.413  38.906   2.375
40714W        W 2025   2.245  19.732  11.093
40715W        W 2026  17.618  13.206   9.436
40716W        W 2027  43.469  31.467  10.422
40717W        W 2028   7.275  29.610  12.949
40718W        W 2029   4.434  38.000   3.647
40719W        W 2030   6.756  14.304   2.357
40720W        W 2031  37.561  28.951  10.427
40721W        W 2032  19.654  33.964   4.135
40722W        W 2033  14.648  25.003  12.424
40723W        W 2034  31.498  22.208   3.272
40724W        W 2035  38.564  37.018  12.862
40725W        W 2036  33.121  18.085   4.816
40726W        W 2037  29.168  34.552   1.903
40727W        W 2038  44.779   3.791  12.883
40728W        W 2039  20.077   7.730   1.897
40729W        W 2040   7.890  20.556   1.280
40730W        W 2041  25.709  15.180  11.475
40731W        W 2042   4.849  30.095  14.889
40732W        W 2043   9.237  26.203   2.761
40733W        W 2044  11.631  40.471   4.721
40734W        W 2045  18.233  29.428   2.821
40735W        W 2046  13.261  24.706  12.561
40736W        W 2047  32.973  43.963   3.340
40737W        W 2048  29.140  27.591  14.410
40738W        W 2049  44.803  17.306   3.245
40739W        W 2050  41.425  31.083  14.868
40740W        W 2051   7.222  43.932   3.853
40741W        W 2052  25.174   0.423   2.865
40742W        W 2053  35.548  15.813  12.470
40743W        W 2054  38.995  41.535   2.180
40744W        W 2055  25.547  33.890  14.506
40745W        W 2056  42.311  18.258   2.758
40746W        W 2057   4.785  16.783   5.601
40747W        W 2058   4.791  34.485   0.864
40748W        W 2059  43.384  12.774   3.747
40749W        W 2060  44.357  17.626   1.436
40750W        W 2061  14.672  27.113   5.134
40751W        W 2062  13.603   3.760   2.828
40752W        W 2063  39.473  39.420   2.744
40753W        W 2064   7.389  23.562  10.607
40754W        W 2065  34.983  30.032  13.375
40755W        W 2066   4.849  31.900  10.904
40756W        W 2067   8.721  22.214   3.289
40757W        W 2068  26.600  12.253   3.676
40758W        W 2069  20.655  17.732  14.437
40759W        W 2070  44.848  27.541  10.891
40760W        W 2071  18.732   6.690  12.466
40761W        W 2072  13.750   2.779  13.058
40762W        W 2073  33.447  40.426   4.187
40763W        W 2074   3.898  36.398  12.497
40764W        W 2075   7.686  10.173   4.140
40765W        W 2076  15.178  43.271   2.858
40766W        W 2077  32.965  22.063   1.292
40767W        W 2078  11.728  29.979  14.895
40768W        W 2079  39.940  34.936   3.221
40769W        W 2080  33.938  35.981  13.047
40770W        W 2081  18.720  37.831  11.573
40771W        W 2082  19.054  32.433   4.145
40772W        W 2083  11.677  25.966  11.055
40773W        W 2084  28.475  15.147  12.019
40774W        W 2085  36.577  11.838   1.303
40775W        W 2086   6.694  43.775  13.451
40776W        W 2087  44.269   1.955  10.456
40777W        W 2088   5.411  27.456   1.242
40778W        W 2089   4.702   1.832   1.773
40779W        W 2090  22.676  34.027   0.960
40780W        W 2091  12.287  13.637  12.395
40781W        W 2092  18.138  16.178   0.824
40782W        W 2093  28.608  21.162  13.986
40783W        W 2094  41.474   6.916  13.882
40784W        W 2095  28.108  22.635   2.863
40785W        W 2096  13.710  25.709  14.292
40786W        W 2097  28.940  12.720  14.302
40787W        W 2098  33.879  30.572   2.255
40788W        W 2099  25.191  21.192   4.286
40789W        W 2100   6.218  21.704  12.494
40790W        W 2101  35.585  13.600   1.329
40791W        W 2102  28.081  18.770   4.202
40792W        W 2103  43.355  44.348  14.332
40793W        W 2104  25.008  36.991   3.866
40794W        W 2105   8.392   8.298  12.890
40795W        W 2106   1.843   6.722  11.908
40796W        W 2107  13.748  27.501  10.636
40797W        W 2108  14.214  35.389  14.858
40798W        W 2109  20.126  32.482  11.057
40799W        W 2110  20.758  13.789  14.004
40800W        W 2111   0.280   7.397  12.033
40801W        W 2112  38.045   1.953  10.435
40802W        W 2113  35.022  28.992   0.367
40803W        W 2114  44.273   0.846  11.093
40804W        W 2115  33.022  33.079  12.380
40805W        W 2116  31.509  19.552   0.761
40806W        W 2117  23.521  18.670   0.777
40807W        W 2118   6.880  26.966  11.868
40808W        W 2119   7.903  37.069   1.920
40809W        W 2120  38.448  36.364  12.573
40810W        W 2121  37.872   2.462   2.736
40811W        W 2122  15.632  36.371  13.886
40812W        W 2123  26.032  19.081  12.376
40813W        W 2124  16.174  18.055   4.601
40814W        W 2125  14.607  33.092  10.492
40815W        W 2126  28.548  24.518  13.016
40816W        W 2127  13.351   9.221   2.329
40817W        W 2128   8.166  11.344   3.746
40818W        W 2129  30.122  16.090   0.753
40819W        W 2130  19.069  38.001  14.839
40820W        W 2131   9.340  15.581   0.246
40821W        W 2132  30.538  36.923  11.467
40822W        W 2133   0.490  36.414   3.258
40823W        W 2134   0.248  12.172  11.957
40824W        W 2135  23.045   6.379  12.056
40825W        W 2136  30.549  34.069   0.778
40826W        W 2137  14.227   8.368  11.049
40827W        W 2138  28.477  22.706  12.906
40828W        W 2139  25.098   9.288   2.871
40829W        W 2140   3.734  24.025  13.356
40830W        W 2141  16.110  19.068  11.417
40831W        W 2142  44.340  31.020  14.022
40832W        W 2143   6.917  26.195  14.823
40833W        W 2144  43.467  33.509  10.577
40834W        W 2145  27.626  12.807  11.595
40835W        W 2146   0.363   6.275  10.597
40836W        W 2147  40.043  34.964   4.665
40837W        W 2148  14.593  19.717  11.005
40838W        W 2149   3.918  21.064   3.363
40839W        W 2150  36.983  13.724   1.723
40840W        W 2151   1.957  22.085  11.053
40841W        W 2152  40.855   8.775  10.922
40842W        W 2153  13.239  14.708  12.397
40843W        W 2154   8.686   9.824   2.226
40844W        W 2155  27.625   5.322   3.663
40845W        W 2156  31.126  19.137  11.978
40846W        W 2157   3.234  13.756  10.481
40847W        W 2158  17.642  33.419   1.406
40848W        W 2159   0.463  36.999   3.814
40849W        W 2160  38.434  14.175  12.447
40850W        W 2161   2.915  18.282  13.507
40851W        W 2162   4.304   6.681  13.896
40852W        W 2163  37.062   2.405   1.403
40853W        W 2164  21.063  44.932   0.761
40854W        W 2165  19.762  39.462  11.876
40855W        W 2166  15.224  44.787   1.787
40856W        W 2167  15.144  11.270   3.163
40857W        W 2168  34.502  22.140   2.414
40858W        W 2169  33.918  13.742   2.348
40859W        W 2170   3.713  30.958  10.982
40860W        W 2171  23.560  40.008  14.760
40861W        W 2172  37.520  31.612  13.850
40862W        W 2173  33.912   0.293  14.333
40863W        W 2174  12.290  34.013  13.983
40864W        W 2175  12.627   9.811   3.228
40865W        W 2176  24.659  28.155  13.963
40866W        W 2177  24.012  33.413  11.855
40867W        W 2178  16.072  35.486   4.206
40868W        W 2179   4.366  22.675  14.821
40869W        W 2180  42.962  17.630   1.917
40870W        W 2181   8.307   9.175   4.837
40871W        W 2182   9.238  38.950  11.519
40872W        W 2183   8.721  33.974   2.744
40873W        W 2184  23.187  16.600  10.099
40874W        W 2185  44.826  27.524   3.697
40875W        W 2186   0.978  26.197  10.926
40876W        W 2187   2.817  11.674   0.301
40877W        W 2188  16.159   7.344   3.694
40878W        W 2189  26.158   3.298   4.771
40879W        W 2190  20.749   0.897  10.613
40880W        W 2191  30.414   9.828   3.300
40881W        W 2192  25.588  18.143  10.986
40882W        W 2193   8.213  36.566   3.313
40883W        W 2194  23.610  38.331   3.149
40884W        W 2195  18.265  32.595   0.872
40885W        W 2196  31.040  24.996  14.004
40886W        W 2197  28.534  38.523  11.416
40887W        W 2198  41.972  38.061   1.707
40888W        W 2199  32.081   6.755   5.582
40889W        W 2200   9.254   5.213  14.031
40890W        W 2201  24.195   6.210  14.800
40891W        W 2202  14.288  30.603  10.953
40892W        W 2203  12.633   1.453  13.027
40893W        W 2204  25.647  19.601   5.243
40894W        W 2205  21.263  12.856  14.885
40895W        W 2206  30.146   3.717   3.386
40896W        W 2207  36.424  38.495  11.389
40897W        W 2208  43.004   8.736  10.889
40898W        W 2209  31.102   0.749   5.089
40899W        W 2210  42.333  44.882   4.814
40900W        W 2211  32.539  30.657   0.321
40901W        W 2212  39.928  14.768  11.601
40902W        W 2213  14.644  17.634  13.385
40903W        W 2214   9.216  35.516   1.895
40904W        W 2215   2.409  14.129   3.675
40905W        W 2216  19.074   1.428   3.791
40906W        W 2217   0.266   9.705   3.333
40907W        W 2218  39.907  23.021   0.799
40908W        W 2219  17.622   7.693   4.192
40909W        W 2220  34.951  39.398   2.244
40910W        W 2221  42.398  11.750   2.809
40911W        W 2222   7.361  39.545  14.793
40912W        W 2223  11.349   7.717   3.311
40913W        W 2224  40.530  12.759  11.036
40914W        W 2225   8.199  16.086  13.379
40915W        W 2226  36.566   3.922   1.820
40916W        W 2227   7.875  13.119  10.469
40917W        W 2228  44.907  44.261   1.845
40918W        W 2229   4.731  20.051   2.397
40919W        W 2230  22.198  42.854   0.870
40920W        W 2231  16.161  32.104  10.470
40921W        W 2232  44.983  29.956   1.263
40922W        W 2233  16.797  15.299   0.929
40923W        W 2234  32.614  29.167  13.951
40924W        W 2235  14.757  28.945  10.615
40925W        W 2236  26.123   8.254  14.904
40926W        W 2237  41.412   7.416  12.339
40927W        W 2238  37.045  16.304  12.058
40928W        W 2239   6.225  18.729   0.965
40929W        W 2240   9.277   2.409   1.294
40930W        W 2241  30.039  36.504   3.724
40931W        W 2242   9.740  10.770   1.873
40932W        W 2243   4.306  29.055   4.300
40933W        W 2244   8.741  34.038  14.015
40934W        W 2245  30.507  26.971   4.789
40935W        W 2246  35.109  14.278  14.312
40936W        W 2247  30.991  34.504   0.874
40937W        W 2248   1.877  42.452  11.562
40938W        W 2249  40.408   1.474   4.228
40939W        W 2250  16.105  12.187  13.808
40940W        W 2251  19.239  22.226   4.692
40941W        W 2252   2.850  41.492   4.283
40942W        W 2253  32.038  37.082   2.734
40943W        W 2254  36.974  42.293   2.349
40944W        W 2255   6.224  41.839  10.467
40945W        W 2256  24.149  22.612  11.602
40946W        W 2257  19.660  42.383  13.852
40947W        W 2258  19.108  35.581  11.461
40948W        W 2259  41.990   5.399  13.317
40949W        W 2260  37.452  43.405   0.887
40950W        W 2261  17.230  10.357  11.604
40951W        W 2262  22.549   2.854  14.358
40952W        W 2263   4.269   9.879  14.992
40953W        W 2264  34.005   1.367  12.949
40954W        W 2265  15.166   7.871  10.079
40955W        W 2266   3.912  22.183   3.247
40956W        W 2267  12.739  22.080  12.082
40957W        W 2268  34.461   9.351  14.452
40958W        W 2269  28.173  42.337   3.251
40959W        W 2270  34.425  36.485   1.796
40960W        W 2271   8.894  17.747   0.744
40961W        W 2272   9.806  26.959  14.308
40962W        W 2273  29.467   7.256   4.790
40963W        W 2274  23.998   1.337  10.478
40964W        W 2275  13.697  19.273   3.824
40965W        W 2276  35.374  18.631   1.439
40966W        W 2277   9.232  17.249   1.744
40967W        W 2278   3.906  10.799  13.365
40968W        W 2279  41.346  16.204  10.919
40969W        W 2280  21.060  31.994  13.529
40970W        W 2281  31.547  31.075   1.934
40971W        W 2282  26.019  36.454   1.934
40972W        W 2283  38.392  10.360   1.926
40973W        W 2284  17.578   4.376   0.419
40974W        W 2285  29.037  41.411   1.376
40975W        W 2286  32.399   1.927   4.779
40976W        W 2287  27.463   0.909   1.862
40977W        W 2288  14.335  34.371   0.823
40978W        W 2289   6.690  23.603   3.271
40979W        W 2290  15.722  21.568   0.727
40980W        W 2291  30.981  26.060  10.963
40981W        W 2292  23.667   7.839  14.511
40982W        W 2293  33.927  10.203   2.804
40983W        W 2294  25.963  33.606   1.750
40984W        W 2295  19.713   2.418  13.858
40985W        W 2296  21.524  13.648  11.379
40986W        W 2297  43.323   6.403   2.264
40987W        W 2298  42.924  27.120  10.991
40988W        W 2299  13.775  24.980   1.451
40989W        W 2300  31.070  37.842   2.840
40990W        W 2301   8.854  10.256  13.960
40991W        W 2302   9.656  29.050   2.384
40992W        W 2303  36.042   4.816   4.220
40993W        W 2304  42.016  35.872   0.469
40994W        W 2305  40.865  42.395  13.368
40995W        W 2306   6.868   5.857  11.415
40996W        W 2307  15.648  32.091  11.008
40997W        W 2308  40.306   6.816  11.113
40998W        W 2309  19.079   1.813   0.929
40999W        W 2310   4.422  40.815  10.912
41000W        W 2311  43.351  22.521  13.047
41001W        W 2312  43.345  36.028  10.510
41002W        W 2313  31.938  34.915   3.382
41003W        W 2314  43.476  43.006  14.845
41004W        W 2315  30.438  33.085  11.008
41005W        W 2316  17.710  28.072   1.712
41006W        W 2317  43.480  16.128  11.950
41007W        W 2318  20.572   8.805   3.737
41008W        W 2319  13.158  36.581  13.930
41009W        W 2320  21.527   6.198   0.844
41010W        W 2321  26.674  36.396  14.023
41011W        W 2322   5.206  37.355  12.551
41012W        W 2323  39.410  37.081  12.387
41013W        W 2324  14.678  16.097  13.338
41014W        W 2325   4.420  34.091  10.422
41015W        W 2326  39.394  25.496   2.310
41016W        W 2327  28.525  32.577  12.507
41017W        W 2328  24.105  40.811   1.842
41018W        W 2329  18.704  14.221  13.898
41019W        W 2330  31.106  14.153  10.069
41020W        W 2331  25.201  30.556  12.407
41021W        W 2332  37.381  43.988   4.750
41022W        W 2333   9.273  39.903  11.039
41023W        W 2334  38.878  17.141   1.393
41024W        W 2335  11.747  10.352   2.210
41025W        W 2336  39.033  29.545   1.236
41026W        W 2337   5.420  24.544  11.931
41027W        W 2338  25.152  33.963   2.723
41028W        W 2339  22.024  42.982   2.232
41029W        W 2340  16.688  18.269   5.305
41030W        W 2341  37.369   2.444  13.494
41031W        W 2342  13.177  17.066  13.362
41032W        W 2343  39.817   1.871   2.408
41033W        W 2344   2.452  28.943  11.026
41034W        W 2345  14.237  17.623   1.701
41035W        W 2346   8.290  43.973   0.967
41036W        W 2347  44.758  16.761  11.859
41037W        W 2348  13.343   6.304   4.688
41038W        W 2349  19.073  38.910   3.263
41039W        W 2350  26.588  33.958   2.213
41040W        W 2351  31.006   3.280  13.541
41041W        W 2352  33.032  21.158  10.889
41042W        W 2353  29.613  43.009  10.087
41043W        W 2354   0.367  42.457  13.933
41044W        W 2355  29.619  38.053   0.266
41045W        W 2356   9.335  14.179  10.529
41046W        W 2357  35.921  23.126  14.804
41047W        W 2358   8.802   9.250   3.870
41048W        W 2359  32.519  26.112   1.367
41049W        W 2360  43.782  28.062   0.923
41050W        W 2361  10.343   7.249   0.357
41051W        W 2362  27.454  14.255   2.378
41052W        W 2363  39.325  32.612   2.686
41053W        W 2364   6.709   6.717   2.710
41054W        W 2365  16.693  16.698  12.503
41055W        W 2366  17.665  42.374  11.885
41056W        W 2367  30.077  23.532   3.704
41057W        W 2368   4.343  13.686  13.458
41058W        W 2369  27.531  30.437  13.987
41059W        W 2370  27.610   8.264   0.792
41060W        W 2371  35.484  42.025  13.032
41061W        W 2372  41.299  12.256  13.941
41062W        W 2373  29.508   1.795   3.206
41063W        W 2374   1.801  22.557   2.663
41064W        W 2375  29.057   7.330   4.831
41065W        W 2376  38.347   9.214  14.900
41066W        W 2377  32.416  31.916  11.481
41067W        W 2378  15.805   9.212   2.893
41068W        W 2379  23.079  43.509  12.462
41069W        W 2380  30.483   5.329   1.829
41070W        W 2381  23.527   2.395  11.059
41071W        W 2382  42.847   6.912  12.556
41072W        W 2383  25.147   4.830  11.040
41073W        W 2384  30.984   6.389  11.533
41074W        W 2385  28.137  27.978   4.247
41075W        W 2386  27.453  41.789   3.316
41076W        W 2387  11.248  20.696   0.801
41077W        W 2388  19.235  34.614  11.951
41078W        W 2389  12.178  36.502   1.878
41079W        W 2390   7.844  19.774   3.787
41080W        W 2391  30.977   6.821   4.633
41081W        W 2392   7.174  11.251   3.239
41082W        W 2393   8.323  33.410  12.930
41083W        W 2394   1.383  43.776   4.240
41084W        W 2395  34.378   1.773   0.777
41085W        W 2396   6.823   1.320  13.870
41086W        W 2397  26.954  32.124   4.693
41087W        W 2398  14.606  38.423  13.842
41088W        W 2399  23.104  42.920   3.307
41089W        W 2400   4.323  16.812   5.692
41090W        W 2401  15.168  25.547   4.738
41091W        W 2402  30.531  44.489   4.688
41092W        W 2403   0.253  26.074  14.799
41093W        W 2404  14.749  40.370   3.327
41094W        W 2405   9.700   0.935  10.636
41095W        W 2406  19.120  38.566  10.121
41096W        W 2407  22.015   3.892   2.850
41097W        W 2408  44.814  24.132  14.773
41098W        W 2409  32.602  28.610   2.324
41099W        W 2410  16.076  15.766   5.106
41100W        W 2411  10.189  27.956  10.525
41101W        W 2412  39.928  13.245  13.483
41102W        W 2413  24.509   5.823  10.608
41103W        W 2414  23.599  24.713   3.361
41104W        W 2415  40.051  28.067   3.696
41105W        W 2416  18.169  19.282  14.817
41106W        W 2417   8.268   2.883  11.600
41107W        W 2418  19.629   7.829   0.429
41108W        W 2419  29.147  31.068   3.364
41109W        W 2420  14.302   6.789  14.307
41110W        W 2421   9.869  38.540  11.437
41111W        W 2422  11.692  40.038   2.897
41112W        W 2423  24.129   7.180   5.171
41113W        W 2424   2.864  14.711  13.822
41114W        W 2425  12.262   7.379   3.294
41115W        W 2426   9.352  16.677   2.244
41116W        W 2427  20.073  28.045  14.791
41117W        W 2428  22.563  14.654  13.456
41118W        W 2429  41.964  14.680   1.883
41119W        W 2430  30.098  20.248  12.032
41120W        W 2431  39.518  37.534  11.879
41121W        W 2432  42.905   3.737   2.277
41122W        W 2433  31.929  33.614   5.247
41123W        W 2434   2.364  25.563  11.104
41124W        W 2435  37.340  11.667   4.246
41125W        W 2436  41.462  23.655  13.483
41126W        W 2437   5.896  12.249   0.842
41127W        W 2438  38.969  40.311   9.937
41128W        W 2439   3.216  20.173  14.293
41129W        W 2440  16.280  18.139  12.533
41130W        W 2441  26.520   8.886  10.524
41131W        W 2442   3.784  27.449   0.246
41132W        W 2443  32.045  11.270  14.430
41133W        W 2444  37.507  27.534   3.180
41134W        W 2445  41.857  44.483   9.946
41135W        W 2446  13.292   6.192   2.374
41136W        W 2447  26.487  33.606   0.935
41137W        W 2448  40.406  29.432  12.068
41138W        W 2449   4.259   0.323   3.801
41139W        W 2450  17.654  23.503  11.871
41140W        W 2451  10.818  12.675  10.494
41141W        W 2452   1.349  43.473   4.332
41142W        W 2453  39.907   8.365  11.606
41143W        W 2454  24.102   7.209   9.960
41144W        W 2455  34.874  39.499  12.937
41145W        W 2456  25.132   5.227  11.027
41146W        W 2457  26.064   9.805   4.632
41147W        W 2458   8.745  28.952   3.651
41148W        W 2459  24.671  33.898   0.888
41149W        W 2460  36.021  44.412  12.407
41150W        W 2461  17.759   5.928   4.621
41151W        W 2462  30.478  27.020   2.329
41152W        W 2463  31.613  20.605   3.325
41153W        W 2464  30.135  39.907   4.643
41154W        W 2465  37.472  29.976   1.277
41155W        W 2466  36.524  29.956  10.514
41156W        W 2467   3.877  22.073  12.841
41157W        W 2468  32.590  19.565  10.984
41158W        W 2469  29.122  23.692   1.713
41159W        W 2470  21.575  13.289  14.288
41160W        W 2471  42.380  23.563  11.612
41161W        W 2472   0.872   3.379   3.184
41162W        W 2473   3.804   9.366  10.608
41163W        W 2474  26.697   5.914   4.224
41164W        W 2475  17.302  14.138  14.389
41165W        W 2476   8.170   9.348   0.810
41166W        W 2477  12.683  41.346  13.311
41167W        W 2478  14.276   6.417  11.910
41168W        W 2479   1.384  29.525   0.930
41169W        W 2480   5.309   5.807  11.900
41170W        W 2481   9.665  23.229   3.299
41171W        W 2482  33.453   2.866  12.849
41172W        W 2483  40.862  37.413  12.513
41173W        W 2484  28.570  19.780   1.741
41174W        W 2485  14.808  36.413  12.039
41175W        W 2486  44.390  36.988  11.414
41176W        W 2487  42.519  31.588  12.472
41177W        W 2488  27.457  13.221   1.222
41178W        W 2489  13.243  34.050   2.348
41179W        W 2490  34.017   8.880   4.298
41180W        W 2491   6.325  20.201   2.724
41181W        W 2492  31.956  11.170   3.306
41182W        W 2493  24.092  26.137   2.815
41183W        W 2494  35.856  42.285  14.455
41184W        W 2495  17.099  26.193   1.284
41185W        W 2496  20.692   4.899   4.241
41186W        W 2497   4.256   6.733   2.824
41187W        W 2498  38.537  13.147  11.542
41188W        W 2499  13.249  18.091  12.829
41189W        W 2500  27.017  41.814  12.417
41190W        W 2501   5.791  42.405   2.743
41191W        W 2502  15.287  34.095   0.422
41192W        W 2503  17.165   8.261  13.939
41193W        W 2504  33.877  36.580  13.952
41194W        W 2505  44.273  23.129   1.746
41195W        W 2506  42.936  19.624  13.886
41196W        W 2507  44.408  34.548  12.445
41197W        W 2508   1.733  15.139  13.365
41198W        W 2509  32.080  32.588   0.275
41199W        W 2510  41.492  15.087  11.533
41200W        W 2511  43.304  21.086  14.865
41201W        W 2512  44.439  21.611  11.395
41202W        W 2513  15.610   1.430   0.342
41203W        W 2514  26.561  31.959   2.820
41204W        W 2515  39.422  44.406   0.747
41205W        W 2516  38.500  38.367  12.020
41206W        W 2517  11.213  10.321  11.419
41207W        W 2518   8.340  28.977   2.831
41208W        W 2519   1.900  38.372   3.820
41209W        W 2520   0.390   1.292  14.305
41210W        W 2521  20.237  30.980   4.675
41211W        W 2522  34.535  18.640  11.382
41212W        W 2523  20.741  27.149  10.461
41213W        W 2524  18.139  17.290  11.054
41214W        W 2525  41.450  20.715   2.664
41215W        W 2526  41.819  10.726  12.398
41216W        W 2527  21.719  26.192  13.966
41217W        W 2528   2.333  38.444  14.444
41218W        W 2529  39.002  44.931  13.931
41219W        W 2530   3.792   6.783   3.171
41220W        W 2531  37.362  10.711   2.807
41221W        W 2532  23.573  20.596   3.284
41222W        W 2533  26.663  28.998  14.844
41223W        W 2534  14.132  28.593  14.344
41224W        W 2535  16.168  27.542  10.633
41225W        W 2536   3.442  16.147   9.981
41226W        W 2537  31.627  38.033  12.935
41227W        W 2538  30.979   8.857   1.882
41228W        W 2539  34.062  24.111  10.425
41229W        W 2540  40.522  17.136  11.987
41230W        W 2541  42.466  44.430   0.305
41231W        W 2542  44.795  16.646   3.696
41232W        W 2543  25.547   0.901  12.539
41233W        W 2544  26.989   0.758   1.706
41234W        W 2545   5.253  17.598   0.760
41235W        W 2546   3.456  34.575   2.895
41236W        W 2547   4.941  16.174   1.260
41237W        W 2548  24.069  35.882  14.840
41238W        W 2549  14.124  33.408  12.426
41239W        W 2550  29.111  14.146   0.447
41240W        W 2551  15.697  28.650  12.350
41241W        W 2552  14.181  42.386   0.792
41242W        W 2553  17.665   5.883  14.921
41243W        W 2554  26.461  27.186   3.378
41244W        W 2555  39.367  32.513  11.907
41245W        W 2556  35.024  13.728   3.832
41246W        W 2557  37.521  44.901  12.405
41247W        W 2558   8.324  26.005   3.221
41248W        W 2559  26.524   3.270  10.490
41249W        W 2560  39.050  42.014   1.733
41250W        W 2561  36.384  43.969  14.862
41251W        W 2562  17.105  10.806  14.895
41252W        W 2563   1.409  34.552   3.762
41253W        W 2564  11.835  16.754  12.467
41254W        W 2565   6.380  19.133  10.433
41255W        W 2566  39.978   6.815  10.973
41256W        W 2567  27.144  39.514   1.716
41257W        W 2568   8.222  26.611   0.790
41258W        W 2569  35.057  21.092  12.470
41259W        W 2570  31.548   3.775   3.154
41260W        W 2571  23.611  38.495   1.369
41261W        W 2572  35.403  36.507   4.826
41262W        W 2573   4.266  43.881   4.692
41263W        W 2574   6.274  39.370  10.616
41264W        W 2575   7.715  35.946  13.825
41265W        W 2576  11.824  17.298   5.152
41266W        W 2577  43.405  43.784   0.315
41267W        W 2578  44.005   4.287   3.823
41268W        W 2579  33.381  25.528   4.772
41269W        W 2580  34.911  19.698  13.850
41270W        W 2581  22.025  16.241   3.807
41271W        W 2582  27.140  32.893   4.678
41272W        W 2583   1.837  22.093   0.418
41273W        W 2584   5.702   7.906  13.847
41274W        W 2585   8.406  13.282   0.968
41275W        W 2586  25.680  15.091   4.299
41276W        W 2587  18.192  44.758   1.845
41277W        W 2588   1.824  17.145   1.398
41278W        W 2589   1.346  27.003  13.898
41279W        W 2590   2.900  12.647  13.847
41280W        W 2591  19.149   9.313   1.788
41281W        W 2592  41.467  29.999  12.966
41282W        W 2593  24.031  20.719  13.875
41283W        W 2594  22.249  32.076  13.822
41284W        W 2595  35.942  26.575   2.340
41285W        W 2596  39.531  21.212  13.538
41286W        W 2597  29.511  15.178  11.998
41287W        W 2598  32.566   2.398   2.352
41288W        W 2599  41.806  22.231   3.359
41289W        W 2600  30.146  12.721  10.460
41290W        W 2601  39.430  42.321   0.369
41291W        W 2602   4.854  40.310   1.712
41292W        W 2603  32.137   2.790   0.745
41293W        W 2604  32.405  23.525  10.602
41294W        W 2605  43.285   8.850   1.905
41295W        W 2606  23.506   4.828  10.499
41296W        W 2607  36.429  39.411   2.325
41297W        W 2608  27.977  33.996   1.911
41298W        W 2609  18.790  29.112   4.206
41299W        W 2610  16.781  33.074  11.502
41300W        W 2611   1.749  21.043  11.960
41301W        W 2612  12.764  41.992  11.595
41302W        W 2613  43.412   6.813  11.438
41303W        W 2614  11.772  23.635   1.447
41304W        W 2615   4.704  30.950   2.785
41305W        W 2616  15.140   6.325  14.352
41306W        W 2617   0.806  11.194   0.436
41307W        W 2618  44.879  22.167  12.053
41308W        W 2619   2.961  31.022   0.296
41309W        W 2620   7.802  34.062   3.846
41310W        W 2621  43.341   6.892   0.817
41311W        W 2622   4.343  43.314  10.529
41312W        W 2623  33.619  32.073   3.849
41313W        W 2624  27.679  18.243   4.231
41314W        W 2625  12.149  16.803   2.774
41315W        W 2626  28.035  23.526   4.292
41316W        W 2627  43.310  29.610  14.822
41317W        W 2628  29.613   9.847   1.443
41318W        W 2629   8.231   0.292   2.194
41319W        W 2630  20.085  19.736   2.778
41320W        W 2631   8.318  38.835  13.482
41321W        W 2632  37.418  27.946   3.758
41322W        W 2633   8.883  12.187   2.221
41323W        W 2634  39.965   9.224  11.055
41324W        W 2635  27.675  25.529   2.336
41325W        W 2636   1.458  10.770  13.906
41326W        W 2637  12.629  40.407  14.846
41327W        W 2638  18.559  28.488   3.811
41328W        W 2639   9.863  36.418   0.823
41329W        W 2640  28.969  26.991   3.844
41330W        W 2641  29.534  11.149   2.326
41331W        W 2642  31.440  17.208  14.336
41332W        W 2643   7.845  41.494  10.946
41333W        W 2644  26.118  20.033  10.513
41334W        W 2645  19.776  43.435  14.296
41335W        W 2646  28.154  27.475  14.763
41336W        W 2647  14.194  11.271  13.384
41337W        W 2648  30.098   4.295  11.887
41338W        W 2649  22.036  36.975   2.182
41339W        W 2650   0.257  21.592   0.827
41340W        W 2651   0.966  23.653  11.964
41341W        W 2652  12.805  44.475  14.401
41342W        W 2653  19.072  35.939   1.367
41343W        W 2654   4.238  38.973   1.829
41344W        W 2655  41.496  12.717  11.089
41345W        W 2656  31.988  25.140  10.449
41346W        W 2657  11.735  19.746  12.063
41347W        W 2658   1.371  27.134  10.918
41348W        W 2659  42.283  20.742   2.180
41349W        W 2660  26.458  14.773  12.890
41350W        W 2661  28.558  33.895  11.033
41351W        W 2662   9.761  44.285   0.346
41352W        W 2663  43.494  25.694  10.594
41353W        W 2664  23.716   0.384   0.421
41354W        W 2665  19.660  43.913   3.357
41355W        W 2666  32.064   5.744  11.872
41356W        W 2667  23.156  27.072   3.349
41357W        W 2668  27.548  16.149  12.434
41358W        W 2669  35.543   1.261  14.764
41359W        W 2670  23.528  43.894   2.800
41360W        W 2671   3.447  17.238   5.179
41361W        W 2672   4.847  20.656  13.045
41362W        W 2673  25.990  27.131   0.432
41363W        W 2674   0.413   4.885   1.336
41364W        W 2675  15.789  12.664   0.843
41365W        W 2676  12.321  36.997  12.853
41366W        W 2677  29.560  18.697  14.393
41367W        W 2678  31.981  27.563   1.225
41368W        W 2679  36.551  16.619   3.379
41369W        W 2680  32.480  38.890  14.340
41370W        W 2681  33.102  28.527   0.898
41371W        W 2682   4.410  21.629   4.250
41372W        W 2683  35.576  29.097  11.439
41373W        W 2684   4.345   9.802  13.404
41374W        W 2685  14.823  14.818  12.037
41375W        W 2686  18.666  39.333   1.889
41376W        W 2687  14.246   9.240   3.777
41377W        W 2688   5.743  43.958  14.860
41378W        W 2689  11.356  38.975   0.346
41379W        W 2690   2.243  29.598   3.308
41380W        W 2691   6.422  41.340  10.553
41381W        W 2692  14.280   3.839  13.903
41382W        W 2693  22.684  31.509   2.349
41383W        W 2694  41.961  35.527  14.302
41384W        W 2695  18.160  31.952   2.753
41385W        W 2696  25.474   0.271   2.788
41386W        W 2697  19.255   2.362   3.156
41387W        W 2698  40.819  18.292  14.444
41388W        W 2699  19.544  15.686  10.914
41389W        W 2700  38.461  27.139   1.777
41390W        W 2701   9.248  42.975   0.847
41391W        W 2702  23.515  21.621  10.979
41392W        W 2703  39.007  34.887  10.583
41393W        W 2704   4.809  20.665  13.946
41394W        W 2705  44.405  20.074  11.388
41395W        W 2706  40.430  28.485  13.973
41396W        W 2707  30.578   2.349   0.921
41397W        W 2708  32.632  39.812  10.612
41398W        W 2709  23.226  21.574  10.454
41399W        W 2710  24.146  19.725   1.438
41400W        W 2711   3.743   2.425  12.824
41401W        W 2712  31.452  34.407   2.865
41402W        W 2713  32.042   1.799  11.103
41403W        W 2714  13.261   7.325  11.084
41404W        W 2715  44.296  33.028  12.033
41405W        W 2716  37.959  29.072  13.000
41406W        W 2717  20.619  18.672   3.384
41407W        W 2718  26.082  27.011  12.532
41408W        W 2719   4.226  11.351   3.711
41409W        W 2720  21.256  43.334   1.309
41410W        W 2721  10.256  29.570  13.945
41411W        W 2722  37.506  40.319  12.004
41412W        W 2723   1.259  11.355  13.817
41413W        W 2724  28.004  34.390  10.143
41414W        W 2725  31.573  23.501  13.381
41415W        W 2726  44.009  35.404   3.641
41416W        W 2727  35.601   9.760  10.599
41417W        W 2728  40.895  23.503   0.772
41418W        W 2729   4.717  37.409   2.229
41419W        W 2730   3.709  42.777  11.034
41420W        W 2731  21.687  12.634   4.158
41421W        W 2732  14.612   2.297  10.106
41422W        W 2733  25.575  24.720   1.904
41423W        W 2734  39.456  33.623   4.187
41424W        W 2735  42.527  22.112   0.793
41425W        W 2736  12.662  20.234  11.861
41426W        W 2737   8.822  20.711   2.782
41427W        W 2738  22.108  27.140  14.503
41428W        W 2739   1.379  19.178  10.931
41429W        W 2740  14.660  42.821   1.401
41430W        W 2741  22.738  15.733  14.316
41431W        W 2742  14.206   9.826  12.421
41432W        W 2743  15.098  21.153  11.494
41433W        W 2744  37.575  19.150   1.386
41434W        W 2745  25.128  38.025   2.317
41435W        W 2746   3.247   8.243   1.851
41436W        W 2747  35.534   3.822  13.962
41437W        W 2748  15.192  43.807   0.809
41438W        W 2749  35.046  39.012  13.036
41439W        W 2750  15.771  31.456   0.386
41440W        W 2751   6.293  18.577   1.932
41441W        W 2752  25.570   9.734   4.267
41442W        W 2753   4.246  14.770   9.663
41443W        W 2754  29.574   8.772  13.950
41444W        W 2755  25.603  33.556   2.797
41445W        W 2756  37.524   8.292  13.352
41446W        W 2757  43.374  15.177  12.525
41447W        W 2758  20.603  41.444  14.346
41448W        W 2759  36.910  19.253   1.445
41449W        W 2760   0.922  43.431  11.045
41450W        W 2761  18.609  15.662   3.695
41451W        W 2762   5.261  29.633  10.631
41452W        W 2763  25.197  29.520   2.238
41453W        W 2764  37.924  20.145   1.818
41454W        W 2765  27.977   4.811   1.739
41455W        W 2766   6.347  33.948  12.553
41456W        W 2767  19.629   6.781  14.938
41457W        W 2768   2.839  44.858  11.929
41458W        W 2769  15.620  13.767   2.244
41459W        W 2770  30.477  17.273  14.760
41460W        W 2771  30.638  18.786  13.379
41461W        W 2772   8.849  41.834  12.069
41462W        W 2773  29.496  13.630   3.717
41463W        W 2774  11.344  16.242   1.428
41464W        W 2775   5.789  41.018  10.924
41465W        W 2776  41.919  40.424  12.383
41466W        W 2777   1.818  31.098  14.881
41467W        W 2778  15.600  24.688  12.052
41468W        W 2779  13.156  35.898   2.771
41469W        W 2780  29.524  11.818   3.786
41470W        W 2781  14.250   5.332   1.445
41471W        W 2782  38.438  10.369  14.295
41472W        W 2783  31.640  21.721  12.471
41473W        W 2784  36.496   3.391   9.933
41474W        W 2785  44.360  40.012  12.003
41475W        W 2786   4.716  43.897   0.965
41476W        W 2787  17.604  29.601  12.062
41477W        W 2788   6.344  36.507  10.549
41478W        W 2789  31.999  26.684   1.895
41479W        W 2790  27.583  29.539   0.853
41480W        W 2791   0.313   4.450  10.905
41481W        W 2792  30.025   1.856  11.956
41482W        W 2793  37.534  39.889   1.359
41483W        W 2794  26.674  37.851  14.346
41484W        W 2795  27.946  11.709  13.046
41485W        W 2796  30.542  14.758  10.569
41486W        W 2797  26.604  33.930   2.780
41487W        W 2798  39.466  22.602   1.897
41488W        W 2799  39.503  27.501  12.510
41489W        W 2800  29.135  40.824  13.879
41490W        W 2801  30.065  31.108  12.508
41491W        W 2802  41.350   0.456   3.814
41492W        W 2803   3.712  31.072  14.278
41493W        W 2804  14.220  38.938   3.237
41494W        W 2805  25.992  13.252   3.272
41495W        W 2806  13.206  38.063  10.558
41496W        W 2807  15.146  23.238   1.922
41497W        W 2808  12.302  17.236  13.056
41498W        W 2809   7.413  16.119  14.886
41499W        W 2810   9.191  38.066  10.537
41500W        W 2811  21.723  43.933   1.303
41501W        W 2812  21.182   3.383   1.808
41502W        W 2813  17.088  34.537   4.619
41503W        W 2814  36.924  24.631  11.501
41504W        W 2815   0.956  10.711   0.768
41505W        W 2816  36.558  33.884   2.771
41506W        W 2817  28.966  40.421   1.344
41507W        W 2818  38.849  15.810   4.191
41508W        W 2819   1.833  34.095   1.708
41509W        W 2820  29.470  22.644   2.392
41510W        W 2821  21.618  13.169   3.718
41511W        W 2822  15.733  34.025   3.754
41512W        W 2823   7.880  19.560   4.654
41513W        W 2824  31.535   8.226  11.082
41514W        W 2825   2.723  33.601   1.445
41515W        W 2826  35.382  24.646  13.531
41516W        W 2827  24.692   9.817   0.322
41517W        W 2828  21.094  16.811  14.933
41518W        W 2829   5.931  34.455   0.938
41519W        W 2830  43.379  23.733   0.964
41520W        W 2831  27.071  29.514  10.639
41521W        W 2832  41.429  10.344  14.777
41522W        W 2833  13.297   2.917   3.702
41523W        W 2834  44.763  17.283   2.251
41524W        W 2835  24.682  40.340  14.022
41525W        W 2836  30.607   1.432  11.055
41526W        W 2837  10.788   0.309   4.191
41527W        W 2838  12.711  31.920  13.000
41528W        W 2839   2.738   6.329  13.018
41529W        W 2840   2.966  37.391   0.253
41530W        W 2841  38.978  27.173   2.288
41531W        W 2842  36.061  13.604  14.903
41532W        W 2843  38.488  17.300  13.518
41533W        W 2844  15.660  43.825  10.944
41534W        W 2845  38.009  33.513  12.993
41535W        W 2846  27.127   8.710  14.409
41536W        W 2847  42.300  37.840  11.553
41537W        W 2848  25.589  25.554   2.323
41538W        W 2849  41.435  37.475  10.430
41539W        W 2850  27.530   2.825  12.861
41540W        W 2851   3.453  19.226   9.990
41541W        W 2852  43.896  27.468  11.472
41542W        W 2853   2.302  31.916  12.051
41543W        W 2854   3.410  13.338   0.452
41544W        W 2855  38.352  24.579  11.976
41545W        W 2856  34.378  33.406  13.055
41546W        W 2857   5.856  32.434   4.742
41547W        W 2858  29.656  34.045  10.940
41548W        W 2859  38.009  13.628  10.573
41549W        W 2860  24.513  41.041   3.199
41550W        W 2861  20.077   3.727   1.388
41551W        W 2862  34.892  20.233   4.720
41552W        W 2863  34.524  16.096  14.385
41553W        W 2864  33.406  33.996   4.700
41554W        W 2865   0.834  17.658   0.456
41555W        W 2866  44.794   5.884  12.538
41556W        W 2867  15.183  27.958   2.812
41557W        W 2868  24.113  40.861  11.478
41558W        W 2869  23.717  35.367  11.057
41559W        W 2870  24.229  43.838  10.995
41560W        W 2871  21.053  41.985  13.925
41561W        W 2872   5.328  17.228  12.399
41562W        W 2873  14.208  26.685  12.049
41563W        W 2874  20.028   0.980   1.349
41564W        W 2875  24.099  31.409   4.255
41565W        W 2876  11.863   8.388  14.452
41566W        W 2877  15.283   0.953   0.427
41567W        W 2878  17.244  16.137  13.385
41568W        W 2879   0.439  18.787   2.385
41569W        W 2880  21.039   5.253   4.707
41570W        W 2881  28.059  12.167  14.376
41571W        W 2882  29.144   8.405   2.352
41572W        W 2883  39.047  37.473  13.901
41573W        W 2884  36.370   4.204   1.755
41574W        W 2885  36.941  37.081   1.259
41575W        W 2886  30.619  24.507   4.221
41576W        W 2887  17.124  19.099   1.761
41577W        W 2888  19.133   1.424  14.284
41578W        W 2889   6.746  36.059  13.433
41579W        W 2890   9.883   3.425   0.845
41580W        W 2891  42.508  23.597   0.465
41581W        W 2892  18.263   3.787  11.454
41582W        W 2893  37.922  20.708   3.165
41583W        W 2894   5.914  17.671  13.375
41584W        W 2895  33.432   9.273   0.819
41585W        W 2896   3.714  31.118   1.239
41586W        W 2897  28.015   0.393   2.666
41587W        W 2898  33.563   6.783  12.551
41588W        W 2899  41.486  25.160   0.291
41589W        W 2900  42.424  11.653   3.853
41590W        W 2901  31.637  21.693  12.967
41591W        W 2902  13.842   0.277   3.360
41592W        W 2903  39.354  21.558   3.847
41593W        W 2904   7.688  38.829   2.262
41594W        W 2905   5.408  18.624   4.207
41595W        W 2906  41.431  39.834   4.275
41596W        W 2907  24.086   5.910  13.002
41597W        W 2908  29.953  15.085  10.562
41598W        W 2909  19.671  18.679  14.378
41599W        W 2910   8.865  39.889  14.376
41600W        W 2911  40.936   4.449  10.538
41601W        W 2912  16.088  37.513   1.763
41602W        W 2913   1.781  44.501   2.834
41603W        W 2914  31.953   0.430  14.512
41604W        W 2915   6.873  16.704  14.372
41605W        W 2916  41.985  15.125  13.994
41606W        W 2917  38.509  13.652  13.331
41607W        W 2918  31.441  44.296  14.941
41608W        W 2919   6.246  43.423   2.417
41609W        W 2920  42.418  28.527   2.281
41610W        W 2921  31.643  39.317  12.067
41611W        W 2922  21.110  24.691   1.822
41612W        W 2923  15.726  17.780  12.997
41613W        W 2924   2.762  16.214  12.017
41614W        W 2925   3.720   1.758   4.325
41615W        W 2926   1.906  10.303   0.399
41616W        W 2927  41.981  40.873   2.738
41617W        W 2928  37.022   3.767  11.403
41618W        W 2929   7.874  10.201  11.392
41619W        W 2930  26.590  17.213  11.904
41620W        W 2931   2.874  35.089   0.342
41621W        W 2932   0.334  10.730   3.302
41622W        W 2933  23.725   6.391   2.827
41623W        W 2934  39.493  21.526  14.371
41624W        W 2935  18.240   1.820  12.854
41625W        W 2936  27.165   6.361   2.319
41626W        W 2937  16.798  10.325   4.261
41627W        W 2938  34.967  27.604  14.470
41628W        W 2939  44.769  37.977  12.069
41629W        W 2940  33.473  37.072  14.324
41630W        W 2941   1.303  41.402   4.165
41631W        W 2942  43.997  26.058  14.431
41632W        W 2943  31.416  35.075   4.348
41633W        W 2944   6.718  27.518  13.487
41634W        W 2945  43.776  12.717   0.874
41635W        W 2946  16.775  20.711   1.771
41636W        W 2947   7.820   0.422   3.199
41637W        W 2948  13.281  35.551   4.674
41638W        W 2949  44.466  24.608   4.808
41639W        W 2950  10.872  43.889   2.828
41640W        W 2951   0.368  22.159   1.827
41641W        W 2952   9.871  24.093   0.962
41642W        W 2953  31.449  44.927  12.341
41643W        W 2954  26.549  17.713  11.373
41644W        W 2955  43.800   8.691  13.513
41645W        W 2956  24.478   6.861   1.720
41646W        W 2957   0.301  39.413  13.899
41647W        W 2958  15.218   8.360  11.489
41648W        W 2959  14.275  37.430   3.708
41649W        W 2960  33.092  44.954   0.940
41650W        W 2961  32.402   7.285  10.507
41651W        W 2962   6.282   0.911  11.123
41652W        W 2963   7.785  38.412   1.750
41653W        W 2964  37.447   1.959   3.669
41654W        W 2965  15.727  40.835   2.687
41655W        W 2966   7.218  35.506   3.827
41656W        W 2967  43.908  29.016  14.322
41657W        W 2968  44.385  41.807  14.799
41658W        W 2969   6.346  17.659   0.924
41659W        W 2970  32.079  35.426   0.894
41660W        W 2971  44.824  22.622  11.068
41661W        W 2972  34.589  42.021   2.294
41662W        W 2973  43.900  26.636   1.304
41663W        W 2974  25.017  44.342  11.494
41664W        W 2975  24.132  40.893   0.343
41665W        W 2976  42.868  24.158   0.764
41666W        W 2977   3.717  34.442   4.808
41667W        W 2978  19.559  14.309   2.307
41668W        W 2979  12.169   8.326  12.938
41669W        W 2980   3.428   2.432  13.442
41670W        W 2981  25.641  20.225  11.860
41671W        W 2982   6.351  12.140  13.522
41672W        W 2983   3.826  24.144  10.974
41673W        W 2984  29.924   1.320   2.389
41674W        W 2985  40.320  10.290  14.818
41675W        W 2986  37.919  32.970   0.362
41676W        W 2987  43.956  18.609  10.997
41677W        W 2988  43.508  38.011  13.875
41678W        W 2989  44.976   3.872  10.946
41679W        W 2990  28.006  13.824  14.766
41680W        W 2991  43.942   9.644  10.499
41681W        W 2992  42.893  28.618  14.375
41682W        W 2993  11.782  38.857   4.289
41683W        W 2994  27.159  22.121   2.313
41684W        W 2995  25.035  25.050  13.968
41685W        W 2996  20.751   5.923   1.226
41686W        W 2997  22.630  38.424  12.078
41687W        W 2998  34.452   1.355   1.387
41688W        W 2999  44.377   0.924   1.781
41689W        W 3000  17.158  10.184   5.097
41690W        W 3001  35.055  42.476   1.844
41691W        W 3002   2.308  24.203   3.629
41692W        W 3003  10.281   1.798  13.852
41693W        W 3004  15.107  26.011  12.470
41694W        W 3005  38.351  39.841   2.291
41695W        W 3006  22.202  22.526   4.831
41696W        W 3007  16.238  10.746   4.765
41697W        W 3008   5.753  44.829   2.371
41698W        W 3009  20.205   3.311   0.441
41699W        W 3010  23.513  15.743   0.262
41700W        W 3011  44.308  29.145  14.924
41701W        W 3012  29.146  21.610   1.259
41702W        W 3013  22.657  16.603  10.969
41703W        W 3014   1.269  16.178   1.413
41704W        W 3015   3.422  14.179   4.777
41705W        W 3016  34.962  35.042  13.368
41706W        W 3017   1.309  28.643  11.906
41707W        W 3018  20.154   8.189   1.862
41708W        W 3019  42.968  24.638  14.472
41709W        W 3020  34.527   5.262  13.816
41710W        W 3021  41.865  19.638   0.374
41711W        W 3022  23.993   1.480  14.996
41712W        W 3023  17.097  23.708  13.044
41713W        W 3024  35.012  36.875  12.904
41714W        W 3025  33.528  36.021   3.336
41715W        W 3026  42.937  31.524  13.929
41716W        W 3027  37.402  31.586   1.442
41717W        W 3028   5.925   8.170  14.774
41718W        W 3029  12.651   2.413   0.321
41719W        W 3030   5.837  37.415  14.886
41720W        W 3031  43.483  25.121  11.939
41721W        W 3032   5.870  35.468  12.969
41722W        W 3033  15.262   2.912   3.674
41723W        W 3034   8.244  24.656  11.862
41724W        W 3035   9.865  17.737  14.463
41725W        W 3036  28.515  12.334  11.039
41726W        W 3037  32.535  34.529  11.572
41727W        W 3038   3.716   3.435   3.167
41728W        W 3039  16.097  19.722   3.715
41729W        W 3040  18.556  12.629   3.279
41730W        W 3041  10.273   3.840  14.028
41731W        W 3042  12.274  28.574   4.643
41732W        W 3043  26.068  28.634  14.439
41733W        W 3044  41.902  30.525  12.007
41734W        W 3045   9.856  30.554   0.894
41735W        W 3046  33.549  15.203  10.456
41736W        W 3047  30.946  30.941  11.432
41737W        W 3048   9.884  32.002   3.723
41738W        W 3049  22.627   4.790   0.434
41739W        W 3050  12.846   7.703  10.587
41740W        W 3051  25.685  39.916  12.867
41741W        W 3052   2.254  31.569   3.227
41742W        W 3053   3.850  43.476   3.863
41743W        W 3054  23.606  40.307   4.791
41744W        W 3055  41.918  29.145   4.685
41745W        W 3056  10.220  22.080   4.722
41746W        W 3057  40.375   7.269   0.940
41747W        W 3058  10.849  14.280  13.531
41748W        W 3059  13.263  43.474   0.273
41749W        W 3060  13.611  13.308  10.538
41750W        W 3061  30.498  19.241  12.371
41751W        W 3062  36.462  30.424   0.924
41752W        W 3063  26.104  29.424  14.867
41753W        W 3064   0.441  10.195   0.470
41754W        W 3065  17.085  30.539   3.182
41755W        W 3066  15.319  33.987   1.416
41756W        W 3067  10.765   0.324   1.299
41757W        W 3068  10.241  41.422  11.606
41758W        W 3069  29.568  24.180   4.302
41759W        W 3070  23.151  35.425  10.517
41760W        W 3071  18.682  34.075  10.890
41761W        W 3072   0.869  31.497   4.756
41762W        W 3073  37.032  30.496  14.482
41763W        W 3074  23.114  31.043   1.853
41764W        W 3075   9.266  16.162   2.379
41765W        W 3076  19.271  29.494  11.583
41766W        W 3077   5.802  28.458   1.726
41767W        W 3078   8.699  35.030  13.332
41768W        W 3079  42.915  11.740   1.844
41769W        W 3080  28.675  39.465  14.809
41770W        W 3081  43.925  13.642   1.271
41771W        W 3082  32.947  25.468  13.334
41772W        W 3083   5.822  23.067  11.879
41773W        W 3084  29.110   4.296   3.747
41774W        W 3085  32.101   9.808   1.914
41775W        W 3086   3.832  43.284   1.294
41776W        W 3087  36.539  39.025   0.849
41777W        W 3088  40.879  40.918   1.370
41778W        W 3089  24.587  26.062  13.906
41779W        W 3090  10.278  36.354  14.841
41780W        W 3091   4.807  35.444  11.389
41781W        W 3092   0.977  14.285   2.877
41782W        W 3093  41.318  11.342   1.416
41783W        W 3094   9.659  34.993  11.052
41784W        W 3095   8.729  15.311   0.418
41785W        W 3096   3.383  28.648   0.793
41786W        W 3097  17.641  30.141   4.210
41787W        W 3098  44.350  21.517  13.365
41788W        W 3099  13.231  20.223  11.606
41789W        W 3100  34.048  44.258   1.875
41790W        W 3101  40.464  33.557  12.839
41791W        W 3102  40.478  37.449  12.461
41792W        W 3103  21.058   2.859   3.362
41793W        W 3104  17.801  19.285  13.381
41794W        W 3105   3.788   6.751   0.948
41795W        W 3106  12.178  18.755  10.569
41796W        W 3107  32.118  12.160   4.787
41797W        W 3108  20.171  38.468  13.454
41798W        W 3109   2.911   6.852  13.465
41799W        W 3110   7.282   8.689  14.978
41800W        W 3111  24.522  13.742   1.311
41801W        W 3112   8.193  15.156   3.333
41802W        W 3113  11.175   7.232   0.926
41803W        W 3114   3.895   6.870   1.302
41804W        W 3115   7.894  15.741  12.998
41805W        W 3116  22.019  27.183  10.458
41806W        W 3117   2.460  12.332  11.511
41807W        W 3118  21.680  30.515  14.770
41808W        W 3119  39.013   9.882  11.929
41809W        W 3120  33.457  36.415   5.138
41810W        W 3121  32.910  27.044   2.664
41811W        W 3122  33.502  34.373   4.741
41812W        W 3123  15.096  19.099  12.830
41813W        W 3124  36.543  18.261  13.360
41814W        W 3125  26.075  36.441  11.080
41815W        W 3126   8.214  13.690   3.738
41816W        W 3127  11.812   1.470  14.918
41817W        W 3128   1.432  30.068   4.770
41818W        W 3129  22.188  17.274  10.975
41819W        W 3130   5.922  24.713   4.187
41820W        W 3131  26.069   1.873  11.009
41821W        W 3132  19.217  32.474  13.896
41822W        W 3133  16.662  22.720   2.723
41823W        W 3134  44.799  33.949  13.539
41824W        W 3135  42.319  28.502  13.855
41825W        W 3136   7.211  43.021   0.853
41826W        W 3137  38.542   3.941  13.526
41827W        W 3138  15.232  25.160   1.862
41828W        W 3139  38.395  31.126  14.857
41829W        W 3140  26.080  16.256  11.020
41830W        W 3141  32.527  17.258  12.915
41831W        W 3142  21.519  18.667   2.401
41832W        W 3143  26.646  42.875  10.028
41833W        W 3144  20.648  13.339   3.702
41834W        W 3145  16.163  28.124  10.459
41835W        W 3146  26.971  31.540   0.391
41836W        W 3147  32.613  19.143  11.867
41837W        W 3148  32.958  27.176   4.312
41838W        W 3149   9.735  38.853   0.911
41839W        W 3150  25.701  44.968   4.179
41840W        W 3151  30.083   0.861   4.130
41841W        W 3152  31.939  24.502   2.251
41842W        W 3153  14.803  42.855   1.928
41843W        W 3154   7.329  21.724   1.874
41844W        W 3155  11.831  38.896  10.972
41845W        W 3156  10.661   4.699  14.474
41846W        W 3157  30.010  43.351   1.914
41847W        W 3158  43.342  41.805  12.064
41848W        W 3159  42.306  20.734  11.064
41849W        W 3160  44.317  28.174   4.740
41850W        W 3161  13.180  13.306   4.645
41851W        W 3162  40.858  22.723   1.760
41852W        W 3163  36.076  12.323   0.260
41853W        W 3164  22.178  14.614  10.420
41854W        W 3165  40.025   3.291   0.887
41855W        W 3166  39.386  29.599  12.436
41856W        W 3167  36.939  38.469   0.802
41857W        W 3168  42.442  26.092  14.925
41858W        W 3169   7.242  12.809   2.766
41859W        W 3170  20.640  29.495   1.253
41860W        W 3171  25.660  29.937   1.923
41861W        W 3172  36.042  29.027  10.456
41862W        W 3173  27.091  11.364   4.671
41863W        W 3174  19.143  24.205   3.324
41864W        W 3175   6.341  42.306   1.711
41865W        W 3176  31.419   1.841  13.854
41866W        W 3177  44.763  13.620   1.249
41867W        W 3178  31.406  20.621  14.834
41868W        W 3179  40.451  42.892   3.151
41869W        W 3180  35.912  17.564   2.768
41870W        W 3181  36.462  30.972  10.990
41871W        W 3182  24.631  29.561   0.388
41872W        W 3183  35.981  26.976  13.364
41873W        W 3184  14.180  21.520   0.320
41874W        W 3185  41.014  26.663   3.198
41875W        W 3186   7.295  41.520   1.444
41876W        W 3187  35.895  40.431  13.964
41877W        W 3188  37.506  24.570   2.408
41878W        W 3189  34.559  39.819   1.403
41879W        W 3190   5.310  21.225  12.048
41880W        W 3191  16.780  34.604   3.166
41881W        W 3192   4.440  13.613  12.943
41882W        W 3193  12.167  40.385   0.440
41883W        W 3194  15.197  36.953   0.339
41884W        W 3195  32.453   7.338   0.255
41885W        W 3196  32.019  14.112  14.904
41886W        W 3197  21.720  18.073  14.503
41887W        W 3198  22.061  16.227  14.380
41888W        W 3199  11.231  20.267  14.385
41889W        W 3200  31.988   1.849  12.369
41890W        W 3201  11.291  41.968  14.802
41891W        W 3202  17.187   1.759   3.379
41892W        W 3203   1.350  11.742  12.555
41893W        W 3204   0.463  42.870  11.959
41894W        W 3205  33.064  12.227   1.862
41895W        W 3206  26.506  32.404  13.038
41896W        W 3207   3.241  25.058  10.107
41897W        W 3208  14.104  19.636   0.730
41898W        W 3209  32.885  32.552   3.148
41899W        W 3210  23.635  19.607   5.627
41900W        W 3211  28.668  36.356   0.845
41901W        W 3212  12.159   1.962  14.796
41902W        W 3213  19.102  36.930   0.243
41903W        W 3214   2.734  10.322   2.689
41904W        W 3215  33.452  42.479   1.322
41905W        W 3216  42.945  15.299  10.453
41906W        W 3217  10.657  41.986  12.396
41907W        W 3218  42.389  23.046  10.893
41908W        W 3219  26.979  36.092   0.386
41909W        W 3220  22.519   1.388   2.226
41910W        W 3221   1.316  34.584  12.930
41911W        W 3222  15.767  12.845   1.417
41912W        W 3223  34.087   2.265   2.869
41913W        W 3224  38.417   9.180  14.328
41914W        W 3225   6.372   1.423  12.387
41915W        W 3226  24.545  28.056   1.249
41916W        W 3227  27.650  14.829   4.685
41917W        W 3228  29.029   3.772   1.840
41918W        W 3229   2.298   0.384   0.406
41919W        W 3230  39.316  34.048   3.351
41920W        W 3231  29.083  32.925  13.344
41921W        W 3232  44.892  21.165   3.338
41922W        W 3233  27.055   4.333   3.293
41923W        W 3234   6.252  15.723  10.619
41924W        W 3235  24.572  23.710  14.859
41925W        W 3236  41.399   8.254   4.185
41926W        W 3237  31.958  42.323   1.232
41927W        W 3238  41.023  24.591   1.860
41928W        W 3239  13.716   5.313  13.529
41929W        W 3240  31.061  40.540   2.729
41930W        W 3241  10.298  30.423   3.802
41931W        W 3242  30.416  21.065   2.815
41932W        W 3243  20.655  38.894  13.957
41933W        W 3244  33.415  23.682   2.849
41934W        W 3245  20.238  28.084   0.268
41935W        W 3246  11.314  28.965   2.408
41936W        W 3247  16.258  29.042  13.314
41937W        W 3248  17.068  37.086  11.600
41938W        W 3249   7.909  20.733   4.669
41939W        W 3250  19.653  16.122  13.868
41940W        W 3251  25.172  42.373  10.491
41941W        W 3252  40.988  33.944  13.461
41942W        W 3253  23.118  39.337  11.530
41943W        W 3254   3.932   5.248   2.895
41944W        W 3255  24.976  23.703   2.341
41945W        W 3256   4.932   6.271   5.116
41946W        W 3257  39.337  24.719  10.944
41947W        W 3258  25.551  22.670  13.913
41948W        W 3259  30.482  43.461  13.914
41949W        W 3260  32.065  37.339  12.912
41950W        W 3261  23.173  39.337  12.343
41951W        W 3262  21.063  37.036  11.383
41952W        W 3263  13.649  31.038   0.903
41953W        W 3264  44.444   8.657   0.394
41954W        W 3265   8.829  24.559  14.303
41955W        W 3266  39.824  15.180  13.035
41956W        W 3267  30.140  12.223   3.633
41957W        W 3268  42.806  38.457   0.732
41958W        W 3269  16.303  40.427  12.021
41959W        W 3270   0.353  37.847   0.758
41960W        W 3271  44.448   3.819   4.834
41961W        W 3272  13.155  30.515   2.846
41962W        W 3273  10.317  38.467   1.309
41963W        W 3274  41.322  30.452   1.428
41964W        W 3275  17.730  34.378  13.352
41965W        W 3276  25.005  18.707   2.839
41966W        W 3277  29.604   8.815  11.479
41967W        W 3278  12.138  43.982   4.349
41968W        W 3279  14.098  18.284  13.423
41969W        W 3280  18.264   0.380   1.803
41970W        W 3281  42.985   5.299  12.875
41971W        W 3282  35.402   2.948   3.691
41972W        W 3283  28.507  31.518   3.820
41973W        W 3284  21.546  12.807  14.475
41974W        W 3285  33.011  29.921  13.324
41975W        W 3286  20.134  15.165  14.969
41976W        W 3287  31.006   5.748   2.762
41977W        W 3288  22.017  19.704  11.521
41978W        W 3289  29.558  12.690   3.753
41979W        W 3290  13.327  11.299  12.910
41980W        W 3291  22.526  19.179   2.230
41981W        W 3292  10.353  20.260   3.637
41982W        W 3293  23.171  29.071  13.894
41983W        W 3294  42.373  16.214  12.419
41984W        W 3295  25.691  22.522   4.732
41985W        W 3296  36.456   8.787   5.312
41986W        W 3297  42.339  41.972   0.829
41987W        W 3298  13.777   1.961   2.241
41988W        W 3299  34.969  35.555   3.202
41989W        W 3300   6.324  12.348   2.775
41990W        W 3301  31.131  26.471  14.830
41991W        W 3302  12.759  15.788  10.534
41992W        W 3303  38.548  21.641   3.733
41993W        W 3304  35.511  41.538   9.495
41994W        W 3305  30.542  16.128  13.307
41995W        W 3306  11.667  20.713  14.941
41996W        W 3307   7.171  40.821   2.853
41997W        W 3308  13.267  41.845   4.306
41998W        W 3309   0.823  13.605   0.446
41999W        W 3310  27.121   4.269   3.778
42000W        W 3311  35.074  13.810  13.314
42001W        W 3312   2.323  24.980   4.756
42002W        W 3313  38.072  41.324   4.238
42003W        W 3314  39.478  41.340  12.937
42004W        W 3315  21.539  33.539  14.452
42005W        W 3316   8.807  35.946   0.737
42006W        W 3317  19.250  28.081   4.258
42007W        W 3318  44.479  19.263   0.284
42008W        W 3319  38.479   0.948  13.407
42009W        W 3320   6.691  23.170  11.074
42010W        W 3321  31.077  31.438   2.735
42011W        W 3322  14.309  14.140  14.355
42012W        W 3323   6.295  28.475   0.391
42013W        W 3324  12.211  41.386  13.889
42014W        W 3325  14.798   8.901  10.941
42015W        W 3326  34.530  16.764   0.385
42016W        W 3327  16.665  41.343  13.508
42017W        W 3328  40.354  24.216  11.103
42018W        W 3329  17.137   9.866   4.759
42019W        W 3330  25.158  29.152  14.280
42020W        W 3331  16.104  35.874  14.823
42021W        W 3332  39.532   2.812  14.435
42022W        W 3333  41.877  19.596   2.311
42023W        W 3334   7.272  18.149  11.126
42024W        W 3335  31.564   9.671   0.405
42025W        W 3336  10.350  22.067   0.816
42026W        W 3337  28.039  30.015  14.929
42027W        W 3338   2.837  31.499   3.788
42028W        W 3339  39.884  29.453  10.441
42029W        W 3340  34.572  26.181   2.863
42030W        W 3341   9.863   8.238  13.993
42031W        W 3342  22.678  23.650   0.365
42032W        W 3343  20.176   6.279  14.497
42033W        W 3344  30.054  41.498  11.432
42034W        W 3345  14.634  27.024  13.329
42035W        W 3346  17.299  19.106  10.408
42036W        W 3347  37.350  12.714  12.379
42037W        W 3348  31.431   5.348  14.372
42038W        W 3349  20.043  23.567   3.370
42039W        W 3350  22.642  17.168  13.462
42040W        W 3351  44.764  23.133  14.324
42041W        W 3352   8.190  24.695   2.770
42042W        W 3353  42.007   9.800   1.784
42043W        W 3354  18.644  20.178   1.394
42044W        W 3355   5.868   0.289  12.860
42045W        W 3356  42.383   4.401   0.742
42046W        W 3357  22.197  14.761   0.847
42047W        W 3358  12.312   0.875  13.868
42048W        W 3359  41.308  41.934  12.855
42049W        W 3360  14.278   8.211  12.434
42050W        W 3361  25.477  24.063   3.767
42051W        W 3362   7.791  15.618  13.870
42052W        W 3363  29.047  26.148  12.505
42053W        W 3364  33.462  14.215  10.957
42054W        W 3365   5.394  22.637   3.360
42055W        W 3366  35.546  19.665  12.901
42056W        W 3367  37.020   2.469   4.125
42057W        W 3368  12.760   3.799  13.525
42058W        W 3369   2.289  10.152   1.824
42059W        W 3370  41.846  23.130   3.312
42060W        W 3371  40.478  23.027  13.438
42061W        W 3372  34.920   1.364   0.937
42062W        W 3373  42.983  27.627  11.607
42063W        W 3374  21.145  27.013  14.313
42064W        W 3375  32.916  16.295   3.304
42065W        W 3376  16.207  23.520   1.327
42066W        W 3377  21.034  41.336   4.724
42067W        W 3378  26.958  12.226  13.450
42068W        W 3379  37.391  15.661   1.772
42069W        W 3380   5.815  26.659  10.486
42070W        W 3381  27.510  10.361  14.487
42071W        W 3382  12.288   7.829  11.541
42072W        W 3383   1.268  10.681  13.416
42073W        W 3384  44.269   3.397  10.045
42074W        W 3385  14.808   8.824   4.619
42075W        W 3386   0.989   6.416   3.334
42076W        W 3387  36.393   8.708  14.361
42077W        W 3388  23.638  33.993  10.083
42078W        W 3389  32.494  35.858   5.229
42079W        W 3390   9.238  18.153   0.473
42080W        W 3391  18.080   0.822  10.634
42081W        W 3392   0.301  35.572   4.194
42082W        W 3393  25.587   4.361  11.894
42083W        W 3394   2.268  31.019   2.887
42084W        W 3395  30.908  24.091  12.865
42085W        W 3396   7.232  42.349   2.881
42086W        W 3397  44.276  21.113   3.313
42087W        W 3398  40.907   1.286  10.941
42088W        W 3399   5.250  37.419   2.810
42089W        W 3400  31.915  42.366  11.084
42090W        W 3401   8.182  13.720   1.696
42091W        W 3402  28.107  14.783  12.351
42092W        W 3403   0.936   1.829   5.121
42093W        W 3404  36.379  25.557   4.115
42094W        W 3405  10.273  25.672  14.312
42095W        W 3406   5.310  30.442  13.809
42096W        W 3407  44.349  23.696  13.420
42097W        W 3408  28.954   2.346  14.930
42098W        W 3409  29.530  35.441   2.805
42099W        W 3410  17.263  18.750  10.098
42100W        W 3411  36.486  11.296   3.149
42101W        W 3412  44.823  22.728  10.403
42102W        W 3413  42.938  40.411   4.316
42103W        W 3414  20.274  24.658   1.312
42104W        W 3415   8.704  44.452   3.320
42105W        W 3416  17.296  44.828   2.313
42106W        W 3417  35.479  35.020  13.472
42107W        W 3418   0.962  32.958  14.873
42108W        W 3419  22.070  13.287   2.348
42109W        W 3420  36.922   4.268  14.891
42110W        W 3421  42.999   3.859   4.351
42111W        W 3422  13.736  44.890   2.397
42112W        W 3423  42.484  26.589  13.795
42113W        W 3424   4.289  43.339  14.779
42114W        W 3425  12.223  18.241  10.406
42115W        W 3426   3.342  31.130  11.887
42116W        W 3427  16.590  20.087   0.761
42117W        W 3428  15.730  32.960  11.419
42118W        W 3429  19.762  28.983  11.929
42119W        W 3430  31.937   8.832   3.237
42120W        W 3431  22.133  28.548   1.720
42121W        W 3432  22.130  14.794  14.890
42122W        W 3433  27.092  21.116   0.412
42123W        W 3434  13.194  14.127  10.533
42124W        W 3435  21.085  29.151   1.748
42125W        W 3436  22.738  44.771   0.800
42126W        W 3437  36.011  40.821   1.319
42127W        W 3438   3.330  26.037  11.954
42128W        W 3439  31.637  28.528   3.821
42129W        W 3440   9.259  16.294  13.515
42130W        W 3441  43.893  21.207   2.726
42131W        W 3442  35.937   9.168  14.342
42132W        W 3443  24.511   0.901  10.431
42133W        W 3444  35.389  24.990  11.466
42134W        W 3445  34.432  14.788   2.376
42135W        W 3446  17.082   2.337  14.403
42136W        W 3447  38.335  43.400  11.411
42137W        W 3448  31.086  37.360  14.810
42138W        W 3449   1.253  30.079  10.490
42139W        W 3450  12.786  12.120  14.301
42140W        W 3451  27.621  13.144  12.029
42141W        W 3452  24.222  42.484  14.397
42142W        W 3453  31.496  31.011  11.912
42143W        W 3454   9.745   8.402   2.680
42144W        W 3455  34.590  11.763   2.198
42145W        W 3456  39.407  19.096   3.728
42146W        W 3457  15.629  18.765  11.507
42147W        W 3458  23.703  24.011  13.842
42148W        W 3459   6.188  20.038   1.756
42149W        W 3460   4.355  44.852   1.441
42150W        W 3461   7.191  40.939   2.210
42151W        W 3462  19.653  27.033   3.163
42152W        W 3463  37.526  21.668  12.371
42153W        W 3464  21.053  21.544   1.771
42154W        W 3465  38.453  23.994  14.275
42155W        W 3466   4.304  24.537   2.221
42156W        W 3467   4.702   5.381   4.655
42157W        W 3468  32.392  26.098   2.185
42158W        W 3469  27.961  17.069  12.514
42159W        W 3470  28.028  19.737   1.334
42160W        W 3471  27.000  43.868   3.857
42161W        W 3472  18.220  13.287  10.471
42162W        W 3473   6.425  40.421   5.319
42163W        W 3474  32.517  14.785   1.882
42164W        W 3475  38.370  13.811   2.898
42165W        W 3476   6.318  42.316   3.870
42166W        W 3477   4.314  16.761   2.405
42167W        W 3478  41.321   0.804   4.340
42168W        W 3479  40.336  18.085   2.795
42169W        W 3480   0.977  18.641   1.909
42170W        W 3481   9.348  23.092  10.904
42171W        W 3482  12.737  30.466  14.366
42172W        W 3483  34.985  37.397  12.529
42173W        W 3484   3.284  33.958  13.373
42174W        W 3485  20.637  33.877  12.985
42175W        W 3486  30.626  14.142   2.285
42176W        W 3487  43.782   7.741  11.434
42177W        W 3488  32.083  10.295  12.501
42178W        W 3489  25.175  41.027   0.351
42179W        W 3490  11.219  13.213   4.134
42180W        W 3491  39.523   9.245   1.373
42181W        W 3492  15.693  36.401   0.737
42182W        W 3493  15.722  36.889   2.784
42183W        W 3494  42.432  16.280   2.183
42184W        W 3495  19.685  40.894  13.052
42185W        W 3496  42.434  24.702  14.344
42186W        W 3497  36.361   2.235  13.990
42187W        W 3498  28.065  18.292   3.818
42188W        W 3499  22.141  37.575   4.659
42189W        W 3500  39.420  32.501   0.738
42190W        W 3501  29.490  37.077  13.837
42191W        W 3502  20.666  22.590   4.197
42192W        W 3503  16.088  41.525  13.509
42193W        W 3504  39.532  29.080  12.877
42194W        W 3505  16.582  29.072  14.031
42195W        W 3506  11.337  27.677  14.886
42196W        W 3507   9.873   0.439   0.889
42197W        W 3508  16.309  18.135   3.212
42198W        W 3509  27.052   3.915  14.511
42199W        W 3510  36.917  21.252  13.034
42200W        W 3511   5.751  27.119   2.372
42201W        W 3512  17.119  26.065   1.721
42202W        W 3513  23.087   2.314  14.981
42203W        W 3514  31.454  28.483   0.380
42204W        W 3515   5.351  38.916   1.364
42205W        W 3516  11.298  26.095  14.921
42206W        W 3517  20.558  38.527  12.998
42207W        W 3518  27.058  38.399   1.840
42208W        W 3519   3.748  44.421  12.483
42209W        W 3520  24.074  32.004  12.043
42210W        W 3521  15.670   0.449  14.813
42211W        W 3522  28.660   5.822  11.106
42212W        W 3523  25.583  18.268  14.945
42213W        W 3524  27.097  32.066   1.286
42214W        W 3525  22.544  23.203   3.669
42215W        W 3526  18.072  31.988   3.766
42216W        W 3527   2.410  43.277   2.335
42217W        W 3528  41.468  28.049  13.951
42218W        W 3529  44.938  19.572   5.268
42219W        W 3530   6.413  33.448  11.027
42220W        W 3531  27.497  19.245   0.765
42221W        W 3532  37.971  21.567   1.291
42222W        W 3533  27.086  30.977   0.397
42223W        W 3534  34.968   5.419   4.687
42224W        W 3535  28.122  25.004   1.364
42225W        W 3536  42.322  21.077   0.758
42226W        W 3537  17.105   2.777   3.246
42227W        W 3538  23.579  38.454   0.935
42228W        W 3539   0.907  29.083  11.544
42229W        W 3540  38.457   2.329   2.349
42230W        W 3541   5.921  19.732  11.123
42231W        W 3542  22.089  29.627   1.402
42232W        W 3543  37.556  10.140  11.375
42233W        W 3544  31.043  42.341   2.314
42234W        W 3545  24.635  39.377  11.404
42235W        W 3546  20.636  29.519  14.329
42236W        W 3547  12.135   0.383  11.461
42237W        W 3548  32.433  41.362   3.719
42238W        W 3549  32.610  25.703  11.869
42239W        W 3550   6.405  39.539  11.867
42240W        W 3551  43.859   3.788   2.285
42241W        W 3552  35.514   4.241  14.951
42242W        W 3553   0.784  32.914  12.015
42243W        W 3554   5.292  29.427   0.766
42244W        W 3555  23.104  42.442  11.084
42245W        W 3556  17.265   2.936   0.892
42246W        W 3557   2.446  33.507  11.082
42247W        W 3558  39.919  23.714   0.911
42248W        W 3559   0.254   7.705  12.055
42249W        W 3560  26.658  12.611  10.000
42250W        W 3561   1.457  42.004  10.435
42251W        W 3562  28.130  39.486  10.609
42252W        W 3563  39.019  29.505  11.410
42253W        W 3564  37.549  25.005   4.781
42254W        W 3565  37.043  27.033   4.157
42255W        W 3566  39.391  26.613   4.825
42256W        W 3567   2.839  12.802  12.944
42257W        W 3568  18.150  14.795  11.998
42258W        W 3569   7.176  25.698  12.831
42259W        W 3570  22.229  20.079  11.514
42260W        W 3571  14.322   1.761   1.789
42261W        W 3572  11.257  10.753   3.336
42262W        W 3573  22.612  29.581  12.562
42263W        W 3574  14.239  39.929  14.450
42264W        W 3575  12.662   7.688   3.247
42265W        W 3576  42.364  30.946  10.459
42266W        W 3577  41.008  38.549   1.825
42267W        W 3578  16.224  23.139  11.080
42268W        W 3579  20.761   5.202  13.861
42269W        W 3580  42.420  32.542   3.640
42270W        W 3581  43.967  17.209  14.298
42271W        W 3582  29.572  18.200  10.055
42272W        W 3583   8.662   6.280  10.536
42273W        W 3584  43.771   3.440   5.093
42274W        W 3585  17.264  35.485   2.389
42275W        W 3586  26.150   8.229  13.408
42276W        W 3587  44.344  42.505   0.731
42277W        W 3588  26.054  32.012  10.524
42278W        W 3589  12.175  23.061  12.886
42279W        W 3590  22.581  23.646  11.892
42280W        W 3591  16.751  39.316  12.503
42281W        W 3592  37.995   9.229  13.518
42282W        W 3593  33.533  13.204  12.966
42283W        W 3594  34.613   6.907  12.525
42284W        W 3595  16.193  41.949  12.488
42285W        W 3596  33.570  19.165  13.037
42286W        W 3597  44.844  43.976   1.266
42287W        W 3598  38.417  13.654   1.255
42288W        W 3599  15.695  28.581   1.268
42289W        W 3600   3.769  44.446   3.802
42290W        W 3601   1.922  18.190  13.465
42291W        W 3602   0.989  26.645   0.339
42292W        W 3603   7.746  12.757   3.280
42293W        W 3604  31.428  10.821   4.743
42294W        W 3605  35.917   3.887  14.822
42295W        W 3606  20.261  30.949  14.018
42296W        W 3607  22.101   5.800   0.453
42297W        W 3608  18.294  43.320   4.191
42298W        W 3609  38.416  13.249  14.514
42299W        W 3610   3.946  33.597  11.487
42300W        W 3611  27.132   4.331  14.801
42301W        W 3612  25.069  30.960  14.284
42302W        W 3613  14.176  24.090  14.336
42303W        W 3614   3.773   5.717  14.421
42304W        W 3615  42.876   5.763   1.236
42305W        W 3616  11.264  14.806  11.394
42306W        W 3617  38.999  41.944  13.008
42307W        W 3618  24.987   1.257   2.393
42308W        W 3619  41.456  21.131   3.197
42309W        W 3620   9.657  40.468  11.939
42310W        W 3621  26.573  22.707  10.513
42311W        W 3622  22.729  29.025   5.097
42312W        W 3623  27.473   2.375   0.845
42313W        W 3624  32.963  13.740   4.221
42314W        W 3625  31.484  20.036   0.326
42315W        W 3626  24.229  38.552  13.064
42316W        W 3627   2.779   8.656   0.258
42317W        W 3628  14.262  32.538  12.928
42318W        W 3629  27.599  21.579  11.545
42319W        W 3630  42.371   4.397   2.720
42320W        W 3631  32.561  32.113  11.952
42321W        W 3632   9.300  20.150  14.406
42322W        W 3633  16.600  12.172  12.073
42323W        W 3634   4.760  11.291  12.566
42324W        W 3635   0.849   2.460  14.908
42325W        W 3636   8.722  30.006   4.235
42326W        W 3637  38.508   1.423  12.995
42327W        W 3638  26.988  20.157  10.529
42328W        W 3639   7.753  12.794  12.829
42329W        W 3640  42.942   9.251   4.756
42330W        W 3641  21.117  38.854   0.848
42331W        W 3642  24.004  18.286   3.751
42332W        W 3643  30.963  24.988  11.495
42333W        W 3644  24.496  39.058  14.920
42334W        W 3645  16.789  22.733   1.867
42335W        W 3646  23.637  40.308  13.412
42336W        W 3647  29.424  30.488  10.425
42337W        W 3648   2.447   8.660  12.088
42338W        W 3649  32.066  42.981  11.119
42339W        W 3650  23.524   9.861  13.926
42340W        W 3651  17.192  25.607   3.642
42341W        W 3652  37.465  14.647  11.594
42342W        W 3653   5.340  32.925   4.303
42343W        W 3654  37.514  21.084   2.316
42344W        W 3655  38.001  37.975  13.459
42345W        W 3656  24.692  14.337   0.790
42346W        W 3657   2.733   3.907  10.932
42347W        W 3658   5.277   2.351   2.787
42348W        W 3659  35.529   0.751  13.850
42349W        W 3660  29.533  23.225   4.702
42350W        W 3661  43.308  11.260   0.330
42351W        W 3662  43.361   1.943  14.972
42352W        W 3663  21.263   1.431  13.061
42353W        W 3664  42.892   7.682  13.956
42354W        W 3665  33.962   2.873  12.968
42355W        W 3666   8.268   9.826   0.446
42356W        W 3667  42.326  17.700  12.941
42357W        W 3668  38.946  41.325  12.531
42358W        W 3669  20.212  39.365   2.840
42359W        W 3670  38.564  33.972  14.460
42360W        W 3671   9.705  38.911  12.522
42361W        W 3672  16.620  30.619   2.761
42362W        W 3673   4.859   3.220  12.034
42363W        W 3674  23.600  15.730  12.377
42364W        W 3675  39.884  40.851  12.512
42365W        W 3676  21.558   0.438   3.332
42366W        W 3677  19.178  19.281  11.935
42367W        W 3678   0.311  42.013   4.171
42368W        W 3679   0.753  14.122  10.432
42369W        W 3680  38.338  22.538  13.354
42370W        W 3681  20.638   8.342  14.898
42371W        W 3682  37.842  22.014   1.902
42372W        W 3683  13.665  39.979  11.568
42373W        W 3684  39.364  14.218   2.799
42374W        W 3685  27.161  12.347  11.910
42375W        W 3686  31.456  15.283   4.140
42376W        W 3687   3.879  13.187  13.426
42377W        W 3688  35.424  43.903   3.272
42378W        W 3689   6.425   6.682  10.640
42379W        W 3690  33.610  22.125   0.777
42380W        W 3691   0.934  22.640   9.998
42381W        W 3692  13.242   1.746   1.320
42382W        W 3693  26.501  29.448  13.906
42383W        W 3694  27.552  42.790  12.420
42384W        W 3695  28.004  16.612   0.441
42385W        W 3696  38.063   0.417  13.326
42386W        W 3697  36.349   4.819  14.794
42387W        W 3698  24.552  43.860  10.467
42388W        W 3699   7.193  19.671  12.948
42389W        W 3700   9.177  28.561  11.939
42390W        W 3701   0.968  35.048  14.459
42391W        W 3702  36.479  13.826   0.947
42392W        W 3703   8.750  25.664   5.304
42393W        W 3704  34.888   7.673   4.770
42394W        W 3705  44.921  19.228  11.418
42395W        W 3706  26.049   3.357  11.038
42396W        W 3707  20.647  41.934  11.025
42397W        W 3708  20.064  31.045   2.288
42398W        W 3709  28.098   6.357   1.417
42399W        W 3710   9.855  22.081  10.585
42400W        W 3711  23.550   1.801   2.901
42401W        W 3712  25.031   6.704  14.330
42402W        W 3713  40.548  10.795   2.342
42403W        W 3714  27.109   3.363   4.154
42404W        W 3715  21.159  14.831  13.031
42405W        W 3716   4.768  13.744  14.286
42406W        W 3717  39.982   7.300  12.544
42407W        W 3718   8.846  20.234   3.258
42408W        W 3719   0.366  42.964   2.806
42409W        W 3720  25.101  34.467  14.848
42410W        W 3721  19.155  27.197  12.491
42411W        W 3722  33.964  27.994  10.141
42412W        W 3723   3.243  22.727  11.566
42413W        W 3724  38.383  11.330  13.378
42414W        W 3725  20.524  26.659   2.683
42415W        W 3726  13.231  31.558  10.609
42416W        W 3727  31.132  37.948  13.852
42417W        W 3728   0.404   5.330   3.675
42418W        W 3729  23.159   3.950  13.920
42419W        W 3730  25.612  42.482   0.315
42420W        W 3731   0.897  19.767  13.310
42421W        W 3732  16.113  13.693   4.618
42422W        W 3733  31.098  27.021  11.046
42423W        W 3734  30.032   4.927  12.505
42424W        W 3735  24.113   0.807   0.343
42425W        W 3736   1.932   1.770  13.944
42426W        W 3737  14.283  21.545  10.986
42427W        W 3738   8.791  24.203  11.025
42428W        W 3739   7.798   0.800   0.933
42429W        W 3740   5.798  33.015  10.592
42430W        W 3741  32.893  44.268   1.886
42431W        W 3742  25.621  43.947   0.309
42432W        W 3743  19.684  29.062  14.377
42433W        W 3744  32.139  14.184   1.285
42434W        W 3745  26.184   3.302  12.405
42435W        W 3746  41.529   2.379  13.041
42436W        W 3747  21.225  21.744  10.587
42437W        W 3748  13.755  16.630   1.261
42438W        W 3749  40.802  15.762  11.433
42439W        W 3750   0.323  38.066  12.969
42440W        W 3751  35.866  27.676  11.427
42441W        W 3752  36.939  39.033  12.360
42442W        W 3753   7.753  17.796   2.320
42443W        W 3754  44.296   3.721   2.752
42444W        W 3755  44.415  27.183  13.372
42445W        W 3756  15.096  39.343  12.427
42446W        W 3757  11.689  35.513  14.853
42447W        W 3758  44.792   1.926   3.818
42448W        W 3759   2.228   7.196   3.204
42449W        W 3760  24.568  20.525  14.311
42450W        W 3761   7.296  15.273   3.263
42451W        W 3762  15.592  31.072   4.296
42452W        W 3763  41.516  28.163   3.238
42453W        W 3764  16.606  35.401   0.857
42454W        W 3765   8.845  21.017  12.482
42455W        W 3766  25.982  28.005  13.344
42456W        W 3767  35.544  11.178  11.871
42457W        W 3768  28.986  20.110   4.130
42458W        W 3769  21.068  10.171  12.992
42459W        W 3770  21.044   1.849  12.039
42460W        W 3771   7.697  38.557   4.655
42461W        W 3772  42.420  27.014  11.119
42462W        W 3773  24.178  29.933   1.355
42463W        W 3774  18.553  10.714   4.828
42464W        W 3775  12.801  12.171   1.236
42465W        W 3776   4.891  44.840   3.361
42466W        W 3777  11.646  20.227  11.612
42467W        W 3778  26.197  24.717  12.842
42468W        W 3779  13.135  30.523  11.604
42469W        W 3780  40.976  19.585  10.889
42470W        W 3781  34.369   2.891  10.444
42471W        W 3782  32.073  33.577  14.897
42472W        W 3783   7.674  21.110  11.084
42473W        W 3784  39.327  33.922  14.330
42474W        W 3785  15.634  12.695  10.938
42475W        W 3786  23.155  12.847  13.990
42476W        W 3787   0.833  18.779  12.536
42477W        W 3788  40.969  15.174  12.991
42478W        W 3789  32.629   4.350   3.796
42479W        W 3790   2.353  33.004   4.772
42480W        W 3791  30.423   4.856   2.331
42481W        W 3792   5.361   3.421  14.866
42482W        W 3793  38.051   6.836   2.682
42483W        W 3794  21.667  42.355   4.214
42484W        W 3795  35.862  41.922  11.417
42485W        W 3796  42.396  24.559  12.503
42486W        W 3797  27.642   7.798  14.291
42487W        W 3798  34.914  39.923  13.967
42488W        W 3799  31.640   0.317  14.881
42489W        W 3800  29.094  15.746   2.337
42490W        W 3801  33.967   0.911   0.910
42491W        W 3802   3.443  42.965   0.478
42492W        W 3803  19.147   9.359  13.466
42493W        W 3804  38.480   6.833   1.276
42494W        W 3805   0.329  11.668  11.432
42495W        W 3806   4.929   1.958   5.218
42496W        W 3807  21.697  39.556   4.623
42497W        W 3808  31.001  25.979   2.680
42498W        W 3809  15.653  27.483   3.199
42499W        W 3810  21.030  27.467   2.853
42500W        W 3811  31.567  13.257  14.838
42501W        W 3812  43.945  44.335  11.454
42502W        W 3813  16.245  23.509  12.057
42503W        W 3814  28.500   4.291   2.222
42504W        W 3815   3.904  38.466   4.795
42505W        W 3816  24.613  38.324  10.954
42506W        W 3817  15.108  39.975  12.880
42507W        W 3818  35.414  43.955   2.326
42508W        W 3819  44.461  18.094   2.816
42509W        W 3820  33.019  39.857   2.705
42510W        W 3821  13.761   7.747  14.466
42511W        W 3822  41.026  40.849   2.695
42512W        W 3823  14.598  20.594  10.939
42513W        W 3824  14.245  29.154  10.980
42514W        W 3825  34.440  18.557  10.465
42515W        W 3826  13.230   4.338  14.359
42516W        W 3827  18.093  30.146  13.922
42517W        W 3828  40.511  38.944  11.927
42518W        W 3829  39.430  12.799  11.992
42519W        W 3830   7.809   1.459  11.038
42520W        W 3831  14.100  28.061  13.802
42521W        W 3832  37.460  22.122   1.767
42522W        W 3833  43.909  12.148   4.790
42523W        W 3834  19.582  28.534  14.346
42524W        W 3835  21.110  28.652   4.349
42525W        W 3836  22.733  18.279  12.080
42526W        W 3837  42.821   3.735   3.637
42527W        W 3838  14.629  31.488   1.418
42528W        W 3839  32.438   6.805   4.318
42529W        W 3840  25.620  16.660   2.878
42530W        W 3841  26.954  21.723   3.301
42531W        W 3842  33.424   2.818  11.109
42532W        W 3843  32.624  27.044   0.422
42533W        W 3844  33.465  15.579   2.899
42534W        W 3845  27.465  30.987   3.857
42535W        W 3846  21.054  39.005  13.933
42536W        W 3847  30.125   4.363   1.274
42537W        W 3848  10.684  25.037   2.869
42538W        W 3849  23.237  17.276   3.258
42539W        W 3850  15.278   2.905  12.018
42540W        W 3851  40.486  35.528  12.020
42541W        W 3852  38.874   7.384  11.461
42542W        W 3853   1.297  34.990   4.811
42543W        W 3854  21.124   7.254  10.621
42544W        W 3855  19.066   2.366  10.896
42545W        W 3856   6.261  22.696   5.229
42546W        W 3857  21.068  40.348  14.879
42547W        W 3858  40.014  17.634   0.478
42548W        W 3859  43.777  20.667   2.178
42549W        W 3860  33.097  30.551  14.913
42550W        W 3861  43.973  43.850   2.886
42551W        W 3862  32.907  40.315  10.461
42552W        W 3863   1.865  37.920  12.442
42553W        W 3864  16.566  38.034   3.765
42554W        W 3865  35.957  34.603   3.157
42555W        W 3866  32.461   7.378  11.086
42556W        W 3867  39.400  37.478  10.597
42557W        W 3868   9.229  27.095  12.485
42558W        W 3869  20.093  14.691  14.874
42559W        W 3870  32.631  26.028  10.600
42560W        W 3871  33.059   2.308  12.401
42561W        W 3872   3.929  13.337   4.806
42562W        W 3873  23.700  31.601   9.980
42563W        W 3874  36.862   3.371   3.852
42564W        W 3875  16.246   6.792   3.376
42565W        W 3876  13.207  12.665   5.275
42566W        W 3877  42.455  28.019  10.455
42567W        W 3878   5.238  37.387   4.730
42568W        W 3879  12.285  43.000  14.782
42569W        W 3880  14.790  11.156   1.365
42570W        W 3881  18.253   9.882  14.319
42571W        W 3882  35.433  26.970  13.960
42572W        W 3883  22.661  35.862  10.569
42573W        W 3884  26.519  22.019  10.997
42574W        W 3885  38.487  21.216  13.491
42575W        W 3886  14.801  35.884  13.861
42576W        W 3887   9.675   1.777   3.867
42577W        W 3888  41.387  15.088   2.825
42578W        W 3889   6.188  28.975   3.189
42579W        W 3890  32.507  11.703  12.882
42580W        W 3891  20.034  11.135  11.111
42581W        W 3892  28.935  20.768   2.895
42582W        W 3893   7.367  16.779   2.836
42583W        W 3894  20.583  13.829   2.182
42584W        W 3895  25.083  36.579   2.747
42585W        W 3896  27.977  10.314   5.232
42586W        W 3897   0.255   0.848  11.425
42587W        W 3898  34.966  13.272   4.244
42588W        W 3899  10.326  28.045   3.845
42589W        W 3900  23.657  13.307   0.908
42590W        W 3901  27.042  44.948  14.773
42591W        W 3902  26.603  27.951   4.752
42592W        W 3903   7.775  42.987   3.290
42593W        W 3904  16.645  14.701  13.023
42594W        W 3905  37.496   2.376   3.180
42595W        W 3906  40.344  38.395   4.680
42596W        W 3907  29.622  22.681   1.210
42597W        W 3908  25.053  28.580  14.498
42598W        W 3909  29.557  41.970  12.049
42599W        W 3910  16.627  36.858   3.249
42600W        W 3911  32.553   8.189  12.504
42601W        W 3912  25.635  35.896   2.320
42602W        W 3913  30.614  25.040  14.299
42603W        W 3914  38.015  36.375  14.474
42604W        W 3915  25.131  11.625   4.234
42605W        W 3916   5.890  38.936   2.705
42606W        W 3917  12.287  29.956   1.311
42607W        W 3918  26.054  18.098   1.441
42608W        W 3919  27.984  28.026  13.545
42609W        W 3920   0.820  34.544  12.963
42610W        W 3921  40.972   9.157  12.846
42611W        W 3922  10.181  15.298   2.689
42612W        W 3923   9.874  29.119   0.322
42613W        W 3924   8.307  35.098  10.575
42614W        W 3925  41.393  41.352  13.028
42615W        W 3926  23.592   5.904   3.864
42616W        W 3927  20.745   9.755  14.433
42617W        W 3928  19.159   8.377  13.454
42618W        W 3929  38.518   8.330   4.300
42619W        W 3930   5.912  19.655   1.706
42620W        W 3931   7.683   7.815  10.994
42621W        W 3932  44.303   0.255   0.441
42622W        W 3933  19.254  14.594  12.886
42623W        W 3934   9.157  14.335   3.246
42624W        W 3935  27.601  22.534  12.579
42625W        W 3936  17.579  44.268   1.751
42626W        W 3937  15.094  12.239  13.410
42627W        W 3938  21.718  33.895   4.813
42628W        W 3939  27.038  10.161  13.493
42629W        W 3940  16.795  18.646   1.919
42630W        W 3941   1.276  32.014  14.421
42631W        W 3942  25.106   4.399   2.762
42632W        W 3943  36.961  28.569  12.443
42633W        W 3944  16.264  39.953  12.410
42634W        W 3945  17.121  25.994  13.982
42635W        W 3946  10.180   6.265   2.396
42636W        W 3947  40.395  34.436   5.265
42637W        W 3948  43.766  27.655  14.020
42638W        W 3949  41.462   9.783   2.788
42639W        W 3950  31.103  23.043   2.385
42640W        W 3951  40.016   0.877   0.768
42641W        W 3952   9.662  38.415  13.541
42642W        W 3953  36.350  16.163   4.168
42643W        W 3954   1.306  36.982   2.719
42644W        W 3955  35.493  16.244  12.013
42645W        W 3956  40.016  16.082  14.929
42646W        W 3957  10.362  11.769   4.269
42647W        W 3958  41.334  32.529  13.861
42648W        W 3959  25.572  35.539  12.545
42649W        W 3960  10.807  30.510  13.545
42650W        W 3961  39.855  44.789   4.820
42651W        W 3962  27.191   1.743  11.086
42652W        W 3963  36.850  13.625  13.861
42653W        W 3964   9.872   3.279  13.319
42654W        W 3965  12.683  37.003  12.492
42655W        W 3966   2.317  39.430   0.945
42656W        W 3967  24.596  44.315   2.722
42657W        W 3968  15.192  21.171   0.958
42658W        W 3969   0.879  41.833   1.842
42659W        W 3970  32.555   5.259   3.326
42660W        W 3971   7.907  42.366   4.647
42661W        W 3972  31.543  16.154   1.214
42662W        W 3973  21.044  36.407   2.232
42663W        W 3974  43.782  38.503  14.884
42664W        W 3975  19.701  40.382  11.494
42665W        W 3976  19.050  12.219  13.339
42666W        W 3977  16.119  10.860   4.327
42667W        W 3978  28.000   7.204   0.757
42668W        W 3979  39.531  16.077  12.566
42669W        W 3980  12.132  44.354   0.908
42670W        W 3981  21.214  12.773   4.344
42671W        W 3982   2.276  21.193   0.780
42672W        W 3983  12.716  21.543  10.935
42673W        W 3984   2.272  13.262  11.945
42674W        W 3985  33.910  11.803  12.877
42675W        W 3986  41.991  38.983  12.410
42676W        W 3987  24.556  38.902   3.378
42677W        W 3988  21.635   7.858   3.764
42678W        W 3989  20.038   6.315  12.387
42679W        W 3990  22.649   6.297   2.392
42680W        W 3991  24.612  21.148   0.843
42681W        W 3992  16.189  26.022   1.847
42682W        W 3993  34.067  42.422   0.253
42683W        W 3994   9.775  14.292   4.764
42684W        W 3995  44.781  12.644   0.460
42685W        W 3996  36.026  14.631  14.871
42686W        W 3997  16.102  36.954  10.911
42687W        W 3998  27.057   5.849   3.694
42688W        W 3999   7.233   4.742  10.453
42689W        W 4000   0.403   3.723  11.424
42690W        W 4001   0.397   2.417  12.016
42691W        W 4002  12.330  15.143   3.324
42692W        W 4003  11.314  28.173   1.916
42693W        W 4004  17.574  23.069   9.980
42694W        W 4005  29.068  18.580  14.000
42695W        W 4006  16.183  22.596   4.748
42696W        W 4007  19.161  27.058   1.774
42697W        W 4008  17.094  25.084   0.459
42698W        W 4009  33.586  44.330   5.099
42699W        W 4010  34.946  28.481   2.290
42700W        W 4011  13.809  20.254  11.560
42701W        W 4012   1.773  43.502   2.878
42702W        W 4013   2.402  44.390  10.620
42703W        W 4014  16.734   6.896   0.282
42704W        W 4015   4.788  29.640  14.818
42705W        W 4016  35.604  17.119  13.814
42706W        W 4017  15.580  23.021   4.154
42707W        W 4018  20.626  17.775  10.487
42708W        W 4019  33.931  10.231  10.911
42709W        W 4020  18.224  12.250  13.440
42710W        W 4021  19.052  15.097  11.986
42711W        W 4022  25.679  22.708  10.969
42712W        W 4023  27.155  27.631   3.829
42713W        W 4024   3.288  10.822   0.448
42714W        W 4025   6.798  22.169   2.272
42715W        W 4026  32.554  30.922   2.684
42716W        W 4027   1.269   9.237  11.547
42717W        W 4028  10.767  10.669  13.017
42718W        W 4029  20.654  20.703  11.069
42719W        W 4030  19.206  25.059  10.931
42720W        W 4031  31.537  16.103  10.410
42721W        W 4032   5.376   6.290  12.479
42722W        W 4033   7.877  42.786   0.940
42723W        W 4034  32.541  16.312   0.381
42724W        W 4035  28.153  20.756   0.887
42725W        W 4036  36.388  33.988  10.433
42726W        W 4037  20.720  24.061   4.835
42727W        W 4038  35.509  15.123   4.828
42728W        W 4039   5.228  38.042  14.397
42729W        W 4040   1.934  27.512   2.381
42730W        W 4041  25.128   1.295  11.381
42731W        W 4042  35.499  28.021  11.582
42732W        W 4043  31.132   3.451   3.790
42733W        W 4044   2.787   5.838  14.013
42734W        W 4045   5.836  14.241  11.453
42735W        W 4046   3.453   4.745  13.310
42736W        W 4047   9.346  24.580  13.331
42737W        W 4048   9.213  26.951   1.717
42738W        W 4049  30.558  10.252   3.160
42739W        W 4050  38.981  34.046   0.342
42740W        W 4051  33.538   5.692  13.896
42741W        W 4052  31.909  39.980  10.457
42742W        W 4053  15.656  18.667   0.727
42743W        W 4054  25.081   3.710  14.792
42744W        W 4055  27.069   0.989  13.882
42745W        W 4056   9.324  30.096  13.422
42746W        W 4057  33.953  27.603  14.793
42747W        W 4058  17.186   6.921   4.607
42748W        W 4059  40.409   2.753  11.993
42749W        W 4060  14.681  24.549  13.829
42750W        W 4061  29.524  13.212   1.704
42751W        W 4062  12.843  36.587   2.413
42752W        W 4063  27.645  29.487  11.050
42753W        W 4064  21.583  16.603  13.457
42754W        W 4065   6.681  14.303  11.060
42755W        W 4066  13.257  39.934  12.912
42756W        W 4067  16.713   7.404  11.008
42757W        W 4068   5.860  18.116   0.759
42758W        W 4069  13.837   8.806  12.514
42759W        W 4070  33.382  21.646   3.694
42760W        W 4071  21.131   4.867   2.829
42761W        W 4072  20.274  43.460  13.390
42762W        W 4073  27.952  36.909  13.795
42763W        W 4074   0.450  24.702  11.008
42764W        W 4075  23.226  32.441   3.739
42765W        W 4076  17.204   4.808   1.290
42766W        W 4077  11.754  43.014   2.328
42767W        W 4078  27.950  43.369  14.825
42768W        W 4079  16.622  33.528   2.889
42769W        W 4080  23.092  28.997  12.390
42770W        W 4081  41.443   0.400   0.830
42771W        W 4082  28.144  27.613   0.379
42772W        W 4083  13.841  28.168  13.337
42773W        W 4084  26.110  43.351  12.059
42774W        W 4085  20.757  35.039  10.472
42775W        W 4086   5.899  44.355   4.718
42776W        W 4087  44.271  31.101  11.528
42777W        W 4088  41.375  23.069  14.861
42778W        W 4089   9.347  25.993  10.471
42779W        W 4090  36.847  14.109  12.992
42780W        W 4091  12.812  10.155  13.045
42781W        W 4092  11.319  37.544   4.600
42782W        W 4093  20.563  19.074   3.778
42783W        W 4094  28.104  17.709   2.394
42784W        W 4095  41.998  36.528  10.500
42785W        W 4096  40.901  11.854  12.499
42786W        W 4097  40.917  18.059  13.830
42787W        W 4098  37.411  18.096   1.412
42788W        W 4099  21.687  36.448   2.863
42789W        W 4100  21.074  10.163  10.459
42790W        W 4101  25.067  29.942  12.416
42791W        W 4102  33.426  24.977  10.985
42792W        W 4103  27.078   3.379   2.322
42793W        W 4104  23.044  24.091  11.896
42794W        W 4105  14.151  33.479  10.985
42795W        W 4106  33.469  26.558  14.423
42796W        W 4107  43.408  33.612  14.813
42797W        W 4108  36.931   3.732  10.614
42798W        W 4109  17.717   2.831   4.828
42799W        W 4110  13.783  12.266   0.297
42800W        W 4111   8.370  19.276   3.189
42801W        W 4112  40.961  29.664  14.424
42802W        W 4113  22.206  21.737   3.257
42803W        W 4114  35.524  27.947   0.742
42804W        W 4115   2.392  35.455  12.064
42805W        W 4116  42.934   9.670  13.446
42806W        W 4117  31.410  32.398   4.665
42807W        W 4118  17.563   6.709  11.077
42808W        W 4119  22.148  19.587   2.336
42809W        W 4120  16.769  35.866  11.079
42810W        W 4121  43.005  42.933  11.855
42811W        W 4122  15.672  29.135   4.808
42812W        W 4123  35.563  28.574  12.958
42813W        W 4124  12.800  32.633   1.742
42814W        W 4125  18.592  25.705  13.472
42815W        W 4126   5.822  43.005  13.859
42816W        W 4127  31.559   3.247  11.528
42817W        W 4128  33.021   5.251   4.732
42818W        W 4129  37.475   1.832  14.857
42819W        W 4130  30.061  32.895  13.454
42820W        W 4131  15.089   8.752   0.420
42821W        W 4132   6.747   4.371   1.317
42822W        W 4133  19.183  31.418   0.278
42823W        W 4134  35.926  44.309  10.410
42824W        W 4135  10.248  11.795  12.872
42825W        W 4136  30.963  27.948   2.265
42826W        W 4137  20.216  34.967   0.931
42827W        W 4138  37.960  27.127   1.375
42828W        W 4139  22.009   2.295  11.036
42829W        W 4140  14.815   1.362  14.881
42830W        W 4141   1.306  13.775   2.308
42831W        W 4142  31.516  44.358   2.258
42832W        W 4143   1.359  15.136  11.402
42833W        W 4144   9.215  39.489  12.366
42834W        W 4145  17.113  14.611  14.300
42835W        W 4146  25.683  20.085  13.820
42836W        W 4147  12.206  26.663  11.557
42837W        W 4148  11.725  35.533  12.377
42838W        W 4149  29.445  19.586   5.246
42839W        W 4150   1.439   1.276  13.049
42840W        W 4151  43.974   3.710   1.226
42841W        W 4152  10.733  42.307  14.008
42842W        W 4153  31.007  20.615   2.812
42843W        W 4154   5.876  18.277  12.519
42844W        W 4155  15.807  42.419  10.554
42845W        W 4156   6.351  12.757  12.082
42846W        W 4157  29.127  44.985  12.539
42847W        W 4158  13.209  15.152   0.337
42848W        W 4159  35.897  23.538  14.451
42849W        W 4160  43.459  32.974  11.566
42850W        W 4161  24.085  23.643   0.868
42851W        W 4162  29.988  19.635  14.931
42852W        W 4163  21.686   6.202  11.056
42853W        W 4164  42.477  11.676   3.177
42854W        W 4165   0.814   8.701  10.970
42855W        W 4166   3.796   3.341  11.507
42856W        W 4167   2.389  44.314   9.963
42857W        W 4168  27.139  37.471  13.356
42858W        W 4169   2.820  11.777  13.811
42859W        W 4170  16.594  22.574   0.256
42860W        W 4171  10.181  22.548   0.750
42861W        W 4172  44.259  13.149  12.855
42862W        W 4173  33.394  11.165   0.820
42863W        W 4174   1.471  19.631  10.611
42864W        W 4175  23.159  25.149   3.656
42865W        W 4176  23.575  36.088   0.347
42866W        W 4177  19.656   9.824  12.026
42867W        W 4178  17.564  17.769   2.387
42868W        W 4179   9.831  37.087  12.970
42869W        W 4180  28.053   4.321  13.445
42870W        W 4181  22.059  26.619   0.316
42871W        W 4182  24.171  10.807   1.355
42872W        W 4183  30.926  29.955  10.604
42873W        W 4184   6.341  26.092   3.721
42874W        W 4185  37.881  43.439  10.985
42875W        W 4186  35.031  24.079   1.273
42876W        W 4187  43.883  21.646  14.984
42877W        W 4188   2.965  25.073  12.955
42878W        W 4189   2.770  26.610   2.419
42879W        W 4190  35.466  44.847   4.803
42880W        W 4191  35.000  25.188   4.315
42881W        W 4192  31.090  34.037   2.189
42882W        W 4193  33.533  23.490   3.728
42883W        W 4194  37.564   5.808  14.891
42884W        W 4195  44.266  44.993   0.417
42885W        W 4196  27.071   3.271   2.672
42886W        W 4197  43.491  10.253  11.989
42887W        W 4198  45.000   1.781  10.539
42888W        W 4199  14.683  44.353  14.022
42889W        W 4200  38.826  11.861   4.203
42890W        W 4201  21.553  31.070  13.956
42891W        W 4202  36.586   1.259   2.874
42892W        W 4203  36.077  27.942  14.781
42893W        W 4204  32.919  18.737  14.930
42894W        W 4205  13.639  28.638   1.436
42895W        W 4206  37.398  18.678   5.227
42896W        W 4207  31.121  18.290  10.081
42897W        W 4208  17.752  38.535  10.953
42898W        W 4209  19.158  24.225   0.426
42899W        W 4210   1.942  33.974   1.241
42900W        W 4211  42.523  36.922  12.096
42901W        W 4212   9.678  25.052  11.908
42902W        W 4213  44.391  41.025  12.958
42903W        W 4214  22.017   2.917  12.015
42904W        W 4215  34.887  12.217  14.998
42905W        W 4216  24.698  26.612  14.892
42906W        W 4217  41.918   6.775  11.036
42907W        W 4218  16.679   7.887   4.212
42908W        W 4219  17.742  16.799   1.909
42909W        W 4220  41.850  19.270   0.384
42910W        W 4221  40.385  16.736   2.877
42911W        W 4222  15.309  13.650   5.284
42912W        W 4223  40.818  20.604   2.338
42913W        W 4224  29.497  42.519   2.291
42914W        W 4225  25.531  19.748  13.801
42915W        W 4226   3.955   2.408  11.974
42916W        W 4227  36.394  41.324  12.031
42917W        W 4228   4.289  27.624  12.951
42918W        W 4229  23.161  38.031   4.599
42919W        W 4230  24.042  17.757   0.889
42920W        W 4231  32.432  14.189   2.179
42921W        W 4232  40.438  28.459  12.346
42922W        W 4233  23.694  15.190   1.787
42923W        W 4234  40.969  42.362   2.271
42924W        W 4235  13.826  14.803   2.286
42925W        W 4236  43.429  44.760  11.415
42926W        W 4237   3.735   5.338   1.805
42927W        W 4238   1.956  31.066   1.398
42928W        W 4239  41.983  32.598  12.432
42929W        W 4240  41.883  12.705   2.260
42930W        W 4241  21.249  15.292   1.411
42931W        W 4242  36.464  11.805   3.340
42932W        W 4243  26.189  43.408  11.116
42933W        W 4244  37.025  10.331   4.788
42934W        W 4245   0.875  22.619  12.827
42935W        W 4246  37.408  13.679  10.456
42936W        W 4247  18.686  41.894   4.629
42937W        W 4248   8.389  35.476  12.498
42938W        W 4249  16.581  30.604   2.189
42939W        W 4250   7.294  29.606  13.516
42940W        W 4251  40.831  15.808  13.545
42941W        W 4252  24.498  39.880  13.849
42942W        W 4253   2.956  11.866  14.344
42943W        W 4254  21.063  27.573  14.492
42944W        W 4255   5.717  14.300   9.974
42945W        W 4256  40.813  25.594   2.757
42946W        W 4257  15.621  18.722   5.268
42947W        W 4258  12.124  38.852  11.481
42948W        W 4259  29.940  26.626  11.126
42949W        W 4260   7.683  32.556  14.420
42950W        W 4261  34.408   0.247   3.212
42951W        W 4262  33.496  11.265   1.336
42952W        W 4263   3.264  27.655   4.617
42953W        W 4264  25.075  29.076   5.695
42954W        W 4265  37.451  43.278  10.117
42955W        W 4266   1.266  10.662   0.320
42956W        W 4267  12.191  23.677   1.228
42957W        W 4268  38.050   8.322   0.932
42958W        W 4269  32.949  14.237  13.447
42959W        W 4270   8.847  42.295  14.401
42960W        W 4271  38.557  23.617  12.871
42961W        W 4272  34.976  15.668   0.442
42962W        W 4273  14.194   5.390   0.897
42963W        W 4274  23.008  35.966  13.310
42964W        W 4275  30.094   4.312   4.680
42965W        W 4276  34.987  28.962   0.934
42966W        W 4277  29.084  18.255   2.315
42967W        W 4278   1.827  39.042   1.814
42968W        W 4279  42.002  27.647  10.963
42969W        W 4280  23.121  19.666  11.546
42970W        W 4281  15.642  17.128  13.042
42971W        W 4282  44.983  11.173   3.837
42972W        W 4283   7.879  33.937   2.743
42973W        W 4284  19.193  19.215   3.152
42974W        W 4285   9.240   8.178   3.384
42975W        W 4286   6.877  18.059  14.313
42976W        W 4287  43.945  41.811  11.871
42977W        W 4288   7.697   0.879  10.496
42978W        W 4289  10.340  29.486   2.853
42979W        W 4290   4.709  31.936  11.422
42980W        W 4291   8.273   1.429   2.802
42981W        W 4292  23.077  20.030  12.537
42982W        W 4293  41.449  40.946  12.421
42983W        W 4294  21.524  44.772   1.730
42984W        W 4295  22.051  34.911   1.913
42985W        W 4296  37.869  22.704  13.820
42986W        W 4297   3.850  39.836   0.923
42987W        W 4298  44.291  38.953   2.795
42988W        W 4299  44.295  32.421   0.334
42989W        W 4300   1.927  27.138  11.061
42990W        W 4301  34.504   2.378  14.349
42991W        W 4302  10.732  16.698  13.948
42992W        W 4303  11.755  16.717  11.908
42993W        W 4304  11.647  17.663  10.947
42994W        W 4305  26.661   5.204   5.129
42995W        W 4306   5.910  20.104   4.321
42996W        W 4307  28.609  44.896  12.374
42997W        W 4308  24.167  40.842   2.260
42998W        W 4309  16.756  28.654   0.816
42999W        W 4310  30.977  44.807  11.917
43000W        W 4311  29.001   8.328  13.950
43001W        W 4312   5.926  29.103  10.466
43002W        W 4313  23.062  21.261   1.393
43003W        W 4314  32.511  29.997   4.773
43004W        W 4315  30.456  37.979   2.770
43005W        W 4316  36.034  25.117   3.299
43006W        W 4317  17.217  11.191   1.408
43007W        W 4318  18.617  38.049   1.743
43008W        W 4319  21.130  33.044  12.360
43009W        W 4320   6.849  28.605   1.291
43010W        W 4321  20.535  19.557   2.839
43011W        W 4322  21.566   0.282  11.051
43012W        W 4323  37.400  24.696   1.429
43013W        W 4324  32.625  32.899   2.836
43014W        W 4325  41.515   9.308   1.775
43015W        W 4326  37.921  23.110  14.841
43016W        W 4327  42.527   0.936   1.335
43017W        W 4328  27.490   1.447  10.912
43018W        W 4329   6.347  27.470  14.975
43019W        W 4330   5.232  43.774  14.436
43020W        W 4331   3.358  30.080   1.387
43021W        W 4332   1.914  42.379  12.380
43022W        W 4333  34.014   6.735  12.832
43023W        W 4334   5.303  23.065  12.836
43024W        W 4335  10.234  43.496  11.934
43025W        W 4336  31.476  18.273  13.988
43026W        W 4337  14.282  25.507   1.746
43027W        W 4338  25.693  43.423  12.901
43028W        W 4339  21.664  29.435   0.824
43029W        W 4340   3.379   6.815  13.899
43030W        W 4341  20.721  15.112   2.339
43031W        W 4342  23.996  20.074   1.748
43032W        W 4343  17.620  38.327   0.881
43033W        W 4344  15.765  35.864  13.996
43034W        W 4345   6.880  25.469  12.971
43035W        W 4346  26.105  36.974   1.258
43036W        W 4347  40.829  37.517  10.908
43037W        W 4348   7.779  41.921  10.910
43038W        W 4349  11.726  27.026  13.320
43039W        W 4350   4.258  29.518   0.843
43040W        W 4351  13.602   4.302   2.395
43041W        W 4352  30.017  18.585   0.475
43042W        W 4353   1.437  15.164  11.000
43043W        W 4354  23.615   7.276   2.370
43044W        W 4355   1.747  28.178   4.652
43045W        W 4356  37.983  17.739  12.360
43046W        W 4357  21.042  40.500   4.813
43047W        W 4358   9.383   9.885  14.908
43048W        W 4359  21.515  26.978   3.864
43049W        W 4360  43.765  41.797   3.763
43050W        W 4361  29.657   3.804   1.708
43051W        W 4362   1.368   1.966  12.937
43052W        W 4363  44.420  17.248   2.197
43053W        W 4364   2.464  37.929   2.833
43054W        W 4365  12.288  36.390   0.859
43055W        W 4366  35.897  14.121  13.865
43056W        W 4367  17.240   8.359   0.260
43057W        W 4368  33.979  36.947  13.498
43058W        W 4369   1.246  40.483   1.736
43059W        W 4370  41.893  28.013  12.090
43060W        W 4371  33.955  36.467  13.440
43061W        W 4372  39.453  32.480   3.330
43062W        W 4373   5.764   8.169  10.577
43063W        W 4374  14.598  44.981   1.420
43064W        W 4375  28.990  43.484  11.035
43065W        W 4376  16.746  27.116   1.350
43066W        W 4377  16.689  31.525  12.001
43067W        W 4378  13.838  35.936   2.883
43068W        W 4379  33.010  17.226   3.664
43069W        W 4380  20.673  29.121   4.644
43070W        W 4381   6.396   0.338   2.797
43071W        W 4382  19.240  16.812   3.241
43072W        W 4383   5.767   3.857   1.267
43073W        W 4384  43.292  11.767   2.196
43074W        W 4385   2.472   8.205   4.345
43075W        W 4386  15.183  18.181  10.415
43076W        W 4387  19.162   5.860   3.208
43077W        W 4388   9.330   0.849  11.380
43078W        W 4389  37.079   9.831   2.347
43079W        W 4390  36.396  17.141   9.940
43080W        W 4391   5.892  31.983  13.904
43081W        W 4392  42.306   2.455   3.694
43082W        W 4393   5.212  42.848   3.187
43083W        W 4394  32.071   3.709  13.359
43084W        W 4395  30.128  34.085   1.780
43085W        W 4396  23.600  15.309  14.288
43086W        W 4397  11.626  10.873  14.365
43087W        W 4398  33.978  12.215   0.294
43088W        W 4399  11.165  17.117  11.558
43089W        W 4400   1.442  13.826  10.416
43090W        W 4401  35.047   9.339   2.392
43091W        W 4402  37.069  43.806   1.439
43092W        W 4403  43.011  41.864   0.806
43093W        W 4404  36.966  10.693  12.347
43094W        W 4405  23.554  16.629  11.924
43095W        W 4406  11.694   7.182  10.903
43096W        W 4407  40.934   1.283  13.939
43097W        W 4408  28.054  41.531   4.772
43098W        W 4409   5.400   2.775   4.265
43099W        W 4410  39.866   2.354   0.935
43100W        W 4411  12.668  22.220   2.295
43101W        W 4412  22.709   2.798   2.895
43102W        W 4413   0.429  26.133  13.032
43103W        W 4414  28.590   2.385   3.780
43104W        W 4415  25.030  31.139  11.522
43105W        W 4416  20.716   3.265   1.830
43106W        W 4417  18.552  20.542   1.803
43107W        W 4418  32.559  15.768  14.431
43108W        W 4419  44.475  26.627  14.425
43109W        W 4420  25.022  36.028  12.056
43110W        W 4421  26.533  38.834  13.918
43111W        W 4422  13.792  33.938   3.779
43112W        W 4423  30.990  10.187  14.274
43113W        W 4424   0.458  17.211  11.887
43114W        W 4425   1.854  33.540   1.376
43115W        W 4426  10.649   0.306   3.288
43116W        W 4427  33.611  23.561  13.432
43117W        W 4428  13.107  39.025   2.303
43118W        W 4429   3.247  31.596  12.510
43119W        W 4430  11.238   9.366  14.362
43120W        W 4431  21.738  25.167   2.809
43121W        W 4432  31.046  33.012   2.185
43122W        W 4433  23.997   9.294  11.377
43123W        W 4434  31.636  38.374   1.358
43124W        W 4435  38.562  12.815  10.902
43125W        W 4436  43.466  13.209   1.260
43126W        W 4437   2.287  41.018  12.090
43127W        W 4438   9.889  22.528   3.648
43128W        W 4439   0.490   9.819  10.930
43129W        W 4440   5.727  14.824   2.403
43130W        W 4441  33.920  18.647  13.458
43131W        W 4442  44.272  13.616   1.281
43132W        W 4443  17.182  31.142   0.873
43133W        W 4444   9.205   2.822  14.487
43134W        W 4445  32.597  31.483  13.002
43135W        W 4446  16.117  43.840  10.638
43136W        W 4447  36.548  20.144  13.986
43137W        W 4448  29.062   7.174  13.351
43138W        W 4449  16.234  13.273  10.421
43139W        W 4450  31.930  21.186   4.258
43140W        W 4451  38.070   2.893   4.695
43141W        W 4452  28.599  11.189  14.361
43142W        W 4453  14.187  16.142   0.938
43143W        W 4454  34.090  25.090   2.686
43144W        W 4455  15.114   3.808  14.358
43145W        W 4456  37.981  35.921   1.361
43146W        W 4457  19.139  28.482  13.798
43147W        W 4458  24.649   2.428   3.712
43148W        W 4459  18.743  29.528  13.897
43149W        W 4460   1.877  43.326   0.476
43150W        W 4461  16.159  30.006   2.258
43151W        W 4462  10.746  17.794   2.239
43152W        W 4463  36.537   5.859   3.344
43153W        W 4464  21.560  15.764   3.241
43154W        W 4465  29.042  22.698   1.929
43155W        W 4466  11.171  30.450   1.866
43156W        W 4467  38.849  29.150   2.280
43157W        W 4468  23.717  38.043   2.889
43158W        W 4469  43.484  17.226   4.724
43159W        W 4470   4.802  14.177   2.869
43160W        W 4471  25.127  36.577   3.223
43161W        W 4472  31.560  29.046  11.448
43162W        W 4473  39.530   0.479  11.600
43163W        W 4474   9.785  37.943   1.934
43164W        W 4475  10.686  11.208  14.958
43165W        W 4476  20.035  16.165   2.718
43166W        W 4477  27.138  44.922   0.771
43167W        W 4478   6.915  33.006   2.831
43168W        W 4479  27.455   0.916   0.775
43169W        W 4480  19.564  44.486  10.964
43170W        W 4481  20.229  33.488  13.856
43171W        W 4482  29.517   3.233  11.526
43172W        W 4483  21.234  17.733  10.595
43173W        W 4484  34.572  31.476  13.000
43174W        W 4485  31.489   8.855   5.188
43175W        W 4486  30.651  28.674   3.366
43176W        W 4487   1.276  42.466   2.862
43177W        W 4488  18.191  10.833  11.024
43178W        W 4489  40.963  11.279   2.690
43179W        W 4490  43.345  30.421   3.151
43180W        W 4491  42.846   0.358   2.858
43181W        W 4492  25.649  25.169  12.462
43182W        W 4493  43.392  37.463   4.262
43183W        W 4494   4.270   6.753  11.492
43184W        W 4495  20.054  37.031   4.152
43185W        W 4496  17.195  20.748  11.097
43186W        W 4497  42.407  20.594  10.622
43187W        W 4498   1.805   7.329   4.333
43188W        W 4499   6.336  10.739   4.682
43189W        W 4500  11.286   5.753   1.265
43190W        W 4501  31.054  32.514  11.592
43191W        W 4502  36.536  39.021   2.845
43192W        W 4503  27.151  21.595   0.826
43193W        W 4504   3.909  25.085   2.711
43194W        W 4505  14.650  10.363  13.456
43195W        W 4506  16.761  40.467  12.565
43196W        W 4507  31.939  26.960   3.632
43197W        W 4508  31.989   8.186   3.796
43198W        W 4509  44.395   7.742   5.291
43199W        W 4510  18.060  40.518  13.946
43200W        W 4511   5.199  39.408  12.468
43201W        W 4512  42.497  44.757  14.855
43202W        W 4513  22.531  22.646   1.235
43203W        W 4514  38.480   8.900  14.467
43204W        W 4515  27.536  21.569   2.731
43205W        W 4516   6.283  36.423   3.278
43206W        W 4517  23.227   1.885   1.713
43207W        W 4518   3.950  10.840  10.922
43208W        W 4519  44.986  10.255   0.314
43209W        W 4520  11.304  42.006   3.326
43210W        W 4521  44.853  31.578   2.728
43211W        W 4522  43.988  17.751   3.208
43212W        W 4523  27.650  37.385  11.107
43213W        W 4524   3.905   5.247   2.246
43214W        W 4525   9.394  37.984   4.730
43215W        W 4526  10.317  35.105  12.411
43216W        W 4527   3.435  17.238   3.280
43217W        W 4528  24.620   2.346  10.452
43218W        W 4529   6.417  33.413   1.445
43219W        W 4530  24.559   0.933   3.159
43220W        W 4531  42.307  44.291   1.327
43221W        W 4532   0.483  16.677  12.507
43222W        W 4533  40.523  42.414  14.364
43223W        W 4534  23.511  35.984   4.335
43224W        W 4535   3.868  33.449  13.952
43225W        W 4536  36.508  21.233   1.383
43226W        W 4537  44.319   7.749   1.826
43227W        W 4538   5.230  20.184  12.445
43228W        W 4539  41.532  39.987   4.702
43229W        W 4540   1.458  43.431   3.717
43230W        W 4541  15.768  30.553   0.728
43231W        W 4542  10.686  42.901   1.902
43232W        W 4543  11.653  31.040   1.329
43233W        W 4544  39.340  22.021   2.674
43234W        W 4545  32.426  32.457  12.408
43235W        W 4546  38.562  32.402   3.743
43236W        W 4547  34.377  13.786   3.183
43237W        W 4548  36.380  21.044  12.367
43238W        W 4549   3.878  40.034   0.391
43239W        W 4550   8.809   1.270   3.697
43240W        W 4551  31.613  21.070  10.522
43241W        W 4552  30.915  18.573  12.888
43242W        W 4553  21.037  14.664   2.206
43243W        W 4554  17.208  17.159   2.865
43244W        W 4555  27.575  38.888   3.318
43245W        W 4556  14.723   7.264  11.521
43246W        W 4557  42.481  25.177   2.266
43247W        W 4558  34.869  32.116  12.874
43248W        W 4559   1.739  44.345   0.439
43249W        W 4560  10.815  24.553   2.864
43250W        W 4561  39.387   3.718  10.481
43251W        W 4562  17.121  11.204  14.794
43252W        W 4563  10.810   8.815  11.431
43253W        W 4564  43.504  22.021   0.862
43254W        W 4565  30.523  21.530  12.375
43255W        W 4566  26.677  42.028  12.905
43256W        W 4567  14.207  12.754  10.146
43257W        W 4568  24.031  18.271   2.203
43258W        W 4569  19.692   1.438  10.641
43259W        W 4570  30.003  17.749  13.457
43260W        W 4571   0.323  16.773   4.220
43261W        W 4572  22.247  29.052  12.501
43262W        W 4573  12.121  13.804  14.841
43263W        W 4574  21.573  10.175  11.871
43264W        W 4575  38.038  12.178   2.772
43265W        W 4576  29.457  33.975  12.517
43266W        W 4577  32.477  42.505  13.943
43267W        W 4578  30.597   7.817  13.985
43268W        W 4579  21.708  37.538   0.927
43269W        W 4580  24.125   7.409  13.892
43270W        W 4581   3.864  34.869   3.368
43271W        W 4582  29.055  35.990  14.439
43272W        W 4583  39.460  26.006  13.972
43273W        W 4584  19.635  18.763  13.036
43274W        W 4585  11.828  27.545  13.407
43275W        W 4586   1.408  18.265  13.885
43276W        W 4587  27.085  29.056  13.547
43277W        W 4588  32.409  35.962   2.902
43278W        W 4589  11.248   2.767  13.523
43279W        W 4590  16.131   6.746   4.624
43280W        W 4591   8.677  31.013   0.762
43281W        W 4592   7.305   4.863   0.454
43282W        W 4593  30.450  15.192  10.558
43283W        W 4594   9.652  17.127  11.497
43284W        W 4595  17.118   7.265   3.870
43285W        W 4596  44.756   5.227  14.359
43286W        W 4597  16.255  42.779   3.698
43287W        W 4598  22.652  26.115   4.250
43288W        W 4599  26.118  10.381  10.519
43289W        W 4600  39.959   3.228  14.804
43290W        W 4601  34.106  42.783   1.407
43291W        W 4602  27.956  10.759   0.758
43292W        W 4603  19.173  22.602   3.642
43293W        W 4604   5.416  16.779   1.716
43294W        W 4605  22.515  37.517   4.156
43295W        W 4606  31.536  17.684  10.900
43296W        W 4607  34.534  43.766  14.828
43297W        W 4608   2.810  21.238  14.310
43298W        W 4609  19.689  22.650   3.282
43299W        W 4610  29.545  20.765  13.842
43300W        W 4611   6.870  16.097   2.233
43301W        W 4612  42.021  16.172   0.424
43302W        W 4613  20.045  21.551  13.466
43303W        W 4614  18.147  13.794   2.726
43304W        W 4615  29.517  17.562  11.047
43305W        W 4616  16.659  37.085  14.886
43306W        W 4617  20.064  10.182   3.222
43307W        W 4618  35.050  14.148   2.282
43308W        W 4619  44.315  33.489   0.787
43309W        W 4620  32.908   8.273   2.236
43310W        W 4621  24.697   3.849  11.056
43311W        W 4622   5.386  35.034   1.907
43312W        W 4623  19.269  15.796  12.967
43313W        W 4624  42.322  10.704   1.880
43314W        W 4625   2.396  30.559  13.055
43315W        W 4626   2.833  12.136  13.522
43316W        W 4627  21.042  29.935  12.878
43317W        W 4628   9.225  42.479  12.511
43318W        W 4629  11.241   5.700   3.760
43319W        W 4630  30.981  12.247   4.215
43320W        W 4631   8.674   3.230  14.449
43321W        W 4632  10.783   4.791  11.046
43322W        W 4633  16.633  12.224  14.999
43323W        W 4634  36.963  29.945  14.362
43324W        W 4635   2.386  38.011  14.765
43325W        W 4636   4.400  38.960   3.222
43326W        W 4637  14.766   5.704   4.787
43327W        W 4638  36.098  11.713   2.360
43328W        W 4639  34.387   2.958   4.207
43329W        W 4640   2.255  20.618   2.332
43330W        W 4641   0.848  31.534   3.639
43331W        W 4642  26.164  21.570   1.760
43332W        W 4643  21.253  17.720   2.781
43333W        W 4644   6.878  12.293  14.816
43334W        W 4645  29.668   1.464   2.246
43335W        W 4646  38.943  41.867   3.703
43336W        W 4647  40.933  23.128  10.981
43337W        W 4648  28.100  30.642   3.277
43338W        W 4649  43.350  11.131  10.425
43339W        W 4650  27.948   8.267  12.032
43340W        W 4651  32.143  14.645   1.286
43341W        W 4652  34.914  26.688   9.968
43342W        W 4653   3.219   5.789   1.869
43343W        W 4654  30.134   4.431  11.011
43344W        W 4655   2.896  16.195  12.965
43345W        W 4656  20.144  39.933  12.049
43346W        W 4657  39.819  36.845  14.310
43347W        W 4658  14.249  14.617   1.791
43348W        W 4659   2.938  20.698  10.451
43349W        W 4660  12.792  10.286  13.527
43350W        W 4661  31.132  17.098   2.359
43351W        W 4662  32.467  13.275  14.358
43352W        W 4663  12.646  28.149   0.302
43353W        W 4664  28.950  41.477  14.985
43354W        W 4665  40.316  35.424  13.807
43355W        W 4666   3.313  37.519   5.311
43356W        W 4667  15.233  29.619   1.340
43357W        W 4668  31.038  42.489  11.606
43358W        W 4669  13.795   5.797   2.398
43359W        W 4670  10.744  12.642   2.681
43360W        W 4671  21.253  43.409   0.897
43361W        W 4672   8.708  34.986  10.978
43362W        W 4673  41.315  13.329   4.624
43363W        W 4674  13.287  37.861  14.316
43364W        W 4675  30.596   8.740   4.151
43365W        W 4676  40.946   8.866  11.931
43366W        W 4677  16.089  35.380   1.409
43367W        W 4678  42.515  28.930   3.259
43368W        W 4679  28.980  25.688   3.864
43369W        W 4680  19.766  15.693  13.922
43370W        W 4681   1.423  15.135   0.869
43371W        W 4682  22.218   1.825  12.933
43372W        W 4683  29.488   8.183   9.460
43373W        W 4684  11.323  37.902  11.874
43374W        W 4685  21.689  43.961   0.330
43375W        W 4686  16.289  17.097  14.866
43376W        W 4687  42.285  20.745   4.763
43377W        W 4688  13.798   0.815   3.348
43378W        W 4689  40.836  21.136  10.419
43379W        W 4690  13.330  41.038  13.846
43380W        W 4691  15.106  43.942  12.545
43381W        W 4692  24.483  20.105   5.126
43382W        W 4693  29.590  28.128   4.725
43383W        W 4694   3.947  36.932   1.302
43384W        W 4695   2.437  41.440   9.998
43385W        W 4696   8.173  23.215   3.319
43386W        W 4697  29.537  10.864   0.738
43387W        W 4698   6.408  42.400  14.510
43388W        W 4699  39.046  27.182   4.258
43389W        W 4700  29.534  23.105   0.895
43390W        W 4701  13.706   6.715  14.365
43391W        W 4702  27.084   3.267  10.897
43392W        W 4703  17.730  39.994  10.454
43393W        W 4704  42.852  20.525   3.783
43394W        W 4705   0.440  41.474   3.678
43395W        W 4706   8.388  42.797   2.733
43396W        W 4707  28.158   4.944   4.310
43397W        W 4708  37.025  35.016   3.728
43398W        W 4709  44.319  28.013   3.635
43399W        W 4710  41.494  15.700  11.101
43400W        W 4711   2.837  15.699   3.193
43401W        W 4712  21.207   1.972   4.777
43402W        W 4713   0.327  25.049   1.764
43403W        W 4714  23.063  44.490  14.017
43404W        W 4715  42.026  36.922  12.076
43405W        W 4716  24.229  40.977  12.495
43406W        W 4717  21.154  33.447   1.712
43407W        W 4718  30.475  22.657   4.285
43408W        W 4719  29.529  43.514   2.768
43409W        W 4720  21.238  37.550   0.831
43410W        W 4721  25.527  38.064  12.996
43411W        W 4722  19.616  29.516  11.933
43412W        W 4723  36.349  11.787   0.902
43413W        W 4724   4.285  21.215  14.973
43414W        W 4725  21.561  15.663  13.953
43415W        W 4726  19.770  23.569  13.009
43416W        W 4727  21.579  20.073  11.121
43417W        W 4728  19.666  11.664   1.411
43418W        W 4729  30.474  18.681   3.703
43419W        W 4730  33.055  40.469   4.129
43420W        W 4731  20.764  13.799   4.821
43421W        W 4732  38.482   4.438  11.027
43422W        W 4733   5.923  36.360   4.219
43423W        W 4734  20.768  20.273   0.859
43424W        W 4735  42.466  13.118   0.815
43425W        W 4736  10.711  12.708   3.739
43426W        W 4737   6.235   0.297   1.866
43427W        W 4738  40.852  31.404  14.365
43428W        W 4739  10.740  30.022   3.220
43429W        W 4740   9.379   2.453   4.641
43430W        W 4741  30.956  20.743   0.275
43431W        W 4742  35.557  10.851  10.569
43432W        W 4743  44.864   6.311   2.226
43433W        W 4744   4.312  38.350   1.405
43434W        W 4745   6.769  17.082  14.309
43435W        W 4746   8.797   1.407  10.545
43436W        W 4747  35.969  24.543   4.729
43437W        W 4748  20.171   3.812  14.930
43438W        W 4749  21.054  11.703  11.436
43439W        W 4750  35.568  16.289  12.423
43440W        W 4751  29.496  31.430  12.353
43441W        W 4752  26.136  42.452   1.210
43442W        W 4753  29.031  38.468   4.601
43443W        W 4754   3.428  29.946   4.312
43444W        W 4755  26.984  19.065   3.810
43445W        W 4756  16.291   4.436  12.088
43446W        W 4757  31.569   7.787  13.378
43447W        W 4758  21.146  19.587   3.166
43448W        W 4759   5.928  39.551  14.443
43449W        W 4760   5.389  21.683  14.896
43450W        W 4761   6.240  26.617  14.005
43451W        W 4762   7.688  25.654  12.861
43452W        W 4763  16.622  10.797   2.853
43453W        W 4764  28.497  31.090  14.445
43454W        W 4765   7.204   9.738  11.873
43455W        W 4766  39.912  18.091  14.005
43456W        W 4767  40.412  40.422  10.457
43457W        W 4768   6.772  19.124  13.008
43458W        W 4769  15.801  38.455   1.782
43459W        W 4770  30.935  35.043   3.362
43460W        W 4771  28.438  14.767  12.859
43461W        W 4772  43.906  23.178  14.948
43462W        W 4773  35.532  32.042   9.970
43463W        W 4774  44.297  41.972  13.361
43464W        W 4775  40.391  24.528  11.421
43465W        W 4776   1.392  19.177   1.309
43466W        W 4777  33.588  22.153   3.362
43467W        W 4778  16.174  24.720   0.476
43468W        W 4779  28.950   1.954  11.582
43469W        W 4780  22.633  44.298   3.730
43470W        W 4781  40.352  10.339  12.858
43471W        W 4782   3.420  30.129   3.848
43472W        W 4783  32.436  31.036  13.884
43473W        W 4784  23.063  17.117   3.740
43474W        W 4785   0.418  22.700  14.966
43475W        W 4786  15.809  33.944  12.977
43476W        W 4787  25.508  41.353   4.115
43477W        W 4788  27.014  30.449   3.292
43478W        W 4789  19.568  36.352   4.227
43479W        W 4790  22.122  27.589  10.613
43480W        W 4791  19.248  11.253   0.809
43481W        W 4792   4.901  10.295  13.379
43482W        W 4793  40.006  34.101   4.237
43483W        W 4794  38.029  30.984   1.811
43484W        W 4795  36.922   7.748   0.415
43485W        W 4796  34.987  37.976   4.757
43486W        W 4797  29.551  33.563  14.022
43487W        W 4798  27.022  32.102  14.359
43488W        W 4799  10.689  28.619   1.851
43489W        W 4800  13.834   3.356  11.425
43490W        W 4801   3.287  39.317  13.376
43491W        W 4802  44.888   7.207  13.318
43492W        W 4803  10.279  38.836  13.347
43493W        W 4804  17.685  42.444  12.545
43494W        W 4805   7.253  12.641  12.378
43495W        W 4806   0.830  41.014   1.295
43496W        W 4807  13.793   0.472  10.609
43497W        W 4808   2.404   4.905  12.055
43498W        W 4809  14.165  13.807  13.882
43499W        W 4810  27.131   6.703   0.248
43500W        W 4811  18.754  11.660  10.892
43501W        W 4812  31.913   6.318  10.481
43502W        W 4813  21.611  19.184   5.710
43503W        W 4814   0.788  38.548  14.906
43504W        W 4815  28.668  35.004   0.285
43505W        W 4816  17.210   4.726   3.298
43506W        W 4817  13.125   0.839  13.440
43507W        W 4818   8.224   6.746   3.223
43508W        W 4819  10.210  34.407  10.910
43509W        W 4820  35.419   4.367  12.044
43510W        W 4821  33.043  43.475   0.331
43511W        W 4822  39.951  33.412  13.026
43512W        W 4823  23.673  44.459   3.377
43513W        W 4824  26.699   9.362   0.345
43514W        W 4825  24.987  41.940   5.298
43515W        W 4826  33.585   9.266   3.761
43516W        W 4827  31.500  43.409  13.350
43517W        W 4828  32.542  29.077  11.534
43518W        W 4829   9.849  12.757   3.851
43519W        W 4830  18.097  34.582  14.875
43520W        W 4831   1.808   7.795   1.816
43521W        W 4832  31.151  39.991   2.703
43522W        W 4833  19.204  37.487   3.745
43523W        W 4834  26.114   1.257  11.128
43524W        W 4835   4.802  23.063   4.203
43525W        W 4836  20.103  34.915   1.899
43526W        W 4837  27.684  26.192  11.433
43527W        W 4838  10.640   1.286  12.355
43528W        W 4839   7.265   4.813   3.169
43529W        W 4840  38.910  19.597  14.781
43530W        W 4841  37.570  41.847   2.861
43531W        W 4842  38.443  24.080  10.589
43532W        W 4843  33.471  14.095   1.276
43533W        W 4844  36.094  27.468  13.395
43534W        W 4845  39.314  22.558  10.535
43535W        W 4846  29.056  24.004   4.754
43536W        W 4847   6.893  29.132   4.253
43537W        W 4848  32.079  36.358   4.670
43538W        W 4849   7.711  12.135   4.217
43539W        W 4850  42.779  34.910  11.001
43540W        W 4851  44.297  32.535   0.827
43541W        W 4852  35.482  23.732   3.193
43542W        W 4853  18.586  44.838   3.717
43543W        W 4854  16.612  12.619  10.976
43544W        W 4855  24.180  32.033   0.323
43545W        W 4856  36.369  24.023   0.830
43546W        W 4857  14.701   5.349  13.451
43547W        W 4858  44.877   2.924   0.901
43548W        W 4859  35.498  21.577  10.405
43549W        W 4860  12.304   5.775  11.013
43550W        W 4861  28.960  30.157  10.602
43551W        W 4862  21.556  25.470  12.383
43552W        W 4863  43.956  15.249  10.612
43553W        W 4864  40.379  37.835   1.719
43554W        W 4865  32.538   3.376   1.390
43555W        W 4866  21.614  34.028   3.800
43556W        W 4867  36.883  13.683   3.792
43557W        W 4868   3.233  34.599  13.477
43558W        W 4869  43.286  23.041   1.438
43559W        W 4870  43.943  25.969  13.363
43560W        W 4871  39.845  13.236   2.417
43561W        W 4872  10.288  25.476   1.427
43562W        W 4873  15.263   4.924   4.792
43563W        W 4874  22.664  10.633   4.289
43564W        W 4875  30.919   3.875   4.748
43565W        W 4876  24.218  13.641   0.454
43566W        W 4877  15.666  32.547  13.958
43567W        W 4878  36.540   2.735   3.737
43568W        W 4879  21.029  29.548  14.337
43569W        W 4880  27.979   3.731   2.773
43570W        W 4881  14.816  22.588   1.875
43571W        W 4882  25.089  38.829   4.706
43572W        W 4883  16.711  34.574  13.796
43573W        W 4884   6.212  35.449  13.030
43574W        W 4885  26.187  21.512   1.302
43575W        W 4886  38.374  22.192  10.965
43576W        W 4887  13.839   2.740   0.784
43577W        W 4888  30.092   3.389   3.245
43578W        W 4889  33.383  15.736   2.363
43579W        W 4890   4.802  35.420  13.400
43580W        W 4891  16.147  21.527   2.799
43581W        W 4892  44.839  32.914   4.214
43582W        W 4893  16.691  20.222  10.552
43583W        W 4894  16.654  15.191  13.469
43584W        W 4895  14.207   1.797  10.974
43585W        W 4896   7.299   9.169  12.488
43586W        W 4897  24.039  13.830  11.968
43587W        W 4898  23.687  11.332  13.345
43588W        W 4899   0.306  29.517  13.412
43589W        W 4900  26.120  27.459  11.541
43590W        W 4901  16.136  33.520  14.503
43591W        W 4902  13.284  31.088  12.477
43592W        W 4903   2.353  24.544  14.800
43593W        W 4904  22.202   5.384   2.813
43594W        W 4905  43.917  12.120   1.893
43595W        W 4906  27.558  40.928  13.814
43596W        W 4907  30.482  44.907   3.160
43597W        W 4908  24.987  43.311  10.915
43598W        W 4909  15.299  42.892   4.655
43599W        W 4910  20.168  12.700   0.935
43600W        W 4911  30.470  26.952   0.338
43601W        W 4912  22.623  12.253   2.845
43602W        W 4913   3.817   2.870  11.417
43603W        W 4914  23.241  21.529  14.437
43604W        W 4915  10.271  22.634  12.390
43605W        W 4916   0.827  22.519   3.814
43606W        W 4917   6.317  36.488   2.266
43607W        W 4918  34.545  24.690   2.294
43608W        W 4919  39.945   4.298  11.555
43609W        W 4920  23.517   7.177   4.270
43610W        W 4921  39.476  25.003   1.734
43611W        W 4922  12.766  15.822   0.363
43612W        W 4923  20.663  33.575   1.302
43613W        W 4924  26.456  40.455   4.206
43614W        W 4925  33.976  23.138   0.466
43615W        W 4926   5.206  44.797   3.657
43616W        W 4927   7.374  44.500   0.953
43617W        W 4928   5.210  27.085  12.362
43618W        W 4929  36.471  28.557  12.881
43619W        W 4930  35.107   7.767  10.447
43620W        W 4931  10.635  13.798   3.251
43621W        W 4932   9.209  36.522  10.516
43622W        W 4933  39.022  44.891   4.206
43623W        W 4934  21.749  28.604   0.479
43624W        W 4935  40.407  15.254  12.504
43625W        W 4936  11.340  44.352  13.003
43626W        W 4937  36.412  18.593   4.238
43627W        W 4938   1.890  43.803  14.972
43628W        W 4939  15.182  11.216   1.732
43629W        W 4940   0.760  25.215   4.292
43630W        W 4941  13.273   1.915   2.389
43631W        W 4942  40.848  24.573  14.021
43632W        W 4943  20.632  13.253   9.522
43633W        W 4944  44.267  31.035  13.500
43634W        W 4945   1.750   9.690   1.759
43635W        W 4946  35.010  29.556   0.763
43636W        W 4947  34.486  40.363  12.998
43637W        W 4948   3.772  18.651  10.472
43638W        W 4949   2.962   5.322  11.861
43639W        W 4950  13.711  34.534  10.964
43640W        W 4951  39.471   0.975   3.632
43641W        W 4952   4.433  33.064  12.370
43642W        W 4953  41.936  42.978   1.365
43643W        W 4954  37.896   4.943  10.608
43644W        W 4955  15.126  23.054   0.331
43645W        W 4956   2.759  32.903  10.520
43646W        W 4957   0.487  20.616  13.424
43647W        W 4958  38.491  36.963  11.575
43648W        W 4959   7.676  10.308   3.282
43649W        W 4960  21.613   1.873  13.541
43650W        W 4961   0.851  17.294  13.837
43651W        W 4962  30.137  16.692   2.255
43652W        W 4963  16.225  21.094  12.856
43653W        W 4964   2.265  22.072   4.833
43654W        W 4965   1.945   9.329   2.222
43655W        W 4966   9.238   0.453   4.209
43656W        W 4967  41.859  27.549   2.847
43657W        W 4968  16.569  12.151  14.276
43658W        W 4969  18.136  30.614   3.306
43659W        W 4970  25.005  15.112   2.727
43660W        W 4971  14.337  42.412  12.841
43661W        W 4972  22.744  44.789  11.893
43662W        W 4973  18.658  10.143   4.797
43663W        W 4974  38.974  23.652   3.808
43664W        W 4975  15.272   9.865  13.468
43665W        W 4976  35.101  27.135   1.303
43666W        W 4977  11.679  30.152  11.580
43667W        W 4978  36.390  35.381   4.130
43668W        W 4979   7.338  14.598  13.849
43669W        W 4980  39.940  14.791   1.229
43670W        W 4981  37.506  31.570  13.340
43671W        W 4982  43.872   1.373   0.820
43672W        W 4983  18.564  12.150   3.822
43673W        W 4984  41.924  37.393  12.522
43674W        W 4985  15.584  26.102  14.844
43675W        W 4986  37.369  10.365  13.465
43676W        W 4987   1.411  25.577  11.125
43677W        W 4988  22.679  36.377  13.361
43678W        W 4989  11.641  37.539  10.630
43679W        W 4990  33.889  16.175  12.486
43680W        W 4991  27.491  36.472   4.653
43681W        W 4992  29.430  27.538   2.224
43682W        W 4993   1.948   4.830  13.823
43683W        W 4994  39.021  12.353  12.440
43684W        W 4995  24.568  32.054   5.107
43685W        W 4996   3.907  37.076  13.330
43686W        W 4997   8.663   4.436  14.347
43687W        W 4998  19.245   5.300   2.342
43688W        W 4999  31.457   8.836   1.247
43689W        W 5000  33.516  33.921  12.930
43690W        W 5001   0.945   2.422   2.866
43691W        W 5002   7.686   0.480  12.527
43692W        W 5003  44.762   8.200  14.330
43693W        W 5004  36.551   1.793  10.143
43694W        W 5005   5.854  10.716  11.560
43695W        W 5006  15.201  26.087  13.494
43696W        W 5007  35.430  23.549   4.116
43697W        W 5008  29.571  35.408   0.278
43698W        W 5009  27.079  35.863  12.381
43699W        W 5010  18.645  20.528   0.375
43700W        W 5011   9.373  16.126  11.600
43701W        W 5012  31.102  22.042   0.868
43702W        W 5013  17.195  38.829  10.958
43703W        W 5014   0.820  22.189   4.627
43704W        W 5015   6.902  27.032   2.363
43705W        W 5016  30.971   9.801  11.380
43706W        W 5017  38.952  43.866   2.685
43707W        W 5018  11.260  15.613  13.422
43708W        W 5019  33.012  35.401  11.454
43709W        W 5020  39.041  29.096  11.515
43710W        W 5021   2.258   6.392  14.908
43711W        W 5022   6.881  20.053   2.185
43712W        W 5023  22.131  18.726   0.954
43713W        W 5024  36.520   8.388  10.534
43714W        W 5025  16.767  43.015   4.648
43715W        W 5026   3.420  18.565  11.901
43716W        W 5027  13.828  22.733  14.932
43717W        W 5028  21.094  36.376   2.840
43718W        W 5029  11.852  26.133  10.011
43719W        W 5030  20.754   5.820   2.878
43720W        W 5031  43.366   5.769  10.034
43721W        W 5032  31.097  36.967   2.839
43722W        W 5033   7.765  35.967  11.999
43723W        W 5034   3.857   7.757   3.790
43724W        W 5035  34.937   3.385  10.573
43725W        W 5036  33.916  34.539  13.001
43726W        W 5037  39.917  15.652  13.892
43727W        W 5038  39.944   0.930   1.795
43728W        W 5039  41.366  41.496   3.854
43729W        W 5040  42.469  22.058  11.928
43730W        W 5041   6.290   4.777  14.834
43731W        W 5042   1.780  12.273  13.362
43732W        W 5043  31.535  39.003   0.311
43733W        W 5044  22.228  43.901  14.790
43734W        W 5045  24.183   6.768   3.802
43735W        W 5046   2.226   0.768  13.013
43736W        W 5047  15.098  12.706  13.961
43737W        W 5048  20.186  41.817   1.844
43738W        W 5049  25.595   9.835  14.907
43739W        W 5050   9.159   1.794   0.484
43740W        W 5051  19.114  34.505   4.697
43741W        W 5052  22.171  36.970  12.951
43742W        W 5053  25.533  34.066   4.638
43743W        W 5054   5.842  13.341  11.859
43744W        W 5055  29.525   5.811  14.502
43745W        W 5056  27.149   3.371  14.420
43746W        W 5057   9.668  34.924  14.862
43747W        W 5058  25.584  36.932  11.405
43748W        W 5059  38.477  24.624  14.987
43749W        W 5060  36.976   6.793   4.617
43750W        W 5061  12.662  37.047  14.484
43751W        W 5062  28.625   8.665  14.437
43752W        W 5063  14.192  12.770  13.034
43753W        W 5064  29.035   3.365   3.270
43754W        W 5065  34.518  12.283  13.893
43755W        W 5066  35.079   9.732   0.242
43756W        W 5067  16.736  18.240   1.828
43757W        W 5068   4.429  33.078  13.968
43758W        W 5069  35.471   4.865  11.880
43759W        W 5070  28.439  42.395  10.624
43760W        W 5071  26.509   8.358  12.970
43761W        W 5072  37.481  24.070   4.117
43762W        W 5073  25.483  34.074  14.882
43763W        W 5074   6.307  42.970  10.956
43764W        W 5075   0.751  11.238  11.492
43765W        W 5076  43.354  44.972  12.570
43766W        W 5077   5.371  20.051   1.804
43767W        W 5078  18.548  27.118  14.943
43768W        W 5079  42.314   9.837  13.892
43769W        W 5080  40.335  16.096   4.159
43770W        W 5081  28.134   1.969   4.696
43771W        W 5082  16.629  38.921  10.159
43772W        W 5083  29.168  25.564  10.462
43773W        W 5084  44.335  26.951   0.339
43774W        W 5085   5.863  36.405   2.842
43775W        W 5086  37.529  31.405  14.470
43776W        W 5087  31.468  18.731   1.787
43777W        W 5088  14.268  40.347  12.845
43778W        W 5089  33.594  10.365   5.159
43779W        W 5090  43.310  10.245  10.935
43780W        W 5091  35.593  37.884  11.103
43781W        W 5092  44.917  13.785  13.054
43782W        W 5093  31.552  27.004   0.872
43783W        W 5094  44.372   1.768  11.088
43784W        W 5095  26.170  31.621  14.998
43785W        W 5096  34.973  35.935  13.945
43786W        W 5097  41.992  39.882  14.981
43787W        W 5098  20.270  33.513  13.459
43788W        W 5099  39.364   3.791   3.328
43789W        W 5100  17.287  15.311  13.508
43790W        W 5101  44.924  18.746   0.946
43791W        W 5102  19.222   9.288  14.889
43792W        W 5103  30.426   0.407   3.855
43793W        W 5104  13.292   6.298   4.186
43794W        W 5105  21.651  22.107  12.391
43795W        W 5106  37.530   7.850   0.244
43796W        W 5107  37.057  13.624   3.152
43797W        W 5108  16.178  37.061  10.466
43798W        W 5109  32.077  31.623   4.223
43799W        W 5110  30.992   7.183   5.188
43800W        W 5111  38.075  13.216  13.310
43801W        W 5112  22.157   3.367  12.988
43802W        W 5113  29.614  10.794  10.921
43803W        W 5114  19.200  34.956  14.877
43804W        W 5115  37.402  20.124  11.081
43805W        W 5116  28.142   1.836  10.480
43806W        W 5117  21.226   7.759   2.810
43807W        W 5118  31.599  42.355  14.444
43808W        W 5119  30.976  23.683   3.664
43809W        W 5120  41.378  41.888  12.344
43810W        W 5121  15.711  38.045   0.846
43811W        W 5122   4.406  24.609  10.966
43812W        W 5123  32.067  15.693  13.913
43813W        W 5124  44.926  18.576  12.010
43814W        W 5125  32.991  40.982  14.969
43815W        W 5126  23.200  21.703  13.424
43816W        W 5127  19.744  44.972  11.583
43817W        W 5128   4.316  29.559   4.721
43818W        W 5129  31.618  28.033   1.327
43819W        W 5130  24.648   0.451   3.329
43820W        W 5131  42.358  26.200  13.356
43821W        W 5132  43.308   0.841   0.461
43822W        W 5133   8.369  31.571  12.356
43823W        W 5134  35.058  33.532  12.855
43824W        W 5135  35.900  17.103  13.057
43825W        W 5136  23.090  10.679  10.418
43826W        W 5137  43.354  32.097   4.229
43827W        W 5138  18.689  39.032   2.711
43828W        W 5139  31.123   7.885  14.449
43829W        W 5140  44.343  35.983  12.395
43830W        W 5141  39.373  34.439  11.953
43831W        W 5142  23.596  37.087  11.373
43832W        W 5143  15.236  27.611  14.381
43833W        W 5144  22.594   9.663  14.005
43834W        W 5145   5.239  22.582   4.231
43835W        W 5146  36.948  20.148   0.336
43836W        W 5147  24.500  13.789  12.457
43837W        W 5148  17.792  41.418   4.621
43838W        W 5149  39.956  24.482   4.137
43839W        W 5150  17.279  40.544  11.546
43840W        W 5151   5.762  33.106   1.897
43841W        W 5152   1.807  42.863  11.113
43842W        W 5153   9.198   0.347   4.665
43843W        W 5154   6.697  22.122   0.404
43844W        W 5155  43.458  35.095  13.965
43845W        W 5156  16.654  32.520  10.429
43846W        W 5157   5.833  12.137   4.336
43847W        W 5158   9.284  40.331   1.827
43848W        W 5159  35.984  27.080   2.390
43849W        W 5160  44.964  38.978  11.380
43850W        W 5161  16.219   9.651  11.878
43851W        W 5162   1.438  12.645  10.963
43852W        W 5163   6.305   1.873  14.508
43853W        W 5164  19.572  11.647  12.534
43854W        W 5165   4.369  37.913  10.625
43855W        W 5166  39.881  19.707  11.987
43856W        W 5167  25.525  11.250  13.808
43857W        W 5168  11.201  43.507  12.418
43858W        W 5169   8.369  35.986   3.333
43859W        W 5170  18.235   9.204  11.445
43860W        W 5171  11.333   0.780  13.540
43861W        W 5172   7.683  10.198   5.257
43862W        W 5173  33.440  10.315  13.039
43863W        W 5174  17.738  27.453   2.279
43864W        W 5175  18.179  28.671   1.926
43865W        W 5176  17.168  30.545  10.470
43866W        W 5177  14.675  17.143  12.915
43867W        W 5178   1.850  30.925  11.957
43868W        W 5179  30.658  37.011  12.547
43869W        W 5180   9.809  28.148   3.155
43870W        W 5181  44.505  34.930  10.986
43871W        W 5182  19.669  43.373  12.411
43872W        W 5183  27.573  10.695  12.500
43873W        W 5184  36.386  27.011   0.431
43874W        W 5185  17.653  21.087  11.872
43875W        W 5186  38.903  23.624   1.931
43876W        W 5187   0.929   8.311  11.877
43877W        W 5188  41.336   8.822   4.727
43878W        W 5189  18.710  36.073   1.217
43879W        W 5190   0.938  34.098   2.799
43880W        W 5191  43.407  30.529  14.360
43881W        W 5192  23.240  41.440   3.366
43882W        W 5193  36.592  15.198  12.452
43883W        W 5194  15.229   2.755   4.332
43884W        W 5195  11.157  44.822  11.424
43885W        W 5196  13.275  20.066  14.900
43886W        W 5197  43.349  23.608  12.072
43887W        W 5198  11.206   4.774   1.395
43888W        W 5199  44.332  14.627   4.621
43889W        W 5200   3.264   7.409  11.377
43890W        W 5201  28.180  22.030   0.253
43891W        W 5202  31.109  17.085   3.146
43892W        W 5203   3.429  42.856   4.237
43893W        W 5204   1.244  31.405  13.409
43894W        W 5205  40.945  44.914  13.932
43895W        W 5206   1.796   9.706  12.511
43896W        W 5207  16.116  22.197   0.424
43897W        W 5208  42.898  44.003  14.855
43898W        W 5209   4.398   6.841  12.342
43899W        W 5210   7.275  44.833   3.278
43900W        W 5211   5.349  35.523   0.933
43901W        W 5212  25.204   3.889   3.817
43902W        W 5213  38.499  19.780   1.852
43903W        W 5214   2.385  16.094   4.707
43904W        W 5215  32.006  20.273   1.890
43905W        W 5216  22.516  38.446   3.267
43906W        W 5217  28.674  13.837  12.041
43907W        W 5218   7.870  19.046  14.320
43908W        W 5219   3.871  34.419  14.456
43909W        W 5220  29.122  20.649  11.440
43910W        W 5221  39.437  15.624  12.385
43911W        W 5222  35.042   8.362   4.347
43912W        W 5223   3.450  36.395   0.245
43913W        W 5224  24.112  39.359   3.849
43914W        W 5225  22.513  44.433   4.170
43915W        W 5226   1.830  30.055   1.221
43916W        W 5227  30.987   2.791  14.831
43917W        W 5228  41.869  13.345   4.139
43918W        W 5229  13.779   8.735  10.420
43919W        W 5230  17.751  16.777   5.093
43920W        W 5231  37.865  14.722   0.466
43921W        W 5232  42.031  42.903  13.013
43922W        W 5233  17.591  44.953   4.753
43923W        W 5234  39.546   7.300  14.352
43924W        W 5235  21.679  43.286   9.961
43925W        W 5236   8.782   4.799   4.629
43926W        W 5237  34.118   4.340   0.878
43927W        W 5238  32.606  29.941   3.233
43928W        W 5239  20.254   5.821  13.462
43929W        W 5240  23.715  40.972  12.362
43930W        W 5241  16.239  20.136  12.056
43931W        W 5242  22.094  37.849  12.028
43932W        W 5243  43.829  33.499  12.412
43933W        W 5244  19.279   5.734  14.311
43934W        W 5245  39.518  28.499  13.903
43935W        W 5246   3.237  20.060  11.891
43936W        W 5247  10.362  16.183  12.578
43937W        W 5248   6.185  37.347   1.893
43938W        W 5249  12.317   4.361   3.256
43939W        W 5250  39.876  43.998  11.464
43940W        W 5251  12.785  23.108  13.521
43941W        W 5252  37.847  11.335   4.618
43942W        W 5253  29.104  19.174  13.000
43943W        W 5254  23.027  34.513  14.449
43944W        W 5255  34.455  29.122  14.286
43945W        W 5256   9.389   5.422   3.856
43946W        W 5257   4.924   8.802  10.608
43947W        W 5258  39.035  37.836   1.299
43948W        W 5259   9.863  17.719  10.462
43949W        W 5260  14.303   5.839  14.951
43950W        W 5261  31.563  37.520   0.728
43951W        W 5262  26.592  23.202  14.345
43952W        W 5263  35.527  44.336   0.303
43953W        W 5264   0.794  23.993  14.001
43954W        W 5265  11.214  38.386  13.406
43955W        W 5266  16.243   6.838   2.295
43956W        W 5267  29.432  11.661   2.669
43957W        W 5268  42.845  14.667   0.350
43958W        W 5269  20.258  17.220   1.868
43959W        W 5270  36.886  20.697   3.370
43960W        W 5271  33.538   6.337   0.272
43961W        W 5272  42.028   7.869   1.851
43962W        W 5273   8.308  36.991  14.325
43963W        W 5274  13.792   9.383   2.328
43964W        W 5275  36.401  44.760  14.428
43965W        W 5276   4.870   0.892   4.294
43966W        W 5277  43.301  21.655  13.523
43967W        W 5278  24.636  38.384   1.268
43968W        W 5279   2.867  17.754  13.845
43969W        W 5280  18.611  44.288   1.239
43970W        W 5281  21.633  31.479   2.726
43971W        W 5282  31.995  14.105  11.988
43972W        W 5283  41.030  44.448  11.067
43973W        W 5284  21.550  40.906   9.492
43974W        W 5285  39.380   4.740   4.223
43975W        W 5286   2.864   6.267  10.468
43976W        W 5287   7.273   3.737   2.722
43977W        W 5288  12.618  35.046  11.088
43978W        W 5289   8.224  21.101   5.091
43979W        W 5290  25.026  31.983  12.514
43980W        W 5291  36.868   0.825  13.940
43981W        W 5292  28.613  26.126   1.292
43982W        W 5293   7.845  37.007   1.427
43983W        W 5294   6.782  33.412  11.037
43984W        W 5295  35.992  19.701  10.892
43985W        W 5296   2.232  30.504   4.316
43986W        W 5297  27.064  13.164  12.520
43987W        W 5298  44.913  15.227   0.726
43988W        W 5299  38.432  19.089   0.401
43989W        W 5300  43.974  41.366  11.067
43990W        W 5301  16.687   6.854   2.371
43991W        W 5302  15.130  38.983  11.386
43992W        W 5303   2.270  42.959  13.868
43993W        W 5304  39.032  41.415  14.376
43994W        W 5305  11.194   2.362  13.486
43995W        W 5306  35.574  28.672   2.794
43996W        W 5307   7.254  39.934   3.672
43997W        W 5308  22.179  35.854  14.774
43998W        W 5309   1.320  38.433  13.312
43999W        W 5310  34.557   2.375  12.406
44000W        W 5311  12.637  15.755  11.057
44001W        W 5312  20.174   8.675  14.887
44002W        W 5313  34.878   3.809   1.302
44003W        W 5314  25.684  24.506  12.978
44004W        W 5315  40.386  13.777  14.822
44005W        W 5316  28.159  23.501   4.669
44006W        W 5317  43.953  32.589   3.670
44007W        W 5318  40.055  29.973   1.300
44008W        W 5319   1.908   7.261   4.704
44009W        W 5320   4.832  10.845   2.414
44010W        W 5321  31.560  25.706  11.859
44011W        W 5322  13.762  18.262   3.318
44012W        W 5323  33.882   5.767  12.537
44013W        W 5324  42.361  21.040   1.321
44014W        W 5325  17.710  37.409   0.273
44015W        W 5326   6.395  14.204   2.714
44016W        W 5327  30.622  15.286   4.147
44017W        W 5328   1.293  21.753   3.165
44018W        W 5329  15.323  21.152   1.799
44019W        W 5330  12.721  37.490   0.941
44020W        W 5331  23.139   5.222  14.302
44021W        W 5332   3.826   6.725  13.902
44022W        W 5333  29.534  15.321  11.012
44023W        W 5334   8.768  23.572  14.395
44024W        W 5335   3.854  32.579   1.224
44025W        W 5336  17.797  17.166   0.389
44026W        W 5337  29.929  37.049   4.831
44027W        W 5338  38.560  39.861  12.532
44028W        W 5339  29.085  22.128  13.411
44029W        W 5340   6.755   9.337   1.735
44030W        W 5341  40.892  36.971  11.080
44031W        W 5342  23.121  29.088   5.771
44032W        W 5343  38.069  11.290  12.013
44033W        W 5344  39.363  40.875  11.547
44034W        W 5345  32.446  30.921  11.120
44035W        W 5346  34.405   1.887   3.246
44036W        W 5347  26.652  38.000  11.085
44037W        W 5348  43.920  12.649  10.580
44038W        W 5349  17.290  27.610  12.964
44039W        W 5350  10.306  31.575  10.942
44040W        W 5351  28.131  39.425  11.546
44041W        W 5352   7.234   5.867  10.590
44042W        W 5353   2.335  43.011   3.728
44043W        W 5354  20.548  32.560   0.739
44044W        W 5355  12.679  33.940  14.026
44045W        W 5356  39.948  25.531   3.673
44046W        W 5357  17.643  12.618   0.411
44047W        W 5358  10.306  17.766   4.244
44048W        W 5359  44.393  15.780   2.226
44049W        W 5360  38.055  12.331   3.154
44050W        W 5361   3.746  13.695   2.201
44051W        W 5362  28.169  29.000   2.752
44052W        W 5363  38.496  15.236   2.358
44053W        W 5364   4.278  15.231   0.749
44054W        W 5365  27.585   9.241  14.364
44055W        W 5366  20.584  20.600   5.183
44056W        W 5367   9.803  15.667  12.541
44057W        W 5368   0.748  26.617   2.747
44058W        W 5369  11.222   3.870   1.301
44059W        W 5370  39.904  26.120  11.434
44060W        W 5371  10.383   2.860   4.639
44061W        W 5372  43.947  27.012   4.651
44062W        W 5373   5.816  16.752   1.274
44063W        W 5374  18.290  39.503   9.954
44064W        W 5375  33.083  33.952   4.260
44065W        W 5376  34.519  23.021   1.867
44066W        W 5377  31.896  35.025  10.426
44067W        W 5378  37.912  30.643   0.482
44068W        W 5379  29.972  22.653   2.283
44069W        W 5380  41.830  44.770   0.764
44070W        W 5381  25.001  25.603  11.422
44071W        W 5382  17.235  39.517   2.332
44072W        W 5383  32.411   7.339  13.953
44073W        W 5384  43.326   9.771  10.915
44074W        W 5385   1.820  28.679   2.750
44075W        W 5386  14.195  38.850  10.539
44076W        W 5387  32.521  27.635  14.375
44077W        W 5388   5.309  16.301   0.844
44078W        W 5389  21.228  17.092   1.934
44079W        W 5390  10.301   3.455   0.776
44080W        W 5391  36.548  19.666  10.046
44081W        W 5392   9.237   3.743  14.300
44082W        W 5393  18.157  11.358  13.326
44083W        W 5394  42.825  35.944  11.858
44084W        W 5395  21.734  34.409  12.431
44085W        W 5396   7.760   8.767  13.048
44086W        W 5397  14.228   0.331  14.867
44087W        W 5398  17.653  34.032  14.427
44088W        W 5399  26.531  24.086   4.185
44089W        W 5400  26.617   0.985  14.275
44090W        W 5401  37.024  42.827  11.592
44091W        W 5402  10.247  17.162   3.835
44092W        W 5403  43.391   0.311   1.861
44093W        W 5404  40.531  11.363   0.734
44094W        W 5405  28.469  25.524   2.201
44095W        W 5406  44.884  11.781   0.822
44096W        W 5407  18.229  41.297   4.785
44097W        W 5408  37.497  23.087   2.759
44098W        W 5409  10.212  36.570   5.186
44099W        W 5410   8.365  28.615  12.549
44100W        W 5411  25.582   2.802   0.791
44101W        W 5412  42.944  28.528   3.656
44102W        W 5413  33.492   9.156  14.334
44103W        W 5414  43.018  13.158  13.504
44104W        W 5415  20.210  39.438   1.878
44105W        W 5416  11.866   7.274   1.826
44106W        W 5417  29.506  11.713  13.362
44107W        W 5418  36.383  41.514  14.971
44108W        W 5419  20.115  31.930  12.954
44109W        W 5420  42.434   3.845   2.198
44110W        W 5421   3.404  16.109  13.996
44111W        W 5422  41.861   2.773   2.243
44112W        W 5423  25.168  38.852  11.877
44113W        W 5424  21.545   5.786   4.255
44114W        W 5425  12.170  21.706  12.894
44115W        W 5426  13.164  11.667   3.782
44116W        W 5427   7.366   5.752   4.153
44117W        W 5428  41.402  20.247   2.892
44118W        W 5429  17.678   9.691  10.897
44119W        W 5430  17.655  31.593  12.383
44120W        W 5431  17.081   9.718  10.601
44121W        W 5432  37.365  32.036  14.369
44122W        W 5433  24.180  33.926   0.423
44123W        W 5434  21.530  31.970   2.255
44124W        W 5435  10.148   0.261  12.341
44125W        W 5436   0.967   6.718   3.337
44126W        W 5437   2.375  34.432   0.248
44127W        W 5438  25.487  14.287   5.310
44128W        W 5439  32.066   6.687   4.763
44129W        W 5440  12.361  36.507   2.662
44130W        W 5441  27.569  14.775   3.319
44131W        W 5442  41.961  34.093  13.057
44132W        W 5443  21.687  39.032   2.302
44133W        W 5444  15.597  31.577  11.938
44134W        W 5445  25.547  28.176  10.515
44135W        W 5446  44.308   0.943   4.598
44136W        W 5447  21.578  25.583   0.815
44137W        W 5448  10.142  35.534  14.348
44138W        W 5449  40.036  14.691   4.647
44139W        W 5450  16.739   8.233  13.492
44140W        W 5451  22.187   3.459  12.459
44141W        W 5452  23.629  39.943   2.202
44142W        W 5453  19.124  19.067   0.246
44143W        W 5454  15.089  29.168   3.275
44144W        W 5455  18.781  22.157  11.100
44145W        W 5456  43.961   0.799  12.994
44146W        W 5457  40.884  29.592   1.908
44147W        W 5458   2.775  31.124   2.695
44148W        W 5459  30.633  39.314   4.290
44149W        W 5460  24.147  32.060   5.791
44150W        W 5461  34.888   9.721   3.799
44151W        W 5462  18.099   3.286  12.033
44152W        W 5463  44.799   3.273   3.771
44153W        W 5464  26.492   6.830  12.500
44154W        W 5465  25.137  19.741   0.919
44155W        W 5466  22.550  40.910  11.923
44156W        W 5467  11.152  14.112  10.626
44157W        W 5468  18.633   2.926  11.425
44158W        W 5469   6.363  20.040   4.811
44159W        W 5470  27.677  14.800  10.486
44160W        W 5471  20.697  29.998  14.426
44161W        W 5472  16.580  26.538  11.470
44162W        W 5473  20.249  38.535   3.774
44163W        W 5474  22.717  44.878  12.476
44164W        W 5475  31.513   3.251   1.867
44165W        W 5476   4.724  27.021   3.327
44166W        W 5477   8.867  26.635   5.268
44167W        W 5478  24.176  32.018  12.964
44168W        W 5479  19.537  44.785   3.835
44169W        W 5480   9.198  19.636  13.332
44170W        W 5481  40.836  35.408   0.345
44171W        W 5482  39.507  37.003   4.600
44172W        W 5483  34.944   8.740   0.298
44173W        W 5484  20.073   9.697  14.509
44174W        W 5485  11.795   0.429   1.328
44175W        W 5486   0.911  36.019  10.110
44176W        W 5487  15.624  21.704   5.248
44177W        W 5488  25.550  14.192   1.350
44178W        W 5489  18.632  41.800  14.929
44179W        W 5490  33.598   7.288  12.544
44180W        W 5491  41.330   1.796   2.840
44181W        W 5492  23.076  33.883   1.713
44182W        W 5493   5.835  28.095  12.511
44183W        W 5494  34.577   2.845  11.088
44184W        W 5495   6.347  13.751   2.793
44185W        W 5496  21.603  24.179  14.301
44186W        W 5497   9.757  22.551   0.925
44187W        W 5498   1.747   2.432   2.856
44188W        W 5499   0.350  29.023   0.259
44189W        W 5500   5.736  11.826  10.468
44190W        W 5501  17.613  24.600  10.922
44191W        W 5502  15.618   3.324  13.382
44192W        W 5503  11.357  23.134   4.154
44193W        W 5504  41.301   5.323   1.737
44194W        W 5505  10.687  27.633  12.367
44195W        W 5506  22.207  18.291  12.394
44196W        W 5507  21.650  27.594  11.526
44197W        W 5508  37.931  30.458  13.932
44198W        W 5509  12.697  37.470  11.379
44199W        W 5510  19.176  39.461  13.967
44200W        W 5511  10.855  24.076  14.936
44201W        W 5512   0.311   3.278   0.353
44202W        W 5513  43.784  42.406   4.718
44203W        W 5514  18.720  44.988  11.076
44204W        W 5515  23.013  42.835   2.378
44205W        W 5516  19.708  22.661   3.687
44206W        W 5517  26.188  14.692  13.855
44207W        W 5518  37.085   7.412   2.225
44208W        W 5519  34.989  19.576   2.896
44209W        W 5520  34.902   3.844  11.876
44210W        W 5521  31.576  22.566  12.435
44211W        W 5522  27.960   9.306   2.387
44212W        W 5523  11.849  29.925   0.892
44213W        W 5524  39.498  32.622   0.256
44214W        W 5525   3.375  14.808   2.715
44215W        W 5526   8.318  26.511   9.992
44216W        W 5527  25.561   0.922  13.363
44217W        W 5528  23.203  43.464  11.012
44218W        W 5529  18.653  19.594   3.681
44219W        W 5530  11.623  34.070  14.305
44220W        W 5531  38.074   7.684   2.349
44221W        W 5532  20.154   5.842  12.085
44222W        W 5533  35.950  44.267  14.311
44223W        W 5534  23.620  30.642   1.283
44224W        W 5535  27.185  33.967  12.493
44225W        W 5536   3.855   6.779  14.383
44226W        W 5537  18.783  12.680   4.804
44227W        W 5538  33.437  26.976   3.338
44228W        W 5539   6.729  31.648   2.802
44229W        W 5540  43.944  23.995   0.318
44230W        W 5541  29.646  14.609   0.773
44231W        W 5542  32.138   9.684   1.254
44232W        W 5543  18.594  34.442   4.770
44233W        W 5544  19.536  37.030   2.679
44234W        W 5545  24.155   7.773  13.414
44235W        W 5546  29.498  27.099  11.114
44236W        W 5547  21.247  24.598   0.448
44237W        W 5548  12.224  13.845   4.339
44238W        W 5549   6.883   2.902   4.349
44239W        W 5550   0.279  41.429  11.575
44240W        W 5551  28.111   2.258  12.050
44241W        W 5552   2.284  17.256  11.895
44242W        W 5553  15.599  33.562   0.924
44243W        W 5554  22.580  35.477   2.276
44244W        W 5555  32.487  25.000   0.410
44245W        W 5556  16.780  35.521   2.796
44246W        W 5557  41.980  19.175  10.917
44247W        W 5558   0.394  33.426  12.536
44248W        W 5559   1.465   9.644  14.397
44249W        W 5560  22.130   8.305  12.529
44250W        W 5561   3.722   5.335   3.648
44251W        W 5562  28.953  35.524  11.442
44252W        W 5563   1.270  17.231  12.376
44253W        W 5564  34.488  10.673   3.854
44254W        W 5565   5.431   9.234   0.342
44255W        W 5566  15.168   8.404  14.323
44256W        W 5567  15.110   6.749  12.521
44257W        W 5568  31.601  25.124   0.448
44258W        W 5569  12.690  26.051  13.064
44259W        W 5570  28.587  27.520   0.906
44260W        W 5571  21.243  20.139  11.865
44261W        W 5572  43.316  40.939  13.385
44262W        W 5573  34.427  10.819  12.032
44263W        W 5574  40.988  25.173  12.400
44264W        W 5575  22.626  28.973  13.820
44265W        W 5576  32.013   6.321  12.829
44266W        W 5577  22.593  38.546   0.261
44267W        W 5578  21.601  32.521  10.041
44268W        W 5579   9.726   3.344  12.922
44269W        W 5580   5.759   3.950   2.814
44270W        W 5581  17.717   1.755  14.778
44271W        W 5582  40.330  15.252   2.728
44272W        W 5583  35.904  34.030  12.913
44273W        W 5584  21.739  35.100  10.532
44274W        W 5585  31.442  24.036   2.823
44275W        W 5586  12.206  23.171   4.832
44276W        W 5587  35.597  40.381   1.826
44277W        W 5588  15.822  33.983  14.466
44278W        W 5589   4.426  14.130   0.276
44279W        W 5590   2.765  40.420   1.890
44280W        W 5591  37.462  39.333   1.864
44281W        W 5592  27.572   2.400   4.332
44282W        W 5593  44.467  39.869  10.132
44283W        W 5594  25.009  16.671   3.273
44284W        W 5595  24.703   1.875   2.704
44285W        W 5596  17.098  19.745  12.453
44286W        W 5597  36.011  16.706  14.400
44287W        W 5598  35.443  34.042  10.888
44288W        W 5599  20.085  39.967   4.335
44289W        W 5600  19.049  43.917  10.428
44290W        W 5601  16.785   3.916  11.097
44291W        W 5602  34.932  11.257  13.507
44292W        W 5603  13.301  35.943   0.749
44293W        W 5604  26.546   3.935   0.390
44294W        W 5605  25.996  23.131  14.806
44295W        W 5606  31.612   5.812   4.210
44296W        W 5607  20.639  10.872   0.273
44297W        W 5608   0.436  23.516   4.282
44298W        W 5609  20.066   6.238   2.666
44299W        W 5610  31.443  26.519  12.564
44300W        W 5611  39.868  15.262  14.982
44301W        W 5612  17.111  14.097   0.430
44302W        W 5613  31.957  13.647   1.432
44303W        W 5614  38.007   0.747  10.905
44304W        W 5615  40.995  38.399  10.155
44305W        W 5616   5.413  30.480  14.879
44306W        W 5617  21.076  28.064   3.305
44307W        W 5618  27.085  44.786   0.323
44308W        W 5619   9.251  22.532  13.049
44309W        W 5620   2.348  20.166   0.933
44310W        W 5621  44.435  41.423   0.881
44311W        W 5622  14.298   8.791  14.854
44312W        W 5623  43.493  11.846  11.032
44313W        W 5624   8.872  34.549  11.386
44314W        W 5625  11.687  43.381   4.253
44315W        W 5626   9.380  18.118  13.342
44316W        W 5627  31.062  41.437  14.492
44317W        W 5628   1.837  32.547   0.344
44318W        W 5629  29.439  39.842  11.526
44319W        W 5630  24.588   1.839  13.902
44320W        W 5631   9.240  20.056   4.649
44321W        W 5632  12.676   5.244  10.454
44322W        W 5633  15.101  32.436  11.054
44323W        W 5634   1.765  33.566  10.437
44324W        W 5635  11.731  29.602  11.091
44325W        W 5636  44.278  16.150   1.364
44326W        W 5637  31.997   1.846   1.234
44327W        W 5638  26.702  34.883   4.313
44328W        W 5639  19.175  30.927  13.012
44329W        W 5640  38.540  40.482  13.514
44330W        W 5641  33.419  28.166   2.400
44331W        W 5642  29.933  28.085  12.348
44332W        W 5643  29.020  41.374   3.809
44333W        W 5644  25.545  22.179  11.422
44334W        W 5645  31.073  42.865  13.422
44335W        W 5646  10.196  12.275  14.919
44336W        W 5647   0.798  20.710  13.811
44337W        W 5648   9.829   6.732  14.426
44338W        W 5649  37.500  29.609  11.105
44339W        W 5650  38.490  25.560  14.512
44340W        W 5651   9.868  24.497  14.769
44341W        W 5652  13.341  30.425  12.057
44342W        W 5653  15.650  23.210  11.493
44343W        W 5654   5.427  16.589  12.433
44344W        W 5655  34.912  26.547   5.165
44345W        W 5656  41.491  31.056   2.260
44346W        W 5657  29.528   3.793  13.321
44347W        W 5658  37.881   0.838  12.482
44348W        W 5659  40.499  12.169   0.449
44349W        W 5660  43.840   5.790   2.390
44350W        W 5661  26.673  27.586   1.248
44351W        W 5662  38.548  37.409   3.849
44352W        W 5663  18.094  22.053  13.325
44353W        W 5664  36.050  14.157  14.409
44354W        W 5665  29.925  38.346   4.351
44355W        W 5666  32.586  19.624   2.716
44356W        W 5667  33.974   5.434  12.873
44357W        W 5668  43.272  31.104   0.898
44358W        W 5669  11.630  15.811   1.347
44359W        W 5670   7.735  25.196  14.320
44360W        W 5671  15.324  41.933  13.505
44361W        W 5672  19.640  21.150   3.778
44362W        W 5673  33.893   5.199   1.213
44363W        W 5674   7.767  30.465   2.298
44364W        W 5675  35.572  13.270  11.464
44365W        W 5676  17.723   0.976  13.884
44366W        W 5677  42.501  17.724   3.333
44367W        W 5678  44.904  15.657  10.609
44368W        W 5679  22.063  32.439   0.930
44369W        W 5680  33.530  40.452   3.178
44370W        W 5681  39.038  32.973  11.487
44371W        W 5682  24.197   5.368   3.349
44372W        W 5683  39.545  14.688  12.910
44373W        W 5684   5.194  20.069   0.427
44374W        W 5685   9.187  16.240   9.590
44375W        W 5686  41.864   9.681   4.692
44376W        W 5687  11.821  10.751   2.191
44377W        W 5688  24.053   0.837  14.890
44378W        W 5689  42.439   4.228  12.482
44379W        W 5690  15.759   1.417  14.774
44380W        W 5691  22.517   9.251   4.119
44381W        W 5692  28.965  37.432  12.928
44382W        W 5693  35.513   1.837   3.795
44383W        W 5694  40.892  24.025  13.028
44384W        W 5695  18.773  16.580   3.237
44385W        W 5696  15.112  34.032   3.362
44386W        W 5697   3.359  36.433   2.414
44387W        W 5698  13.190  39.007   2.868
44388W        W 5699  38.059   0.923   4.619
44389W        W 5700   7.685  14.324   3.865
44390W        W 5701  27.167  40.400  14.837
44391W        W 5702  36.052  17.587   0.818
44392W        W 5703  38.434  19.593   0.339
44393W        W 5704  23.559  12.799  14.837
44394W        W 5705  33.965  32.628   4.692
44395W        W 5706   1.404  16.136   0.252
44396W        W 5707  11.213  25.627  11.494
44397W        W 5708  12.694  15.778  13.961
44398W        W 5709   8.772  16.635  13.943
44399W        W 5710  14.104  21.696   1.353
44400W        W 5711   0.366   9.214  13.058
44401W        W 5712   3.762  36.446   0.774
44402W        W 5713  38.419  36.369  13.953
44403W        W 5714  28.997   7.886   9.597
44404W        W 5715  23.523  11.317   1.416
44405W        W 5716  10.792  38.440   1.259
44406W        W 5717  21.159  35.079  12.468
44407W        W 5718  38.936  19.719   1.748
44408W        W 5719   1.369  40.539  12.024
44409W        W 5720  22.628  31.481  14.908
44410W        W 5721   7.682  15.112   0.792
44411W        W 5722  35.380  39.891   2.178
44412W        W 5723  23.731  14.285   2.903
44413W        W 5724  25.006  38.024  12.459
44414W        W 5725  42.021  16.123  10.473
44415W        W 5726  11.801  39.997  11.437
44416W        W 5727  25.659  15.239   2.739
44417W        W 5728   0.777  30.943   0.347
44418W        W 5729  44.384  43.327  10.035
44419W        W 5730  41.973   4.294  12.420
44420W        W 5731  28.941  19.748  14.921
44421W        W 5732  24.978  27.570  13.351
44422W        W 5733  12.124  43.800  14.895
44423W        W 5734  16.124  35.477   3.755
44424W        W 5735  37.513   1.316  14.413
44425W        W 5736  40.312  31.008  11.928
44426W        W 5737  17.126  36.555  11.955
44427W        W 5738   2.847  24.643  12.095
44428W        W 5739  33.413  36.090  13.059
44429W        W 5740  40.883  19.567   2.268
44430W        W 5741  15.095  33.578   2.788
44431W        W 5742  14.212  32.120   1.320
44432W        W 5743  23.499  36.575  14.380
44433W        W 5744  21.140   4.746  10.100
44434W        W 5745  28.134  36.863  10.504
44435W        W 5746  42.021  32.043  11.406
44436W        W 5747  19.195  34.049   2.194
44437W        W 5748  19.549  22.645  10.537
44438W        W 5749  28.931   6.199   2.800
44439W        W 5750   6.738  29.939   1.820
44440W        W 5751   5.923  21.033  11.595
44441W        W 5752   0.484  21.120   3.251
44442W        W 5753  18.284  31.475  11.901
44443W        W 5754  22.728  21.244  14.811
44444W        W 5755  30.158   5.245   0.910
44445W        W 5756  15.250   3.248  13.376
44446W        W 5757  10.293  41.009  12.065
44447W        W 5758  38.012   8.363   0.365
44448W        W 5759  15.242  21.707  10.151
44449W        W 5760  27.962  40.524  14.798
44450W        W 5761  38.865  10.879  12.472
44451W        W 5762  16.693  44.812   1.264
44452W        W 5763  25.525   1.279   1.918
44453W        W 5764  26.985   7.385   4.812
44454W        W 5765  26.989  35.426   1.877
44455W        W 5766  12.259  11.180   1.259
44456W        W 5767  32.507  26.574  13.013
44457W        W 5768  14.215  33.598   0.928
44458W        W 5769  27.515  31.956   2.208
44459W        W 5770  21.247   0.341  13.313
44460W        W 5771  17.700   2.354  14.995
44461W        W 5772  41.300   4.894   2.179
44462W        W 5773  28.520  32.025  10.453
44463W        W 5774  16.797  14.162   3.249
44464W        W 5775  14.231   3.429  13.528
44465W        W 5776  30.956  29.460  10.601
44466W        W 5777  22.709  23.158  10.463
44467W        W 5778  23.619  28.048  13.358
44468W        W 5779  11.316  29.526   4.792
44469W        W 5780  22.214  29.624   4.202
44470W        W 5781  38.355  42.463  11.126
44471W        W 5782  39.529   0.831  14.948
44472W        W 5783  38.379  10.303   2.861
44473W        W 5784  38.524  35.431   3.679
44474W        W 5785  44.006   5.256   2.360
44475W        W 5786  44.949   9.149  11.006
44476W        W 5787  43.325  28.147  10.628
44477W        W 5788  16.590  27.475   1.883
44478W        W 5789  43.309  36.924  11.508
44479W        W 5790  31.476  40.999  14.451
44480W        W 5791  40.404  44.994   1.287
44481W        W 5792   5.212  29.479   4.746
44482W        W 5793  26.981  23.074  14.499
44483W        W 5794  15.815  23.617  11.460
44484W        W 5795  27.582   3.757  11.386
44485W        W 5796  10.370   1.467   5.180
44486W        W 5797  41.020   5.372   0.424
44487W        W 5798  38.940  40.865  10.534
44488W        W 5799   5.293  32.598   2.287
44489W        W 5800   2.819  33.006  10.991
44490W        W 5801  26.699   6.797  10.472
44491W        W 5802  37.575   3.786  14.030
44492W        W 5803  35.521  26.066  11.488
44493W        W 5804   2.396  22.134  11.101
44494W        W 5805  33.610  44.839  11.597
44495W        W 5806   9.229  32.927  13.976
44496W        W 5807  22.584  32.988  11.585
44497W        W 5808   5.358  18.237   0.833
44498W        W 5809  20.632  30.525   4.346
44499W        W 5810  38.518  11.791  10.895
44500W        W 5811  40.456   9.759   0.340
44501W        W 5812   8.764  37.395   9.967
44502W        W 5813   4.777  33.010   2.178
44503W        W 5814  12.657  38.356   1.713
44504W        W 5815  26.952   8.756   5.087
44505W        W 5816  30.553  14.294   0.785
44506W        W 5817  10.754  15.318  10.565
44507W        W 5818  39.356  13.822  11.502
44508W        W 5819  44.932  33.390   2.685
44509W        W 5820  44.006  20.107  14.804
44510W        W 5821  13.653  43.808   2.204
44511W        W 5822  36.942  32.517  10.598
44512W        W 5823  14.154  43.465   2.867
44513W        W 5824  34.924  31.967  11.961
44514W        W 5825  17.099  23.726  14.982
44515W        W 5826  43.339  33.939   3.352
44516W        W 5827  12.279  44.927   0.323
44517W        W 5828   7.402  19.548   2.849
44518W        W 5829   3.439  11.806  11.042
44519W        W 5830  33.069   9.765  12.846
44520W        W 5831  24.173  20.129   5.697
44521W        W 5832  36.583  20.538  10.458
44522W        W 5833  30.425   7.393  11.549
44523W        W 5834  39.955  25.514   0.928
44524W        W 5835  11.774  23.993   1.266
44525W        W 5836  13.105   4.836   4.174
44526W        W 5837  29.945  15.635   3.633
44527W        W 5838  20.720  42.920  12.081
44528W        W 5839  21.756   7.816   0.246
44529W        W 5840  12.857   0.424  10.602
44530W        W 5841  35.440  22.087   4.649
44531W        W 5842  11.372   8.724  13.994
44532W        W 5843  28.479   0.364  11.547
44533W        W 5844  26.666  27.536   0.380
44534W        W 5845  20.765  14.189   3.160
44535W        W 5846  33.130  29.923   3.181
44536W        W 5847  10.143  13.835   1.215
44537W        W 5848  39.339  14.181   3.699
44538W        W 5849  34.531  26.126   3.799
44539W        W 5850  38.060  24.580   2.812
44540W        W 5851  14.699   1.803  11.940
44541W        W 5852  35.990   2.859  14.357
44542W        W 5853  38.556   1.341   2.666
44543W        W 5854  32.990  31.603   1.899
44544W        W 5855   2.375  27.637   0.375
44545W        W 5856  31.528  33.420   4.824
44546W        W 5857  41.872  18.777   0.939
44547W        W 5858  32.058  30.601   0.812
44548W        W 5859  18.722  31.456  10.627
44549W        W 5860  35.527  34.405   1.886
44550W        W 5861  37.064  44.376  10.632
44551W        W 5862  12.782  13.200   4.750
44552W        W 5863  16.161  22.105  12.443
44553W        W 5864  31.950  10.369   4.138
44554W        W 5865   0.390  39.408   1.391
44555W        W 5866  37.348  40.485   4.702
44556W        W 5867  13.726   7.680  11.535
44557W        W 5868  17.103  12.240  12.448
44558W        W 5869   1.795   7.811   3.764
44559W        W 5870  34.933  41.536  11.511
44560W        W 5871  29.159  10.269  13.938
44561W        W 5872  17.720  28.511   0.908
44562W        W 5873  36.591  10.233   2.331
44563W        W 5874  22.224  22.032  12.541
44564W        W 5875  36.964  21.596   0.339
44565W        W 5876  24.570   9.234  13.378
44566W        W 5877   2.315  26.520   2.717
44567W        W 5878  18.113  23.593   1.862
44568W        W 5879  25.634  36.510  14.355
44569W        W 5880  17.610  27.955  10.447
44570W        W 5881  10.150   8.218  12.482
44571W        W 5882   5.716  26.024  11.552
44572W        W 5883  39.512  14.150   3.368
44573W        W 5884   5.352  28.082  11.405
44574W        W 5885   1.881  18.659  12.478
44575W        W 5886  33.045  20.528   0.872
44576W        W 5887   1.293   9.307  13.945
44577W        W 5888  20.649  18.638  14.386
44578W        W 5889  15.773  42.867  13.890
44579W        W 5890   6.389  22.185   4.756
44580W        W 5891   1.877  29.037   0.410
44581W        W 5892   3.287   0.377   2.417
44582W        W 5893  14.124  28.438  10.962
44583W        W 5894   8.324  31.128   4.789
44584W        W 5895  44.495  14.763   5.158
44585W        W 5896  40.944   2.244  12.992
44586W        W 5897  23.511  18.178  14.927
44587W        W 5898   1.798  23.995  13.802
44588W        W 5899  15.771  17.232  14.967
44589W        W 5900   7.762  37.035  10.613
44590W        W 5901  31.096   5.689  11.418
44591W        W 5902   4.752  43.272  11.512
44592W        W 5903  17.672  41.941   2.237
44593W        W 5904  23.162  41.859  12.086
44594W        W 5905   3.418  44.259   2.391
44595W        W 5906  21.109  42.379  11.575
44596W        W 5907   8.390  21.569  12.038
44597W        W 5908  21.525  17.766   0.819
44598W        W 5909  33.010  10.252   1.787
44599W        W 5910  22.186  20.658  14.980
44600W        W 5911   0.317  39.474  12.846
44601W        W 5912   6.824  16.599   2.215
44602W        W 5913   8.761  23.011   2.676
44603W        W 5914  26.071  42.980   3.303
44604W        W 5915   8.656  41.874  12.953
44605W        W 5916  10.869  44.769   1.707
44606W        W 5917   8.225   4.432  11.374
44607W        W 5918  30.155   0.790  13.392
44608W        W 5919  43.846  20.065  11.551
44609W        W 5920  23.495  29.483   4.270
44610W        W 5921  20.591  13.155  13.935
44611W        W 5922  22.569   3.737   4.351
44612W        W 5923  38.466   9.294   2.705
44613W        W 5924  15.751  44.753  10.623
44614W        W 5925  27.484  25.103   1.774
44615W        W 5926  16.094   5.437   2.787
44616W        W 5927   3.858  38.382  13.819
44617W        W 5928  28.557   9.256   4.806
44618W        W 5929  24.529   0.356  13.466
44619W        W 5930   3.368   5.224   1.450
44620W        W 5931   5.202  27.182  11.377
44621W        W 5932  22.737  39.540   2.691
44622W        W 5933  34.894  35.461  13.064
44623W        W 5934   6.883  12.646   1.915
44624W        W 5935   8.755   4.204  10.575
44625W        W 5936  17.699  22.625   3.856
44626W        W 5937   1.317   5.307   0.297
44627W        W 5938   5.797   1.368   1.823
44628W        W 5939   3.306  35.983  10.919
44629W        W 5940  11.146  23.007  10.075
44630W        W 5941  35.404   1.237   0.431
44631W        W 5942  43.930  12.749   3.761
44632W        W 5943  43.935  27.155  10.592
44633W        W 5944  29.040   9.308   4.220
44634W        W 5945  19.763  24.723   2.393
44635W        W 5946  43.344  28.579  10.963
44636W        W 5947  29.485  29.615   1.367
44637W        W 5948  31.972  14.140  13.476
44638W        W 5949  35.055  34.072   4.667
44639W        W 5950  44.787   5.873  10.958
44640W        W 5951  30.086  13.672   4.303
44641W        W 5952   7.326   4.237   4.270
44642W        W 5953  13.639  19.206   1.719
44643W        W 5954  19.703   5.861  12.989
44644W        W 5955  23.082   0.480  13.362
44645W        W 5956  24.040  26.630  11.571
44646W        W 5957   1.409  26.078   3.307
44647W        W 5958  24.119   3.274  14.958
44648W        W 5959  31.561  35.964  10.970
44649W        W 5960  16.746   9.762  11.098
44650W        W 5961   1.273   3.830  14.511
44651W        W 5962  27.025  28.452   1.911
44652W        W 5963  20.083   9.664   4.227
44653W        W 5964  28.121  13.125   3.240
44654W        W 5965  28.155  40.397  10.459
44655W        W 5966  35.459  44.764   1.257
44656W        W 5967  13.279   4.732   0.742
44657W        W 5968  14.627  41.420  12.024
44658W        W 5969  37.967  25.572  10.982
44659W        W 5970   1.470  23.055  13.384
44660W        W 5971  15.687  11.703  12.350
44661W        W 5972  15.723   5.716   3.728
44662W        W 5973  22.743  40.846   3.349
44663W        W 5974  42.490  26.986   2.232
44664W        W 5975  25.011  22.097  11.091
44665W        W 5976  38.543  20.766   0.915
44666W        W 5977  17.209  24.126   0.726
44667W        W 5978  18.167  23.120  14.954
44668W        W 5979  16.652  19.240  14.884
44669W        W 5980  35.522  22.680  11.405
44670W        W 5981  11.867  41.838   0.433
44671W        W 5982  20.259  40.853  14.960
44672W        W 5983  11.652  41.498  13.513
44673W        W 5984  37.500   9.666  12.002
44674W        W 5985   4.737   1.438  11.535
44675W        W 5986  14.185  30.641   1.418
44676W        W 5987   3.787  25.056   5.171
44677W        W 5988  18.745  14.221   3.639
44678W        W 5989   6.858  15.243   0.765
44679W        W 5990   5.234  43.970  11.501
44680W        W 5991  42.443  20.042  10.462
44681W        W 5992  38.424  23.722  12.522
44682W        W 5993   5.408  15.785   1.760
44683W        W 5994   0.287  12.616  14.986
44684W        W 5995   8.685  28.655  12.543
44685W        W 5996  13.333  44.373  10.416
44686W        W 5997  18.711  38.449   0.781
44687W        W 5998  25.518  19.649   1.330
44688W        W 5999  15.299   3.329   5.219
44689W        W 6000  18.592  40.868  14.991
44690W        W 6001   9.279   8.867  10.528
44691W        W 6002  12.129   2.405   3.358
44692W        W 6003  35.029  41.524   3.853
44693W        W 6004  27.468  18.154   4.607
44694W        W 6005  18.650   0.989   4.232
44695W        W 6006   6.339  25.156   4.783
44696W        W 6007  11.160  17.646  14.287
44697W        W 6008  30.083  19.739   4.344
44698W        W 6009   5.332  44.788   1.279
44699W        W 6010  24.172  34.005   1.909
44700W        W 6011  17.681  24.604   3.653
44701W        W 6012  36.357  10.260   0.284
44702W        W 6013  15.250   1.737   2.253
44703W        W 6014   8.241  15.705  12.556
44704W        W 6015   4.870  11.687  11.990
44705W        W 6016  35.530  30.944  11.986
44706W        W 6017  38.552  29.537   0.310
44707W        W 6018  24.534  44.267   0.798
44708W        W 6019  29.608   4.887   4.152
44709W        W 6020  16.712  21.090  14.398
44710W        W 6021  10.772  17.796  11.481
44711W        W 6022  26.664   5.823   1.727
44712W        W 6023   3.403  22.251   4.789
44713W        W 6024  11.661  11.693  12.406
44714W        W 6025  42.817  33.934   1.773
44715W        W 6026  20.036  14.778  14.465
44716W        W 6027  14.245  23.544  12.507
44717W        W 6028  43.948  43.964  11.075
44718W        W 6029  19.072  13.200   4.248
44719W        W 6030  18.210  15.189  13.394
44720W        W 6031  23.522  35.929  13.897
44721W        W 6032  25.185  39.485  13.377
44722W        W 6033  10.177  14.130  14.951
44723W        W 6034  31.643   8.209  12.876
44724W        W 6035  35.540   5.831  12.565
44725W        W 6036  16.295   9.883   0.470
44726W        W 6037   7.330  11.298  14.999
44727W        W 6038   7.866  12.254   2.337
44728W        W 6039  41.941  31.075   3.203
44729W        W 6040   4.818   2.305  13.874
44730W        W 6041  18.701  33.882  12.955
44731W        W 6042  30.613  14.608   3.850
44732W        W 6043  30.104  29.630  13.054
44733W        W 6044  10.709  23.105  10.982
44734W        W 6045  34.397  16.779  11.594
44735W        W 6046   2.751   2.957   4.735
44736W        W 6047  44.902  44.360   3.760
44737W        W 6048  17.267   4.723   1.849
44738W        W 6049  21.564  37.518   3.701
44739W        W 6050   8.780  40.955   4.821
44740W        W 6051  18.265  22.067   3.342
44741W        W 6052  19.755  12.841  13.476
44742W        W 6053  18.060   4.812   1.262
44743W        W 6054  35.466  27.114   2.776
44744W        W 6055  14.743  23.117  11.947
44745W        W 6056  17.594   9.359  10.997
44746W        W 6057  41.327  38.371   0.918
44747W        W 6058  11.653  25.997  14.931
44748W        W 6059  26.481  32.082  11.408
44749W        W 6060  28.516  29.487  11.955
44750W        W 6061   6.688  24.226   4.635
44751W        W 6062  39.332   7.251  11.444
44752W        W 6063  43.482  20.661  13.343
44753W        W 6064  24.512   4.367  13.872
44754W        W 6065  29.441  15.638   2.188
44755W        W 6066   9.795  23.611   0.343
44756W        W 6067  11.626  12.801   9.962
44757W        W 6068   5.203   5.434  12.067
44758W        W 6069  42.831  20.101  13.947
44759W        W 6070  27.945  42.504   4.646
44760W        W 6071  22.642  43.920  11.898
44761W        W 6072  23.616  19.647  12.039
44762W        W 6073  31.547  35.079  11.579
44763W        W 6074  24.508  20.752  14.776
44764W        W 6075  43.502  39.889  10.949
44765W        W 6076  23.603  34.376   3.733
44766W        W 6077  31.533  11.359   1.277
44767W        W 6078  14.667  41.004  12.362
44768W        W 6079  18.195  37.916  11.945
44769W        W 6080  24.973  22.055  11.941
44770W        W 6081  25.484  11.301   3.280
44771W        W 6082  26.494  16.644  13.014
44772W        W 6083  43.324  19.711  11.898
44773W        W 6084  43.356   1.251   3.749
44774W        W 6085   6.879   0.384  13.429
44775W        W 6086  35.913  31.474  13.517
44776W        W 6087  27.585  19.147   2.221
44777W        W 6088  28.001  27.536  12.059
44778W        W 6089   7.775   1.253   1.301
44779W        W 6090   6.793  13.604  14.286
44780W        W 6091   4.347   1.386  10.638
44781W        W 6092   1.397  28.185  14.906
44782W        W 6093  25.595  39.047   2.727
44783W        W 6094  30.568  37.495  10.561
44784W        W 6095  31.607  29.516   2.345
44785W        W 6096  21.072  32.970  13.958
44786W        W 6097  43.930  32.946  11.606
44787W        W 6098  13.698  21.555   1.830
44788W        W 6099   3.245  32.548   2.214
44789W        W 6100   7.389  19.124  13.004
44790W        W 6101  44.422  13.733   4.145
44791W        W 6102  15.719   1.256  11.881
44792W        W 6103   2.355  32.114   0.478
44793W        W 6104  34.576   5.920   2.264
44794W        W 6105   4.273  29.466  14.855
44795W        W 6106  44.788  14.630   3.854
44796W        W 6107  40.963  32.523   4.805
44797W        W 6108  26.600   0.858   1.908
44798W        W 6109  36.469   8.655   1.392
44799W        W 6110   5.929   6.838   3.384
44800W        W 6111  11.813  17.281  14.964
44801W        W 6112  29.093  14.240  10.443
44802W        W 6113  32.626  33.466  14.842
44803W        W 6114  13.214  25.691  12.094
44804W        W 6115  41.311  11.256  11.466
44805W        W 6116  26.588  12.254  13.830
44806W        W 6117   0.914  39.351   0.357
44807W        W 6118  36.478   1.751   0.936
44808W        W 6119  35.012   1.293  10.987
44809W        W 6120  14.144  44.364   1.803
44810W        W 6121  26.695  25.976   0.858
44811W        W 6122   8.687  35.056   0.368
44812W        W 6123  28.049   3.877   5.234
44813W        W 6124  24.109  31.018  14.279
44814W        W 6125  28.105   2.884  13.986
44815W        W 6126  37.338  21.593   1.804
44816W        W 6127  22.028   3.234   2.740
44817W        W 6128  13.295  42.944   1.451
44818W        W 6129  27.989  18.711   3.853
44819W        W 6130  21.098  43.398  12.041
44820W        W 6131  37.907  32.460   1.407
44821W        W 6132  44.267  28.182   5.167
44822W        W 6133  15.200   3.935  13.991
44823W        W 6134   4.868   1.845  13.989
44824W        W 6135  12.705  20.540   0.910
44825W        W 6136  12.821  27.957  14.793
44826W        W 6137  36.519  29.091   2.836
44827W        W 6138   9.196  44.771   1.335
44828W        W 6139  12.135   8.254   4.223
44829W        W 6140  30.075  14.208  11.449
44830W        W 6141  29.617  42.358   3.156
44831W        W 6142  31.045  31.924  11.093
44832W        W 6143  19.537  19.136  11.406
44833W        W 6144  10.712  26.141  10.925
44834W        W 6145  27.048  12.642  13.408
44835W        W 6146  37.465  17.703   3.369
44836W        W 6147  39.404  43.819   2.775
44837W        W 6148  15.721  42.830  12.550
44838W        W 6149  23.222  11.317  14.500
44839W        W 6150   0.802  16.622   2.195
44840W        W 6151   4.352  38.839   1.224
44841W        W 6152  41.866  14.308   2.345
44842W        W 6153  38.828   5.242   2.855
44843W        W 6154  37.022   4.208   4.772
44844W        W 6155  38.058  17.698  11.516
44845W        W 6156  36.093  13.227   4.762
44846W        W 6157  10.191   8.697   3.783
44847W        W 6158  43.436  37.495  14.359
44848W        W 6159   1.870  21.165  12.970
44849W        W 6160  26.566   0.983  13.973
44850W        W 6161   3.735   5.728   0.355
44851W        W 6162  37.931  41.033  12.986
44852W        W 6163  35.448   1.925   4.162
44853W        W 6164   1.960   2.932  11.964
44854W        W 6165   6.909  36.935   1.338
44855W        W 6166   9.229  41.922  12.028
44856W        W 6167  14.283  43.781  10.473
44857W        W 6168  10.146  32.426  11.558
44858W        W 6169  41.331  31.550   2.289
44859W        W 6170  29.973   2.961  14.897
44860W        W 6171  12.702  28.976   0.446
44861W        W 6172   4.387   9.211   4.686
44862W        W 6173   8.323  21.034  12.403
44863W        W 6174  23.146   0.289  14.971
44864W        W 6175  10.362   0.951   4.701
44865W        W 6176  34.908   6.425   1.385
44866W        W 6177  24.094  32.912   2.225
44867W        W 6178  23.094   1.264  11.082
44868W        W 6179  24.544  38.406  12.876
44869W        W 6180  21.562   2.326   1.366
44870W        W 6181  38.493  30.468   0.751
44871W        W 6182  37.535  38.953  13.534
44872W        W 6183  15.244  34.588  12.361
44873W        W 6184  37.458  26.978  12.991
44874W        W 6185  24.502  33.600   5.152
44875W        W 6186  30.456   0.751  10.451
44876W        W 6187  34.939  38.068   4.244
44877W        W 6188  26.564  33.619  13.997
44878W        W 6189  26.954  28.988   2.868
44879W        W 6190  26.633  21.189   0.383
44880W        W 6191  39.940  24.044  12.540
44881W        W 6192  21.731  42.406   0.859
44882W        W 6193  40.986  14.107   4.758
44883W        W 6194  40.419  21.663  13.966
44884W        W 6195   0.331  28.564   3.190
44885W        W 6196  12.224  36.585   3.808
44886W        W 6197  11.680  37.420  11.101
44887W        W 6198  36.512  21.239   5.305
44888W        W 6199  19.687   8.390   4.251
44889W        W 6200  29.936   5.791  12.566
44890W        W 6201  41.402  43.881  14.026
44891W        W 6202  35.531  16.162  11.111
44892W        W 6203  43.340  23.509  12.368
44893W        W 6204   2.869   1.293   2.311
44894W        W 6205  36.497  34.528   2.854
44895W        W 6206  25.478   4.217  12.472
44896W        W 6207  12.339  22.651  13.791
44897W        W 6208  38.855   8.716   9.988
44898W        W 6209  42.848  10.144  12.918
44899W        W 6210  34.079   0.822   2.179
44900W        W 6211  25.005  14.711  12.536
44901W        W 6212  15.276   7.868  12.870
44902W        W 6213  20.246  30.420   3.641
44903W        W 6214   7.903  44.817   0.297
44904W        W 6215  30.086  16.114  13.423
44905W        W 6216  41.011  30.957   0.748
44906W        W 6217  25.968  20.199  11.536
44907W        W 6218   6.855   5.377   3.184
44908W        W 6219  19.134  37.390   4.653
44909W        W 6220   2.907   4.724   1.785
44910W        W 6221  27.190  21.197  11.918
44911W        W 6222  43.807  21.120   0.733
44912W        W 6223  39.456  34.577   1.350
44913W        W 6224  28.608  23.062  13.850
44914W        W 6225   0.255  19.190  10.462
44915W        W 6226  37.026  24.227  11.539
44916W        W 6227  36.556  36.529   2.321
44917W        W 6228   3.285   3.828   0.765
44918W        W 6229  37.882  11.647   3.177
44919W        W 6230  28.997  21.146  14.497
44920W        W 6231   3.794  42.017  12.975
44921W        W 6232  11.746  12.282  12.855
44922W        W 6233  37.067  32.906   0.285
44923W        W 6234  20.099  18.105   1.373
44924W        W 6235  33.107  22.094   4.612
44925W        W 6236  40.867  15.655   2.782
44926W        W 6237  18.710  34.880  12.004
44927W        W 6238   7.172  42.003  13.914
44928W        W 6239  15.204  28.452  13.545
44929W        W 6240  26.464  43.829  12.064
44930W        W 6241  16.168  28.604   1.892
44931W        W 6242  44.364   6.863   1.356
44932W        W 6243  43.444  38.553  11.424
44933W        W 6244  13.842  39.033  13.957
44934W        W 6245  44.851  42.975  14.356
44935W        W 6246  21.228  32.401   4.801
44936W        W 6247  42.381  29.070  14.310
44937W        W 6248  37.479  26.539  13.047
44938W        W 6249   2.253  32.080   3.856
44939W        W 6250  15.708   8.799   1.752
44940W        W 6251  27.498  24.556   2.356
44941W        W 6252  33.019  39.359   1.715
44942W        W 6253   4.740  17.571  12.078
44943W        W 6254  34.454   7.736   3.751
44944W        W 6255  21.708  36.580  13.409
44945W        W 6256  17.294  33.597   0.933
44946W        W 6257   1.426   3.385  13.406
44947W        W 6258  29.585  11.647  10.592
44948W        W 6259  33.617  10.839  11.377
44949W        W 6260  28.605  34.911  13.334
44950W        W 6261  40.916   4.876   0.279
44951W        W 6262  16.164  37.891  10.927
44952W        W 6263   6.266  25.703  12.346
44953W        W 6264   9.330  18.730  13.528
44954W        W 6265  28.136  40.406   0.370
44955W        W 6266  32.590  24.200  14.464
44956W        W 6267  26.503   5.428   0.414
44957W        W 6268  20.028  19.654  11.958
44958W        W 6269  30.584  43.502  14.418
44959W        W 6270  29.525  27.584   0.278
44960W        W 6271  13.194   7.388   3.830
44961W        W 6272  10.377  19.219   3.641
44962W        W 6273  22.034   6.425  10.591
44963W        W 6274   7.830   7.718   2.797
44964W        W 6275  34.039  34.064  14.346
44965W        W 6276  15.174   9.782  14.413
44966W        W 6277  28.457  32.501  14.476
44967W        W 6278  14.111  17.161  12.881
44968W        W 6279  30.053   0.474  13.017
44969W        W 6280  25.629  11.727   3.781
44970W        W 6281  36.981  13.710   0.246
44971W        W 6282   4.867  36.045  11.575
44972W        W 6283  44.445  20.228  12.370
44973W        W 6284   3.369  29.168   4.822
44974W        W 6285   6.189   7.339  14.840
44975W        W 6286  19.248  15.689  14.881
44976W        W 6287   1.461  17.242   0.824
44977W        W 6288  10.849  12.786   4.196
44978W        W 6289  42.803  42.290   1.921
44979W        W 6290  37.049  24.228  14.431
44980W        W 6291  17.741   5.736  13.423
44981W        W 6292   7.905  34.442   1.849
44982W        W 6293  11.713   2.885  10.638
44983W        W 6294   4.232  10.766   2.224
44984W        W 6295  24.990  15.595  12.872
44985W        W 6296  44.334  35.603  13.976
44986W        W 6297  21.020   5.807  10.937
44987W        W 6298   5.865  30.564  10.990
44988W        W 6299  11.272  14.812   2.249
44989W        W 6300  35.377   5.382  14.885
44990W        W 6301  31.956   3.769   0.891
44991W        W 6302   1.845   6.723   2.787
44992W        W 6303  17.222  10.306   2.691
44993W        W 6304  36.390  36.577  11.581
44994W        W 6305  42.420  15.823  11.872
44995W        W 6306  21.224   3.308   3.748
44996W        W 6307  18.635  15.737   5.322
44997W        W 6308  27.075  15.598   3.782
44998W        W 6309  17.211  34.040   2.411
44999W        W 6310  39.330  30.525   4.745
45000W        W 6311  36.862   8.331  13.541
45001W        W 6312  39.856  35.587   3.751
45002W        W 6313  15.238  26.129  12.068
45003W        W 6314  33.513  27.564   0.746
45004W        W 6315  18.730   3.794  14.366
45005W        W 6316   1.891  11.185  14.277
45006W        W 6317  44.816   7.394  11.586
45007W        W 6318  29.441  22.690   3.194
45008W        W 6319   0.311  26.024  13.410
45009W        W 6320   7.291  32.488  13.365
45010W        W 6321   6.747   9.756   3.284
45011W        W 6322   7.781  31.412   3.766
45012W        W 6323  37.910  36.047  14.312
45013W        W 6324  10.862  20.706  11.517
45014W        W 6325  43.431  30.916   1.895
45015W        W 6326   4.424  29.116   0.902
45016W        W 6327   5.252  11.849  13.026
45017W        W 6328  41.911  36.487   2.367
45018W        W 6329   0.339  16.587   2.844
45019W        W 6330  31.621   5.867   2.745
45020W        W 6331  18.708  30.148   0.955
45021W        W 6332   9.165  35.577   4.274
45022W        W 6333  14.309  11.142  11.922
45023W        W 6334  13.658  26.629   4.313
45024W        W 6335   7.349  41.811  10.566
45025W        W 6336  26.514  38.564   4.321
45026W        W 6337  10.329  19.569  11.525
45027W        W 6338  42.411  25.543  12.386
45028W        W 6339  20.657  12.345  12.506
45029W        W 6340  42.888   5.325  12.076
45030W        W 6341  18.212  33.879  11.068
45031W        W 6342  18.138  16.728  12.519
45032W        W 6343  16.569  31.965  14.848
45033W        W 6344  37.000  26.163  10.946
45034W        W 6345  44.324  30.158  11.884
45035W        W 6346  18.715  13.763  12.482
45036W        W 6347  18.153  22.711  14.991
45037W        W 6348  20.222  42.950   4.736
45038W        W 6349  19.567   5.762   2.705
45039W        W 6350  30.642   8.293  12.972
45040W        W 6351  34.110  38.472   0.735
45041W        W 6352  41.814  38.827   1.852
45042W        W 6353  25.534   9.879   1.250
45043W        W 6354  34.535  37.930  14.458
45044W        W 6355  18.083  44.358  10.059
45045W        W 6356  15.667  11.257   2.706
45046W        W 6357  10.368  26.571   0.945
45047W        W 6358  21.565  11.855   0.360
45048W        W 6359  36.567  27.643   0.390
45049W        W 6360  31.629  12.613   3.730
45050W        W 6361   6.747   3.855  12.084
45051W        W 6362  39.408  40.938   3.661
45052W        W 6363  34.554  12.309   0.368
45053W        W 6364  33.543   4.223  13.422
45054W        W 6365  12.749  18.285   0.243
45055W        W 6366  21.564  16.169   4.172
45056W        W 6367  32.127  29.121   1.774
45057W        W 6368   1.866   7.785  14.978
45058W        W 6369  39.973  16.207  14.019
45059W        W 6370  38.330  18.170   1.843
45060W        W 6371  18.716  42.331   3.742
45061W        W 6372  39.396  33.443   3.146
45062W        W 6373  38.552  21.222   4.309
45063W        W 6374  27.059   6.922  14.909
45064W        W 6375   7.243  10.243  11.558
45065W        W 6376   4.903  35.555   1.334
45066W        W 6377  21.561   7.254   3.735
45067W        W 6378   9.652   1.776  11.041
45068W        W 6379  39.920  27.952   2.808
45069W        W 6380   3.302  33.418   4.788
45070W        W 6381  21.187  10.346  14.321
45071W        W 6382  33.054  27.523   0.953
45072W        W 6383  37.407  20.695  13.984
45073W        W 6384  13.805  12.211  13.321
45074W        W 6385  35.416  28.542   1.720
45075W        W 6386  16.800  19.548   1.269
45076W        W 6387   1.815   2.867  14.926
45077W        W 6388  30.412  32.402  14.307
45078W        W 6389  43.869  15.821  14.898
45079W        W 6390  13.146  42.972   2.711
45080W        W 6391  32.014   4.734  11.991
45081W        W 6392  44.285   4.450   0.936
45082W        W 6393  26.539  43.906  12.919
45083W        W 6394  24.694  11.792   1.703
45084W        W 6395  38.386  18.573   2.879
45085W        W 6396  42.508  40.445   0.770
45086W        W 6397   9.797   6.745  10.556
45087W        W 6398   2.390  35.581   1.418
45088W        W 6399   4.408  17.061   5.681
45089W        W 6400  41.293  38.330  13.793
45090W        W 6401  18.151   6.269  11.905
45091W        W 6402  12.761   9.254   2.203
45092W        W 6403  23.150  17.636   4.836
45093W        W 6404  12.653  22.084   2.673
45094W        W 6405   9.355  36.066   5.204
45095W        W 6406  29.060  25.492   4.704
45096W        W 6407   5.753  25.627  12.008
45097W        W 6408  25.967  44.916   2.180
45098W        W 6409  14.777  41.798   0.864
45099W        W 6410   3.261  12.191  14.509
45100W        W 6411   8.890  16.220   2.418
45101W        W 6412   9.803  41.988  12.067
45102W        W 6413   2.403   0.767   3.822
45103W        W 6414  23.032  39.836   3.692
45104W        W 6415  44.359   4.828   5.290
45105W        W 6416   3.834   9.364  11.524
45106W        W 6417  10.794  28.534  11.492
45107W        W 6418  40.511  10.768   3.376
45108W        W 6419  16.078   5.321  12.456
45109W        W 6420  35.595   2.824   3.178
45110W        W 6421  41.016   4.373   3.775
45111W        W 6422  24.133   5.820  14.411
45112W        W 6423  21.058  12.814  12.870
45113W        W 6424  21.249  12.298   0.733
45114W        W 6425  37.878   8.696  14.400
45115W        W 6426  38.362  32.431   4.314
45116W        W 6427  33.063   5.748   4.130
45117W        W 6428  33.516  33.595   0.395
45118W        W 6429   6.231  15.319  13.947
45119W        W 6430  40.856  28.176  11.956
45120W        W 6431  27.085  10.713   1.243
45121W        W 6432   2.234  21.222  12.460
45122W        W 6433  35.856   8.199   0.479
45123W        W 6434  16.724  38.010  11.492
45124W        W 6435  40.350  40.002  13.971
45125W        W 6436  42.803  39.810   2.825
45126W        W 6437   1.302  26.158  11.112
45127W        W 6438  17.236   0.286   3.792
45128W        W 6439   4.325  21.690  12.073
45129W        W 6440  33.458  22.688  11.589
45130W        W 6441  14.738  15.087  10.582
45131W        W 6442  26.659  37.550  13.499
45132W        W 6443   4.423  28.586   1.220
45133W        W 6444  18.226  41.379   3.368
45134W        W 6445  39.532  44.321  11.989
45135W        W 6446  14.239  32.570   3.354
45136W        W 6447   6.369  39.539   1.235
45137W        W 6448   1.835  25.580   3.772
45138W        W 6449  31.971   1.390  14.865
45139W        W 6450  16.640  24.693   1.740
45140W        W 6451  15.670  18.781   3.385
45141W        W 6452   3.876   0.416   1.343
45142W        W 6453  24.723   2.736  11.464
45143W        W 6454   6.287  33.439   5.287
45144W        W 6455  37.030  25.658   1.237
45145W        W 6456  42.445  23.734  14.829
45146W        W 6457  36.981  24.611   1.443
45147W        W 6458  44.934  13.810  13.800
45148W        W 6459  27.022  31.456   1.437
45149W        W 6460   9.722  33.901  12.995
45150W        W 6461  40.485  24.616  14.999
45151W        W 6462   5.746  33.505   4.725
45152W        W 6463  31.556   6.184  12.507
45153W        W 6464  44.881  34.061  13.961
45154W        W 6465  34.888  20.760   3.755
45155W        W 6466  44.957  37.560  11.119
45156W        W 6467   5.801  39.919  10.643
45157W        W 6468  26.666  28.623   2.813
45158W        W 6469  23.538  20.197  13.883
45159W        W 6470   0.415   8.854  14.936
45160W        W 6471  36.366  19.676   0.267
45161W        W 6472  30.494   9.152   2.271
45162W        W 6473  32.931  15.621   0.438
45163W        W 6474  16.678   6.189   0.255
45164W        W 6475  13.833  36.473   0.778
45165W        W 6476  24.620  35.490  12.998
45166W        W 6477  21.094  41.377  12.923
45167W        W 6478  40.838  41.811   3.768
45168W        W 6479  43.319   9.383   1.436
45169W        W 6480   3.269  13.190   3.867
45170W        W 6481  24.668  21.658  10.051
45171W        W 6482  18.713   3.936  12.933
45172W        W 6483  28.644  32.121  10.150
45173W        W 6484  43.958  25.552  14.795
45174W        W 6485  31.035  30.428   0.756
45175W        W 6486  11.749  38.406  10.436
45176W        W 6487  40.048  36.014  12.574
45177W        W 6488   7.214  43.959  14.873
45178W        W 6489  28.504  22.192   3.366
45179W        W 6490  12.678  19.663  12.418
45180W        W 6491  24.619  15.247  14.956
45181W        W 6492  28.016  26.485   2.283
45182W        W 6493   2.949   4.446   0.762
45183W        W 6494  18.680  23.632  12.440
45184W        W 6495  22.725  19.706  13.987
45185W        W 6496  13.313  25.177   4.750
45186W        W 6497  34.528  12.666  13.514
45187W        W 6498  23.643  34.965   4.123
45188W        W 6499  35.861   1.267   2.347
45189W        W 6500   3.783  32.923   2.748
45190W        W 6501  23.998  29.657   1.802
45191W        W 6502   6.757   9.787   0.804
45192W        W 6503  15.752  44.292  13.014
45193W        W 6504  41.852   6.775  12.850
45194W        W 6505  27.054  43.357   1.340
45195W        W 6506  26.548  20.635  11.079
45196W        W 6507  33.522  10.247  10.458
45197W        W 6508   7.375   0.258   1.725
45198W        W 6509  39.549  25.122   2.375
45199W        W 6510   0.917  41.790  10.478
45200W        W 6511  35.547  37.337  12.347
45201W        W 6512  11.273   3.308  10.641
45202W        W 6513  27.582   5.416  14.806
45203W        W 6514   3.747  29.987   1.722
45204W        W 6515  37.443   0.942   2.899
45205W        W 6516  29.074  27.976  14.776
45206W        W 6517  31.558   5.773   3.345
45207W        W 6518  44.808  22.695  12.041
45208W        W 6519  33.496   3.341   2.850
45209W        W 6520  19.728  25.205   0.329
45210W        W 6521  43.359  28.600   1.843
45211W        W 6522  39.060  21.204  11.607
45212W        W 6523   9.249   4.848   3.337
45213W        W 6524  28.174  21.094   1.363
45214W        W 6525  31.911  17.163   4.628
45215W        W 6526  25.574  10.172   2.725
45216W        W 6527  37.044   8.894  11.416
45217W        W 6528   0.340  37.861  11.086
45218W        W 6529  32.891  38.006  10.618
45219W        W 6530  18.234  42.460   3.306
45220W        W 6531  35.488  44.755  11.901
45221W        W 6532   7.761   8.217  10.432
45222W        W 6533  15.698   7.379  11.908
45223W        W 6534  42.503  29.568  10.409
45224W        W 6535  15.132  18.221   2.724
45225W        W 6536   5.351  14.179  13.467
45226W        W 6537  15.590   0.822  11.591
45227W        W 6538  37.574  35.962  14.474
45228W        W 6539   6.313  40.022  11.064
45229W        W 6540  11.155  35.913   0.319
45230W        W 6541  11.803  34.074   3.749
45231W        W 6542   5.856   3.875  14.981
45232W        W 6543  43.361  20.592   1.864
45233W        W 6544   2.262  20.252  14.494
45234W        W 6545  28.139  24.023  13.064
45235W        W 6546  20.271   5.299  14.375
45236W        W 6547   7.864  36.086   4.824
45237W        W 6548  27.661  32.489   1.446
45238W        W 6549  32.613  16.207   4.702
45239W        W 6550  18.213  29.606  14.444
45240W        W 6551  32.940   1.742   2.336
45241W        W 6552  43.389  19.620   3.191
45242W        W 6553  21.756  27.477   5.734
45243W        W 6554   0.288   6.342   3.287
45244W        W 6555  34.524  22.652   3.684
45245W        W 6556  15.661  33.605  10.491
45246W        W 6557  14.795  22.081   4.681
45247W        W 6558  11.259  12.846  12.997
45248W        W 6559  26.671  19.108  13.033
45249W        W 6560   9.280   3.338  13.436
45250W        W 6561  37.561  37.836  10.461
45251W        W 6562   0.358   0.918   2.705
45252W        W 6563  28.437   4.863   3.266
45253W        W 6564  37.358  42.463   0.837
45254W        W 6565  31.608   5.237   3.311
45255W        W 6566  27.667   0.907  14.869
45256W        W 6567   2.866  23.078   3.794
45257W        W 6568  43.791  19.621   3.666
45258W        W 6569  13.129  11.216   1.815
45259W        W 6570  21.188  34.118  12.962
45260W        W 6571  20.139  22.173  10.447
45261W        W 6572  12.127  37.456  13.417
45262W        W 6573   3.769  31.964   0.483
45263W        W 6574  17.649  19.279  14.936
45264W        W 6575  10.251  32.909  14.320
45265W        W 6576  28.526  14.714   2.267
45266W        W 6577  26.533  16.223  14.493
45267W        W 6578   6.783   0.848  10.479
45268W        W 6579  19.732  19.566  14.909
45269W        W 6580  35.593  23.648  14.383
45270W        W 6581  24.178  36.051   0.818
45271W        W 6582  35.449  33.019   1.907
45272W        W 6583   3.374  28.638   1.335
45273W        W 6584   3.352  29.470  11.997
45274W        W 6585  42.944   6.708  11.949
45275W        W 6586  43.801  32.029  12.479
45276W        W 6587   3.273  12.846  12.390
45277W        W 6588  32.006  39.864  13.050
45278W        W 6589  32.408  36.494   2.808
45279W        W 6590   0.743  42.292  14.831
45280W        W 6591  38.325  19.710  10.570
45281W        W 6592  31.565   5.351  10.932
45282W        W 6593  18.084  43.291  14.432
45283W        W 6594  14.654  37.459   4.262
45284W        W 6595   5.895   2.756   3.858
45285W        W 6596   5.838   8.205   0.894
45286W        W 6597   6.850   9.763  14.845
45287W        W 6598  34.573  22.015  12.952
45288W        W 6599   9.378  15.322  11.886
45289W        W 6600  40.004  40.347   1.913
45290W        W 6601  41.815  43.511   2.382
45291W        W 6602  30.465  13.697  12.526
45292W        W 6603  31.037  29.162  10.573
45293W        W 6604  21.160   7.873  13.985
45294W        W 6605  30.650  31.628  10.994
45295W        W 6606  15.181  10.205  14.938
45296W        W 6607  22.202   8.180  11.460
45297W        W 6608   1.873  19.048   1.383
45298W        W 6609  37.078  42.302   5.227
45299W        W 6610  19.068  37.465   5.180
45300W        W 6611  26.527   9.276  13.379
45301W        W 6612  13.755  42.893   2.895
45302W        W 6613  39.490  37.481  13.036
45303W        W 6614  27.616  34.946   3.236
45304W        W 6615   5.798  19.071  10.989
45305W        W 6616  19.776  17.596  11.940
45306W        W 6617  12.623  43.987   2.794
45307W        W 6618   6.202   0.963   4.654
45308W        W 6619  13.132  43.011   3.850
45309W        W 6620  24.614  24.060   2.868
45310W        W 6621   7.828  35.992   4.203
45311W        W 6622  15.702  13.710   5.103
45312W        W 6623  19.049  37.035   2.846
45313W        W 6624  38.467  37.408  12.542
45314W        W 6625  32.916  42.877  12.413
45315W        W 6626   9.194  43.973   2.724
45316W        W 6627  12.728   3.265  14.418
45317W        W 6628  25.521   3.230   2.232
45318W        W 6629  29.048  25.999   3.217
45319W        W 6630   6.285   4.247   0.967
45320W        W 6631  18.582  42.282   0.458
45321W        W 6632  38.952  44.391  11.097
45322W        W 6633  38.479  39.463  14.393
45323W        W 6634  15.324  37.058   0.907
45324W        W 6635  41.366  11.348   1.741
45325W        W 6636  20.739  25.054   2.242
45326W        W 6637   6.422  42.948   3.708
45327W        W 6638   3.403  12.829   4.330
45328W        W 6639  18.789  17.196  14.798
45329W        W 6640  43.373  43.895   3.716
45330W        W 6641   3.311  13.611   1.816
45331W        W 6642  13.240   6.814  11.991
45332W        W 6643  40.409  44.335   0.446
45333W        W 6644  33.559  37.063  12.001
45334W        W 6645  15.674  43.325  13.897
45335W        W 6646  44.321   9.753   0.443
45336W        W 6647  31.574  22.236   4.351
45337W        W 6648  16.270  32.070   4.150
45338W        W 6649  38.930   4.733  10.460
45339W        W 6650  25.697  29.160   2.376
45340W        W 6651  22.579  31.144  14.281
45341W        W 6652  33.953  37.014   0.361
45342W        W 6653  37.866  29.013   3.775
45343W        W 6654  44.785   8.247  13.367
45344W        W 6655   6.245  12.155  11.108
45345W        W 6656  33.526  13.234   2.335
45346W        W 6657   3.374  29.627   2.846
45347W        W 6658  17.278  16.744  12.981
45348W        W 6659  10.857  30.594  12.451
45349W        W 6660  30.064   2.884  11.435
45350W        W 6661  33.524  22.210  13.051
45351W        W 6662   4.431  26.166   1.764
45352W        W 6663  11.268  19.777   1.268
45353W        W 6664  43.981  36.369  12.389
45354W        W 6665   4.727  40.433  14.421
45355W        W 6666  38.024  32.997  11.480
45356W        W 6667  25.201  38.503  13.969
45357W        W 6668  36.064  18.549   3.249
45358W        W 6669  13.300  39.551  11.094
45359W        W 6670  22.585  26.609   5.089
45360W        W 6671  34.989  17.196  13.486
45361W        W 6672   4.837  16.164   0.351
45362W        W 6673  42.469  11.309   1.448
45363W        W 6674   5.844  26.519   3.671
45364W        W 6675  17.587  38.435  14.280
45365W        W 6676   8.839  16.267   0.426
45366W        W 6677  14.274  33.478   1.227
45367W        W 6678  41.534   4.891   4.670
45368W        W 6679  29.006  23.535   3.176
45369W        W 6680  21.230  24.611  14.774
45370W        W 6681  24.229  43.864   4.771
45371W        W 6682  44.420  14.281  13.022
45372W        W 6683  34.592  16.168   1.444
45373W        W 6684  26.013  15.235   2.777
45374W        W 6685  17.581  27.609  14.363
45375W        W 6686  40.437  23.617  13.469
45376W        W 6687  21.149   3.802   4.287
45377W        W 6688  22.113   4.906   4.671
45378W        W 6689   7.831  35.545   4.322
45379W        W 6690  26.468  18.162   5.178
45380W        W 6691  41.876   0.308  13.859
45381W        W 6692  21.191  37.874  12.365
45382W        W 6693   6.693  17.231   2.897
45383W        W 6694  23.645  28.001   0.357
45384W        W 6695  18.567  20.247   4.168
45385W        W 6696  23.188  28.511  14.508
45386W        W 6697   0.840  35.516  14.497
45387W        W 6698  14.643   3.352  12.394
45388W        W 6699   7.760  27.000   1.343
45389W        W 6700  33.947  38.974  14.332
45390W        W 6701   8.350   0.396   3.721
45391W        W 6702  25.502  27.666   4.811
45392W        W 6703  43.890  41.490   2.217
45393W        W 6704   7.348  11.784   2.807
45394W        W 6705   2.859  16.080   4.115
45395W        W 6706  17.800  43.918  12.879
45396W        W 6707  19.730   5.236  12.920
45397W        W 6708  34.954  14.608  13.984
45398W        W 6709  10.801  10.716   2.307
45399W        W 6710  39.816  27.098  12.490
45400W        W 6711   2.418   2.773   4.249
45401W        W 6712  26.561  25.562   2.880
45402W        W 6713  25.967   9.297   1.812
45403W        W 6714  17.654   5.848   4.176
45404W        W 6715  23.146   9.805   2.211
45405W        W 6716  25.970  42.784  11.589
45406W        W 6717  15.781   9.740   0.455
45407W        W 6718  15.225  29.112   1.723
45408W        W 6719  10.266  29.034  13.422
45409W        W 6720  33.569  34.373   1.794
45410W        W 6721  14.263  13.274  12.888
45411W        W 6722  17.228   6.887  14.497
45412W        W 6723  26.973  22.611   3.697
45413W        W 6724   0.852  11.256  11.000
45414W        W 6725   9.223  17.673  11.561
45415W        W 6726  16.721   6.413  10.898
45416W        W 6727   3.780  30.071   1.264
45417W        W 6728  26.676  17.089  10.579
45418W        W 6729  40.036  21.512  13.525
45419W        W 6730  33.958  26.033  12.368
45420W        W 6731  38.384  35.913   1.912
45421W        W 6732  18.671   0.766  10.140
45422W        W 6733   6.737  16.150  11.398
45423W        W 6734  16.709  18.239   3.244
45424W        W 6735  24.577  43.464   4.178
45425W        W 6736  16.701  38.415   3.281
45426W        W 6737  20.752  31.520   2.900
45427W        W 6738  31.564   3.227  13.870
45428W        W 6739  29.540  31.533  14.996
45429W        W 6740  39.480  22.606   4.211
45430W        W 6741  30.054   8.378   3.712
45431W        W 6742  16.270  41.494   2.719
45432W        W 6743  24.546  41.019  10.434
45433W        W 6744  29.147   3.767  11.006
45434W        W 6745  14.635  24.089   2.903
45435W        W 6746  42.412  15.129  12.961
45436W        W 6747  13.241  21.530   1.864
45437W        W 6748   5.404  30.079  13.922
45438W        W 6749  29.152   9.710  13.351
45439W        W 6750   2.426  29.969  12.896
45440W        W 6751   5.764  10.305  12.387
45441W        W 6752  14.131  34.373   3.263
45442W        W 6753  17.186  30.114   3.232
45443W        W 6754  42.880  33.911  10.586
45444W        W 6755  26.193   3.930  11.516
45445W        W 6756  30.434  17.615   3.703
45446W        W 6757  41.930  23.736   2.844
45447W        W 6758   3.857  17.802  10.053
45448W        W 6759  38.025  20.650   4.271
45449W        W 6760  14.119  25.164  12.037
45450W        W 6761  20.666  30.998  13.523
45451W        W 6762  33.016   6.428  11.448
45452W        W 6763  28.668  16.085  11.600
45453W        W 6764  16.665  13.187   9.666
45454W        W 6765   5.927   9.241   1.865
45455W        W 6766  32.535  32.918  13.536
45456W        W 6767  15.630  19.708   0.338
45457W        W 6768  41.938  36.361  14.376
45458W        W 6769  20.185  37.505   3.349
45459W        W 6770  18.064  32.477   3.345
45460W        W 6771  12.136  28.998   0.896
45461W        W 6772   0.424  44.494   1.268
45462W        W 6773  18.060  25.083   4.290
45463W        W 6774  28.460  41.861   1.730
45464W        W 6775  10.729  40.435  13.322
45465W        W 6776  42.502  34.895   2.204
45466W        W 6777  25.658  43.788  12.529
45467W        W 6778  23.171   9.878   4.271
45468W        W 6779  35.984  25.670  14.905
45469W        W 6780   1.295  32.975  10.944
45470W        W 6781   6.828  19.071   5.129
45471W        W 6782  31.604  35.426   1.329
45472W        W 6783   2.856  12.322  10.919
45473W        W 6784  26.995  33.099  12.456
45474W        W 6785  12.659   0.865  14.834
45475W        W 6786  38.517  35.381  13.525
45476W        W 6787   9.331  18.704  10.467
45477W        W 6788  16.153  43.938   2.388
45478W        W 6789  35.988  34.452   2.753
45479W        W 6790  36.042  41.537  13.341
45480W        W 6791  16.159   1.901   3.827
45481W        W 6792  44.438   1.842   0.384
45482W        W 6793  42.295  31.414   4.773
45483W        W 6794  35.555  26.077  13.965
45484W        W 6795  40.971  41.396  13.393
45485W        W 6796  16.242  17.638   0.467
45486W        W 6797  34.943  31.618   2.231
45487W        W 6798  36.504   7.252  12.912
45488W        W 6799  12.621  17.229   1.880
45489W        W 6800  43.445  10.209   1.782
45490W        W 6801  23.634  44.438   3.657
45491W        W 6802  17.091  36.910  12.449
45492W        W 6803  44.844  28.002  12.478
45493W        W 6804  37.006  14.253   3.675
45494W        W 6805   6.725   8.373  14.018
45495W        W 6806  20.569  15.286  12.391
45496W        W 6807  42.017  38.937   2.273
45497W        W 6808  35.894  35.600   1.840
45498W        W 6809  22.160   4.271  13.053
45499W        W 6810   3.314  14.209   0.735
45500W        W 6811  31.535  26.167   3.741
45501W        W 6812  18.563  24.090   1.701
45502W        W 6813   6.298  43.846   0.777
45503W        W 6814  29.513  14.777   4.813
45504W        W 6815  41.813   0.938  13.527
45505W        W 6816  36.000  42.336   1.829
45506W        W 6817   4.430  30.612  11.603
45507W        W 6818  18.122  19.634  13.318
45508W        W 6819  35.424  27.478  12.946
45509W        W 6820   7.762  28.163   4.837
45510W        W 6821  20.255   8.291  12.486
45511W        W 6822  31.567  22.670   0.919
45512W        W 6823  13.313  42.946  12.560
45513W        W 6824  30.508   1.354  10.540
45514W        W 6825  10.154   0.383   4.125
45515W        W 6826   8.241  20.270   1.309
45516W        W 6827   2.289   8.813   2.186
45517W        W 6828  43.851  36.940   4.680
45518W        W 6829  44.458   3.371   1.345
45519W        W 6830   1.935  44.341  10.591
45520W        W 6831  32.087   7.703   4.646
45521W        W 6832  24.996   7.831  11.939
45522W        W 6833  43.833  26.182   2.245
45523W        W 6834  27.145   9.248  14.923
45524W        W 6835   2.365  12.732   0.920
45525W        W 6836  26.532  33.086  10.528
45526W        W 6837   3.325  13.166  14.886
45527W        W 6838  24.522  33.885  10.516
45528W        W 6839  22.720  32.537   4.352
45529W        W 6840  31.450   5.735   2.252
45530W        W 6841   7.838  11.364   0.928
45531W        W 6842  14.796  35.001  10.992
45532W        W 6843   1.404  31.953  12.956
45533W        W 6844  23.598  34.558   1.222
45534W        W 6845  34.448  18.169   4.611
45535W        W 6846  27.624  19.542   1.451
45536W        W 6847  34.073   4.842   0.473
45537W        W 6848   5.435  41.812  12.556
45538W        W 6849  21.185  19.107   4.645
45539W        W 6850  14.778  34.865  11.585
45540W        W 6851  36.854   4.304   0.284
45541W        W 6852  44.324  28.990  12.841
45542W        W 6853   5.870  20.079  12.392
45543W        W 6854  10.288  41.042  13.481
45544W        W 6855  11.744   4.754   5.189
45545W        W 6856  44.372  21.062   0.273
45546W        W 6857  30.522  24.985  13.433
45547W        W 6858   5.331  44.460  12.525
45548W        W 6859  12.203  29.922  13.954
45549W        W 6860  36.549   7.667  12.432
45550W        W 6861  24.986  39.831   2.206
45551W        W 6862  33.077  13.172   2.885
45552W        W 6863  14.665   8.252   2.772
45553W        W 6864  37.896  17.788  14.309
45554W        W 6865  10.178  44.413  12.455
45555W        W 6866  22.601   2.422  14.350
45556W        W 6867  12.840  40.333  14.018
45557W        W 6868   1.826  41.797  13.957
45558W        W 6869  30.062   5.205  13.798
45559W        W 6870  37.969  26.206  14.973
45560W        W 6871  20.681   9.800   0.384
45561W        W 6872  25.692  29.136   3.352
45562W        W 6873  25.627  27.973  13.839
45563W        W 6874  22.152  10.757  12.084
45564W        W 6875  39.522   3.792   1.310
45565W        W 6876   5.708  15.744   3.246
45566W        W 6877  41.297  38.510  11.100
45567W        W 6878  24.602  19.128   3.655
45568W        W 6879  21.180   9.882  14.339
45569W        W 6880   7.908  16.711   0.431
45570W        W 6881  27.955   4.433   5.738
45571W        W 6882   8.782  41.980   4.830
45572W        W 6883  12.216  40.418   3.207
45573W        W 6884  26.041   7.770  12.442
45574W        W 6885  12.788  15.766  13.330
45575W        W 6886  44.289  33.878  13.538
45576W        W 6887  27.451  39.037   4.333
45577W        W 6888   7.188  42.904  10.956
45578W        W 6889   0.893  25.592  10.628
45579W        W 6890  14.601  10.778  14.383
45580W        W 6891  24.132  15.166   1.395
45581W        W 6892  40.408  38.027   2.696
45582W        W 6893  26.639   1.319   2.212
45583W        W 6894  29.472  37.031   0.430
45584W        W 6895  44.866  29.436  14.342
45585W        W 6896  43.447  42.909   4.153
45586W        W 6897  26.572  12.255  12.008
45587W        W 6898  28.650  39.020  13.977
45588W        W 6899  41.957  43.906  11.071
45589W        W 6900  10.878  16.724   0.967
45590W        W 6901  42.868   6.343   4.756
45591W        W 6902   1.382  24.993   1.400
45592W        W 6903  30.434  10.141   4.137
45593W        W 6904  41.032   1.412  14.798
45594W        W 6905  23.495  31.596  11.874
45595W        W 6906  26.008  30.430   1.801
45596W        W 6907  36.875  12.234  10.986
45597W        W 6908  14.625  27.454  11.037
45598W        W 6909  23.588  10.729  12.966
45599W        W 6910  17.280   6.891  11.493
45600W        W 6911  10.368   5.729   4.293
45601W        W 6912  43.459   3.920  13.954
45602W        W 6913   3.435  30.623   9.972
45603W        W 6914   9.725  38.379  11.036
45604W        W 6915  28.621  28.095   2.718
45605W        W 6916  15.769  36.405  12.948
45606W        W 6917  27.631  19.582  10.992
45607W        W 6918  31.540  30.534   3.329
45608W        W 6919  18.223  16.671   2.294
45609W        W 6920  11.777   7.213   4.757
45610W        W 6921  35.362   1.740   3.287
45611W        W 6922  27.663  10.215  13.994
45612W        W 6923  43.873  15.101  13.454
45613W        W 6924  29.480  44.413   1.440
45614W        W 6925  35.527  17.707  13.904
45615W        W 6926  26.629  42.010  11.127
45616W        W 6927  28.115  43.507  10.005
45617W        W 6928  10.752  20.700   3.283
45618W        W 6929  43.825  31.616   0.435
45619W        W 6930  14.282   5.416   0.364
45620W        W 6931  11.731  25.979  13.530
45621W        W 6932   0.951  41.955   5.303
45622W        W 6933  38.351  22.084   3.363
45623W        W 6934  29.494  19.590   1.337
45624W        W 6935  18.187  37.405   3.866
45625W        W 6936  25.072  41.819  14.325
45626W        W 6937   5.901  29.592  11.391
45627W        W 6938  36.427  44.327  10.536
45628W        W 6939  21.738  28.983  11.930
45629W        W 6940  25.604  43.394   0.279
45630W        W 6941   5.319  28.630  11.420
45631W        W 6942   5.372  12.743   0.354
45632W        W 6943  24.714  32.454   2.363
45633W        W 6944  34.595  18.753  12.386
45634W        W 6945  31.085  34.537  12.884
45635W        W 6946  11.849  33.396  14.778
45636W        W 6947  35.860  16.165  14.436
45637W        W 6948  38.894  19.600   0.266
45638W        W 6949  20.652  16.643   2.779
45639W        W 6950  33.098  25.119   0.402
45640W        W 6951  20.230  27.954   0.945
45641W        W 6952  13.722  33.510   0.766
45642W        W 6953  28.541   5.374  14.311
45643W        W 6954  14.212  25.567   5.280
45644W        W 6955  18.639   2.361   2.354
45645W        W 6956  39.925  32.404   4.647
45646W        W 6957  21.551  18.728  14.487
45647W        W 6958  19.751  38.905   2.335
45648W        W 6959  44.332   1.245  12.064
45649W        W 6960  23.708  32.543  12.033
45650W        W 6961  40.979  20.566  12.899
45651W        W 6962  32.405  20.672   3.788
45652W        W 6963  42.989  37.971   1.862
45653W        W 6964  22.712  13.717   4.700
45654W        W 6965  20.259   4.267  13.401
45655W        W 6966   1.360  27.000   4.674
45656W        W 6967  10.685  13.707  10.597
45657W        W 6968  40.046  12.126  14.004
45658W        W 6969   7.721  40.381   4.781
45659W        W 6970  29.588  39.833  13.803
45660W        W 6971  36.881  41.429   0.250
45661W        W 6972   1.469   9.780   1.836
45662W        W 6973   2.808  41.524  14.419
45663W        W 6974  22.611  35.890  11.977
45664W        W 6975   9.806   2.856   3.239
45665W        W 6976  19.280  24.673   1.761
45666W        W 6977  27.506  33.954   1.867
45667W        W 6978  18.112  17.301   2.812
45668W        W 6979  19.648  33.938  11.481
45669W        W 6980   4.432   1.786   0.849
45670W        W 6981  16.084  43.278  14.032
45671W        W 6982  38.066  25.967   3.228
45672W        W 6983  19.249  27.977   3.801
45673W        W 6984  15.592  35.912  12.398
45674W        W 6985  28.149  14.757   2.213
45675W        W 6986   5.315  44.946  12.847
45676W        W 6987  23.215   6.862  14.442
45677W        W 6988  32.080  26.604  11.986
45678W        W 6989  17.710  34.956   0.407
45679W        W 6990   9.250  23.541   5.303
45680W        W 6991  16.162  33.565   2.188
45681W        W 6992   2.437  38.535  13.053
45682W        W 6993   4.335  37.443  12.844
45683W        W 6994  17.284  28.629  12.416
45684W        W 6995  10.337  28.649   3.744
45685W        W 6996  43.939  24.150  14.829
45686W        W 6997  18.207   9.393  11.869
45687W        W 6998  23.539   6.760  12.880
45688W        W 6999   4.726  18.715  13.889
45689W        W 7000  13.284   2.846   4.204
45690W        W 7001  31.153  11.704   1.819
45691W        W 7002  18.710  10.175   1.256
45692W        W 7003  21.127   8.711   0.396
45693W        W 7004   7.349  18.567   3.336
45694W        W 7005  36.581  28.503  13.307
45695W        W 7006  18.195  34.390   3.377
45696W        W 7007  16.647   5.291   3.190
45697W        W 7008  43.928  26.983   3.845
45698W        W 7009   9.307   8.769  14.441
45699W        W 7010  35.598  15.684  14.470
45700W        W 7011  34.518  38.011  12.074
45701W        W 7012   4.836   1.969  12.836
45702W        W 7013   4.716   6.705   0.296
45703W        W 7014  30.984  14.630   1.806
45704W        W 7015  36.444  16.651  13.791
45705W        W 7016  35.480   8.741  11.903
45706W        W 7017  13.786  27.989  14.831
45707W        W 7018   2.416  17.594   4.698
45708W        W 7019  38.869  44.833   0.910
45709W        W 7020  21.732  17.166  14.303
45710W        W 7021  24.719  24.625   4.772
45711W        W 7022  19.618  17.264   0.809
45712W        W 7023   2.910  35.395   4.607
45713W        W 7024  19.652  17.226  14.856
45714W        W 7025   2.229  10.253  12.041
45715W        W 7026  36.506   8.319   3.745
45716W        W 7027   3.792  39.012   0.446
45717W        W 7028  17.210  19.647  13.414
45718W        W 7029  27.589  31.583   0.733
45719W        W 7030  43.972  34.429  12.435
45720W        W 7031  23.597  28.649   9.541
45721W        W 7032  35.486  10.347  12.369
45722W        W 7033  32.940  35.106   3.342
45723W        W 7034  43.892  11.715  12.982
45724W        W 7035  19.733  42.491  12.092
45725W        W 7036  30.659  42.311  11.011
45726W        W 7037   9.246  27.193  12.957
45727W        W 7038  38.851  30.524   4.150
45728W        W 7039  36.364  29.538   4.813
45729W        W 7040  43.340  21.263   2.281
45730W        W 7041  17.307  23.654  12.484
45731W        W 7042  20.731  21.570   0.801
45732W        W 7043  37.386  11.656  13.896
45733W        W 7044  29.955  25.161   3.376
45734W        W 7045  33.111   6.314  13.928
45735W        W 7046  40.332  18.176  12.445
45736W        W 7047  18.660  31.533  11.083
45737W        W 7048  30.155  41.479   0.861
45738W        W 7049  44.297   9.191   1.222
45739W        W 7050  38.855  41.431  11.588
45740W        W 7051  13.760  20.192  11.025
45741W        W 7052  42.280  40.900   3.386
45742W        W 7053  18.748  28.648   1.791
45743W        W 7054  30.513  39.044   0.425
45744W        W 7055  27.144  43.364  14.965
45745W        W 7056  13.804  28.442   3.355
45746W        W 7057  32.976  35.538   3.198
45747W        W 7058   2.833  26.074   2.830
45748W        W 7059   9.373  21.035  14.782
45749W        W 7060  36.914   7.228  10.404
45750W        W 7061  43.969  29.573   2.263
45751W        W 7062   4.377   8.720   4.832
45752W        W 7063  27.981  11.744  14.759
45753W        W 7064   5.849  33.442  11.953
45754W        W 7065   5.853  12.634   3.310
45755W        W 7066  29.171  22.549   0.404
45756W        W 7067  21.156   5.840  12.549
45757W        W 7068  32.042  21.112  14.772
45758W        W 7069  30.971  33.077  14.429
45759W        W 7070  29.559  35.374  14.473
45760W        W 7071  42.509  10.275   0.736
45761W        W 7072  31.466  10.696   4.286
45762W        W 7073  34.564  30.063   4.294
45763W        W 7074  14.297   7.841  11.600
45764W        W 7075  37.450  14.187   3.222
45765W        W 7076  42.943  25.612  12.350
45766W        W 7077  20.661   4.709   1.372
45767W        W 7078  28.079   4.876  13.928
45768W        W 7079  17.634  40.385   4.285
45769W        W 7080   1.767  32.937  12.941
45770W        W 7081  31.084  25.984  14.406
45771W        W 7082  12.760  23.724   5.256
45772W        W 7083  10.257  12.317   1.361
45773W        W 7084   2.439  12.678   1.313
45774W        W 7085  27.190  33.493   0.851
45775W        W 7086  26.508   3.357  11.385
45776W        W 7087   3.322   8.690  12.893
45777W        W 7088  24.189   4.737  11.914
45778W        W 7089   2.387   5.274  14.433
45779W        W 7090  15.183  12.136   2.828
45780W        W 7091   6.891  33.132   2.407
45781W        W 7092  38.819  10.737  14.479
45782W        W 7093  18.786  43.982  11.585
45783W        W 7094  41.431  11.664   1.343
45784W        W 7095  26.463  10.797  12.004
45785W        W 7096  32.439   2.844   2.855
45786W        W 7097  17.287  10.174  14.764
45787W        W 7098  21.570   5.371   3.379
45788W        W 7099  31.628  13.631  14.879
45789W        W 7100  35.421  22.542  10.897
45790W        W 7101  11.229   6.193  14.767
45791W        W 7102  44.944  16.663   2.765
45792W        W 7103  12.711   2.245  12.960
45793W        W 7104  39.889   3.277   2.296
45794W        W 7105   3.324   2.782   0.478
45795W        W 7106  23.188  42.890  14.442
45796W        W 7107  38.466  29.666   1.771
45797W        W 7108   6.737  14.653   2.899
45798W        W 7109  11.862   7.308  12.878
45799W        W 7110  13.700   9.342  12.073
45800W        W 7111  40.007  43.000  12.401
45801W        W 7112   9.359  18.790  12.956
45802W        W 7113  40.864   9.330  12.370
45803W        W 7114  27.632  18.190   3.155
45804W        W 7115   3.868  23.553  13.357
45805W        W 7116  37.561   4.292  11.868
45806W        W 7117  28.623  38.820  11.929
45807W        W 7118  38.965  36.371   0.337
45808W        W 7119  11.685  25.486  11.513
45809W        W 7120  10.878  29.568   0.397
45810W        W 7121  31.937  16.744  13.864
45811W        W 7122   4.367  36.493   2.840
45812W        W 7123  18.559  31.619  12.528
45813W        W 7124  27.507  25.697   0.420
45814W        W 7125  21.695  35.428  13.375
45815W        W 7126  12.695   8.293   2.891
45816W        W 7127  36.562  28.675   0.788
45817W        W 7128  30.967  13.340  14.512
45818W        W 7129  35.537  34.094  14.903
45819W        W 7130  35.860  25.590  13.931
45820W        W 7131  16.119  36.561   0.271
45821W        W 7132   5.437  31.419   2.261
45822W        W 7133  28.588  11.756  11.084
45823W        W 7134  37.487   0.373   4.169
45824W        W 7135  27.185   7.710  14.464
45825W        W 7136  19.768  40.868  13.823
45826W        W 7137   6.870  12.698  13.806
45827W        W 7138  39.320  19.237  13.432
45828W        W 7139  28.128  38.474   1.336
45829W        W 7140   4.253  29.667  11.992
45830W        W 7141  14.203  43.772   0.901
45831W        W 7142  31.961  12.156   1.790
45832W        W 7143   5.391  24.183   4.178
45833W        W 7144  24.997  29.051   0.300
45834W        W 7145  12.147   7.313  13.873
45835W        W 7146  29.636  39.053  14.369
45836W        W 7147  24.495  17.159   3.738
45837W        W 7148  26.479   8.686   2.737
45838W        W 7149   2.753  31.145   3.683
45839W        W 7150  19.610  30.435  11.517
45840W        W 7151  21.091   4.438  11.609
45841W        W 7152   9.368   6.209   4.678
45842W        W 7153  30.967  37.067  14.767
45843W        W 7154  33.877  37.848   1.757
45844W        W 7155  38.513  32.503   0.911
45845W        W 7156   6.830  40.439  10.928
45846W        W 7157  24.148  15.260   3.698
45847W        W 7158  42.312  20.698   0.352
45848W        W 7159  26.994  25.683   2.756
45849W        W 7160   5.847  41.360   1.702
45850W        W 7161  26.579  20.672  12.823
45851W        W 7162  27.129  12.797   2.380
45852W        W 7163  43.008  35.086   1.760
45853W        W 7164  17.201  37.882  11.460
45854W        W 7165  12.632  35.571  10.910
45855W        W 7166  25.069  43.457   2.233
45856W        W 7167  11.832   7.353   5.308
45857W        W 7168  32.473  26.107   0.408
45858W        W 7169  15.600  29.052   3.706
45859W        W 7170  24.507  24.987  12.836
45860W        W 7171   8.664  29.088   3.182
45861W        W 7172  42.840   1.827  11.991
45862W        W 7173  34.427  26.701   2.668
45863W        W 7174  41.855  35.359  13.411
45864W        W 7175   6.756  34.999   4.630
45865W        W 7176  25.514  13.238   0.747
45866W        W 7177  41.861   2.755  14.841
45867W        W 7178  12.837   7.220  14.871
45868W        W 7179  38.496  27.976  10.421
45869W        W 7180  14.191  15.109   2.752
45870W        W 7181  14.601   0.339  13.346
45871W        W 7182   5.912   7.708   3.638
45872W        W 7183   1.881   7.188  14.814
45873W        W 7184  36.403  40.959  13.468
45874W        W 7185   4.319  10.874   0.766
45875W        W 7186  26.472   6.863   1.315
45876W        W 7187  31.906  18.652   1.729
45877W        W 7188  11.232   5.715  12.420
45878W        W 7189  35.036  22.735  12.394
45879W        W 7190   6.284  38.820  11.444
45880W        W 7191   4.296  13.693   0.286
45881W        W 7192  19.636   8.766   3.328
45882W        W 7193  36.084  32.561  14.466
45883W        W 7194  24.643  37.394  10.560
45884W        W 7195  38.851  21.027  12.051
45885W        W 7196  16.312  31.065   2.885
45886W        W 7197  14.640  20.672   4.759
45887W        W 7198  30.980  39.515  13.903
45888W        W 7199  32.005  22.028  14.801
45889W        W 7200   6.305  10.158   3.666
45890W        W 7201  25.996  13.275   2.680
45891W        W 7202   0.447  31.548  12.384
45892W        W 7203   5.928  12.784   1.696
45893W        W 7204  40.949   4.835   3.154
45894W        W 7205  22.177  38.366  13.308
45895W        W 7206  31.934  35.898  11.983
45896W        W 7207  35.575  26.072   0.310
45897W        W 7208   8.271  28.450   3.249
45898W        W 7209  24.209   3.940   4.197
45899W        W 7210  31.953  37.457   4.733
45900W        W 7211  22.504   0.364  12.993
45901W        W 7212  30.462  19.207   0.787
45902W        W 7213  32.955  30.596  13.805
45903W        W 7214  21.054  15.248   0.820
45904W        W 7215  31.403  17.305  14.776
45905W        W 7216  35.360  13.720  13.948
45906W        W 7217  30.656   5.926   0.957
45907W        W 7218   4.362  43.850   1.327
45908W        W 7219  15.175  38.375  13.449
45909W        W 7220  30.477  43.889   1.433
45910W        W 7221  18.693  40.010  14.471
45911W        W 7222  11.757  15.600   0.305
45912W        W 7223   7.298  36.421   0.477
45913W        W 7224  21.552  41.474   3.168
45914W        W 7225  13.715  42.307  14.895
45915W        W 7226  14.220   0.813   1.244
45916W        W 7227   1.292  26.058  10.445
45917W        W 7228  17.756  36.450   3.185
45918W        W 7229  17.179  39.933  13.791
45919W        W 7230  32.579  23.147  12.834
45920W        W 7231  21.243  39.453   2.252
45921W        W 7232   5.897   1.769   0.918
45922W        W 7233  23.535  34.416  10.482
45923W        W 7234  44.841  10.829  12.009
45924W        W 7235  38.966  43.948   4.181
45925W        W 7236  15.299  33.560  10.943
45926W        W 7237  39.327  16.640  13.381
45927W        W 7238  28.435  38.924   2.244
45928W        W 7239  16.757  39.550  14.924
45929W        W 7240  41.909  39.408   4.329
45930W        W 7241  30.070  19.756  11.541
45931W        W 7242  10.824  44.413  12.405
45932W        W 7243  36.024  32.042   0.423
45933W        W 7244   0.953  15.628   0.417
45934W        W 7245  34.591   3.943   4.307
45935W        W 7246  35.431  37.073   0.251
45936W        W 7247  27.195   9.777   0.874
45937W        W 7248  37.073  35.497  14.490
45938W        W 7249  22.128  38.007  11.121
45939W        W 7250  29.067  39.483  10.516
45940W        W 7251  19.767   6.193   0.294
45941W        W 7252  18.098  34.369  10.598
45942W        W 7253  16.276  39.533   1.703
45943W        W 7254  39.028  27.046  14.300
45944W        W 7255   8.679   0.331   3.778
45945W        W 7256  41.040  31.122  14.926
45946W        W 7257  24.006  16.182  10.977
45947W        W 7258  44.819   6.224   1.265
45948W        W 7259   9.717   9.663  14.002
45949W        W 7260  41.309  29.153  10.958
45950W        W 7261  41.464  15.210   1.260
45951W        W 7262  29.503  44.973   3.231
45952W        W 7263   1.896  44.266   1.279
45953W        W 7264  11.847  16.699   0.460
45954W        W 7265  35.529  26.154  10.616
45955W        W 7266   4.874  19.685  13.931
45956W        W 7267  17.652  29.965  11.866
45957W        W 7268  23.100  39.421  13.524
45958W        W 7269  14.227  42.468  10.470
45959W        W 7270   2.366  34.587   1.261
45960W        W 7271  19.137  13.173   4.812
45961W        W 7272  23.558  19.213  13.471
45962W        W 7273  36.401  41.933   2.231
45963W        W 7274  21.125  13.293  14.844
45964W        W 7275  19.274  32.444   4.760
45965W        W 7276   5.781   6.243  12.442
45966W        W 7277  39.343  25.171   1.409
45967W        W 7278  33.977  10.762  11.581
45968W        W 7279  37.339  24.102  12.995
45969W        W 7280  11.796  20.177  13.348
45970W        W 7281  11.687  27.518   2.347
45971W        W 7282  13.135  32.100   3.768
45972W        W 7283  34.451   7.782  13.392
45973W        W 7284  28.083  40.379  12.050
45974W        W 7285   7.692   6.235   2.342
45975W        W 7286  34.516  43.791  12.985
45976W        W 7287  36.087  41.908   0.444
45977W        W 7288   2.898  44.917   4.689
45978W        W 7289  31.923   4.273  12.850
45979W        W 7290  12.210  18.742   3.292
45980W        W 7291  31.951   1.860   2.764
45981W        W 7292  27.539  27.986   2.372
45982W        W 7293  25.157  18.568  14.992
45983W        W 7294   7.851  14.744  14.958
45984W        W 7295  31.445  26.603  11.431
45985W        W 7296   8.280  29.429  10.409
45986W        W 7297  14.653  23.736   0.429
45987W        W 7298  41.346  14.269  10.616
45988W        W 7299   0.768  21.113  11.918
45989W        W 7300   6.755   9.219  13.439
45990W        W 7301  43.006  18.586  10.934
45991W        W 7302  21.251  35.922   2.842
45992W        W 7303  27.033  42.853   5.209
45993W        W 7304   8.696  28.629  13.452
45994W        W 7305   9.241   2.812   4.647
45995W        W 7306  22.243  34.994  12.871
45996W        W 7307  27.943  13.144  10.555
45997W        W 7308   7.772  16.646   2.291
45998W        W 7309  17.717  16.104  11.580
45999W        W 7310  39.931  15.805  14.937
46000W        W 7311  23.669  17.142   0.269
46001W        W 7312   7.781  25.132   2.730
46002W        W 7313   2.278  24.137   0.476
46003W        W 7314  25.074  37.849  14.840
46004W        W 7315   2.401  34.382   1.781
46005W        W 7316   1.448   4.389  12.574
46006W        W 7317  26.151  40.408   2.372
46007W        W 7318  15.592  42.487   4.822
46008W        W 7319   0.395  43.313   3.263
46009W        W 7320  20.753  20.538   9.526
46010W        W 7321   9.756  38.398   4.127
46011W        W 7322  44.799  33.584   0.424
46012W        W 7323  29.596   7.742   0.786
46013W        W 7324  11.340  11.230   1.894
46014W        W 7325  15.174  43.978  12.880
46015W        W 7326  42.904  19.714   3.219
46016W        W 7327  39.435   3.221   2.878
46017W        W 7328   6.232  18.160  14.486
46018W        W 7329  37.874  38.429   2.703
46019W        W 7330   4.843  10.255   1.236
46020W        W 7331  12.697  18.098  13.393
46021W        W 7332   2.300  19.189   3.276
46022W        W 7333  36.852  20.131   2.817
46023W        W 7334  34.412  16.674  14.894
46024W        W 7335  36.045  24.230  14.419
46025W        W 7336   9.180  27.455  10.444
46026W        W 7337  18.641  24.051   0.319
46027W        W 7338  14.336  17.243  13.328
46028W        W 7339  42.461  17.563   2.846
46029W        W 7340  26.647   9.721  13.409
46030W        W 7341  44.376  41.303  10.484
46031W        W 7342  37.480  26.518  10.960
46032W        W 7343   9.240  20.197  12.490
46033W        W 7344   4.868   6.247  11.069
46034W        W 7345  25.138  16.568   1.226
46035W        W 7346   7.292  21.519   4.780
46036W        W 7347  26.524  36.552   2.864
46037W        W 7348  44.852  24.214   1.885
46038W        W 7349  17.130  27.503   3.198
46039W        W 7350  32.474   8.866   1.876
46040W        W 7351  13.124  41.807   1.872
46041W        W 7352  12.138   1.798  14.353
46042W        W 7353  28.498  16.143   4.742
46043W        W 7354   9.201  15.147  10.580
46044W        W 7355   0.769  33.089  14.375
46045W        W 7356  42.475  20.218  10.928
46046W        W 7357   2.801   6.246   4.263
46047W        W 7358   0.911  39.864  13.824
46048W        W 7359  26.506  25.649   0.853
46049W        W 7360  28.080   2.756  13.430
46050W        W 7361  18.702   2.400  13.871
46051W        W 7362  10.192  10.145  10.984
46052W        W 7363  36.541  23.550  10.569
46053W        W 7364  19.158  17.116   0.403
46054W        W 7365   6.275  11.279   3.767
46055W        W 7366  38.958  23.176  14.368
46056W        W 7367  39.387  38.839  11.596
46057W        W 7368  30.534  18.247  12.540
46058W        W 7369   3.837   7.192  13.950
46059W        W 7370  43.306   5.214   0.755
46060W        W 7371  36.957  41.436   3.682
46061W        W 7372   7.285  40.393   1.856
46062W        W 7373   9.864   1.362  13.869
46063W        W 7374  25.531  23.714   3.192
46064W        W 7375  37.914  16.711   0.373
46065W        W 7376  14.634  21.530   3.707
46066W        W 7377  11.857   3.863  12.352
46067W        W 7378  28.110  28.597  13.945
46068W        W 7379   8.328   6.684   4.164
46069W        W 7380  40.874  25.028   0.855
46070W        W 7381  14.654  23.599   5.314
46071W        W 7382  18.142  22.137  11.407
46072W        W 7383  27.197  31.099  12.954
46073W        W 7384  31.641  31.078  13.032
46074W        W 7385   5.774  23.030   2.725
46075W        W 7386   3.786   8.349  13.011
46076W        W 7387  19.749  22.622  13.914
46077W        W 7388  33.955  29.482  10.934
46078W        W 7389  32.888  29.933  13.887
46079W        W 7390  18.730  40.848   1.281
46080W        W 7391  39.400  30.560  13.005
46081W        W 7392  18.128  11.725   1.252
46082W        W 7393  16.635  30.935   3.298
46083W        W 7394   2.426   9.844  13.019
46084W        W 7395  34.074  32.891   2.689
46085W        W 7396  21.078  44.805  13.347
46086W        W 7397  26.689  25.130  14.424
46087W        W 7398  23.667  24.005  10.568
46088W        W 7399  15.149  31.453   3.656
46089W        W 7400  17.281  38.434   0.247
46090W        W 7401   2.353  13.631   3.691
46091W        W 7402  39.058  15.248   2.183
46092W        W 7403   9.753  15.681   3.206
46093W        W 7404   6.791  15.648   4.186
46094W        W 7405  39.379   3.853   4.344
46095W        W 7406  24.226  24.170   3.782
46096W        W 7407  38.417  28.468  13.850
46097W        W 7408  27.979  32.132   0.854
46098W        W 7409  32.925  19.141  12.534
46099W        W 7410   9.837  24.542  13.413
46100W        W 7411   4.385  16.174   3.182
46101W        W 7412  24.669  22.078   3.688
46102W        W 7413  21.555  25.987   0.469
46103W        W 7414   4.436  35.471   2.259
46104W        W 7415  17.251   1.972   1.252
46105W        W 7416  35.025  26.633   2.684
46106W        W 7417  35.451  32.997  11.046
46107W        W 7418  16.632  23.638  10.158
46108W        W 7419  26.980  31.516   3.787
46109W        W 7420   8.866   6.705   2.347
46110W        W 7421  23.074  20.694  14.015
46111W        W 7422  18.189  33.480  12.565
46112W        W 7423  20.696   7.808  11.602
46113W        W 7424  26.640   0.920  11.997
46114W        W 7425  38.993  11.322   2.343
46115W        W 7426  37.916  27.995   1.257
46116W        W 7427  35.413   1.847   2.816
46117W        W 7428  41.502  15.254   1.760
46118W        W 7429  21.214  15.707  12.403
46119W        W 7430  26.492  16.705  13.376
46120W        W 7431  26.467  38.885   2.672
46121W        W 7432  24.489  41.323   0.946
46122W        W 7433  36.018   2.824  12.867
46123W        W 7434   5.246  39.329   3.210
46124W        W 7435  34.007  22.069  11.379
46125W        W 7436  15.086  32.055   5.231
46126W        W 7437  10.369  20.665  11.022
46127W        W 7438   9.739   4.424  14.350
46128W        W 7439   0.937  34.490   4.262
46129W        W 7440  14.309   8.343  12.969
46130W        W 7441  29.612  13.265   4.750
46131W        W 7442  22.019  15.121  11.556
46132W        W 7443   3.347  37.559   2.215
46133W        W 7444  26.506  19.756  10.513
46134W        W 7445  33.447  33.502  12.425
46135W        W 7446  18.754  39.328   2.844
46136W        W 7447   7.365   7.234   1.727
46137W        W 7448  13.108   2.242  10.434
46138W        W 7449  34.420   1.886   3.697
46139W        W 7450  30.023  26.976   0.394
46140W        W 7451  43.446  37.020   1.276
46141W        W 7452  31.036  37.366   5.157
46142W        W 7453   3.439  24.708  11.568
46143W        W 7454  16.087  40.836   4.249
46144W        W 7455  23.035  23.673  11.989
46145W        W 7456  15.639  33.589   3.709
46146W        W 7457  39.044  11.202  14.885
46147W        W 7458  17.195  44.989  14.928
46148W        W 7459  11.851  20.169  12.367
46149W        W 7460  14.820  39.930  10.952
46150W        W 7461  34.510  43.459  12.880
46151W        W 7462  19.128  29.960   2.418
46152W        W 7463   3.726  30.973  12.381
46153W        W 7464  41.794  32.937  12.435
46154W        W 7465  17.743   8.819  12.554
46155W        W 7466  24.551  32.460   9.533
46156W        W 7467  22.053  18.117  14.867
46157W        W 7468  21.133  42.808   0.809
46158W        W 7469  43.447  10.657  12.421
46159W        W 7470  17.613  14.216  10.594
46160W        W 7471  42.885  13.260   1.357
46161W        W 7472  40.851  20.733  11.542
46162W        W 7473  31.963  39.889  10.122
46163W        W 7474  31.101  10.305   0.800
46164W        W 7475  26.589  26.589   3.714
46165W        W 7476   2.335  23.566  12.047
46166W        W 7477  18.151  32.015   3.293
46167W        W 7478  34.452  20.580   1.362
46168W        W 7479  40.805  23.218  14.326
46169W        W 7480  20.636   3.355  12.986
46170W        W 7481  25.654   5.815   4.832
46171W        W 7482  11.302  10.201  12.050
46172W        W 7483  26.485  13.178  11.912
46173W        W 7484  21.176  23.233   4.789
46174W        W 7485   8.891  18.644   3.370
46175W        W 7486   2.880  42.315   1.770
46176W        W 7487  16.241  41.975  11.085
46177W        W 7488  32.092   9.695   3.820
46178W        W 7489   4.922  26.647   9.951
46179W        W 7490   2.431  29.629  10.983
46180W        W 7491  12.345  28.601  10.458
46181W        W 7492  37.839  11.135  12.548
46182W        W 7493   0.413   5.391  12.934
46183W        W 7494  32.003  36.089   4.345
46184W        W 7495  26.667  42.926   0.760
46185W        W 7496   1.423  33.466  12.532
46186W        W 7497  18.295   2.433  11.375
46187W        W 7498   8.757  39.323  13.008
46188W        W 7499  28.933   8.235  12.925
46189W        W 7500  33.125   6.259  12.828
46190W        W 7501  31.135   5.381  13.830
46191W        W 7502  10.766  42.782  12.091
46192W        W 7503   1.289   4.263  12.006
46193W        W 7504  23.536  13.823  14.448
46194W        W 7505  40.521   7.691   2.377
46195W        W 7506  24.996  41.913   4.639
46196W        W 7507  26.018   5.694  11.055
46197W        W 7508   1.420   7.912   2.236
46198W        W 7509  12.818  16.269  14.935
46199W        W 7510  13.213  18.638   4.338
46200W        W 7511  28.571  21.567   1.361
46201W        W 7512  24.609  33.981   9.475
46202W        W 7513  43.323  26.167   3.340
46203W        W 7514  32.916   2.858  10.618
46204W        W 7515  34.005   4.751   1.777
46205W        W 7516  34.047  20.721   4.239
46206W        W 7517  35.105   0.871  13.461
46207W        W 7518  18.202  37.949  13.522
46208W        W 7519  18.754   1.392  11.435
46209W        W 7520   5.865  18.576   0.801
46210W        W 7521  32.504  35.520   0.726
46211W        W 7522  27.126  44.443   1.765
46212W        W 7523  18.066  12.853   2.338
46213W        W 7524  41.854  16.795   0.383
46214W        W 7525  29.503   9.349  10.157
46215W        W 7526  15.156   7.675   0.401
46216W        W 7527   6.907  35.957  11.011
46217W        W 7528  43.456  24.023   3.286
46218W        W 7529  39.334  44.896   4.160
46219W        W 7530  34.022  43.482  12.375
46220W        W 7531  13.806  10.736  13.931
46221W        W 7532  24.021  26.105  10.566
46222W        W 7533  40.843   1.770  11.983
46223W        W 7534   4.224  29.064  10.465
46224W        W 7535  14.624  44.442  11.531
46225W        W 7536  27.162   9.310   5.097
46226W        W 7537  10.273  30.513   1.713
46227W        W 7538   0.808  38.979  14.967
46228W        W 7539   2.839   2.793  13.511
46229W        W 7540  25.051  34.923   2.820
46230W        W 7541  41.872   2.385  11.402
46231W        W 7542  39.510  40.343  11.560
46232W        W 7543  23.146  30.058  14.855
46233W        W 7544  16.806  44.402  10.143
46234W        W 7545  15.582  43.855   0.349
46235W        W 7546  36.945  21.214  13.988
46236W        W 7547  29.085  34.936   3.382
46237W        W 7548   0.476   3.787   4.667
46238W        W 7549  19.720  44.299  13.908
46239W        W 7550  12.124  22.548  14.875
46240W        W 7551  44.308   5.786   2.222
46241W        W 7552  43.798   7.327   4.242
46242W        W 7553  43.883   6.426  13.490
46243W        W 7554   2.470   5.364   3.797
46244W        W 7555  17.608  17.113   3.247
46245W        W 7556   2.387  14.782  13.886
46246W        W 7557  13.665   2.906  10.499
46247W        W 7558  37.553  14.679  14.818
46248W        W 7559  15.743  41.460  11.003
46249W        W 7560  44.807   4.806  13.367
46250W        W 7561  32.620  28.045   4.687
46251W        W 7562  14.133  30.532   3.322
46252W        W 7563  16.122  27.151  12.065
46253W        W 7564  21.212  16.300   4.150
46254W        W 7565  23.724   2.779  12.563
46255W        W 7566  19.542  30.492  12.387
46256W        W 7567  40.860  43.403   4.641
46257W        W 7568   0.280  26.178  10.589
46258W        W 7569  30.561  16.733   3.340
46259W        W 7570   0.289  30.652  11.119
46260W        W 7571   3.227  28.057   0.260
46261W        W 7572  27.453  33.486  13.511
46262W        W 7573  26.114  22.215  10.894
46263W        W 7574  20.060  35.859   0.361
46264W        W 7575  18.255  20.614   3.352
46265W        W 7576  20.612  16.193   4.170
46266W        W 7577  25.058  36.393   2.273
46267W        W 7578  11.352  19.552  10.495
46268W        W 7579  43.885  42.978  14.009
46269W        W 7580   0.881  39.852  10.140
46270W        W 7581  42.313  36.848   3.814
46271W        W 7582  23.522  11.294   4.609
46272W        W 7583  15.256  12.695   9.951
46273W        W 7584  18.746  21.593   2.195
46274W        W 7585  16.116  38.862   0.471
46275W        W 7586  36.018  29.601  13.857
46276W        W 7587  42.971  15.772  10.123
46277W        W 7588  21.546  40.973   5.752
46278W        W 7589  10.164  34.437  11.377
46279W        W 7590  15.226  37.010  13.028
46280W        W 7591  27.052  33.434   3.827
46281W        W 7592  37.443   1.325   2.312
46282W        W 7593  43.936   0.893   4.736
46283W        W 7594  27.535  22.156   4.177
46284W        W 7595   5.283  29.523   3.174
46285W        W 7596   7.309  43.952  14.417
46286W        W 7597   5.392  16.079   1.832
46287W        W 7598  26.663  22.581  11.046
46288W        W 7599  11.217   6.800   4.639
46289W        W 7600  26.093  43.851   3.261
46290W        W 7601  36.945   7.844  14.852
46291W        W 7602  41.042   3.319  11.117
46292W        W 7603  22.137  33.029   0.769
46293W        W 7604   9.885  24.616  12.968
46294W        W 7605   7.295  43.864  13.501
46295W        W 7606   3.884  28.046  12.907
46296W        W 7607  24.066  19.137  14.922
46297W        W 7608  22.009  30.636  14.917
46298W        W 7609   0.421   8.700  12.879
46299W        W 7610   6.678  35.591   2.308
46300W        W 7611  33.918  20.138   4.693
46301W        W 7612   8.856  38.074  10.904
46302W        W 7613   8.208  21.551  14.906
46303W        W 7614  42.364  28.160   1.275
46304W        W 7615  12.622  11.127   4.331
46305W        W 7616  40.002  34.095   1.246
46306W        W 7617  26.995  11.185  11.536
46307W        W 7618  39.977  26.106   2.255
46308W        W 7619  30.098  10.713   3.284
46309W        W 7620  24.528  16.685   2.417
46310W        W 7621  26.494  20.263  12.002
46311W        W 7622  34.056  41.837   0.791
46312W        W 7623  12.353  10.697  11.554
46313W        W 7624  17.277  29.430  14.362
46314W        W 7625  30.463   4.348  11.381
46315W        W 7626  36.592  42.511   0.841
46316W        W 7627  24.718  39.880   4.716
46317W        W 7628  22.641   0.925  12.024
46318W        W 7629  28.962   9.707  13.913
46319W        W 7630  19.730  12.622   4.797
46320W        W 7631  36.985  28.032  13.546
46321W        W 7632   7.886  17.086  12.536
46322W        W 7633   8.761   5.362   0.887
46323W        W 7634  19.067  16.725   0.852
46324W        W 7635  37.492  22.567  13.344
46325W        W 7636   4.945  21.749   1.361
46326W        W 7637   3.885  28.517  10.493
46327W        W 7638  16.201  20.699  14.776
46328W        W 7639  39.930  26.607  12.568
46329W        W 7640  20.747  13.269  12.472
46330W        W 7641  18.091   9.298  10.949
46331W        W 7642  33.990  14.734   2.736
46332W        W 7643   8.279   9.685   1.322
46333W        W 7644   9.245  41.030   2.774
46334W        W 7645  32.581  30.967   3.865
46335W        W 7646  28.965   5.724   1.355
46336W        W 7647   2.364  21.680   1.750
46337W        W 7648  32.051  13.723   2.778
46338W        W 7649  15.307  42.010  12.443
46339W        W 7650  10.142  16.207   4.626
46340W        W 7651   7.854  17.272   0.454
46341W        W 7652  16.156  31.990   0.906
46342W        W 7653  35.007  41.793  10.012
46343W        W 7654  44.957  11.185   1.789
46344W        W 7655  25.475  11.626  13.008
46345W        W 7656   0.494  23.624  13.402
46346W        W 7657  31.045  20.253   2.318
46347W        W 7658  28.155  14.251   2.844
46348W        W 7659  11.207  11.757   4.298
46349W        W 7660  23.128  28.536   2.254
46350W        W 7661  13.276  29.450  14.801
46351W        W 7662  24.991  41.810  14.833
46352W        W 7663  43.485  39.323   1.754
46353W        W 7664  11.341  20.539  14.004
46354W        W 7665  33.525  38.507   3.221
46355W        W 7666  30.632  29.163   4.721
46356W        W 7667  31.011  25.623   0.889
46357W        W 7668  31.631  36.886  10.410
46358W        W 7669  16.789  18.053  10.075
46359W        W 7670  26.466  20.624  12.093
46360W        W 7671  13.148  20.629   1.352
46361W        W 7672  26.172  41.511  13.498
46362W        W 7673  35.855  24.009   2.872
46363W        W 7674  29.107  35.966  13.508
46364W        W 7675  40.318  32.482   0.757
46365W        W 7676   4.750  26.556   0.839
46366W        W 7677  14.334  37.378   3.147
46367W        W 7678  27.568  25.072  12.411
46368W        W 7679   7.334   5.819   1.368
46369W        W 7680  37.875  34.540   4.263
46370W        W 7681   2.243  26.585  13.052
46371W        W 7682  10.274  33.885   3.695
46372W        W 7683   0.258  16.759  12.984
46373W        W 7684  33.496  35.456  11.475
46374W        W 7685  30.619  12.834   4.165
46375W        W 7686  44.897  35.529   3.759
46376W        W 7687  14.117   7.836   2.792
46377W        W 7688  36.932   9.889   0.457
46378W        W 7689  42.415  42.489  14.400
46379W        W 7690   8.888  42.287   3.871
46380W        W 7691  44.462   7.298   0.965
46381W        W 7692  35.103  24.012   4.332
46382W        W 7693  26.187   0.819   2.850
46383W        W 7694  22.212  34.579  11.916
46384W        W 7695  22.200  18.611  14.420
46385W        W 7696  41.033  35.916   0.409
46386W        W 7697  27.566  35.415  10.457
46387W        W 7698  19.257  22.066  11.956
46388W        W 7699   3.754  18.254   0.427
46389W        W 7700  33.952  38.921   1.297
46390W        W 7701  35.943  44.422   3.635
46391W        W 7702  33.015   8.804  11.477
46392W        W 7703   2.911  41.375  11.412
46393W        W 7704  38.348  16.706  10.525
46394W        W 7705  37.991  13.119  14.838
46395W        W 7706   5.299   1.337  14.939
46396W        W 7707   1.406   5.435   1.730
46397W        W 7708  31.945  28.508  12.055
46398W        W 7709  44.921   5.412   3.216
46399W        W 7710  38.845  12.672  13.469
46400W        W 7711  24.639   3.227  10.077
46401W        W 7712   5.320   7.207  10.954
46402W        W 7713  40.819  29.985   2.787
46403W        W 7714  24.536  13.206   2.319
46404W        W 7715  38.465  30.628  10.933
46405W        W 7716  12.344  26.700   2.671
46406W        W 7717  32.938  38.825   3.870
46407W        W 7718  41.954  38.365  12.897
46408W        W 7719   6.698  15.203  14.342
46409W        W 7720   2.280  24.482  11.931
46410W        W 7721  16.572  40.322  14.828
46411W        W 7722  10.264  19.602   3.835
46412W        W 7723  17.711   6.784   4.152
46413W        W 7724   2.276  16.591   0.772
46414W        W 7725  22.142  11.218   4.155
46415W        W 7726   4.319  15.206  11.010
46416W        W 7727  17.072  36.981   3.694
46417W        W 7728  16.086  33.901  13.470
46418W        W 7729  34.519  16.788  11.921
46419W        W 7730   7.226  23.562   3.776
46420W        W 7731  37.446  30.004  12.534
46421W        W 7732   2.240  34.423   4.823
46422W        W 7733  18.617  17.250   5.160
46423W        W 7734   3.322  44.389  11.547
46424W        W 7735  12.161  13.134  11.416
46425W        W 7736  23.548  38.053  11.028
46426W        W 7737  32.586  29.660   0.950
46427W        W 7738  41.513  42.918  10.949
46428W        W 7739  17.280   3.237   3.757
46429W        W 7740  20.671   3.327   2.728
46430W        W 7741   0.961  21.543   4.598
46431W        W 7742  30.536  30.982  11.476
46432W        W 7743  12.816  34.100  12.360
46433W        W 7744  37.438  24.073  11.997
46434W        W 7745  37.425  44.862  14.000
46435W        W 7746  37.907  27.665   3.826
46436W        W 7747  43.849  30.983   4.604
46437W        W 7748  18.730  40.432   2.774
46438W        W 7749   8.361  15.273  10.642
46439W        W 7750  27.451  11.799  13.803
46440W        W 7751   8.209  32.077  10.070
46441W        W 7752   4.346  44.937  13.931
46442W        W 7753  37.021   1.843   0.778
46443W        W 7754   7.786  16.127  14.002
46444W        W 7755  32.545  40.898  11.993
46445W        W 7756   6.261   9.808  13.507
46446W        W 7757   1.963  34.082  10.421
46447W        W 7758  19.694  14.660   3.718
46448W        W 7759  20.623  14.282   1.432
46449W        W 7760  34.935  31.646  13.474
46450W        W 7761  12.718  42.972   2.775
46451W        W 7762   5.267  38.999   0.835
46452W        W 7763  24.193   2.252  13.825
46453W        W 7764  22.521  34.502  10.471
46454W        W 7765  11.622  37.946  12.505
46455W        W 7766  37.545  41.937   3.843
46456W        W 7767  15.095  14.182   1.261
46457W        W 7768  26.565  39.824   2.788
46458W        W 7769   7.901  30.482  10.515
46459W        W 7770   0.817  12.634  11.113
46460W        W 7771   6.424  10.238   4.251
46461W        W 7772  10.380   5.812   5.253
46462W        W 7773  23.993  19.610   0.394
46463W        W 7774   0.283   6.917   1.382
46464W        W 7775  39.460   5.296   2.853
46465W        W 7776   1.434   8.876   2.276
46466W        W 7777  37.519   2.371   1.276
46467W        W 7778   9.742  29.129  13.859
46468W        W 7779  10.751  41.417  13.819
46469W        W 7780  20.639  24.031  11.459
46470W        W 7781  38.473  20.034   3.218
46471W        W 7782   0.339  44.867  14.366
46472W        W 7783  33.894  30.492   3.351
46473W        W 7784   6.374   0.303  11.471
46474W        W 7785  32.032  33.410   0.844
46475W        W 7786  16.306  26.518  12.536
46476W        W 7787   5.737  14.223   1.432
46477W        W 7788  30.073  14.098  12.081
46478W        W 7789  26.008  27.124   2.713
46479W        W 7790  33.403  34.944   5.210
46480W        W 7791  44.910  17.781   0.919
46481W        W 7792   3.820  17.063  13.836
46482W        W 7793   3.441  25.217   4.198
46483W        W 7794  40.904  13.112  14.431
46484W        W 7795  42.943  32.062   4.150
46485W        W 7796  28.051  34.876   0.433
46486W        W 7797  44.812  10.267   3.853
46487W        W 7798  35.525   0.433   4.757
46488W        W 7799   2.384  13.600   3.333
46489W        W 7800  42.982  16.310  13.895
46490W        W 7801  39.539  35.960   2.305
46491W        W 7802  23.182  26.683   0.917
46492W        W 7803   6.217  32.122  13.531
46493W        W 7804   1.966  40.857  12.414
46494W        W 7805  34.388  11.373   2.254
46495W        W 7806  12.353  35.856   2.871
46496W        W 7807   6.405  44.473  12.089
46497W        W 7808  28.143  17.141   1.788
46498W        W 7809  34.597  33.119   2.870
46499W        W 7810  40.829  28.956   4.313
46500W        W 7811  42.905  28.003  10.906
46501W        W 7812  14.175   9.849   1.807
46502W        W 7813  32.017  23.000  14.778
46503W        W 7814   7.794  41.796  12.385
46504W        W 7815  29.429  13.286   3.652
46505W        W 7816  37.833  26.179   2.375
46506W        W 7817   8.897   1.405  11.607
46507W        W 7818  21.161  19.135   2.826
46508W        W 7819  25.077  14.180   3.265
46509W        W 7820  36.472  16.095  12.920
46510W        W 7821  31.445   9.689  13.795
46511W        W 7822  37.921   3.290  12.846
46512W        W 7823  19.779  16.671   0.888
46513W        W 7824   4.374   9.840   4.722
46514W        W 7825  44.848   1.869   0.809
46515W        W 7826  22.644  32.510   2.337
46516W        W 7827  28.658  21.218   0.327
46517W        W 7828  43.399  41.916   3.739
46518W        W 7829   1.820  26.961  11.564
46519W        W 7830  34.523  16.643  13.989
46520W        W 7831  24.228  43.456   0.916
46521W        W 7832  42.939  30.496  10.983
46522W        W 7833   4.733  44.373  11.882
46523W        W 7834  10.264  38.919  11.493
46524W        W 7835   1.835  25.492  11.473
46525W        W 7836  32.077  40.940  11.461
46526W        W 7837  27.558  28.179   1.417
46527W        W 7838  33.020  32.524  13.457
46528W        W 7839  18.600  21.743  11.944
46529W        W 7840   6.313  21.256   4.301
46530W        W 7841  41.941   2.346  10.556
46531W        W 7842  25.706  39.917  11.002
46532W        W 7843  26.175  19.773  10.451
46533W        W 7844   2.449  10.678  10.487
46534W        W 7845  33.426  23.073  14.502
46535W        W 7846  40.988  17.143  11.519
46536W        W 7847  39.983  37.427  10.598
46537W        W 7848  28.950  40.849   3.273
46538W        W 7849   9.750  32.889  13.817
46539W        W 7850  10.167   0.494  11.983
46540W        W 7851   7.414  36.492  10.499
46541W        W 7852  10.194  21.651   3.299
46542W        W 7853  30.013  24.712   1.861
46543W        W 7854   1.298  16.707  13.433
46544W        W 7855   8.719  13.351   1.855
46545W        W 7856  43.962  25.493   1.240
46546W        W 7857  31.515  28.089  14.329
46547W        W 7858  27.156  24.049   0.373
46548W        W 7859  14.631  10.737  13.016
46549W        W 7860  10.810  37.067   4.114
46550W        W 7861  15.628  37.480  13.905
46551W        W 7862  40.802  32.923  13.804
46552W        W 7863  26.505  24.107  10.431
46553W        W 7864  22.746  42.794  12.390
46554W        W 7865   2.779  39.954   0.823
46555W        W 7866  40.975  13.344  11.929
46556W        W 7867   6.337  40.516   1.814
46557W        W 7868  30.417   3.286   2.808
46558W        W 7869  17.233  12.266  13.994
46559W        W 7870   3.769  17.586   1.321
46560W        W 7871  14.249  26.026  10.480
46561W        W 7872   8.853  27.544   2.888
46562W        W 7873  21.210  26.084   0.367
46563W        W 7874  42.828  15.666  13.857
46564W        W 7875  30.980   8.373  13.987
46565W        W 7876  16.576  40.011   2.825
46566W        W 7877  40.542  29.042  13.463
46567W        W 7878  11.772  36.404   3.824
46568W        W 7879  16.588  29.457   4.729
46569W        W 7880   0.908  42.474  12.959
46570W        W 7881  40.030  25.999   3.243
46571W        W 7882  17.589  25.558   9.562
46572W        W 7883   7.721  19.663   0.936
46573W        W 7884   4.288   4.341   0.480
46574W        W 7885  10.321  19.145  14.445
46575W        W 7886  27.575   6.187   2.838
46576W        W 7887  39.368  23.112  14.403
46577W        W 7888   8.789  39.514  11.530
46578W        W 7889  17.267   2.308  11.003
46579W        W 7890  14.616  10.187   0.964
46580W        W 7891  29.598   0.393  12.519
46581W        W 7892  41.506  22.703   2.230
46582W        W 7893  27.578   6.423  12.880
46583W        W 7894  41.041   9.821   3.236
46584W        W 7895   0.281  19.050   1.364
46585W        W 7896   6.294   1.334   3.341
46586W        W 7897   4.776  31.933   3.173
46587W        W 7898  38.076  34.538   2.209
46588W        W 7899  29.463   8.832   2.407
46589W        W 7900  23.541  28.103   1.322
46590W        W 7901  38.846  22.502  13.991
46591W        W 7902  13.627  31.637   2.710
46592W        W 7903  10.175   0.275   3.383
46593W        W 7904   5.285   6.375   9.969
46594W        W 7905   7.856  13.288  13.517
46595W        W 7906   6.409  31.441  10.571
46596W        W 7907  37.508  12.183   1.418
46597W        W 7908  30.623  31.024   2.250
46598W        W 7909  17.789   5.413  11.594
46599W        W 7910  22.639  10.769  14.462
46600W        W 7911   1.974   2.940  12.418
46601W        W 7912  41.379  19.204   4.705
46602W        W 7913   5.264  38.924   3.764
46603W        W 7914   1.734  43.273   3.668
46604W        W 7915   3.447  40.431   4.785
46605W        W 7916  43.495  42.824   4.737
46606W        W 7917  37.483  16.680  11.421
46607W        W 7918   9.813  25.520   2.339
46608W        W 7919  16.738   6.766  13.412
46609W        W 7920   3.350  34.505  11.427
46610W        W 7921  43.816  22.676   1.818
46611W        W 7922  21.256  34.418   4.231
46612W        W 7923  13.823  20.544  11.602
46613W        W 7924  43.376  25.653   4.777
46614W        W 7925  19.673  33.427  12.083
46615W        W 7926   1.398   8.708  14.362
46616W        W 7927   5.775  24.989   1.407
46617W        W 7928  31.934  16.112  12.962
46618W        W 7929  42.986  14.678  11.505
46619W        W 7930  31.555   2.273  12.576
46620W        W 7931  28.630  23.593   1.811
46621W        W 7932   2.776  37.516   0.888
46622W        W 7933  41.439  44.430   0.278
46623W        W 7934  15.641  14.825  14.971
46624W        W 7935   9.813  28.512  14.872
46625W        W 7936  40.468  34.936   2.887
46626W        W 7937  23.673  20.741  13.396
46627W        W 7938  27.620  44.764   0.473
46628W        W 7939  41.831  39.863  13.990
46629W        W 7940  23.500   2.400  10.613
46630W        W 7941   3.775   3.729   0.826
46631W        W 7942  18.191   3.382  13.960
46632W        W 7943   7.177  43.779   2.884
46633W        W 7944  24.999  17.655   3.731
46634W        W 7945   7.212  13.244  14.922
46635W        W 7946   4.868  31.445   4.201
46636W        W 7947  44.353  23.505  11.508
46637W        W 7948  38.868  18.210  12.037
46638W        W 7949  10.870  37.929  14.395
46639W        W 7950  34.435   8.691   4.199
46640W        W 7951  38.901  32.959  14.855
46641W        W 7952   0.438  44.946   0.767
46642W        W 7953  39.405  24.150   4.648
46643W        W 7954  40.919   5.695   3.377
46644W        W 7955   1.782  17.604  14.942
46645W        W 7956  21.074  20.149  10.117
46646W        W 7957  23.717  42.311  13.413
46647W        W 7958   7.697  25.176   3.204
46648W        W 7959  35.470  38.408  10.038
46649W        W 7960   9.713  17.750   2.305
46650W        W 7961  18.775  24.667  11.591
46651W        W 7962  11.213  20.112   2.815
46652W        W 7963  27.569  41.373   4.152
46653W        W 7964  38.071  20.061  14.478
46654W        W 7965  42.927  23.088  13.481
46655W        W 7966  34.070  34.454  12.087
46656W        W 7967  33.028  31.066   3.363
46657W        W 7968   2.409  17.678   1.385
46658W        W 7969  40.993  22.228  10.440
46659W        W 7970  21.193  14.305   4.793
46660W        W 7971  25.533  29.472  12.959
46661W        W 7972  20.248  43.826  14.473
46662W        W 7973  28.482  27.136  13.530
46663W        W 7974   7.258  35.516  12.892
46664W        W 7975  33.580  36.528   4.800
46665W        W 7976  15.194  26.480  14.993
46666W        W 7977  31.555  22.582  11.436
46667W        W 7978  23.672  15.105   4.268
46668W        W 7979  10.216  35.903  10.902
46669W        W 7980  18.626  11.217   4.330
46670W        W 7981  13.846  25.033   2.696
46671W        W 7982  34.545  27.687  10.419
46672W        W 7983  13.795  13.804   4.801
46673W        W 7984  39.835  19.601  14.366
46674W        W 7985  14.264  15.223  11.581
46675W        W 7986  28.596  36.517   0.385
46676W        W 7987  37.341  14.652  11.049
46677W        W 7988  26.051   8.751   4.633
46678W        W 7989   9.296  12.268  10.945
46679W        W 7990  29.439  26.961   0.729
46680W        W 7991  19.258  17.685  12.448
46681W        W 7992   2.266  37.840  13.372
46682W        W 7993  39.917  42.892   4.765
46683W        W 7994   9.247  26.159   0.948
46684W        W 7995  11.148  22.179   4.115
46685W        W 7996   6.790   8.694  10.642
46686W        W 7997  25.039  14.183   0.884
46687W        W 7998  27.465   9.882   3.332
46688W        W 7999  12.213   1.475   3.359
46689W        W 8000  23.712   0.872  11.395
46690W        W 8001  25.682  16.676  10.090
46691W        W 8002  29.653  19.105  13.482
46692W        W 8003  12.273  14.621  14.944
46693W        W 8004  24.977  14.136   2.671
46694W        W 8005  41.909  11.234  13.908
46695W        W 8006  31.972  28.968  11.908
46696W        W 8007  20.539  41.533   0.870
46697W        W 8008   1.895  41.319  12.449
46698W        W 8009  36.493  40.042  14.353
46699W        W 8010  35.996   8.725   3.815
46700W        W 8011  18.197   5.197   4.308
46701W        W 8012  30.115  24.654   0.318
46702W        W 8013  28.066   7.712  12.393
46703W        W 8014  17.781  10.637  13.344
46704W        W 8015  22.032  28.515  11.961
46705W        W 8016  41.364  31.956  11.474
46706W        W 8017  17.617  23.707   2.687
46707W        W 8018  32.395   5.701  13.913
46708W        W 8019  26.640  32.557   3.362
46709W        W 8020  40.943  23.571   0.300
46710W        W 8021  20.552  30.439  12.070
46711W        W 8022  24.198   5.729  11.895
46712W        W 8023  29.652  30.488   1.225
46713W        W 8024   4.758  31.125   4.706
46714W        W 8025  27.063  27.560   2.267
46715W        W 8026  26.070  24.576   4.610
46716W        W 8027  41.466  28.096   2.330
46717W        W 8028  33.973  18.749  11.599
46718W        W 8029  34.065  44.317   3.237
46719W        W 8030  33.976  24.511   3.812
46720W        W 8031   3.833  12.144  12.358
46721W        W 8032  24.485   4.807   3.721
46722W        W 8033  12.213  18.151   4.136
46723W        W 8034  39.954  32.561   2.750
46724W        W 8035  25.095  13.819   4.158
46725W        W 8036  18.744  38.045   0.849
46726W        W 8037   3.829  25.510   2.277
46727W        W 8038  13.244  16.731  14.873
46728W        W 8039  14.161  25.482  13.978
46729W        W 8040  39.902  30.659   4.184
46730W        W 8041  41.484  35.370   1.798
46731W        W 8042  42.943  44.489  14.760
46732W        W 8043  42.328  39.820   1.262
46733W        W 8044  37.976   1.452   3.828
46734W        W 8045  11.221  17.185  11.052
46735W        W 8046  21.180  44.003  12.482
46736W        W 8047  19.247   1.848   4.787
46737W        W 8048   4.706  16.143   3.807
46738W        W 8049  30.441  21.239  13.952
46739W        W 8050  14.704  12.300  12.933
46740W        W 8051  41.835  23.544   0.804
46741W        W 8052  40.983  36.917  12.535
46742W        W 8053  13.123   1.243   3.340
46743W        W 8054  31.087  22.164   4.608
46744W        W 8055  42.367  25.699   3.216
46745W        W 8056  37.570  44.478   2.281
46746W        W 8057   7.206  20.078  14.903
46747W        W 8058  17.251  43.297  10.969
46748W        W 8059  18.086   9.886   4.723
46749W        W 8060  16.105   5.198  11.507
46750W        W 8061  17.286   5.790  12.088
46751W        W 8062  15.666  42.438   4.238
46752W        W 8063  13.255  21.243   4.315
46753W        W 8064  37.502  22.245  13.822
46754W        W 8065  40.332  22.674   1.799
46755W        W 8066  37.468   8.219  14.867
46756W        W 8067  37.462  22.538   1.931
46757W        W 8068   7.782  20.541   4.183
46758W        W 8069  40.977  14.096  13.034
46759W        W 8070  32.027   0.282  14.960
46760W        W 8071  41.981  29.140  11.412
46761W        W 8072  29.480  25.710   3.637
46762W        W 8073  10.758  36.860  11.577
46763W        W 8074   3.460  32.475   1.930
46764W        W 8075  22.011  37.890   3.734
46765W        W 8076  33.498  41.367   1.769
46766W        W 8077   5.833  35.594  14.355
46767W        W 8078   5.748  13.636  12.875
46768W        W 8079   5.708   0.828   0.408
46769W        W 8080  14.718  26.505  12.860
46770W        W 8081  34.432   3.222  10.464
46771W        W 8082  29.155  18.669   3.834
46772W        W 8083  35.029   4.853   3.653
46773W        W 8084  41.795   4.381   4.217
46774W        W 8085  38.911   8.669   2.242
46775W        W 8086   5.415   0.401  11.032
46776W        W 8087  34.374   7.206   0.726
46777W        W 8088  16.101   7.850  14.762
46778W        W 8089  11.229  34.076  11.592
46779W        W 8090  22.552   5.814  13.396
46780W        W 8091   9.811  13.720   1.901
46781W        W 8092  33.977   2.788   4.714
46782W        W 8093  25.038   5.726  11.940
46783W        W 8094   6.239  30.954   4.344
46784W        W 8095  39.956  32.954  13.941
46785W        W 8096   5.238   5.275   3.869
46786W        W 8097   1.366   8.892   2.812
46787W        W 8098  26.458  16.738   0.879
46788W        W 8099  11.794  32.488   4.730
46789W        W 8100  13.127  43.979   1.323
46790W        W 8101  30.060  25.654  13.444
46791W        W 8102  12.686   6.718  12.035
46792W        W 8103  41.839  16.315  11.422
46793W        W 8104  18.052  17.567  10.074
46794W        W 8105  38.966   6.891  11.589
46795W        W 8106   2.337   8.207   3.360
46796W        W 8107  17.618   6.330  11.511
46797W        W 8108  32.574  10.190   4.770
46798W        W 8109   9.851  27.599  10.567
46799W        W 8110   0.326  36.977  14.275
46800W        W 8111  30.580  39.846   3.297
46801W        W 8112  26.621  10.774   2.278
46802W        W 8113  32.083  11.770  14.438
46803W        W 8114  23.995  34.079   0.757
46804W        W 8115  32.555  23.199   4.152
46805W        W 8116  32.427  44.000   0.266
46806W        W 8117   2.779  43.319   1.698
46807W        W 8118  34.583  17.684  12.376
46808W        W 8119  22.580   7.775  13.938
46809W        W 8120  23.120  32.895  12.350
46810W        W 8121  34.967   9.220   3.734
46811W        W 8122  11.790   3.821   3.766
46812W        W 8123  35.373  38.544   3.274
46813W        W 8124   5.905   1.285   3.208
46814W        W 8125  22.595  17.135  14.025
46815W        W 8126  41.903  37.559  14.894
46816W        W 8127  39.558  12.192   3.228
46817W        W 8128  20.628  24.036  12.963
46818W        W 8129  40.829  42.835   0.898
46819W        W 8130   1.808  20.647   0.388
46820W        W 8131  38.934  24.184  13.005
46821W        W 8132  30.069  35.521   0.844
46822W        W 8133  19.709  44.263  14.458
46823W        W 8134  26.607   1.481   4.604
46824W        W 8135   3.712  29.564   2.769
46825W        W 8136   2.407   6.327   0.909
46826W        W 8137  14.692  14.138   3.269
46827W        W 8138   3.831  26.077  13.412
46828W        W 8139  16.152   4.324  10.548
46829W        W 8140   3.313  29.984  13.452
46830W        W 8141  16.573  38.449   4.349
46831W        W 8142  21.017  17.087  12.991
46832W        W 8143   2.755  23.232   4.803
46833W        W 8144  40.803   9.189   3.329
46834W        W 8145  30.058  15.721  12.880
46835W        W 8146  28.513  15.085  10.488
46836W        W 8147  31.060  29.498  12.839
46837W        W 8148   5.292  26.637   1.337
46838W        W 8149   7.273  40.963   1.271
46839W        W 8150  31.126  12.295   0.290
46840W        W 8151  17.178  10.822   0.386
46841W        W 8152  35.895  39.449  11.527
46842W        W 8153  28.589  17.098  14.335
46843W        W 8154   6.380  18.253   1.841
46844W        W 8155  28.552  18.074   2.774
46845W        W 8156   5.210  27.152   2.785
46846W        W 8157  18.241  10.287  12.577
46847W        W 8158  22.524  24.067   1.274
46848W        W 8159   6.684  19.704   1.274
46849W        W 8160  16.733  43.849  10.940
46850W        W 8161  20.584  12.646  12.921
46851W        W 8162  21.659  38.950  10.523
46852W        W 8163  18.282  23.105   3.783
46853W        W 8164  10.245  17.669   1.697
46854W        W 8165  17.774  23.713   1.357
46855W        W 8166  31.405   7.176  14.338
46856W        W 8167  17.583  19.537  12.071
46857W        W 8168  43.919  39.358   4.617
46858W        W 8169  31.963   7.292   2.686
46859W        W 8170  35.036  35.552  12.494
46860W        W 8171   0.948   7.753  14.363
46861W        W 8172  31.097  42.781  13.012
46862W        W 8173  42.958  20.737   2.837
46863W        W 8174  22.609  11.251  11.403
46864W        W 8175   6.310  19.768  10.440
46865W        W 8176   5.211  34.878   3.659
46866W        W 8177   8.307  39.394   0.940
46867W        W 8178  29.166  14.138   1.794
46868W        W 8179  25.536   2.854  10.595
46869W        W 8180  30.539  11.319  13.000
46870W        W 8181  20.075  12.278  14.464
46871W        W 8182  35.469  17.216   4.690
46872W        W 8183  42.997  34.527  11.020
46873W        W 8184   1.777  10.314  10.062
46874W        W 8185  18.062  33.621   0.438
46875W        W 8186  40.831   1.935  11.429
46876W        W 8187  38.035  43.005  13.853
46877W        W 8188  26.048  29.628   1.254
46878W        W 8189  30.159  38.336   3.666
46879W        W 8190  44.498  20.638  10.488
46880W        W 8191  39.346  19.700   3.232
46881W        W 8192   8.264   6.864   3.846
46882W        W 8193  35.018   9.377  11.940
46883W        W 8194  18.084  10.771  13.803
46884W        W 8195   6.910  18.562   0.787
46885W        W 8196  13.152  19.270   3.662
46886W        W 8197  11.667  14.216  11.034
46887W        W 8198  11.365  11.178   2.861
46888W        W 8199   8.682  32.572   0.452
46889W        W 8200  44.467   4.398  11.087
46890W        W 8201   7.816  14.310   0.857
46891W        W 8202  39.885   4.844  10.935
46892W        W 8203  31.922   6.248  10.967
46893W        W 8204  38.536  28.002   0.836
46894W        W 8205  27.999  19.119   3.165
46895W        W 8206   2.764  38.414  14.997
46896W        W 8207   6.187  24.595  12.068
46897W        W 8208  15.753  25.547  11.565
46898W        W 8209  32.978  34.046   1.390
46899W        W 8210   2.782  10.297  11.486
46900W        W 8211  32.620  10.359  12.824
46901W        W 8212  17.154  36.869  10.473
46902W        W 8213   5.857   6.246  10.644
46903W        W 8214  19.216  43.965  12.464
46904W        W 8215  40.395  26.498  10.429
46905W        W 8216   7.315  44.351  10.463
46906W        W 8217  35.905  44.885  11.907
46907W        W 8218  17.767  22.046   4.827
46908W        W 8219   5.250  23.506  13.901
46909W        W 8220   1.326  20.274  11.464
46910W        W 8221  18.754   8.815   3.864
46911W        W 8222  42.429  17.653  10.442
46912W        W 8223  14.124  44.500  10.914
46913W        W 8224  33.908   0.316  12.494
46914W        W 8225   8.846  23.654   1.230
46915W        W 8226  37.030  32.973  13.366
46916W        W 8227  22.127  18.691   1.255
46917W        W 8228  35.593   0.400   3.734
46918W        W 8229  29.034   8.312   3.823
46919W        W 8230  26.607  28.183   2.329
46920W        W 8231  41.027  27.515  13.047
46921W        W 8232  15.662   7.752   4.196
46922W        W 8233  18.708  22.709  11.079
46923W        W 8234   6.738  31.153  11.472
46924W        W 8235  12.624   2.872   1.272
46925W        W 8236  13.839  22.149   3.380
46926W        W 8237  43.308  44.905  11.906
46927W        W 8238  22.064  26.602   4.800
46928W        W 8239  35.097   9.385  10.960
46929W        W 8240  37.498  23.639  14.508
46930W        W 8241   8.223   5.220  13.516
46931W        W 8242  20.679  42.838   1.772
46932W        W 8243  24.489  10.709   1.246
46933W        W 8244  44.912  16.148  11.927
46934W        W 8245  34.894  14.633  13.538
46935W        W 8246  29.594  23.125   1.326
46936W        W 8247   2.434  22.007   2.346
46937W        W 8248   8.396   9.823   4.686
46938W        W 8249  41.941  12.737  11.907
46939W        W 8250  29.578  32.462  13.534
46940W        W 8251   1.453  22.235  13.022
46941W        W 8252  36.077  26.190   2.418
46942W        W 8253   7.358  34.474   1.848
46943W        W 8254  24.170  42.463   1.780
46944W        W 8255  20.703  32.890  12.096
46945W        W 8256  33.580  15.729   3.307
46946W        W 8257  34.406  39.422   3.775
46947W        W 8258  19.094  10.787  12.986
46948W        W 8259  25.035  18.277   0.801
46949W        W 8260  44.382  35.997   3.767
46950W        W 8261   2.736  27.635  12.530
46951W        W 8262  33.494  20.596  10.583
46952W        W 8263   5.406   6.793  11.606
46953W        W 8264  25.561  10.693   1.332
46954W        W 8265  43.017  18.605  12.846
46955W        W 8266   8.715  27.104   3.806
46956W        W 8267  37.036  20.256  10.475
46957W        W 8268  25.683   6.197  14.288
46958W        W 8269  19.751  42.792   5.307
46959W        W 8270  20.620  12.235   3.847
46960W        W 8271  15.753  14.144  12.439
46961W        W 8272  25.603  11.807  13.899
46962W        W 8273  20.669  15.262   1.304
46963W        W 8274  17.735   7.258   1.429
46964W        W 8275  26.996  31.611   0.926
46965W        W 8276  29.974  22.101   3.302
46966W        W 8277  33.128  36.974  10.999
46967W        W 8278  16.122  40.457  10.569
46968W        W 8279   6.199   1.911   3.182
46969W        W 8280  36.589   7.327  13.323
46970W        W 8281  16.657  42.488   3.701
46971W        W 8282  43.799  30.490  14.466
46972W        W 8283   5.820  28.623   3.817
46973W        W 8284   6.763   2.874  13.409
46974W        W 8285   0.973  40.495  12.531
46975W        W 8286  27.129  18.654  10.147
46976W        W 8287  22.056   3.340  14.313
46977W        W 8288  14.339  25.689  10.136
46978W        W 8289  22.732  30.652   1.212
46979W        W 8290  21.608  10.298   4.669
46980W        W 8291  33.568   8.775   1.406
46981W        W 8292  37.950  22.559  10.151
46982W        W 8293  43.401  12.225  13.975
46983W        W 8294   5.795   4.232   1.832
46984W        W 8295  16.680   1.458  14.825
46985W        W 8296   8.694  27.056   2.289
46986W        W 8297  36.019   2.402  13.382
46987W        W 8298  31.098  44.302   5.155
46988W        W 8299  17.802   4.770  13.372
46989W        W 8300  27.159  10.682   1.723
46990W        W 8301  38.025  23.045   4.698
46991W        W 8302  32.424   7.408   1.320
46992W        W 8303  42.864  11.308   2.774
46993W        W 8304  28.011  18.138   1.934
46994W        W 8305  23.572  31.534   1.359
46995W        W 8306  22.742  15.665  10.429
46996W        W 8307  34.457  33.939   9.452
46997W        W 8308  26.508  30.521   2.709
46998W        W 8309  26.481  26.181   3.224
46999W        W 8310  35.082  35.082  11.430
47000W        W 8311  35.535  38.459  13.045
47001W        W 8312  11.264  42.921   2.362
47002W        W 8313  22.088  25.077   1.797
47003W        W 8314  35.386  27.062   0.418
47004W        W 8315  40.489  26.040   2.722
47005W        W 8316  30.976  25.587   2.674
47006W        W 8317  43.877  40.456  14.951
47007W        W 8318  10.185  16.746  11.989
47008W        W 8319  37.488  40.907  12.446
47009W        W 8320  19.126  24.200  14.368
47010W        W 8321  33.005  42.975   2.756
47011W        W 8322  26.523  29.108  13.017
47012W        W 8323  41.488  43.849  10.589
47013W        W 8324  11.661  27.031  12.463
47014W        W 8325  21.513  14.689  11.463
47015W        W 8326  27.547  10.316  14.970
47016W        W 8327  41.483  37.837   0.428
47017W        W 8328  35.502  36.356   2.824
47018W        W 8329  11.774  24.688   3.256
47019W        W 8330  11.849  25.510   9.525
47020W        W 8331  32.508  23.216  13.317
47021W        W 8332  41.802  33.886   1.824
47022W        W 8333  12.214  20.256   4.720
47023W        W 8334  44.427  10.211   2.328
47024W        W 8335  11.355   2.803   4.727
47025W        W 8336   1.411  33.034  12.054
47026W        W 8337  14.732  19.651   0.248
47027W        W 8338  34.485  16.643   3.189
47028W        W 8339  13.172  18.696  13.802
47029W        W 8340  17.285  10.155  10.905
47030W        W 8341   1.886  19.731   4.136
47031W        W 8342  10.795  41.907   0.277
47032W        W 8343   2.446   0.477  10.902
47033W        W 8344  19.243  41.494   1.259
47034W        W 8345  37.422   2.897   4.613
47035W        W 8346  33.105  36.382   1.260
47036W        W 8347  30.051  39.986  13.519
47037W        W 8348  22.647  14.139  14.925
47038W        W 8349  19.051  13.125   3.371
47039W        W 8350   7.858  42.973   3.815
47040W        W 8351  43.509  30.644   3.732
47041W        W 8352  40.818   3.871  11.032
47042W        W 8353   8.337   4.283  13.865
47043W        W 8354  12.811  15.136   3.338
47044W        W 8355  23.188  26.953   5.173
47045W        W 8356   2.858  36.073  14.507
47046W        W 8357  38.369  25.658   1.307
47047W        W 8358   9.294  19.761   4.805
47048W        W 8359  42.980  31.130   2.355
47049W        W 8360  15.277  23.065  11.022
47050W        W 8361  33.411  11.130  12.875
47051W        W 8362  18.638  43.950   1.717
47052W        W 8363  17.699   3.324  12.930
47053W        W 8364  37.476   8.812  10.020
47054W        W 8365  30.552  42.013   0.761
47055W        W 8366  36.001  28.953  13.430
47056W        W 8367  14.307  40.847  10.480
47057W        W 8368  23.686  25.484   1.269
47058W        W 8369   7.236  12.167   4.775
47059W        W 8370   7.396   0.759  11.415
47060W        W 8371   4.336   0.763   2.355
47061W        W 8372  36.521   1.841  11.066
47062W        W 8373  30.590  44.365   1.908
47063W        W 8374  41.372  38.370   2.231
47064W        W 8375  15.603   9.318  11.480
47065W        W 8376  11.135  19.185   1.352
47066W        W 8377  15.703  42.902  10.601
47067W        W 8378  14.147  39.851  12.377
47068W        W 8379  19.647  36.453  12.466
47069W        W 8380   9.245  31.579  14.902
47070W        W 8381  44.901  16.191   4.693
47071W        W 8382  38.495   1.450  13.490
47072W        W 8383  40.519   4.913  12.473
47073W        W 8384  15.106  26.127  11.081
47074W        W 8385  15.165   4.873  12.965
47075W        W 8386  23.164  27.604  14.380
47076W        W 8387  38.566  41.022   2.216
47077W        W 8388  40.885  37.470  11.396
47078W        W 8389   7.353  36.448   4.795
47079W        W 8390  25.175  24.626  11.120
47080W        W 8391  21.021   0.952  14.378
47081W        W 8392   6.390   0.814   4.259
47082W        W 8393  12.719  43.317   1.842
47083W        W 8394  27.169  36.858   0.371
47084W        W 8395  13.764   2.227  12.474
47085W        W 8396  40.844  19.185  11.048
47086W        W 8397  30.526   5.223  11.584
47087W        W 8398  37.912  22.746  10.474
47088W        W 8399  44.011   0.259  12.502
47089W        W 8400   2.361  33.486  12.841
47090W        W 8401   7.337   3.788   3.311
47091W        W 8402  44.898  10.199  11.029
47092W        W 8403  24.507  12.329   2.337
47093W        W 8404   7.199  19.201  12.339
47094W        W 8405  18.127  16.617   1.373
47095W        W 8406  36.481  44.498  12.062
47096W        W 8407  16.638   4.774  14.433
47097W        W 8408  22.136  16.314  13.921
47098W        W 8409   3.297  34.581  12.935
47099W        W 8410  30.073  18.090   4.149
47100W        W 8411  22.523  37.995   2.225
47101W        W 8412  22.126  23.725  13.858
47102W        W 8413  25.996  10.194   0.411
47103W        W 8414   1.821  24.583  10.581
47104W        W 8415  34.954  21.134   4.170
47105W        W 8416   7.260   1.732   1.772
47106W        W 8417   7.387  11.746   0.906
47107W        W 8418  29.511  42.804  10.971
47108W        W 8419  30.637  17.284   2.233
47109W        W 8420  15.761  29.465  14.925
47110W        W 8421  23.144  44.941   3.854
47111W        W 8422  32.513  41.872  12.870
47112W        W 8423  38.822  23.121   1.410
47113W        W 8424  31.076   1.875  10.949
47114W        W 8425   3.761  44.413  14.788
47115W        W 8426  23.036  18.742  11.427
47116W        W 8427   7.828  26.139  13.802
47117W        W 8428  17.216  38.896  13.313
47118W        W 8429  23.550  19.595  11.118
47119W        W 8430  15.284  36.953   4.211
47120W        W 8431  44.952  43.957   3.633
47121W        W 8432   8.882  21.691   1.819
47122W        W 8433  39.329  35.086   3.648
47123W        W 8434  15.154   6.325  14.999
47124W        W 8435   1.878   0.848   0.950
47125W        W 8436  22.204  29.153  13.921
47126W        W 8437  30.454  38.036   3.246
47127W        W 8438  27.464  30.938  10.496
47128W        W 8439   3.768  12.675   2.297
47129W        W 8440  44.926  37.506   1.914
47130W        W 8441  42.428   2.378   1.427
47131W        W 8442  23.551  36.050   3.248
47132W        W 8443  43.407  34.052   0.908
47133W        W 8444  32.015  14.212   4.781
47134W        W 8445  43.777  12.679  12.578
47135W        W 8446  35.599  21.121  13.436
47136W        W 8447  23.630  39.016   1.735
47137W        W 8448   8.860   4.324   2.349
47138W        W 8449   3.785   7.764   0.348
47139W        W 8450  25.022   1.239   1.875
47140W        W 8451  11.239  37.385  14.922
47141W        W 8452   9.355   8.365  10.990
47142W        W 8453   6.231  19.635   0.300
47143W        W 8454  30.659  19.647   0.966
47144W        W 8455  25.473   2.319  10.559
47145W        W 8456  21.641  17.179  12.038
47146W        W 8457   9.379   7.294  13.045
47147W        W 8458  13.758  31.524   4.304
47148W        W 8459  28.587  35.049   0.801
47149W        W 8460   9.731  44.822   1.695
47150W        W 8461  25.017   0.477   1.284
47151W        W 8462  26.974  26.193  14.784
47152W        W 8463  34.875  11.210   2.240
47153W        W 8464  29.442  23.124   2.701
47154W        W 8465  44.879   6.915   3.673
47155W        W 8466   7.868  11.777  10.492
47156W        W 8467  31.114  32.545  10.894
47157W        W 8468  34.536  42.808  11.044
47158W        W 8469   3.757  43.360  14.461
47159W        W 8470  11.274  35.473   1.297
47160W        W 8471   9.293   6.773   2.848
47161W        W 8472   6.409   9.777   4.600
47162W        W 8473   1.346  44.365  10.529
47163W        W 8474  16.205  29.123  10.560
47164W        W 8475  20.097  25.010   5.222
47165W        W 8476  16.314  20.206   3.865
47166W        W 8477   1.260  44.823  14.392
47167W        W 8478  35.003  43.872   1.887
47168W        W 8479  25.211  26.104   2.332
47169W        W 8480  15.751  36.450  11.459
47170W        W 8481  11.791   0.894  11.998
47171W        W 8482  44.489  37.837  14.877
47172W        W 8483  24.228   8.866   1.400
47173W        W 8484  10.634  31.452   3.739
47174W        W 8485  44.866  25.654  14.293
47175W        W 8486   4.343  23.098   2.372
47176W        W 8487  26.002   4.251  12.940
47177W        W 8488   5.748  20.163  14.907
47178W        W 8489  35.438  44.494  14.516
47179W        W 8490   4.274  34.029  14.941
47180W        W 8491  36.966  18.709  14.292
47181W        W 8492   5.308  31.507   1.226
47182W        W 8493  17.284  35.092   2.670
47183W        W 8494   0.449  15.682  12.516
47184W        W 8495   6.244  31.039   3.255
47185W        W 8496  26.632   1.277  10.558
47186W        W 8497  17.297   0.879  11.372
47187W        W 8498  29.160   2.409  14.359
47188W        W 8499  14.600  16.712  10.475
47189W        W 8500  17.168  35.856  13.520
47190W        W 8501   1.840  10.217  11.869
47191W        W 8502   9.289   0.398  11.424
47192W        W 8503  30.656  30.966   0.807
47193W        W 8504  38.444  26.177   4.755
47194W        W 8505  23.121  19.067   4.306
47195W        W 8506  20.190  25.097  10.458
47196W        W 8507  26.109   5.800  14.800
47197W        W 8508   2.801  27.136   3.741
47198W        W 8509  26.130  27.099  10.565
47199W        W 8510  17.122  31.002   3.189
47200W        W 8511  40.303  11.643  11.919
47201W        W 8512  36.900  29.045  12.451
47202W        W 8513  29.440  23.572   2.299
47203W        W 8514  21.211  22.155  11.546
47204W        W 8515   5.862   2.739   4.655
47205W        W 8516  43.500  39.952  13.442
47206W        W 8517   2.310  43.406  11.600
47207W        W 8518  13.795  44.927  12.901
47208W        W 8519  41.902  14.197  10.471
47209W        W 8520   7.227   3.434   2.683
47210W        W 8521  34.501  10.150   1.792
47211W        W 8522  27.603  33.045  12.909
47212W        W 8523  10.353  12.639  11.088
47213W        W 8524   6.294   0.806   2.767
47214W        W 8525  27.625  39.911  12.846
47215W        W 8526   1.317  29.505  12.855
47216W        W 8527   8.313  12.614   2.800
47217W        W 8528  16.262  31.588   2.764
47218W        W 8529  37.372  44.988  10.620
47219W        W 8530  18.241  23.664   2.317
47220W        W 8531   4.870  41.796   0.780
47221W        W 8532   1.773  44.958  13.867
47222W        W 8533  42.433   4.833   1.859
47223W        W 8534  20.151   6.245   0.809
47224W        W 8535  30.146   2.864  14.497
47225W        W 8536  23.610  10.319  10.991
47226W        W 8537  32.518   7.258  14.487
47227W        W 8538  38.412  15.116  14.475
47228W        W 8539   4.856  13.238   3.786
47229W        W 8540  37.439  25.180   3.747
47230W        W 8541  29.977  16.713  11.985
47231W        W 8542  43.901  24.603   0.924
47232W        W 8543  16.643  34.415  10.532
47233W        W 8544  16.117   5.351   1.886
47234W        W 8545  30.624  17.596   3.378
47235W        W 8546  34.900   0.394   3.179
47236W        W 8547  40.350  21.157  12.988
47237W        W 8548  16.701  16.256   4.344
47238W        W 8549  17.266   1.346   1.895
47239W        W 8550   3.739  13.229  12.525
47240W        W 8551  36.956  20.607   2.811
47241W        W 8552  27.552  21.545   0.359
47242W        W 8553   9.674  26.633  10.547
47243W        W 8554   1.372  42.389   4.190
47244W        W 8555   8.791  39.363   4.215
47245W        W 8556  12.788  23.210   3.828
47246W        W 8557  36.565  12.661   3.672
47247W        W 8558  32.084  35.863   0.334
47248W        W 8559   1.857  25.990  11.578
47249W        W 8560  40.418  39.346  11.076
47250W        W 8561  26.545   6.379  14.333
47251W        W 8562  19.742   8.268   4.815
47252W        W 8563  10.751  38.884   0.956
47253W        W 8564  16.278  14.695  14.284
47254W        W 8565   9.722  43.001   1.877
47255W        W 8566   1.425  42.806   5.099
47256W        W 8567  12.221  32.637   0.309
47257W        W 8568  39.944  27.514   3.386
47258W        W 8569  20.755  40.311   1.737
47259W        W 8570  29.121   1.800  13.793
47260W        W 8571  40.033   1.382   4.693
47261W        W 8572  39.953  39.949  10.988
47262W        W 8573  23.734  44.272  14.951
47263W        W 8574   6.386  42.944   2.759
47264W        W 8575  40.933  17.635  11.120
47265W        W 8576   6.300  39.510   4.230
47266W        W 8577  31.968  22.215  11.544
47267W        W 8578  43.403  34.536   1.421
47268W        W 8579  28.453  23.180   1.218
47269W        W 8580  20.253  39.323   2.377
47270W        W 8581  40.820  16.084   4.199
47271W        W 8582  21.638  22.546  12.945
47272W        W 8583  39.916  24.550   2.325
47273W        W 8584  39.558  41.518  14.489
47274W        W 8585   9.842  24.662   1.240
47275W        W 8586  18.075  42.329  12.056
47276W        W 8587  10.687   9.291   4.817
47277W        W 8588  31.073  16.105  12.931
47278W        W 8589   1.851  19.200  13.057
47279W        W 8590  30.542  25.209  14.798
47280W        W 8591   9.170  44.973   0.361
47281W        W 8592  35.391   3.231  14.432
47282W        W 8593   2.783  31.038   2.391
47283W        W 8594   6.344  30.481  13.836
47284W        W 8595  35.505  18.672  10.889
47285W        W 8596  41.952   5.910  14.766
47286W        W 8597   3.874  33.943   3.250
47287W        W 8598   6.842  41.866   4.339
47288W        W 8599  19.726  10.863  13.312
47289W        W 8600  24.104  40.537  14.028
47290W        W 8601  41.414  44.826  13.315
47291W        W 8602  17.798  13.267   4.660
47292W        W 8603  35.407  35.524   4.173
47293W        W 8604  15.172  12.270  11.976
47294W        W 8605  39.066  28.675   4.804
47295W        W 8606   1.412  42.996  14.929
47296W        W 8607  40.395  43.927  11.523
47297W        W 8608  24.687  15.293  13.458
47298W        W 8609  23.150  21.731  11.380
47299W        W 8610   3.829  18.726  12.550
47300W        W 8611  10.774  11.830   2.266
47301W        W 8612   0.328  26.672   0.853
47302W        W 8613  31.119  43.941  14.498
47303W        W 8614  41.474  33.520   3.827
47304W        W 8615  33.110  24.003   0.820
47305W        W 8616  23.499  29.661   0.831
47306W        W 8617   6.185  11.644  14.766
47307W        W 8618  31.025  29.667   2.755
47308W        W 8619   3.254   0.370   1.710
47309W        W 8620  37.987   3.442  10.594
47310W        W 8621  25.497  33.414   1.912
47311W        W 8622  25.670   8.753   3.752
47312W        W 8623  13.752   4.829   3.736
47313W        W 8624   6.185  18.228   0.372
47314W        W 8625  36.945   6.721  14.317
47315W        W 8626  42.476  22.606  14.813
47316W        W 8627   9.343  10.214   3.258
47317W        W 8628  32.550  27.523  12.832
47318W        W 8629  33.456  10.209   4.311
47319W        W 8630  32.062  38.862   3.855
47320W        W 8631  15.701  28.097   0.262
47321W        W 8632  39.338  14.695  14.513
47322W        W 8633  29.156  22.191  12.431
47323W        W 8634  19.175  12.635   2.346
47324W        W 8635  35.012  43.923  14.416
47325W        W 8636   0.455  21.652  13.315
47326W        W 8637  12.757  28.144   1.427
47327W        W 8638  33.048  36.522  12.382
47328W        W 8639   2.395  19.671   2.679
47329W        W 8640  27.082  19.773   3.190
47330W        W 8641  30.646  14.693  11.064
47331W        W 8642  15.751   0.429   4.234
47332W        W 8643  20.579   6.679   3.297
47333W        W 8644  22.612   7.675   1.428
47334W        W 8645  18.680  36.522   3.182
47335W        W 8646  39.901  20.630   0.337
47336W        W 8647  24.643  12.264   3.847
47337W        W 8648  28.114  22.519   3.862
47338W        W 8649  20.246  37.533  14.442
47339W        W 8650  27.530  33.113   3.802
47340W        W 8651  15.312   0.335  14.507
47341W        W 8652   3.253  29.097   0.358
47342W        W 8653  12.711  14.128  12.475
47343W        W 8654  40.846  22.217   1.293
47344W        W 8655  27.572  40.029   3.266
47345W        W 8656   8.703  37.564   2.218
47346W        W 8657  19.258  13.622   2.889
47347W        W 8658  34.886   0.804  12.019
47348W        W 8659  25.545  27.168  14.386
47349W        W 8660  27.942  10.316   0.329
47350W        W 8661  34.402  40.808   4.609
47351W        W 8662  41.456  10.228   3.158
47352W        W 8663  24.210  16.164   1.429
47353W        W 8664  20.212  29.955   3.261
47354W        W 8665  43.828   6.848  11.041
47355W        W 8666  27.585   3.868   0.287
47356W        W 8667  26.550  18.778   3.180
47357W        W 8668  40.025  30.528  14.314
47358W        W 8669   3.764   3.452   0.742
47359W        W 8670  13.657  24.488   3.219
47360W        W 8671  21.062  24.534  10.508
47361W        W 8672  40.514  11.314  11.453
47362W        W 8673  40.028  40.004  13.918
47363W        W 8674  14.695   1.908  10.435
47364W        W 8675   3.436  41.953  13.824
47365W        W 8676  30.540   6.896  11.466
47366W        W 8677   4.938   0.961   4.639
47367W        W 8678  25.064  10.160  12.013
47368W        W 8679  28.610  32.014   1.904
47369W        W 8680  30.641  17.741  11.868
47370W        W 8681   1.379  39.046   0.365
47371W        W 8682  29.658  23.153  11.605
47372W        W 8683  18.189  32.934   3.208
47373W        W 8684  20.185   8.874   3.758
47374W        W 8685  14.698  19.125  10.429
47375W        W 8686  37.403   5.372   3.301
47376W        W 8687  20.257  30.060  13.392
47377W        W 8688  22.133  12.277  11.055
47378W        W 8689  24.487  21.256   1.340
47379W        W 8690  22.081  34.106   1.276
47380W        W 8691  32.994  22.614   0.471
47381W        W 8692   8.295   5.360   2.684
47382W        W 8693  21.113  32.117  11.018
47383W        W 8694   0.482  35.992   3.223
47384W        W 8695  31.086  11.645   2.765
47385W        W 8696  26.684   5.796   3.652
47386W        W 8697  15.159  38.495   2.676
47387W        W 8698  23.167  39.853  11.441
47388W        W 8699  25.172  40.497   2.734
47389W        W 8700   7.871   8.680   2.349
47390W        W 8701   9.724  22.576  14.025
47391W        W 8702  44.405  20.262  13.011
47392W        W 8703   7.355  40.444   0.857
47393W        W 8704  19.776  18.724   3.382
47394W        W 8705   0.752  44.811  10.467
47395W        W 8706  14.194  22.242   4.338
47396W        W 8707  24.121  10.243   9.939
47397W        W 8708  21.660   3.290   2.327
47398W        W 8709  34.380  22.168  10.977
47399W        W 8710  36.573  44.304   4.330
47400W        W 8711  22.653   0.833  13.541
47401W        W 8712  24.119  33.875   5.255
47402W        W 8713  12.738  19.714   4.762
47403W        W 8714  21.075  20.551   1.919
47404W        W 8715  21.539  19.236   2.815
47405W        W 8716  35.361  25.524   4.267
47406W        W 8717  36.583   6.187  14.399
47407W        W 8718   5.771  43.445   3.823
47408W        W 8719  27.189  23.163   4.308
47409W        W 8720  18.282  36.866  13.831
47410W        W 8721  14.314  32.473   2.710
47411W        W 8722  31.592  42.928  12.412
47412W        W 8723  27.001  14.241   3.247
47413W        W 8724   0.800   3.914  12.574
47414W        W 8725  20.683  27.610   2.673
47415W        W 8726  13.783  44.885  11.539
47416W        W 8727   2.937  21.758   0.829
47417W        W 8728  36.918  22.533   2.834
47418W        W 8729  28.617  33.598   4.199
47419W        W 8730  17.190  20.151  13.807
47420W        W 8731   9.339  11.838  12.005
47421W        W 8732  19.606   4.409  11.585
47422W        W 8733  31.617  11.640  13.836
47423W        W 8734  11.336  30.128   1.730
47424W        W 8735   5.423   2.471   3.713
47425W        W 8736  41.804  30.105  10.977
47426W        W 8737   2.934  36.012   4.822
47427W        W 8738  13.115  43.317   3.283
47428W        W 8739   4.812  43.496   2.840
47429W        W 8740  43.388  19.743  12.441
47430W        W 8741  41.474  23.069  11.025
47431W        W 8742  41.512  26.683   0.340
47432W        W 8743   4.402   1.866   3.174
47433W        W 8744  36.997  28.108  10.419
47434W        W 8745  33.503   0.334   0.868
47435W        W 8746   9.825  38.029  12.032
47436W        W 8747  30.414  36.898   0.928
47437W        W 8748   7.681  24.511   0.338
47438W        W 8749  13.670  22.995   4.829
47439W        W 8750  33.006  16.283   3.840
47440W        W 8751   0.836  12.117   1.849
47441W        W 8752  25.096   3.383  14.850
47442W        W 8753   3.902  12.722  11.464
47443W        W 8754  26.690  36.349   5.100
47444W        W 8755  42.919  12.654  12.830
47445W        W 8756  44.001   2.892  11.010
47446W        W 8757  43.910  25.121  10.986
47447W        W 8758  16.309  31.524   3.815
47448W        W 8759  37.359  37.017  11.041
47449W        W 8760  40.311   2.855   2.816
47450W        W 8761  24.062  27.105  12.027
47451W        W 8762  34.918  38.911   2.849
47452W        W 8763   2.751  37.015  14.339
47453W        W 8764  20.235   8.350   4.173
47454W        W 8765  36.537  13.825  10.899
47455W        W 8766  43.021  26.601   3.293
47456W        W 8767  33.087   3.923   2.267
47457W        W 8768  37.018   7.216  12.994
47458W        W 8769  24.207  20.527  11.424
47459W        W 8770  19.725   4.875   0.928
47460W        W 8771  25.501  15.305  11.045
47461W        W 8772  11.765  31.094   0.874
47462W        W 8773  38.003  26.644   9.923
47463W        W 8774  21.074  15.623   2.887
47464W        W 8775  36.489  21.750  14.816
47465W        W 8776  35.926  15.147  12.987
47466W        W 8777  23.030  32.528  12.905
47467W        W 8778  40.340  28.151   4.622
47468W        W 8779  44.001  40.313   2.229
47469W        W 8780  43.961  16.781  11.966
47470W        W 8781  38.359  33.055   4.181
47471W        W 8782  44.858  39.541   1.282
47472W        W 8783  41.793  43.776   2.780
47473W        W 8784  13.193  14.802  12.025
47474W        W 8785   3.805  13.809  12.042
47475W        W 8786  13.712  41.488   0.477
47476W        W 8787  31.520   2.757  13.006
47477W        W 8788  35.414  44.802   4.161
47478W        W 8789  25.601  41.522   1.426
47479W        W 8790  13.703  12.141   4.348
47480W        W 8791  34.494  27.952  14.372
47481W        W 8792  29.526   4.882  10.511
47482W        W 8793  17.603  29.516   2.335
47483W        W 8794  44.998  17.632   4.289
47484W        W 8795  39.920  42.881   2.251
47485W        W 8796  44.871  37.080   3.775
47486W        W 8797  15.713  38.998  10.516
47487W        W 8798  17.725  14.651   0.878
47488W        W 8799  39.025  18.164  14.308
47489W        W 8800  22.549   8.844   2.728
47490W        W 8801   6.362  16.244  14.834
47491W        W 8802  15.607  39.049   0.357
47492W        W 8803   5.410   7.706  13.938
47493W        W 8804  42.924   0.947   0.440
47494W        W 8805  26.638   6.347  13.062
47495W        W 8806   3.823   6.841   2.761
47496W        W 8807  37.536   3.357  13.861
47497W        W 8808   4.744  15.765   5.091
47498W        W 8809  17.612  13.139  11.431
47499W        W 8810  19.578   2.385   4.727
47500W        W 8811  31.134   7.235   1.796
47501W        W 8812   9.316  10.825   0.414
47502W        W 8813  32.000   0.743  10.459
47503W        W 8814  18.190  27.571  10.474
47504W        W 8815  42.847   0.435  13.906
47505W        W 8816  25.078  13.324  13.923
47506W        W 8817  20.198  29.154  13.058
47507W        W 8818  28.528  10.276  13.813
47508W        W 8819  37.907  42.840   4.781
47509W        W 8820  32.492   3.719  11.077
47510W        W 8821  16.607  24.038  13.358
47511W        W 8822   2.731  16.228  13.884
47512W        W 8823   3.725  10.340   9.935
47513W        W 8824  28.089  36.568  10.921
47514W        W 8825  39.928  14.721   3.708
47515W        W 8826  21.647  12.360  11.928
47516W        W 8827  29.451  11.764  11.916
47517W        W 8828  41.409  39.817   2.220
47518W        W 8829  44.281   8.341  12.837
47519W        W 8830  41.016  11.724  11.072
47520W        W 8831  27.593  12.133   0.856
47521W        W 8832   9.283  43.792   4.600
47522W        W 8833  12.146  22.508   3.229
47523W        W 8834   3.888  25.548   3.700
47524W        W 8835  44.376  37.524   1.234
47525W        W 8836  13.115  29.566   1.752
47526W        W 8837  14.698  29.560   2.664
47527W        W 8838  29.625  39.510   1.810
47528W        W 8839   3.714  24.509   1.290
47529W        W 8840   1.349   1.870   3.818
47530W        W 8841   6.681  26.053   4.748
47531W        W 8842  26.020  37.514  10.989
47532W        W 8843  38.329  20.094  11.997
47533W        W 8844  28.068  36.353  13.374
47534W        W 8845   7.224  34.547   1.438
47535W        W 8846   7.813  39.958  12.580
47536W        W 8847  27.457  40.814  11.080
47537W        W 8848  41.452   9.766  14.905
47538W        W 8849  20.201  32.037   2.198
47539W        W 8850   2.817  30.912  10.613
47540W        W 8851  29.976  40.439  14.389
47541W        W 8852   0.390  17.154  13.309
47542W        W 8853  31.008  25.976   3.352
47543W        W 8854  22.018   9.202   3.796
47544W        W 8855  17.593  13.131   5.649
47545W        W 8856  15.799  26.025   1.866
47546W        W 8857  24.017   9.791  11.431
47547W        W 8858  26.029  41.983   0.420
47548W        W 8859  27.195   3.900  11.935
47549W        W 8860  19.717  37.919  10.524
47550W        W 8861  36.016  14.681  12.052
47551W        W 8862  33.888  42.021   3.207
47552W        W 8863  28.488  12.119  11.575
47553W        W 8864  39.062   7.845  14.280
47554W        W 8865  13.845  36.983  13.811
47555W        W 8866  32.481  12.262   2.258
47556W        W 8867  11.763  14.187   1.362
47557W        W 8868  16.312  29.948  10.566
47558W        W 8869  37.359  11.249   2.809
47559W        W 8870  16.186  25.978  10.540
47560W        W 8871  17.717  14.109   1.835
47561W        W 8872  33.561   2.915  12.579
47562W        W 8873  12.236  41.003   2.326
47563W        W 8874  15.625  20.114   2.857
47564W        W 8875  40.948  10.375   1.396
47565W        W 8876   4.350  11.727  13.405
47566W        W 8877  30.136  11.665   2.692
47567W        W 8878  32.585  15.140  12.398
47568W        W 8879  34.432   9.775  10.410
47569W        W 8880  40.918  24.089  13.945
47570W        W 8881  29.176  39.390   1.888
47571W        W 8882  31.943   9.286   2.254
47572W        W 8883  40.965  40.912  14.975
47573W        W 8884  38.543  10.634   0.330
47574W        W 8885  36.869  21.643   2.670
47575W        W 8886  23.622  24.514  10.912
47576W        W 8887  26.463  16.228  12.989
47577W        W 8888  22.718  27.539   3.669
47578W        W 8889   6.808  13.294   1.782
47579W        W 8890  17.576  42.515  14.762
47580W        W 8891   4.740  42.502  14.995
47581W        W 8892   2.788   1.837  11.439
47582W        W 8893  30.142   3.943  12.885
47583W        W 8894  19.168  22.078  12.885
47584W        W 8895   0.294   0.269   3.644
47585W        W 8896  33.388  33.526   3.312
47586W        W 8897  26.157  39.507   3.344
47587W        W 8898  11.270  41.530  13.418
47588W        W 8899  33.620  30.416   0.791
47589W        W 8900   8.714   4.781   4.255
47590W        W 8901  10.876  30.537  12.958
47591W        W 8902   0.474  26.616  13.974
47592W        W 8903  36.433  29.095  12.016
47593W        W 8904  31.908   3.892   4.320
47594W        W 8905  32.399   6.905   2.701
47595W        W 8906  43.438  14.741  14.907
47596W        W 8907  15.134   6.399   2.253
47597W        W 8908  19.237  44.314  14.946
47598W        W 8909   0.373  29.523  14.799
47599W        W 8910  12.797  27.501  13.947
47600W        W 8911  23.563  37.862   1.443
47601W        W 8912  42.837   9.391   2.271
47602W        W 8913  37.532  36.982   2.867
47603W        W 8914  32.091  34.399  12.532
47604W        W 8915  26.977  39.994  12.028
47605W        W 8916  28.121   1.367   2.317
47606W        W 8917  13.191  41.989   0.875
47607W        W 8918  38.344  38.554   9.600
47608W        W 8919   3.387  43.864   0.924
47609W        W 8920  26.071  41.827  14.343
47610W        W 8921  39.945   6.390  10.974
47611W        W 8922  28.510  40.859   3.858
47612W        W 8923  39.825  22.201   4.757
47613W        W 8924  33.935  26.108   3.637
47614W        W 8925   4.732  38.950   4.689
47615W        W 8926  21.081  30.051   0.368
47616W        W 8927   7.792   7.887   3.701
47617W        W 8928  30.970  35.433  12.866
47618W        W 8929  25.180   4.713   3.654
47619W        W 8930   0.947  40.420   4.146
47620W        W 8931  14.759  35.033   0.335
47621W        W 8932   8.181  34.977  11.958
47622W        W 8933  18.100  21.694  14.281
47623W        W 8934  35.364  36.953   2.329
47624W        W 8935  17.070  40.905  13.416
47625W        W 8936  16.635  24.200   0.833
47626W        W 8937   8.244  43.929  13.010
47627W        W 8938   0.835   6.741  12.920
47628W        W 8939   7.841  16.080   2.198
47629W        W 8940  39.426  30.061  13.487
47630W        W 8941  18.675  16.773   2.811
47631W        W 8942   1.375  17.756   1.713
47632W        W 8943   7.390   6.803   2.734
47633W        W 8944  17.106  33.937   0.935
47634W        W 8945  31.081  29.050   1.771
47635W        W 8946  14.756   5.209   2.386
47636W        W 8947   6.869  29.477   2.305
47637W        W 8948  38.845  27.669   2.300
47638W        W 8949  36.519  43.305   4.295
47639W        W 8950  44.498  30.958  12.562
47640W        W 8951  28.037  26.031   1.914
47641W        W 8952  10.770  20.227  11.458
47642W        W 8953   5.818  14.259   5.223
47643W        W 8954  32.536  44.791  12.435
47644W        W 8955   6.791  16.667   3.804
47645W        W 8956  18.126  15.210   2.893
47646W        W 8957  16.261  16.731   0.898
47647W        W 8958  31.435  33.940   1.358
47648W        W 8959  27.140  17.270  10.982
47649W        W 8960   0.897  22.530   0.909
47650W        W 8961  41.852  34.985  14.824
47651W        W 8962  40.390  10.844   4.774
47652W        W 8963  23.992  41.526   1.733
47653W        W 8964  15.647  17.632  12.512
47654W        W 8965   0.316  17.585   2.290
47655W        W 8966  40.333  38.371  12.341
47656W        W 8967  33.003  17.766  12.473
47657W        W 8968   9.251   2.319   3.656
47658W        W 8969  27.566  44.374  11.891
47659W        W 8970   6.389   2.895   2.720
47660W        W 8971  40.986  21.517   0.400
47661W        W 8972  36.019  30.141  13.426
47662W        W 8973  23.206  37.553   0.752
47663W        W 8974  33.513  29.146  12.545
47664W        W 8975  11.749  42.778  13.904
47665W        W 8976  30.023  30.987  10.442
47666W        W 8977  26.528  30.931  12.981
47667W        W 8978  40.882   5.351   3.275
47668W        W 8979   7.861  30.459  11.404
47669W        W 8980  29.431  10.777  12.954
47670W        W 8981  19.637  25.082  12.014
47671W        W 8982  38.543  34.902  13.917
47672W        W 8983  14.234  38.467   4.263
47673W        W 8984  21.750  31.623  13.463
47674W        W 8985  17.713  44.351  13.922
47675W        W 8986  29.490  36.035   2.837
47676W        W 8987  40.515  38.964   1.274
47677W        W 8988  16.596  43.781   3.836
47678W        W 8989  15.768  18.056   1.825
47679W        W 8990  37.017   6.819   2.664
47680W        W 8991  28.671  23.512   4.665
47681W        W 8992  22.179   6.784   2.737
47682W        W 8993  19.272  16.142   0.408
47683W        W 8994  31.546   8.682  12.565
47684W        W 8995   4.824  21.539   4.799
47685W        W 8996  17.150  27.184   3.310
47686W        W 8997  32.063   7.784   4.355
47687W        W 8998   4.326  31.550   0.759
47688W        W 8999  10.831  41.902   0.924
47689W        W 9000  23.524  36.485   4.307
47690W        W 9001  35.050  22.607   4.768
47691W        W 9002  32.440  12.281  13.492
47692W        W 9003  31.070  14.114  12.396
47693W        W 9004  38.993  35.565  12.054
47694W        W 9005  25.682  34.459  11.966
47695W        W 9006   0.275  37.429  12.477
47696W        W 9007  29.533  16.620   0.473
47697W        W 9008  31.987  19.053   3.815
47698W        W 9009   7.233  37.062  11.441
47699W        W 9010  20.720   3.911   2.804
47700W        W 9011  18.280  15.610   0.426
47701W        W 9012  26.516  28.493   2.270
47702W        W 9013  25.966  12.253   3.631
47703W        W 9014  16.290  32.902  14.777
47704W        W 9015   0.332  26.997   0.865
47705W        W 9016  12.278   5.863  14.281
47706W        W 9017  36.961  20.088  12.847
47707W        W 9018   7.819  28.111   2.767
47708W        W 9019  38.470  39.960  13.334
47709W        W 9020  40.908  37.962  14.349
47710W        W 9021   8.685   6.250   1.317
47711W        W 9022  14.746   1.482  10.542
47712W        W 9023  25.498   8.328   1.422
47713W        W 9024  37.893  33.057  13.048
47714W        W 9025  16.142  14.184  12.345
47715W        W 9026  34.104  40.869   4.216
47716W        W 9027  35.444  28.954  11.087
47717W        W 9028  37.396   3.333   1.757
47718W        W 9029   6.234  20.201  13.380
47719W        W 9030  44.462  23.164  11.572
47720W        W 9031  21.165  21.679   0.767
47721W        W 9032  21.026  39.968   3.685
47722W        W 9033   9.363  37.051  11.085
47723W        W 9034  36.971  21.176   1.414
47724W        W 9035  24.673  19.639  12.999
47725W        W 9036  29.592  36.869   3.279
47726W        W 9037   4.871  33.059   4.609
47727W        W 9038  12.716  16.275   1.385
47728W        W 9039  11.741   9.853   0.301
47729W        W 9040   3.906  39.990   2.284
47730W        W 9041   8.359  12.774   2.367
47731W        W 9042  30.070  21.617  14.976
47732W        W 9043   4.838  26.048   0.814
47733W        W 9044  11.363  32.089  13.518
47734W        W 9045  17.199  20.215   2.282
47735W        W 9046  31.899  32.418  11.046
47736W        W 9047  43.826   4.754   4.322
47737W        W 9048  34.530  32.885   3.856
47738W        W 9049  25.150   0.853   0.423
47739W        W 9050  32.103  34.035   2.801
47740W        W 9051  19.076  37.481  14.504
47741W        W 9052  18.547   3.787  11.013
47742W        W 9053   6.345  23.667  13.842
47743W        W 9054  36.474  29.119  14.778
47744W        W 9055   5.321  33.558  11.450
47745W        W 9056  39.982  26.509   3.235
47746W        W 9057  14.661  37.927  14.950
47747W        W 9058  32.500  16.188   3.318
47748W        W 9059  20.718  21.622   1.404
47749W        W 9060  14.657  24.069  13.009
47750W        W 9061  10.776  13.286  10.446
47751W        W 9062  17.093  42.892   4.797
47752W        W 9063   2.945  24.177   4.343
47753W        W 9064  28.187  11.843   1.855
47754W        W 9065  19.103   8.687   2.884
47755W        W 9066  34.428   0.430   0.781
47756W        W 9067  28.164   9.874  10.140
47757W        W 9068  28.153   7.298  12.945
47758W        W 9069  43.490  28.563  14.822
47759W        W 9070  28.602  23.029   1.734
47760W        W 9071  14.232   2.430   2.798
47761W        W 9072  37.929  16.212   3.216
47762W        W 9073  30.918  27.452   1.344
47763W        W 9074  16.120   9.803   1.862
47764W        W 9075   7.877  20.226   0.352
47765W        W 9076  32.510  27.686   2.689
47766W        W 9077  24.051  14.295  13.904
47767W        W 9078  26.525  41.848   3.176
47768W        W 9079  12.361  32.926   2.208
47769W        W 9080   5.431  26.164  12.828
47770W        W 9081  29.089  38.881   4.249
47771W        W 9082  32.016  22.563  10.614
47772W        W 9083  17.676   9.747   2.799
47773W        W 9084  42.944  14.249  11.004
47774W        W 9085   6.774  21.740  13.927
47775W        W 9086  42.975  23.575  10.947
47776W        W 9087  22.123   8.661  13.519
47777W        W 9088  27.098  40.468  13.484
47778W        W 9089  18.559  25.604  11.487
47779W        W 9090  34.377  30.991  12.072
47780W        W 9091  16.572  44.378  12.861
47781W        W 9092  15.719  38.974   4.658
47782W        W 9093  26.473   2.792   2.671
47783W        W 9094  32.558  15.132   0.766
47784W        W 9095  36.015  28.636   0.816
47785W        W 9096   8.688  32.917   1.908
47786W        W 9097  19.125  26.025   1.883
47787W        W 9098   9.275  32.975  10.901
47788W        W 9099  32.493  33.561  11.078
47789W        W 9100  11.753   3.949   4.787
47790W        W 9101  26.697  37.907   4.711
47791W        W 9102  10.274  11.230   0.279
47792W        W 9103  15.088  13.716  10.599
47793W        W 9104  28.483  11.276  12.348
47794W        W 9105  39.375  22.607  12.078
47795W        W 9106  37.542  26.594  13.406
47796W        W 9107  36.012  10.347  11.955
47797W        W 9108  17.065  12.343  14.297
47798W        W 9109  25.530  20.533  11.373
47799W        W 9110   9.859  33.574   2.205
47800W        W 9111  16.812  44.890  13.827
47801W        W 9112  26.165   5.859  11.519
47802W        W 9113  25.977  29.060   3.231
47803W        W 9114  21.199  21.048  10.467
47804W        W 9115  18.278  42.845   1.225
47805W        W 9116  44.417  39.936  10.970
47806W        W 9117  31.531  28.461   1.401
47807W        W 9118  34.424  22.165  14.362
47808W        W 9119  31.539  38.840   4.287
47809W        W 9120  14.686  24.551  10.632
47810W        W 9121  21.666  27.567  13.897
47811W        W 9122  30.017  30.086   4.755
47812W        W 9123  23.156  16.665  12.940
47813W        W 9124   8.350   6.750   0.963
47814W        W 9125  30.002  13.697  11.553
47815W        W 9126   5.299  37.983   3.215
47816W        W 9127  13.117   9.348   4.353
47817W        W 9128  14.732  10.291   2.743
47818W        W 9129   7.703  12.665  13.371
47819W        W 9130  41.906  36.393   1.414
47820W        W 9131   2.886  44.277  12.396
47821W        W 9132  21.606   6.884   4.611
47822W        W 9133  25.605   4.305  14.289
47823W        W 9134  28.015  10.310   1.390
47824W        W 9135  18.789  16.782   4.167
47825W        W 9136  29.939  26.039   3.187
47826W        W 9137  36.008   0.269  14.432
47827W        W 9138  29.986  23.034   3.744
47828W        W 9139   4.895   7.827   0.280
47829W        W 9140  36.532  19.756   0.838
47830W        W 9141   0.327  28.537   0.426
47831W        W 9142   4.439   3.919  13.865
47832W        W 9143  12.269  41.954  12.855
47833W        W 9144   5.866  26.685   2.683
47834W        W 9145  22.198  39.921  14.430
47835W        W 9146  44.331  40.867  13.962
47836W        W 9147   1.364  37.083   0.741
47837W        W 9148  24.600  36.078  13.457
47838W        W 9149   5.356   6.230  10.550
47839W        W 9150  12.671  34.408   3.845
47840W        W 9151   4.408  18.253   2.352
47841W        W 9152  32.969  38.384  11.427
47842W        W 9153  29.930  36.092  11.536
47843W        W 9154  24.669   6.295   0.320
47844W        W 9155  15.155  44.894   1.256
47845W        W 9156  11.752   7.795  12.010
47846W        W 9157  41.021  16.809   3.783
47847W        W 9158  18.651   1.900   0.834
47848W        W 9159  10.704  12.814  13.882
47849W        W 9160  27.480  26.688  12.491
47850W        W 9161  23.128  33.607  14.454
47851W        W 9162  15.140   0.255   4.289
47852W        W 9163  39.437   6.276  10.415
47853W        W 9164  37.529  34.390   3.755
47854W        W 9165  16.143   7.183   5.622
47855W        W 9166  21.663  42.794   4.657
47856W        W 9167  22.189  39.929   0.245
47857W        W 9168  44.922  32.981  11.062
47858W        W 9169  21.666  23.724   0.956
47859W        W 9170  41.457  42.457   3.819
47860W        W 9171  12.619  16.634  12.571
47861W        W 9172  42.946  30.128  13.324
47862W        W 9173  33.020  39.037  14.388
47863W        W 9174  41.379  36.874  13.319
47864W        W 9175  28.453  43.380  12.428
47865W        W 9176  37.898   8.273  13.403
47866W        W 9177  19.724   5.400   4.680
47867W        W 9178  42.843  42.930  13.049
47868W        W 9179  43.813   9.249  14.403
47869W        W 9180  29.074  21.702  12.061
47870W        W 9181  23.592  10.832   1.707
47871W        W 9182   6.278   3.388   0.367
47872W        W 9183   6.407  35.974  13.370
47873W        W 9184  13.337   7.300  14.294
47874W        W 9185  42.467  14.624   4.120
47875W        W 9186   2.232  27.492   2.855
47876W        W 9187  37.882  33.580  12.384
47877W        W 9188  33.522  20.156   4.337
47878W        W 9189  22.140  44.928  10.606
47879W        W 9190   5.728  12.779   3.774
47880W        W 9191  23.237  14.113   4.290
47881W        W 9192   6.903  36.382  13.492
47882W        W 9193  44.336   4.305   4.163
47883W        W 9194  18.729   9.646  10.517
47884W        W 9195  33.520   0.932   0.747
47885W        W 9196   0.845  25.012  13.909
47886W        W 9197  37.427   1.955   0.792
47887W        W 9198  32.410  37.565   0.851
47888W        W 9199  11.233  18.581   3.318
47889W        W 9200  14.235  43.815  13.955
47890W        W 9201  22.200   5.773   3.737
47891W        W 9202   8.221  10.355   0.944
47892W        W 9203  36.993   6.189  13.938
47893W        W 9204  12.158  11.854   4.255
47894W        W 9205  15.286  11.255  14.382
47895W        W 9206  22.079  34.386   0.275
47896W        W 9207  41.442  14.119  11.995
47897W        W 9208  21.057  32.940   1.745
47898W        W 9209  37.469   0.876  12.478
47899W        W 9210  25.491  11.732   1.702
47900W        W 9211  10.369  21.605  10.414
47901W        W 9212   5.331  21.516  11.516
47902W        W 9213  30.019  31.996   0.785
47903W        W 9214  44.474  37.508  13.945
47904W        W 9215  16.297  21.230   0.335
47905W        W 9216  16.246  25.669   4.639
47906W        W 9217  11.209   4.810  14.381
47907W        W 9218  31.111  17.560   3.234
47908W        W 9219  15.305   7.224  12.530
47909W        W 9220  33.923  31.076  10.957
47910W        W 9221   6.823  14.319   4.261
47911W        W 9222  12.822   7.353   1.316
47912W        W 9223  32.412  38.993   2.396
47913W        W 9224  24.157   1.861  13.429
47914W        W 9225   1.443  32.493   3.214
47915W        W 9226  21.634   4.378  12.014
47916W        W 9227  20.613  37.527  14.793
47917W        W 9228  33.395  11.270   3.630
47918W        W 9229  28.680   7.875  10.132
47919W        W 9230   5.877  21.518  14.497
47920W        W 9231  27.107  40.866  12.361
47921W        W 9232  19.122  27.967   4.689
47922W        W 9233  34.483  19.554  13.375
47923W        W 9234  31.954  17.765  14.468
47924W        W 9235  40.463  18.692  12.969
47925W        W 9236  14.644  22.584  14.281
47926W        W 9237  16.630  26.186   4.744
47927W        W 9238  34.048   4.843   0.769
47928W        W 9239  22.592  39.846  12.391
47929W        W 9240  18.664  28.508  10.533
47930W        W 9241   5.848  22.577   0.919
47931W        W 9242  32.413   7.812  11.454
47932W        W 9243  43.815  34.550   4.312
47933W        W 9244  40.928  30.441   3.313
47934W        W 9245  28.467  18.608  10.543
47935W        W 9246  38.833  38.528  14.457
47936W        W 9247  29.155  21.626   0.342
47937W        W 9248  31.459  17.161   0.304
47938W        W 9249  22.181  15.755   5.280
47939W        W 9250  10.252   4.698   4.709
47940W        W 9251  27.097  42.368   2.665
47941W        W 9252   0.253  42.007   3.263
47942W        W 9253  40.484  20.700   2.393
47943W        W 9254  22.202  43.392  13.327
47944W        W 9255  20.649  22.567  10.573
47945W        W 9256  33.075  10.262  12.409
47946W        W 9257  26.543  37.494  12.547
47947W        W 9258   1.458  39.501  14.289
47948W        W 9259  44.897  26.702  12.064
47949W        W 9260  26.199  18.090  13.490
47950W        W 9261  42.983   6.231  13.371
47951W        W 9262  37.390  27.166   2.225
47952W        W 9263  12.825  34.540   0.836
47953W        W 9264  28.152  10.238   2.380
47954W        W 9265  25.676  31.505   1.358
47955W        W 9266  35.970   8.667   2.711
47956W        W 9267  33.000  14.784   3.819
47957W        W 9268  33.027   5.241   2.816
47958W        W 9269  29.522  13.671   0.864
47959W        W 9270  42.851   8.200  11.927
47960W        W 9271   4.821   2.894  12.354
47961W        W 9272  43.957   9.220   1.290
47962W        W 9273  28.070  43.382  14.337
47963W        W 9274  30.157   7.703   1.908
47964W        W 9275  18.157  28.481   4.643
47965W        W 9276  24.053  34.115  10.483
47966W        W 9277  29.488   1.462   2.827
47967W        W 9278  34.548  31.481  14.930
47968W        W 9279  43.427  14.263  12.441
47969W        W 9280  13.759  28.658   4.189
47970W        W 9281   7.319   1.422   4.720
47971W        W 9282  42.013  19.094   1.860
47972W        W 9283  35.099  37.452   9.974
47973W        W 9284  23.220   9.239  11.001
47974W        W 9285  14.284   0.459  10.945
47975W        W 9286  25.533   3.235  13.913
47976W        W 9287  36.523  25.609  11.947
47977W        W 9288   3.794  12.354  14.829
47978W        W 9289  32.084  10.255  14.322
47979W        W 9290  44.949   9.389   2.820
47980W        W 9291  18.071  13.307  14.390
47981W        W 9292  15.701   7.285   2.392
47982W        W 9293   0.922   8.286   2.709
47983W        W 9294  11.806  41.310  13.850
47984W        W 9295  25.996   4.417  12.054
47985W        W 9296  35.928  13.336   4.323
47986W        W 9297  16.247  34.034  11.904
47987W        W 9298  14.102  15.807  12.088
47988W        W 9299  32.577  39.361   0.862
47989W        W 9300  43.770  27.486   2.293
47990W        W 9301  14.835   0.254  11.002
47991W        W 9302   9.190  35.070  12.493
47992W        W 9303  14.107   4.256  11.876
47993W        W 9304  42.905  18.203  10.442
47994W        W 9305  23.049  22.098  11.429
47995W        W 9306   7.874  22.525   5.245
47996W        W 9307   1.249   7.799   4.697
47997W        W 9308   3.248  30.616  14.364
47998W        W 9309  22.248   2.344  12.418
47999W        W 9310  25.975  20.762  12.904
48000W        W 9311  26.205  24.715  10.538
48001W        W 9312  28.008  39.502  13.002
48002W        W 9313  40.501   4.909  13.476
48003W        W 9314  18.166  20.136   4.771
48004W        W 9315  31.497  19.154  12.478
48005W        W 9316  28.068   4.443   4.724
48006W        W 9317  37.987  19.070  12.053
48007W        W 9318  32.441  36.854  10.914
48008W        W 9319  43.006  43.272   4.267
48009W        W 9320  30.938  25.525   3.768
48010W        W 9321  23.113  37.456   2.410
48011W        W 9322  23.728  10.827   4.156
48012W        W 9323   4.861  27.194   0.327
48013W        W 9324   7.748  18.235  13.816
48014W        W 9325  22.552  12.148   0.912
48015W        W 9326  22.201  36.554   4.767
48016W        W 9327   0.742  21.548  12.851
48017W        W 9328  18.628   1.343  14.486
48018W        W 9329  25.073  10.184  13.006
48019W        W 9330   4.441   4.243   4.729
48020W        W 9331  12.689  42.420   0.404
48021W        W 9332  10.731  43.774  11.073
48022W        W 9333  22.664  18.269   0.436
48023W        W 9334  12.267  35.420  11.091
48024W        W 9335  14.260  12.733   4.215
48025W        W 9336  29.645  18.738  13.340
48026W        W 9337  13.695  38.827  10.993
48027W        W 9338   0.492  17.594   4.295
48028W        W 9339   5.218  14.822  13.420
48029W        W 9340   2.910  18.594   4.753
48030W        W 9341   2.408  20.173  12.346
48031W        W 9342  20.028  11.777  11.374
48032W        W 9343  32.029  42.875   1.758
48033W        W 9344   1.457  26.175  12.496
48034W        W 9345   9.733   6.220  12.463
48035W        W 9346  43.891   8.863   1.387
48036W        W 9347  27.118   2.466  10.443
48037W        W 9348   2.392  38.042  14.443
48038W        W 9349  29.009  18.190  14.016
48039W        W 9350   2.270  42.422  11.388
48040W        W 9351  32.544   8.750  14.976
48041W        W 9352   4.449  11.711  11.122
48042W        W 9353  12.288  16.274  10.545
48043W        W 9354   9.744  20.756   0.755
48044W        W 9355  14.668  29.101  14.004
48045W        W 9356  32.570  29.932  12.445
48046W        W 9357   2.414  20.565   1.892
48047W        W 9358  15.704  12.746  12.564
48048W        W 9359  26.633   5.836  11.420
48049W        W 9360  27.569   7.722  10.567
48050W        W 9361  11.242   8.879   1.703
48051W        W 9362  29.143  33.602   1.245
48052W        W 9363  26.016   6.256   3.332
48053W        W 9364   7.852  31.045  14.817
48054W        W 9365  10.642  35.434   3.267
48055W        W 9366  26.107  26.582   4.820
48056W        W 9367  31.031  16.245   4.793
48057W        W 9368  25.631  22.155  10.426
48058W        W 9369   8.683   4.765  14.326
48059W        W 9370  10.750  10.148   4.321
48060W        W 9371  26.988  31.098   2.351
48061W        W 9372   4.787   4.419  13.790
48062W        W 9373  12.769  15.200  14.458
48063W        W 9374  41.961  22.248  11.449
48064W        W 9375   3.948  37.533  13.019
48065W        W 9376  36.025  35.547  13.957
48066W        W 9377   5.249   8.361  11.411
48067W        W 9378  44.409   0.919  10.641
48068W        W 9379  28.110   5.857   1.443
48069W        W 9380  32.130  22.138  12.445
48070W        W 9381  10.207  31.570  12.487
48071W        W 9382  13.808   2.867   1.223
48072W        W 9383  42.350  32.637  13.532
48073W        W 9384  40.874   3.387   1.718
48074W        W 9385  22.117  22.050   1.309
48075W        W 9386  13.297   6.212  11.031
48076W        W 9387  20.157  18.681  13.913
48077W        W 9388  41.927  36.356   2.872
48078W        W 9389  33.938   9.659  11.924
48079W        W 9390  30.440  15.084   0.947
48080W        W 9391  30.957   9.265   2.271
48081W        W 9392  23.237  35.577   2.397
48082W        W 9393   2.354  38.901   0.455
48083W        W 9394   9.395  41.487   1.801
48084W        W 9395  42.881  14.208  13.409
48085W        W 9396  38.471  42.890  13.814
48086W        W 9397  31.075  39.501  13.001
48087W        W 9398  37.035   2.813   3.823
48088W        W 9399   9.361  25.167  11.445
48089W        W 9400  10.152  43.844   1.825
48090W        W 9401  23.067  30.486  14.958
48091W        W 9402  25.601  23.990  13.538
48092W        W 9403  29.601  10.223   0.805
48093W        W 9404  32.972  35.429  12.003
48094W        W 9405  15.120  10.142  10.091
48095W        W 9406  17.764  14.634  13.045
48096W        W 9407  20.091  11.759  11.907
48097W        W 9408  41.961  20.122  13.359
48098W        W 9409  20.622  44.273  14.438
48099W        W 9410  31.465  16.742   3.812
48100W        W 9411   3.762  14.292   0.253
48101W        W 9412  17.635  24.599   5.145
48102W        W 9413  19.069   7.834   0.761
48103W        W 9414   4.937  25.205  14.408
48104W        W 9415  43.484  39.902  10.628
48105W        W 9416  16.748   0.293   3.693
48106W        W 9417  23.019  23.587   3.768
48107W        W 9418  28.976  14.168   2.295
48108W        W 9419  19.655   9.815   4.159
48109W        W 9420  32.900  31.986   2.801
48110W        W 9421  44.380   4.729  11.482
48111W        W 9422  40.398  16.758   3.282
48112W        W 9423  13.109  43.960   1.698
48113W        W 9424  43.461  35.405  12.580
48114W        W 9425  37.015   7.793   2.777
48115W        W 9426  10.329  15.600   0.944
48116W        W 9427  26.584   2.930  11.032
48117W        W 9428   0.813  30.573  10.424
48118W        W 9429   1.381   4.885   1.789
48119W        W 9430  27.684  33.516   1.435
48120W        W 9431  34.546  40.993  14.281
48121W        W 9432   1.369  20.254  12.489
48122W        W 9433  44.417   7.197   2.400
48123W        W 9434  13.188   3.382   3.265
48124W        W 9435  32.038  15.196  13.363
48125W        W 9436  32.532  41.327   1.840
48126W        W 9437  36.031  11.302  12.969
48127W        W 9438  33.093  16.115  12.559
48128W        W 9439  21.754  15.211   1.247
48129W        W 9440  40.512  19.773  14.324
48130W        W 9441  40.404  23.493   1.873
48131W        W 9442  28.944  33.606   3.733
48132W        W 9443  11.721  20.581   2.769
48133W        W 9444   4.886  16.160   2.304
48134W        W 9445  44.845  11.289  14.451
48135W        W 9446  33.050  35.923  12.354
48136W        W 9447   4.441  44.481  14.026
48137W        W 9448  17.682   4.412   2.418
48138W        W 9449  25.114  20.684  11.534
48139W        W 9450  24.504  14.834  14.957
48140W        W 9451  22.082   3.915  13.016
48141W        W 9452  38.534  23.533   4.740
48142W        W 9453  39.459   4.735  10.474
48143W        W 9454   4.767  15.785  14.511
48144W        W 9455   3.771  12.292   2.327
48145W        W 9456   3.709  38.861   3.681
48146W        W 9457  20.621  31.912   9.977
48147W        W 9458  38.476  38.458   2.777
48148W        W 9459  31.092   6.196  13.319
48149W        W 9460   4.413  10.284   0.320
48150W        W 9461  19.160  38.862  11.566
48151W        W 9462  19.222  29.117  13.398
48152W        W 9463  37.873  22.153  12.553
48153W        W 9464   8.852  40.802   1.421
48154W        W 9465  25.707  19.645  14.861
48155W        W 9466  26.197  24.173   1.217
48156W        W 9467   1.383  21.232  14.456
48157W        W 9468  34.498  41.392  10.520
48158W        W 9469  19.616  43.397  13.816
48159W        W 9470  43.856  32.127  11.579
48160W        W 9471  36.922  36.990  11.864
48161W        W 9472   1.268  15.154   2.762
48162W        W 9473   3.830  40.311  13.513
48163W        W 9474  44.471  13.600  14.449
48164W        W 9475  27.116  23.009   2.219
48165W        W 9476  13.845  22.727  13.385
48166W        W 9477  25.609  28.676  11.477
48167W        W 9478  27.158   7.822  13.968
48168W        W 9479   3.748  21.045   9.975
48169W        W 9480  33.624   4.285   4.695
48170W        W 9481  35.860  27.166  12.094
48171W        W 9482   2.294  22.653   4.201
48172W        W 9483   6.201  37.403   3.210
48173W        W 9484  28.104  39.881  14.434
48174W        W 9485  39.903  18.684  11.595
48175W        W 9486  24.600  14.324  13.488
48176W        W 9487  31.490  11.705  11.096
48177W        W 9488  41.383  14.611  14.922
48178W        W 9489  44.350   4.792   1.257
48179W        W 9490   2.746  10.287  10.965
48180W        W 9491  14.223  11.164   1.403
48181W        W 9492  16.589  31.019  13.409
48182W        W 9493  10.331  33.955  11.085
48183W        W 9494   9.866  35.407   1.247
48184W        W 9495  26.139  42.405   4.625
48185W        W 9496  22.045  23.189   4.801
48186W        W 9497  17.705  38.505  12.444
48187W        W 9498  33.983  31.486  14.876
48188W        W 9499  37.072  26.522   3.193
48189W        W 9500   4.397  33.593  10.455
48190W        W 9501  20.087   2.468  14.919
48191W        W 9502  22.214  28.477  11.092
48192W        W 9503  30.033  36.092  10.624
48193W        W 9504  33.429  40.881  12.536
48194W        W 9505  26.562  41.502   2.896
48195W        W 9506   2.955   2.386  14.963
48196W        W 9507  22.567  37.564   1.766
48197W        W 9508  36.047  18.683   2.859
48198W        W 9509   7.336  37.389  10.576
48199W        W 9510  41.886  35.936   4.188
48200W        W 9511   4.709  14.121  13.035
48201W        W 9512   4.938  28.026   1.762
48202W        W 9513  42.866   8.803  12.412
48203W        W 9514  18.105   6.900  13.050
48204W        W 9515  22.524  14.682   0.400
48205W        W 9516  36.012  27.001   3.864
48206W        W 9517   9.227  43.365  13.877
48207W        W 9518  31.492  13.271  11.019
48208W        W 9519  30.012   7.290  14.835
48209W        W 9520  13.133  37.339  11.533
48210W        W 9521  41.484   2.792   1.256
48211W        W 9522  36.884   0.893  13.051
48212W        W 9523  13.713  24.636  14.805
48213W        W 9524  41.838   9.683   3.858
48214W        W 9525  11.749  40.025   0.447
48215W        W 9526  24.491  25.588  14.368
48216W        W 9527   9.365  30.577  12.825
48217W        W 9528  10.831  43.974  12.479
48218W        W 9529   9.362  10.650   2.766
48219W        W 9530  10.753   6.251   4.131
48220W        W 9531  28.103  31.402   0.795
48221W        W 9532   0.347   1.751   1.775
48222W        W 9533  35.484  28.589   2.278
48223W        W 9534  37.078  28.962   0.359
48224W        W 9535  33.017  22.638   4.287
48225W        W 9536   7.342  30.451  13.450
48226W        W 9537  29.435  16.127  11.029
48227W        W 9538  39.395   7.711   1.749
48228W        W 9539  15.317  26.593  14.297
48229W        W 9540  35.914   7.251   4.633
48230W        W 9541   4.874   4.806  10.971
48231W        W 9542  43.936  11.138  11.951
48232W        W 9543   9.254  34.437   3.172
48233W        W 9544  27.185  12.272   4.734
48234W        W 9545  40.839  41.800   0.794
48235W        W 9546  27.021  25.522   0.399
48236W        W 9547   0.403  30.547   3.662
48237W        W 9548  21.116  43.965   3.355
48238W        W 9549  12.615  19.578   2.688
48239W        W 9550  15.710  41.975   3.831
48240W        W 9551  36.869   9.695  13.322
48241W        W 9552  38.925  10.659  12.860
48242W        W 9553  10.701  20.643   4.741
48243W        W 9554  41.443  28.118   1.746
48244W        W 9555  39.840   8.836  10.573
48245W        W 9556  10.284   1.292   2.211
48246W        W 9557   1.827  11.216  12.376
48247W        W 9558  38.961   0.337   0.921
48248W        W 9559   0.937  41.953  14.788
48249W        W 9560   1.929   0.766   0.438
48250W        W 9561   4.427  28.037  13.464
48251W        W 9562   9.215  28.478  13.543
48252W        W 9563  44.361   3.343  11.027
48253W        W 9564  10.268  40.539   1.929
48254W        W 9565  32.898   4.247   1.277
48255W        W 9566  36.386  12.144  13.398
48256W        W 9567  42.927  16.702   3.152
48257W        W 9568  17.719  15.730  11.034
48258W        W 9569  44.282   4.297  12.416
48259W        W 9570  21.224  41.416  14.392
48260W        W 9571  32.633  23.994   1.861
48261W        W 9572   1.466   3.445   2.733
48262W        W 9573  41.478  10.801  13.541
48263W        W 9574   9.759  32.605  13.471
48264W        W 9575  32.537  40.328  11.901
48265W        W 9576   6.420   9.180   2.744
48266W        W 9577  30.415  43.965  12.999
48267W        W 9578   8.336   6.832   0.450
48268W        W 9579  34.961  13.209   0.377
48269W        W 9580  42.780  35.877   3.156
48270W        W 9581  39.035  16.744   0.455
48271W        W 9582  20.041  31.936   3.806
48272W        W 9583  19.106   7.236  12.090
48273W        W 9584   8.337   7.182   2.756
48274W        W 9585   3.947   3.848  12.392
48275W        W 9586  38.347   8.695   1.298
48276W        W 9587  40.928   9.764   1.258
48277W        W 9588   9.782  35.470  13.935
48278W        W 9589  13.713  32.537  12.040
48279W        W 9590  39.860  29.963   5.144
48280W        W 9591   7.862  14.153  11.392
48281W        W 9592  38.824  37.499   1.921
48282W        W 9593   1.732  42.358  10.549
48283W        W 9594  12.192  44.495  13.979
48284W        W 9595  22.565  10.187  13.034
48285W        W 9596   4.356  37.949   4.690
48286W        W 9597  43.992   6.191   0.411
48287W        W 9598   7.349  23.221   4.801
48288W        W 9599   4.751  36.366   1.304
48289W        W 9600  13.235  26.029  11.529
48290W        W 9601   7.360  28.101  14.437
48291W        W 9602   1.241  27.044  11.388
48292W        W 9603  34.581   3.841  14.306
48293W        W 9604  33.898  37.444   1.371
48294W        W 9605  32.438  38.989  11.425
48295W        W 9606  33.414  32.024   3.226
48296W        W 9607  10.319  36.035   3.665
48297W        W 9608   7.721  16.111   2.757
48298W        W 9609   2.294  38.960  11.927
48299W        W 9610  12.724  25.714  12.364
48300W        W 9611   3.335  10.716  13.007
48301W        W 9612  36.509  15.125   0.914
48302W        W 9613  11.788  16.242   3.754
48303W        W 9614  41.341  21.666  13.307
48304W        W 9615  35.031   4.713   0.792
48305W        W 9616  37.878  34.974   2.814
48306W        W 9617  32.084  28.136  12.952
48307W        W 9618  16.693  36.051  14.835
48308W        W 9619  10.181   0.884  13.388
48309W        W 9620   3.729  27.069   4.212
48310W        W 9621  15.239   3.293  11.587
48311W        W 9622  27.529  24.189  10.486
48312W        W 9623   9.692  37.059  11.892
48313W        W 9624  36.077  18.592  10.452
48314W        W 9625   0.315  33.515   1.801
48315W        W 9626  41.307  10.322  12.006
48316W        W 9627   0.334  22.675  13.335
48317W        W 9628  42.978  40.345   0.371
48318W        W 9629   0.491  21.080   1.279
48319W        W 9630   3.375  33.074  11.046
48320W        W 9631  39.029  27.629  14.868
48321W        W 9632   3.758   8.890  12.500
48322W        W 9633  36.929  26.033  12.082
48323W        W 9634  16.712  32.458  12.865
48324W        W 9635  28.139   3.736   0.913
48325W        W 9636  34.371  40.459  14.824
48326W        W 9637  36.438  12.295   3.274
48327W        W 9638  16.097  13.739   0.930
48328W        W 9639  21.632  35.414   4.328
48329W        W 9640  19.669  39.516   0.887
48330W        W 9641  21.229  29.661  14.892
48331W        W 9642   8.336  18.084   0.278
48332W        W 9643   6.235  34.468  14.514
48333W        W 9644  25.023  10.755  10.404
48334W        W 9645  20.254  14.770  12.559
48335W        W 9646  34.506   1.413   1.934
48336W        W 9647  41.824  25.685   2.249
48337W        W 9648  37.869   9.366  13.984
48338W        W 9649  38.525  13.819  12.881
48339W        W 9650  14.712  38.351   3.804
48340W        W 9651  39.972  44.378  12.948
48341W        W 9652   9.767  19.742  11.089
48342W        W 9653   4.922  30.091  10.989
48343W        W 9654  31.589  35.985   0.814
48344W        W 9655  41.919   7.818   2.225
48345W        W 9656   7.404  36.569  12.990
48346W        W 9657  23.490  40.347   2.398
48347W        W 9658  25.173  23.665   2.791
48348W        W 9659  28.528   4.939   9.574
48349W        W 9660  35.360  25.078  10.571
48350W        W 9661  20.676   1.238   1.818
48351W        W 9662   4.404  43.353   3.822
48352W        W 9663  20.542  14.620  12.363
48353W        W 9664   7.866  20.272  11.894
48354W        W 9665  36.942  17.584  14.765
48355W        W 9666  15.591  24.192   3.787
48356W        W 9667   3.873   9.646  11.558
48357W        W 9668  44.344  42.315  14.962
48358W        W 9669   2.286  36.906  14.885
48359W        W 9670  31.433   1.260  11.067
48360W        W 9671  36.018  36.404  10.436
48361W        W 9672  33.585  19.139   1.308
48362W        W 9673   4.213  30.098  12.375
48363W        W 9674  12.652  11.652  12.986
48364W        W 9675  17.148  22.070   3.357
48365W        W 9676  16.790  37.033   1.283
48366W        W 9677  25.987  17.276  10.584
48367W        W 9678  28.587   9.162   3.671
48368W        W 9679  26.076  13.249   0.776
48369W        W 9680   4.311  35.933   2.718
48370W        W 9681  20.535   9.279   0.793
48371W        W 9682  31.056   7.783   0.279
48372W        W 9683   2.873  39.347  11.409
48373W        W 9684  10.289  30.013  11.117
48374W        W 9685   6.235  34.015  11.912
48375W        W 9686  15.217  44.775   3.155
48376W        W 9687  38.528   3.742  11.876
48377W        W 9688  15.760  41.842   2.402
48378W        W 9689  24.704  20.055   2.730
48379W        W 9690   0.815  44.839  13.505
48380W        W 9691  11.773  27.601  11.480
48381W        W 9692  16.790   9.747  11.595
48382W        W 9693  28.545  12.237   0.455
48383W        W 9694   8.170   6.356  11.938
48384W        W 9695  15.281   5.843   4.705
48385W        W 9696  35.900  38.555   9.995
48386W        W 9697  20.645  30.656  11.085
48387W        W 9698   4.729  17.188  11.485
48388W        W 9699  32.056  10.787   1.228
48389W        W 9700  44.836  25.130  11.510
48390W        W 9701  30.094  22.742   1.334
48391W        W 9702  15.665   3.364   3.762
48392W        W 9703  40.876   2.384  11.567
48393W        W 9704  35.595  40.374  13.897
48394W        W 9705   1.348  44.265   4.326
48395W        W 9706  23.507   3.401  11.372
48396W        W 9707  28.516  25.160  12.997
48397W        W 9708   6.803  13.242  12.464
48398W        W 9709  42.914   8.317   3.375
48399W        W 9710  13.625  43.339  11.059
48400W        W 9711  31.078  24.180   1.708
48401W        W 9712   1.380   8.896  11.536
48402W        W 9713  29.501  26.049  11.935
48403W        W 9714  37.513  35.385  13.853
48404W        W 9715  36.372  32.993   0.964
48405W        W 9716  36.442  41.344  11.459
48406W        W 9717  23.715   4.320   2.300
48407W        W 9718  37.538  42.017   4.612
48408W        W 9719  13.122  40.974  10.955
48409W        W 9720  28.027   7.759   0.772
48410W        W 9721  34.081  40.822  14.875
48411W        W 9722  27.948  31.921  12.466
48412W        W 9723  27.027   3.303  11.596
48413W        W 9724   3.349  21.235  12.874
48414W        W 9725  29.587  25.529   1.840
48415W        W 9726   2.274  27.192   3.276
48416W        W 9727  39.430  20.071  11.581
48417W        W 9728  22.169  32.048   3.161
48418W        W 9729  41.029  16.273   4.788
48419W        W 9730  20.227  25.570  13.965
48420W        W 9731  40.022  34.929  11.973
48421W        W 9732  39.337  12.303  12.061
48422W        W 9733  29.051   1.372   4.741
48423W        W 9734  11.251  30.050   2.852
48424W        W 9735  42.874  12.656  14.975
48425W        W 9736  34.580  44.479   4.818
48426W        W 9737   1.348  14.816  13.435
48427W        W 9738  21.261  31.152  11.929
48428W        W 9739   9.857   9.700  13.476
48429W        W 9740  19.600  28.469   2.346
48430W        W 9741   2.769  33.413   0.454
48431W        W 9742  37.032  27.155  14.478
48432W        W 9743  27.055  18.241   4.657
48433W        W 9744  41.404  29.123  12.348
48434W        W 9745  11.367  44.435   4.344
48435W        W 9746  34.534   9.737   3.369
48436W        W 9747  34.562  17.215  12.563
48437W        W 9748  17.615  37.026   0.321
48438W        W 9749   9.750  20.706  11.519
48439W        W 9750  40.462  30.465  10.579
48440W        W 9751  29.652  30.547  13.059
48441W        W 9752  28.534  22.605  11.539
48442W        W 9753   1.379  35.969   3.295
48443W        W 9754  15.203  23.623  11.585
48444W        W 9755  35.548  11.761   2.724
48445W        W 9756   0.808  38.328   2.277
48446W        W 9757   1.260  17.608  14.903
48447W        W 9758  10.870  32.119  13.423
48448W        W 9759  27.618  41.358   2.887
48449W        W 9760  22.602  14.726   0.748
48450W        W 9761   1.864   1.860   2.267
48451W        W 9762  14.289  37.446   0.312
48452W        W 9763  26.991  19.151   1.873
48453W        W 9764  32.992   1.268   0.464
48454W        W 9765   9.671  24.159   3.231
48455W        W 9766  19.684   9.735  13.843
48456W        W 9767  10.225  41.853   0.911
48457W        W 9768  21.245  17.767  14.841
48458W        W 9769  13.834  20.654   4.699
48459W        W 9770  36.912  29.486  12.368
48460W        W 9771  26.677  38.871  10.516
48461W        W 9772  31.130  29.073  13.923
48462W        W 9773  42.425   2.861  11.066
48463W        W 9774  42.508  38.039   0.889
48464W        W 9775  32.504  35.002  13.922
48465W        W 9776  10.377   2.341   0.249
48466W        W 9777  35.859  34.579   4.216
48467W        W 9778   2.262  19.592   0.897
48468W        W 9779  17.700  11.783  12.527
48469W        W 9780  17.126  40.839  12.972
48470W        W 9781  40.323   8.878   0.324
48471W        W 9782  25.083  34.892  12.512
48472W        W 9783  19.107  25.488   1.742
48473W        W 9784   7.340   5.281  12.969
48474W        W 9785  14.225  39.419   1.217
48475W        W 9786  25.121  30.036   1.789
48476W        W 9787  14.164  35.471   4.210
48477W        W 9788   8.778  15.326  12.052
48478W        W 9789  25.500  26.961   2.691
48479W        W 9790  30.949   4.327  11.066
48480W        W 9791  39.408  23.593   4.682
48481W        W 9792  17.095  26.599  13.030
48482W        W 9793  19.668  40.809  13.427
48483W        W 9794   6.903   2.405   3.274
48484W        W 9795  10.679  12.721  12.031
48485W        W 9796  38.337  42.958  14.809
48486W        W 9797   8.875   7.871  11.111
48487W        W 9798   0.377  10.254  10.540
48488W        W 9799   7.823  43.452   4.316
48489W        W 9800   3.923  16.110  10.606
48490W        W 9801  43.945   6.311   3.638
48491W        W 9802  22.524   2.793   4.325
48492W        W 9803  42.852  31.551  11.929
48493W        W 9804   2.955  18.743   0.802
48494W        W 9805  29.149  44.292   3.692
48495W        W 9806   9.288  31.100   0.416
48496W        W 9807  32.531   4.272  13.023
48497W        W 9808   0.800  33.952   3.717
48498W        W 9809  37.969  10.650  13.858
48499W        W 9810   5.221  32.432  13.481
48500W        W 9811  10.189  13.184   3.386
48501W        W 9812  19.618  36.469   5.267
48502W        W 9813   0.302  28.653   2.710
48503W        W 9814  11.676  22.547   2.761
48504W        W 9815  31.528  40.857   3.174
48505W        W 9816   4.698   7.854  12.340
48506W        W 9817  24.136   0.941   2.323
48507W        W 9818   2.337  21.626   3.282
48508W        W 9819  38.506  44.851  11.477
48509W        W 9820   9.718   2.830  11.004
48510W        W 9821  19.757  12.652  13.015
48511W        W 9822   0.308   6.712   2.847
48512W        W 9823  30.487  33.945  14.453
48513W        W 9824   0.940   8.255   0.447
48514W        W 9825  31.474   8.313  14.780
48515W        W 9826   0.952  43.825  10.600
48516W        W 9827  25.550  22.235   4.150
48517W        W 9828  12.257  36.570   2.306
48518W        W 9829  20.174  31.054   3.782
48519W        W 9830  33.063   0.748  12.933
48520W        W 9831  30.029  30.652   1.268
48521W        W 9832  16.222  35.918   3.217
48522W        W 9833   1.273  28.486   4.189
48523W        W 9834  11.220  39.878  10.997
48524W        W 9835  38.862  28.069  13.477
48525W        W 9836  33.108  32.564  14.763
48526W        W 9837  21.215  33.571  12.468
48527W        W 9838  26.461  27.593   1.888
48528W        W 9839  27.511  14.176   3.773
48529W        W 9840   4.722  13.336   4.831
48530W        W 9841  25.159  31.073   0.812
48531W        W 9842  35.543  16.130   0.372
48532W        W 9843  40.924  36.547   2.667
48533W        W 9844   5.913  21.073  13.892
48534W        W 9845  32.978  29.455  13.817
48535W        W 9846  25.115   7.252   2.662
48536W        W 9847   0.750  23.604   3.170
48537W        W 9848  24.564  35.543   2.720
48538W        W 9849  44.395  24.140   4.354
48539W        W 9850  43.352  40.029  11.898
48540W        W 9851  39.554   5.271  13.541
48541W        W 9852   1.912  25.998  14.332
48542W        W 9853  15.136  13.648   1.373
48543W        W 9854  15.821  21.646  12.522
48544W        W 9855   6.228  22.599   1.742
48545W        W 9856  10.351  33.055   0.867
48546W        W 9857  34.972   8.237  13.468
48547W        W 9858  23.605  39.516  13.379
48548W        W 9859  44.892  23.007  11.507
48549W        W 9860   3.936  17.163   0.445
48550W        W 9861  26.520  43.434   2.708
48551W        W 9862   9.679  30.654   2.760
48552W        W 9863  43.494  36.541  11.595
48553W        W 9864   6.869  12.362   2.187
48554W        W 9865  25.111  32.606   3.726
48555W        W 9866  23.193  28.997  11.098
48556W        W 9867  12.846  36.894   1.344
48557W        W 9868  27.503  12.162  14.811
48558W        W 9869  21.576  28.098   3.330
48559W        W 9870  13.137   2.471  11.876
48560W        W 9871   2.831  25.697  10.948
48561W        W 9872  39.499   7.218   3.792
48562W        W 9873   7.207  33.026   2.356
48563W        W 9874  33.043  23.571   1.414
48564W        W 9875  14.100  22.117  10.427
48565W        W 9876  12.358  13.131  10.976
48566W        W 9877  30.421  37.505   2.775
48567W        W 9878  17.668   0.362  12.970
48568W        W 9879   4.276  37.062  13.364
48569W        W 9880   3.453   6.316   0.351
48570W        W 9881   2.770  43.019  12.861
48571W        W 9882  28.966  37.061  12.037
48572W        W 9883  27.072  33.958   1.930
48573W        W 9884   3.323   7.882  10.420
48574W        W 9885   5.724  14.808  13.336
48575W        W 9886  19.761  17.298   3.267
48576W        W 9887  11.345  35.065  12.427
48577W        W 9888  20.038  17.628   2.378
48578W        W 9889  27.560   4.845   0.456
48579W        W 9890  30.456  16.777  13.889
48580W        W 9891  35.869  19.266   1.753
48581W        W 9892  38.951   0.831  10.510
48582W        W 9893  22.729  25.004  12.358
48583W        W 9894  18.622  30.561  11.027
48584W        W 9895  35.048   3.873  13.510
48585W        W 9896  44.307  35.381  12.922
48586W        W 9897  39.055  12.750   3.795
48587W        W 9898  44.009  35.532  14.374
48588W        W 9899  43.816  31.516  11.872
48589W        W 9900  29.571   6.707  11.861
48590W        W 9901  21.223  15.155   1.848
48591W        W 9902  36.382  12.726  12.475
48592W        W 9903  15.326   2.231  10.071
48593W        W 9904  21.538  16.593  11.551
48594W        W 9905   1.962  32.433   0.821
48595W        W 9906  23.510  36.877  12.079
48596W        W 9907  34.495  44.348  11.981
48597W        W 9908  35.527   4.798  12.445
48598W        W 9909  26.102  41.875   4.814
48599W        W 9910  41.466  44.893   2.230
48600W        W 9911  15.174  29.999   4.757
48601W        W 9912   0.330  20.235   3.214
48602W        W 9913  24.061  14.099  11.894
48603W        W 9914  30.908  10.255   4.777
48604W        W 9915  23.633   4.799   3.734
48605W        W 9916  21.549  14.184   4.699
48606W        W 9917  27.546  12.780  14.861
48607W        W 9918   4.238  31.091   1.723
48608W        W 9919  32.448  34.466  10.426
48609W        W 9920  43.457   6.776   2.209
48610W        W 9921  27.969  28.939   5.117
48611W        W 9922  42.289  44.966   0.282
48612W        W 9923  16.612   2.356   1.218
48613W        W 9924  24.709  13.628  11.980
48614W        W 9925  38.950  25.074   4.298
48615W        W 9926  18.626  13.726   3.661
48616W        W 9927  32.928  23.633   4.726
48617W        W 9928  35.086  38.024   1.328
48618W        W 9929  31.411  19.577   1.341
48619W        W 9930   5.793  38.369  12.846
48620W        W 9931  27.081  44.908  12.885
48621W        W 9932   1.760  24.548   1.798
48622W        W 9933  34.899  15.259   0.300
48623W        W 9934  25.977   2.446   1.897
48624W        W 9935   0.350  12.283   0.381
48625W        W 9936  25.050   1.398   0.300
48626W        W 9937  22.600  16.073   1.443
48627W        W 9938   5.867  40.021   3.750
48628W        W 9939  43.447  18.118   0.317
48629W        W 9940   1.775  29.428   1.785
48630W        W 9941   1.331  13.814  13.408
48631W        W 9942  40.308   7.900  10.894
48632W        W 9943  21.209   9.374  14.280
48633W        W 9944  22.018  38.908  13.387
48634W        W 9945  19.235  12.799  11.031
48635W        W 9946  34.564  21.074  11.418
48636W        W 9947   1.252   7.204   0.372
48637W        W 9948  10.661  17.734  13.019
48638W        W 9949   8.772  26.518  12.976
48639W        W 9950  38.060  23.550   4.736
48640W        W 9951   5.437  37.354  10.922
48641W        W 9952  23.662  43.477   0.322
48642W        W 9953  21.573  19.729  14.436
48643W        W 9954  28.645  34.987  10.016
48644W        W 9955  41.866   0.420  12.547
48645W        W 9956  28.958  32.093  14.788
48646W        W 9957  10.828  35.472   2.356
48647W        W 9958   1.458  10.839   3.374
48648W        W 9959  35.006  20.236   3.787
48649W        W 9960  20.753  36.531  14.871
48650W        W 9961  40.931  14.665   1.405
48651W        W 9962  13.121  21.743   4.702
48652W        W 9963  20.741  26.097  10.442
48653W        W 9964   8.273  23.731  13.951
48654W        W 9965   6.233   2.873   1.768
48655W        W 9966   2.240  19.765   2.247
48656W        W 9967  40.955  20.536   1.449
48657W        W 9968  19.119  44.485   1.310
48658W        W 9969  37.469   8.185   3.266
48659W        W 9970  10.643   1.757  12.434
48660W        W 9971  23.489   7.741  14.801
48661W        W 9972   1.827  17.187  12.440
48662W        W 9973  11.256  27.007   1.716
48663W        W 9974  18.287   5.780   2.727
48664W        W 9975   6.781   3.244   4.658
48665W        W 9976  28.135  21.114   3.691
48666W        W 9977   3.240  17.608  11.423
48667W        W 9978  40.016  38.015   3.247
48668W        W 9979  14.772  34.959   4.703
48669W        W 9980   3.710  17.754   5.696
48670W        W 9981  18.768  13.830   1.892
48671W        W 9982  33.971  16.643  10.598
48672W        W 9983  14.761   2.396   5.587
48673W        W 9984   7.823   7.820   5.222
48674W        W 9985  31.968  23.563  10.432
48675W        W 9986  25.025  28.054   4.826
48676W        W 9987  11.202  24.217  12.412
48677W        W 9988  40.965  18.086   4.720
48678W        W 9989  18.200   2.273  10.510
48679W        W 9990  36.351   4.933   0.317
48680W        W 9991  42.950  41.918  13.391
48681W        W 9992  25.518   8.765   1.306
48682W        W 9993  24.611   7.782   3.752
48683W        W 9994  44.794   0.311   4.263
48684W        W 9995  31.114  22.117   2.774
48685W        W 9996  36.480   2.418   2.696
48686W        W 9997  20.587  43.453   4.344
48687W        W 9998   0.792   3.353  11.508
48688W        W 9999  30.141   4.707  11.555
48689W        W10000  26.518  32.935   0.838
48690W        W10001  42.020  22.077   1.880
48691W        W10002  19.112  15.668   4.329
48692W        W10003  30.987  11.190   0.326
48693W        W10004  27.570  27.028  11.956
48694W        W10005  16.662  44.369   4.321
48695W        W10006  27.153  27.645  10.942
48696W        W10007  23.577   8.809  14.505
48697W        W10008  36.470  20.157   3.216
48698W        W10009  25.989   2.836  11.120
48699W        W10010  11.177  37.427  10.591
48700W        W10011  20.111  17.246   0.729
48701W        W10012  44.383  20.152  10.422
48702W        W10013  44.262   9.859   4.756
48703W        W10014   3.416  30.637   4.275
48704W        W10015   3.904   0.919  14.324
48705W        W10016  16.705  15.817  13.006
48706W        W10017   5.791  37.078  12.469
48707W        W10018  10.725  28.106   0.878
48708W        W10019  39.358   4.717   3.652
48709W        W10020  26.183  17.591  13.811
48710W        W10021  26.165  44.282   1.415
48711W        W10022  29.590  37.961  13.450
48712W        W10023   8.661  12.169   0.258
48713W        W10024  15.274  17.156  14.417
48714W        W10025  29.112  41.969  14.897
48715W        W10026   1.874   2.285  11.913
48716W        W10027  28.100  38.406   2.866
48717W        W10028  13.763  10.181   2.769
48718W        W10029  42.330   8.864  11.861
48719W        W10030  12.762  39.027  10.953
48720W        W10031  20.216  33.553  12.454
48721W        W10032  30.010  38.570   1.732
48722W        W10033  33.569  29.998  11.525
48723W        W10034  30.001  27.661   3.784
48724W        W10035  30.029  37.994   2.843
48725W        W10036   3.320  37.547  10.576
48726W        W10037  32.531   0.378  14.947
48727W        W10038  43.426  28.484  13.349
48728W        W10039  37.479   1.289  14.804
48729W        W10040   6.419  42.928   4.620
48730W        W10041   3.222  15.723  11.993
48731W        W10042  34.448   3.235   3.197
48732W        W10043  26.086  34.501   1.904
48733W        W10044  14.155  39.927  10.476
48734W        W10045   1.848  41.406   4.329
48735W        W10046   6.197   7.900   1.894
48736W        W10047   8.735  37.934   0.243
48737W        W10048  25.543   6.218  11.403
48738W        W10049  16.732  43.422   2.249
48739W        W10050  33.558  39.877   2.697
48740W        W10051  36.047  34.893   1.322
48741W        W10052  10.788  25.120  11.090
48742W        W10053   2.951   1.307  13.407
48743W        W10054  33.971  21.576  12.512
48744W        W10055   0.390   0.249  11.103
48745W        W10056   4.943  19.683   0.947
48746W        W10057  42.933   5.420  13.906
48747W        W10058   0.375  36.861  13.937
48748W        W10059  13.822  28.571   0.813
48749W        W10060   8.384  43.015  11.914
48750W        W10061  36.485   5.291  14.965
48751W        W10062  42.471  43.368  11.409
48752W        W10063  10.861  27.967   0.380
48753W        W10064  40.322  16.806  13.418
48754W        W10065   3.240   8.842  10.562
48755W        W10066  43.324  40.858   1.317
48756W        W10067   1.880  35.107   0.949
48757W        W10068  12.769  19.718   0.386
48758W        W10069  43.372  34.992  12.449
48759W        W10070   8.213  17.586  10.641
48760W        W10071   4.289  17.656   1.324
48761W        W10072  38.409   7.371  10.962
48762W        W10073   7.400   7.904  11.446
48763W        W10074   1.454  35.556  12.082
48764W        W10075  11.369   5.237  10.642
48765W        W10076  11.776   7.282  12.000
48766W        W10077  31.124  23.612   4.132
48767W        W10078   7.716  32.611  14.902
48768W        W10079  42.970  17.232  10.587
48769W        W10080  22.626  14.789   3.856
48770W        W10081  15.288  22.242   2.840
48771W        W10082  25.523   0.827   2.308
48772W        W10083  32.044   4.376   3.848
48773W        W10084  17.758  12.708   2.339
48774W        W10085  34.468   6.368  11.546
48775W        W10086  21.229  10.805  14.384
48776W        W10087   8.271   1.743  11.576
48777W        W10088  33.091  19.780  13.413
48778W        W10089  21.253   1.862   1.771
48779W        W10090  37.528  28.082  14.446
48780W        W10091  25.093  41.796  14.012
48781W        W10092  18.744   8.220   1.706
48782W        W10093  40.390   9.150   2.201
48783W        W10094  40.005  35.413   4.335
48784W        W10095  29.488  16.226   2.318
48785W        W10096  35.505   4.263   3.823
48786W        W10097  17.591   3.743   3.818
48787W        W10098  30.988   9.782  14.448
48788W        W10099   1.954  23.152   3.362
48789W        W10100  11.135  42.951   4.651
48790W        W10101  18.070  29.625   4.151
48791W        W10102  24.083  16.176   0.269
48792W        W10103  18.668  22.593  12.852
48793W        W10104  11.784  10.327   3.200
48794W        W10105  17.645  38.843  13.849
48795W        W10106  34.086  37.395  11.496
48796W        W10107  14.255  32.012  14.815
48797W        W10108  24.070  12.727  14.920
48798W        W10109   1.259   2.407   2.294
48799W        W10110   0.911  29.948  14.452
48800W        W10111   8.337  39.381  13.330
48801W        W10112  14.256  41.532   0.904
48802W        W10113  12.740   7.759   4.621
48803W        W10114   5.713  26.642  10.893
48804W        W10115   8.829  31.473  11.947
48805W        W10116  12.200   0.821  14.465
48806W        W10117  26.683   9.846  14.330
48807W        W10118  23.690  28.573   5.307
48808W        W10119  23.234  35.951   2.700
48809W        W10120  42.852  15.630  14.453
48810W        W10121   4.388   9.357  13.495
48811W        W10122  29.082  11.199   1.435
48812W        W10123  33.562  40.430  14.284
48813W        W10124   0.400  18.652   3.696
48814W        W10125  17.080  33.881  14.986
48815W        W10126   1.868  38.859  10.929
48816W        W10127  41.465  34.399   0.404
48817W        W10128  10.875  19.256   3.377
48818W        W10129  17.772  21.260   3.696
48819W        W10130  31.442  33.927  13.827
48820W        W10131  44.806  15.243  11.957
48821W        W10132  15.633  27.035   0.292
48822W        W10133  24.056  11.675  13.499
48823W        W10134  17.223  35.932  14.410
48824W        W10135  35.877   7.728   3.334
48825W        W10136  41.323  18.723  11.543
48826W        W10137  40.815  34.045   1.408
48827W        W10138  16.246  13.246   1.419
48828W        W10139  39.539  33.881   3.650
48829W        W10140  37.425  40.946  10.098
48830W        W10141  12.627  17.636   1.375
48831W        W10142   1.455  14.100  11.122
48832W        W10143  16.715  12.734  14.312
48833W        W10144  10.362   9.647   0.428
48834W        W10145  14.812  24.508   2.830
48835W        W10146  37.530  38.878  14.386
48836W        W10147  37.359  17.231  12.398
48837W        W10148  44.266  44.328   0.758
48838W        W10149  33.884  38.344   2.689
48839W        W10150  22.712  25.025   4.706
48840W        W10151  20.598  37.962  12.085
48841W        W10152  10.237  33.580  10.558
48842W        W10153   3.744  37.883  10.452
48843W        W10154  19.205  24.999  13.911
48844W        W10155  17.291  40.924   2.748
48845W        W10156  31.113  34.432  12.032
48846W        W10157  37.995  30.155  13.911
48847W        W10158   3.732   1.753  14.415
48848W        W10159  11.838  26.659  10.516
48849W        W10160  33.577  16.125   1.291
48850W        W10161  12.612  29.088   0.947
48851W        W10162  28.545  13.710  12.392
48852W        W10163  31.989  26.480  14.399
48853W        W10164  31.900  25.175   0.823
48854W        W10165  28.184  17.126  14.938
48855W        W10166   1.797  14.598  10.490
48856W        W10167  30.935  10.263  12.456
48857W        W10168  25.623  37.475   1.421
48858W        W10169  41.975   2.935  13.922
48859W        W10170  22.213  27.173  12.977
48860W        W10171  42.913  18.104   1.778
48861W        W10172  24.679  32.953   1.928
48862W        W10173   2.827  21.134  15.000
48863W        W10174  33.946  44.799   1.699
48864W        W10175  17.075  25.514  12.913
48865W        W10176  25.710  12.194  12.516
48866W        W10177   4.445   1.796  14.919
48867W        W10178  10.865  40.403  14.289
48868W        W10179  18.075   7.407   0.387
48869W        W10180  16.572  22.113  10.580
48870W        W10181  32.008  41.324  12.923
48871W        W10182  40.854  41.336   4.600
48872W        W10183  22.580  34.405  13.822
48873W        W10184  40.923   8.394   4.609
48874W        W10185  39.964  31.079  11.572
48875W        W10186  33.904   4.409   1.289
48876W        W10187  21.231  34.921  11.120
48877W        W10188  36.892   0.342  14.958
48878W        W10189  42.006   6.827  12.370
48879W        W10190  17.609  33.913  13.519
48880W        W10191  31.433   7.890  10.999
48881W        W10192  32.464  44.433   3.173
48882W        W10193  29.920  22.133   1.400
48883W        W10194  27.172  21.666   1.857
48884W        W10195  37.570  41.788   2.185
48885W        W10196  13.731  39.029  14.959
48886W        W10197   5.873  28.108  10.468
48887W        W10198   5.743   6.283  11.036
48888W        W10199  26.679  10.233  14.931
48889W        W10200  28.126  39.944   3.690
48890W        W10201  34.542  10.239  11.857
48891W        W10202  20.039  20.687   4.301
48892W        W10203  22.189   0.801   1.860
48893W        W10204   8.332  39.892   4.351
48894W        W10205   5.732  25.186  14.360
48895W        W10206   0.321  17.093   4.335
48896W        W10207  44.486  16.258  13.518
48897W        W10208  36.481  11.654  13.913
48898W        W10209  16.658  41.798   0.467
48899W        W10210  30.616  44.449  12.372
48900W        W10211   9.692  20.091  14.844
48901W        W10212   0.796   8.782  12.997
48902W        W10213  30.439   7.201   2.316
48903W        W10214  28.599  21.115   0.888
48904W        W10215   5.384  39.942  11.507
48905W        W10216   9.663  24.083   0.418
48906W        W10217  29.572  10.761  12.377
48907W        W10218  40.524  26.956   2.316
48908W        W10219  33.394  20.052  11.034
48909W        W10220  24.208  29.108   1.873
48910W        W10221   9.849  13.150   0.755
48911W        W10222  20.128  34.098   4.172
48912W        W10223  38.854  24.996   5.137
48913W        W10224  29.576  24.090   3.799
48914W        W10225  17.744  29.570   2.847
48915W        W10226  13.186  21.701   2.897
48916W        W10227  41.914  15.148   0.248
48917W        W10228  44.505   8.713  13.844
48918W        W10229  43.995  32.632  10.550
48919W        W10230  35.908  39.011   1.761
48920W        W10231  34.995  15.687  11.961
48921W        W10232   2.941  41.794  10.578
48922W        W10233   6.912  31.967  14.323
48923W        W10234  15.179  20.698  10.564
48924W        W10235  11.132   1.243  13.452
48925W        W10236  19.077  31.430  13.843
48926W        W10237  25.105  22.531   0.776
48927W        W10238  33.039  32.017   1.449
48928W        W10239  20.596   3.806  14.344
48929W        W10240   5.715  20.537   3.345
48930W        W10241  33.935  16.162   4.131
48931W        W10242   2.785  43.300   4.128
48932W        W10243  37.420  21.225  11.575
48933W        W10244  44.818  38.973  10.094
48934W        W10245  44.312  37.021   1.322
48935W        W10246  40.407  41.856   0.317
48936W        W10247  44.380  28.607   2.216
48937W        W10248  24.038  27.615   1.353
48938W        W10249  21.533  27.034   2.221
48939W        W10250  35.375   7.277  13.395
48940W        W10251  35.543  44.971   0.298
48941W        W10252   8.326  42.909  12.364
48942W        W10253  39.399   5.335   2.204
48943W        W10254  38.880  44.408   5.161
48944W        W10255  36.980  20.660  14.827
48945W        W10256   7.239  21.621   0.463
48946W        W10257  42.878  21.709  10.993
48947W        W10258  41.368  16.232  13.424
48948W        W10259  10.339  24.054   2.818
48949W        W10260   6.800  20.562  10.477
48950W        W10261  23.533  32.015   0.768
48951W        W10262  29.556  44.966  11.596
48952W        W10263  21.110  40.422  13.792
48953W        W10264  33.489  18.166  11.983
48954W        W10265  30.973  33.092   2.793
48955W        W10266  28.991   7.847  12.856
48956W        W10267  15.193  29.129  11.426
48957W        W10268  40.529   2.360  14.340
48958W        W10269  16.809  17.792   2.216
48959W        W10270  33.511   0.257   3.672
48960W        W10271   3.329  18.075  10.952
48961W        W10272  19.722  25.148  13.831
48962W        W10273   7.891  35.033  13.064
48963W        W10274  20.047  38.444   3.347
48964W        W10275  37.520  31.072  14.472
48965W        W10276   4.368   5.218  11.547
48966W        W10277  34.612  19.186   1.841
48967W        W10278  22.049   5.420   1.255
48968W        W10279   9.873  39.903  11.015
48969W        W10280  26.475   0.410   0.801
48970W        W10281  41.384  12.642   1.823
48971W        W10282  34.063  20.768   1.883
48972W        W10283   7.794  38.877  12.916
48973W        W10284   7.201   9.763   2.204
48974W        W10285  34.070   9.165  14.433
48975W        W10286  14.721   2.806  11.883
48976W        W10287   3.448   1.242   2.347
48977W        W10288   9.729  38.366  11.962
48978W        W10289  25.658  16.788  12.894
48979W        W10290  28.496  34.061   1.879
48980W        W10291  41.341  36.013   3.871
48981W        W10292  12.826  36.529   4.301
48982W        W10293  43.773   4.227  10.435
48983W        W10294   1.975  33.407  14.290
48984W        W10295  31.005   9.881   0.294
48985W        W10296  10.803   5.873  14.386
48986W        W10297  36.510  30.918   3.844
48987W        W10298  33.619   4.276  13.817
48988W        W10299  38.947  27.457   1.278
48989W        W10300  11.654  10.222   9.957
48990W        W10301  31.413  44.389  10.552
48991W        W10302  23.626   2.472  14.330
48992W        W10303  38.930  27.966   1.429
48993W        W10304  27.976  14.116   3.256
48994W        W10305  17.611  12.277   2.818
48995W        W10306  17.751  39.473   1.834
48996W        W10307   2.922  16.200   1.355
48997W        W10308  30.928  26.109  12.564
48998W        W10309  30.616  26.485  11.514
48999W        W10310  19.775  24.541  10.890
49000W        W10311  24.109  33.040  14.338
49001W        W10312  29.528   3.240  13.358
49002W        W10313   9.757   3.825  12.553
49003W        W10314  40.479   3.348  13.912
49004W        W10315   1.363  40.925   1.892
49005W        W10316  28.046  37.853   0.902
49006W        W10317  14.122  40.983  14.454
49007W        W10318   9.380  29.118  11.097
49008W        W10319  38.824   5.334  14.295
49009W        W10320  12.234   4.886  10.948
49010W        W10321  32.939  32.994  10.961
49011W        W10322  26.007  11.865   2.357
49012W        W10323  34.010  19.102   1.891
49013W        W10324   6.411  24.565   4.141
49014W        W10325  17.609  36.091   1.305
49015W        W10326   8.734  19.715   2.788
49016W        W10327  10.752   5.226  13.398
49017W        W10328  15.219  23.720  13.534
49018W        W10329   7.314  33.577  13.827
49019W        W10330  44.313  10.724  11.468
49020W        W10331   3.760  33.990   2.811
49021W        W10332   5.357  15.171   2.730
49022W        W10333  13.716  24.621  14.302
49023W        W10334  26.202  29.126  10.516
49024W        W10335  39.991  10.230   4.142
49025W        W10336  16.180  37.368  11.382
49026W        W10337  19.119  32.940   2.202
49027W        W10338  37.580  20.212  12.970
49028W        W10339  38.536  39.060   3.329
49029W        W10340  18.293  41.401  11.081
49030W        W10341  37.842   2.459  11.580
49031W        W10342  26.618   9.265   2.412
49032W        W10343  36.584  29.051   1.229
49033W        W10344  28.961  38.870  11.972
49034W        W10345   9.341  34.035  13.473
49035W        W10346  28.568  36.859   2.854
49036W        W10347  25.629   5.413  13.021
49037W        W10348   1.481  42.414  14.494
49038W        W10349   9.652  26.990   3.855
49039W        W10350  16.235  18.225  12.957
49040W        W10351  27.607  41.308   1.798
49041W        W10352  32.429  15.651   2.801
49042W        W10353  41.005  12.282  11.922
49043W        W10354  24.227  40.303   0.340
49044W        W10355  44.914   2.796  10.497
49045W        W10356  29.459  40.002   4.338
49046W        W10357  13.113  33.894  13.991
49047W        W10358   1.777  26.080  11.059
49048W        W10359  39.506   7.764   2.273
49049W        W10360   2.329  37.988  13.872
49050W        W10361   4.252  24.655   4.328
49051W        W10362  21.122   7.831  12.919
49052W        W10363  31.898  33.914   4.206
49053W        W10364  33.410  42.888   4.262
49054W        W10365  21.611  33.570   9.942
49055W        W10366  10.762  22.552  11.058
49056W        W10367  13.145  35.571   3.803
49057W        W10368  38.418  36.425   3.307
49058W        W10369  24.590  16.761  11.104
49059W        W10370  16.204  24.723  14.286
49060W        W10371  15.817  43.439   2.764
49061W        W10372   3.241  39.852   2.857
49062W        W10373  40.035  25.012   1.749
49063W        W10374  35.875  34.928   0.885
49064W        W10375   7.228   3.370   1.336
49065W        W10376  21.124  37.544   1.715
49066W        W10377   7.230  44.392  14.490
49067W        W10378   8.222  19.197  13.831
49068W        W10379  22.159   9.694   0.783
49069W        W10380   2.825  14.277   1.297
49070W        W10381  37.504  22.218   3.154
49071W        W10382  17.565   1.451  12.982
49072W        W10383   6.319  43.953  13.878
49073W        W10384  30.645   4.268  12.847
49074W        W10385  27.020  21.130   4.817
49075W        W10386  34.968  25.090  14.876
49076W        W10387  31.901  16.622  11.027
49077W        W10388  28.635  16.594   2.340
49078W        W10389  39.874   1.321  13.035
49079W        W10390  23.697  34.373   0.456
49080W        W10391  42.376   1.327  12.885
49081W        W10392  29.531  34.481  14.308
49082W        W10393  13.244  33.880  11.911
49083W        W10394  22.720   0.981   5.269
49084W        W10395   5.720  20.160   1.368
49085W        W10396  16.625  16.182   0.365
49086W        W10397  28.621   9.799   0.793
49087W        W10398   4.388  36.841   0.304
49088W        W10399  26.132  12.657   1.805
49089W        W10400  21.211   9.696   3.740
49090W        W10401  18.135  22.076   4.298
49091W        W10402  25.070   5.324   0.363
49092W        W10403  30.083  31.539  11.477
49093W        W10404   3.312  21.738  12.851
49094W        W10405  24.603  38.490  13.412
49095W        W10406  39.039  40.977  14.901
49096W        W10407  28.653   9.786   3.379
49097W        W10408  27.996   7.785   3.300
49098W        W10409   3.432  23.502  13.988
49099W        W10410   6.727  38.993  14.995
49100W        W10411  40.319   9.206   4.289
49101W        W10412  10.835  43.506  14.798
49102W        W10413  42.335  31.973   0.423
49103W        W10414  17.220   5.817   4.683
49104W        W10415  11.129  27.072  13.513
49105W        W10416  29.081   5.922  11.869
49106W        W10417  11.249  33.960   2.331
49107W        W10418  10.381  40.863  10.460
49108W        W10419  26.653   0.250   1.833
49109W        W10420  26.167  41.338  12.897
49110W        W10421  40.940  11.316   1.309
49111W        W10422  33.466  31.577  12.418
49112W        W10423   6.832  44.468   2.264
49113W        W10424  10.323  41.468   4.132
49114W        W10425  18.118  35.576  14.889
49115W        W10426  18.098  12.241  14.330
49116W        W10427  11.856  13.306  14.923
49117W        W10428  19.173  17.802  12.831
49118W        W10429  38.999  33.527  12.534
49119W        W10430  16.637  32.994  11.034
49120W        W10431  34.038   2.741  12.549
49121W        W10432   4.827   4.718  12.876
49122W        W10433  33.392  26.007   0.436
49123W        W10434  35.547  36.961  11.492
49124W        W10435  17.100  17.638   4.624
49125W        W10436  38.548  34.931   2.359
49126W        W10437  20.548  19.075   0.895
49127W        W10438   5.785  12.209   0.449
49128W        W10439  37.885  21.534  14.352
49129W        W10440  15.155  15.761   0.919
49130W        W10441   6.246  19.201  11.948
49131W        W10442  25.218  28.671  11.950
49132W        W10443  41.351  14.336   2.830
49133W        W10444  28.119  41.797   3.198
49134W        W10445  31.631  27.163  14.903
49135W        W10446  30.974  42.513   1.317
49136W        W10447  11.813  30.594   1.431
49137W        W10448  37.972  12.346   1.268
49138W        W10449   4.298  37.063   1.697
49139W        W10450  26.582  18.557   5.756
49140W        W10451   4.912  36.398   3.722
49141W        W10452  40.458  14.264   4.657
49142W        W10453   4.235   0.304  10.961
49143W        W10454   8.779  15.615   0.883
49144W        W10455  19.554  22.080   2.308
49145W        W10456  14.233  44.275  14.807
49146W        W10457   6.244  40.330   0.892
49147W        W10458  16.258  15.628  14.964
49148W        W10459   9.829   0.468   1.310
49149W        W10460  25.530  41.986   1.260
49150W        W10461  15.263  15.209   4.721
49151W        W10462  10.860  14.667  14.978
49152W        W10463  30.486  15.753  12.055
49153W        W10464  26.497  33.581  12.453
49154W        W10465  19.606  33.588   9.943
49155W        W10466  22.699  31.051   0.352
49156W        W10467  15.633  13.624  12.090
49157W        W10468   1.853  43.015  14.879
49158W        W10469   5.885  30.931  13.541
49159W        W10470  32.939  38.337  10.894
49160W        W10471  35.433  35.903   2.405
49161W        W10472  41.904  31.083   2.797
49162W        W10473  12.789  31.435  13.019
49163W        W10474  20.093  20.597  14.465
49164W        W10475   2.401  38.915  14.360
49165W        W10476   1.320   2.879  13.314
49166W        W10477  16.758  34.012  11.912
49167W        W10478  14.314  33.964   2.867
49168W        W10479   8.250  33.020  11.997
49169W        W10480  44.275  43.410   2.882
49170W        W10481  14.647  41.453  13.482
49171W        W10482  29.921   9.682   1.437
49172W        W10483   2.271  16.076   4.272
49173W        W10484   0.475   7.859  11.088
49174W        W10485  36.853  35.497   4.303
49175W        W10486  27.486  21.547   3.855
49176W        W10487  23.507  20.760   9.614
49177W        W10488  43.962   7.849  11.017
49178W        W10489  20.727  18.546  11.987
49179W        W10490   9.396  40.519  10.981
49180W        W10491  33.092  35.926  14.795
49181W        W10492   2.338  20.272   0.286
49182W        W10493  22.229  36.519   1.764
49183W        W10494   1.923  16.667   2.694
49184W        W10495  39.327  30.063  12.012
49185W        W10496  23.619  36.883   9.978
49186W        W10497  22.196  26.548  10.512
49187W        W10498  26.029   1.340  14.303
49188W        W10499   8.881  44.286  11.604
49189W        W10500   7.777  34.899   1.747
49190W        W10501  24.981  25.680  11.047
49191W        W10502  11.371  29.452  13.822
49192W        W10503   2.850  17.791   3.781
49193W        W10504  16.639  41.822   4.684
49194W        W10505  42.978  17.644  13.915
49195W        W10506  43.441  24.994  11.426
49196W        W10507  27.976  28.050   5.136
49197W        W10508  26.680  32.479  10.454
49198W        W10509  39.915  16.154  12.556
49199W        W10510   2.783  37.981   3.779
49200W        W10511  11.365  27.972  10.529
49201W        W10512  15.157  11.708  10.977
49202W        W10513  31.476  16.155  11.938
49203W        W10514  39.514  30.459  10.617
49204W        W10515  12.615  44.447  11.956
49205W        W10516  40.418  42.376   0.800
49206W        W10517  20.094  19.548  10.486
49207W        W10518  39.497  22.552  13.007
49208W        W10519  21.730  14.250   3.718
49209W        W10520   4.333  41.498   4.601
49210W        W10521  33.961  18.208   1.221
49211W        W10522  28.024  13.305  14.943
49212W        W10523   2.804  15.181  14.431
49213W        W10524   6.269   3.928  12.079
49214W        W10525  17.740   2.889  11.080
49215W        W10526   2.258  11.284  11.861
49216W        W10527   0.879  33.452   1.813
49217W        W10528  24.490  39.062  12.834
49218W        W10529  12.781  43.894   3.204
49219W        W10530   5.254  19.215   3.864
49220W        W10531  17.252  34.440  14.882
49221W        W10532  25.531  40.324   3.829
49222W        W10533  24.011  10.163   1.872
49223W        W10534  34.404  18.742  11.058
49224W        W10535  17.697   0.340  11.007
49225W        W10536  23.692  10.765   2.830
49226W        W10537  37.412  17.138  14.406
49227W        W10538  10.682  22.540  13.936
49228W        W10539   1.350  43.836  12.388
49229W        W10540  22.647  23.213  11.031
49230W        W10541   7.883  16.716   3.294
49231W        W10542   3.878  34.530  14.874
49232W        W10543  16.204  10.754   2.730
49233W        W10544  27.625  18.075   3.780
49234W        W10545  25.183   3.270   4.330
49235W        W10546  11.626   2.389  14.977
49236W        W10547  19.118  42.970  14.894
49237W        W10548   2.418  12.227  10.958
49238W        W10549  25.681  42.444  12.865
49239W        W10550  30.980  26.544   9.967
49240W        W10551   6.692   9.246   2.852
49241W        W10552  43.806  25.978  10.953
49242W        W10553  39.810  17.790  11.504
49243W        W10554  42.782  28.589  12.995
49244W        W10555  24.680  30.157   1.291
49245W        W10556  19.245   0.279  13.965
49246W        W10557  23.585  33.917   2.768
49247W        W10558  41.977  42.327   0.409
49248W        W10559  20.063  27.016   4.322
49249W        W10560  35.518  38.558  12.487
49250W        W10561  12.345  10.231  13.826
49251W        W10562  32.490   0.950   2.310
49252W        W10563   8.664  24.617   4.749
49253W        W10564  43.793  26.657   4.312
49254W        W10565  41.921  35.878  10.493
49255W        W10566  43.279  14.233  11.389
49256W        W10567  18.755   0.247   4.277
49257W        W10568  27.677  24.062   0.290
49258W        W10569   8.268  30.422   1.398
49259W        W10570  18.221  31.077   4.327
49260W        W10571   7.851  15.700  12.047
49261W        W10572   0.896   5.439  11.099
49262W        W10573  39.895   0.316  14.408
49263W        W10574  19.185  14.765   2.190
49264W        W10575  15.241  29.607  14.450
49265W        W10576  25.674  21.196   4.753
49266W        W10577  39.960  20.244   3.720
49267W        W10578  13.235  20.234   3.300
49268W        W10579   4.770  28.049  11.072
49269W        W10580   0.385  11.129   0.879
49270W        W10581  16.600  30.659  14.467
49271W        W10582  12.221  29.077   2.360
49272W        W10583  36.928  29.613  11.889
49273W        W10584  27.130  10.230  11.581
49274W        W10585   9.647   2.345   2.380
49275W        W10586  39.909  12.340   4.642
49276W        W10587  25.094  38.062  13.326
49277W        W10588   0.276  22.018  13.869
49278W        W10589   3.357   0.821   5.177
49279W        W10590  11.744  35.859  13.968
49280W        W10591  31.057   2.785   3.272
49281W        W10592  14.660  42.955  12.074
49282W        W10593  40.972  34.426   2.782
49283W        W10594   6.375  25.084  11.507
49284W        W10595   3.401  26.032   1.276
49285W        W10596   6.840  22.550   2.839
49286W        W10597   8.173  43.433  12.892
49287W        W10598  35.446  34.020  10.563
49288W        W10599  11.686  24.532   0.310
49289W        W10600   8.163   6.246   3.202
49290W        W10601  14.327  20.128  11.519
49291W        W10602  20.703  10.752   4.826
49292W        W10603  19.098  23.534  12.904
49293W        W10604   1.885  37.029  10.535
49294W        W10605  21.611  34.029   4.128
49295W        W10606  29.521  12.357  14.344
49296W        W10607  12.815   0.923   1.302
49297W        W10608   9.237  13.664   4.617
49298W        W10609  40.504   6.293  13.465
49299W        W10610  42.997  24.973   3.228
49300W        W10611  17.292  35.038  13.463
49301W        W10612  24.511  40.496  10.039
49302W        W10613  32.993  31.142   2.219
49303W        W10614  17.571  17.651   1.747
49304W        W10615  26.050   3.226   5.134
49305W        W10616  37.046   1.291   1.779
49306W        W10617  33.564  40.951  11.922
49307W        W10618  24.093  33.405  13.852
49308W        W10619  25.704   7.692  10.546
49309W        W10620   7.319  20.686  12.545
49310W        W10621   4.942  19.736   3.634
49311W        W10622  18.648   5.712  13.019
49312W        W10623  25.677  16.665   1.866
49313W        W10624  26.018  36.467  13.902
49314W        W10625  14.195  40.024  13.455
49315W        W10626  24.151  33.430   0.905
49316W        W10627  34.958   0.397   0.358
49317W        W10628  10.238  38.478   3.654
49318W        W10629  20.136   0.944  12.369
49319W        W10630  43.876  21.017   2.293
49320W        W10631   6.229  44.410  11.511
49321W        W10632  40.345   2.944   0.877
49322W        W10633  29.495   9.660  11.541
49323W        W10634   5.296  23.034   1.812
49324W        W10635   8.800  32.564  10.979
49325W        W10636   7.870  22.727   1.264
49326W        W10637   3.836  34.546   4.328
49327W        W10638  12.303  18.110   1.257
49328W        W10639   0.251   6.184   2.241
49329W        W10640  41.382  13.742   3.163
49330W        W10641  28.093   2.947   0.914
49331W        W10642  10.346  32.444   1.783
49332W        W10643   3.326  35.009  12.379
49333W        W10644  11.304  32.575  11.476
49334W        W10645  36.438  43.363   3.298
49335W        W10646  41.025  39.323   0.472
49336W        W10647   4.419   6.262   4.783
49337W        W10648   2.229   7.749   4.332
49338W        W10649  33.894  37.032   3.189
49339W        W10650  15.743  35.951  14.928
49340W        W10651   3.797  32.008  12.517
49341W        W10652  37.340   7.665   3.679
49342W        W10653  11.356   8.869  11.977
49343W        W10654  31.555  25.590   3.714
49344W        W10655  40.022  39.532   0.846
49345W        W10656   2.866  21.248   0.872
49346W        W10657  37.439  41.994   4.148
49347W        W10658   6.687  35.486   1.772
49348W        W10659   9.652  33.936   1.284
49349W        W10660  13.786  36.493  12.843
49350W        W10661  10.169  32.118   0.762
49351W        W10662  27.512  17.561  11.407
49352W        W10663  41.534  14.655   0.851
49353W        W10664   5.307  33.071   2.390
49354W        W10665  14.146   3.334   2.323
49355W        W10666  20.231   7.697   2.306
49356W        W10667  18.108  35.371  11.418
49357W        W10668   8.692  22.051   2.304
49358W        W10669  35.967  14.161   1.249
49359W        W10670  31.045  29.087   2.286
49360W        W10671  34.031  38.870  12.411
49361W        W10672  14.288   1.290   5.202
49362W        W10673   2.803  19.674   2.688
49363W        W10674  14.659  27.663   0.319
49364W        W10675  10.383  25.665   0.816
49365W        W10676  10.373  41.800  13.452
49366W        W10677  18.781  30.514  14.976
49367W        W10678  20.083  31.095  13.488
49368W        W10679   0.256  38.416   4.265
49369W        W10680  14.767  23.091  14.776
49370W        W10681   0.368  10.641   2.331
49371W        W10682  43.956  21.080  11.887
49372W        W10683  11.220  14.710   4.731
49373W        W10684   3.934  13.153   3.765
49374W        W10685  11.865  29.637  12.542
49375W        W10686  21.205  35.536   3.752
49376W        W10687  25.597  25.575   2.783
49377W        W10688   7.784  21.548  11.107
49378W        W10689  29.574  17.587  10.609
49379W        W10690  27.982   9.287   4.745
49380W        W10691  19.158  17.229  11.045
49381W        W10692  44.360  30.550   4.338
49382W        W10693  33.995  42.483  12.473
49383W        W10694   0.781   0.843  13.939
49384W        W10695  11.315  19.263   2.346
49385W        W10696   5.719  25.160   2.405
49386W        W10697  12.622   9.680   4.238
49387W        W10698  28.604  41.427  12.887
49388W        W10699  16.571   9.319  12.974
49389W        W10700  32.950   5.196   0.831
49390W        W10701   3.374  12.770  11.124
49391W        W10702   7.826  35.854   1.871
49392W        W10703  12.674  29.466  10.928
49393W        W10704  10.864  37.909   3.280
49394W        W10705   0.465  33.928   4.615
49395W        W10706  25.504   7.245  12.838
49396W        W10707   9.702  21.726   4.141
49397W        W10708   8.402  31.444  12.955
49398W        W10709  11.691  17.262  10.496
49399W        W10710  12.744  18.602  11.432
49400W        W10711  25.494   2.821   0.345
49401W        W10712  36.349  17.280   1.402
49402W        W10713  25.513   6.779   2.178
49403W        W10714  10.210  36.892   0.787
49404W        W10715  11.635  38.978   0.253
49405W        W10716   0.960  15.664   1.908
49406W        W10717  34.049  22.031   4.289
49407W        W10718  15.144  43.939   0.433
49408W        W10719  17.753  25.695  10.022
49409W        W10720  39.014  25.702  10.527
49410W        W10721   8.234  20.213   0.897
49411W        W10722  22.073   0.966  14.303
49412W        W10723  20.174  21.549   0.280
49413W        W10724  39.941  28.567  13.835
49414W        W10725  43.777  23.009  13.915
49415W        W10726  11.189  12.224   1.451
49416W        W10727   8.758  21.081  12.874
49417W        W10728   5.701  33.582  14.017
49418W        W10729   9.284  26.178  14.922
49419W        W10730  40.029   0.456   0.924
49420W        W10731  30.976   0.395  10.960
49421W        W10732  36.913  32.482   0.923
49422W        W10733  27.658  41.460   3.815
49423W        W10734  24.652   8.834   0.252
49424W        W10735  37.070   8.377   4.228
49425W        W10736  24.591  14.141   5.141
49426W        W10737  24.671  21.685   3.804
49427W        W10738   7.731   3.459  12.882
49428W        W10739  10.270  23.985  12.486
49429W        W10740  42.868   8.373   4.189
49430W        W10741  23.732   3.288  14.775
49431W        W10742  30.455   8.262   0.336
49432W        W10743  40.054   8.276   3.343
49433W        W10744  43.408  13.308   0.910
49434W        W10745  14.806   0.433   1.218
49435W        W10746   1.895  14.275  13.803
49436W        W10747   3.942  20.151   0.269
49437W        W10748  43.408  11.861  10.494
49438W        W10749  26.013  37.877   2.264
49439W        W10750  27.064   7.195   3.813
49440W        W10751  40.980  26.207   3.260
49441W        W10752  11.237  16.110   2.759
49442W        W10753  16.266  21.239  14.971
49443W        W10754  43.015  35.369   1.722
49444W        W10755  44.842   4.441   4.325
49445W        W10756  38.823  39.520  13.029
49446W        W10757  37.351  36.980   2.402
49447W        W10758  18.678   8.274  11.406
49448W        W10759  20.273  41.037   0.754
49449W        W10760  11.175  25.706   2.384
49450W        W10761  31.519  25.621  10.923
49451W        W10762  28.636  41.993   1.382
49452W        W10763  31.534   9.345   3.285
49453W        W10764  20.696  21.199   4.685
49454W        W10765  17.062  27.607   3.854
49455W        W10766  17.679  32.127   2.794
49456W        W10767  26.648  23.204   1.386
49457W        W10768  20.090  30.428   0.394
49458W        W10769  15.721   4.435  12.571
49459W        W10770   1.881  14.265   4.625
49460W        W10771  11.815  19.119   0.400
49461W        W10772   2.909   4.839  12.434
49462W        W10773  27.191  19.691   2.237
49463W        W10774   6.320   9.778  11.408
49464W        W10775  26.040  28.652   4.114
49465W        W10776   2.747  40.926  13.042
49466W        W10777  44.313   6.191   1.795
49467W        W10778   8.395   7.371  12.823
49468W        W10779   6.323  25.051   4.194
49469W        W10780  17.232  42.889   9.974
49470W        W10781  41.893  32.477   4.820
49471W        W10782  11.263  31.498   1.729
49472W        W10783  21.241  20.707  12.518
49473W        W10784  38.924  24.691   4.709
49474W        W10785  12.772  17.242   3.847
49475W        W10786  33.923  25.050  10.497
49476W        W10787  37.034  10.729   0.774
49477W        W10788   3.246  39.036  12.353
49478W        W10789   2.354  19.773   4.147
49479W        W10790  37.566  19.047  14.907
49480W        W10791  25.661  10.694   4.701
49481W        W10792  39.326  21.048  13.896
49482W        W10793  10.742  34.572  11.093
49483W        W10794  27.998   6.247  14.364
49484W        W10795  16.594  35.503  11.073
49485W        W10796  34.066  11.209  12.358
49486W        W10797  14.680  42.844  14.339
49487W        W10798  37.411  41.980  14.275
49488W        W10799  20.550  12.733   1.367
49489W        W10800   4.795   9.238  12.057
49490W        W10801  27.990  24.180  10.046
49491W        W10802  42.303  26.490   0.828
49492W        W10803  36.094  28.666   1.933
49493W        W10804  30.590  34.561  10.431
49494W        W10805  28.639   3.865   2.891
49495W        W10806  28.948  33.484   4.723
49496W        W10807  36.841  25.065  12.027
49497W        W10808  32.523  19.665   4.608
49498W        W10809   6.193  31.463   4.724
49499W        W10810  22.118  35.030  12.089
49500W        W10811  17.728  14.658  10.141
49501W        W10812  40.017  38.347  14.794
49502W        W10813   5.697   0.323  10.630
49503W        W10814   3.763   2.349   4.225
49504W        W10815  29.639  31.497   4.668
49505W        W10816  30.125  21.179   3.373
49506W        W10817  19.752  12.218  13.925
49507W        W10818  12.845  11.360  13.953
49508W        W10819  29.981   0.420   1.327
49509W        W10820  17.578   6.773  13.823
49510W        W10821  33.406  10.232  12.429
49511W        W10822   2.757  43.298   2.698
49512W        W10823  14.795   0.819  14.950
49513W        W10824  23.078  37.841  13.927
49514W        W10825   7.763   1.250  14.301
49515W        W10826  34.093  13.703  10.426
49516W        W10827   2.739  13.257   4.815
49517W        W10828   0.283   1.957  14.371
49518W        W10829  33.414  32.058   2.690
49519W        W10830   6.739  39.011  12.371
49520W        W10831   7.171  11.322   3.780
49521W        W10832  26.686  26.021   4.693
49522W        W10833  22.590  21.703  12.508
49523W        W10834  32.435   0.788   4.794
49524W        W10835   8.727   1.391   1.282
49525W        W10836  27.593  38.497   4.665
49526W        W10837  29.639   8.683   0.359
49527W        W10838  35.502  44.974  14.512
49528W        W10839  37.981   7.402  12.998
49529W        W10840   2.273  18.627   2.764
49530W        W10841  21.180  42.361   2.727
49531W        W10842  15.596  10.344   1.771
49532W        W10843  15.774  11.797   1.283
49533W        W10844  33.459  43.440  13.513
49534W        W10845  11.239  43.953   1.741
49535W        W10846  40.539   6.241  12.403
49536W        W10847   4.887  15.282  12.873
49537W        W10848  27.182  27.540  12.375
49538W        W10849  10.210  27.548  13.818
49539W        W10850  36.501  37.902  10.419
49540W        W10851  44.797  27.483   1.430
49541W        W10852  32.997  24.204   1.919
49542W        W10853   7.859  39.975   1.699
49543W        W10854  36.961  16.129   3.763
49544W        W10855  18.735  38.882  13.990
49545W        W10856  11.352  29.505   3.257
49546W        W10857  21.195  33.418   2.799
49547W        W10858  17.767  10.160  14.905
49548W        W10859   8.269  37.488  12.463
49549W        W10860  19.175  16.180   2.689
49550W        W10861  18.693  20.197  12.497
49551W        W10862   5.895  34.438   4.344
49552W        W10863  31.149  38.387  12.392
49553W        W10864  28.051  41.313  12.875
49554W        W10865  24.492  42.779  11.449
49555W        W10866  10.266  24.171  10.965
49556W        W10867  26.646  11.625   1.751
49557W        W10868  32.596  44.836   1.768
49558W        W10869  33.895   1.903  14.967
49559W        W10870  27.101   6.269  11.975
49560W        W10871  15.158   7.878   2.184
49561W        W10872   0.917  34.056   9.932
49562W        W10873  24.641  13.186   4.151
49563W        W10874  17.651   0.342   2.387
49564W        W10875   0.936  40.853   0.778
49565W        W10876   3.303  16.309  13.416
49566W        W10877   9.211  25.093   1.915
49567W        W10878  29.431  14.268   0.932
49568W        W10879   4.214  16.228   4.146
49569W        W10880  39.053  14.195   4.796
49570W        W10881  41.978  31.643   0.731
49571W        W10882  34.995  27.165  14.806
49572W        W10883  35.432   0.445  13.448
49573W        W10884  28.029  12.777  10.545
49574W        W10885  21.608   4.358   2.258
49575W        W10886   4.211  38.000   2.399
49576W        W10887  17.680  20.720   2.363
49577W        W10888  11.645   9.384  11.067
49578W        W10889  40.927   6.207  11.498
49579W        W10890  28.635  25.116   0.473
49580W        W10891  18.629  39.548  13.924
49581W        W10892  34.942  39.927  12.921
49582W        W10893  37.939  24.610   4.703
49583W        W10894  44.276  22.646  13.004
49584W        W10895   8.284   2.252   4.668
49585W        W10896   2.867  37.838  13.947
49586W        W10897  29.484  40.452   2.751
49587W        W10898  31.996  26.521  10.105
49588W        W10899  43.292  17.779   3.783
49589W        W10900   3.382  10.308  10.425
49590W        W10901  18.788   4.922   1.410
49591W        W10902  13.138   8.701  10.140
49592W        W10903  17.186  19.077   3.652
49593W        W10904  30.576  20.079   1.414
49594W        W10905   7.304  41.529   2.804
49595W        W10906  31.464   2.386   0.421
49596W        W10907  12.250  23.674   3.792
49597W        W10908  22.139  34.448   3.812
49598W        W10909  36.988  15.279  12.823
49599W        W10910   0.404  43.430  13.979
49600W        W10911  14.729  33.951   4.306
49601W        W10912  38.348  20.535  12.480
49602W        W10913  21.710  31.410  14.948
49603W        W10914  16.259   2.295   2.291
49604W        W10915  27.996  41.295  12.362
49605W        W10916   7.236  13.734  12.519
49606W        W10917   8.839   5.377   4.223
49607W        W10918  33.456  14.834   3.791
49608W        W10919  12.704   3.818   5.630
49609W        W10920  22.619  36.523  11.573
49610W        W10921  24.147  32.585  11.940
49611W        W10922   3.875  13.807  13.926
49612W        W10923  16.201  38.065   4.230
49613W        W10924   8.823  23.213  11.391
49614W        W10925  28.436  40.968   4.226
49615W        W10926  31.473  29.500  14.997
49616W        W10927  33.006  39.554   0.452
49617W        W10928  31.424  22.735   3.370
49618W        W10929   3.440  13.673  12.547
49619W        W10930  10.260   0.817  14.850
49620W        W10931  21.537  28.538   4.729
49621W        W10932  41.341  26.637   4.352
49622W        W10933  18.240   8.250   3.346
49623W        W10934  39.406  33.385  11.484
49624W        W10935  33.525  41.798  13.471
49625W        W10936  20.041   6.395  11.961
49626W        W10937  19.145  15.308   1.447
49627W        W10938  22.045   8.803  10.543
49628W        W10939  25.971  30.935   2.783
49629W        W10940  11.256  14.773  13.911
49630W        W10941  12.354  43.822   2.286
49631W        W10942  44.260  13.117   3.167
49632W        W10943  13.106  41.953  14.505
49633W        W10944  15.329  31.562  11.965
49634W        W10945  11.754  38.047  13.333
49635W        W10946  12.683  44.912   4.678
49636W        W10947   2.768   9.838  14.836
49637W        W10948  32.573  35.460   1.355
49638W        W10949  24.679  12.751   1.354
49639W        W10950  41.889  19.202  14.463
49640W        W10951  35.005  19.144   3.293
49641W        W10952   4.257  41.516  11.533
49642W        W10953  21.124  43.855  11.922
49643W        W10954  24.558  30.023   0.931
49644W        W10955  23.725  21.742   1.291
49645W        W10956  21.634   7.290  12.464
49646W        W10957  20.072  33.416   2.901
49647W        W10958  34.079  17.215  11.054
49648W        W10959  27.647  16.243  10.472
49649W        W10960  29.168   4.804  13.462
49650W        W10961  32.121  21.160   2.329
49651W        W10962  26.177  28.634  13.489
49652W        W10963  34.062  40.480   0.446
49653W        W10964  31.970  22.137   1.746
49654W        W10965  34.601  40.427  12.418
49655W        W10966   7.673  29.586  14.803
49656W        W10967  32.586  12.818  12.543
49657W        W10968  29.957  32.050  12.515
49658W        W10969  31.542  31.438  11.557
49659W        W10970   4.732  31.550  10.033
49660W        W10971  16.210   2.736   1.909
49661W        W10972  24.023   7.885  12.076
49662W        W10973  10.227   8.281  14.815
49663W        W10974  21.655  27.074  12.533
49664W        W10975  43.508  21.262   1.703
49665W        W10976  39.868  11.369  10.888
49666W        W10977  38.037  36.962   5.099
49667W        W10978  10.772  14.118   3.779
49668W        W10979   6.883  11.722  14.821
49669W        W10980   3.795   7.889   2.214
49670W        W10981  25.098  14.303  14.770
49671W        W10982  12.362  30.621   0.305
49672W        W10983   1.885  15.146   0.918
49673W        W10984   9.709   5.335   0.266
49674W        W10985  21.578  14.679   0.298
49675W        W10986  28.659  40.438  13.326
49676W        W10987  43.854  24.703  11.401
49677W        W10988   1.853  42.845  13.923
49678W        W10989  33.607  43.996   4.834
49679W        W10990  39.521  19.039   2.719
49680W        W10991  38.410  21.062  12.824
49681W        W10992   2.397   6.901   3.324
49682W        W10993  32.000  27.571  10.898
49683W        W10994  33.566   6.714   2.694
49684W        W10995  38.373  12.652   3.664
49685W        W10996  26.063  24.509  11.057
49686W        W10997  12.663   3.727   1.231
49687W        W10998  34.990  31.519   3.307
49688W        W10999  32.942  41.451  14.289
49689W        W11000  32.911  19.053   3.642
49690W        W11001  22.230   7.380   0.433
49691W        W11002  40.956  37.446  13.314
49692W        W11003  28.082  30.417  11.535
49693W        W11004  25.621  39.883  10.504
49694W        W11005  43.910  34.111   2.347
49695W        W11006  36.030  34.608   0.429
49696W        W11007  22.171   4.864   3.199
49697W        W11008   0.455   6.305   1.801
49698W        W11009   7.361   8.871  12.020
49699W        W11010  28.992  30.587   2.409
49700W        W11011  31.616  25.655   0.442
49701W        W11012  10.283  32.118   2.875
49702W        W11013  11.802   4.377   0.921
49703W        W11014  23.008  32.936  11.415
49704W        W11015  14.315  22.203  13.793
49705W        W11016  13.659  39.044  14.325
49706W        W11017  15.730  18.074   3.768
49707W        W11018  29.541  12.680  10.418
49708W        W11019  35.585  10.757  14.356
49709W        W11020   4.241   0.905   2.694
49710W        W11021  20.230  16.227  10.483
49711W        W11022  21.097  39.813  11.550
49712W        W11023  10.833  22.237  13.851
49713W        W11024  18.576   0.325  14.911
49714W        W11025  44.483  35.060  11.402
49715W        W11026  28.630  35.518  11.382
49716W        W11027  31.098   3.725  12.025
49717W        W11028  17.125  17.077   2.221
49718W        W11029  36.579  17.776  12.471
49719W        W11030  22.183  42.784  10.920
49720W        W11031   3.821  33.591   1.733
49721W        W11032  13.657  34.969  11.086
49722W        W11033   0.767   8.240  12.548
49723W        W11034  16.682   2.929   0.750
49724W        W11035  11.851  42.367   4.751
49725W        W11036  43.987   2.407  14.372
49726W        W11037  19.588  31.542  13.484
49727W        W11038  29.552  21.237   1.265
49728W        W11039   0.410  40.871   2.278
49729W        W11040  28.152  40.494   4.238
49730W        W11041  26.026  33.875  12.561
49731W        W11042  30.991   0.898   0.929
49732W        W11043  43.325  24.668   2.716
49733W        W11044  17.232  26.642   5.308
49734W        W11045  12.629  38.824   1.412
49735W        W11046  13.819   5.425   2.886
49736W        W11047   0.285  27.146  14.419
49737W        W11048  41.874  43.847  12.097
49738W        W11049  22.651  31.496   1.325
49739W        W11050  23.101  34.105   0.264
49740W        W11051  10.302  14.604   1.828
49741W        W11052  33.626  43.396  12.351
49742W        W11053  26.550   3.276  13.818
49743W        W11054  33.515  33.031  12.452
49744W        W11055  27.666  12.288  12.027
49745W        W11056  24.654  44.492   3.672
49746W        W11057  31.493  38.969  11.096
49747W        W11058  12.184  21.065   0.897
49748W        W11059  43.478  16.664  10.474
49749W        W11060  35.541  32.121   3.274
49750W        W11061  33.587  18.174  13.965
49751W        W11062   7.833   3.944   0.784
49752W        W11063  27.686  40.385   0.288
49753W        W11064  12.308  34.608  14.996
49754W        W11065  30.937  10.214   1.228
49755W        W11066  31.496  41.891   4.624
49756W        W11067   5.229  26.651   1.806
49757W        W11068  22.595  15.209   3.788
49758W        W11069  10.766   0.353  14.021
49759W        W11070  41.806  30.524   9.928
49760W        W11071  31.605  41.875   1.259
49761W        W11072  44.949  13.226  10.999
49762W        W11073  38.051  13.844  10.993
49763W        W11074  41.020  26.092  11.963
49764W        W11075  23.228  16.215  10.960
49765W        W11076   4.727  28.595  12.472
49766W        W11077  28.019   9.877   2.812
49767W        W11078   6.835  19.717  11.045
49768W        W11079  15.198  24.665   9.965
49769W        W11080  31.575   0.369   3.812
49770W        W11081  19.767   0.868  13.324
49771W        W11082   0.818   8.238  14.944
49772W        W11083  44.794  13.191  10.610
49773W        W11084  34.013  21.549   0.832
49774W        W11085  18.749  42.972  11.580
49775W        W11086   5.875   6.733   0.249
49776W        W11087  18.218  28.176   1.809
49777W        W11088  25.547  19.717   4.252
49778W        W11089   9.379   3.754   0.400
49779W        W11090   7.882  18.104   1.371
49780W        W11091  24.488  10.719  12.473
49781W        W11092  35.919  32.619  13.796
49782W        W11093  43.991  19.191   1.416
49783W        W11094  13.700  17.653  14.440
49784W        W11095  19.736  42.458  10.473
49785W        W11096  38.043  41.956   9.958
49786W        W11097  23.226  38.422   3.197
49787W        W11098  22.098  38.938  13.873
49788W        W11099  24.591  12.239   2.881
49789W        W11100  22.546   1.317   2.678
49790W        W11101  14.717  22.234  14.288
49791W        W11102  25.058   8.219   1.789
49792W        W11103  10.668  23.062  13.332
49793W        W11104  32.943  14.135  11.591
49794W        W11105  37.992  24.044  14.914
49795W        W11106   0.258   4.351   4.202
49796W        W11107  11.757  11.139  11.048
49797W        W11108  18.565  28.104  14.798
49798W        W11109  20.269  40.349   0.400
49799W        W11110   3.732  16.650   1.876
49800W        W11111  25.154  17.173   2.805
49801W        W11112  21.236  21.246  14.476
49802W        W11113  17.215  13.140  11.569
49803W        W11114  23.141  21.713   3.308
49804W        W11115  42.013  17.304  11.121
49805W        W11116  29.958  39.560   3.277
49806W        W11117  25.515  37.941  12.014
49807W        W11118  16.244  25.997  13.004
49808W        W11119  40.534  24.484   3.375
49809W        W11120  34.531  22.205  14.030
49810W        W11121  29.580  26.081   4.123
49811W        W11122  38.438  36.542   3.656
49812W        W11123  14.176  36.994  13.792
49813W        W11124   7.798  10.145  10.494
49814W        W11125   0.931   5.392   2.874
49815W        W11126  20.126   3.231   1.778
49816W        W11127  25.974  29.550  11.543
49817W        W11128  11.207  41.413  14.812
49818W        W11129  31.443  17.666  11.375
49819W        W11130  32.568  10.773   0.459
49820W        W11131  26.652  34.500  10.422
49821W        W11132  12.752  34.379  12.037
49822W        W11133   4.428   2.873   1.299
49823W        W11134   5.728   6.830   0.905
49824W        W11135  34.471  12.762  10.977
49825W        W11136  10.277   3.843   3.838
49826W        W11137   9.697  21.138   1.355
49827W        W11138   0.310   3.751   2.856
49828W        W11139   6.330  30.985   1.436
49829W        W11140  21.181  37.984  11.459
49830W        W11141  29.543   0.303   0.820
49831W        W11142  13.265   4.699  13.913
49832W        W11143  43.909   8.395   4.692
49833W        W11144  33.934  36.982   2.873
49834W        W11145  29.540   6.698   3.689
49835W        W11146  20.763  35.023  11.433
49836W        W11147  33.913  35.471  11.481
49837W        W11148   0.259  34.384  11.857
49838W        W11149  29.924  42.451  11.872
49839W        W11150  40.477  40.494  10.989
49840W        W11151  41.901  41.991   1.444
49841W        W11152   1.911   3.309  11.042
49842W        W11153  33.057  37.358  11.004
49843W        W11154  30.056  27.083  12.924
49844W        W11155  42.364   3.368  14.328
49845W        W11156   8.806   3.299  12.944
49846W        W11157   4.732   0.895   3.673
49847W        W11158  28.998  17.070  11.571
49848W        W11159  29.505   5.742  13.458
49849W        W11160  41.869  22.592  14.902
49850W        W11161  34.537  40.345  14.465
49851W        W11162   2.370  18.174  10.155
49852W        W11163   9.732  29.525  12.835
49853W        W11164  13.645  33.419  10.911
49854W        W11165  28.577  31.605   1.338
49855W        W11166   7.730  38.067   1.331
49856W        W11167  38.457  28.935  13.319
49857W        W11168  40.446  22.539   2.218
49858W        W11169  39.398  35.018   4.115
49859W        W11170  24.043  30.149  10.475
49860W        W11171  31.574  18.295  14.782
49861W        W11172  11.176  16.735  14.828
49862W        W11173  10.229  15.122   3.826
49863W        W11174  28.123  26.646  13.952
49864W        W11175  23.183  13.796  12.869
49865W        W11176  36.366  21.116   3.752
49866W        W11177  44.916  30.980  13.052
49867W        W11178  15.714  11.687  11.587
49868W        W11179  13.830   3.337   9.622
49869W        W11180  41.422  32.588  12.458
49870W        W11181   1.760   9.708   4.611
49871W        W11182   5.766   5.263   3.788
49872W        W11183  17.204  25.153   0.744
49873W        W11184  15.748  32.550   0.903
49874W        W11185  34.610  10.771  12.514
49875W        W11186  24.504  27.192   3.755
49876W        W11187  30.558   9.742   0.288
49877W        W11188  32.495  23.990  11.454
49878W        W11189  41.520   5.782   0.293
49879W        W11190   5.872  16.813  14.460
49880W        W11191   8.215  22.500   4.295
49881W        W11192   3.857   3.829   4.266
49882W        W11193  38.387  35.924   4.739
49883W        W11194   3.900   1.459   2.734
49884W        W11195  27.690  20.609   1.788
49885W        W11196  34.592  35.001  14.419
49886W        W11197   2.744  10.768  11.020
49887W        W11198  21.565  43.496   3.240
49888W        W11199   5.819  10.698  14.366
49889W        W11200  17.303  39.808   1.216
49890W        W11201  18.171  38.536  13.541
49891W        W11202   7.315  27.017   0.823
49892W        W11203  18.727   4.270   0.855
49893W        W11204  33.613  40.995   2.316
49894W        W11205  23.614  34.928  14.880
49895W        W11206  40.939   7.175   4.653
49896W        W11207  43.283  24.161  11.026
49897W        W11208   5.772  37.859  10.421
49898W        W11209   2.852  25.064   4.644
49899W        W11210  41.026  17.764   4.177
49900W        W11211   7.738  29.960   4.209
49901W        W11212  26.667  23.091   4.136
49902W        W11213   0.801  43.982  14.021
49903W        W11214   5.199  29.938  12.887
49904W        W11215  30.047  26.473  10.429
49905W        W11216  18.141  15.758   1.321
49906W        W11217  23.625  28.524   3.741
49907W        W11218  14.779   6.706  11.884
49908W        W11219  32.985  16.683   3.237
49909W        W11220  38.031  17.176   3.381
49910W        W11221  14.713  14.164   0.780
49911W        W11222  42.893  31.414  13.458
49912W        W11223  18.700  36.533  11.588
49913W        W11224  23.503  14.237   0.776
49914W        W11225  20.729  43.767   4.227
49915W        W11226  14.148  36.475   2.666
49916W        W11227  38.968  29.980   0.277
49917W        W11228   1.475  21.551  14.899
49918W        W11229  34.890  17.068   0.785
49919W        W11230  35.936  31.125   0.276
49920W        W11231  18.648  20.562   2.831
49921W        W11232  34.562  29.644   2.366
49922W        W11233  27.064   4.722   4.154
49923W        W11234  27.197   1.776   5.177
49924W        W11235   5.895  39.975   2.238
49925W        W11236  42.451  44.822   2.335
49926W        W11237   4.701  43.789   3.281
49927W        W11238  18.588  22.074   3.229
49928W        W11239  14.311  35.006   0.345
49929W        W11240  27.482  34.466  12.510
49930W        W11241  33.498   3.937   3.861
49931W        W11242  32.491  11.352  13.038
49932W        W11243  38.504   6.191   3.856
49933W        W11244  24.496  21.709   5.602
49934W        W11245  39.845  14.299   3.645
49935W        W11246  40.911  24.993  13.310
49936W        W11247   2.752  27.471  13.537
49937W        W11248  26.098  16.800  12.083
49938W        W11249   6.363   9.178  13.048
49939W        W11250  15.637  44.483  10.483
49940W        W11251  22.125  37.954   1.393
49941W        W11252  18.642  13.196  10.917
49942W        W11253   1.245  26.631  14.370
49943W        W11254  25.650   5.725  11.946
49944W        W11255   1.839   8.187  12.439
49945W        W11256  29.506  17.291   0.761
49946W        W11257   8.205  34.007  13.427
49947W        W11258  28.016  17.758   1.353
49948W        W11259   7.327  10.202   3.855
49949W        W11260   3.351  42.343  13.994
49950W        W11261   2.748  20.724   2.826
49951W        W11262  20.191  39.513  13.497
49952W        W11263  37.500  16.597  14.868
49953W        W11264  40.826  27.649  14.511
49954W        W11265  18.713  38.449  12.877
49955W        W11266  33.462   0.819  11.929
49956W        W11267  39.949  17.179  14.894
49957W        W11268   0.805   6.712  14.408
49958W        W11269  11.144  36.019   2.694
49959W        W11270  44.967  10.677   3.345
49960W        W11271  37.382   9.790   1.368
49961W        W11272  29.592  34.100   0.347
49962W        W11273  16.254  18.699   2.358
49963W        W11274  11.361  15.593   0.270
49964W        W11275  25.983  16.137  12.019
49965W        W11276   1.966  24.583   3.861
49966W        W11277  25.130  21.753   1.312
49967W        W11278  35.107  28.583  11.512
49968W        W11279  28.668  33.928   0.350
49969W        W11280   4.705  26.506   0.275
49970W        W11281  32.466  29.510   2.714
49971W        W11282  34.882   4.370   0.288
49972W        W11283   1.739  18.558   2.689
49973W        W11284   1.278  35.533   2.353
49974W        W11285  43.850  39.559   1.884
49975W        W11286  36.466  12.353  10.925
49976W        W11287  43.865  43.488   0.799
49977W        W11288   3.256   1.812   3.385
49978W        W11289  30.037  14.700  12.488
49979W        W11290  20.253  43.430   0.261
49980W        W11291  38.990  21.130   4.204
49981W        W11292  16.679   1.786   4.114
49982W        W11293  43.992   5.817  10.504
49983W        W11294  42.778   2.446  13.462
49984W        W11295  38.533   0.263   1.752
49985W        W11296  33.060  42.358  12.505
49986W        W11297  41.963   6.778   0.800
49987W        W11298  17.106  19.704   3.712
49988W        W11299  36.922  31.975   2.335
49989W        W11300  21.253  22.587  11.000
49990W        W11301  37.990  40.444  11.554
49991W        W11302  37.024  21.027  10.131
49992W        W11303  32.961   2.464   4.254
49993W        W11304  39.051   6.716  13.951
49994W        W11305  32.487  17.239  12.417
49995W        W11306  28.983   2.754   2.219
49996W        W11307  43.381  25.087  10.947
49997W        W11308  37.364   4.349   2.832
49998W        W11309  23.589  12.851  14.372
49999W        W11310  28.647   0.328   3.346
50000W        W11311  40.532  35.994   2.265
50001W        W11312   0.804   0.842  10.511
50002W        W11313   5.426  17.159  12.837
50003W        W11314  25.633  39.869   5.202
50004W        W11315  26.180   0.425   2.838
50005W        W11316  17.218   1.413   3.283
50006W        W11317  40.459  18.072   5.104
50007W        W11318   9.196  21.634  13.868
50008W        W11319  33.613  42.872   0.262
50009W        W11320  31.117  10.702   0.764
50010W        W11321  29.138  27.071  13.872
50011W        W11322   7.787   0.317  12.905
50012W        W11323  40.925  14.178  12.074
50013W        W11324  29.982  21.695  11.099
50014W        W11325  41.436  27.158  14.358
50015W        W11326  21.576  38.343   2.900
50016W        W11327  44.834   2.743  13.397
50017W        W11328  41.979  35.562  14.817
50018W        W11329  33.491   2.743   0.396
50019W        W11330  34.982  19.174   3.630
50020W        W11331  17.727  34.484   4.291
50021W        W11332  36.517   8.311   0.922
50022W        W11333   2.321  38.899  12.927
50023W        W11334  44.949  20.064  10.575
50024W        W11335  32.977  10.152  11.447
50025W        W11336  20.571   2.893  14.830
50026W        W11337  39.508  10.849  14.292
50027W        W11338  14.766   6.224  13.914
50028W        W11339  35.497  27.653  13.445
50029W        W11340  25.975  33.077  11.550
50030W        W11341  21.682  26.642   3.373
50031W        W11342  42.327  25.151  14.454
50032W        W11343  12.293  20.650   3.719
50033W        W11344   9.232  40.811  13.055
50034W        W11345  32.978  18.753   1.344
50035W        W11346  15.229  19.207   2.254
50036W        W11347  21.071  23.523   1.333
50037W        W11348  35.586  11.149  10.921
50038W        W11349  36.563  24.187  10.614
50039W        W11350  11.670   1.966  12.911
50040W        W11351  19.053   7.896  14.807
50041W        W11352  18.089  31.063   2.664
50042W        W11353   5.711  39.036  10.591
50043W        W11354  30.515  25.972   4.234
50044W        W11355   3.858  13.180  14.854
50045W        W11356   8.901   0.486  12.410
50046W        W11357  34.917  42.318   2.804
50047W        W11358  34.374  36.930  11.405
50048W        W11359  43.408  39.841  13.979
50049W        W11360  10.219   3.375   1.863
50050W        W11361  43.879  22.246   1.778
50051W        W11362  22.211  22.202  14.855
50052W        W11363   0.428  21.700  12.987
50053W        W11364  35.857  22.211  12.881
50054W        W11365  44.004  26.474  12.847
50055W        W11366  25.979  29.618  12.038
50056W        W11367  39.928   2.738   1.809
50057W        W11368  34.527  41.331  12.449
50058W        W11369  32.135  14.665   1.780
50059W        W11370   3.769  10.305  13.802
50060W        W11371   8.175  15.222  11.030
50061W        W11372  10.302  31.572   2.370
50062W        W11373   3.453   8.792   1.826
50063W        W11374  14.768  38.412   4.218
50064W        W11375   9.349  11.865   1.868
50065W        W11376   8.376  32.976   0.281
50066W        W11377  41.494  37.536   4.204
50067W        W11378  36.579  31.021   0.284
50068W        W11379  39.319  16.589   4.678
50069W        W11380   4.904  40.449  10.141
50070W        W11381   3.791  20.115  13.062
50071W        W11382  25.989  17.106  12.029
50072W        W11383   5.423  31.416   3.741
50073W        W11384  32.046  28.041   1.864
50074W        W11385  25.705  22.744  13.046
50075W        W11386   5.724  10.314   4.154
50076W        W11387  23.736  23.140  14.283
50077W        W11388  32.543   5.231  10.512
50078W        W11389   6.794  18.057  12.433
50079W        W11390  10.849  37.001  12.529
50080W        W11391  12.832   1.391   3.725
50081W        W11392  18.264   5.341  13.053
50082W        W11393  33.029   6.683  14.836
50083W        W11394   0.331   3.296  10.612
50084W        W11395  31.897  18.667   2.223
50085W        W11396  42.886  28.648  14.846
50086W        W11397  32.897  28.935  14.425
50087W        W11398  17.297  20.240  12.995
50088W        W11399  13.348  31.134  13.359
50089W        W11400  40.311  24.654   3.763
50090W        W11401  33.411  25.157   4.800
50091W        W11402  42.861  27.577  10.409
50092W        W11403  25.053  42.399  11.989
50093W        W11404  13.840   0.347   0.747
50094W        W11405   5.734  29.569   1.398
50095W        W11406  43.977  21.540  10.538
50096W        W11407  36.468  23.624   1.874
50097W        W11408   7.412  41.458  12.573
50098W        W11409  44.491  41.317  13.796
50099W        W11410  25.476   0.264  13.473
50100W        W11411  39.505  27.095  13.499
50101W        W11412   2.731  23.555   0.737
50102W        W11413  40.925  10.281   1.824
50103W        W11414  19.077  14.259  13.350
50104W        W11415  11.645  16.119  13.463
50105W        W11416   2.441  38.978  10.558
50106W        W11417  36.347  29.437   0.907
50107W        W11418  34.084  18.702  11.022
50108W        W11419  29.137  14.663   0.358
50109W        W11420  16.157   6.418  12.912
50110W        W11421  28.519  11.343   3.328
50111W        W11422  40.963  35.022  13.053
50112W        W11423  39.387   5.225  13.031
50113W        W11424   4.267  25.180   1.398
50114W        W11425  29.004  15.188  10.946
50115W        W11426  35.968   6.360  12.544
50116W        W11427   0.380  34.029   1.374
50117W        W11428   2.896   5.240   0.394
50118W        W11429  34.078  24.575  12.009
50119W        W11430  12.716  25.080   1.812
50120W        W11431   2.871  19.192  12.842
50121W        W11432   2.795  39.925  11.492
50122W        W11433  38.480  16.666  14.500
50123W        W11434   7.903  27.146   3.763
50124W        W11435  10.212  36.912  14.803
50125W        W11436  31.047  13.701   0.735
50126W        W11437  16.268  28.572   1.447
50127W        W11438  32.053  24.707  14.889
50128W        W11439  38.539  37.935  14.502
50129W        W11440   5.754  29.950   3.673
50130W        W11441  24.524  38.446  10.139
50131W        W11442  15.708  40.358  11.493
50132W        W11443  43.393  23.621  11.557
50133W        W11444  19.121  15.715   2.710
50134W        W11445  44.762  38.873  12.520
50135W        W11446  24.160  28.143  13.937
50136W        W11447  41.337  33.069   3.758
50137W        W11448  33.560  20.539   3.171
50138W        W11449  20.151  13.601  13.353
50139W        W11450  26.567   9.702   0.350
50140W        W11451  25.676  25.134   3.832
50141W        W11452  33.482  21.569  14.386
50142W        W11453  27.077  43.457   1.697
50143W        W11454  36.357  14.198   5.172
50144W        W11455  15.604   0.416   1.854
50145W        W11456  34.088   7.843  13.869
50146W        W11457  16.799  44.491   0.430
50147W        W11458  35.577  26.483   4.621
50148W        W11459   2.887   3.279   3.362
50149W        W11460   3.876  30.612   1.729
50150W        W11461   0.364  19.695  11.958
50151W        W11462   1.426  18.157  10.614
50152W        W11463   7.841   7.208   0.271
50153W        W11464  19.549  31.603   0.331
50154W        W11465  26.995  39.313   0.369
50155W        W11466  30.526  21.185  10.936
50156W        W11467  12.217   1.744   3.779
50157W        W11468  23.667  30.515   4.248
50158W        W11469  42.992  41.301   2.901
50159W        W11470  34.120   7.797   1.263
50160W        W11471  14.128  35.410  10.635
50161W        W11472  41.471  37.422   2.302
50162W        W11473   0.829  16.312   1.320
50163W        W11474   7.240   6.317  14.432
50164W        W11475  23.158  25.097   1.274
50165W        W11476  39.868   3.782  13.838
50166W        W11477  44.862   2.259  14.318
50167W        W11478  30.417   5.700   0.256
50168W        W11479  20.644  43.782  14.784
50169W        W11480  37.965  10.784  12.885
50170W        W11481   5.300  14.125   1.284
50171W        W11482  34.044  36.022  10.526
50172W        W11483  33.555  44.008   3.236
50173W        W11484  11.235  33.586  10.475
50174W        W11485  19.121  32.979   2.861
50175W        W11486  28.629   9.722   9.974
50176W        W11487  31.597   3.731   1.720
50177W        W11488  33.900  10.327  13.432
50178W        W11489  27.650   6.399  13.986
50179W        W11490   8.304  13.253  10.431
50180W        W11491  32.085  34.437   0.916
50181W        W11492  29.085  11.243   3.854
50182W        W11493   5.400  16.282  13.889
50183W        W11494  11.170  12.124   1.897
50184W        W11495  41.945  22.561  10.139
50185W        W11496  43.302  40.855  11.599
50186W        W11497   8.737  17.774  12.509
50187W        W11498  35.007  31.529  10.132
50188W        W11499  13.775   4.265  13.006
50189W        W11500   7.314  14.232   2.798
50190W        W11501  13.225  44.834   2.700
50191W        W11502  19.610  30.542   0.831
50192W        W11503   5.260   2.933   3.210
50193W        W11504  21.244  37.445  12.990
50194W        W11505   6.206  35.939  12.441
50195W        W11506  22.548  29.151  13.386
50196W        W11507  14.101  15.174   0.386
50197W        W11508  32.016  11.759  12.046
50198W        W11509  20.254  33.907  10.597
50199W        W11510  39.517  43.996  12.448
50200W        W11511   9.273  22.567   0.470
50201W        W11512  33.093   8.296  12.491
50202W        W11513  13.267  26.633  13.390
50203W        W11514  28.680  37.406   2.708
50204W        W11515  17.181  33.536  11.532
50205W        W11516   4.346  35.448  14.905
50206W        W11517  32.974   7.352  11.449
50207W        W11518  10.317  37.388   2.880
50208W        W11519  44.887  16.166  10.521
50209W        W11520  15.789  39.341   0.944
50210W        W11521   3.832  42.992   4.191
50211W        W11522   2.921  16.308   3.192
50212W        W11523  15.226  22.167  12.886
50213W        W11524   3.861  36.076   0.887
50214W        W11525  36.050  14.191   4.313
50215W        W11526  15.257  37.505   0.889
50216W        W11527  13.760  22.188   9.991
50217W        W11528  22.169   4.886  14.450
50218W        W11529  21.692  40.854   4.225
50219W        W11530  23.000  12.631   3.176
50220W        W11531  36.411   5.408  13.405
50221W        W11532  20.149  23.588   1.894
50222W        W11533  18.278  34.404  14.292
50223W        W11534  27.952  42.448  11.512
50224W        W11535  35.393  41.905   1.384
50225W        W11536  27.484  16.237   1.414
50226W        W11537  30.634   9.169   4.237
50227W        W11538  30.944  43.767   0.907
50228W        W11539  18.204  21.043   9.969
50229W        W11540   2.917   4.865   0.746
50230W        W11541  11.152  30.522   0.756
50231W        W11542  26.593  12.323   4.296
50232W        W11543  24.579   4.237  13.379
50233W        W11544   0.916  11.815   2.717
50234W        W11545  27.989  13.184   2.330
50235W        W11546   1.858  16.098  14.874
50236W        W11547  24.580  39.470  13.929
50237W        W11548  19.708  12.835  10.151
50238W        W11549  21.600  12.226   1.925
50239W        W11550  43.405  17.288   0.915
50240W        W11551  11.799  27.068  14.990
50241W        W11552  23.598  11.193  11.582
50242W        W11553  39.936  41.904   4.763
50243W        W11554  35.501  44.328  12.498
50244W        W11555  30.932  30.007   3.677
50245W        W11556  40.490  12.798   4.721
50246W        W11557  11.647  40.343  10.404
50247W        W11558  33.907  42.018   2.871
50248W        W11559  11.695  41.031  12.976
50249W        W11560  41.827   6.691   3.796
50250W        W11561  37.435  13.264  10.891
50251W        W11562  17.793  33.432  13.835
50252W        W11563   2.966  21.121   4.833
50253W        W11564  42.513  41.023   4.299
50254W        W11565  16.619  30.957   2.323
50255W        W11566  17.154  32.567  14.417
50256W        W11567  41.315  37.929  10.532
50257W        W11568  26.015  19.766  14.003
50258W        W11569  29.617  43.439  12.832
50259W        W11570  18.131  28.049   4.643
50260W        W11571  12.680   4.838  11.416
50261W        W11572  28.634  36.931  11.010
50262W        W11573  29.617  12.821  13.489
50263W        W11574  37.001  36.360   1.883
50264W        W11575  33.621  44.313   4.318
50265W        W11576  26.669   0.372  13.017
50266W        W11577   7.404  10.680  14.362
50267W        W11578  30.117  10.293  13.466
50268W        W11579  36.435  26.486  12.439
50269W        W11580  36.460  37.921  13.402
50270W        W11581  35.511  36.971  13.041
50271W        W11582  35.915  26.071  12.403
50272W        W11583  41.871   6.425   3.734
50273W        W11584  30.493   5.253  12.463
50274W        W11585   3.300  36.524  13.410
50275W        W11586   8.399   0.839   1.259
50276W        W11587  40.916  23.632  14.302
50277W        W11588  33.039  31.143  11.114
50278W        W11589   7.413  30.471  10.642
50279W        W11590  26.094  29.919  12.092
50280W        W11591  23.027  13.315   4.802
50281W        W11592  15.723   0.454   0.292
50282W        W11593  32.543  10.376  12.370
50283W        W11594  11.268  17.163   0.918
50284W        W11595  33.973  23.552   0.808
50285W        W11596   3.740  23.013   3.830
50286W        W11597  34.414  28.679   0.378
50287W        W11598  11.769  22.237  10.507
50288W        W11599   6.713   9.753  11.374
50289W        W11600  40.902  22.557  10.580
50290W        W11601  25.108  14.704  13.373
50291W        W11602  22.622  28.543   1.738
50292W        W11603  19.567  40.999  11.892
50293W        W11604  36.055   0.356   4.701
50294W        W11605  20.522  16.719  12.898
50295W        W11606  28.026  40.911  14.009
50296W        W11607  17.572  39.001  10.465
50297W        W11608  27.992  35.593  12.942
50298W        W11609  33.993  12.720   0.836
50299W        W11610   5.706  16.709  13.868
50300W        W11611  16.575   7.270   0.956
50301W        W11612   0.256  42.961   3.372
50302W        W11613  43.283  13.604   2.677
50303W        W11614  18.613  16.668   0.769
50304W        W11615  37.574  13.305  10.468
50305W        W11616  36.352  21.664   2.743
50306W        W11617  43.991  17.654  14.394
50307W        W11618  18.659  23.162   0.901
50308W        W11619  19.283   1.298   1.403
50309W        W11620   6.410  12.150  10.589
50310W        W11621   8.170  27.640  12.577
50311W        W11622  37.019   9.864  11.041
50312W        W11623  16.308  38.519  12.471
50313W        W11624  17.242  33.388   0.469
50314W        W11625   0.837   1.744   0.926
50315W        W11626  34.386   6.890  13.953
50316W        W11627  25.555  37.849   4.706
50317W        W11628  36.564  44.440   9.925
50318W        W11629  38.896  31.918  14.285
50319W        W11630  37.381  13.655   0.392
50320W        W11631  26.617  26.698   1.429
50321W        W11632  14.797   9.181   3.691
50322W        W11633  28.147  41.922   1.854
50323W        W11634  23.167   0.402   4.141
50324W        W11635  18.076  14.663   3.836
50325W        W11636   3.286  40.918   0.483
50326W        W11637   0.954  17.163  12.081
50327W        W11638  31.528  23.058   3.340
50328W        W11639   3.338   8.235  14.298
50329W        W11640  18.231  28.986   1.263
50330W        W11641   3.936  22.608   3.164
50331W        W11642   8.795  17.219   2.839
50332W        W11643  12.825  32.487  11.931
50333W        W11644  36.505  38.939  13.368
50334W        W11645  40.811   2.811   1.233
50335W        W11646  34.030  42.376  13.508
50336W        W11647   7.757  28.144   5.312
50337W        W11648  38.989  26.139  14.927
50338W        W11649  23.097  13.628   4.212
50339W        W11650  43.820  17.296   3.159
50340W        W11651  18.091  39.868  14.795
50341W        W11652   2.256  35.575   2.347
50342W        W11653  30.545  41.454   3.255
50343W        W11654  13.138   9.381  13.866
50344W        W11655   6.707  21.099   1.847
50345W        W11656  39.498  20.219  13.979
50346W        W11657  11.286  14.149   3.333
50347W        W11658   8.724   3.426  14.900
50348W        W11659  12.168  21.133   1.878
50349W        W11660  30.948  22.080  13.904
50350W        W11661  10.322  37.515  13.019
50351W        W11662  32.900   5.387   3.796
50352W        W11663  41.807  41.360  14.945
50353W        W11664  13.236  42.003  14.788
50354W        W11665  30.439  35.035  14.989
50355W        W11666   2.332  21.229   2.279
50356W        W11667  25.034   6.196  14.835
50357W        W11668  31.087   2.892   2.186
50358W        W11669  36.962  39.391  13.373
50359W        W11670  42.864  29.977  13.835
50360W        W11671   8.733   8.876   2.187
50361W        W11672  10.305  24.499   1.732
50362W        W11673   4.361  16.661  11.942
50363W        W11674  16.778  31.143  12.382
50364W        W11675  43.845  34.436  10.633
50365W        W11676  13.655   5.839   2.670
50366W        W11677   5.832  18.245  11.880
50367W        W11678  40.494  42.963   4.671
50368W        W11679   1.949  25.974   0.748
50369W        W11680  25.578  39.989  11.918
50370W        W11681  16.265  38.925  14.281
50371W        W11682  25.623  17.150  10.032
50372W        W11683  36.028   5.921  14.855
50373W        W11684  41.511  37.006  14.510
50374W        W11685  21.567  13.211   0.243
50375W        W11686   5.302  43.512   4.727
50376W        W11687  36.586   6.749  12.518
50377W        W11688  34.408  35.994  10.522
50378W        W11689  21.158  13.803  11.390
50379W        W11690  21.028   2.460   1.245
50380W        W11691  21.640   0.279  11.439
50381W        W11692  34.988  16.217   4.160
50382W        W11693   3.913  30.641  13.019
50383W        W11694   8.282  32.004   1.307
50384W        W11695   5.919   7.885  11.912
50385W        W11696  23.579  17.703  14.904
50386W        W11697  32.010  30.453  13.942
50387W        W11698  24.715  25.523   3.223
50388W        W11699  26.693  36.087  14.288
50389W        W11700  20.071  16.267   4.794
50390W        W11701  43.446   8.388  12.994
50391W        W11702  37.550  17.184   5.225
50392W        W11703  26.524  17.704   1.366
50393W        W11704  10.139  22.699  11.408
50394W        W11705  21.722   9.174   2.279
50395W        W11706   2.445  23.512   4.130
50396W        W11707  13.619  25.022   3.650
50397W        W11708  27.526  44.358   2.813
50398W        W11709  11.293  39.968   3.706
50399W        W11710  35.549  21.238   2.712
50400W        W11711  22.012  18.086   0.298
50401W        W11712  18.711  42.796  12.903
50402W        W11713  28.448  37.528   4.683
50403W        W11714   9.749  25.502  14.426
50404W        W11715   6.197   1.923   1.425
50405W        W11716  11.747  33.914  12.094
50406W        W11717  43.312   4.788  11.081
50407W        W11718   3.787   3.731  11.865
50408W        W11719   7.365  31.896  14.780
50409W        W11720  39.912   9.861  11.378
50410W        W11721  36.085   9.274  12.069
50411W        W11722  21.144  39.477   4.293
50412W        W11723  15.665  18.190   2.664
50413W        W11724  30.101  10.297  12.876
50414W        W11725  35.051   9.274   4.254
50415W        W11726  19.574  22.085  12.554
50416W        W11727   4.349   2.352  13.319
50417W        W11728  10.240   4.921   2.300
50418W        W11729  17.247  34.385   1.775
50419W        W11730   8.899  41.414  12.908
50420W        W11731  27.681  34.089   0.399
50421W        W11732   0.398  42.869  14.880
50422W        W11733  13.846   6.815  13.822
50423W        W11734   2.934   4.933   2.341
50424W        W11735  23.612   3.830  10.473
50425W        W11736  17.620  23.162  13.056
50426W        W11737  18.642   0.841  10.954
50427W        W11738  33.112  11.192   1.818
50428W        W11739  15.792  16.607  14.337
50429W        W11740   0.488  22.154   2.410
50430W        W11741  32.598  33.599   1.441
50431W        W11742  34.408  13.265  11.391
50432W        W11743   9.726  34.530  14.505
50433W        W11744  16.116  16.150  12.492
50434W        W11745  37.497   8.803   1.278
50435W        W11746   6.227   6.864  11.563
50436W        W11747  43.898  29.964  14.398
50437W        W11748  26.093  12.127  10.591
50438W        W11749   0.316   3.236  11.956
50439W        W11750  17.566   2.253   0.800
50440W        W11751  16.584  10.663   1.228
50441W        W11752  40.831   5.313   3.690
50442W        W11753  11.328  40.398  14.799
50443W        W11754  18.700  10.642   4.133
50444W        W11755  13.290  28.471  11.452
50445W        W11756  36.982  28.153   4.343
50446W        W11757   2.818  31.574  12.417
50447W        W11758   0.895  24.153   4.748
50448W        W11759  10.788  11.695  13.335
50449W        W11760  38.373  30.923   2.210
50450W        W11761  13.818   9.226  14.347
50451W        W11762   3.352  34.010   0.848
50452W        W11763  38.969  35.058   4.767
50453W        W11764  29.919  29.114  12.047
50454W        W11765   9.235  24.170   3.240
50455W        W11766  42.824  40.531   4.731
50456W        W11767   1.857   7.226  11.012
50457W        W11768  11.743  34.945   2.349
50458W        W11769   1.392  43.988   3.298
50459W        W11770  17.078  44.981  12.874
50460W        W11771  23.114  30.998   0.917
50461W        W11772  31.605  17.574   4.719
50462W        W11773  30.462  35.046   4.706
50463W        W11774  31.504   4.244  14.803
50464W        W11775  37.051  32.889  11.016
50465W        W11776  26.673   5.413  11.859
50466W        W11777  20.071  13.839   5.660
50467W        W11778  30.609  33.615  11.578
50468W        W11779  39.429   1.750  10.481
50469W        W11780  24.058  24.157   0.937
50470W        W11781  21.628  28.140  11.079
50471W        W11782  35.907   3.758  12.352
50472W        W11783  13.786  41.975  12.538
50473W        W11784  23.193   1.800   2.888
50474W        W11785  44.889   7.841  12.990
50475W        W11786  14.819  26.534   4.631
50476W        W11787   8.854  41.950   2.718
50477W        W11788  34.578   5.729   3.172
50478W        W11789  43.995  25.032  14.462
50479W        W11790   0.928  16.804   4.344
50480W        W11791   7.696   3.788   3.284
50481W        W11792   8.281  36.934  13.893
50482W        W11793  33.961   2.423  13.010
50483W        W11794   2.282  22.747   0.856
50484W        W11795  35.584   8.399   3.344
50485W        W11796  23.186  25.153  11.590
50486W        W11797  38.959  25.572   3.198
50487W        W11798  37.433  33.416  13.943
50488W        W11799  23.112   8.709  14.924
50489W        W11800   3.927  13.186   1.900
50490W        W11801   1.873  44.827  14.919
50491W        W11802  39.420  44.805   0.807
50492W        W11803  22.054   8.362  10.467
50493W        W11804  24.627  30.595  13.434
50494W        W11805  12.183  22.202   0.749
50495W        W11806  44.304  36.849   1.784
50496W        W11807  42.484   6.336  11.084
50497W        W11808   5.901  28.958   0.774
50498W        W11809  22.632  32.608   1.741
50499W        W11810  14.694  42.301  11.021
50500W        W11811  26.566  40.963   0.407
50501W        W11812  15.579   9.360   4.788
50502W        W11813   5.819   7.246   3.731
50503W        W11814   5.820  41.843   3.824
50504W        W11815  36.016  20.618   1.381
50505W        W11816  12.225  37.453  12.859
50506W        W11817  44.310   7.378  14.281
50507W        W11818   3.730  23.061  14.824
50508W        W11819  31.118  25.114   4.237
50509W        W11820  39.495  31.404   9.591
50510W        W11821   7.348  14.709  11.601
50511W        W11822  40.373  25.608   3.177
50512W        W11823   5.260   3.396   2.198
50513W        W11824  32.924  23.173  11.517
50514W        W11825  28.008  29.575   1.868
50515W        W11826  14.766  30.981   2.283
50516W        W11827  15.153  40.974   0.360
50517W        W11828  26.560  13.265   1.394
50518W        W11829  41.939  17.695   1.274
50519W        W11830  32.121  17.708   3.366
50520W        W11831  34.564  13.737  13.007
50521W        W11832  13.188  32.066  12.904
50522W        W11833  38.416   1.848  11.073
50523W        W11834  19.060  42.977   4.767
50524W        W11835  15.281  26.018  10.057
50525W        W11836   2.352  17.276   2.889
50526W        W11837  17.147  12.755   3.670
50527W        W11838  40.507  12.634   0.335
50528W        W11839  18.291   5.207  14.417
50529W        W11840   9.797  16.678  11.451
50530W        W11841  14.763  40.392  14.320
50531W        W11842   1.463   6.717   0.466
50532W        W11843  38.451  26.015  13.323
50533W        W11844   0.933  37.068   1.226
50534W        W11845   5.784  38.888   3.691
50535W        W11846  33.127  39.522   3.309
50536W        W11847  25.982  10.821   3.212
50537W        W11848  19.045  43.283   0.305
50538W        W11849  37.450  15.086   2.870
50539W        W11850  40.545   4.901   0.369
50540W        W11851  12.658  14.680  13.340
50541W        W11852  42.908  32.121  10.554
50542W        W11853   9.285  23.628   4.790
50543W        W11854  23.586  34.049  13.373
50544W        W11855  33.511  29.170  13.400
50545W        W11856  37.582  27.576   4.185
50546W        W11857  29.543  33.524  10.116
50547W        W11858  23.577  17.723   0.731
50548W        W11859  14.765   6.216  12.950
50549W        W11860  27.191  31.045  11.932
50550W        W11861  40.897   0.280   3.837
50551W        W11862  21.202  23.532   4.118
50552W        W11863  43.511   3.421   2.862
50553W        W11864  14.276  27.577   0.815
50554W        W11865   1.903  38.414  13.314
50555W        W11866  28.962  39.896  14.437
50556W        W11867   3.438  14.273   3.858
50557W        W11868   7.294  14.699  13.029
50558W        W11869   8.259  20.715   2.401
50559W        W11870   6.713   6.682   0.844
50560W        W11871  41.301  30.628  12.873
50561W        W11872  42.901  14.720  12.096
50562W        W11873   2.938   5.428   4.721
50563W        W11874  28.539  34.093   4.311
50564W        W11875  41.895  11.298  11.379
50565W        W11876   6.868   5.208  10.442
50566W        W11877  12.118   7.295  10.544
50567W        W11878  36.913  31.064  10.077
50568W        W11879  13.156   6.886  14.893
50569W        W11880   1.356  31.935   2.269
50570W        W11881  22.655  23.684   0.926
50571W        W11882  20.614  36.401   1.720
50572W        W11883  43.515  23.234  11.902
50573W        W11884  28.102  23.590   1.307
50574W        W11885  17.181  37.943   1.422
50575W        W11886  44.897  37.014   4.796
50576W        W11887  43.302  20.530  14.328
50577W        W11888  18.192  17.213   4.191
50578W        W11889   8.852   5.277   3.187
50579W        W11890  43.793  23.568  11.005
50580W        W11891  34.383  23.537   4.173
50581W        W11892  29.075   2.281  11.386
50582W        W11893  34.410   5.359   3.806
50583W        W11894  21.525  20.629   2.716
50584W        W11895  10.853  39.535  12.947
50585W        W11896  12.201  19.593   2.886
50586W        W11897  24.584  21.047  10.463
50587W        W11898  28.116  17.302   0.357
50588W        W11899  25.104  17.081   3.641
50589W        W11900  30.566   4.313   0.856
50590W        W11901  30.933  17.078   4.282
50591W        W11902  38.411  39.927   5.649
50592W        W11903  37.021   9.842  14.817
50593W        W11904  39.500  11.699  13.816
50594W        W11905   0.815  39.369   4.320
50595W        W11906  41.866  37.909  12.035
50596W        W11907  26.547  27.128  14.986
50597W        W11908  44.008   2.939  14.442
50598W        W11909  13.249  39.400   3.199
50599W        W11910  31.974  29.957  11.374
50600W        W11911  36.070   8.271   1.791
50601W        W11912  23.561   5.298  14.783
50602W        W11913  33.408  21.168  13.462
50603W        W11914   3.950  21.524  11.881
50604W        W11915  31.416   4.261  12.485
50605W        W11916  26.670  39.065   3.303
50606W        W11917  40.351  34.938  10.956
50607W        W11918  39.488   8.337  12.352
50608W        W11919  24.511   8.190  13.397
50609W        W11920  31.905  25.970  14.349
50610W        W11921  41.854   3.334   3.184
50611W        W11922  18.700  10.314   3.638
50612W        W11923  12.312   7.870   1.872
50613W        W11924  15.695  18.093  14.819
50614W        W11925  34.482  24.099   0.251
50615W        W11926  20.187   8.751   4.686
50616W        W11927  20.141  44.306  11.541
50617W        W11928   3.838  19.133  12.507
50618W        W11929  41.482  43.411  13.002
50619W        W11930   2.857  27.983  13.323
50620W        W11931  29.167   4.419   2.902
50621W        W11932  25.092   2.253   4.323
50622W        W11933  17.129  30.992   2.194
50623W        W11934  11.791  44.283   1.247
50624W        W11935   8.750   6.339  13.390
50625W        W11936   7.339  13.274  11.968
50626W        W11937   9.299  35.546  14.831
50627W        W11938  35.599  29.446  14.472
50628W        W11939  36.902   1.924  13.398
50629W        W11940  34.002  24.134   1.327
50630W        W11941   5.918   0.791  13.443
50631W        W11942  27.624  40.401  11.498
50632W        W11943  14.748  41.315   3.870
50633W        W11944  28.073  33.583  13.456
50634W        W11945  18.067   9.284  12.482
50635W        W11946   6.794  22.180  14.771
50636W        W11947   3.312  24.052   2.815
50637W        W11948  40.013  16.721   1.769
50638W        W11949   4.245  38.513  10.607
50639W        W11950  31.572  44.315  11.558
50640W        W11951  20.615  16.763   1.236
50641W        W11952  10.816  38.075  13.057
50642W        W11953  20.765  39.941   2.850
50643W        W11954  30.113  27.642  12.370
50644W        W11955  19.118  23.070   2.890
50645W        W11956   3.222   8.670   0.864
50646W        W11957  32.391  32.036   0.768
50647W        W11958   7.371  26.993   2.359
50648W        W11959   8.784  35.976  13.360
50649W        W11960  16.649  42.428  12.475
50650W        W11961  41.336  35.441   0.452
50651W        W11962  32.102  26.060  11.117
50652W        W11963  35.542  31.583   3.826
50653W        W11964  37.969  32.064  12.995
50654W        W11965  39.866  11.239  14.851
50655W        W11966  10.196  42.835  14.293
50656W        W11967  34.876  39.862  13.410
50657W        W11968  11.817  25.486   0.796
50658W        W11969  36.453  19.646   5.190
50659W        W11970  15.153  35.050  12.945
50660W        W11971  38.925  38.930  12.399
50661W        W11972  42.973  35.949  14.436
50662W        W11973  26.571  13.212   2.750
50663W        W11974  41.881  26.601   4.221
50664W        W11975  40.035  26.006  11.127
50665W        W11976  20.581  33.387   3.710
50666W        W11977  38.370  16.140  12.996
50667W        W11978  32.136   6.364   1.870
50668W        W11979  17.142  11.151  13.527
50669W        W11980   8.308  22.526  14.806
50670W        W11981  38.349  16.313  10.641
50671W        W11982  34.457  12.354   3.829
50672W        W11983   8.833  17.734   1.701
50673W        W11984   8.900  37.468   4.244
50674W        W11985   4.404  38.414   2.190
50675W        W11986   4.891  29.507   1.755
50676W        W11987  19.628  13.719  13.956
50677W        W11988  44.956  15.713  14.478
50678W        W11989   3.436  12.338  10.468
50679W        W11990  22.650  16.296  13.016
50680W        W11991  19.720  16.157  12.908
50681W        W11992  40.539   4.241   4.323
50682W        W11993  28.644  10.151  12.345
50683W        W11994  25.555  21.060  13.454
50684W        W11995   7.362  22.722  13.044
50685W        W11996  17.771  20.194   0.314
50686W        W11997  11.693  39.425   1.884
50687W        W11998  16.246   2.895  11.599
50688W        W11999  14.728  20.698   1.261
50689W        W12000   9.211  32.631  11.111
50690W        W12001  18.186  10.228   2.743
50691W        W12002  40.445   0.985  14.378
50692W        W12003  10.312   4.705  12.965
50693W        W12004   6.381  41.808   3.726
50694W        W12005  21.734   6.259  11.401
50695W        W12006  19.605  43.964  11.066
50696W        W12007  18.787  38.008  12.936
50697W        W12008  24.094  35.878   0.427
50698W        W12009  19.067  19.105   3.723
50699W        W12010  41.307  22.644  11.101
50700W        W12011  15.802  20.618   0.326
50701W        W12012   8.900  28.478   0.806
50702W        W12013  30.047   4.252  13.933
50703W        W12014  13.187  40.355   0.884
50704W        W12015  11.845  28.596   4.191
50705W        W12016   0.409  39.479   1.881
50706W        W12017  14.145  38.339   2.781
50707W        W12018  28.651  42.339  12.483
50708W        W12019  14.233  38.516  11.042
50709W        W12020  39.422  22.166   3.746
50710W        W12021  35.965  27.036  11.120
50711W        W12022  15.585  36.513   1.758
50712W        W12023   6.689  19.268  12.522
50713W        W12024  18.171  13.622  12.954
50714W        W12025  31.553  21.554   1.816
50715W        W12026  10.235   8.285   1.313
50716W        W12027  35.002  11.850   4.315
50717W        W12028  12.186   0.829   3.250
50718W        W12029  42.519   1.300   2.362
50719W        W12030   7.187  15.142  14.325
50720W        W12031  18.258   2.301   0.441
50721W        W12032   1.251  26.519   3.650
50722W        W12033  35.550  21.550  11.381
50723W        W12034  42.935   1.355  10.579
50724W        W12035  14.716  28.450  13.862
50725W        W12036  30.098  44.873   3.670
50726W        W12037  31.489  21.208  14.795
50727W        W12038   6.425  35.957   4.339
50728W        W12039  31.967  38.520  10.112
50729W        W12040   4.902   7.859   4.255
50730W        W12041  31.626  38.332  11.008
50731W        W12042  14.225  17.237   3.634
50732W        W12043   3.381  35.014   3.783
50733W        W12044   0.871  23.067  14.006
50734W        W12045   7.741  39.453  12.487
50735W        W12046  25.591  43.387   0.915
50736W        W12047  15.211  42.985   4.330
50737W        W12048  18.781  34.942   0.406
50738W        W12049  10.191  34.512  11.998
50739W        W12050  13.709  36.908  14.901
50740W        W12051  28.099  26.648   4.146
50741W        W12052  32.077   6.723   5.173
50742W        W12053  30.414   1.262   0.315
50743W        W12054  11.345  20.675   3.813
50744W        W12055  30.505  41.830   1.741
50745W        W12056   8.262  30.515  10.407
50746W        W12057  14.692  21.017  14.502
50747W        W12058  35.469   4.813  12.847
50748W        W12059  39.931   0.291   4.277
50749W        W12060   6.774  28.948  14.329
50750W        W12061  40.808  30.034   2.373
50751W        W12062  33.904  11.837  11.567
50752W        W12063  26.075  18.116   1.749
50753W        W12064  27.110  18.251  12.002
50754W        W12065   9.317  11.163   2.284
50755W        W12066  14.163  33.484  10.522
50756W        W12067  21.263  44.828   1.433
50757W        W12068  37.474   8.228  14.491
50758W        W12069  13.247   9.653   1.247
50759W        W12070   1.931   0.351  12.837
50760W        W12071  34.952   5.412  11.021
50761W        W12072  27.689  31.519  11.423
50762W        W12073  27.142  21.129  13.992
50763W        W12074  20.553   1.785  11.037
50764W        W12075  19.129  28.064   0.808
50765W        W12076  21.538  29.977   1.738
50766W        W12077  38.545  37.977   3.369
50767W        W12078   9.151  27.146  12.022
50768W        W12079  22.226  11.673   0.358
50769W        W12080  38.989   4.288   0.937
50770W        W12081   8.819  22.718   1.335
50771W        W12082  43.928  14.616  11.008
50772W        W12083  38.934  11.174  11.471
50773W        W12084  32.131   6.372  11.429
50774W        W12085  34.088  21.158   4.684
50775W        W12086  12.198   1.871  11.005
50776W        W12087  21.537  33.525  11.464
50777W        W12088   3.234  35.914  11.976
50778W        W12089  13.144  25.548  13.986
50779W        W12090   1.465  42.352  13.518
50780W        W12091   2.783  32.133   0.472
50781W        W12092  35.970  11.656   3.377
50782W        W12093  43.808   2.866   4.129
50783W        W12094  11.220  44.868   2.309
50784W        W12095  18.664  39.858  14.807
50785W        W12096   7.231  22.165   2.184
50786W        W12097  17.684   4.307   0.825
50787W        W12098  29.127   8.390   4.786
50788W        W12099  32.914  37.448   2.820
50789W        W12100  32.609  27.002  12.405
50790W        W12101   1.450  33.890   4.673
50791W        W12102  12.243  37.541  14.826
50792W        W12103  37.030   1.368  12.351
50793W        W12104  25.962  28.456   2.285
50794W        W12105  13.786   0.880   4.266
50795W        W12106  21.700  36.897  14.355
50796W        W12107   4.910  23.061  14.905
50797W        W12108   4.306  44.805  13.491
50798W        W12109  21.025  33.468  12.971
50799W        W12110   2.403  13.694   2.337
50800W        W12111  31.970  18.649  14.989
50801W        W12112   1.421   4.368  11.403
50802W        W12113  34.932  29.455   1.871
50803W        W12114  42.404   5.705   3.337
50804W        W12115  13.274  34.994  13.444
50805W        W12116  14.270  41.787   3.822
50806W        W12117  11.699  37.020  10.966
50807W        W12118  21.512   7.223  11.009
50808W        W12119  24.608  21.644  13.908
50809W        W12120  33.434  40.804   3.683
50810W        W12121  32.533  22.621  12.574
50811W        W12122   6.382   1.816  12.836
50812W        W12123  44.455  24.534  12.375
50813W        W12124  26.064   9.753   3.382
50814W        W12125  18.058  26.666   2.209
50815W        W12126  28.015  12.137   2.196
50816W        W12127   4.835  29.983   3.219
50817W        W12128  23.645  33.026   4.319
50818W        W12129  20.563  34.039   1.283
50819W        W12130  37.399  37.991   2.189
50820W        W12131  18.780  16.237   2.752
50821W        W12132  31.427   2.825  11.042
50822W        W12133  18.664  19.145   1.913
50823W        W12134  20.176  15.149  13.328
50824W        W12135  28.030   1.802  14.392
50825W        W12136  13.630   2.440  12.831
50826W        W12137   2.955  11.351  12.965
50827W        W12138  36.559  20.100  12.426
50828W        W12139  31.410  11.629  12.372
50829W        W12140  27.133   0.250   3.335
50830W        W12141  42.499  20.558  13.515
50831W        W12142  17.750  31.012  13.834
50832W        W12143   1.834  37.382  13.471
50833W        W12144  31.429   0.316  11.883
50834W        W12145  21.199  23.179   4.266
50835W        W12146   6.731  12.831  11.051
50836W        W12147  26.658  42.916  13.350
50837W        W12148  35.102  24.490  11.108
50838W        W12149  39.896  37.071  12.862
50839W        W12150   3.286   4.304  14.923
50840W        W12151  29.080  25.135  11.425
50841W        W12152  40.396   6.752  12.519
50842W        W12153  32.977  31.056  14.904
50843W        W12154  18.195  34.988  14.336
50844W        W12155  32.423   3.878   3.659
50845W        W12156  42.996  19.041  14.962
50846W        W12157  27.463  25.095  12.916
50847W        W12158  43.859  38.405  11.046
50848W        W12159  14.737   7.291  10.101
50849W        W12160  16.157  39.390  11.127
50850W        W12161  15.291  39.460   4.668
50851W        W12162   2.817  39.043   4.607
50852W        W12163  21.234  10.364  12.512
50853W        W12164  29.498  39.036  13.430
50854W        W12165  26.028  17.067   2.794
50855W        W12166  16.202  36.988   1.780
50856W        W12167  33.522   1.845  13.928
50857W        W12168   0.336   5.288  13.804
50858W        W12169  11.695  43.979   1.708
50859W        W12170  25.065   6.692   3.334
50860W        W12171  28.035   2.311  11.455
50861W        W12172  23.052  27.473   0.798
50862W        W12173  21.698   0.941   4.709
50863W        W12174  13.182  39.827   4.684
50864W        W12175  16.696  25.200   4.729
50865W        W12176  28.619  12.662  11.999
50866W        W12177  33.884  42.985  14.797
50867W        W12178   6.914  44.386  10.999
50868W        W12179  29.097  37.388   2.188
50869W        W12180   9.888  11.838   3.261
50870W        W12181  31.590  16.262  11.607
50871W        W12182  43.490  12.726   0.480
50872W        W12183   7.758  17.134  13.313
50873W        W12184  38.849  23.534  10.056
50874W        W12185  19.048  44.813  10.978
50875W        W12186  38.956  13.633  10.468
50876W        W12187   5.693   7.710  14.890
50877W        W12188   3.737  36.075  13.491
50878W        W12189  31.084   4.235  14.297
50879W        W12190  15.807  13.304   1.806
50880W        W12191  38.962  11.305   1.281
50881W        W12192  13.151  10.189  11.393
50882W        W12193   2.393   2.340  11.913
50883W        W12194  38.364  42.866  11.028
50884W        W12195  44.995  29.611   2.758
50885W        W12196  10.696  43.944  14.999
50886W        W12197  38.076   4.367   0.328
50887W        W12198  17.667  42.911   3.372
50888W        W12199  21.518  28.125  13.848
50889W        W12200  19.153  28.968   2.824
50890W        W12201   8.702  16.135   9.509
50891W        W12202  38.876  11.808   4.802
50892W        W12203  37.471  23.074   4.140
50893W        W12204   7.911   2.369   0.944
50894W        W12205   4.210   7.901   4.832
50895W        W12206   0.846  38.040  13.432
50896W        W12207  15.598  34.906  11.478
50897W        W12208   4.810  17.617  13.856
50898W        W12209  43.767   8.210  13.057
50899W        W12210  27.136   4.807   1.424
50900W        W12211  15.252  41.846  14.505
50901W        W12212  24.179  18.654   3.209
50902W        W12213  20.221  29.544   0.864
50903W        W12214  43.988  29.506  13.545
50904W        W12215  37.929  23.110   2.797
50905W        W12216  41.308  12.795   3.690
50906W        W12217   3.833  12.165   1.773
50907W        W12218  18.194  27.973  11.077
50908W        W12219  10.707  26.614  11.097
50909W        W12220   1.335   1.351  11.906
50910W        W12221  28.639  29.130  13.005
50911W        W12222  40.008  10.744   4.788
50912W        W12223  35.378  18.738  14.987
50913W        W12224  21.018   1.237  11.046
50914W        W12225   8.285  17.640   2.312
50915W        W12226  28.473  38.452  12.886
50916W        W12227   4.943  30.619   3.865
50917W        W12228   9.774  10.144  11.436
50918W        W12229  10.756   3.834   1.318
50919W        W12230  44.808  21.646  11.107
50920W        W12231  25.208  27.985   1.873
50921W        W12232  11.138  22.555   1.213
50922W        W12233  39.379  31.083  13.894
50923W        W12234  15.141  17.749  13.910
50924W        W12235   6.314  17.743  11.989
50925W        W12236  39.009  18.566   1.357
50926W        W12237  25.484  17.787   4.189
50927W        W12238  30.114   5.436  13.052
50928W        W12239  32.069   8.364  11.558
50929W        W12240  22.145  12.775   0.960
50930W        W12241  21.737  25.564  14.012
50931W        W12242  15.742  29.160   0.386
50932W        W12243   6.918  35.414   4.241
50933W        W12244   9.835  39.953  13.794
50934W        W12245  25.510  23.045  10.518
50935W        W12246  21.052  40.433  12.011
50936W        W12247  11.352   2.360  10.448
50937W        W12248  36.578  12.317  12.038
50938W        W12249   6.324  26.632  14.818
50939W        W12250   4.305   5.906   0.820
50940W        W12251   9.204  41.861   4.304
50941W        W12252  41.465   2.749  13.854
50942W        W12253  27.644   1.371  11.965
50943W        W12254  16.224  37.869  14.768
50944W        W12255  17.135  37.854   4.164
50945W        W12256  16.254  15.614  13.337
50946W        W12257  23.595  27.630   9.977
50947W        W12258  38.370   8.209  11.000
50948W        W12259   7.254  10.698   2.791
50949W        W12260   3.827  12.311   2.703
50950W        W12261  30.531   3.339   0.856
50951W        W12262  12.172   8.376  10.622
50952W        W12263  41.366  11.328   4.653
50953W        W12264  43.276   7.273  12.452
50954W        W12265  10.732  42.308  12.415
50955W        W12266   8.219  34.996   3.712
50956W        W12267   0.909  18.560   2.666
50957W        W12268  14.613  43.400   0.790
50958W        W12269   1.444  38.558   2.885
50959W        W12270  35.544  34.566   0.784
50960W        W12271  35.526  23.671   0.322
50961W        W12272  39.546   3.248   1.760
50962W        W12273  30.963  27.602  12.395
50963W        W12274  11.306   0.865   3.158
50964W        W12275  38.439  26.156   3.318
50965W        W12276  27.956  26.661   1.843
50966W        W12277  20.612  17.126   1.437
50967W        W12278   9.732  34.430   2.878
50968W        W12279  35.961  10.790   4.764
50969W        W12280  11.272  12.781  10.498
50970W        W12281  37.455   6.785   1.269
50971W        W12282  27.093  36.865   2.235
50972W        W12283  38.481  29.430  12.888
50973W        W12284   0.746  12.243  12.907
50974W        W12285   2.840   8.867  12.400
50975W        W12286  43.989  36.474  13.012
50976W        W12287   6.255   9.295  13.866
50977W        W12288  20.037  38.341   1.296
50978W        W12289  30.537  37.492  14.776
50979W        W12290  25.686  42.002  11.022
50980W        W12291  36.920  33.978   1.794
50981W        W12292  19.082  15.085  14.289
50982W        W12293  20.681   4.217   1.335
50983W        W12294  20.070  38.330  12.531
50984W        W12295  12.175  29.518  10.982
50985W        W12296  11.348  13.124   0.965
50986W        W12297  38.905  43.935  11.093
50987W        W12298  14.266  39.976   4.664
50988W        W12299  18.642  24.550  10.968
50989W        W12300  43.307  16.161   3.780
50990W        W12301   5.222  15.086   1.378
50991W        W12302  23.593  16.209   2.339
50992W        W12303   2.867  13.779  12.913
50993W        W12304  25.503   5.735  11.493
50994W        W12305  40.450  14.664  14.359
50995W        W12306  43.496  19.539  10.518
50996W        W12307  27.579  19.167  11.882
50997W        W12308  42.980  19.547  11.376
50998W        W12309  28.439   7.206   3.810
50999W        W12310  15.578  20.740  13.831
51000W        W12311  44.904  44.375  12.856
51001W        W12312  33.999   0.399   3.871
51002W        W12313  14.136  35.048  13.418
51003W        W12314  15.117   6.869   1.837
51004W        W12315  13.693  27.601   1.408
51005W        W12316  32.936  18.187   3.834
51006W        W12317   5.707  21.559  10.551
51007W        W12318  16.314  41.391   1.771
51008W        W12319   6.397  15.168   3.181
51009W        W12320  18.085  29.446   3.355
51010W        W12321  16.603  26.563   2.711
51011W        W12322   0.786  10.835  13.874
51012W        W12323   4.391  29.945  14.914
51013W        W12324  21.128   2.956  12.965
51014W        W12325   5.716  23.695   4.144
51015W        W12326   3.933  31.911   1.758
51016W        W12327  19.569  44.894  11.969
51017W        W12328  33.618  15.798  11.936
51018W        W12329  11.741  13.674  11.030
51019W        W12330  27.993  16.104   2.350
51020W        W12331   4.374   2.735  12.975
51021W        W12332   9.211  22.205   4.171
51022W        W12333   4.777  11.801   2.671
51023W        W12334  40.887  13.622  10.463
51024W        W12335  10.740  40.368  14.005
51025W        W12336  31.635  14.134  11.976
51026W        W12337  43.863  37.544  12.952
51027W        W12338  22.062  17.283   0.250
51028W        W12339   1.733  27.648   0.833
51029W        W12340  43.930   8.871  10.530
51030W        W12341   4.284  39.918   2.383
51031W        W12342   9.730   7.850   3.228
51032W        W12343  30.585   3.277   3.321
51033W        W12344  22.601  10.825   2.275
51034W        W12345  39.522  40.306   2.187
51035W        W12346   0.450  15.085  11.936
51036W        W12347  40.367   8.670  14.454
51037W        W12348   8.199   0.253  13.903
51038W        W12349  44.841  14.769  10.471
51039W        W12350   2.391  40.887   2.700
51040W        W12351  30.982   9.393  10.440
51041W        W12352  37.852  24.500   1.741
51042W        W12353  24.647  28.956  13.013
51043W        W12354   8.276   1.271   1.768
51044W        W12355  37.518  33.027   1.422
51045W        W12356  42.788  26.695  14.351
51046W        W12357  20.533   8.894  11.397
51047W        W12358  24.525  41.844   2.685
51048W        W12359  40.018  41.359  13.861
51049W        W12360  14.663  33.078   1.284
51050W        W12361  11.232  13.788   3.282
51051W        W12362  30.977  38.441  10.923
51052W        W12363  23.114  31.978   0.924
51053W        W12364  18.163   8.168  13.799
51054W        W12365  22.717  41.533   1.280
51055W        W12366  43.858  31.140   3.688
51056W        W12367  38.560  34.068  10.963
51057W        W12368  41.952   1.373  13.418
51058W        W12369  14.105  21.214  13.805
51059W        W12370  35.540  14.723  13.892
51060W        W12371   4.744  15.084   1.266
51061W        W12372  11.644  42.778   2.854
51062W        W12373   8.655  44.394   0.733
51063W        W12374  20.243  14.157  11.973
51064W        W12375  37.363  34.440   1.402
51065W        W12376   4.392  41.835   2.893
51066W        W12377  16.761  25.485  13.889
51067W        W12378  42.954   4.415   2.374
51068W        W12379  39.060   8.356  12.538
51069W        W12380  16.157  17.103   2.769
51070W        W12381  35.507  32.116   0.399
51071W        W12382  17.308  34.501   4.151
51072W        W12383  29.540  13.167   2.757
51073W        W12384  29.664  23.238  12.455
51074W        W12385  15.724  41.343   4.266
51075W        W12386  15.806  24.079   0.852
51076W        W12387  35.426  33.590  11.585
51077W        W12388  30.415  14.612   1.398
51078W        W12389   8.166  11.369   1.756
51079W        W12390  12.151  35.562   0.949
51080W        W12391  13.651  33.487   1.796
51081W        W12392  11.743   3.771  12.995
51082W        W12393  14.785  17.187  10.042
51083W        W12394  20.149  27.529   1.289
51084W        W12395  29.998  38.961   2.780
51085W        W12396  44.464  13.630  14.888
51086W        W12397  36.442  22.246   2.820
51087W        W12398  17.561   8.664   3.817
51088W        W12399   6.807  28.966  14.003
51089W        W12400  24.516  26.527   4.641
51090W        W12401  41.501  22.183  11.080
51091W        W12402  22.185  25.559   3.287
51092W        W12403  33.915  27.589   4.694
51093W        W12404  33.390   3.366  14.817
51094W        W12405  38.924   5.819  14.926
51095W        W12406  36.985  10.692  11.072
51096W        W12407  22.525  21.046  13.979
51097W        W12408   5.793  23.050  10.912
51098W        W12409   5.929  24.165  12.952
51099W        W12410  35.597  12.256  11.014
51100W        W12411  31.988  16.582  12.503
51101W        W12412  11.162  25.198   4.225
51102W        W12413  23.056  13.331   2.710
51103W        W12414  22.125  38.015   5.321
51104W        W12415  22.589   9.363  14.807
51105W        W12416   6.854  17.600  12.092
51106W        W12417  21.210  23.604  12.939
51107W        W12418  41.827  18.762   2.896
51108W        W12419  10.311   7.325  14.945
51109W        W12420  11.335  16.078  14.464
51110W        W12421  12.849  32.057  12.053
51111W        W12422  42.000  28.468   0.337
51112W        W12423  14.834  26.667   3.762
51113W        W12424  13.244  16.160   3.642
51114W        W12425  16.205  38.418  14.956
51115W        W12426  30.123   0.901   4.639
51116W        W12427  11.360   7.239   3.648
51117W        W12428  32.024  11.831   5.172
51118W        W12429  27.082  43.808  14.393
51119W        W12430  33.047   4.379  14.936
51120W        W12431  43.877  40.491  13.952
51121W        W12432  10.290  29.556  14.425
51122W        W12433  12.335  28.486   1.392
51123W        W12434  14.629   1.789   5.286
51124W        W12435  41.485   0.344  11.442
51125W        W12436  14.689  14.300   4.703
51126W        W12437  11.731  33.509   1.443
51127W        W12438  12.360  15.609   3.378
51128W        W12439  34.451  41.836  13.030
51129W        W12440   4.305  35.461  13.043
51130W        W12441   1.338  21.019  11.453
51131W        W12442  17.647  13.787   4.692
51132W        W12443  30.496   8.383  10.926
51133W        W12444  13.748  30.054  11.419
51134W        W12445   9.737  44.468   3.166
51135W        W12446  37.381   2.798   2.283
51136W        W12447   9.274  25.180   1.422
51137W        W12448  17.793  31.486  11.552
51138W        W12449  24.101  39.456  13.981
51139W        W12450  38.371  43.792   0.810
51140W        W12451  24.016  43.834  13.413
51141W        W12452  24.012  38.030  11.545
51142W        W12453  38.967  26.493   4.718
51143W        W12454  35.102  15.329  12.841
51144W        W12455   7.704  19.544  11.389
51145W        W12456  13.342  15.732  10.115
51146W        W12457  12.218  25.709  14.278
51147W        W12458  26.457  28.436  14.787
51148W        W12459  36.887  19.228   2.663
51149W        W12460  24.555  39.336   4.113
51150W        W12461  23.601  36.981  13.387
51151W        W12462  32.014   2.235   4.642
51152W        W12463  15.135  42.451  13.382
51153W        W12464  42.346   1.431  10.640
51154W        W12465  16.218  44.411   4.221
51155W        W12466   7.703  37.435  12.451
51156W        W12467  14.825  15.782  10.584
51157W        W12468  10.863  41.842  13.412
51158W        W12469  33.481   5.365   1.307
51159W        W12470  14.308  36.523   4.702
51160W        W12471   4.815  44.461   0.764
51161W        W12472  41.985  22.079   4.129
51162W        W12473   8.729  26.201  13.433
51163W        W12474  38.330  39.478  11.891
51164W        W12475   8.193  24.032  12.449
51165W        W12476   0.754   2.437  13.061
51166W        W12477  14.631  31.137  12.881
51167W        W12478  39.495  14.297  10.541
51168W        W12479  17.705  18.293   2.753
51169W        W12480  22.174  14.813   1.750
51170W        W12481  12.764   7.834  12.864
51171W        W12482  35.940  33.562  10.581
51172W        W12483  16.691  30.611   0.319
51173W        W12484  43.278   4.289  13.854
51174W        W12485  24.585  33.113  13.891
51175W        W12486  33.921  19.700  12.039
51176W        W12487   0.834  44.262  10.982
51177W        W12488  16.140   5.699   3.835
51178W        W12489  25.643  33.106  13.832
51179W        W12490  35.865  17.170  13.477
51180W        W12491   9.156  27.987  10.956
51181W        W12492  20.633  18.672   1.407
51182W        W12493  19.768  23.194  14.462
51183W        W12494  16.621  29.652   0.918
51184W        W12495  30.600  28.130  11.486
51185W        W12496  36.864  12.831   4.345
51186W        W12497   8.356  44.413   4.729
51187W        W12498  33.474  43.796   2.417
51188W        W12499  35.084  19.683  11.020
51189W        W12500  39.438  36.843  12.014
51190W        W12501   8.662  11.335   4.664
51191W        W12502   2.925  24.544  14.322
51192W        W12503  33.614  11.649   3.149
51193W        W12504  37.921  27.483  14.783
51194W        W12505  33.925  36.484   0.318
51195W        W12506  30.971  38.862  11.093
51196W        W12507  42.939  36.505   1.249
51197W        W12508  42.895  27.648  11.014
51198W        W12509   7.280  43.323   1.910
51199W        W12510  35.940   3.936  14.459
51200W        W12511   2.443  19.055   0.291
51201W        W12512  12.201  32.024  11.066
51202W        W12513  29.982  18.607   3.175
51203W        W12514  29.135  31.426   3.688
51204W        W12515  34.578  36.872  10.430
51205W        W12516   1.402  43.429  13.858
51206W        W12517  43.460  42.905  11.559
51207W        W12518  36.470  43.291  11.860
51208W        W12519  44.926  23.525  13.472
51209W        W12520   7.868   7.867  13.439
51210W        W12521  21.084  38.378  14.765
51211W        W12522  23.608  42.394  13.921
51212W        W12523  29.079  20.060   1.302
51213W        W12524   8.874  32.404  12.828
51214W        W12525  31.019  33.474   2.391
51215W        W12526  37.851   4.312  14.298
51216W        W12527  25.121  24.085  14.481
51217W        W12528   0.368  27.642  13.492
51218W        W12529  43.825  22.234  11.901
51219W        W12530  33.070  27.194  13.404
51220W        W12531   4.446  26.656  10.451
51221W        W12532   1.358  30.613  13.892
51222W        W12533  37.395  23.550  13.902
51223W        W12534  21.623  22.747   3.263
51224W        W12535  14.646  16.140  14.801
51225W        W12536  34.444  18.209  11.473
51226W        W12537   6.366   4.264   3.358
51227W        W12538  19.264   0.919  14.954
51228W        W12539  11.202   0.817  10.572
51229W        W12540  37.365  30.517  12.465
51230W        W12541   3.448  15.140  14.474
51231W        W12542  28.609  34.523  14.501
51232W        W12543  28.086  23.524  14.887
51233W        W12544  44.404  11.260   0.881
51234W        W12545  34.992  34.423  10.936
51235W        W12546   0.950  32.970  12.979
51236W        W12547  38.545  41.450   0.894
51237W        W12548  15.105  36.384  14.840
51238W        W12549  22.250  41.410   2.852
51239W        W12550  36.416   3.342   1.878
51240W        W12551  19.677   8.815   3.823
51241W        W12552  24.684   6.238   2.185
51242W        W12553  17.661  43.790  14.315
51243W        W12554  18.770  36.486  10.549
51244W        W12555  18.632  40.943   4.260
51245W        W12556  40.452  31.056   2.725
51246W        W12557  39.909  19.554   4.701
51247W        W12558   8.813  29.007   0.750
51248W        W12559   2.965  42.351   3.790
51249W        W12560  21.260  21.637  11.975
51250W        W12561  32.572   8.768  12.917
51251W        W12562   0.461  42.491   1.762
51252W        W12563  30.090  12.814   2.688
51253W        W12564  12.817  23.545  12.479
51254W        W12565   0.258  29.603   0.754
51255W        W12566  43.850  28.093  13.455
51256W        W12567  35.096  31.920   3.718
51257W        W12568   3.931  42.959   5.256
51258W        W12569   8.168   2.431   4.178
51259W        W12570  14.770  40.512   2.314
51260W        W12571  10.648  39.916   0.898
51261W        W12572   6.289   1.365  13.386
51262W        W12573  38.494  18.595  12.958
51263W        W12574  22.717  17.795   0.404
51264W        W12575  29.431  16.105   2.704
51265W        W12576  31.964  40.975  14.494
51266W        W12577  29.990  12.658  14.303
51267W        W12578   5.777  24.074  14.431
51268W        W12579  44.371  17.693  11.890
51269W        W12580  31.042   3.256   0.412
51270W        W12581  15.681   1.973   5.175
51271W        W12582  21.538   1.426  12.453
51272W        W12583  35.930  12.179  14.403
51273W        W12584   9.253  25.525   1.359
51274W        W12585  36.979  35.490  10.506
51275W        W12586  22.581  13.600  10.917
51276W        W12587  22.738  11.666  10.502
51277W        W12588  40.408   2.304   2.295
51278W        W12589  28.132  42.910  11.488
51279W        W12590  29.116  23.126   0.799
51280W        W12591  24.981  28.506   1.855
51281W        W12592  36.093  21.222   4.199
51282W        W12593  25.550   8.784   0.442
51283W        W12594  22.092  10.729   1.317
51284W        W12595   4.705  34.911   1.359
51285W        W12596  33.569   2.442  12.446
51286W        W12597  15.147  17.718  11.492
51287W        W12598  24.531  36.470   4.316
51288W        W12599  41.469  29.538  14.407
51289W        W12600  33.523  27.016  14.436
51290W        W12601   8.388   3.756  12.956
51291W        W12602  19.572  16.112  11.538
51292W        W12603  14.307  36.028  11.483
51293W        W12604  28.496   7.283  13.920
51294W        W12605  33.581  37.842  13.020
51295W        W12606  33.116  25.140  12.952
51296W        W12607  43.802  22.580   1.269
51297W        W12608  43.962  15.772  11.884
51298W        W12609  12.337  13.691  12.832
51299W        W12610   3.738  16.094   2.748
51300W        W12611   3.274  20.057   1.387
51301W        W12612  35.959  12.632  11.940
51302W        W12613  43.911  35.065  13.980
51303W        W12614  24.657  37.347   2.216
51304W        W12615  20.259  17.275   2.302
51305W        W12616  26.036  35.498   1.707
51306W        W12617  32.425  22.738  13.315
51307W        W12618   0.911  29.956   3.751
51308W        W12619   7.278  29.469   5.211
51309W        W12620  36.017  43.398  14.364
51310W        W12621   8.404  16.687  12.463
51311W        W12622  32.632  44.468  10.091
51312W        W12623  35.367  27.143  14.288
51313W        W12624   0.927   9.240  14.031
51314W        W12625  33.006  29.599   3.676
51315W        W12626   9.202  33.407   1.348
51316W        W12627  29.095   6.249  13.393
51317W        W12628  41.830   7.887   0.401
51318W        W12629  30.124  26.598   4.226
51319W        W12630  44.916  32.947  11.519
51320W        W12631  24.160  17.063  11.940
51321W        W12632  11.158   2.468  12.923
51322W        W12633   4.831   6.685   1.792
51323W        W12634  40.398   1.319   3.796
51324W        W12635  29.012  43.489   1.918
51325W        W12636   8.165  29.918  13.539
51326W        W12637  17.674  40.878  14.022
51327W        W12638  32.976  28.471   1.802
51328W        W12639   3.871  15.241  13.872
51329W        W12640  11.838  34.601  14.839
51330W        W12641  16.684  10.262  12.384
51331W        W12642  21.180  38.057   3.760
51332W        W12643  35.500  29.922   3.336
51333W        W12644  42.988  35.869  10.547
51334W        W12645   0.371  37.077  14.860
51335W        W12646  24.172  39.874  11.015
51336W        W12647   8.236  44.810   1.229
51337W        W12648   2.892  20.762  11.890
51338W        W12649  31.538  33.436   2.417
51339W        W12650  21.594  24.668  10.616
51340W        W12651  20.195   0.911  13.886
51341W        W12652  26.085  22.065  13.371
51342W        W12653  19.199  26.035  13.955
51343W        W12654  38.373  41.452   3.698
51344W        W12655  10.655  19.715  13.996
51345W        W12656  41.037  16.616  12.000
51346W        W12657  15.592  14.768  11.976
51347W        W12658  12.222  15.797  13.994
51348W        W12659   1.372  26.037  11.589
51349W        W12660  38.381  27.188   3.845
51350W        W12661  24.660  43.771  11.019
51351W        W12662   9.150   7.701  11.539
51352W        W12663  25.056   6.876  13.492
51353W        W12664   4.803  28.119   3.170
51354W        W12665  15.753   3.884   1.767
51355W        W12666  39.420  25.116  10.572
51356W        W12667  20.238   9.307   2.378
51357W        W12668   9.739  11.266   0.356
51358W        W12669   6.428  26.113  14.425
51359W        W12670  31.630  40.843  13.045
51360W        W12671  31.922  40.347   2.731
51361W        W12672  22.107  12.675   1.866
51362W        W12673  18.274  28.460  13.977
51363W        W12674  11.279  18.279   0.815
51364W        W12675   9.319  13.270   1.766
51365W        W12676   1.950  43.450   1.769
51366W        W12677  19.081   6.190   4.221
51367W        W12678  37.436  24.556   2.860
51368W        W12679  13.244  28.556   4.350
51369W        W12680  40.872  35.521   2.388
51370W        W12681  16.776  37.488  14.390
51371W        W12682  43.959  13.124   2.237
51372W        W12683  18.585  26.136  11.572
51373W        W12684  32.011   9.217  11.020
51374W        W12685  31.084  40.854   0.470
51375W        W12686  10.195   7.897   4.143
51376W        W12687   0.754  33.576  11.431
51377W        W12688   9.809  31.544   3.751
51378W        W12689  31.486  25.543  11.472
51379W        W12690   0.755  20.096  10.617
51380W        W12691  25.984  19.128  14.871
51381W        W12692  40.400  17.774   0.914
51382W        W12693  17.618  40.806  11.015
51383W        W12694   0.449  37.895  14.350
51384W        W12695  21.719  34.559  11.878
51385W        W12696  11.639  36.473  12.844
51386W        W12697  32.546  30.994  13.540
51387W        W12698   1.832  32.575   4.828
51388W        W12699   1.441  35.852   4.626
51389W        W12700  20.580  39.950  13.014
51390W        W12701   9.831   8.350  10.416
51391W        W12702  35.990   1.922  10.997
51392W        W12703  35.051  25.503   3.782
51393W        W12704  19.751  32.100  13.859
51394W        W12705   3.314  18.780  13.918
51395W        W12706  25.132   0.254  14.502
51396W        W12707  24.982  24.668   2.833
51397W        W12708  15.749  29.641   3.812
51398W        W12709  33.558   1.734   0.359
51399W        W12710   4.884  35.924  13.912
51400W        W12711   0.960  40.335  10.623
51401W        W12712  10.234   4.807  11.913
51402W        W12713   4.339  14.315   3.170
51403W        W12714  37.412   2.825   3.180
51404W        W12715  30.043  44.347  11.891
51405W        W12716   3.316   5.921   0.400
51406W        W12717   9.845  11.853   2.677
51407W        W12718  30.423  20.104   3.672
51408W        W12719   1.460   1.817  11.580
51409W        W12720  22.999   8.269   4.836
51410W        W12721  14.592  30.435   1.338
51411W        W12722   6.764   6.817   1.363
51412W        W12723  40.546   9.213  12.981
51413W        W12724  40.472  40.345  11.375
51414W        W12725   5.197   9.163   2.879
51415W        W12726  25.161   4.350   4.629
51416W        W12727  23.665   6.806   1.912
51417W        W12728  33.886  39.388   4.152
51418W        W12729  40.818  18.769   1.371
51419W        W12730  33.045  14.112  12.464
51420W        W12731  43.848  20.190  13.399
51421W        W12732  41.321   7.293   3.271
51422W        W12733  11.747   4.886   3.862
51423W        W12734   9.793  36.414   3.675
51424W        W12735  44.768  28.440   1.803
51425W        W12736   3.917  29.594  12.347
51426W        W12737   0.459  44.852  13.988
51427W        W12738  34.107  33.025   0.788
51428W        W12739  32.482   6.388  14.923
51429W        W12740  20.074  44.438  10.925
51430W        W12741  38.333  28.061   3.670
51431W        W12742  26.591   0.277  13.866
51432W        W12743  35.477  11.285   4.790
51433W        W12744  23.663  15.816  14.343
51434W        W12745  11.626  31.035   3.807
51435W        W12746  17.736  37.832   1.904
51436W        W12747  30.494  40.985  14.998
51437W        W12748  36.955   5.196   1.750
51438W        W12749  24.104   9.687   4.756
51439W        W12750  30.423   7.765  12.981
51440W        W12751  10.822  41.945   1.926
51441W        W12752  20.066   6.892   3.719
51442W        W12753  33.013  32.892  11.552
51443W        W12754   0.915  17.575  14.283
51444W        W12755  38.491  11.171  11.932
51445W        W12756  13.800  43.768  13.484
51446W        W12757  12.126  16.580  14.926
51447W        W12758  44.968  13.750  14.437
51448W        W12759  17.581   3.270   9.543
51449W        W12760  40.941  19.561   3.717
51450W        W12761   9.685   6.915  12.006
51451W        W12762   7.682  11.289   0.409
51452W        W12763  29.439  20.686  10.488
51453W        W12764  19.205  10.149  10.931
51454W        W12765  16.284   5.912   1.381
51455W        W12766  18.695   0.898   3.246
51456W        W12767  30.464   3.409  14.297
51457W        W12768  27.134  12.254  14.459
51458W        W12769  12.176   1.402   0.343
51459W        W12770   3.841  40.890   4.703
51460W        W12771  19.740  19.205  12.043
51461W        W12772  19.183  16.689  13.874
51462W        W12773  37.965  33.509  11.079
51463W        W12774  17.086  18.288   3.194
51464W        W12775  41.469  32.440   0.787
51465W        W12776  31.150  43.950  13.997
51466W        W12777   2.845  30.464  11.016
51467W        W12778  36.041  36.472   4.288
51468W        W12779  29.135  35.532  10.631
51469W        W12780  27.975  28.178   1.225
51470W        W12781  12.804  41.404   2.385
51471W        W12782  29.539  15.717  10.968
51472W        W12783  23.085   1.954   0.764
51473W        W12784   9.694  35.459   4.647
51474W        W12785  39.410  40.321  11.913
51475W        W12786  14.178  34.503   3.644
51476W        W12787   6.768  33.521   2.237
51477W        W12788  17.301   5.375  12.096
51478W        W12789  15.678  21.210   2.220
51479W        W12790  27.011   2.822  14.030
51480W        W12791  10.211  18.134  13.973
51481W        W12792   8.291  14.224  11.460
51482W        W12793  13.191  42.931   0.482
51483W        W12794   3.795  22.687  12.059
51484W        W12795   8.843  36.347  11.908
51485W        W12796  38.064  29.962  10.001
51486W        W12797  19.186  10.362   4.601
51487W        W12798  29.597  40.928   1.218
51488W        W12799  34.982  37.524   0.865
51489W        W12800  37.913  29.554   1.725
51490W        W12801   2.918  43.814  10.966
51491W        W12802  32.526   8.239  13.871
51492W        W12803  44.899  44.924   2.373
51493W        W12804  40.033   1.816   4.667
51494W        W12805  43.889  26.971   0.744
51495W        W12806  44.485  17.782  12.560
51496W        W12807  32.433  38.542   0.872
51497W        W12808  34.535   3.405  12.062
51498W        W12809   5.273   3.860   4.122
51499W        W12810  25.169   7.247  10.504
51500W        W12811  30.115  42.298  13.488
51501W        W12812  42.877   4.715  12.470
51502W        W12813   2.920  43.825   0.873
51503W        W12814   2.879  31.921  13.923
51504W        W12815  20.627  35.874   3.260
51505W        W12816   9.302  20.663  13.313
51506W        W12817  35.920  30.011   2.761
51507W        W12818   0.395  42.981  13.492
51508W        W12819   7.383  40.924  11.406
51509W        W12820  20.084  40.549  11.918
51510W        W12821  34.527  12.810   1.357
51511W        W12822  22.063  41.363  13.810
51512W        W12823  43.291  28.946   2.340
51513W        W12824  31.462  22.624   3.719
51514W        W12825  15.623  34.971   4.249
51515W        W12826  18.128  42.998  14.010
51516W        W12827   0.304  34.509   4.818
51517W        W12828   1.858  28.635   4.818
51518W        W12829  41.799   3.851   3.634
51519W        W12830   4.923  15.749  14.968
51520W        W12831   3.332  20.636   1.216
51521W        W12832  13.830  29.171   1.924
51522W        W12833  13.721  21.705   0.482
51523W        W12834  43.959  18.248   1.801
51524W        W12835  28.047  33.088   0.903
51525W        W12836  23.616   5.828   0.743
51526W        W12837   7.749  35.081  12.487
51527W        W12838  38.845  32.048   3.329
51528W        W12839   1.814  21.724   1.903
51529W        W12840  23.057  44.809   0.735
51530W        W12841  15.229  26.090   2.749
51531W        W12842  30.562  23.066   0.853
51532W        W12843   8.394   2.282  14.423
51533W        W12844  39.427   3.234  14.365
51534W        W12845  25.477  37.461   4.300
51535W        W12846  24.074  18.625  13.841
51536W        W12847  42.506  37.402  11.003
51537W        W12848  39.905  23.588  13.350
51538W        W12849  20.578  35.858  13.827
51539W        W12850  18.138  11.678   2.310
51540W        W12851  20.561  15.812  11.505
51541W        W12852  38.407   2.930   3.271
51542W        W12853  29.041  22.126   4.345
51543W        W12854  23.658   9.252   1.273
51544W        W12855   8.315   0.983  11.933
51545W        W12856   4.418  25.058   4.181
51546W        W12857  43.775  37.521   2.238
51547W        W12858  40.886  15.135  10.996
51548W        W12859  17.715  39.860  13.319
51549W        W12860  26.988  25.492   1.708
51550W        W12861   7.787  18.169  11.951
51551W        W12862   1.328  10.753   4.135
51552W        W12863  36.886   4.736   1.798
51553W        W12864  10.340  20.235  14.793
51554W        W12865  20.717  29.454   3.354
51555W        W12866   7.761  38.547  14.452
51556W        W12867  35.997   0.753  10.902
51557W        W12868  33.109  36.548  13.881
51558W        W12869   4.903   8.294  12.047
51559W        W12870  17.277  21.725  14.920
51560W        W12871  44.304  32.121  13.379
51561W        W12872  32.632  43.317  12.505
51562W        W12873  26.094  24.229  11.574
51563W        W12874  25.114  10.743  12.010
51564W        W12875  12.327   7.361   2.207
51565W        W12876  19.694   6.228  14.896
51566W        W12877  39.421  11.793   3.656
51567W        W12878  18.261   9.780   2.833
51568W        W12879  33.933  43.382  13.953
51569W        W12880  37.375  44.428   0.333
51570W        W12881   4.879  26.586   1.863
51571W        W12882  17.203  43.791  12.960
51572W        W12883   8.859  22.169   0.884
51573W        W12884  10.665  13.309  12.354
51574W        W12885  34.041  35.918   1.392
51575W        W12886   7.405  41.478  12.056
51576W        W12887  17.237  40.373  14.353
51577W        W12888  35.098   4.383  11.961
51578W        W12889  39.043   9.358   2.201
51579W        W12890  21.042  40.510   2.385
51580W        W12891  43.361  25.161   1.386
51581W        W12892  21.618  12.730   0.471
51582W        W12893   8.763  17.602   3.196
51583W        W12894   5.795   9.202   3.719
51584W        W12895  28.166  43.968  12.831
51585W        W12896   2.723  14.743  14.447
51586W        W12897  11.279  35.447   3.316
51587W        W12898   6.341   4.238  11.430
51588W        W12899  44.464   5.855  10.992
51589W        W12900  19.754  18.733   4.146
51590W        W12901   8.228  10.857   1.737
51591W        W12902   6.222  38.859  13.036
51592W        W12903   2.825  27.000   3.167
51593W        W12904   7.394  18.660   1.285
51594W        W12905   2.259  33.900  12.826
51595W        W12906  37.390  35.941  10.529
51596W        W12907  24.195  36.366  12.406
51597W        W12908   1.869  12.836   1.269
51598W        W12909   4.225   0.772  10.984
51599W        W12910  32.906   0.255   4.834
51600W        W12911  33.897  31.035   3.342
51601W        W12912   0.267   1.855   0.941
51602W        W12913  25.100  43.782  11.023
51603W        W12914   2.811  42.933   1.762
51604W        W12915   7.241  34.021  10.560
51605W        W12916  36.908  37.395  11.448
51606W        W12917  27.155  26.193   0.423
51607W        W12918   7.740  23.986  10.533
51608W        W12919  21.706  28.033   1.338
51609W        W12920  26.036  26.546   2.810
51610W        W12921  32.066  20.179  11.870
51611W        W12922  26.490  24.519  11.558
51612W        W12923  22.015  36.993   0.279
51613W        W12924  31.461  14.149   4.627
51614W        W12925  14.225   6.842   3.290
51615W        W12926   1.342  39.323  13.855
51616W        W12927   8.305  25.555   2.310
51617W        W12928  15.155  44.846  14.847
51618W        W12929  44.798  16.287  13.858
51619W        W12930  20.603  36.035   1.417
51620W        W12931  36.064   1.870  12.414
51621W        W12932   5.305  37.496  14.903
51622W        W12933  35.548  20.077  11.426
51623W        W12934  13.238   6.289  13.877
51624W        W12935  18.732  43.486  12.466
51625W        W12936  42.949  40.494   3.341
51626W        W12937  21.151   1.479   2.750
51627W        W12938  44.272  31.929   3.246
51628W        W12939   2.390  29.010   3.812
51629W        W12940  10.874  38.922  12.468
51630W        W12941   3.256  31.585  14.943
51631W        W12942  15.261  27.177   3.342
51632W        W12943   7.285  31.912  12.387
51633W        W12944  19.179  13.116   2.671
51634W        W12945  13.133  24.611   3.760
51635W        W12946  35.017  17.260   2.310
51636W        W12947  42.325   8.189  12.400
51637W        W12948   8.744  12.147   3.245
51638W        W12949  30.929  44.844  10.989
51639W        W12950  33.874  31.435  11.861
51640W        W12951  43.386  23.561  11.109
51641W        W12952  13.660  12.185   1.266
51642W        W12953  18.603  14.810  12.373
51643W        W12954  23.202  28.106   4.153
51644W        W12955  26.989  27.452  11.990
51645W        W12956  18.124  31.517   1.340
51646W        W12957  26.985  26.013   4.143
51647W        W12958  17.268  33.398  14.803
51648W        W12959   8.208   0.948   2.723
51649W        W12960   0.388  34.076   1.698
51650W        W12961  40.307  28.965   1.851
51651W        W12962  33.997   3.744   4.777
51652W        W12963  32.042  29.498   3.817
51653W        W12964  23.684  36.557   3.653
51654W        W12965   2.845   9.764   4.298
51655W        W12966   1.969  24.555   1.261
51656W        W12967  21.665  13.799   0.743
51657W        W12968  10.224   1.889  12.942
51658W        W12969  41.491  20.596  10.900
51659W        W12970  41.873  29.974  12.052
51660W        W12971  22.657  21.017   4.163
51661W        W12972  18.731  15.156  12.982
51662W        W12973  30.620  21.197  13.428
51663W        W12974  36.021  17.092  11.430
51664W        W12975   2.442   9.714  14.004
51665W        W12976  16.252  41.514   1.399
51666W        W12977  38.488  36.878   3.688
51667W        W12978  33.505  14.123  13.931
51668W        W12979  24.658  43.361  11.575
51669W        W12980  44.369  21.553  12.523
51670W        W12981   8.361  26.671   3.303
51671W        W12982  21.642  12.263  12.975
51672W        W12983  44.331  28.992   0.898
51673W        W12984   1.379  13.179   1.232
51674W        W12985  32.578  30.492  13.847
51675W        W12986  18.650  32.950   2.286
51676W        W12987  23.568  39.888  14.301
51677W        W12988  44.959  25.969  12.090
51678W        W12989  29.120  16.096  12.045
51679W        W12990   9.677   3.758   1.218
51680W        W12991  21.590  10.152  13.381
51681W        W12992   3.743  26.597  14.344
51682W        W12993   2.750   2.911   2.251
51683W        W12994   4.290  24.023   4.117
51684W        W12995   5.284  24.046   0.812
51685W        W12996  23.064   2.778  14.339
51686W        W12997   8.244  12.839  11.061
51687W        W12998  28.642  29.521  11.427
51688W        W12999  38.825   1.329  10.459
51689W        W13000  16.247   7.737   0.444
51690W        W13001   7.380  38.882   2.259
51691W        W13002  21.143  37.550  13.432
51692W        W13003  36.057  13.639  12.923
51693W        W13004   8.755   2.364   3.364
51694W        W13005  36.429   6.351   1.276
51695W        W13006   8.871  22.198  10.439
51696W        W13007  29.042  31.118  13.915
51697W        W13008  40.338   4.859   2.777
51698W        W13009  17.261  21.200  12.399
51699W        W13010  12.188  28.145  13.056
51700W        W13011  27.988   9.392  13.365
51701W        W13012   2.808  28.525   0.415
51702W        W13013  22.214   5.437   1.820
51703W        W13014  13.179   4.375  12.376
51704W        W13015  18.158  11.800  13.428
51705W        W13016  21.590   3.741   2.185
51706W        W13017   2.262  34.963   1.362
51707W        W13018  23.012   9.311  12.888
51708W        W13019  25.467  27.616  13.449
51709W        W13020  31.956   3.790   4.788
51710W        W13021  23.565   0.460   1.413
51711W        W13022  36.517   1.452  12.964
51712W        W13023   6.882  19.074   0.951
51713W        W13024   3.859   7.260  12.549
51714W        W13025  12.689  28.175  12.969
51715W        W13026   9.705  39.554  11.482
51716W        W13027  10.843  33.450  12.859
51717W        W13028   4.910   3.751  10.547
51718W        W13029   1.361  11.315  10.985
51719W        W13030  18.212  32.024  10.584
51720W        W13031  10.339  37.342  10.510
51721W        W13032   4.927  23.582   2.183
51722W        W13033   5.694  22.591  10.567
51723W        W13034  17.294  27.995  13.310
51724W        W13035  15.092   9.836  14.917
51725W        W13036  43.499  30.085  13.423
51726W        W13037  30.065  38.963  14.487
51727W        W13038  26.134  14.668   4.329
51728W        W13039  34.038   8.755   2.407
51729W        W13040  16.721  35.563  14.386
51730W        W13041  17.645   5.319  10.547
51731W        W13042  42.486  35.582   1.316
51732W        W13043  17.669  18.651  12.070
51733W        W13044  19.602  14.814   2.299
51734W        W13045  30.444  10.320  12.853
51735W        W13046  26.158  20.090   4.319
51736W        W13047   1.457  23.626   1.755
51737W        W13048  20.564  39.446  13.844
51738W        W13049   6.321  29.517   3.744
51739W        W13050  14.665  10.159   3.763
51740W        W13051  38.901  43.822   3.656
51741W        W13052  33.614  30.037   0.863
51742W        W13053  43.512  16.223   0.963
51743W        W13054  32.406   0.279  11.403
51744W        W13055   5.334  35.989   2.237
51745W        W13056  22.607   8.687   0.854
51746W        W13057  33.978  26.682   1.336
51747W        W13058  38.914  11.865  10.421
51748W        W13059   9.870  16.299   9.621
51749W        W13060   0.821   2.930  12.996
51750W        W13061  21.539  19.544   3.830
51751W        W13062  40.514  44.491  13.981
51752W        W13063  25.495  43.279   2.873
51753W        W13064  44.314  38.897  14.909
51754W        W13065   8.882  16.255  10.933
51755W        W13066  21.654  34.891   2.794
51756W        W13067  34.866  20.570   0.929
51757W        W13068   6.907  43.875  14.414
51758W        W13069  25.697  42.958   1.302
51759W        W13070   2.366  37.886   1.797
51760W        W13071  42.907   5.785  11.545
51761W        W13072   8.833  13.688  11.992
51762W        W13073   6.902   9.659   4.130
51763W        W13074  41.858  16.572   3.668
51764W        W13075  29.933  44.435   3.227
51765W        W13076  28.949   5.712  10.468
51766W        W13077   6.274  26.530   5.322
51767W        W13078  32.541  36.058  11.552
51768W        W13079  30.083   1.842   3.772
51769W        W13080  25.035  36.050   3.670
51770W        W13081  31.449  37.433   1.897
51771W        W13082  20.197  17.570   1.291
51772W        W13083  26.586  41.437   1.404
51773W        W13084  15.740   2.270  12.458
51774W        W13085  23.204   5.899  12.579
51775W        W13086  41.987  35.035  13.021
51776W        W13087  41.476  23.195   4.651
51777W        W13088   3.301  25.559   2.762
51778W        W13089  29.580  44.967  10.590
51779W        W13090  41.020  29.593   4.728
51780W        W13091  16.265  12.273  11.413
51781W        W13092  15.689  22.626   1.886
51782W        W13093  10.164   2.390  13.307
51783W        W13094  38.335  35.444  14.826
51784W        W13095  40.898  41.342   3.383
51785W        W13096  42.793  26.201  11.090
51786W        W13097   9.790  17.268   2.695
51787W        W13098   4.317  24.011  12.478
51788W        W13099  34.446  43.482   4.284
51789W        W13100  44.862  10.748  13.342
51790W        W13101  30.908  42.418  10.533
51791W        W13102  17.782   6.322  14.401
51792W        W13103   5.922  33.403   4.203
51793W        W13104  39.885   4.865  12.936
51794W        W13105   4.249  12.298  13.316
51795W        W13106  11.716  32.950   0.876
51796W        W13107  42.398  22.542  13.524
51797W        W13108  39.405   4.863  13.798
51798W        W13109  27.990  25.203   0.310
51799W        W13110   9.801  33.520   0.477
51800W        W13111  35.963  34.411  11.122
51801W        W13112  21.224  31.122   5.112
51802W        W13113   4.786   6.182  13.360
51803W        W13114  16.718   1.775  11.018
51804W        W13115  22.197   0.869   3.695
51805W        W13116  43.377  36.533  11.013
51806W        W13117  40.817  42.334  11.420
51807W        W13118  32.391  34.078   3.791
51808W        W13119   8.350  15.279   2.353
51809W        W13120  10.738  33.069  13.536
51810W        W13121  36.070   0.754  10.533
51811W        W13122  25.660  19.186   3.739
51812W        W13123   8.809   8.736   1.775
51813W        W13124  40.488  26.561   3.693
51814W        W13125   0.395  16.237   2.341
51815W        W13126   8.786   6.820   3.731
51816W        W13127  25.654  16.657   0.769
51817W        W13128  26.186  42.341  12.873
51818W        W13129   3.383  18.106   3.711
51819W        W13130  43.780   5.909   4.656
51820W        W13131   1.469   2.928   1.784
51821W        W13132  36.413   2.942   4.668
51822W        W13133  16.752  39.021  14.777
51823W        W13134   2.942  15.116  11.010
51824W        W13135   4.814  43.457   4.662
51825W        W13136  20.090  16.621  13.417
51826W        W13137  34.973  32.472   4.632
51827W        W13138  29.961  42.970  13.823
51828W        W13139  31.915  28.549  11.557
51829W        W13140  34.884  43.853  10.920
51830W        W13141  15.131  27.126  12.439
51831W        W13142  19.075   9.365   3.865
51832W        W13143  16.153   5.852   0.306
51833W        W13144   0.367  44.982   2.861
51834W        W13145  35.418  10.834  13.057
51835W        W13146  40.545  20.762  12.087
51836W        W13147  15.231   8.180   4.659
51837W        W13148  26.536   3.879   2.754
51838W        W13149  43.932  40.805  11.119
51839W        W13150  22.510  16.154  12.030
51840W        W13151  38.522  23.999   3.352
51841W        W13152  37.858   4.842  12.356
51842W        W13153  13.686  14.109   4.836
51843W        W13154   4.802  43.433   3.178
51844W        W13155  40.345   4.845   3.264
51845W        W13156  12.275   7.835  11.869
51846W        W13157  12.662  38.456   2.898
51847W        W13158   0.355  22.047   4.701
51848W        W13159  16.080  37.522  11.939
51849W        W13160  21.119  30.948   0.955
51850W        W13161  30.531  18.610  14.911
51851W        W13162  38.509  23.719   3.701
51852W        W13163  24.088  30.096   4.216
51853W        W13164  16.599   7.372  13.488
51854W        W13165  22.154  22.707  12.480
51855W        W13166  14.279  38.943  12.417
51856W        W13167   8.274  41.369  10.439
51857W        W13168   2.333  15.661   3.755
51858W        W13169  40.338   7.203  12.906
51859W        W13170   1.290  37.859  14.027
51860W        W13171  14.590  39.384   4.645
51861W        W13172   8.671  32.526  14.478
51862W        W13173  43.804   6.301  14.768
51863W        W13174  36.843  21.035  11.397
51864W        W13175  21.568  22.168  12.026
51865W        W13176  23.219  35.888   3.853
51866W        W13177   5.266   7.908   4.722
51867W        W13178  20.630  25.182  12.341
51868W        W13179   0.375  34.095  14.448
51869W        W13180  39.486   9.822   4.782
51870W        W13181  30.503  30.562   0.965
51871W        W13182  44.865  35.588  14.875
51872W        W13183  44.498  27.097  14.379
51873W        W13184  10.764   7.898  14.824
51874W        W13185   8.251  42.463  13.853
51875W        W13186   6.379   2.926  10.619
51876W        W13187  26.095  33.915  14.985
51877W        W13188  28.637  19.651   4.129
51878W        W13189  38.565  36.588   4.207
51879W        W13190  44.879   7.257  10.529
51880W        W13191  41.354  31.141   4.326
51881W        W13192  42.795   4.814  12.846
51882W        W13193  34.587  39.841  14.982
51883W        W13194  10.720  27.571   3.220
51884W        W13195  19.272  30.633  13.933
51885W        W13196  40.520   6.777  10.608
51886W        W13197  18.074  12.681  13.962
51887W        W13198  20.075  15.602   1.263
51888W        W13199  27.552  40.460  12.528
51889W        W13200  41.903  11.335  12.926
51890W        W13201   7.241  26.006   3.182
51891W        W13202  14.811  15.125   2.711
51892W        W13203   5.730   5.832   1.369
51893W        W13204  36.846  35.986  11.053
51894W        W13205  35.955   5.217  14.945
51895W        W13206  39.825  14.205  11.888
51896W        W13207  42.967   6.214  11.939
51897W        W13208  41.944  18.617  11.110
51898W        W13209  13.308  41.978   3.322
51899W        W13210  38.335  22.641   4.784
51900W        W13211  38.383  12.186   4.675
51901W        W13212   3.439  44.939  14.455
51902W        W13213  25.653  12.643  10.133
51903W        W13214  19.611  29.166  14.773
51904W        W13215  17.702  14.131  12.948
51905W        W13216  18.717  14.648  14.464
51906W        W13217  24.617  24.604   0.282
51907W        W13218  31.055  36.521  14.955
51908W        W13219   9.247  25.640   0.441
51909W        W13220  12.677   1.299  13.953
51910W        W13221  40.322  21.627   0.281
51911W        W13222  10.149  32.941  12.966
51912W        W13223  21.188  15.718   5.127
51913W        W13224  36.421  18.108   3.646
51914W        W13225  38.424  12.281   2.312
51915W        W13226   5.754   3.302   2.760
51916W        W13227  10.809  17.657   0.448
51917W        W13228  28.438  24.105   0.334
51918W        W13229  15.638   6.218   0.961
51919W        W13230  22.598   5.928  14.837
51920W        W13231  10.796  21.207  13.975
51921W        W13232  29.139  18.662   3.180
51922W        W13233  27.680  36.576  10.527
51923W        W13234  13.697   1.417  11.393
51924W        W13235  27.148   7.691   3.230
51925W        W13236   2.964  22.518  14.481
51926W        W13237  37.423  10.249   4.709
51927W        W13238  13.790  24.080  11.991
51928W        W13239  13.207  30.595  11.078
51929W        W13240  11.758  20.751  14.506
51930W        W13241  39.989  30.150   5.622
51931W        W13242  40.799  14.750   2.893
51932W        W13243  42.907  27.509   4.736
51933W        W13244  37.416  12.636  12.903
51934W        W13245   5.383  42.444  11.551
51935W        W13246   2.467   0.333   0.822
51936W        W13247  23.030  34.093   3.714
51937W        W13248  19.279   4.799  12.947
51938W        W13249  15.239   1.302   0.386
51939W        W13250  24.211   2.333   1.247
51940W        W13251   6.901  13.108  13.928
51941W        W13252   5.410   1.873  10.504
51942W        W13253  22.549  34.982   0.257
51943W        W13254  17.723  27.654  13.392
51944W        W13255  29.957  18.791   2.278
51945W        W13256  24.097  35.904  12.500
51946W        W13257  27.677  10.769   1.933
51947W        W13258   0.784  29.036  10.617
51948W        W13259  33.043   2.778   4.678
51949W        W13260  34.430   5.712   2.756
51950W        W13261  24.106  36.517   2.822
51951W        W13262  22.523   6.919   3.278
51952W        W13263  28.020  37.831  14.388
51953W        W13264  14.311  30.073  13.888
51954W        W13265  36.519  34.900   3.733
51955W        W13266  28.051  17.125   5.205
51956W        W13267   5.360  30.587   4.638
51957W        W13268  16.621  29.166   3.280
51958W        W13269  17.665  29.157   1.439
51959W        W13270   5.715  30.073  10.506
51960W        W13271  42.028   2.825  12.478
51961W        W13272   5.923  33.115   4.299
51962W        W13273  30.085   0.754  10.550
51963W        W13274   9.681  35.571   4.294
51964W        W13275   0.479  13.163  10.556
51965W        W13276  23.605  26.548   0.413
51966W        W13277   2.275  37.071   1.249
51967W        W13278  19.746   0.306   2.697
51968W        W13279  37.364  41.965  11.595
51969W        W13280  17.136  24.073   0.345
51970W        W13281   7.371  43.891   2.327
51971W        W13282  40.914  14.246  14.444
51972W        W13283   6.684  26.478   5.230
51973W        W13284  37.007  31.126  13.964
51974W        W13285  13.772  20.669   3.726
51975W        W13286  30.926  26.139  11.581
51976W        W13287  42.392  42.305  10.460
51977W        W13288   9.806  27.064   1.287
51978W        W13289  42.309  21.523  11.077
51979W        W13290  29.094   0.489   0.441
51980W        W13291  10.792  10.700  14.980
51981W        W13292  30.107  13.651  14.409
51982W        W13293  12.214  31.991   4.216
51983W        W13294  32.936  23.509   3.805
51984W        W13295  24.052   8.683   0.846
51985W        W13296  36.933   7.216  13.423
51986W        W13297  19.057  19.579  10.478
51987W        W13298  10.828  40.829  12.419
51988W        W13299  41.366   2.965  10.527
51989W        W13300  32.627  34.978  11.406
51990W        W13301  25.016  28.600  13.485
51991W        W13302   5.208   5.380  11.564
51992W        W13303  35.891  35.944  13.419
51993W        W13304  27.534  15.692   2.389
51994W        W13305  24.111  44.429   4.134
51995W        W13306  32.110  34.972  13.392
51996W        W13307   7.734  32.004  13.831
51997W        W13308   0.868  29.474   2.810
51998W        W13309  25.670   4.761  12.386
51999W        W13310  24.222   6.740  11.897
52000W        W13311  32.608  11.724   9.975
52001W        W13312  32.113   7.224  11.450
52002W        W13313  12.675  41.944   0.796
52003W        W13314   3.951  32.419  12.957
52004W        W13315  14.656  29.142   1.813
52005W        W13316  40.850  40.343  12.864
52006W        W13317  12.284  35.534   1.870
52007W        W13318  43.273  42.803  12.033
52008W        W13319   2.472  27.608  12.833
52009W        W13320  34.893  32.608  12.060
52010W        W13321  31.912  13.212  11.379
52011W        W13322  34.480  15.269  14.392
52012W        W13323  39.379  18.773   4.250
52013W        W13324  37.083  28.447  14.381
52014W        W13325  21.232  31.135   1.918
52015W        W13326   2.945  22.250  10.538
52016W        W13327   0.467   1.315  11.949
52017W        W13328  16.091  29.551   1.829
52018W        W13329   7.202  15.769   3.355
52019W        W13330   9.880  26.561   4.806
52020W        W13331  31.539  13.642  13.512
52021W        W13332  22.209  23.720  11.890
52022W        W13333  16.203   2.857   4.240
52023W        W13334   0.975  20.706   0.262
52024W        W13335  44.949   0.947  14.319
52025W        W13336  36.426  14.741  14.494
52026W        W13337  38.016   7.783   4.709
52027W        W13338  15.696  19.271  13.461
52028W        W13339  24.693  10.658  12.011
52029W        W13340  30.651  38.989   5.265
52030W        W13341   0.372  33.473  12.021
52031W        W13342  12.775  18.291  12.957
52032W        W13343  37.460  10.810  14.496
52033W        W13344  42.365  35.470   4.291
52034W        W13345  33.091  19.130  13.431
52035W        W13346  25.092  36.866  13.016
52036W        W13347   6.378  23.213  13.348
52037W        W13348  18.246  23.571   2.732
52038W        W13349  28.064  17.695  13.420
52039W        W13350  31.905  32.021   2.718
52040W        W13351  43.789  18.748   3.185
52041W        W13352  38.841  20.139  12.452
52042W        W13353  36.475  32.109   0.736
52043W        W13354  14.737  14.739  11.111
52044W        W13355  44.788  41.463  11.111
52045W        W13356   7.774  27.477   1.361
52046W        W13357  44.784  39.905  13.907
52047W        W13358  31.517  11.372   2.203
52048W        W13359   0.784  20.226   2.780
52049W        W13360  19.057  39.543   0.262
52050W        W13361  25.622  15.241   1.303
52051W        W13362  32.582  28.612   1.355
52052W        W13363   5.868   3.799   0.290
52053W        W13364   7.361  20.763   0.337
52054W        W13365  22.639  43.905  10.003
52055W        W13366  42.807   1.361  13.342
52056W        W13367  11.213  25.571   2.897
52057W        W13368  14.242  30.109  14.772
52058W        W13369  42.354  21.206  11.126
52059W        W13370  26.986   9.149  13.494
52060W        W13371   9.845  16.616   1.366
52061W        W13372   1.764   6.271  14.360
52062W        W13373  31.440  11.244   4.242
52063W        W13374   9.862  32.493  12.391
52064W        W13375  40.954  30.965   0.377
52065W        W13376   5.419  33.044  10.577
52066W        W13377  44.306  14.597  14.792
52067W        W13378  11.211   0.843   3.758
52068W        W13379  44.382  19.605  13.312
52069W        W13380  14.776  37.485   5.094
52070W        W13381  14.804  40.473  12.524
52071W        W13382  23.527   4.698   0.250
52072W        W13383  23.153  24.990   0.368
52073W        W13384  18.773   4.903   2.320
52074W        W13385   3.904  17.753   2.663
52075W        W13386  29.628  41.518   1.788
52076W        W13387  30.082  34.881  14.314
52077W        W13388   3.932   1.289   3.153
52078W        W13389  41.346  36.016   1.259
52079W        W13390  26.699   4.220   4.697
52080W        W13391   6.413  21.677   0.870
52081W        W13392   7.241   8.679   4.149
52082W        W13393  35.030   2.392  12.488
52083W        W13394  38.981  38.524  13.856
52084W        W13395  31.533   0.289  11.544
52085W        W13396  31.481  40.049   4.638
52086W        W13397  20.762  13.704  12.563
52087W        W13398  14.236  31.113  11.491
52088W        W13399   7.675  41.806   0.324
52089W        W13400   3.449  18.268   0.376
52090W        W13401  17.582  28.662  11.384
52091W        W13402   0.450  42.312   0.749
52092W        W13403  25.992   2.290   3.306
52093W        W13404   4.907  36.062   1.917
52094W        W13405  25.663  44.458  14.996
52095W        W13406  26.682  11.758   3.639
52096W        W13407  32.610  31.143  10.460
52097W        W13408  12.120  35.581  12.061
52098W        W13409  21.090  39.408  11.955
52099W        W13410   4.436  34.968   1.261
52100W        W13411  44.991  13.816  11.477
52101W        W13412  13.717  13.833   2.686
52102W        W13413   7.395   8.256  12.549
52103W        W13414  21.705  42.477  13.964
52104W        W13415  15.652   5.272   2.780
52105W        W13416  31.149  12.191  12.505
52106W        W13417  15.284  26.494   2.892
52107W        W13418  37.527  29.964   0.759
52108W        W13419  14.759  13.694   3.219
52109W        W13420  36.577  36.922   9.666
52110W        W13421  41.003   5.696  14.397
52111W        W13422  41.819  11.774  10.124
52112W        W13423  21.132  27.175   1.880
52113W        W13424  10.833  38.872   1.348
52114W        W13425  31.451  25.128   4.647
52115W        W13426  42.820  24.113  13.887
52116W        W13427   0.981  39.559   1.364
52117W        W13428  18.645  39.517   2.352
52118W        W13429  37.071  23.076   1.907
52119W        W13430  41.437  41.525   0.957
52120W        W13431  19.093   5.235  11.001
52121W        W13432  36.560  39.866   0.917
52122W        W13433   0.475   1.817  10.893
52123W        W13434   2.763  26.121   3.357
52124W        W13435  38.430  31.622   4.338
52125W        W13436  21.512  42.317  13.416
52126W        W13437   7.350  30.450  11.112
52127W        W13438  31.141  21.249   0.810
52128W        W13439  24.207  31.110  13.419
52129W        W13440   2.325   0.488   3.166
52130W        W13441  11.290  38.891   4.226
52131W        W13442  32.924   0.761   2.379
52132W        W13443   2.751  20.600   3.766
52133W        W13444   0.953  18.564  13.519
52134W        W13445  34.889  17.204  14.376
52135W        W13446  15.696  25.144   1.291
52136W        W13447   4.439  36.575   1.277
52137W        W13448  38.825  40.989  12.974
52138W        W13449   2.371  28.501   0.765
52139W        W13450  11.681   5.417   2.726
52140W        W13451   5.299  25.493  12.386
52141W        W13452   7.906  24.014   1.699
52142W        W13453  43.020  38.370   3.841
52143W        W13454  39.962  25.591   3.360
52144W        W13455  37.072  39.546   1.280
52145W        W13456  34.500  24.158  10.997
52146W        W13457  36.348  40.479  14.441
52147W        W13458  11.208  24.225   4.259
52148W        W13459  40.933  38.453  11.106
52149W        W13460  40.342  25.477  13.858
52150W        W13461   9.272  42.864  12.862
52151W        W13462   5.257  30.569   0.784
52152W        W13463  34.589  39.968   4.269
52153W        W13464  22.070  27.120  12.569
52154W        W13465   2.796  22.679   3.719
52155W        W13466  32.465  22.101   3.702
52156W        W13467  37.940  11.715   0.357
52157W        W13468  11.783  16.679   1.899
52158W        W13469   9.205  29.659  14.957
52159W        W13470  40.049  32.576   2.224
52160W        W13471   3.936  34.401  12.398
52161W        W13472  24.592  19.112  14.763
52162W        W13473  21.130  10.317   3.371
52163W        W13474  41.335   3.902   0.730
52164W        W13475   8.716  24.017  12.552
52165W        W13476  28.543   4.448  13.381
52166W        W13477  19.593  22.095  11.882
52167W        W13478   5.924  33.081  13.488
52168W        W13479   9.815  16.096  11.500
52169W        W13480  31.985  25.141   3.220
52170W        W13481  35.052  18.682   1.449
52171W        W13482  22.153  13.831   2.368
52172W        W13483   3.301  20.746   4.298
52173W        W13484  23.614  18.166   3.235
52174W        W13485  32.439   5.724   0.348
52175W        W13486  10.768   9.737  10.634
52176W        W13487  19.124   3.753  10.575
52177W        W13488   6.790  13.753   2.764
52178W        W13489   7.298  14.239   0.789
52179W        W13490  17.074  29.118  13.889
52180W        W13491   6.261  32.943   4.289
52181W        W13492  27.495  25.190   0.768
52182W        W13493   4.301  30.649  12.537
52183W        W13494  33.402  29.170   4.190
52184W        W13495  22.710  42.301  12.580
52185W        W13496  26.634  12.727  13.926
52186W        W13497  27.110  21.694   0.422
52187W        W13498  18.249   0.257  14.785
52188W        W13499   3.880  35.855  11.876
52189W        W13500  26.048  40.798  13.330
52190W        W13501  16.214  41.974  14.973
52191W        W13502  26.957  32.509  13.468
52192W        W13503  42.464  16.114   0.345
52193W        W13504  27.532  22.073   1.756
52194W        W13505  33.982  16.110  10.930
52195W        W13506   3.377  34.116   3.816
52196W        W13507  23.109  42.798  11.557
52197W        W13508  41.871  40.422  13.456
52198W        W13509  30.429  31.543  13.441
52199W        W13510  27.513  39.415  12.871
52200W        W13511  10.710  36.890   0.922
52201W        W13512  35.484  40.544  12.404
52202W        W13513  15.189  17.740   2.281
52203W        W13514  23.209  36.390   0.310
52204W        W13515  39.390  29.170   3.213
52205W        W13516   9.768   4.405  14.759
52206W        W13517  35.916   6.753   2.671
52207W        W13518   4.901  33.547   4.285
52208W        W13519  17.103  12.822   1.705
52209W        W13520  25.199  24.610   4.630
52210W        W13521  15.757  22.211   3.316
52211W        W13522  23.997  30.528   9.939
52212W        W13523  11.280  15.715  10.575
52213W        W13524  25.009  35.425   0.786
52214W        W13525  11.801  30.468  12.944
52215W        W13526  37.972  16.785   0.866
52216W        W13527   0.412  27.654  14.988
52217W        W13528   3.401  11.776  11.574
52218W        W13529   6.862  16.702  13.932
52219W        W13530  43.848  38.954   3.682
52220W        W13531  20.113  14.211  13.983
52221W        W13532  43.799  20.101   2.665
52222W        W13533  21.682  30.614  13.474
52223W        W13534  44.871  36.429  13.929
52224W        W13535  29.926   6.681   0.436
52225W        W13536  24.011  21.174   4.336
52226W        W13537   6.215  31.508  12.556
52227W        W13538  35.479  24.103   1.253
52228W        W13539  32.047  12.272   2.279
52229W        W13540  10.281  33.051   2.838
52230W        W13541  20.601   7.714   2.317
52231W        W13542   0.459  30.533  12.556
52232W        W13543  34.033  24.164  13.512
52233W        W13544  22.097  27.533  10.937
52234W        W13545   9.347  32.113  14.312
52235W        W13546  38.355   6.880  11.415
52236W        W13547  39.924   0.921  14.481
52237W        W13548  34.008  30.948   2.297
52238W        W13549   6.385   0.386   2.198
52239W        W13550  14.288  27.568  10.904
52240W        W13551  23.679  32.907   1.924
52241W        W13552   2.798  35.956  11.562
52242W        W13553   0.929  32.393  13.981
52243W        W13554  28.640  34.602   1.891
52244W        W13555   5.279  37.083  11.986
52245W        W13556  23.046  20.108   1.838
52246W        W13557   2.374  35.377   0.429
52247W        W13558  41.813  24.582  12.527
52248W        W13559  43.929   7.192   1.397
52249W        W13560  13.162  35.546  11.585
52250W        W13561  10.148  20.036   0.467
52251W        W13562  19.760  21.222  14.410
52252W        W13563  29.089  34.538  11.030
52253W        W13564  42.378   2.842   2.783
52254W        W13565  42.982  14.276  11.990
52255W        W13566  16.297  32.397  13.014
52256W        W13567   7.815   7.808  14.363
52257W        W13568  41.899  42.363   3.379
52258W        W13569  22.524  20.639  12.975
52259W        W13570  17.691   6.410  12.967
52260W        W13571  27.985  16.617   0.750
52261W        W13572  41.937  29.035  10.128
52262W        W13573  21.730  29.033   3.241
52263W        W13574   3.875  30.938   2.689
52264W        W13575  32.482  15.704  11.978
52265W        W13576  44.421   7.789   0.735
52266W        W13577  39.316  33.439   4.793
52267W        W13578   3.927  26.013   3.182
52268W        W13579  16.115  27.676   1.890
52269W        W13580  32.973   3.273   1.775
52270W        W13581  24.557  30.137   3.165
52271W        W13582  32.032   5.400  14.390
52272W        W13583  15.679  20.526   2.221
52273W        W13584  36.381  14.140  13.795
52274W        W13585  36.015  32.885   4.238
52275W        W13586  22.236   2.443  10.611
52276W        W13587  43.992   1.239   2.270
52277W        W13588  27.026  27.174   2.313
52278W        W13589  24.552  23.566  14.438
52279W        W13590  10.323  37.361   0.921
52280W        W13591  21.130  15.253   3.833
52281W        W13592  37.995   0.350  11.965
52282W        W13593  20.671  37.537  12.460
52283W        W13594  22.505  17.123   2.703
52284W        W13595   0.288  40.444   4.759
52285W        W13596  15.741   5.708  10.075
52286W        W13597  23.609  29.549   2.745
52287W        W13598  16.305  29.059  11.896
52288W        W13599  18.613  41.502  14.384
52289W        W13600  22.721   0.441  10.974
52290W        W13601   4.377   5.748  10.640
52291W        W13602  24.039  43.286  13.003
52292W        W13603   3.899  13.694  11.522
52293W        W13604  32.994   3.453  14.994
52294W        W13605  26.116  18.179  10.449
52295W        W13606  10.729   9.327   2.197
52296W        W13607  29.164  17.130   1.380
52297W        W13608  14.804  24.649   4.212
52298W        W13609  19.041  38.900   1.823
52299W        W13610  33.522   7.261  10.130
52300W        W13611   8.218  43.456   4.248
52301W        W13612  15.591  25.586   1.335
52302W        W13613  11.133   5.870  11.097
52303W        W13614   2.821   0.401   2.418
52304W        W13615   9.725  43.765  12.994
52305W        W13616  19.700  39.895  13.546
52306W        W13617  33.503  13.184  11.461
52307W        W13618  42.017  18.267   3.242
52308W        W13619  15.128  15.114  11.039
52309W        W13620  42.900  25.681   2.662
52310W        W13621  27.998  42.948  12.428
52311W        W13622   9.280   0.419  10.979
52312W        W13623  16.260  40.511  12.897
52313W        W13624  34.419  40.818  11.978
52314W        W13625  18.295  43.910  12.831
52315W        W13626  27.169  22.708   2.398
52316W        W13627   4.777  27.506  12.023
52317W        W13628  23.522  17.701   2.902
52318W        W13629   3.457   2.251  10.536
52319W        W13630  15.757   2.798   0.257
52320W        W13631  15.160   2.955   2.326
52321W        W13632  36.433  14.291   2.798
52322W        W13633  23.056  27.111   9.595
52323W        W13634  37.069  33.429  12.011
52324W        W13635   2.303   1.750   5.266
52325W        W13636  24.202  40.038  12.866
52326W        W13637   5.370  19.745  14.782
52327W        W13638  21.143  38.896  14.335
52328W        W13639  23.628  18.649  12.454
52329W        W13640  31.623  16.191   0.912
52330W        W13641  14.293  31.999  10.488
52331W        W13642  10.148  38.841  10.497
52332W        W13643  21.221  26.130   0.900
52333W        W13644  31.955  27.011   1.446
52334W        W13645  33.990   5.324   4.640
52335W        W13646  21.706  29.052  14.987
52336W        W13647  21.132  31.585   3.830
52337W        W13648  25.664   7.176  10.609
52338W        W13649  41.935   5.818  13.417
52339W        W13650   9.218  41.823   3.249
52340W        W13651  26.563  30.506   1.336
52341W        W13652  20.108   8.781   0.292
52342W        W13653  37.543   6.365   4.688
52343W        W13654  36.093  40.511  11.916
52344W        W13655  11.337  26.564   1.221
52345W        W13656   2.313   2.335  10.972
52346W        W13657   0.855  13.779   1.856
52347W        W13658  23.705  30.973   5.112
52348W        W13659  15.167   5.341   2.774
52349W        W13660  28.505  14.106  10.566
52350W        W13661  29.650  16.581   1.368
52351W        W13662  36.398  33.466  14.464
52352W        W13663  42.800  38.864   1.848
52353W        W13664  39.916  10.755  12.360
52354W        W13665   3.254   8.204  12.423
52355W        W13666  30.473   1.471  12.970
52356W        W13667   5.846  23.137  11.376
52357W        W13668  29.941  15.135  12.349
52358W        W13669  12.117   6.363   0.913
52359W        W13670  11.208   8.889  13.312
52360W        W13671  18.203  42.851  13.479
52361W        W13672  36.386  35.049   2.186
52362W        W13673  14.229  31.547  11.610
52363W        W13674  10.377  12.802  11.405
52364W        W13675   8.183  17.748  12.517
52365W        W13676  25.181  40.925   3.790
52366W        W13677  15.157   5.198   5.806
52367W        W13678  29.610  34.951  11.006
52368W        W13679  17.128  12.635   3.167
52369W        W13680  12.354  19.248   1.220
52370W        W13681   1.401   3.945  12.457
52371W        W13682  27.606  23.597   4.150
52372W        W13683  13.652  15.291   2.334
52373W        W13684  34.576   7.880   4.738
52374W        W13685  21.616  39.942   5.145
52375W        W13686  44.323  23.169  12.510
52376W        W13687  25.210  38.004  12.917
52377W        W13688  24.524  35.406  14.429
52378W        W13689   2.806  29.129  13.431
52379W        W13690  28.163  21.690   4.354
52380W        W13691  38.535  28.524  14.288
52381W        W13692   9.826  16.269  13.983
52382W        W13693   9.250  41.462  11.116
52383W        W13694  41.883   4.214   4.799
52384W        W13695   0.886   2.462   1.281
52385W        W13696  32.397  33.043  10.904
52386W        W13697  31.519  15.812  10.592
52387W        W13698  25.027  24.660  12.935
52388W        W13699  35.579   6.900   4.833
52389W        W13700  24.014  29.150   0.809
52390W        W13701  28.972  15.777  13.499
52391W        W13702  39.953  42.917   2.850
52392W        W13703  19.601  16.753   1.733
52393W        W13704  29.517  12.275   4.694
52394W        W13705  31.539  40.052   2.754
52395W        W13706  28.673  21.629  11.603
52396W        W13707  23.131  42.350  11.942
52397W        W13708  18.577  18.216   0.246
52398W        W13709  26.131   3.955  14.918
52399W        W13710   7.765  27.686  12.410
52400W        W13711  26.662   8.698  11.045
52401W        W13712  29.144   5.787  13.848
52402W        W13713  41.397  25.476   4.801
52403W        W13714   4.426  28.538  11.090
52404W        W13715  34.432   8.841  10.506
52405W        W13716  11.645  42.409   0.424
52406W        W13717   8.679  23.495   4.818
52407W        W13718  16.736   0.824   0.305
52408W        W13719  20.608  25.132   4.732
52409W        W13720  32.602   1.808  13.976
52410W        W13721  27.127  33.956   4.295
52411W        W13722  30.113  34.558  13.910
52412W        W13723   6.229   9.232  11.438
52413W        W13724   2.316   2.924   1.448
52414W        W13725   5.249   4.887   4.724
52415W        W13726  17.642  35.484  14.447
52416W        W13727   1.836  38.345   4.748
52417W        W13728  19.125  12.675  14.962
52418W        W13729  35.425  13.705   4.237
52419W        W13730  15.093  21.624   0.286
52420W        W13731   3.805   9.753   4.636
52421W        W13732  28.531  36.371  13.046
52422W        W13733   2.945  35.862   2.281
52423W        W13734  40.306  17.761  14.988
52424W        W13735   4.894  30.920  13.990
52425W        W13736   6.818  20.212   5.135
52426W        W13737  15.113  29.617  12.067
52427W        W13738  26.201  34.483   3.315
52428W        W13739  43.875  38.900   0.883
52429W        W13740  21.184  37.046   5.188
52430W        W13741  22.149  39.004   1.807
52431W        W13742   5.687  33.108  13.050
52432W        W13743  22.074  43.966   0.867
52433W        W13744   2.427  12.689  12.951
52434W        W13745  15.246  14.205  14.416
52435W        W13746  17.686  24.026   9.976
52436W        W13747  42.029  13.161   0.296
52437W        W13748  24.527  26.576  12.454
52438W        W13749   4.299   2.444  11.481
52439W        W13750  44.396  41.791   4.694
52440W        W13751  26.106  20.261   0.748
52441W        W13752  29.570   6.908   1.845
52442W        W13753   5.232  19.175   1.831
52443W        W13754  37.945  34.493  12.069
52444W        W13755  15.723  19.063  14.028
52445W        W13756   1.740  38.937  13.919
52446W        W13757  25.041   6.249   4.239
52447W        W13758  11.156   7.402  13.376
52448W        W13759  25.598  43.992  10.480
52449W        W13760  21.580   4.410   1.423
52450W        W13761  21.196   7.380   3.219
52451W        W13762   9.746  33.517  11.548
52452W        W13763  21.576  10.763   3.194
52453W        W13764  11.328  22.051  13.337
52454W        W13765  29.444  15.272   3.672
52455W        W13766  42.320  23.548  10.966
52456W        W13767  11.690  21.579  12.469
52457W        W13768  21.713  30.099   0.833
52458W        W13769  12.176  10.820  13.881
52459W        W13770  20.727  11.325   2.196
52460W        W13771  26.091  19.187  10.629
52461W        W13772  24.521   8.165  10.551
52462W        W13773   2.378  14.680  11.900
52463W        W13774  16.663   8.403   4.324
52464W        W13775  11.754  12.154  11.991
52465W        W13776   2.872  32.561   2.400
52466W        W13777  34.612  21.080  13.906
52467W        W13778   1.939  21.160   2.191
52468W        W13779   3.853  11.837  14.385
52469W        W13780   3.891  13.333  10.499
52470W        W13781   7.219  39.325   3.253
52471W        W13782   7.175  42.439   3.768
52472W        W13783  33.479  41.994  14.981
52473W        W13784  10.636  21.152   4.198
52474W        W13785  44.955  20.108  10.992
52475W        W13786  40.539   6.394   4.745
52476W        W13787  38.493   2.963   4.608
52477W        W13788  20.195  43.303   3.276
52478W        W13789   6.346  36.489   1.391
52479W        W13790  21.614  24.012   1.915
52480W        W13791  32.503  26.119  11.855
52481W        W13792   6.867  22.684  12.969
52482W        W13793  21.211   4.363   1.804
52483W        W13794   8.211  37.067  14.853
52484W        W13795  44.424   6.789   1.765
52485W        W13796  36.446  29.593   5.125
52486W        W13797  27.011  22.130  11.877
52487W        W13798  44.783  40.951   4.347
52488W        W13799  42.391  17.198  13.960
52489W        W13800  40.049  39.510  12.886
52490W        W13801  41.497   3.452   3.325
52491W        W13802   0.975  17.149  12.543
52492W        W13803  24.513  31.923   0.475
52493W        W13804  35.375   3.260  10.980
52494W        W13805  32.992  16.670   4.292
52495W        W13806  13.673  14.670  12.971
52496W        W13807  42.400  26.675  12.089
52497W        W13808   5.733  38.484   0.777
52498W        W13809   9.705  23.633   2.343
52499W        W13810  13.604  25.190  12.997
52500W        W13811  29.936  19.127  10.890
52501W        W13812  36.072   4.838   1.406
52502W        W13813  38.918  42.882   5.198
52503W        W13814  41.949   0.805   0.768
52504W        W13815  39.935  24.222  11.885
52505W        W13816  29.094  28.001  13.889
52506W        W13817  18.278  32.128  13.449
52507W        W13818  33.972   3.954  11.929
52508W        W13819  16.095  22.156  14.789
52509W        W13820   2.927  15.278   4.324
52510W        W13821  30.101  36.941  11.872
52511W        W13822   6.330   1.955   0.944
52512W        W13823   8.232  34.910   2.750
52513W        W13824  13.801  15.716  14.313
52514W        W13825  24.532   7.884   3.299
52515W        W13826  28.056  42.525  13.389
52516W        W13827  20.630  26.581  11.945
52517W        W13828  15.684  41.407  13.902
52518W        W13829   1.281   6.730  14.877
52519W        W13830   6.900  27.098  12.874
52520W        W13831   8.793  32.935  11.450
52521W        W13832  24.179  23.723  12.353
52522W        W13833   4.426  27.140   2.267
52523W        W13834  23.223  31.450   1.909
52524W        W13835   0.277   4.837   0.924
52525W        W13836  12.739  25.609   0.770
52526W        W13837  19.097  40.478   1.378
52527W        W13838  39.886  26.110  12.356
52528W        W13839  16.273   4.865  13.317
52529W        W13840  23.064  27.675   5.672
52530W        W13841  29.162  19.580   2.268
52531W        W13842  13.630  19.216  14.874
52532W        W13843  40.508  19.546  10.482
52533W        W13844   1.881   3.714  10.612
52534W        W13845   1.404  12.771  11.437
52535W        W13846  25.075  29.921  11.483
52536W        W13847   9.381  44.465   0.423
52537W        W13848  29.501   1.333   4.823
52538W        W13849  17.158  43.876   0.861
52539W        W13850  30.983  11.811  13.368
52540W        W13851  10.145  21.755  11.577
52541W        W13852  14.826  39.933   9.987
52542W        W13853  22.126  40.464   1.702
52543W        W13854  42.794   6.326   1.728
52544W        W13855  35.524  11.361   3.223
52545W        W13856   3.891  39.940   3.707
52546W        W13857  23.019   8.401  12.459
52547W        W13858  38.993  30.121   2.232
52548W        W13859  14.329  43.820   4.599
52549W        W13860  14.755  16.075   1.287
52550W        W13861   6.399  28.174  10.575
52551W        W13862  42.431  42.340   0.252
52552W        W13863  38.438   3.714  12.409
52553W        W13864   5.264  40.005   3.706
52554W        W13865  18.691  13.200  14.388
52555W        W13866  25.160   4.908  13.881
52556W        W13867   7.409  38.076  11.492
52557W        W13868  42.996  17.783   3.678
52558W        W13869  29.010  13.809   2.734
52559W        W13870   0.868  14.597   2.310
52560W        W13871  37.541   1.768  13.393
52561W        W13872  38.532  17.729  10.452
52562W        W13873  21.752  36.022   0.344
52563W        W13874  16.747  27.089   3.310
52564W        W13875  44.350  21.707   0.918
52565W        W13876  30.162  12.202  10.973
52566W        W13877  10.818   7.880   3.808
52567W        W13878  14.176  19.567  10.446
52568W        W13879  41.343  44.767  11.886
52569W        W13880  12.350  41.985   4.148
52570W        W13881  37.496   3.920   2.797
52571W        W13882   8.398   3.362  11.066
52572W        W13883  20.655  33.574  12.016
52573W        W13884  23.545   4.941  11.422
52574W        W13885  28.480  13.647   1.232
52575W        W13886  35.937  36.440   1.724
52576W        W13887  32.091  20.673  12.865
52577W        W13888  44.865  13.732  13.322
52578W        W13889  21.021  19.556   0.259
52579W        W13890   8.321   3.346  13.345
52580W        W13891   4.873   2.324   2.286
52581W        W13892  27.614  19.158   1.801
52582W        W13893  40.478  18.139  14.780
52583W        W13894  10.176   7.752  12.543
52584W        W13895  24.177  36.038  12.040
52585W        W13896  35.552   6.321   2.756
52586W        W13897   7.715   0.247   1.806
52587W        W13898   7.747   3.808  11.557
52588W        W13899   8.768  35.449   2.787
52589W        W13900  29.504  16.253   1.729
52590W        W13901  33.000  18.559  12.434
52591W        W13902   8.790  22.023  11.984
52592W        W13903  38.948  24.143  13.513
52593W        W13904  35.550  17.075   2.682
52594W        W13905  32.002  10.663  10.959
52595W        W13906   0.840  43.012  11.014
52596W        W13907  33.547   1.741  12.040
52597W        W13908  32.095  27.101   0.254
52598W        W13909  31.077  22.152   3.257
52599W        W13910  12.614   1.807   5.185
52600W        W13911   3.342  14.162  11.606
52601W        W13912  20.622  35.878   0.889
52602W        W13913  29.144  40.968   0.415
52603W        W13914  37.863  26.484  10.440
52604W        W13915  41.455  29.619  13.005
52605W        W13916  43.397  21.520   4.701
52606W        W13917  23.511  17.301  13.468
52607W        W13918  40.889  11.171  12.031
52608W        W13919  26.080  32.445   4.238
52609W        W13920  16.709  31.971   1.247
52610W        W13921  22.185   6.731   1.331
52611W        W13922  34.025  44.776  12.445
52612W        W13923   7.761   9.729   0.447
52613W        W13924   3.351  16.659   9.928
52614W        W13925  33.557  22.636   1.755
52615W        W13926  39.951  28.563   3.151
52616W        W13927  32.440  39.992   2.389
52617W        W13928   0.756   8.234  13.512
52618W        W13929  13.818   0.922  10.615
52619W        W13930  11.742  34.868  13.311
52620W        W13931  10.310  39.484   3.283
52621W        W13932  23.647  25.147   2.900
52622W        W13933   2.942  40.449   1.372
52623W        W13934  19.267   6.719  10.488
52624W        W13935  27.616  26.469  14.766
52625W        W13936   8.329  21.115   4.324
52626W        W13937  20.061  38.376  10.412
52627W        W13938  22.108  44.324   0.885
52628W        W13939  44.267   9.160  11.577
52629W        W13940  25.683  11.250  14.795
52630W        W13941  26.167  39.370  14.010
52631W        W13942  41.996   8.849   4.667
52632W        W13943   4.761  31.411  12.500
52633W        W13944  16.248  39.837   2.403
52634W        W13945  22.064  40.916   3.861
52635W        W13946  20.705  28.078  12.427
52636W        W13947   6.732   0.898  12.933
52637W        W13948  27.014  16.265   3.691
52638W        W13949  20.209  23.215  13.933
52639W        W13950  21.608  44.949   4.323
52640W        W13951  25.033  34.424  10.993
52641W        W13952  16.159  41.390  10.421
52642W        W13953   2.394  24.024   1.739
52643W        W13954   0.756  39.029   3.653
52644W        W13955   8.771  18.553  12.835
52645W        W13956  39.428   4.777   0.828
52646W        W13957  38.414  35.909   3.301
52647W        W13958  10.660   7.729   1.847
52648W        W13959   2.229  25.032  13.539
52649W        W13960  37.031  10.780   0.263
52650W        W13961  17.665  17.670  13.361
52651W        W13962  36.451  39.501  14.937
52652W        W13963  42.021  21.168  14.805
52653W        W13964  16.245  16.312  10.467
52654W        W13965   4.796   9.235   3.671
52655W        W13966  13.820   6.266   3.692
52656W        W13967  10.233   8.234  11.384
52657W        W13968  25.704  31.640   4.775
52658W        W13969  20.537  25.626  11.567
52659W        W13970   9.653  19.580   3.850
52660W        W13971  34.066  28.023   4.227
52661W        W13972  13.771  24.020  14.409
52662W        W13973  15.301   5.306   3.726
52663W        W13974   3.721  22.729  13.360
52664W        W13975  32.046  29.551   3.302
52665W        W13976   9.365  22.233  12.444
52666W        W13977  10.186   7.847   1.834
52667W        W13978  19.709  38.050   0.800
52668W        W13979  44.898   2.379  13.523
52669W        W13980  19.566  34.420   3.748
52670W        W13981  37.351   6.404  13.894
52671W        W13982  30.096  15.601   2.205
52672W        W13983  11.700  36.880  13.329
52673W        W13984  15.766  22.510  11.965
52674W        W13985  28.439   2.877  14.810
52675W        W13986  40.371   0.344  10.921
52676W        W13987  14.641   2.837   1.411
52677W        W13988  33.492  26.190   2.389
52678W        W13989  15.320  20.742  13.823
52679W        W13990  23.052  22.229  10.948
52680W        W13991   4.362  38.034   0.836
52681W        W13992   7.851  31.445  13.402
52682W        W13993  23.714   0.433  10.959
52683W        W13994  14.799  27.581   3.173
52684W        W13995  28.170  20.195   2.194
52685W        W13996  41.537   1.826  14.989
52686W        W13997  10.253  33.594   0.818
52687W        W13998  21.056  32.461  11.067
52688W        W13999   4.243  16.810  13.942
52689W        W14000  14.678  19.132  14.914
52690W        W14001  19.540  39.954  12.501
52691W        W14002  20.145  27.084  12.405
52692W        W14003  35.892   6.284   0.356
52693W        W14004  36.954  19.635   3.654
52694W        W14005  10.155   0.250  11.463
52695W        W14006  33.004  22.669  12.469
52696W        W14007  39.931   3.319   2.679
52697W        W14008  37.538   4.316   3.843
52698W        W14009  15.230  11.777  14.847
52699W        W14010  19.210  27.654   3.663
52700W        W14011  13.286   2.447  14.284
52701W        W14012  40.385  27.102  10.554
52702W        W14013  33.495   2.320   3.320
52703W        W14014  10.216  33.505   3.851
52704W        W14015  34.606  20.557  10.629
52705W        W14016  44.931  30.559   2.827
52706W        W14017  10.683  23.125   3.160
52707W        W14018  21.139  12.176   2.833
52708W        W14019  10.313  12.852   3.362
52709W        W14020  27.019  33.584   2.792
52710W        W14021  42.388   4.253  14.003
52711W        W14022  31.449  38.845   1.402
52712W        W14023  14.766  40.967   1.291
52713W        W14024  31.420  27.663   4.289
52714W        W14025  27.501  20.147  11.093
52715W        W14026  27.125  34.107   2.219
52716W        W14027   3.814  17.733   3.640
52717W        W14028  38.032  16.179  14.837
52718W        W14029   5.338  36.033   3.182
52719W        W14030  26.974  13.331  12.018
52720W        W14031   3.896  25.068  12.496
52721W        W14032  43.405  41.029   3.345
52722W        W14033  23.001  12.137  13.347
52723W        W14034  37.919  11.131  14.943
52724W        W14035  34.972  21.575  10.411
52725W        W14036  34.952  36.518  10.997
52726W        W14037   8.732   3.793   4.308
52727W        W14038   4.876  17.154  14.794
52728W        W14039  38.961  18.095   3.804
52729W        W14040  35.973  41.339  12.951
52730W        W14041  12.184  30.098  10.406
52731W        W14042  17.758  18.638  14.965
52732W        W14043  27.448   2.318  10.594
52733W        W14044   4.381  18.777   0.726
52734W        W14045   9.663  23.086  11.015
52735W        W14046  32.917  43.471  13.497
52736W        W14047  30.582  10.718   4.267
52737W        W14048  30.444  19.124   1.805
52738W        W14049  43.987  32.544  10.950
52739W        W14050  12.842  37.397  13.890
52740W        W14051  42.288  12.803   1.365
52741W        W14052  25.177  19.240  13.447
52742W        W14053  41.849  13.631   4.137
52743W        W14054  41.903  37.962   3.180
52744W        W14055  30.598  34.041   3.220
52745W        W14056  12.784  34.029   3.856
52746W        W14057   1.747   6.420   4.169
52747W        W14058  21.208  42.414  10.038
52748W        W14059  11.267  23.525   0.314
52749W        W14060  32.892  18.711  11.391
52750W        W14061  14.275  13.822  11.558
52751W        W14062  21.070  31.466   1.754
52752W        W14063  19.121   1.862  12.578
52753W        W14064   4.335   1.926  10.408
52754W        W14065  28.989   2.417   4.234
52755W        W14066  39.340  18.627   1.717
52756W        W14067  16.708  40.312   0.267
52757W        W14068  30.095   7.780  12.970
52758W        W14069  19.575  42.825   2.414
52759W        W14070  21.213  12.221   0.419
52760W        W14071  42.493  33.401   3.215
52761W        W14072  40.029  27.130   3.366
52762W        W14073  29.168  43.777  13.037
52763W        W14074   2.427  20.534   3.666
52764W        W14075   5.273  24.053   2.835
52765W        W14076  20.669   1.314   3.653
52766W        W14077  33.122  35.995  13.907
52767W        W14078  33.606   7.760  10.411
52768W        W14079   2.448  17.107   0.873
52769W        W14080  19.068  37.473  12.032
52770W        W14081  28.584  29.636   1.238
52771W        W14082  11.754  35.552   3.694
52772W        W14083  16.641  28.043  13.033
52773W        W14084  20.610  21.716  13.445
52774W        W14085  34.917  44.805   2.887
52775W        W14086  12.632  12.757  11.405
52776W        W14087  37.399   8.371  12.042
52777W        W14088  37.416   9.190   0.862
52778W        W14089  42.487  31.629   4.313
52779W        W14090  15.190  26.076   0.250
52780W        W14091  26.082  21.619   4.773
52781W        W14092  35.099  36.428   1.308
52782W        W14093  36.398  39.382  11.611
52783W        W14094  11.836  19.167  11.373
52784W        W14095  21.654   1.755   2.901
52785W        W14096  21.587  29.127  13.431
52786W        W14097  18.291  34.389  13.399
52787W        W14098  27.520  40.538   4.173
52788W        W14099  34.926  25.181   2.712
52789W        W14100  19.609  36.417   3.745
52790W        W14101  37.020  17.782   0.446
52791W        W14102  40.325   0.928  13.506
52792W        W14103  41.841   1.892   4.237
52793W        W14104  14.211  44.301   3.804
52794W        W14105   0.893  19.217   0.343
52795W        W14106  26.676  32.524   0.762
52796W        W14107   0.917  37.460  10.156
52797W        W14108  23.996   5.379   0.893
52798W        W14109  10.300  11.255  10.616
52799W        W14110  36.843  12.261   2.185
52800W        W14111  14.641  20.124   0.780
52801W        W14112   4.709   9.203   1.229
52802W        W14113  32.985   1.413   1.726
52803W        W14114   1.239  16.788  12.500
52804W        W14115  32.550  30.542   0.816
52805W        W14116  34.055  34.931   0.338
52806W        W14117   2.457  14.300   4.772
52807W        W14118  44.496  30.006   0.962
52808W        W14119   5.786  43.509   3.158
52809W        W14120  24.526  42.825   0.396
52810W        W14121   2.278  19.762  11.474
52811W        W14122  15.612   1.307  12.910
52812W        W14123  41.964  15.740   3.715
52813W        W14124  28.555   1.839  14.414
52814W        W14125  20.538  40.417   3.657
52815W        W14126  23.049  11.867   2.762
52816W        W14127  25.082  37.915  11.505
52817W        W14128  43.880  10.728   0.334
52818W        W14129  20.072  41.523  14.799
52819W        W14130  25.080  35.862   1.391
52820W        W14131  28.604  13.256  14.514
52821W        W14132  25.050  42.404  13.916
52822W        W14133  43.981  33.462  11.471
52823W        W14134  25.474   3.316  11.477
52824W        W14135  37.993  18.737  14.997
52825W        W14136  15.700   1.857  14.308
52826W        W14137   6.877  10.842  12.025
52827W        W14138   3.922  22.173  14.825
52828W        W14139  21.544   7.713   4.178
52829W        W14140  44.433   9.766  11.121
52830W        W14141  35.001  44.850  11.891
52831W        W14142   5.436   0.974  11.488
52832W        W14143  15.647   4.828  14.394
52833W        W14144  35.423  24.066  12.565
52834W        W14145  17.212  36.510   3.285
52835W        W14146  11.202  30.150   4.335
52836W        W14147  22.176  38.558   2.408
52837W        W14148  15.701   0.332  11.972
52838W        W14149  44.407  11.320  13.321
52839W        W14150  29.969  13.624  12.980
52840W        W14151  38.356  35.564  12.828
52841W        W14152  35.566   8.767  12.993
52842W        W14153  19.248  40.486  12.958
52843W        W14154  13.796   5.261  12.483
52844W        W14155  39.054  22.605  10.977
52845W        W14156   5.927  35.060   2.312
52846W        W14157  23.623  40.469  11.448
52847W        W14158   6.302  36.875  12.362
52848W        W14159  23.607   8.733  14.937
52849W        W14160  42.893  26.029   2.367
52850W        W14161   5.411  26.637  12.503
52851W        W14162   7.813  10.791   3.232
52852W        W14163  30.046  35.604  12.361
52853W        W14164  38.062  23.037   1.927
52854W        W14165  14.147  16.309   0.320
52855W        W14166   8.671  27.113  12.424
52856W        W14167  17.103   2.777  14.776
52857W        W14168  31.428  11.813  14.825
52858W        W14169  11.221  21.580   4.343
52859W        W14170  38.902  14.340   2.374
52860W        W14171   3.746   9.820  10.426
52861W        W14172  38.927  18.622  14.385
52862W        W14173  32.926  29.920   0.966
52863W        W14174  28.172  12.136  10.452
52864W        W14175  25.200  27.474   3.158
52865W        W14176  31.571   4.331  11.125
52866W        W14177  43.324  39.022   1.369
52867W        W14178  14.701  41.993  11.909
52868W        W14179  30.428  22.150   1.824
52869W        W14180   2.363  17.139  10.950
52870W        W14181  40.849  28.932  13.801
52871W        W14182   8.265  38.870  11.918
52872W        W14183  37.343  43.883   0.276
52873W        W14184  20.135  42.803  14.430
52874W        W14185  37.493  41.015  14.333
52875W        W14186  35.514  15.256  14.432
52876W        W14187  25.052  35.952   0.436
52877W        W14188  44.949   1.892  14.867
52878W        W14189   7.361  18.156   1.812
52879W        W14190  36.448   0.283  14.873
52880W        W14191  43.356  23.101   2.254
52881W        W14192  18.643  39.913   4.179
52882W        W14193  19.198  27.946   1.220
52883W        W14194  18.190   6.286  11.482
52884W        W14195  28.520  22.538  12.092
52885W        W14196  23.984  12.808   1.736
52886W        W14197  11.767  44.911   3.258
52887W        W14198  29.986  37.488   2.712
52888W        W14199   2.937  35.375  11.119
52889W        W14200  37.555  15.713   4.352
52890W        W14201  35.456  43.335  12.506
52891W        W14202  39.536  24.630  11.453
52892W        W14203   1.307  32.015   0.888
52893W        W14204  21.033  26.627   5.124
52894W        W14205  39.893  15.301   4.239
52895W        W14206  23.227   7.300   3.330
52896W        W14207  20.221  43.320  12.481
52897W        W14208  44.299   0.293   2.685
52898W        W14209  41.510  14.673   3.799
52899W        W14210  20.254  21.619  10.431
52900W        W14211   8.175  31.648   2.361
52901W        W14212  29.926  40.303  12.041
52902W        W14213   3.762  19.599  13.876
52903W        W14214   1.469  25.621   1.269
52904W        W14215  14.631   0.958  12.038
52905W        W14216   8.252  19.748  10.442
52906W        W14217   1.952   3.339   4.142
52907W        W14218   3.280  26.102   0.415
52908W        W14219  14.271   0.799  11.881
52909W        W14220  35.567   7.290   4.817
52910W        W14221  38.002   9.716  13.956
52911W        W14222   7.849  21.654  10.524
52912W        W14223  36.412  19.181  13.863
52913W        W14224  28.042  42.984   1.398
52914W        W14225  14.220  34.569   1.872
52915W        W14226  29.930   9.270  14.921
52916W        W14227  21.135  31.122   1.414
52917W        W14228  30.031  34.004  10.965
52918W        W14229  21.748   3.328   1.809
52919W        W14230  32.495  23.099  12.515
52920W        W14231  15.773  16.192  12.856
52921W        W14232  28.113  13.181   3.686
52922W        W14233  42.501  44.988  11.583
52923W        W14234  23.162  34.432  12.094
52924W        W14235  25.579   5.222  13.944
52925W        W14236   9.288  38.439   3.293
52926W        W14237  42.944  40.032  10.602
52927W        W14238  39.515  41.310  14.970
52928W        W14239  37.935  21.215  10.637
52929W        W14240  39.893   0.262  11.930
52930W        W14241  41.817   2.469   2.207
52931W        W14242  43.399  17.195   9.998
52932W        W14243  44.810   6.739   3.324
52933W        W14244  34.071  23.579  13.052
52934W        W14245  28.049  13.820  13.855
52935W        W14246  44.266  16.715  11.432
52936W        W14247  23.130   4.898  13.029
52937W        W14248  36.903  28.091   1.364
52938W        W14249  15.702  44.822   2.205
52939W        W14250  15.741   1.245   4.831
52940W        W14251   7.377  40.799   0.259
52941W        W14252  40.320   0.916   5.272
52942W        W14253  12.788  37.036  11.872
52943W        W14254  18.626  31.603   4.155
52944W        W14255  44.842  38.510   2.860
52945W        W14256  31.489  16.124  14.486
52946W        W14257  19.536  23.614  11.074
52947W        W14258  19.274  19.536  11.919
52948W        W14259  42.856  27.574  12.516
52949W        W14260  35.537  36.434  14.857
52950W        W14261   0.274  33.046  11.413
52951W        W14262  38.476   8.164   0.867
52952W        W14263  40.811  25.088  11.469
52953W        W14264  36.037  23.061   1.239
52954W        W14265  34.911  18.550  14.029
52955W        W14266  40.514   6.858   2.745
52956W        W14267  24.642  13.768  14.465
52957W        W14268  45.000  15.095   4.709
52958W        W14269   6.868   4.833  13.544
52959W        W14270  12.250   2.424   4.781
52960W        W14271   1.339   2.865  12.846
52961W        W14272  32.629  22.248  13.849
52962W        W14273  41.042  17.686  11.411
52963W        W14274  32.952  36.510   2.721
52964W        W14275  18.594  18.638   4.332
52965W        W14276  26.619  25.527  12.477
52966W        W14277   8.282   3.903  10.478
52967W        W14278  36.402  12.729  12.048
52968W        W14279  25.705  39.870   0.417
52969W        W14280   2.419  26.605   4.599
52970W        W14281  28.618  44.373   2.798
52971W        W14282  11.263  31.058   0.766
52972W        W14283   5.310  14.333   3.180
52973W        W14284  15.176  14.718   0.789
52974W        W14285  35.493  34.916   1.450
52975W        W14286   7.834  25.657   2.197
52976W        W14287  23.648   4.400  13.491
52977W        W14288   6.265  17.725  12.933
52978W        W14289  42.349  12.292  14.966
52979W        W14290  11.324   9.393  10.446
52980W        W14291  25.577  19.691   9.990
52981W        W14292  43.324   3.344   2.297
52982W        W14293  15.749  14.294  11.501
52983W        W14294   7.338  11.752  14.353
52984W        W14295  14.606  15.741   1.420
52985W        W14296   6.813  28.487  11.608
52986W        W14297  27.006   4.341  12.575
52987W        W14298  38.967  28.603  11.536
52988W        W14299  43.972   9.755   4.298
52989W        W14300  12.640  22.719  10.615
52990W        W14301  37.367  22.134  13.443
52991W        W14302   1.425   0.815   0.378
52992W        W14303  31.429   4.741   4.697
52993W        W14304  40.520  13.295   2.685
52994W        W14305   3.758   0.320   3.669
52995W        W14306  18.593  31.988  14.789
52996W        W14307  23.636  38.005   0.815
52997W        W14308  37.967  37.031   3.801
52998W        W14309  24.049  30.654   3.277
52999W        W14310  31.560  11.631  11.904
53000W        W14311  42.493  39.545  12.568
53001W        W14312   3.440  35.995   3.826
53002W        W14313  16.570  21.756  11.544
53003W        W14314  15.192  18.141  13.419
53004W        W14315  38.335  38.856  12.448
53005W        W14316  40.938  26.037  12.899
53006W        W14317  22.174  20.109  11.986
53007W        W14318  24.056  29.079  11.404
53008W        W14319  32.911  44.431  10.601
53009W        W14320   5.298   4.732  12.051
53010W        W14321  29.143  36.923  13.049
53011W        W14322  30.612  36.032   2.669
53012W        W14323  33.874  16.602  12.551
53013W        W14324  13.111  31.489  12.081
53014W        W14325   3.725  15.696  13.919
53015W        W14326   9.193  18.081   0.945
53016W        W14327  42.460   1.396   3.637
53017W        W14328   3.730   3.355   5.090
53018W        W14329  17.231  16.653  13.934
53019W        W14330  29.959  44.960   4.766
53020W        W14331  40.857  29.015   3.843
53021W        W14332  28.980  44.801   4.322
53022W        W14333  13.217   4.329  14.940
53023W        W14334  28.181  28.043   2.357
53024W        W14335  15.735   4.724   0.397
53025W        W14336  14.207  13.643   1.265
53026W        W14337  12.193  16.128  12.025
53027W        W14338  40.518   1.369   0.482
53028W        W14339  17.713  17.177  13.859
53029W        W14340  15.244  11.369  10.552
53030W        W14341  13.202  25.680   4.646
53031W        W14342   5.786  31.584  12.974
53032W        W14343  21.064  37.039  12.003
53033W        W14344  14.335  27.033  14.998
53034W        W14345  24.655   7.857   4.807
53035W        W14346  16.672  20.051   2.313
53036W        W14347  29.538  37.042   0.930
53037W        W14348   3.282  17.680   0.427
53038W        W14349  23.124  16.799   1.705
53039W        W14350  42.945   3.877   0.903
53040W        W14351  33.937  17.763  12.004
53041W        W14352  35.083  33.929   4.210
53042W        W14353  10.320   6.424  12.899
53043W        W14354  26.613   6.842   4.121
53044W        W14355  10.822   9.190   1.436
53045W        W14356  37.904  33.425   1.925
53046W        W14357   0.416  28.616  13.514
53047W        W14358  41.357  17.297  12.443
53048W        W14359  35.521   1.781  12.966
53049W        W14360  35.987   5.232  11.953
53050W        W14361  21.157  28.952   2.693
53051W        W14362   0.294   0.360   2.724
53052W        W14363  12.837   7.874  12.012
53053W        W14364  18.130  20.756  14.367
53054W        W14365  26.953  44.367   0.738
53055W        W14366   2.310  19.068  14.465
53056W        W14367  20.167  42.866  14.996
53057W        W14368  29.496  20.155  13.898
53058W        W14369   4.756  40.311   0.805
53059W        W14370  10.335  11.679  14.327
53060W        W14371  22.222  21.257  13.472
53061W        W14372  26.127  44.874  12.939
53062W        W14373  39.416  41.962   4.285
53063W        W14374  15.791  40.846  10.470
53064W        W14375   4.753  43.354   3.745
53065W        W14376   1.795  19.541   3.643
53066W        W14377  19.109  23.533  13.898
53067W        W14378  28.951  42.419   0.428
53068W        W14379  20.222  17.084  11.580
53069W        W14380  41.802  41.939   4.205
53070W        W14381  28.047  30.946   1.221
53071W        W14382  10.202  10.725   1.771
53072W        W14383   4.775  34.600  10.078
53073W        W14384  41.362  26.685  11.391
53074W        W14385   8.888   5.928  11.523
53075W        W14386  22.021  40.373   5.138
53076W        W14387  17.096   5.831  12.399
53077W        W14388   6.723  10.766   0.746
53078W        W14389   3.365   8.709   2.408
53079W        W14390  28.031  30.462   0.791
53080W        W14391  35.498  19.084  11.896
53081W        W14392   8.774  33.877   3.326
53082W        W14393  14.308   8.773   2.666
53083W        W14394   2.847  37.481   4.608
53084W        W14395  19.742  21.140   1.785
53085W        W14396   6.705  15.222   1.907
53086W        W14397  36.914  19.117   3.672
53087W        W14398   9.301  27.128   3.656
53088W        W14399  15.693  35.004  10.986
53089W        W14400   6.895   3.342  13.422
53090W        W14401  11.729  32.075   4.221
53091W        W14402  18.174  26.669  11.112
53092W        W14403  28.104  13.675  11.898
53093W        W14404  28.584  33.588  13.517
53094W        W14405  22.724  27.164   3.759
53095W        W14406  12.855   8.210  12.340
53096W        W14407  20.154   5.212   2.683
53097W        W14408  20.543   9.822   1.814
53098W        W14409  43.499  19.208   0.344
53099W        W14410   2.441  42.399  14.951
53100W        W14411  43.914   8.274   1.258
53101W        W14412   1.316  26.578  10.976
53102W        W14413  19.652  18.591   4.617
53103W        W14414  39.897  30.556  14.854
53104W        W14415  31.551   4.286  14.414
53105W        W14416  23.516  18.579   1.275
53106W        W14417  33.480  24.605   3.366
53107W        W14418  21.632  40.885  10.996
53108W        W14419  26.697  39.954  12.556
53109W        W14420  41.312  42.944   1.288
53110W        W14421  35.991  24.535   3.754
53111W        W14422  31.111  19.765   3.671
53112W        W14423  27.492  13.779  11.502
53113W        W14424   0.939  25.615   2.243
53114W        W14425  25.132  36.932  13.948
53115W        W14426  17.122  26.606   4.151
53116W        W14427  24.014  26.126   1.825
53117W        W14428  23.539  35.935  12.454
53118W        W14429  42.430  17.640   4.785
53119W        W14430  25.185   4.801  10.471
53120W        W14431   9.823  36.906  14.493
53121W        W14432  14.284  14.752   5.288
53122W        W14433  25.705  11.849   5.277
53123W        W14434  20.042  42.521   4.629
53124W        W14435   9.676  36.575   2.229
53125W        W14436  43.516  15.750   3.821
53126W        W14437  26.118  36.876  14.508
53127W        W14438   2.847  31.935  10.404
53128W        W14439  38.359   7.227   1.288
53129W        W14440   1.441  37.415   2.369
53130W        W14441  16.187  36.549  13.318
53131W        W14442   0.844  34.506   3.297
53132W        W14443  40.332  32.990  12.561
53133W        W14444  22.503  36.908  13.453
53134W        W14445  31.003  35.045  14.950
53135W        W14446   3.291  25.069  11.983
53136W        W14447  22.217  36.561  11.394
53137W        W14448   9.850  33.487  14.914
53138W        W14449  17.270  13.249   2.743
53139W        W14450   8.718  42.800  10.147
53140W        W14451  25.657  16.194   2.687
53141W        W14452  26.627  36.915  10.472
53142W        W14453  30.131  19.118   2.296
53143W        W14454   1.361  32.931   4.354
53144W        W14455  41.521  14.281  13.393
53145W        W14456   7.668  27.113  10.888
53146W        W14457  31.904   4.358   4.754
53147W        W14458   3.859  29.057   5.317
53148W        W14459  19.746  13.171  14.392
53149W        W14460   8.377  19.108  11.962
53150W        W14461  29.128  25.974  14.761
53151W        W14462  38.468  41.376   1.896
53152W        W14463   5.285   4.826  13.809
53153W        W14464  44.474   5.925   9.968
53154W        W14465   8.402   4.240  14.941
53155W        W14466  16.210  33.546   0.764
53156W        W14467  25.615   9.387   1.406
53157W        W14468   2.932  17.273   2.778
53158W        W14469   9.285  12.832  10.617
53159W        W14470  22.043  21.137   2.730
53160W        W14471  38.833  22.708  10.429
53161W        W14472  22.529  38.073   0.316
53162W        W14473  37.889  15.281   2.252
53163W        W14474   1.276  39.488   2.181
53164W        W14475   5.839  44.348  10.973
53165W        W14476  35.424  27.142  13.393
53166W        W14477  23.652  15.328  12.832
53167W        W14478  41.897  18.249   3.718
53168W        W14479  42.516  36.365  14.022
53169W        W14480   7.893   2.417   1.873
53170W        W14481   9.222  25.544   3.753
53171W        W14482  34.452   1.776  14.802
53172W        W14483  41.445  25.606  14.837
53173W        W14484  28.508  32.082  13.351
53174W        W14485   3.260  24.172   1.905
53175W        W14486  22.747   8.838  13.887
53176W        W14487  10.693  17.235  13.418
53177W        W14488  13.814   2.276   4.179
53178W        W14489   4.230   7.262  13.061
53179W        W14490  26.576  36.991   0.423
53180W        W14491  20.573  41.459  11.968
53181W        W14492  32.522  31.567   4.825
53182W        W14493  25.653  29.069   3.870
53183W        W14494   5.797  39.877   4.640
53184W        W14495  15.636  12.273  13.502
53185W        W14496  23.508  41.496   4.652
53186W        W14497  31.946  21.047   1.926
53187W        W14498  39.482  12.265   2.780
53188W        W14499  28.042  38.881  13.877
53189W        W14500  37.475  10.220  13.041
53190W        W14501  36.073  39.890   4.733
53191W        W14502  16.579  21.262   1.447
53192W        W14503   1.473  15.686   2.241
53193W        W14504  14.280  26.649   4.741
53194W        W14505   3.459  32.903  12.372
53195W        W14506  12.740  43.796   0.413
53196W        W14507   3.320   7.228   2.747
53197W        W14508  11.853  28.069   3.709
53198W        W14509  36.504  37.567   0.295
53199W        W14510  44.439  41.398  13.415
53200W        W14511  21.528  30.975  11.086
53201W        W14512   1.804  33.028   4.721
53202W        W14513  23.690  39.407  12.870
53203W        W14514  34.454  14.667  14.805
53204W        W14515  28.125   9.811  14.991
53205W        W14516  20.670  35.006   4.248
53206W        W14517   4.925   2.343   3.695
53207W        W14518  36.926   5.295   0.906
53208W        W14519  28.619  32.908  10.440
53209W        W14520  42.948  38.936  12.570
53210W        W14521   9.284   5.706  13.890
53211W        W14522   1.330  11.696   4.726
53212W        W14523  25.049  36.842  13.478
53213W        W14524  14.152  21.229   3.233
53214W        W14525  12.325   8.243  11.509
53215W        W14526  22.188   7.400  11.054
53216W        W14527  12.839  10.365  14.010
53217W        W14528  19.146  31.448   3.274
53218W        W14529  13.113  43.270   4.300
53219W        W14530  28.016  26.634  13.518
53220W        W14531  34.458  34.902  11.604
53221W        W14532  37.575  18.601   4.234
53222W        W14533  38.542  36.567  13.318
53223W        W14534   8.225  31.939   1.728
53224W        W14535  44.499  33.572   4.704
53225W        W14536  34.572  24.550  11.511
53226W        W14537  42.364  13.802  12.892
53227W        W14538  19.565   5.242  10.448
53228W        W14539  23.190   2.738  13.900
53229W        W14540   7.727  29.470  11.890
53230W        W14541  30.439  34.370   1.304
53231W        W14542   1.250  12.695  13.832
53232W        W14543  32.490  25.666   4.682
53233W        W14544   5.759  20.030  10.440
53234W        W14545   9.336  10.320  10.527
53235W        W14546  28.549  29.436  13.320
53236W        W14547  27.495  31.902  12.514
53237W        W14548  30.416  29.575  10.929
53238W        W14549   9.316  39.046  14.356
53239W        W14550  24.085  23.511   2.249
53240W        W14551  38.873  11.631  12.484
53241W        W14552  35.929  11.204  11.519
53242W        W14553   4.263  39.962  11.043
53243W        W14554  16.098  15.809   4.604
53244W        W14555  23.717  35.489   3.217
53245W        W14556  14.304  37.582  12.837
53246W        W14557   2.366  40.983   3.798
53247W        W14558  25.576  13.625  12.347
53248W        W14559  21.031   6.361   1.212
53249W        W14560   5.297  17.674  13.420
53250W        W14561  17.779  11.303  10.963
53251W        W14562  31.452  36.934  14.319
53252W        W14563  13.128  23.090   3.756
53253W        W14564  27.121  38.923  13.035
53254W        W14565  29.164   9.744  10.068
53255W        W14566  44.863   0.294   3.753
53256W        W14567  42.406  21.687   2.236
53257W        W14568  43.445  15.679   1.229
53258W        W14569  38.929  40.798  12.050
53259W        W14570  43.432  35.865  14.002
53260W        W14571  26.963  29.936  11.518
53261W        W14572   6.921  31.091  14.879
53262W        W14573  33.035   7.795  14.814
53263W        W14574  34.496  17.565   1.764
53264W        W14575   2.322  19.148  12.963
53265W        W14576  19.254  17.202   1.384
53266W        W14577  15.760  29.483   1.701
53267W        W14578  14.159  26.098  13.892
53268W        W14579   0.865  13.180  12.081
53269W        W14580  35.990  27.017   4.659
53270W        W14581  37.980  32.970  11.033
53271W        W14582  43.313  42.327  12.987
53272W        W14583  22.042  31.089  12.879
53273W        W14584  30.000   3.294  10.079
53274W        W14585  28.560  34.412   0.283
53275W        W14586  44.478  26.615   1.338
53276W        W14587   3.406  14.597   3.309
53277W        W14588  34.424   1.446  14.451
53278W        W14589  25.659  32.606  13.483
53279W        W14590  11.203  24.067   1.713
53280W        W14591  22.075  32.071   0.863
53281W        W14592  11.164  21.749  10.930
53282W        W14593  16.726  37.562  11.033
53283W        W14594  37.447  24.497  11.105
53284W        W14595   8.171  23.672   3.794
53285W        W14596  10.766  33.408  14.016
53286W        W14597  40.459  28.163   4.183
53287W        W14598   1.397   9.153   1.797
53288W        W14599  11.347   0.838  11.397
53289W        W14600  27.680   4.310   2.392
53290W        W14601   2.748   7.353   1.707
53291W        W14602  24.555  37.423  11.120
53292W        W14603  37.875  27.946   4.165
53293W        W14604  27.447  43.413  12.526
53294W        W14605   9.287  41.347   4.767
53295W        W14606  37.017   7.409   3.212
53296W        W14607  34.423   8.201   0.952
53297W        W14608   2.768  35.460   1.391
53298W        W14609  28.651  23.606  12.394
53299W        W14610  42.335  22.171  14.442
53300W        W14611  20.173  31.071   3.322
53301W        W14612  23.022  22.576  13.807
53302W        W14613  42.461  21.135  11.525
53303W        W14614  38.511   1.435  12.504
53304W        W14615  33.434  40.990  11.544
53305W        W14616  14.095   1.246  12.014
53306W        W14617  40.426   3.247  12.349
53307W        W14618   0.853  16.652  12.560
53308W        W14619   8.213  37.445  13.376
53309W        W14620  41.490  28.110   4.646
53310W        W14621   3.731   0.307  13.402
53311W        W14622  16.627   4.333  14.776
53312W        W14623  31.002  38.390   2.681
53313W        W14624  14.749  44.504   4.713
53314W        W14625   2.771  44.971   2.700
53315W        W14626  23.595  25.031  14.380
53316W        W14627  44.812  36.391  13.455
53317W        W14628  11.199  33.387  14.416
53318W        W14629   9.338  39.964   4.355
53319W        W14630  27.516  28.608   4.142
53320W        W14631  23.090  33.498  11.037
53321W        W14632  30.544  43.783  13.489
53322W        W14633  30.445  15.099   1.222
53323W        W14634  29.512   0.476  10.591
53324W        W14635  11.372  13.245  13.312
53325W        W14636  18.606   4.341   3.845
53326W        W14637   1.344  19.232  12.396
53327W        W14638   6.786  13.768  11.458
53328W        W14639   0.821  38.381   4.745
53329W        W14640  26.152  31.022  10.156
53330W        W14641  22.743  28.035  14.399
53331W        W14642  20.551  24.032   4.256
53332W        W14643  25.127  35.526   4.272
53333W        W14644  13.302  13.217  13.478
53334W        W14645  41.788  36.979  14.009
53335W        W14646  31.590  37.874  10.546
53336W        W14647   1.938  16.708  12.983
53337W        W14648  26.465  38.482  11.104
53338W        W14649  44.968   0.281   0.362
53339W        W14650   4.726  34.433   5.156
53340W        W14651  38.067  11.793  14.293
53341W        W14652  22.063   9.756   1.410
53342W        W14653  29.604  40.344  12.529
53343W        W14654  41.396  28.566  10.983
53344W        W14655  36.976   2.929  13.454
53345W        W14656  33.904  44.396   0.784
53346W        W14657  20.760  21.539   2.802
53347W        W14658  28.618  36.985  12.469
53348W        W14659  22.667  28.604   0.823
53349W        W14660  14.104  38.072   3.189
53350W        W14661  29.528  35.024  14.029
53351W        W14662  27.572  27.568  12.451
53352W        W14663  41.530  25.701  11.509
53353W        W14664  13.255  44.286   3.717
53354W        W14665  27.952  37.892   4.307
53355W        W14666   9.798  27.060  11.402
53356W        W14667   8.807  24.672   3.193
53357W        W14668  24.005  39.870   3.832
53358W        W14669  44.341   4.254   5.281
53359W        W14670  13.149  29.154   4.661
53360W        W14671  26.113  23.204  14.314
53361W        W14672   9.302  18.263  14.285
53362W        W14673   0.429  23.155   4.710
53363W        W14674  34.511  35.558  13.906
53364W        W14675  17.243   2.729   2.243
53365W        W14676  19.542  16.182   4.220
53366W        W14677   6.261  10.145  12.548
53367W        W14678  42.285  13.805   1.886
53368W        W14679  31.983  37.981  12.028
53369W        W14680  40.390  24.151   5.181
53370W        W14681  26.557  21.707  11.399
53371W        W14682  22.516  31.443   4.758
53372W        W14683  41.317   9.294  14.395
53373W        W14684   5.789  23.131  14.825
53374W        W14685  13.754  37.481   1.400
53375W        W14686  35.550   0.934  11.939
53376W        W14687  31.597  37.568   3.757
53377W        W14688   5.208  14.251   2.288
53378W        W14689   4.839  33.428   1.324
53379W        W14690  28.450  22.087  11.901
53380W        W14691  14.159  42.791   3.752
53381W        W14692   3.347  11.646   0.734
53382W        W14693  40.321  24.660   4.330
53383W        W14694  36.988  22.119   3.308
53384W        W14695  33.406  39.506  14.458
53385W        W14696   8.246  25.113   3.161
53386W        W14697  30.081  17.180  11.524
53387W        W14698  42.797   8.772   4.287
53388W        W14699   6.201  18.712   0.347
53389W        W14700  39.331  11.737  10.996
53390W        W14701  30.910  35.399   3.730
53391W        W14702  15.318   2.411  14.508
53392W        W14703  20.554  17.264  13.891
53393W        W14704  36.053  24.634  12.936
53394W        W14705  27.952  38.455   3.273
53395W        W14706  37.081  20.182   4.836
53396W        W14707  29.525   2.291  10.945
53397W        W14708  11.781  16.757  13.414
53398W        W14709  23.695   8.845   2.847
53399W        W14710   5.407  32.535  11.422
53400W        W14711  11.779  36.841   1.807
53401W        W14712  18.589  10.860  11.572
53402W        W14713  44.378   9.760  14.402
53403W        W14714  34.422  31.902   4.181
53404W        W14715  23.715  35.008   0.884
53405W        W14716  34.014  35.955   4.779
53406W        W14717   3.851  30.556   4.220
53407W        W14718  15.610  39.446   4.314
53408W        W14719  37.835  43.953   0.398
53409W        W14720  28.175  37.548  10.961
53410W        W14721  42.362  16.111   4.634
53411W        W14722   7.350  15.805  14.297
53412W        W14723  39.035  14.141   0.402
53413W        W14724  40.368   3.403   2.395
53414W        W14725  37.394   3.863   1.715
53415W        W14726  28.669  13.211  10.509
53416W        W14727   7.188  22.523   2.757
53417W        W14728  12.803  38.557   0.401
53418W        W14729  21.145   8.748  13.956
53419W        W14730  18.660   8.811   1.782
53420W        W14731  11.796  40.482  13.919
53421W        W14732  29.158  33.050   4.800
53422W        W14733  33.936  13.786  11.970
53423W        W14734  12.181   3.942  11.972
53424W        W14735  42.822   3.359   2.752
53425W        W14736  26.997  41.006   1.905
53426W        W14737  27.131   0.283  14.404
53427W        W14738   7.244   1.481  10.939
53428W        W14739   8.727  13.825  10.637
53429W        W14740  37.430  20.750   2.817
53430W        W14741  44.877  43.929   0.761
53431W        W14742  38.974  43.302   4.258
53432W        W14743  44.891  31.541  10.466
53433W        W14744  33.502  44.966  13.504
53434W        W14745  30.036  18.548   1.750
53435W        W14746  39.373  33.510   3.704
53436W        W14747   4.903  14.692  10.952
53437W        W14748  38.552  15.768  14.324
53438W        W14749  16.628   7.773  13.331
53439W        W14750  17.723   6.791   1.905
53440W        W14751  22.227   8.330   1.720
53441W        W14752  44.930  27.005   1.401
53442W        W14753  21.673  31.953  14.508
53443W        W14754   4.255   5.690   0.395
53444W        W14755   4.808  35.949   1.410
53445W        W14756  39.316  29.484   4.299
53446W        W14757  14.311  14.129  12.890
53447W        W14758  22.538  25.165   1.267
53448W        W14759   5.381  17.165  13.442
53449W        W14760  17.796  25.030   4.216
53450W        W14761  36.387  40.923   1.257
53451W        W14762   6.347  15.600   2.708
53452W        W14763  18.170  14.834  12.928
53453W        W14764   5.851  31.958  13.483
53454W        W14765  41.432   1.358   0.348
53455W        W14766  11.357  40.873  10.977
53456W        W14767   9.702   9.234   3.207
53457W        W14768  35.461  32.977  13.311
53458W        W14769  30.490  28.482  13.377
53459W        W14770  29.163  19.572   0.273
53460W        W14771  13.687  40.521   4.352
53461W        W14772   7.350   2.800   3.644
53462W        W14773  18.722  27.952   0.261
53463W        W14774  22.553  13.636   1.319
53464W        W14775   4.393  39.922  13.421
53465W        W14776  26.015  17.769  13.504
53466W        W14777  38.881  35.985  11.406
53467W        W14778  13.232  16.110  13.841
53468W        W14779  34.535  10.177  12.862
53469W        W14780  27.092  12.681  12.373
53470W        W14781   0.825  34.116   4.753
53471W        W14782   0.277  23.163  14.495
53472W        W14783  25.485  17.613  10.460
53473W        W14784  15.151  18.272  14.462
53474W        W14785  26.660  20.631   1.253
53475W        W14786   1.950  41.361  14.897
53476W        W14787  12.329  25.151  10.995
53477W        W14788  29.640  25.042  14.302
53478W        W14789  20.599  15.231  14.853
53479W        W14790   2.310  32.426  11.910
53480W        W14791   4.763  25.120  12.065
53481W        W14792  37.358  44.283   4.269
53482W        W14793  16.092  35.357  11.074
53483W        W14794  13.324  29.122  10.537
53484W        W14795   3.822  39.036  14.028
53485W        W14796   0.429   3.806  12.492
53486W        W14797  29.121   9.802   3.771
53487W        W14798   5.346  12.178   4.598
53488W        W14799  38.829  26.128   0.951
53489W        W14800  14.127   2.300  10.976
53490W        W14801  40.010   5.860  11.857
53491W        W14802  17.567  31.500  11.027
53492W        W14803  31.112  34.558  13.966
53493W        W14804  33.913  37.944   1.345
53494W        W14805   4.713  24.683  11.422
53495W        W14806  17.666  23.194  11.005
53496W        W14807   3.370  25.535   0.900
53497W        W14808  42.317   4.441  12.879
53498W        W14809  38.546   6.358  11.535
53499W        W14810  18.182  12.763   0.277
53500W        W14811  43.297   9.370   4.821
53501W        W14812  15.280  19.685  11.919
53502W        W14813  36.449  13.226   1.928
53503W        W14814  43.409  34.951  14.447
53504W        W14815  14.263  34.386  13.497
53505W        W14816  43.912  12.666  13.910
53506W        W14817   5.835   0.886  12.027
53507W        W14818   4.269  27.605   3.790
53508W        W14819  23.052  41.292  14.903
53509W        W14820  19.552  22.012   1.780
53510W        W14821  17.104   8.313   2.300
53511W        W14822  42.911  37.579   0.942
53512W        W14823  32.036  43.443  11.459
53513W        W14824  17.205  38.939   3.680
53514W        W14825   1.474   9.254   1.291
53515W        W14826  21.656  32.625  13.063
53516W        W14827   6.874  18.556  13.372
53517W        W14828  40.884  28.441   3.854
53518W        W14829   9.321   1.893  14.990
53519W        W14830  35.045  26.009  10.923
53520W        W14831   6.358   4.398   1.842
53521W        W14832  27.143  22.703  14.375
53522W        W14833  34.041  44.816  10.893
53523W        W14834  12.803  25.529   3.749
53524W        W14835   5.216   7.851   1.328
53525W        W14836   7.227  31.969   0.821
53526W        W14837  10.218  19.187   0.784
53527W        W14838  11.747   4.398   3.221
53528W        W14839   1.445  42.795   1.403
53529W        W14840  17.164  42.307   3.666
53530W        W14841  36.489  11.365   4.283
53531W        W14842  43.284  16.130  12.996
53532W        W14843  25.677  35.932   4.611
53533W        W14844  40.497   8.397   4.302
53534W        W14845  32.593   0.905  13.962
53535W        W14846  15.756  42.449  12.840
53536W        W14847  23.713  43.006   3.262
53537W        W14848  19.579  28.962  14.000
53538W        W14849  42.915  42.856   4.275
53539W        W14850  35.453  37.950  12.464
53540W        W14851  41.039  15.811   4.623
53541W        W14852  23.131  38.063   1.847
53542W        W14853  22.631  34.502  11.084
53543W        W14854  18.698  40.337   0.753
53544W        W14855  44.769  38.475  12.884
53545W        W14856   9.777  40.488   1.237
53546W        W14857  28.137   3.448  14.012
53547W        W14858  35.993  10.272   2.367
53548W        W14859  26.050  22.526   2.724
53549W        W14860  16.812  41.533   1.289
53550W        W14861  31.103  39.040   4.199
53551W        W14862  31.099  12.148  13.049
53552W        W14863  23.536  20.261  12.358
53553W        W14864  36.929  41.853  10.506
53554W        W14865  19.562   1.854   3.804
53555W        W14866  18.099  17.270   1.246
53556W        W14867  38.011  29.067  11.053
53557W        W14868  17.702  18.679   1.724
53558W        W14869   3.863  16.108   5.766
53559W        W14870  23.621  40.022   1.799
53560W        W14871  29.925  11.700   4.206
53561W        W14872  44.776  20.568   3.821
53562W        W14873  42.945   7.730   1.269
53563W        W14874  21.662  24.202   3.716
53564W        W14875  12.185  32.921  12.012
53565W        W14876  20.176   0.438  12.087
53566W        W14877  18.215  14.727   2.685
53567W        W14878  18.671  32.508   1.859
53568W        W14879  35.532   9.179  12.481
53569W        W14880  12.168  40.511  10.036
53570W        W14881   4.353  40.450  14.992
53571W        W14882  31.096  26.146   3.640
53572W        W14883   1.363  32.016  12.032
53573W        W14884   1.426  36.031   4.117
53574W        W14885  41.955  40.520  11.945
53575W        W14886  32.597  11.274  10.963
53576W        W14887  43.477  12.854   4.715
53577W        W14888  12.656  18.782   0.298
53578W        W14889  40.390  29.038   0.915
53579W        W14890  36.541  27.526  14.393
53580W        W14891   9.160  41.499  10.408
53581W        W14892  32.099  11.343  13.922
53582W        W14893  28.994  22.121  14.378
53583W        W14894  32.989   2.454  11.544
53584W        W14895   3.342  15.769   5.182
53585W        W14896  29.969  16.679   3.843
53586W        W14897  14.232  35.951  12.395
53587W        W14898  20.610  34.527   3.788
53588W        W14899  29.094  27.562  13.800
53589W        W14900  28.013  12.844   1.275
53590W        W14901  24.615  42.484   3.331
53591W        W14902   3.248  19.647  10.461
53592W        W14903   7.873  32.973   0.272
53593W        W14904  26.653  35.969   4.649
53594W        W14905  41.929  39.937  11.505
53595W        W14906  13.274  14.700  13.987
53596W        W14907  29.966  44.865   0.947
53597W        W14908  19.703   8.234   1.829
53598W        W14909  20.241  37.062  14.023
53599W        W14910  38.407  25.120  11.502
53600W        W14911  34.561  30.032   3.332
53601W        W14912  42.434   9.694  14.827
53602W        W14913   2.840   8.170  13.522
53603W        W14914  31.131  12.235   1.773
53604W        W14915  41.916  34.456   2.736
53605W        W14916  21.181   6.678  14.363
53606W        W14917  20.678  43.284  12.865
53607W        W14918  29.166  27.177  13.328
53608W        W14919  33.420   0.930   0.394
53609W        W14920  24.146  38.523  14.464
53610W        W14921  16.102   6.727  12.496
53611W        W14922  37.506  36.433   3.707
53612W        W14923  39.878  36.378  10.513
53613W        W14924  19.185  30.960   4.601
53614W        W14925   0.903  39.421  12.020
53615W        W14926  28.951   6.761  11.035
53616W        W14927  24.034  12.187  11.120
53617W        W14928  39.467  13.834   0.936
53618W        W14929  34.085   8.733   0.290
53619W        W14930  22.605   1.745  12.964
53620W        W14931  10.293  34.559  14.913
53621W        W14932  25.680  24.029  11.390
53622W        W14933  27.624  32.433  10.459
53623W        W14934  16.276   6.804  12.057
53624W        W14935  11.353  23.636   2.191
53625W        W14936  37.052  23.663   3.384
53626W        W14937  32.576  40.510   1.245
53627W        W14938   5.810  21.242   2.665
53628W        W14939  38.516  21.108  10.097
53629W        W14940   0.811  39.990   0.444
53630W        W14941  41.293  36.882   4.188
53631W        W14942  42.304  44.353  11.485
53632W        W14943   5.408   7.806   1.771
53633W        W14944  21.533  31.596   1.426
53634W        W14945  31.566  29.078   1.791
53635W        W14946   1.319  27.534   4.122
53636W        W14947  27.489  28.517  14.790
53637W        W14948   0.299  39.907  13.928
53638W        W14949  24.503  20.232  11.424
53639W        W14950  37.440   9.679   4.311
53640W        W14951  22.531  17.159   0.913
53641W        W14952  22.171  18.269   2.401
53642W        W14953   9.325  17.612   3.348
53643W        W14954   0.851  35.509  10.635
53644W        W14955  41.521   5.277  11.591
53645W        W14956  12.618   5.918  13.008
53646W        W14957  24.034  28.485  11.071
53647W        W14958  44.911  37.843   4.781
53648W        W14959   4.265  44.884   1.723
53649W        W14960  23.141  39.952  14.508
53650W        W14961  14.203  32.446  11.537
53651W        W14962  44.765  43.512   2.828
53652W        W14963  22.018  30.600   1.907
53653W        W14964  37.834  24.513  13.545
53654W        W14965   0.982  13.201   4.186
53655W        W14966  25.537  39.323   1.424
53656W        W14967  36.068  25.115   2.410
53657W        W14968  37.380   9.689   0.400
53658W        W14969  13.348  17.088   1.932
53659W        W14970   4.708   0.301   4.191
53660W        W14971  33.612  17.109  11.088
53661W        W14972  44.432  24.601   3.859
53662W        W14973  20.531  17.599   1.766
53663W        W14974  21.044  19.088  10.594
53664W        W14975  29.598   3.277   4.734
53665W        W14976  25.054  43.408   5.272
53666W        W14977   9.204  37.893  11.089
53667W        W14978  38.502  42.394  14.767
53668W        W14979  17.581   4.700  12.899
53669W        W14980  29.660   9.332   2.777
53670W        W14981  28.661  13.638  14.845
53671W        W14982  31.149  14.301   4.284
53672W        W14983   5.436  38.478  11.506
53673W        W14984  42.309  33.112   0.733
53674W        W14985  44.824  36.849   4.135
53675W        W14986   2.766  40.339  13.501
53676W        W14987   3.888  28.545  13.314
53677W        W14988  32.990  14.184   1.217
53678W        W14989   6.713  33.970   1.343
53679W        W14990   6.390  27.963   1.896
53680W        W14991  36.971  19.700   4.667
53681W        W14992  12.855   9.647  14.799
53682W        W14993  10.159  42.808  10.639
53683W        W14994   6.833  29.943  13.456
53684W        W14995  32.573   2.346   2.814
53685W        W14996  17.151  33.973   3.845
53686W        W14997  42.869  31.469   0.964
53687W        W14998  13.127  41.528   4.713
53688W        W14999   3.951  41.364   4.813
53689W        W15000   2.960  17.073  11.045
53690W        W15001  25.003  16.235   1.828
53691W        W15002  37.947  26.029   1.838
53692W        W15003  36.484  31.494  12.979
53693W        W15004  29.563  25.469   4.810
53694W        W15005  21.612  37.474   1.730
53695W        W15006   9.691  42.970  13.474
53696W        W15007  33.607  38.984   1.789
53697W        W15008  42.335   1.356   0.909
53698W        W15009   5.398  15.778   4.756
53699W        W15010  18.786  17.668  12.050
53700W        W15011  10.660  20.723   1.861
53701W        W15012  30.989  38.831  13.831
53702W        W15013  25.481  37.946  13.472
53703W        W15014  32.978  17.762  14.459
53704W        W15015  43.925  15.242  12.847
53705W        W15016  44.374  22.508   5.198
53706W        W15017  21.179  14.211   3.706
53707W        W15018  32.901  22.561   3.848
53708W        W15019  28.580  17.075  13.424
53709W        W15020  24.621  22.171  10.612
53710W        W15021  16.708  35.533   1.329
53711W        W15022  33.937   2.957   2.746
53712W        W15023  19.641   0.437  13.056
53713W        W15024  32.542  20.650   1.923
53714W        W15025  34.887  35.947  11.889
53715W        W15026  44.299   5.879   1.249
53716W        W15027  39.403  38.060  13.819
53717W        W15028  42.453   3.769  12.381
53718W        W15029  41.899  12.200   2.253
53719W        W15030  23.706  34.579   4.754
53720W        W15031  12.282  24.680  10.428
53721W        W15032  31.423  20.263  12.539
53722W        W15033  40.521  21.515   0.951
53723W        W15034  11.214   7.860   0.420
53724W        W15035  42.419  31.101  14.811
53725W        W15036  20.088  27.986   2.356
53726W        W15037  18.781  13.722   2.315
53727W        W15038  34.608  33.500  11.948
53728W        W15039  24.548  27.614  11.922
53729W        W15040  37.358  23.087   1.856
53730W        W15041  43.857  16.667  10.525
53731W        W15042   3.820  15.239   3.740
53732W        W15043  31.048  29.933   0.900
53733W        W15044  28.542  10.778   3.254
53734W        W15045  35.901  28.506   2.698
53735W        W15046  44.404  32.955   2.288
53736W        W15047  44.960  39.545   2.362
53737W        W15048   9.711  42.426  11.478
53738W        W15049  16.116  37.372   1.384
53739W        W15050  35.945  27.008  14.885
53740W        W15051   3.854  28.122   3.263
53741W        W15052  18.580  25.044  10.984
53742W        W15053  14.770  16.690   0.429
53743W        W15054  21.523  21.142  13.402
53744W        W15055  18.120   6.276  14.440
53745W        W15056  26.044  41.842  13.999
53746W        W15057   4.710  27.054   5.312
53747W        W15058  20.101  42.383   1.704
53748W        W15059  43.856  27.090   4.316
53749W        W15060  17.170  13.626   0.958
53750W        W15061   9.371  28.971  14.425
53751W        W15062  43.505  33.029   0.912
53752W        W15063  23.177  20.043   1.340
53753W        W15064  27.566  20.074   3.758
53754W        W15065  36.082  39.365   3.738
53755W        W15066  13.125   4.825   3.304
53756W        W15067  32.578  15.623   3.200
53757W        W15068  41.910   5.310  13.995
53758W        W15069  28.680  21.600   3.850
53759W        W15070  23.670  42.421  14.871
53760W        W15071  10.655  22.115  10.943
53761W        W15072  38.363  36.951  14.758
53762W        W15073   5.738  31.600  14.894
53763W        W15074  28.152  39.944   2.255
53764W        W15075  27.583   9.285  13.028
53765W        W15076  22.229  23.063  14.781
53766W        W15077  38.982   8.203  13.540
53767W        W15078   4.236  24.197   3.161
53768W        W15079  27.131  32.105   3.702
53769W        W15080  38.927  15.276   2.783
53770W        W15081   4.764  11.656   4.114
53771W        W15082  19.561   5.762   2.358
53772W        W15083  39.967  11.661  13.482
53773W        W15084   4.831  15.805  13.543
53774W        W15085  44.497  38.938   4.661
53775W        W15086  21.722  43.871  10.457
53776W        W15087  15.288  13.245   1.935
53777W        W15088  17.611  33.964   4.812
53778W        W15089  44.368   6.340   0.303
53779W        W15090  14.694   5.763   3.850
53780W        W15091   9.344  33.608  13.051
53781W        W15092  42.338  42.991  13.029
53782W        W15093  10.655  16.153  14.968
53783W        W15094  34.942  24.504   4.332
53784W        W15095  17.769  10.706  14.774
53785W        W15096  16.274   3.928   1.724
53786W        W15097  28.581  10.179  14.934
53787W        W15098  42.030   9.790  13.366
53788W        W15099  13.613   6.820  12.496
53789W        W15100   3.930  12.224  13.022
53790W        W15101  43.275  30.623  10.424
53791W        W15102   4.821  35.546  12.539
53792W        W15103  24.122  24.063  15.000
53793W        W15104  34.592  36.878   4.806
53794W        W15105   9.393   0.448  13.831
53795W        W15106   2.857  10.315   3.303
53796W        W15107  22.133  16.719  13.974
53797W        W15108  36.470  28.450  10.589
53798W        W15109  44.329  10.657   0.290
53799W        W15110  42.826   1.835  14.959
53800W        W15111  37.988  33.875  10.070
53801W        W15112  39.545  20.162   4.777
53802W        W15113  30.160  32.495  14.317
53803W        W15114  43.314  24.055  11.605
53804W        W15115  36.471  19.171   1.338
53805W        W15116  22.692  22.561  12.980
53806W        W15117   1.905   0.758  12.036
53807W        W15118  40.957   8.350  11.925
53808W        W15119  17.635  19.062   4.132
53809W        W15120  35.591  40.993   4.197
53810W        W15121  34.560  25.553  10.926
53811W        W15122  34.407   0.851  12.519
53812W        W15123  13.209  34.585   3.665
53813W        W15124  43.403  42.462   2.881
53814W        W15125  15.797  13.165  12.501
53815W        W15126  22.630  33.413   4.626
53816W        W15127  13.796  33.954   4.718
53817W        W15128  31.638  23.692   4.173
53818W        W15129   9.248   7.894  14.791
53819W        W15130  16.751  25.622   1.904
53820W        W15131  41.402   8.375  10.987
53821W        W15132  34.386  14.228  14.511
53822W        W15133  34.400   5.317   2.207
53823W        W15134  43.364  32.394   0.746
53824W        W15135  34.043  17.274   3.272
53825W        W15136  27.116  32.630   9.620
53826W        W15137  43.297  23.523   4.824
53827W        W15138   6.243   4.759   2.284
53828W        W15139  13.130   8.872  14.988
53829W        W15140  16.199  11.347  12.862
53830W        W15141  12.156  23.019   0.441
53831W        W15142  23.998   1.931   2.247
53832W        W15143  33.401   7.867   4.776
53833W        W15144  11.798   5.764   2.862
53834W        W15145  30.469  18.763   4.795
53835W        W15146  30.993   2.395   0.914
53836W        W15147  13.137   6.812  12.448
53837W        W15148  25.666  29.524   1.370
53838W        W15149   6.427  11.294  10.539
53839W        W15150   4.901   9.308   3.210
53840W        W15151   0.975  26.582   4.644
53841W        W15152  24.666  39.360  10.603
53842W        W15153  19.070  34.384   4.121
53843W        W15154  13.800  20.161   1.257
53844W        W15155  16.131   9.214  13.935
53845W        W15156  44.985  40.023  14.843
53846W        W15157  23.031  26.199  10.587
53847W        W15158  34.417   9.658   4.756
53848W        W15159   3.881  44.904   1.762
53849W        W15160  20.244  10.254  13.052
53850W        W15161  42.355  36.494   3.732
53851W        W15162  41.367  42.013   2.303
53852W        W15163   3.711  17.207  11.900
53853W        W15164  21.560  29.933   3.275
53854W        W15165  20.235  43.845   2.697
53855W        W15166   1.873  26.991   1.390
53856W        W15167   2.804  42.788   0.252
53857W        W15168  15.728   3.914   0.322
53858W        W15169  20.034  31.085  14.511
53859W        W15170  16.089  30.140  14.889
53860W        W15171  32.022  29.981   4.219
53861W        W15172  15.716   5.384   3.198
53862W        W15173  27.165  17.677  12.989
53863W        W15174   0.288  35.058  14.908
53864W        W15175  25.057   9.302   4.703
53865W        W15176  25.130  17.776  13.533
53866W        W15177  28.959  11.317  11.510
53867W        W15178  21.562  31.594  11.892
53868W        W15179  24.033  12.215  10.538
53869W        W15180  37.896  15.795   0.328
53870W        W15181  29.083   1.320   2.676
53871W        W15182  39.537  38.354   4.630
53872W        W15183  41.827   9.722  14.506
53873W        W15184  34.047  32.526   3.768
53874W        W15185  34.560  28.985   3.303
53875W        W15186  39.874  13.658  13.920
53876W        W15187   6.760  22.594   4.289
53877W        W15188  38.488  42.882   3.282
53878W        W15189   1.933  21.609  12.015
53879W        W15190  39.910   2.933  12.467
53880W        W15191  27.031   6.414   5.603
53881W        W15192  42.839  28.093  14.322
53882W        W15193  10.685   0.824   1.235
53883W        W15194  37.503   8.783   0.774
53884W        W15195   2.911  31.408  13.920
53885W        W15196   5.262  14.151   4.179
53886W        W15197  44.412  31.148   1.832
53887W        W15198  31.418  10.225  13.810
53888W        W15199  20.181  44.004   1.846
53889W        W15200   2.771  32.602   3.358
53890W        W15201   4.821   6.387  11.542
53891W        W15202  31.092  34.990  11.373
53892W        W15203  36.978  27.504   3.209
53893W        W15204  36.527  34.087  10.022
53894W        W15205  37.414  24.022   0.361
53895W        W15206   9.159   4.783   4.771
53896W        W15207  22.705  40.343   5.275
53897W        W15208  35.042  28.020  14.398
53898W        W15209  22.189  35.577  12.892
53899W        W15210  19.177  44.800   1.296
53900W        W15211  25.184   4.430   4.266
53901W        W15212  31.108  20.736   1.392
53902W        W15213  40.977  20.557  13.381
53903W        W15214  18.601  44.962  12.887
53904W        W15215  33.897   3.244  13.879
53905W        W15216  17.102   6.286   1.723
53906W        W15217  31.405  39.829   2.283
53907W        W15218  10.687  21.561  12.845
53908W        W15219  18.167  11.135   3.386
53909W        W15220  36.392  12.759  13.895
53910W        W15221  20.085   9.882   0.473
53911W        W15222  21.187   9.335   0.329
53912W        W15223  43.933  41.995  11.416
53913W        W15224  13.338   5.846  14.433
53914W        W15225  19.043  28.049  14.285
53915W        W15226  44.761  28.036   3.284
53916W        W15227  31.574  24.119   3.681
53917W        W15228  18.731   7.811   0.459
53918W        W15229   9.726  30.622  10.494
53919W        W15230  11.737  36.505   2.253
53920W        W15231  36.501  38.910   1.418
53921W        W15232  31.456  27.472   0.951
53922W        W15233   6.810   0.904  14.466
53923W        W15234  44.309  25.108  11.576
53924W        W15235   3.736  33.593  11.027
53925W        W15236  17.774  14.284   2.675
53926W        W15237  36.864  27.187  14.783
53927W        W15238   1.863  14.138   4.116
53928W        W15239  40.879  39.467  12.497
53929W        W15240  27.057  20.760   2.285
53930W        W15241   9.175  43.405   4.275
53931W        W15242  26.678   3.278   1.432
53932W        W15243  23.229  44.859  13.842
53933W        W15244   5.264  37.485  14.349
53934W        W15245  38.394  19.613  12.557
53935W        W15246  32.117  11.281  14.784
53936W        W15247   4.890  20.573   0.951
53937W        W15248  15.202  38.005   4.307
53938W        W15249  24.487  43.885  12.932
53939W        W15250   6.902  25.992  12.062
53940W        W15251  23.095  13.306  10.566
53941W        W15252   4.921  41.992  12.971
53942W        W15253  21.021   9.230  11.065
53943W        W15254  30.102  41.302  12.528
53944W        W15255  11.658  30.112  14.474
53945W        W15256  15.084   6.729   4.300
53946W        W15257  36.469   7.416   4.311
53947W        W15258  19.215  11.238  13.518
53948W        W15259  17.065  12.704  10.917
53949W        W15260  24.025   3.363  12.509
53950W        W15261  35.877   8.723  14.995
53951W        W15262  15.280   1.956   2.790
53952W        W15263  32.900  36.392  11.898
53953W        W15264  30.089  30.557   4.607
53954W        W15265  16.220  30.487   0.393
53955W        W15266  25.685  30.470  13.510
53956W        W15267  41.001  12.655   4.173
53957W        W15268  37.474  31.049   0.407
53958W        W15269  11.174  12.170   0.361
53959W        W15270  30.457  35.484   0.413
53960W        W15271   3.379  19.704   5.215
53961W        W15272   0.308  31.943  13.527
53962W        W15273   6.211   7.678  11.018
53963W        W15274   0.400  44.783  11.973
53964W        W15275   7.366  22.694  14.881
53965W        W15276   9.377   7.179  11.889
53966W        W15277   6.867  19.752  11.409
53967W        W15278  17.118  29.144  13.053
53968W        W15279  22.020  14.608   3.702
53969W        W15280  19.680   0.444  11.957
53970W        W15281  39.405  44.996   1.902
53971W        W15282  24.683  14.801  14.372
53972W        W15283  20.258   5.839   3.862
53973W        W15284  20.752  29.060   2.246
53974W        W15285   5.813  31.963   4.171
53975W        W15286  22.062   7.693  13.382
53976W        W15287  16.636  15.241  12.493
53977W        W15288  41.379  21.679  12.998
53978W        W15289  11.709  42.984   0.879
53979W        W15290  16.202  21.208   4.251
53980W        W15291  31.447  22.104   2.844
53981W        W15292  44.423  41.986   2.753
53982W        W15293  22.727  15.286  12.883
53983W        W15294  36.380  24.490   4.728
53984W        W15295   6.682  36.919   0.270
53985W        W15296  19.159  13.211  14.890
53986W        W15297  41.838  12.760   2.836
53987W        W15298  19.578  26.579  13.843
53988W        W15299  10.710  15.273   1.931
53989W        W15300  14.755  28.999   0.443
53990W        W15301   4.405  10.834  13.542
53991W        W15302   5.897   6.687  13.345
53992W        W15303  29.579  42.881   1.776
53993W        W15304   8.194  38.951   1.722
53994W        W15305   7.322  39.511   4.119
53995W        W15306  10.245  39.033  14.451
53996W        W15307  16.094   9.237   0.842
53997W        W15308   4.759  26.473  11.855
53998W        W15309  31.514   6.843  11.041
53999W        W15310  36.884  26.684  13.013
54000W        W15311  41.523   7.816   2.803
54001W        W15312  35.518  39.520   1.803
54002W        W15313  21.554  20.718  11.058
54003W        W15314  40.815   7.746  14.376
54004W        W15315   2.443  14.680  14.816
54005W        W15316   3.257   0.966  13.432
54006W        W15317  15.812  15.816  13.061
54007W        W15318  23.735  28.563  10.004
54008W        W15319  31.143  44.360   4.165
54009W        W15320  30.041  44.365   0.255
54010W        W15321  27.596  43.316  10.632
54011W        W15322  40.318  28.146   1.300
54012W        W15323   0.355  30.477  11.585
54013W        W15324  43.772   3.852  13.519
54014W        W15325  42.526  22.549   0.361
54015W        W15326  27.614  25.698   0.805
54016W        W15327  17.747  15.662  14.790
54017W        W15328   8.212  44.798  11.897
54018W        W15329  15.304   5.710  10.083
54019W        W15330  37.832  24.518   4.325
54020W        W15331  31.557  27.130  13.325
54021W        W15332  42.422  27.107   4.615
54022W        W15333   4.774  23.988   2.375
54023W        W15334  22.185  16.792  14.442
54024W        W15335   8.805  29.656  11.453
54025W        W15336  18.089  32.536  10.428
54026W        W15337  37.934  36.897  11.013
54027W        W15338  17.197  34.613  12.062
54028W        W15339  13.612  11.813   1.797
54029W        W15340  35.872  18.065   4.623
54030W        W15341  29.042  11.650   4.836
54031W        W15342  17.695   5.785  11.587
54032W        W15343  44.963   9.880  13.440
54033W        W15344  26.518  15.305   3.637
54034W        W15345  18.560  13.820  14.330
54035W        W15346   6.341  16.700   1.883
54036W        W15347  40.855  27.134  13.813
54037W        W15348  17.614  13.282   2.266
54038W        W15349  21.155  25.704   1.901
54039W        W15350  24.049  23.717   2.667
54040W        W15351  16.728   9.324  11.085
54041W        W15352   5.856  38.997   3.379
54042W        W15353  26.619  11.337   2.828
54043W        W15354  41.007  16.145  10.916
54044W        W15355  15.677   6.275  11.114
54045W        W15356  40.373  20.559  10.550
54046W        W15357   0.476  16.738   1.276
54047W        W15358  31.030   4.851   2.357
54048W        W15359  31.486  11.234   0.833
54049W        W15360  19.668   9.787   3.861
54050W        W15361  20.067  41.385  11.053
54051W        W15362   9.840  13.616  14.791
54052W        W15363  29.981  37.876   4.195
54053W        W15364  10.346   1.418   4.643
54054W        W15365   2.741  23.713   4.142
54055W        W15366  24.633  16.718   1.386
54056W        W15367  16.247  20.050   1.817
54057W        W15368   0.896  14.324   3.167
54058W        W15369  26.964  28.187  13.339
54059W        W15370  26.189  12.341   1.856
54060W        W15371  14.658  27.142   0.800
54061W        W15372  11.143  33.445   3.857
54062W        W15373  28.494  12.835   1.238
54063W        W15374  16.284  28.144   4.823
54064W        W15375  14.801  18.663   0.441
54065W        W15376  32.113  32.498  14.981
54066W        W15377   7.273  31.088  12.555
54067W        W15378  39.053  11.265   0.908
54068W        W15379  39.357  19.244   1.317
54069W        W15380   5.744  26.953  12.368
54070W        W15381  36.536  41.450   1.907
54071W        W15382  39.854  34.520   3.844
54072W        W15383  43.304  18.167  13.481
54073W        W15384  21.185  16.236   2.792
54074W        W15385  25.019  23.078   3.743
54075W        W15386  11.844  44.455  10.530
54076W        W15387  24.994   0.312  12.563
54077W        W15388   3.309   6.420   0.836
54078W        W15389  24.502  27.489  11.033
54079W        W15390  31.942   3.431  12.411
54080W        W15391  26.610  17.592   0.791
54081W        W15392  42.340  29.010  11.098
54082W        W15393   2.250  14.728   0.378
54083W        W15394  13.715  15.259  11.021
54084W        W15395   0.488  44.430  11.103
54085W        W15396   3.943  28.506   3.834
54086W        W15397  12.129  26.678   4.820
54087W        W15398   5.814  23.525  13.835
54088W        W15399  21.178  18.094   4.188
54089W        W15400  13.145  36.498   0.404
54090W        W15401  14.132   7.241   4.607
54091W        W15402  18.768  25.470   5.268
54092W        W15403  21.658   5.906  13.974
54093W        W15404   6.182  32.081  10.949
54094W        W15405  11.723  32.917  14.426
54095W        W15406  41.393  35.017   1.220
54096W        W15407   7.199  17.227   3.219
54097W        W15408   6.703  43.325  13.867
54098W        W15409  28.609  22.250   2.825
54099W        W15410  27.634   4.698  10.897
54100W        W15411   9.693  43.772  13.829
54101W        W15412  24.571  38.023   4.603
54102W        W15413  43.849  36.477  13.463
54103W        W15414  31.443  27.531  11.612
54104W        W15415  13.260  10.683  10.961
54105W        W15416  31.929  33.492  13.466
54106W        W15417  38.821  39.039  13.468
54107W        W15418  24.183  31.417  12.390
54108W        W15419  28.173   9.245  14.335
54109W        W15420  13.742   4.276  14.796
54110W        W15421  32.052  30.097  14.908
54111W        W15422  25.162   8.854  12.560
54112W        W15423  40.535  41.908   3.239
54113W        W15424  10.378  38.402   3.211
54114W        W15425  10.779   3.853  12.458
54115W        W15426  33.024  42.791   0.396
54116W        W15427  34.421  10.231   4.686
54117W        W15428  36.003   9.682  10.489
54118W        W15429  40.306   6.898   3.836
54119W        W15430   5.766  43.019   0.262
54120W        W15431  20.033  13.153  11.037
54121W        W15432  26.963   6.811  13.393
54122W        W15433   6.365  32.539   1.306
54123W        W15434  33.884  17.752   4.738
54124W        W15435   2.245  43.893  14.991
54125W        W15436  30.554  22.227   4.782
54126W        W15437  25.518  18.598   4.210
54127W        W15438  18.583  41.868  12.487
54128W        W15439   8.202  36.479  10.488
54129W        W15440  35.928  27.477   1.730
54130W        W15441  33.517  32.122  13.839
54131W        W15442   3.305  23.208  12.359
54132W        W15443  25.014  13.199  13.015
54133W        W15444  40.454  37.390   2.340
54134W        W15445  20.649  21.616   3.387
54135W        W15446  30.932  25.092  12.540
54136W        W15447  16.156   0.402   3.800
54137W        W15448  10.230  18.110   3.194
54138W        W15449  30.651  21.084   1.312
54139W        W15450  24.036  40.919   3.382
54140W        W15451  13.143  11.859  14.840
54141W        W15452  35.469  14.246   3.836
54142W        W15453  39.456  42.313   4.233
54143W        W15454  15.628  29.002   1.760
54144W        W15455  17.695  11.787  14.911
54145W        W15456  26.014  34.372  14.879
54146W        W15457   4.265  23.600  13.010
54147W        W15458  19.141  41.927   2.237
54148W        W15459  42.003  14.689  10.620
54149W        W15460  36.576  20.709   3.178
54150W        W15461  30.914  23.510  13.998
54151W        W15462  18.246  36.998   3.654
54152W        W15463  24.581  27.448  12.854
54153W        W15464  36.992  17.096   1.347
54154W        W15465  44.790  18.612  12.573
54155W        W15466  37.970  39.417  10.943
54156W        W15467  33.385  13.684  12.522
54157W        W15468   0.302  21.118  14.307
54158W        W15469  10.326  15.263  10.495
54159W        W15470  28.557  15.240  14.886
54160W        W15471  34.430   2.303   1.892
54161W        W15472  21.656  42.884  12.933
54162W        W15473   4.901   4.338  12.407
54163W        W15474  24.097  16.607   5.265
54164W        W15475  23.722  17.116   4.635
54165W        W15476  16.222  16.125   1.716
54166W        W15477   1.895  29.500  11.037
54167W        W15478  16.091  30.652  14.281
54168W        W15479  18.070   8.335  13.527
54169W        W15480   6.228  15.273   4.162
54170W        W15481  31.428   1.939  11.129
54171W        W15482  24.049  19.704   2.295
54172W        W15483  29.540  36.360   0.744
54173W        W15484  11.793  33.032   2.733
54174W        W15485  38.428  21.162  11.889
54175W        W15486  19.171  27.548  12.528
54176W        W15487  26.200   3.937  12.848
54177W        W15488  25.676  24.603  13.952
54178W        W15489  29.958  22.154  14.775
54179W        W15490  44.993  44.462   2.721
54180W        W15491  22.150  19.604  12.569
54181W        W15492  26.965  24.193  10.892
54182W        W15493  30.111   2.444  13.502
54183W        W15494  23.224  20.162  13.986
54184W        W15495  15.807   7.284   0.286
54185W        W15496  18.106  38.545   2.756
54186W        W15497  27.055  18.709   5.241
54187W        W15498  30.160  37.873   3.350
54188W        W15499  26.976  34.477   4.262
54189W        W15500   9.221  44.838   3.643
54190W        W15501  13.330  14.209   1.357
54191W        W15502  14.819  42.415   2.369
54192W        W15503  34.983   1.804  14.930
54193W        W15504  12.148   2.819  14.282
54194W        W15505  34.473  14.230   3.217
54195W        W15506  32.602  10.224  11.958
54196W        W15507  11.186   1.898   3.826
54197W        W15508  30.130   0.798  12.917
54198W        W15509  32.963  32.515   1.814
54199W        W15510  15.166  27.678   2.332
54200W        W15511  39.520  38.018   0.929
54201W        W15512  39.888  19.588   0.767
54202W        W15513  23.615   8.717   1.752
54203W        W15514  28.162  42.805  13.446
54204W        W15515   3.795  40.019  13.024
54205W        W15516   5.860  19.200  11.904
54206W        W15517  35.522  13.618   0.921
54207W        W15518  15.306   6.900  14.426
54208W        W15519  32.003  43.398   3.660
54209W        W15520  32.898  27.659   1.352
54210W        W15521  38.938  28.646   0.881
54211W        W15522   6.720  37.025   4.804
54212W        W15523  39.470  20.208  12.557
54213W        W15524  19.692  19.759  11.962
54214W        W15525  12.786  21.258   3.814
54215W        W15526  15.808  35.084  14.963
54216W        W15527  43.320  27.530  10.430
54217W        W15528  17.597  43.911   0.860
54218W        W15529  16.273   9.767   4.618
54219W        W15530  39.845  27.689  14.277
54220W        W15531  40.473   3.390  11.041
54221W        W15532  29.103  29.957  11.127
54222W        W15533  28.560  13.146  11.450
54223W        W15534  39.952   9.182   2.768
54224W        W15535  19.241  18.547  11.943
54225W        W15536  35.540  40.468   3.683
54226W        W15537  44.303  18.111   0.736
54227W        W15538  27.105   0.860   2.762
54228W        W15539  13.653  25.035  11.954
54229W        W15540   7.190  36.459   1.762
54230W        W15541   8.890  11.131  11.088
54231W        W15542  26.576  32.518   3.811
54232W        W15543  17.255  34.424   2.799
54233W        W15544  24.050   7.335  12.044
54234W        W15545  17.672  42.351  11.375
54235W        W15546  42.501  19.048  13.890
54236W        W15547   4.337  15.742  14.428
54237W        W15548   0.939   2.764   3.283
54238W        W15549  44.414  23.158  11.089
54239W        W15550  26.095   4.870  11.575
54240W        W15551  38.495  33.025   3.652
54241W        W15552  30.016   1.738   4.815
54242W        W15553   7.898  29.139  14.829
54243W        W15554   0.324  42.924   4.736
54244W        W15555   3.332  22.505  12.904
54245W        W15556   2.465   5.759  10.583
54246W        W15557   6.319  44.762   3.634
54247W        W15558  29.646  11.233  10.578
54248W        W15559  11.811  26.573  11.469
54249W        W15560  11.684  32.619   0.320
54250W        W15561  30.481  14.640  13.452
54251W        W15562  15.291  14.830   3.690
54252W        W15563  11.795  24.036  11.920
54253W        W15564  31.095   7.286  12.017
54254W        W15565  12.722  33.493  10.950
54255W        W15566  31.469  37.014   4.161
54256W        W15567  33.965   3.455  13.012
54257W        W15568  19.072  39.335   2.299
54258W        W15569  41.789  29.518   1.717
54259W        W15570  18.126   7.849  14.348
54260W        W15571  41.474  30.596  13.468
54261W        W15572   5.795   6.412  12.877
54262W        W15573  15.659  19.712   3.239
54263W        W15574  26.471  16.705  11.607
54264W        W15575  16.685  41.528  11.516
54265W        W15576  43.907  37.580  14.784
54266W        W15577  20.083  44.966   1.253
54267W        W15578  43.452   6.823  14.815
54268W        W15579   6.267  40.980  14.970
54269W        W15580  22.619  19.097   0.894
54270W        W15581  40.043   5.242  12.480
54271W        W15582  14.736   1.870  13.958
54272W        W15583  30.074  43.322  14.367
54273W        W15584  22.536  30.971   0.805
54274W        W15585  33.885  42.904   3.153
54275W        W15586  32.987  12.631  12.992
54276W        W15587  33.516  34.383  12.865
54277W        W15588   0.445  12.339  12.939
54278W        W15589  22.721  14.166  14.301
54279W        W15590  43.393   3.920  11.505
54280W        W15591  31.551  14.819   1.294
54281W        W15592  37.920  34.051   4.244
54282W        W15593  12.119  35.956  11.100
54283W        W15594  23.692  11.689   2.755
54284W        W15595  36.980   3.353  13.990
54285W        W15596  35.982  37.059   2.771
54286W        W15597   3.422  17.700   3.789
54287W        W15598  41.968  14.330  12.527
54288W        W15599  26.623   1.954  10.972
54289W        W15600  15.748  40.918  13.357
54290W        W15601  13.704  30.091  13.435
54291W        W15602  14.096  13.342   4.210
54292W        W15603  20.120  43.914  13.048
54293W        W15604  22.681  10.370   1.894
54294W        W15605   5.422  11.729  11.957
54295W        W15606  25.517  14.633   4.736
54296W        W15607  13.200  36.986   3.687
54297W        W15608   7.349   3.265  10.909
54298W        W15609  19.050  32.485  11.963
54299W        W15610   1.363  31.122  11.597
54300W        W15611   5.758  12.798  14.907
54301W        W15612   6.319  24.126   1.889
54302W        W15613   8.188  10.733  12.387
54303W        W15614  23.631  43.956  13.012
54304W        W15615  38.036  27.955  12.892
54305W        W15616  29.663  30.517   0.805
54306W        W15617  30.981  25.108   1.236
54307W        W15618   5.216   0.277  14.348
54308W        W15619  18.689  20.048  13.940
54309W        W15620  17.617  16.730  12.349
54310W        W15621  30.451  24.165  13.462
54311W        W15622  38.828   2.732  13.881
54312W        W15623  17.178   7.803  14.923
54313W        W15624  23.028   8.803  13.448
54314W        W15625   0.855  19.133   4.192
54315W        W15626  40.999  40.985   0.820
54316W        W15627  28.617  32.544   3.150
54317W        W15628  25.047  23.993   3.754
54318W        W15629  12.705  28.515  12.349
54319W        W15630  34.061  25.581   2.860
54320W        W15631  44.434  10.740   1.382
54321W        W15632  14.818   4.732   2.704
54322W        W15633  34.404  27.617   3.285
54323W        W15634  37.440  40.542   1.728
54324W        W15635  40.461   3.785  11.049
54325W        W15636   2.459  24.487  13.980
54326W        W15637  13.612  20.237   2.364
54327W        W15638   4.818  15.624   2.710
54328W        W15639   7.225   9.174   1.814
54329W        W15640  33.899   0.490  11.534
54330W        W15641  30.570  21.114  12.409
54331W        W15642   7.181  15.602   2.183
54332W        W15643  30.942  42.389   4.611
54333W        W15644   5.862  22.072  14.453
54334W        W15645  42.848  38.990  12.915
54335W        W15646  32.090  16.150   2.684
54336W        W15647  30.425  42.340   4.624
54337W        W15648  31.596  43.366   0.742
54338W        W15649   4.255  25.469   1.288
54339W        W15650  30.074  23.129  13.928
54340W        W15651  25.215  25.182  12.896
54341W        W15652  10.667   3.449  11.970
54342W        W15653  17.162   3.381   4.296
54343W        W15654  25.152  35.512  12.029
54344W        W15655  31.523  12.173  13.414
54345W        W15656  40.453  24.059   3.158
54346W        W15657   7.825  27.181   2.879
54347W        W15658  43.308  32.418   1.794
54348W        W15659  16.252  15.720   1.844
54349W        W15660  44.809  25.986   1.727
54350W        W15661  26.581  26.503   1.897
54351W        W15662  32.988   5.772  12.983
54352W        W15663  10.157   4.330   2.247
54353W        W15664  34.551  14.154   2.302
54354W        W15665  12.202  31.613  14.290
54355W        W15666   7.400  30.121  11.084
54356W        W15667   3.243  32.093  14.797
54357W        W15668  20.717  37.573   4.147
54358W        W15669   7.273   6.218  14.801
54359W        W15670  19.778  44.479   3.713
54360W        W15671  35.973   7.254   2.669
54361W        W15672  43.892  28.950  11.921
54362W        W15673  27.047   5.251   4.307
54363W        W15674  14.755  28.551  10.599
54364W        W15675   0.293   7.415   3.224
54365W        W15676  18.260  16.081   2.719
54366W        W15677   1.391  12.256   3.277
54367W        W15678  14.767  27.520   3.843
54368W        W15679   2.255  38.457  13.538
54369W        W15680  36.375  20.200  14.858
54370W        W15681   4.801   1.734  10.022
54371W        W15682   7.224  23.033  11.067
54372W        W15683  35.034  15.803   1.312
54373W        W15684  13.655  34.475  12.473
54374W        W15685  39.038  20.605  11.893
54375W        W15686  21.201  41.881   2.264
54376W        W15687   7.888   5.372  13.793
54377W        W15688  27.570   4.705  12.869
54378W        W15689   7.773  10.178   3.869
54379W        W15690   6.225  25.204  11.017
54380W        W15691  39.486  26.579   0.429
54381W        W15692  39.542  27.032   2.900
54382W        W15693  22.555  44.499   2.246
54383W        W15694  35.016  21.651  13.445
54384W        W15695  25.554  24.186  11.921
54385W        W15696  20.608   8.793   0.730
54386W        W15697  32.055   0.375   1.411
54387W        W15698  11.687  38.333  13.995
54388W        W15699  15.260  17.630   4.220
54389W        W15700  13.719  17.238   3.162
54390W        W15701  34.927  26.131   4.839
54391W        W15702   0.330  21.575   3.257
54392W        W15703  29.954  20.596  12.449
54393W        W15704  17.228  44.843  11.463
54394W        W15705  35.012  30.010  10.085
54395W        W15706   8.889  38.051  10.502
54396W        W15707  18.730   2.443  13.411
54397W        W15708  19.218  42.861  10.624
54398W        W15709  24.622   3.931  13.531
54399W        W15710  27.652  25.008  14.950
54400W        W15711  25.678  42.787  11.376
54401W        W15712   9.666  17.770  14.983
54402W        W15713  13.188   7.696   3.655
54403W        W15714  14.248  29.922  13.533
54404W        W15715  36.945  20.190  11.540
54405W        W15716  20.133  14.687   1.349
54406W        W15717  43.415  24.533  11.869
54407W        W15718  34.443  37.401  13.502
54408W        W15719  23.130  31.596   4.652
54409W        W15720   5.408  39.424  14.483
54410W        W15721  14.777  34.999  10.073
54411W        W15722   2.443  35.921  13.340
54412W        W15723   5.275   1.316  14.287
54413W        W15724   4.397   1.470   2.674
54414W        W15725  18.218  41.834  14.353
54415W        W15726   2.307  43.808  12.027
54416W        W15727  14.678  31.902  10.577
54417W        W15728  12.285  28.111  10.981
54418W        W15729  13.300   7.701  11.085
54419W        W15730  30.967  12.328  10.506
54420W        W15731  12.636  12.706  12.369
54421W        W15732  22.231   8.743   4.351
54422W        W15733  22.009  27.976  10.451
54423W        W15734  35.538   6.307  12.919
54424W        W15735  33.899  32.017   2.664
54425W        W15736  18.208  29.496   1.353
54426W        W15737   0.792  18.287  14.882
54427W        W15738  28.588  16.572  12.903
54428W        W15739  36.512  30.653  11.974
54429W        W15740   7.364  23.640   2.241
54430W        W15741   8.363   0.312  13.312
54431W        W15742   5.846   4.267   3.792
54432W        W15743  20.244  25.084   1.727
54433W        W15744   4.365   7.354   3.246
54434W        W15745  24.021   9.358  12.877
54435W        W15746  37.376  27.088   3.185
54436W        W15747  43.832  27.949   1.778
54437W        W15748   5.702  32.059   0.478
54438W        W15749  23.716  11.780  14.781
54439W        W15750  31.957  34.472  13.873
54440W        W15751  38.490  10.339   0.937
54441W        W15752  42.971  14.297   1.822
54442W        W15753  27.648  40.948  10.611
54443W        W15754   0.288  18.143   2.860
54444W        W15755  39.498   3.285  13.964
54445W        W15756  44.274  36.367  12.989
54446W        W15757  34.877  43.415  10.419
54447W        W15758   5.193  29.060  12.030
54448W        W15759  22.208  27.505  11.585
54449W        W15760   5.749  10.676   4.683
54450W        W15761   3.230  17.756  13.917
54451W        W15762  24.044  12.685   2.303
54452W        W15763  13.210  35.881   0.244
54453W        W15764  37.385  26.075   3.852
54454W        W15765  15.596  20.179  14.306
54455W        W15766   5.384  25.706   4.728
54456W        W15767  27.153  41.954  14.308
54457W        W15768  10.227  13.244  10.634
54458W        W15769   1.457  34.882  14.511
54459W        W15770   7.378  39.557   2.360
54460W        W15771  17.105  16.076  13.015
54461W        W15772  11.253  37.552  13.040
54462W        W15773  18.194   0.749   0.731
54463W        W15774   7.824  21.670   0.912
54464W        W15775  36.358  21.140  13.918
54465W        W15776  11.317  21.589  11.982
54466W        W15777   0.952   4.401  12.539
54467W        W15778  40.508  12.241   4.143
54468W        W15779  33.055  33.400   2.759
54469W        W15780  41.942  21.648  12.848
54470W        W15781   6.722  27.517  12.420
54471W        W15782  25.024  23.230  13.327
54472W        W15783  24.084   6.410   4.638
54473W        W15784  39.458  20.681   0.378
54474W        W15785  12.145  39.474  13.953
54475W        W15786  44.789  21.522   4.134
54476W        W15787   9.299  26.522   5.208
54477W        W15788  18.609  24.574   0.823
54478W        W15789  13.124  19.139  14.950
54479W        W15790   7.738   3.439  12.455
54480W        W15791  36.401  12.251   4.703
54481W        W15792  39.936  20.706   2.359
54482W        W15793  43.857  16.077  12.580
54483W        W15794  44.970   4.821  14.450
54484W        W15795  27.136  32.555  14.453
54485W        W15796  39.424  43.969   0.778
54486W        W15797   7.682  33.019  14.365
54487W        W15798  43.460  24.536  14.279
54488W        W15799  32.944  31.963   2.193
54489W        W15800  16.728  34.516   4.645
54490W        W15801  15.242  26.092   0.764
54491W        W15802   5.825  18.175   2.233
54492W        W15803  17.111  13.668   2.212
54493W        W15804  13.219  33.425  13.919
54494W        W15805  15.794  13.193  10.056
54495W        W15806  25.582   8.344   4.631
54496W        W15807  40.404  30.437   0.330
54497W        W15808   0.478  41.447  10.995
54498W        W15809  37.874  35.057   0.348
54499W        W15810  21.235  16.719  11.992
54500W        W15811   2.272  28.964  12.439
54501W        W15812  32.497   4.227  11.506
54502W        W15813   7.223  44.389   3.709
54503W        W15814  34.534  22.073   3.288
54504W        W15815  32.119  38.407   3.311
54505W        W15816   6.695  19.182   4.796
54506W        W15817  27.690  37.865  14.810
54507W        W15818   2.239   4.875   0.946
54508W        W15819   3.929  32.525   3.292
54509W        W15820  30.639  24.706  12.031
54510W        W15821  24.199   6.378  12.880
54511W        W15822  18.705  27.584   1.838
54512W        W15823  27.049  18.092  13.409
54513W        W15824  39.483   1.367  14.435
54514W        W15825   9.258  38.865  10.905
54515W        W15826  14.228   9.361   0.358
54516W        W15827  14.179   4.407  14.897
54517W        W15828  12.632  16.078   4.689
54518W        W15829  23.712  41.448  11.965
54519W        W15830   4.747  30.426  10.603
54520W        W15831  28.547  21.534   2.238
54521W        W15832  43.809  16.792   2.860
54522W        W15833  24.556  25.080   4.789
54523W        W15834  13.329  43.773  11.564
54524W        W15835  10.221  10.147   0.911
54525W        W15836  28.019  11.288  14.938
54526W        W15837  15.730  25.525  13.528
54527W        W15838  18.551  27.531   4.262
54528W        W15839  28.998  37.358  11.580
54529W        W15840   3.942  13.225  14.507
54530W        W15841  39.023  35.965  14.914
54531W        W15842  18.228  17.678   5.311
54532W        W15843  16.164  18.761   4.143
54533W        W15844  22.042  30.103   1.708
54534W        W15845  35.485  32.934  14.488
54535W        W15846  41.362  39.477   3.228
54536W        W15847  40.324   4.212   3.168
54537W        W15848  35.447  11.734   0.291
54538W        W15849  35.013  19.112  12.982
54539W        W15850  33.945  12.284   1.225
54540W        W15851  33.476   8.206  11.928
54541W        W15852  21.534   3.302  12.026
54542W        W15853   9.259  29.638  12.342
54543W        W15854  34.963  23.241  14.350
54544W        W15855  42.880  26.470  11.412
54545W        W15856  23.179   9.396   2.245
54546W        W15857  23.233  35.386  12.842
54547W        W15858  20.264  38.335   0.445
54548W        W15859  28.605  33.445   1.796
54549W        W15860  40.305   3.329  13.026
54550W        W15861  26.981  36.587  11.961
54551W        W15862   5.812   1.386  12.046
54552W        W15863  10.169  31.975  14.928
54553W        W15864   5.765  44.941  11.896
54554W        W15865  41.503  27.173  10.537
54555W        W15866  17.154  16.633   5.280
54556W        W15867   3.930  43.372  11.027
54557W        W15868   1.280  34.443  13.436
54558W        W15869  13.636  18.614   2.764
54559W        W15870  41.455  43.348   3.840
54560W        W15871   9.392  29.141  11.554
54561W        W15872   3.436  43.945   9.983
54562W        W15873  28.554  23.620   4.166
54563W        W15874  14.200  42.293  14.887
54564W        W15875  10.872  26.580  13.315
54565W        W15876  28.553  16.639  14.910
54566W        W15877  39.451   7.820  11.000
54567W        W15878  12.843  20.625   4.788
54568W        W15879  35.919  12.694   3.169
54569W        W15880   2.426  22.219   0.400
54570W        W15881   1.441  39.027  10.113
54571W        W15882   0.952   7.811   2.900
54572W        W15883  16.662  33.979  10.910
54573W        W15884   6.695  13.220  14.391
54574W        W15885   2.415  30.001  13.367
54575W        W15886  11.672  31.996  11.382
54576W        W15887   2.966  19.606   3.761
54577W        W15888  16.620  24.030   1.242
54578W        W15889  28.512  11.364  13.411
54579W        W15890  37.428  40.969  12.865
54580W        W15891  27.173  32.960  11.901
54581W        W15892  16.315   1.864  11.895
54582W        W15893  16.580  10.845  11.400
54583W        W15894  31.915  37.553   3.338
54584W        W15895  33.465  39.042   4.764
54585W        W15896  22.556  19.733   2.753
54586W        W15897  30.567  19.597   0.292
54587W        W15898  16.615  12.784   3.709
54588W        W15899  37.054   2.304  14.859
54589W        W15900  39.903  35.878   4.198
54590W        W15901  44.494   7.903   3.786
54591W        W15902  32.083  37.998   0.892
54592W        W15903   1.291  24.704  14.978
54593W        W15904  44.277  37.895  13.064
54594W        W15905  44.386  27.144  10.973
54595W        W15906  30.591   4.364  14.478
54596W        W15907  12.128  16.236  10.899
54597W        W15908  42.787  33.507  10.407
54598W        W15909  10.268  19.542  14.460
54599W        W15910  34.881  17.103  12.939
54600W        W15911  12.187  15.262   2.344
54601W        W15912  22.539  23.529   4.701
54602W        W15913  23.494  13.339  10.977
54603W        W15914   6.226  13.298  10.618
54604W        W15915  19.722  13.790   3.161
54605W        W15916   2.386  39.887   4.195
54606W        W15917   0.281   8.772   2.864
54607W        W15918  15.685  11.809   4.772
54608W        W15919  43.502   5.688  11.868
54609W        W15920  32.431  41.951  12.391
54610W        W15921  12.182  14.282   1.429
54611W        W15922  13.703  40.423   2.831
54612W        W15923  16.690  21.129  14.928
54613W        W15924  38.852  33.553  14.024
54614W        W15925  28.981  37.059   4.600
54615W        W15926  26.099  32.139   2.324
54616W        W15927  14.758  35.987   2.850
54617W        W15928  23.208   3.275  11.572
54618W        W15929   5.428  39.560   4.819
54619W        W15930   9.332  36.069   0.322
54620W        W15931  41.937  16.285  11.105
54621W        W15932   8.697  16.755   1.753
54622W        W15933  18.183  20.112  13.806
54623W        W15934  25.056  29.599  12.551
54624W        W15935   7.691  11.804   4.178
54625W        W15936  15.323   3.348   4.296
54626W        W15937   5.759  29.148   2.276
54627W        W15938   8.789  23.014  10.583
54628W        W15939  42.799  42.842  13.851
54629W        W15940   7.387  21.192  12.529
54630W        W15941  26.966   8.873   3.788
54631W        W15942   8.803  40.895  11.410
54632W        W15943  11.342   4.220   1.385
54633W        W15944  18.646  23.097   2.848
54634W        W15945  36.055   7.765  11.538
54635W        W15946   0.361  13.264  10.945
54636W        W15947  10.326  26.186  11.442
54637W        W15948  34.508   2.786  12.544
54638W        W15949   7.341  33.517  12.489
54639W        W15950   1.288  31.567   4.164
54640W        W15951  22.072  17.174  12.511
54641W        W15952  31.474  18.791   3.648
54642W        W15953   4.432   0.307  11.453
54643W        W15954  37.947   1.469  14.972
54644W        W15955  26.091   1.922   1.850
54645W        W15956  25.096  35.950  13.530
54646W        W15957  10.753  13.168   2.291
54647W        W15958  21.545  31.409  13.949
54648W        W15959  42.896   4.796   4.285
54649W        W15960  44.483  16.142   1.897
54650W        W15961  34.465  12.842   3.748
54651W        W15962  32.614   3.235  13.873
54652W        W15963   9.780   6.873   2.277
54653W        W15964  29.443  30.146  11.554
54654W        W15965  13.651  28.602   4.763
54655W        W15966  19.721  14.160   2.709
54656W        W15967   5.341  40.899  11.096
54657W        W15968   1.829   7.340   3.844
54658W        W15969   7.232  19.172  13.897
54659W        W15970  38.900  14.094  10.627
54660W        W15971  44.399   9.809  12.482
54661W        W15972  15.296   1.837  11.602
54662W        W15973  39.362   3.254  11.916
54663W        W15974  31.573  34.535   0.476
54664W        W15975  23.696  14.818   0.466
54665W        W15976  43.805  44.430   2.835
54666W        W15977  31.406  13.250  10.441
54667W        W15978  36.024  42.850  11.986
54668W        W15979   1.732  26.523   4.219
54669W        W15980  21.127   4.743   4.644
54670W        W15981  30.026  19.175  11.863
54671W        W15982  42.394  21.036  12.060
54672W        W15983   7.838  42.871  12.530
54673W        W15984   5.870  41.499  10.972
54674W        W15985  40.490  27.586  14.803
54675W        W15986   6.220   0.342  13.359
54676W        W15987  40.997  38.993   2.727
54677W        W15988  32.933  41.480   4.202
54678W        W15989  26.954  15.230   1.357
54679W        W15990  40.361  12.853   1.342
54680W        W15991  12.193   2.272  10.946
54681W        W15992  34.940  41.014  10.510
54682W        W15993  42.848  36.853   2.189
54683W        W15994  38.508  32.072   3.379
54684W        W15995   5.379   7.717   4.272
54685W        W15996  27.538  29.957   3.713
54686W        W15997  22.009  26.124  13.977
54687W        W15998  25.201   4.262   0.390
54688W        W15999  19.536   8.333   3.653
54689W        W16000  28.495   7.223  12.085
54690W        W16001   5.863  16.764   1.840
54691W        W16002  34.503  10.741  14.276
54692W        W16003  37.441  12.211   3.348
54693W        W16004   5.881  11.148  12.894
54694W        W16005  18.733  25.080   4.749
54695W        W16006  31.913  41.402   1.916
54696W        W16007  26.110   1.310   0.834
54697W        W16008  41.296  35.434   3.826
54698W        W16009   9.205  40.332   4.157
54699W        W16010  14.171  29.554  12.434
54700W        W16011  17.664  15.289  13.816
54701W        W16012  34.926  20.151   1.828
54702W        W16013  22.107  37.580  14.926
54703W        W16014   9.337  31.126  11.959
54704W        W16015  14.117  10.365   0.266
54705W        W16016   2.388   7.375   0.933
54706W        W16017  32.039  16.728  14.484
54707W        W16018  43.949  24.080  13.386
54708W        W16019   8.287  24.559   4.118
54709W        W16020  44.345  25.567   3.810
54710W        W16021  25.632  41.436   5.147
54711W        W16022  43.512  32.946  11.923
54712W        W16023  27.599   5.741   1.408
54713W        W16024  11.159  32.464   4.126
54714W        W16025  43.329  44.999   2.895
54715W        W16026  36.357  27.030  12.516
54716W        W16027  23.049   3.396  10.521
54717W        W16028  33.620  24.712   2.352
54718W        W16029  35.036  13.191  14.350
54719W        W16030  34.608  15.704  14.811
54720W        W16031  31.511  34.974  12.356
54721W        W16032   1.913   1.467   0.244
54722W        W16033  43.391  37.554   0.269
54723W        W16034  36.381  44.440   3.262
54724W        W16035  21.224   4.444  12.870
54725W        W16036  34.898  21.086  11.111
54726W        W16037  12.342  18.147  12.967
54727W        W16038   0.295  17.247  13.005
54728W        W16039   2.323  19.541   5.301
54729W        W16040   1.448  22.175   3.302
54730W        W16041  19.173  29.642   4.312
54731W        W16042   2.441  32.982  11.101
54732W        W16043  11.264  11.682   0.760
54733W        W16044  29.064   7.722   5.313
54734W        W16045  39.027  15.741   5.107
54735W        W16046  31.960  19.165  12.023
54736W        W16047  14.218  29.621  10.988
54737W        W16048  33.467  23.125   3.655
54738W        W16049  32.942   5.895   1.268
54739W        W16050  11.688  23.647  12.383
54740W        W16051   3.900  14.719  14.364
54741W        W16052  24.564   2.898   0.328
54742W        W16053  27.491  16.225  11.024
54743W        W16054  11.778  24.047  13.412
54744W        W16055   8.300  41.877  10.569
54745W        W16056  32.433   8.394   0.895
54746W        W16057  38.879  43.487  14.908
54747W        W16058  27.648  25.675  11.959
54748W        W16059  16.163  19.204  13.809
54749W        W16060  24.068  25.561  14.315
54750W        W16061  14.107  30.069  14.445
54751W        W16062  22.057  42.364  12.437
54752W        W16063  23.588  15.589  13.814
54753W        W16064  29.653   0.321  11.004
54754W        W16065  12.657  35.029   3.838
54755W        W16066   4.698  16.306  13.869
54756W        W16067  20.064  29.944   2.383
54757W        W16068  41.364  17.222   1.248
54758W        W16069  17.643   8.173   3.252
54759W        W16070  40.833   6.411   4.312
54760W        W16071   0.444  13.783  14.424
54761W        W16072   1.394   9.697  11.078
54762W        W16073  14.616   0.394   2.768
54763W        W16074  39.865  29.023   0.910
54764W        W16075  28.522   4.767  13.419
54765W        W16076  30.579  17.731  14.480
54766W        W16077  29.431  32.498  11.506
54767W        W16078  38.531   8.814   2.885
54768W        W16079   9.763  15.262  11.430
54769W        W16080  11.832  30.582   3.848
54770W        W16081  21.256  18.276  12.062
54771W        W16082  33.556  12.668  14.878
54772W        W16083   4.374  37.954  14.433
54773W        W16084  27.580  18.698  13.364
54774W        W16085  27.105  30.598   1.797
54775W        W16086  40.959  22.188  12.855
54776W        W16087  43.997   3.899   3.263
54777W        W16088  30.415  28.615   2.807
54778W        W16089   9.701  40.460   4.195
54779W        W16090  32.125  32.397  11.400
54780W        W16091  42.302  21.092  10.597
54781W        W16092  29.608  38.431  12.886
54782W        W16093   8.876  19.660  12.541
54783W        W16094   4.216  36.983   4.757
54784W        W16095  30.143  37.976   3.716
54785W        W16096  16.143  22.124  13.931
54786W        W16097   7.843  38.867  11.995
54787W        W16098  41.838  17.651   3.202
54788W        W16099   9.789   9.199   0.852
54789W        W16100  27.002  23.578  13.407
54790W        W16101  36.388  42.365  14.932
54791W        W16102   7.769  28.178   4.345
54792W        W16103  40.044  16.203  13.439
54793W        W16104   4.846  41.366  13.968
54794W        W16105  26.999  34.079   3.641
54795W        W16106  25.076  30.518   0.889
54796W        W16107  28.564  30.647   3.315
54797W        W16108  33.948  18.279  11.472
54798W        W16109  37.556  29.559  14.867
54799W        W16110  18.158  38.465   1.868
54800W        W16111  22.552  44.459  13.916
54801W        W16112  20.712  32.087   9.637
54802W        W16113   8.325  34.959  13.971
54803W        W16114  15.810  37.482  10.900
54804W        W16115   1.932  34.933  13.977
54805W        W16116  27.506   9.871   4.680
54806W        W16117  22.235  36.572   0.292
54807W        W16118  24.657   3.424   3.709
54808W        W16119  21.592  29.049   1.222
54809W        W16120  27.557  44.777   2.329
54810W        W16121  23.147   7.666   3.333
54811W        W16122  13.350  12.323  10.612
54812W        W16123   7.698  32.110  14.293
54813W        W16124  18.122  25.628   1.445
54814W        W16125  11.299  38.822   2.356
54815W        W16126  20.265  14.235   1.396
54816W        W16127  34.018  14.108  10.498
54817W        W16128   3.425  28.437  13.053
54818W        W16129  28.115   3.380   3.785
54819W        W16130   0.914  40.438   1.722
54820W        W16131  11.332   4.395  14.497
54821W        W16132  35.996  21.535   2.329
54822W        W16133   3.374  15.266  10.952
54823W        W16134  32.497  27.988   2.419
54824W        W16135  23.504  14.179   3.284
54825W        W16136  35.903  40.478   0.898
54826W        W16137  19.780  26.532   4.634
54827W        W16138  19.769  28.181  10.890
54828W        W16139  12.768  36.065   2.180
54829W        W16140  40.423  15.578   4.185
54830W        W16141  41.316  35.010  12.375
54831W        W16142  42.507  43.766  14.022
54832W        W16143  35.055  14.326   2.745
54833W        W16144  35.889  38.372  12.415
54834W        W16145  10.727  20.243  14.440
54835W        W16146  31.598  23.684   1.384
54836W        W16147  26.078  12.821   4.262
54837W        W16148  33.117  32.967  13.369
54838W        W16149  31.059   6.777   1.931
54839W        W16150  29.025  43.777  11.005
54840W        W16151   0.447   2.773   3.328
54841W        W16152  30.435  13.712  12.838
54842W        W16153   3.955   2.728   1.336
54843W        W16154  39.842  38.351   2.722
54844W        W16155  33.558  37.071   0.418
54845W        W16156  38.991  36.474  13.467
54846W        W16157  17.578  26.531  14.887
54847W        W16158  31.406  43.415  11.465
54848W        W16159  36.958  41.518  13.312
54849W        W16160   3.353  36.491   2.864
54850W        W16161   5.812  13.287  13.923
54851W        W16162   5.393  29.513   0.338
54852W        W16163  19.730  34.599  11.535
54853W        W16164  21.575  42.991  10.614
54854W        W16165   4.944  17.669   3.695
54855W        W16166  14.321   9.700  10.456
54856W        W16167  25.124  17.649  10.939
54857W        W16168  14.155  32.892   1.310
54858W        W16169  41.484  10.214  13.983
54859W        W16170  24.069  17.205   2.279
54860W        W16171  26.491  28.118  14.447
54861W        W16172  38.444  41.329   4.126
54862W        W16173   1.324   2.467  13.017
54863W        W16174  28.437  28.455   0.850
54864W        W16175  10.359  11.354  11.082
54865W        W16176  44.333   3.886  11.549
54866W        W16177  25.994  33.112  10.435
54867W        W16178  28.033  27.184   2.677
54868W        W16179  39.838  15.665  12.995
54869W        W16180  12.631  22.659  12.471
54870W        W16181  10.874  43.816   1.913
54871W        W16182  29.921  28.999  13.478
54872W        W16183  10.706  12.347  13.991
54873W        W16184   8.363   8.223  13.472
54874W        W16185   6.684  38.029  13.433
54875W        W16186  30.933  34.065   3.340
54876W        W16187  42.287  40.936   3.721
54877W        W16188   0.814  21.737  13.894
54878W        W16189   4.226  30.986  13.378
54879W        W16190  30.963  29.452   0.961
54880W        W16191  36.567  16.140   0.807
54881W        W16192   0.401  26.594  12.415
54882W        W16193   4.360  42.901   3.694
54883W        W16194   3.246   7.842   3.825
54884W        W16195  33.557  32.413   4.353
54885W        W16196  24.699  32.598   3.355
54886W        W16197  27.517   4.409   2.822
54887W        W16198  21.135  22.502  10.529
54888W        W16199   0.948   1.444  11.108
54889W        W16200  29.648  33.936  13.479
54890W        W16201  19.272  17.276   1.708
54891W        W16202   2.470   4.204   1.272
54892W        W16203  17.110  42.348   1.283
54893W        W16204  29.136  39.839  10.431
54894W        W16205  37.337  14.293  10.540
54895W        W16206  21.259  32.980  12.826
54896W        W16207  17.303  24.218  11.994
54897W        W16208  38.358  33.128  11.967
54898W        W16209  31.020   3.819  13.055
54899W        W16210  43.436  33.416   1.261
54900W        W16211  14.238   9.381  14.395
54901W        W16212  36.016  36.394  14.770
54902W        W16213  42.405  25.618  14.499
54903W        W16214  16.096  23.018   0.859
54904W        W16215  20.604  35.856  14.374
54905W        W16216  43.929   1.474   1.217
54906W        W16217   3.803  15.724  12.051
54907W        W16218  39.355  38.430   2.898
54908W        W16219   8.665   7.667   2.876
54909W        W16220   7.399  26.558  12.899
54910W        W16221  21.666  16.237   1.700
54911W        W16222  41.376   6.337   3.236
54912W        W16223  22.607  14.751   2.809
54913W        W16224  14.120  42.833   4.265
54914W        W16225  40.332  12.820  13.900
54915W        W16226  37.455  41.502   2.364
54916W        W16227  17.585  13.209   4.343
54917W        W16228   6.715  22.200   0.780
54918W        W16229   4.884   9.346   4.227
54919W        W16230   6.898  37.417  13.343
54920W        W16231  11.331  26.458   1.867
54921W        W16232  15.160  31.071  12.990
54922W        W16233  31.903  14.139   1.928
54923W        W16234  12.782  21.030   3.155
54924W        W16235  15.585  15.207  11.000
54925W        W16236  32.982   7.173  11.007
54926W        W16237  17.209   2.456  13.449
54927W        W16238  32.953  17.615   0.832
54928W        W16239   3.838  35.406   1.840
54929W        W16240  10.760   3.876   1.903
54930W        W16241  43.835  33.089  13.859
54931W        W16242  38.060  44.406   1.315
54932W        W16243   4.754  24.530  11.065
54933W        W16244  39.837  21.097  10.565
54934W        W16245  32.499  12.695   4.176
54935W        W16246  21.199  12.821  10.615
54936W        W16247   3.420  27.613   2.803
54937W        W16248  38.063  37.376   0.482
54938W        W16249  26.202   9.209   4.160
54939W        W16250  29.595  32.065  13.408
54940W        W16251   1.245  38.845   2.664
54941W        W16252  17.755  13.248  10.132
54942W        W16253  40.343  13.290   0.442
54943W        W16254  32.049   6.196   5.218
54944W        W16255  22.530  26.127   3.730
54945W        W16256  34.429  38.545  13.931
54946W        W16257  20.757  35.986  10.500
54947W        W16258  38.032  15.282   0.727
54948W        W16259  22.577   4.288  14.285
54949W        W16260   9.693  13.218  11.015
54950W        W16261   0.846  19.214  14.312
54951W        W16262  21.021  31.476  12.397
54952W        W16263  23.182  29.610  11.996
54953W        W16264  36.421  17.745  11.075
54954W        W16265   0.753  39.976  13.342
54955W        W16266  18.274  10.148  10.501
54956W        W16267  32.102  36.988   0.244
54957W        W16268  43.287  19.117  13.379
54958W        W16269  24.093  28.619  14.504
54959W        W16270  40.914   4.339  14.307
54960W        W16271  14.677   9.831  12.829
54961W        W16272  23.686  27.007   0.847
54962W        W16273  37.464   0.440  10.579
54963W        W16274  17.565  34.462  14.936
54964W        W16275  18.600  31.606  12.992
54965W        W16276  16.793  33.920   2.387
54966W        W16277  15.694  37.844  14.512
54967W        W16278  41.940   7.795  11.985
54968W        W16279  18.214  39.422  14.479
54969W        W16280   3.909  27.043   0.736
54970W        W16281  42.920  29.939  12.826
54971W        W16282   5.783  24.004   1.775
54972W        W16283  23.735  26.108   2.714
54973W        W16284  20.745   5.823   3.314
54974W        W16285  19.043  38.049  13.939
54975W        W16286   2.234  15.670  14.983
54976W        W16287  18.087   5.381   4.826
54977W        W16288  25.974  27.031  13.348
54978W        W16289  15.251  16.665   0.426
54979W        W16290   1.436  34.492  11.034
54980W        W16291   3.710   2.285  11.573
54981W        W16292   4.222  14.719  11.860
54982W        W16293  28.610  37.910  12.522
54983W        W16294   4.698  44.475   2.292
54984W        W16295  15.754   7.679   9.443
54985W        W16296  19.574   2.903   2.819
54986W        W16297   2.741  34.481   1.872
54987W        W16298   7.779   9.265   1.272
54988W        W16299   8.771  13.629   1.363
54989W        W16300  11.130  19.121  11.931
54990W        W16301  28.537  11.694   1.844
54991W        W16302   5.868  38.344  11.463
54992W        W16303   2.351  30.609   1.225
54993W        W16304  33.110  43.489   2.857
54994W        W16305  18.207  32.010  11.959
54995W        W16306  18.261  34.036   3.281
54996W        W16307  32.578  36.981  12.858
54997W        W16308  23.576  22.599  13.431
54998W        W16309  29.038   9.375  10.940
54999W        W16310  43.920  10.308   4.792
55000W        W16311  20.723  36.853  14.352
55001W        W16312  42.030   4.752  14.769
55002W        W16313  26.671  26.545  12.006
55003W        W16314  16.660  32.964   1.310
55004W        W16315   7.867  28.528  11.097
55005W        W16316  21.084  28.585  14.429
55006W        W16317   1.747  18.129  13.895
55007W        W16318   3.864  11.329  11.608
55008W        W16319  28.934  29.074  13.384
55009W        W16320  20.587  42.486  13.340
55010W        W16321  24.109  39.427  10.949
55011W        W16322  37.057  25.520  11.989
55012W        W16323  41.483  43.278  13.813
55013W        W16324  29.058   7.878   4.178
55014W        W16325  41.846  31.473  11.983
55015W        W16326  11.342  13.122  13.051
55016W        W16327  28.142  19.719  13.505
55017W        W16328  41.967  39.549   1.864
55018W        W16329   1.771  29.622  13.950
55019W        W16330  26.022  21.130  11.580
55020W        W16331   8.202  14.338  13.990
55021W        W16332  36.888  32.938  10.526
55022W        W16333  29.435   9.204  13.998
55023W        W16334   4.344  12.348  13.929
55024W        W16335   1.761   6.330  13.977
55025W        W16336  17.103  40.539   2.323
55026W        W16337  23.592  44.284  11.538
55027W        W16338   3.812  28.081   4.233
55028W        W16339  23.525   2.780   2.802
55029W        W16340   6.387  36.855   2.849
55030W        W16341  37.437   8.852   1.782
55031W        W16342  18.077   8.320   3.751
55032W        W16343   4.722  12.180   4.206
55033W        W16344  39.487   1.816   4.221
55034W        W16345   8.882  40.899  11.090
55035W        W16346  39.342  21.639   2.875
55036W        W16347  23.097  25.079   4.354
55037W        W16348  36.527  28.639  10.940
55038W        W16349  36.888  29.987   0.445
55039W        W16350  11.778   9.806   3.301
55040W        W16351  36.985  14.595  12.564
55041W        W16352  34.965  10.706  13.840
55042W        W16353   4.897  44.484  13.508
55043W        W16354  20.561  26.197  12.571
55044W        W16355  14.692  37.463   3.727
55045W        W16356  10.249  44.984   3.313
55046W        W16357  33.888  22.021  12.007
55047W        W16358   4.324  16.150   0.785
55048W        W16359   2.865  40.411   4.624
55049W        W16360   0.786   2.944  13.449
55050W        W16361  31.896  43.851   4.197
55051W        W16362  24.723  32.506  13.974
55052W        W16363  11.364   6.387  12.527
55053W        W16364   0.433   8.896  10.906
55054W        W16365  10.204  15.807  13.794
55055W        W16366  14.322  18.620  13.880
55056W        W16367  24.078   3.850   3.780
55057W        W16368  19.046  31.909  13.460
55058W        W16369  33.411   9.874   1.827
55059W        W16370  38.858  43.934  13.462
55060W        W16371  12.316  23.613   3.304
55061W        W16372   4.710  41.901  14.004
55062W        W16373  34.016  33.972   4.353
55063W        W16374   4.878  14.816   4.315
55064W        W16375   1.393   7.300  14.807
55065W        W16376  27.159  43.997   1.716
55066W        W16377  17.683   6.786   2.883
55067W        W16378  28.048  41.938   4.194
55068W        W16379  41.472  35.380   4.808
55069W        W16380  15.638  42.356  14.392
55070W        W16381  34.527  24.149  10.624
55071W        W16382  27.978  25.149  14.395
55072W        W16383  42.396  40.888   2.416
55073W        W16384   3.243  24.483   2.888
55074W        W16385  20.097   4.856  13.819
55075W        W16386  38.550  44.503  14.851
55076W        W16387   1.343  11.637  14.290
55077W        W16388  42.454  16.180   3.703
55078W        W16389  37.854  37.951  14.451
55079W        W16390  24.186  33.566   3.631
55080W        W16391  13.717   1.764   1.411
55081W        W16392  42.815  35.480  11.498
55082W        W16393  31.083  36.967  10.430
55083W        W16394   6.887  31.507  11.098
55084W        W16395  30.658  10.691  11.856
55085W        W16396   1.831  20.188  11.489
55086W        W16397  38.550  38.820   1.244
55087W        W16398  36.979  10.203  12.550
55088W        W16399  19.069  34.548   1.914
55089W        W16400  21.209  18.068   3.724
55090W        W16401  40.850   3.918   0.390
55091W        W16402   5.923  27.479   2.767
55092W        W16403  37.373  15.268   3.664
55093W        W16404  26.483  43.983  11.084
55094W        W16405  13.771   1.805   1.821
55095W        W16406  37.351  15.703  11.933
55096W        W16407  44.501   8.201   2.845
55097W        W16408  36.054   1.390   4.839
55098W        W16409  44.288  10.231   0.888
55099W        W16410  41.438  29.011   4.754
55100W        W16411   8.780  11.624  11.580
55101W        W16412   0.891   5.771  14.877
55102W        W16413  21.201  27.665   0.341
55103W        W16414   2.908  44.356   2.358
55104W        W16415  25.084  28.663   4.279
55105W        W16416  41.374  27.449  11.065
55106W        W16417  25.987   5.727  11.960
55107W        W16418  10.144  35.359   4.130
55108W        W16419  25.205   8.677   5.084
55109W        W16420  28.933  32.079   0.774
55110W        W16421  35.882   6.280  10.596
55111W        W16422  14.615  34.606   3.791
55112W        W16423  39.904  42.365  13.465
55113W        W16424  39.994  43.973  12.419
55114W        W16425  18.551  39.065   1.812
55115W        W16426  11.310  25.614   1.320
55116W        W16427  35.522  28.598   4.646
55117W        W16428  33.949  16.096   2.320
55118W        W16429  15.620   5.933   5.119
55119W        W16430  20.573  40.517  12.409
55120W        W16431   9.327  13.639  10.969
55121W        W16432  13.778   0.980   2.400
55122W        W16433  27.129   7.842  11.560
55123W        W16434  38.480  20.575  11.933
55124W        W16435  44.402  28.054  13.406
55125W        W16436   9.759  44.380   4.296
55126W        W16437   9.184   6.875  11.468
55127W        W16438   1.905  34.086  14.943
55128W        W16439  40.035  42.384  12.930
55129W        W16440  35.452  16.661  14.961
55130W        W16441  34.098  36.863  12.008
55131W        W16442  37.912  40.015   3.818
55132W        W16443  27.606  32.561  13.924
55133W        W16444  10.636  40.033  13.374
55134W        W16445  24.047   3.752   1.859
55135W        W16446   9.674  39.482   1.322
55136W        W16447  18.240  28.959  10.906
55137W        W16448  39.990  11.277  14.478
55138W        W16449   9.299  25.103  14.339
55139W        W16450  30.421  30.164  11.984
55140W        W16451  18.738  15.732   2.740
55141W        W16452   8.806   5.233  14.815
55142W        W16453  29.521  28.124   1.857
55143W        W16454  28.478  22.222  10.464
55144W        W16455  17.626  30.017   3.290
55145W        W16456  33.557  34.528  11.928
55146W        W16457  43.880  34.021   0.785
55147W        W16458  27.163   0.780   3.150
55148W        W16459  17.633  24.598  13.864
55149W        W16460  32.136   6.238  12.520
55150W        W16461  26.685  28.000   0.809
55151W        W16462   5.893  37.951  10.922
55152W        W16463  32.594   6.792  10.939
55153W        W16464  33.114  16.663   2.402
55154W        W16465   6.732  32.121  12.934
55155W        W16466  10.801  10.808  10.608
55156W        W16467  14.739  33.047   0.311
55157W        W16468  21.147  17.218  14.350
55158W        W16469  18.562  44.929  10.628
55159W        W16470  17.092  11.814  12.839
55160W        W16471  31.083  33.621   3.760
55161W        W16472  25.658   2.768  12.910
55162W        W16473  34.448  36.479  11.956
55163W        W16474   3.261   1.239  14.350
55164W        W16475   9.735  31.552  14.347
55165W        W16476  12.264   3.358   9.582
55166W        W16477  10.788  37.007   3.805
55167W        W16478  22.596  34.457   1.367
55168W        W16479  44.265   9.182  12.565
55169W        W16480  15.816  26.954  11.946
55170W        W16481  16.783  44.761   2.673
55171W        W16482  18.196  11.146   1.261
55172W        W16483  21.614  30.123   1.308
55173W        W16484  40.824   4.292  13.934
55174W        W16485   9.177   7.285   2.350
55175W        W16486  44.310  39.511   3.206
55176W        W16487   1.330  38.542  14.923
55177W        W16488  18.208   8.870   1.427
55178W        W16489  42.780  42.433   3.822
55179W        W16490  33.114   8.218   4.795
55180W        W16491  17.116  20.627   2.353
55181W        W16492  22.241  37.031  11.426
55182W        W16493   9.318  28.979   2.393
55183W        W16494  12.748  24.201  11.095
55184W        W16495   5.854   3.845  11.027
55185W        W16496  10.835  16.187   4.126
55186W        W16497  36.465  39.536  14.011
55187W        W16498  44.803  34.899  13.023
55188W        W16499  24.106  25.595  11.968
55189W        W16500   9.760  13.158   1.333
55190W        W16501  34.599  15.701   1.424
55191W        W16502  34.458  29.509   1.269
55192W        W16503  17.245  42.334  12.011
55193W        W16504  41.915   2.336  13.802
55194W        W16505  31.463  43.913   4.746
55195W        W16506  43.915  15.308   4.666
55196W        W16507   3.914  39.420   4.758
55197W        W16508  19.578  38.061  14.303
55198W        W16509  22.097  13.138   2.897
55199W        W16510  30.914  38.056  10.468
55200W        W16511  20.164   9.347   4.337
55201W        W16512  28.954   3.933   9.631
55202W        W16513   4.333  42.805  12.952
55203W        W16514  19.594   2.311  13.342
55204W        W16515  41.500  20.765  12.083
55205W        W16516  12.138  41.373   2.235
55206W        W16517  20.048  41.481  12.872
55207W        W16518  39.889  42.881   4.143
55208W        W16519  20.576  40.315   5.101
55209W        W16520  34.881  13.680  11.071
55210W        W16521   0.270  32.571  12.445
55211W        W16522  23.585  39.481   0.888
55212W        W16523  39.991   1.841  10.581
55213W        W16524  44.370  11.185   1.898
55214W        W16525  39.857  11.756   3.796
55215W        W16526  27.550  29.642   1.879
55216W        W16527   0.985  36.087   3.273
55217W        W16528  32.118   3.868  12.846
55218W        W16529  18.097  12.792  10.598
55219W        W16530   2.940  32.589  13.313
55220W        W16531  17.232  35.057   2.249
55221W        W16532   6.186  22.047  12.071
55222W        W16533  44.482  20.765  10.916
55223W        W16534  33.565  28.590   2.224
55224W        W16535   5.931  43.454  13.915
55225W        W16536  41.006  17.108  13.798
55226W        W16537  13.180  27.578  12.345
55227W        W16538   2.379  14.598  10.540
55228W        W16539  13.812  19.664  11.577
55229W        W16540  14.628  17.565  14.389
55230W        W16541   4.249  44.327  14.988
55231W        W16542  21.220  25.051  13.492
55232W        W16543  44.007  30.992   3.165
55233W        W16544  15.084   3.337  12.922
55234W        W16545  29.593   5.411  14.413
55235W        W16546   3.391  22.174   1.845
55236W        W16547  25.566  40.929  11.406
55237W        W16548  22.596  25.024  11.908
55238W        W16549  15.173  20.621   4.656
55239W        W16550  15.205  39.858   1.764
55240W        W16551  29.018  27.164  14.777
55241W        W16552  42.781  34.406  12.028
55242W        W16553   0.981  35.548  14.798
55243W        W16554  10.742   4.215   4.817
55244W        W16555  30.080  20.265  13.901
55245W        W16556  32.015  17.637  10.425
55246W        W16557  23.192  31.503   2.664
55247W        W16558  39.006  33.626   4.293
55248W        W16559   1.857  21.113  12.534
55249W        W16560  41.926  39.338   3.794
55250W        W16561  39.966  26.482   0.739
55251W        W16562  21.033  21.678   5.282
55252W        W16563   7.790  12.646  10.132
55253W        W16564  30.637  25.160   0.456
55254W        W16565  22.729   7.828   3.691
55255W        W16566  11.187  22.601  13.987
55256W        W16567  42.427  31.904   2.389
55257W        W16568  25.001  25.101   9.968
55258W        W16569   3.240  23.004   1.910
55259W        W16570  38.951   8.358   3.654
55260W        W16571  16.650  39.336  13.357
55261W        W16572  34.046  27.480   3.203
55262W        W16573   5.339  21.627   4.709
55263W        W16574  11.652   6.883  11.018
55264W        W16575  23.091  36.947   2.715
55265W        W16576  32.894   3.389   4.137
55266W        W16577  25.605  44.826  11.887
55267W        W16578   6.276  24.129  12.033
55268W        W16579  33.455  21.074  13.000
55269W        W16580  32.056  30.971  10.605
55270W        W16581   6.395  23.166   3.715
55271W        W16582  44.790   4.314   2.774
55272W        W16583  38.375  38.345  12.567
55273W        W16584  43.897  31.000  12.568
55274W        W16585  32.436  43.307   3.825
55275W        W16586  10.208  41.364  13.888
55276W        W16587   2.403  35.941   2.736
55277W        W16588  34.954  19.166  13.380
55278W        W16589  22.740  23.995   3.165
55279W        W16590  41.800  39.515   2.316
55280W        W16591  23.238   9.303  11.434
55281W        W16592  23.657   6.349   0.768
55282W        W16593  28.933   5.883  12.886
55283W        W16594   0.456  35.097  13.801
55284W        W16595   4.315  19.762  12.545
55285W        W16596   1.867  42.306  14.835
55286W        W16597   0.383  10.636  12.889
55287W        W16598  27.462  25.010  11.957
55288W        W16599   6.416  23.146   1.253
55289W        W16600  29.153   9.762  10.552
55290W        W16601  40.800   2.378  14.949
55291W        W16602  25.551   4.934   2.884
55292W        W16603  19.088  27.481   0.284
55293W        W16604  36.452   5.926  13.418
55294W        W16605  17.659   0.810   3.864
55295W        W16606   1.747   5.774   3.357
55296W        W16607  35.527   9.372   2.242
55297W        W16608   3.778  14.297  10.941
55298W        W16609   9.312  25.001   3.642
55299W        W16610  44.486  42.526  13.842
55300W        W16611  17.664  31.073   0.745
55301W        W16612  17.623  18.752   0.798
55302W        W16613  40.463  41.016   2.327
55303W        W16614  16.685   3.449  14.488
55304W        W16615  16.606  14.302  13.948
55305W        W16616  35.382  39.858   5.108
55306W        W16617  31.126  38.521  14.367
55307W        W16618   6.261  32.962   3.325
55308W        W16619  29.506  17.294  13.904
55309W        W16620   9.716  41.037  12.026
55310W        W16621   0.780  19.165  11.414
55311W        W16622   5.691  44.395   0.814
55312W        W16623  40.930  41.972  12.926
55313W        W16624  42.948   2.921  14.788
55314W        W16625   0.908  26.702  14.933
55315W        W16626  22.097  33.430   2.690
55316W        W16627  28.989  32.083   4.672
55317W        W16628  26.056  21.212  14.831
55318W        W16629  13.144  28.137  13.934
55319W        W16630  10.711   6.233   1.807
55320W        W16631  13.840  18.286  13.938
55321W        W16632  20.182   8.725   2.283
55322W        W16633  31.601  11.834  10.475
55323W        W16634  14.601  37.083   4.812
55324W        W16635  24.614  18.284   2.194
55325W        W16636  21.235  40.798  11.511
55326W        W16637  28.632  39.560   3.727
55327W        W16638   9.763   8.252   3.206
55328W        W16639  42.511  42.456  14.927
55329W        W16640   7.768  35.039  10.522
55330W        W16641  13.346   2.295   2.382
55331W        W16642  10.655   4.935  14.775
55332W        W16643   3.456  27.640   3.675
55333W        W16644  12.780   2.883  14.415
55334W        W16645  31.955  38.481   4.255
55335W        W16646  31.997  28.181  13.412
55336W        W16647   4.386  37.521  14.375
55337W        W16648  35.543   6.376  14.342
55338W        W16649  14.277  20.190   4.834
55339W        W16650  34.409  35.007   0.758
55340W        W16651   0.424   7.229   1.312
55341W        W16652  16.227  28.669  12.564
55342W        W16653  33.566   2.267  13.390
55343W        W16654  14.192  42.451   3.278
55344W        W16655  17.157   3.943   1.308
55345W        W16656  41.328  43.421   0.739
55346W        W16657  25.469  38.914   1.923
55347W        W16658  22.575  36.371  14.465
55348W        W16659  13.110  11.731  14.317
55349W        W16660  18.585  21.187  11.470
55350W        W16661  19.682  23.152   3.823
55351W        W16662  27.074  35.560   3.384
55352W        W16663   1.850  42.525   0.362
55353W        W16664  21.521  32.460  12.576
55354W        W16665  25.024   2.422   2.285
55355W        W16666   1.872   4.400  12.838
55356W        W16667  34.450  35.533   1.355
55357W        W16668  19.603  26.191   4.261
55358W        W16669   9.862  28.521   2.730
55359W        W16670  32.010  18.193  10.417
55360W        W16671  41.516  11.279  13.866
55361W        W16672  14.196   9.318   1.933
55362W        W16673  33.502  28.106   3.176
55363W        W16674  43.975  22.155   3.775
55364W        W16675  13.326  30.588   4.641
55365W        W16676  23.503  18.732   4.339
55366W        W16677  26.531  11.735   3.353
55367W        W16678   2.235  10.644  11.559
55368W        W16679  33.379   0.435   1.769
55369W        W16680  13.829  20.153  13.400
55370W        W16681   9.150   3.251  11.878
55371W        W16682  27.481  33.118   2.685
55372W        W16683  15.140  11.805  13.462
55373W        W16684  16.253  41.793  13.028
55374W        W16685   0.766  15.758   4.198
55375W        W16686  34.452  18.550   3.300
55376W        W16687  38.065  36.444   9.480
55377W        W16688  16.288   3.804   0.889
55378W        W16689  26.092  15.715  13.056
55379W        W16690  14.305  25.650   2.231
55380W        W16691  16.810   7.856   4.597
55381W        W16692   8.891  34.410   1.386
55382W        W16693  37.408  43.303   4.766
55383W        W16694  17.193  26.591   1.377
55384W        W16695  41.296   4.248   4.828
55385W        W16696  11.253   8.729  14.276
55386W        W16697  29.489  19.194   2.289
55387W        W16698  42.320  24.617   4.127
55388W        W16699   7.196  10.764  13.972
55389W        W16700   5.295   0.489  13.351
55390W        W16701   6.355  29.025   4.724
55391W        W16702   5.896  37.948  13.505
55392W        W16703  21.663  22.631  13.919
55393W        W16704  33.542  40.448   1.324
55394W        W16705   5.313   8.400   2.740
55395W        W16706  13.802  38.944  12.036
55396W        W16707   7.284  22.211   2.665
55397W        W16708  20.718  37.845   5.316
55398W        W16709   5.697  40.839   4.158
55399W        W16710   0.791  13.268  12.534
55400W        W16711  14.651   5.436   9.941
55401W        W16712  34.561   6.889   3.330
55402W        W16713  44.306  26.177   1.313
55403W        W16714  10.297   2.929  13.452
55404W        W16715  13.186   4.435   3.869
55405W        W16716  35.068  22.175  14.309
55406W        W16717  13.651  22.554   1.893
55407W        W16718  31.113   4.813   1.927
55408W        W16719  27.539  23.179  10.992
55409W        W16720   8.330   2.226  12.573
55410W        W16721  14.232   5.357  11.863
55411W        W16722  10.711  30.526   3.175
55412W        W16723   5.397  21.630  12.839
55413W        W16724   2.370  40.843  10.431
55414W        W16725   9.887  20.528  13.944
55415W        W16726   8.673   1.752  10.472
55416W        W16727  38.400  35.871  14.484
55417W        W16728   7.768  19.283   4.283
55418W        W16729  27.958   2.405   2.665
55419W        W16730  11.148  31.500   1.258
55420W        W16731  25.048  16.181  12.909
55421W        W16732  38.451  12.302  14.400
55422W        W16733  41.310   0.836   2.708
55423W        W16734  12.705  16.244  10.915
55424W        W16735  43.971  43.911  13.543
55425W        W16736  37.349  35.504  12.372
55426W        W16737  24.193  27.490   3.381
55427W        W16738  29.522  38.531   4.607
55428W        W16739  12.857  33.534   1.745
55429W        W16740   4.305  42.281  12.357
55430W        W16741  12.767  30.526   2.388
55431W        W16742   2.413  17.715  14.933
55432W        W16743  39.378  25.546   3.668
55433W        W16744   6.303  36.408   0.298
55434W        W16745  32.022  12.329   0.352
55435W        W16746   2.277   2.870   2.326
55436W        W16747  16.274   1.395   3.340
55437W        W16748   5.837  19.742  10.090
55438W        W16749  12.768  30.113   2.737
55439W        W16750  12.117  32.076   0.430
55440W        W16751  10.741  43.352   4.672
55441W        W16752  28.981  39.481  11.547
55442W        W16753   7.753   3.282  13.324
55443W        W16754   6.315   8.710   1.819
55444W        W16755  11.766  23.652   1.826
55445W        W16756  25.189  23.173  10.975
55446W        W16757  31.141  25.080  10.427
55447W        W16758   9.345   6.752   4.657
55448W        W16759  14.610  39.003   5.241
55449W        W16760  27.545  23.237  10.408
55450W        W16761  27.041  27.001   3.862
55451W        W16762  29.484  18.587   2.292
55452W        W16763  17.122   3.256  12.084
55453W        W16764  32.027  17.177  10.480
55454W        W16765  15.776  30.022   1.311
55455W        W16766  40.912  11.320  12.406
55456W        W16767  42.507  35.969   0.751
55457W        W16768  10.713  19.591   3.803
55458W        W16769   7.346  22.672   1.245
55459W        W16770   0.365  14.140  11.505
55460W        W16771  15.103  41.835   4.822
55461W        W16772  19.148  36.394  12.918
55462W        W16773  44.849  38.974   2.200
55463W        W16774  35.499  31.087   1.871
55464W        W16775   6.371   1.825   5.222
55465W        W16776  35.884  44.471  10.977
55466W        W16777  30.040  33.528   1.237
55467W        W16778  19.652  25.636  12.343
55468W        W16779   0.352  29.447   3.274
55469W        W16780  15.181  18.575   2.794
55470W        W16781  10.152  43.769   0.399
55471W        W16782  27.523  30.651   4.771
55472W        W16783  14.801  38.824   0.941
55473W        W16784  27.119  39.866   3.165
55474W        W16785  41.794  39.409  12.431
55475W        W16786  42.953   9.368  14.877
55476W        W16787   4.437  25.545  10.887
55477W        W16788  30.517   9.323  12.039
55478W        W16789  35.532   4.246   0.343
55479W        W16790  36.350  25.638  12.521
55480W        W16791   4.745  43.832   3.825
55481W        W16792  25.198   3.458   3.846
55482W        W16793  26.549  14.139   3.793
55483W        W16794  30.914  34.612  10.454
55484W        W16795  25.579  37.442   0.730
55485W        W16796   6.339   1.440   1.729
55486W        W16797  22.730  13.290  10.905
55487W        W16798  37.931  44.765  12.402
55488W        W16799  11.230  25.106  11.607
55489W        W16800  38.567  41.855   4.161
55490W        W16801   7.880  39.468  11.872
55491W        W16802  14.169  16.783  11.950
55492W        W16803   5.294  36.042  13.954
55493W        W16804  19.066  37.351  10.439
55494W        W16805  13.145  37.900   4.237
55495W        W16806  30.482  11.300  14.805
55496W        W16807   8.304  18.160  11.389
55497W        W16808   7.367   8.786  13.045
55498W        W16809   3.235   6.336  11.503
55499W        W16810  35.062   7.231  11.445
55500W        W16811   7.812  17.128   0.893
55501W        W16812  16.231  39.942   4.758
55502W        W16813   4.834  19.632   5.171
55503W        W16814  38.819  14.313  14.813
55504W        W16815   6.697  11.323   4.778
55505W        W16816   6.821  19.269  14.325
55506W        W16817  34.543  28.001   0.413
55507W        W16818  33.411  19.593   2.251
55508W        W16819  31.616  25.494  12.861
55509W        W16820   8.818  32.467   2.195
55510W        W16821  21.217  40.984  11.095
55511W        W16822  40.946  42.961   1.728
55512W        W16823  13.205  28.071   1.235
55513W        W16824  31.530   8.772  14.979
55514W        W16825   3.728   7.878  14.496
55515W        W16826   1.829  14.186  11.381
55516W        W16827  40.018  13.244  11.044
55517W        W16828  13.670   4.814  14.856
55518W        W16829  38.830   7.846  13.884
55519W        W16830  36.956  39.360  11.480
55520W        W16831  18.671  42.427  10.931
55521W        W16832  31.510  17.599  13.977
55522W        W16833  34.488  30.648  11.099
55523W        W16834  34.522   0.888   1.417
55524W        W16835  25.660  38.880   3.227
55525W        W16836  30.019  20.697   1.771
55526W        W16837  30.151   4.941   3.270
55527W        W16838  12.677  15.265   0.460
55528W        W16839  13.668  16.180   0.463
55529W        W16840  43.836   4.925  13.486
55530W        W16841  14.126  41.839  13.021
55531W        W16842  42.938  15.750  13.528
55532W        W16843  42.920  25.120  12.995
55533W        W16844   9.686  32.963  11.523
55534W        W16845   4.892  38.827  14.887
55535W        W16846  30.129  20.682  11.392
55536W        W16847   7.375   9.387   4.299
55537W        W16848  19.208  11.766  12.842
55538W        W16849   4.237  13.171   2.246
55539W        W16850  12.161  34.571  12.937
55540W        W16851   6.678  34.999  11.997
55541W        W16852  43.330  31.022  13.400
55542W        W16853  15.302  24.710  13.343
55543W        W16854  33.571  18.270  14.411
55544W        W16855  25.550   6.829   4.669
55545W        W16856  20.047  15.269  10.605
55546W        W16857  17.123  10.250   4.232
55547W        W16858   1.772   2.432  13.886
55548W        W16859   0.850  18.632  10.479
55549W        W16860  19.250   0.856   3.792
55550W        W16861  37.993  31.587   9.486
55551W        W16862  35.894  19.629   3.739
55552W        W16863  11.758   2.834   0.337
55553W        W16864  32.469   6.353  13.056
55554W        W16865  19.118  40.925  10.415
55555W        W16866   3.775  13.630   1.846
55556W        W16867  17.589  13.229   3.258
55557W        W16868  13.297  13.810  14.834
55558W        W16869  30.008  38.821   3.632
55559W        W16870  43.871  31.043  11.588
55560W        W16871  10.771   1.756  12.900
55561W        W16872  34.459   9.747   2.183
55562W        W16873  29.077  18.066   4.156
55563W        W16874   0.457  14.670   0.855
55564W        W16875  15.205   9.262  14.830
55565W        W16876  28.120   9.199   4.253
55566W        W16877  31.448  33.904   4.303
55567W        W16878  17.773  39.054   1.300
55568W        W16879  31.630   6.820   1.898
55569W        W16880  10.185  14.265  12.391
55570W        W16881  23.046   7.259   0.287
55571W        W16882  13.161  29.019   2.231
55572W        W16883  41.930  23.603  10.561
55573W        W16884   9.224  21.528   3.344
55574W        W16885   8.394  44.885   3.336
55575W        W16886  36.922  41.844  11.936
55576W        W16887  19.712  32.135  14.993
55577W        W16888  10.203  11.846   2.878
55578W        W16889  35.521  43.008  11.473
55579W        W16890  37.440   4.292   4.290
55580W        W16891  24.078  43.466   1.826
55581W        W16892  35.580   3.956   1.873
55582W        W16893  27.609  23.086   0.430
55583W        W16894  19.762   7.349   4.703
55584W        W16895  36.013  43.878   0.334
55585W        W16896  13.107   0.493   3.231
55586W        W16897  27.176  30.646  10.009
55587W        W16898  11.310  36.541   0.379
55588W        W16899  31.084  31.576   4.318
55589W        W16900  40.023  22.066  10.933
55590W        W16901   8.229  14.597  14.848
55591W        W16902  23.029  37.867  12.472
55592W        W16903   8.317  39.852  10.985
55593W        W16904  29.064   4.916  10.436
55594W        W16905  31.080  17.090   1.338
55595W        W16906  31.135  26.556  11.482
55596W        W16907   1.464  41.380  14.366
55597W        W16908  29.938  22.109  11.374
55598W        W16909   3.433  21.595  14.498
55599W        W16910   0.430  28.016  10.469
55600W        W16911  16.085  40.439   0.831
55601W        W16912   1.895  27.486  13.906
55602W        W16913  29.945  15.208   0.452
55603W        W16914   3.272  43.909   3.316
55604W        W16915  21.577   4.359  10.635
55605W        W16916   1.793  29.965   2.219
55606W        W16917   8.166  44.967   0.384
55607W        W16918   7.350  25.183   0.280
55608W        W16919  24.160   4.353   2.271
55609W        W16920  34.448  31.913   1.383
55610W        W16921  16.588  41.476  13.822
55611W        W16922   1.959   2.767   1.768
55612W        W16923  26.042  31.913  14.842
55613W        W16924  12.141  23.716  11.572
55614W        W16925  10.200  39.840   3.804
55615W        W16926  14.792  36.015   0.449
55616W        W16927  29.462  17.725  13.367
55617W        W16928  33.557  39.827  13.376
55618W        W16929  14.806   5.722   0.477
55619W        W16930  26.161  24.213   3.686
55620W        W16931  22.665  25.057   1.864
55621W        W16932  38.034  44.473   0.779
55622W        W16933  35.008   8.332   4.831
55623W        W16934  44.935  11.245  11.540
55624W        W16935  37.456  15.761   0.294
55625W        W16936  39.525  44.343   2.720
55626W        W16937  42.454  32.577   2.839
55627W        W16938   7.763  21.650  12.967
55628W        W16939  18.689  33.041  11.510
55629W        W16940   6.367  13.695   5.185
55630W        W16941   7.846   0.860   3.636
55631W        W16942  42.957  41.296  11.460
55632W        W16943   9.740  38.901  10.415
55633W        W16944   0.847  36.047  11.572
55634W        W16945   9.253  32.989  12.378
55635W        W16946  10.184  22.684   1.779
55636W        W16947  12.127  24.094  11.981
55637W        W16948  34.087  39.384   0.259
55638W        W16949  40.977  16.614  11.540
55639W        W16950  14.677  37.408   2.677
55640W        W16951  35.972   1.902  13.467
55641W        W16952  31.415  42.470   4.114
55642W        W16953  10.804   5.849  12.862
55643W        W16954  36.848   2.421  10.564
55644W        W16955  44.008  15.209  14.977
55645W        W16956  14.634  15.657  12.868
55646W        W16957  29.095   1.350   3.736
55647W        W16958  16.313   2.334   2.806
55648W        W16959  26.628  38.482   1.295
55649W        W16960   9.837  12.327   0.745
55650W        W16961  29.612  21.255  10.060
55651W        W16962  23.170  18.262   0.299
55652W        W16963  20.240  11.636  14.902
55653W        W16964  31.974  19.285  12.892
55654W        W16965  22.201  37.359  12.924
55655W        W16966  12.205   9.335   2.874
55656W        W16967   1.767  13.257   0.866
55657W        W16968  12.341  18.231  11.383
55658W        W16969   8.282   1.464  14.393
55659W        W16970   2.267  25.967  14.415
55660W        W16971  19.624  37.480   2.336
55661W        W16972   6.729   7.783   4.158
55662W        W16973  41.526  39.382  14.476
55663W        W16974   3.948  33.442   0.946
55664W        W16975  16.575  17.600  13.390
55665W        W16976  42.784   9.819   0.352
55666W        W16977  39.002  33.602  14.864
55667W        W16978  39.480  25.000  11.071
55668W        W16979   8.844  37.343  14.449
55669W        W16980  41.944  31.046   0.772
55670W        W16981  18.178  14.819  11.018
55671W        W16982  21.675  14.773   4.197
55672W        W16983  37.580   6.283  11.861
55673W        W16984  13.161  34.553  12.946
55674W        W16985   5.895  12.797   0.445
55675W        W16986  35.511  11.297   1.360
55676W        W16987  44.374  27.062  12.873
55677W        W16988   3.871  21.242  10.580
55678W        W16989  18.650  12.351   3.206
55679W        W16990  19.688  17.112  11.485
55680W        W16991  19.634   1.954  10.450
55681W        W16992   3.744   5.890   3.636
55682W        W16993  14.237  19.210   3.694
55683W        W16994  16.089   0.781  10.602
55684W        W16995   4.232  30.094  10.412
55685W        W16996   7.325  28.023  13.029
55686W        W16997  15.654  24.674  13.310
55687W        W16998  33.615  38.849   2.318
55688W        W16999  19.643  17.771  13.395
55689W        W17000  28.974  10.726  11.042
55690W        W17001  15.698   7.843  12.028
55691W        W17002   9.843  29.593  10.904
55692W        W17003   5.201  40.344   3.827
55693W        W17004   7.715  27.144  14.352
55694W        W17005  18.559   3.398  10.587
55695W        W17006  32.015  26.198  12.085
55696W        W17007  33.100   1.300   3.809
55697W        W17008  33.591  35.997  11.529
55698W        W17009   0.940  40.527  11.104
55699W        W17010  43.779  26.536   0.253
55700W        W17011  15.689  26.509   2.840
55701W        W17012  21.031  36.509  12.565
55702W        W17013  37.370  12.737  10.943
55703W        W17014   5.294  36.507  11.950
55704W        W17015  17.285  12.852  10.574
55705W        W17016  27.548  29.152   3.675
55706W        W17017   5.705  33.096   2.270
55707W        W17018   4.304  42.833  10.543
55708W        W17019  31.575   7.413  14.986
55709W        W17020   8.739   6.308   3.760
55710W        W17021  32.894  37.946  11.032
55711W        W17022  19.132  38.054   3.770
55712W        W17023   7.888  41.957  10.496
55713W        W17024  43.844  32.097  14.365
55714W        W17025  23.055  35.359  13.469
55715W        W17026  26.465  18.724  11.868
55716W        W17027  38.469  33.565   2.331
55717W        W17028  14.729  34.903   3.697
55718W        W17029   3.266  27.677   2.418
55719W        W17030   1.455  40.457  14.337
55720W        W17031  28.998  20.656   0.960
55721W        W17032  27.047  10.798  13.378
55722W        W17033  13.260  26.072  13.448
55723W        W17034  42.890   5.791   2.408
55724W        W17035  26.104  12.633   2.748
55725W        W17036  42.338  27.568   0.924
55726W        W17037  39.965  11.190  12.508
55727W        W17038  26.606  21.575  13.877
55728W        W17039   0.974   5.350  14.970
55729W        W17040  36.882   7.369   2.717
55730W        W17041  27.980   3.293   0.886
55731W        W17042   0.474  19.090  11.881
55732W        W17043  36.040  40.523  13.454
55733W        W17044  38.945  27.069  13.812
55734W        W17045  20.535   3.446  10.502
55735W        W17046  39.816  35.488  13.793
55736W        W17047  41.447  24.158   3.723
55737W        W17048   6.838  32.536   1.389
55738W        W17049  30.010   6.341   2.863
55739W        W17050  40.324  37.044   4.627
55740W        W17051  16.805  32.893   0.830
55741W        W17052   7.723  44.403   2.853
55742W        W17053  39.516  43.861   1.259
55743W        W17054   8.738  14.186  14.276
55744W        W17055  26.042  40.969   1.412
55745W        W17056   3.916  15.233   3.233
55746W        W17057  30.942   0.415  13.952
55747W        W17058  21.099  37.924   4.353
55748W        W17059   6.712  19.606   3.731
55749W        W17060  21.195  36.578   0.835
55750W        W17061  14.680   4.238   2.280
55751W        W17062  30.623  24.509   3.296
55752W        W17063  39.032  25.113  14.432
55753W        W17064  26.630  34.415  14.801
55754W        W17065  29.090  38.850   4.794
55755W        W17066  16.316   4.863  14.011
55756W        W17067  16.088  20.742  12.383
55757W        W17068  37.005  17.681   1.744
55758W        W17069  23.187  43.941  14.951
55759W        W17070  44.321  19.078   0.846
55760W        W17071  41.484   4.326   2.410
55761W        W17072  25.573  16.660   5.251
55762W        W17073  17.675  44.867   1.698
55763W        W17074  20.250  29.029  14.495
55764W        W17075  41.501   5.722  13.034
55765W        W17076  30.139  37.845  14.015
55766W        W17077  17.583  17.304  12.854
55767W        W17078  40.489  36.393  12.895
55768W        W17079   1.437  13.806   0.873
55769W        W17080   3.734  34.490  12.008
55770W        W17081   1.432  35.446  13.414
55771W        W17082  40.821  15.169  14.365
55772W        W17083  14.714  12.131  14.935
55773W        W17084  29.520  15.803  13.062
55774W        W17085  14.778  42.477   1.804
55775W        W17086   6.259  28.160   4.836
55776W        W17087  16.213  39.891  14.886
55777W        W17088  42.846   7.201   1.831
55778W        W17089  44.899   6.910  11.981
55779W        W17090  39.453  25.479  14.991
55780W        W17091  18.617  36.056   1.696
55781W        W17092  10.734  23.179   0.871
55782W        W17093  17.188  44.805  14.496
55783W        W17094  31.049  10.781   3.644
55784W        W17095  32.928  34.913   4.179
55785W        W17096  31.632  32.516  12.852
55786W        W17097   1.965  43.986   3.337
55787W        W17098  14.104  33.913   3.815
55788W        W17099  21.099  42.328  10.526
55789W        W17100   3.246   6.326   4.322
55790W        W17101   6.253   8.673  13.324
55791W        W17102  26.568  32.409   4.314
55792W        W17103  23.019  32.108   4.788
55793W        W17104  17.588  10.661   1.407
55794W        W17105  29.030  18.693  10.579
55795W        W17106  35.097  10.809   4.801
55796W        W17107  30.928  42.868   3.170
55797W        W17108  17.198  11.653  11.518
55798W        W17109  31.426  35.855  11.451
55799W        W17110  36.459  25.012   5.180
55800W        W17111  40.805  29.114   3.190
55801W        W17112   0.947   4.705   2.223
55802W        W17113  39.978  16.314   3.852
55803W        W17114  15.239  35.524  11.551
55804W        W17115  14.253  32.500   4.297
55805W        W17116  17.106   4.878  12.931
55806W        W17117   5.725  40.334   0.901
55807W        W17118  13.190  24.043  11.977
55808W        W17119   9.173  39.056   2.185
55809W        W17120   3.278   6.202  14.912
55810W        W17121  25.990  30.108   3.807
55811W        W17122   4.861  37.351  11.561
55812W        W17123  26.475  39.954  13.976
55813W        W17124  27.647  11.673   4.153
55814W        W17125  29.101  17.555   4.734
55815W        W17126   7.416   0.770  12.523
55816W        W17127  38.952   5.324  11.090
55817W        W17128  44.457  14.797  13.804
55818W        W17129   2.266  43.870   3.222
55819W        W17130   8.386  19.595   1.444
55820W        W17131   5.328  28.082  13.026
55821W        W17132  14.665  20.137  12.481
55822W        W17133  27.101  24.722  13.857
55823W        W17134  36.881  42.793   0.898
55824W        W17135   0.933  26.496  10.889
55825W        W17136  14.285  14.293   5.291
55826W        W17137  37.997   4.760   1.926
55827W        W17138  43.841  30.128   3.366
55828W        W17139  15.145  29.520   2.830
55829W        W17140  20.638   6.389  13.463
55830W        W17141  41.536  36.841   1.259
55831W        W17142  44.281   5.891   0.329
55832W        W17143   0.277  12.177  13.525
55833W        W17144   0.982  19.779  11.589
55834W        W17145  30.938  40.522   5.122
55835W        W17146  12.266  17.183  10.616
55836W        W17147  38.328  42.492  11.968
55837W        W17148   5.748  19.665  12.092
55838W        W17149  23.675  17.780  10.038
55839W        W17150  16.308  43.773  14.460
55840W        W17151  15.187  34.001  12.566
55841W        W17152  36.452  13.815  11.575
55842W        W17153  13.248  39.922  13.475
55843W        W17154   2.323  25.097   4.198
55844W        W17155  11.781  42.445   1.282
55845W        W17156  22.742   3.902  10.428
55846W        W17157  24.004  11.303  12.408
55847W        W17158  28.547  44.966   2.876
55848W        W17159  21.017  41.884   2.680
55849W        W17160  35.079  36.975   0.284
55850W        W17161  10.279  24.480   3.300
55851W        W17162  25.091  27.053   3.256
55852W        W17163   8.848  27.966  11.126
55853W        W17164  10.288  29.497   4.833
55854W        W17165  28.497   2.828  12.413
55855W        W17166  37.067  14.317   0.357
55856W        W17167  26.468  35.970   1.857
55857W        W17168   6.694  30.934  11.953
55858W        W17169   3.274  17.673  13.056
55859W        W17170  15.634  40.533  14.014
55860W        W17171   7.902  41.419   2.704
55861W        W17172   5.896   1.381  10.597
55862W        W17173  29.446  24.506   2.279
55863W        W17174  16.600  21.222  11.519
55864W        W17175  20.756   6.772  13.976
55865W        W17176   1.840  34.395  14.441
55866W        W17177  31.479  12.262  14.951
55867W        W17178  25.140  13.754  14.477
55868W        W17179   5.763  16.084   3.796
55869W        W17180  17.663  26.174   3.792
55870W        W17181  34.544  42.287  11.026
55871W        W17182  44.937  12.290   3.749
55872W        W17183  20.039  27.457  13.360
55873W        W17184  13.294  24.534  14.479
55874W        W17185  24.002  44.881   2.394
55875W        W17186  32.951   3.235  12.951
55876W        W17187  24.191  18.788  12.076
55877W        W17188  27.691  44.925   2.818
55878W        W17189  26.613  17.655  11.083
55879W        W17190  29.497  28.499   4.758
55880W        W17191  41.912  23.215  13.948
55881W        W17192  15.129  11.861   4.267
55882W        W17193  13.134  43.498  14.999
55883W        W17194  33.410   2.786   4.788
55884W        W17195  30.483   8.807  11.410
55885W        W17196   4.350   1.788  14.379
55886W        W17197  24.488   0.389   2.699
55887W        W17198   6.298   2.882   2.224
55888W        W17199  25.644  13.809  11.484
55889W        W17200   2.929  19.065   3.783
55890W        W17201  38.037  40.930  13.425
55891W        W17202  10.264  37.998   0.787
55892W        W17203  13.181  41.513   3.260
55893W        W17204  41.477   0.410   3.262
55894W        W17205  42.296  42.908   3.650
55895W        W17206   0.793   3.351  11.983
55896W        W17207  27.177  22.020   0.807
55897W        W17208  31.031  20.113   4.170
55898W        W17209   0.274  16.584  10.963
55899W        W17210   4.920  42.527   2.688
55900W        W17211  20.548  26.081   2.257
55901W        W17212  44.850   3.227  10.595
55902W        W17213  21.241  41.350  11.019
55903W        W17214   8.832  40.316  14.837
55904W        W17215   3.281  24.218  13.792
55905W        W17216   4.858  36.420   4.279
55906W        W17217  35.049  19.670  12.855
55907W        W17218   5.322  19.536  10.451
55908W        W17219  31.104  42.020   1.390
55909W        W17220   9.241   6.236  12.574
55910W        W17221   0.358  21.151   4.237
55911W        W17222  26.041  16.178  14.910
55912W        W17223  39.816  29.035  10.625
55913W        W17224  44.837  41.428  14.506
55914W        W17225   7.233   7.408   3.148
55915W        W17226  36.412   7.881   1.393
55916W        W17227  19.605  25.990  14.866
55917W        W17228   9.311  37.523  10.565
55918W        W17229  36.980   0.821   1.877
55919W        W17230   5.430  17.659  14.841
55920W        W17231   0.751  34.468   3.816
55921W        W17232  43.271  11.766   0.961
55922W        W17233  27.163  10.662  12.924
55923W        W17234  15.293  29.562  10.485
55924W        W17235   0.274   5.242   1.291
55925W        W17236  41.037   6.697   2.794
55926W        W17237  40.327   7.800  12.032
55927W        W17238   1.311  41.977  11.025
55928W        W17239  42.525  31.521   1.330
55929W        W17240  22.125  43.807   1.896
55930W        W17241  17.133  44.475  11.923
55931W        W17242  37.980   7.395   5.254
55932W        W17243  25.642  44.976  10.552
55933W        W17244  39.485  37.070   3.683
55934W        W17245  43.484  11.308   3.797
55935W        W17246  18.130  20.270   0.793
55936W        W17247  19.546  13.721   0.288
55937W        W17248   4.428  29.998  14.318
55938W        W17249  38.338  32.556  11.938
55939W        W17250  10.250   9.350  14.946
55940W        W17251  37.480  18.268   2.856
55941W        W17252  32.622  20.067  11.097
55942W        W17253  28.619   2.451   0.288
55943W        W17254  25.623  21.556  11.485
55944W        W17255  30.461  15.714   4.613
55945W        W17256   8.366  28.046  12.056
55946W        W17257  14.141   7.281   3.671
55947W        W17258  17.272  29.146  12.047
55948W        W17259  28.944  21.668  10.892
55949W        W17260  35.920  13.673  14.332
55950W        W17261   3.742  12.322   3.685
55951W        W17262  21.135  23.007  11.012
55952W        W17263  32.586  17.253   3.652
55953W        W17264  23.010  13.304   1.914
55954W        W17265  25.055   2.404  10.595
55955W        W17266  16.657   6.380   2.403
55956W        W17267  22.149  28.485  11.579
55957W        W17268   1.869  14.267  10.560
55958W        W17269  23.082  26.474   4.267
55959W        W17270  44.380  21.744  14.397
55960W        W17271  28.990  43.765   0.421
55961W        W17272  15.814   8.216   2.261
55962W        W17273  24.675  16.305   0.787
55963W        W17274   9.763  20.201   2.700
55964W        W17275   8.297  24.090  14.364
55965W        W17276  21.086  19.096   1.784
55966W        W17277  33.485   0.869  13.475
55967W        W17278  35.102  28.073   4.614
55968W        W17279  13.809  11.197   2.406
55969W        W17280  44.790  17.218   2.663
55970W        W17281   5.382   4.359  10.489
55971W        W17282  16.722  32.123  12.885
55972W        W17283  30.073  35.950   2.773
55973W        W17284  12.263  15.793   3.826
55974W        W17285  14.805   6.379  10.157
55975W        W17286  37.481  36.414   1.305
55976W        W17287   2.276  28.513   1.299
55977W        W17288  32.143  17.110   0.936
55978W        W17289  34.927   1.431  12.552
55979W        W17290  38.361  11.630  11.473
55980W        W17291  17.607   8.812   0.271
55981W        W17292  29.427  15.214   4.671
55982W        W17293  25.099  11.680   2.901
55983W        W17294  32.136  34.471   2.314
55984W        W17295  30.530  14.298   3.843
55985W        W17296  10.234   2.763  12.425
55986W        W17297   4.408  26.112  14.396
55987W        W17298   5.924   1.404  12.906
55988W        W17299  40.860  21.635  10.479
55989W        W17300  42.310  22.015  13.433
55990W        W17301  35.441  44.816  13.481
55991W        W17302   0.449  44.800   2.371
55992W        W17303  39.856  44.455   2.202
55993W        W17304  37.402  29.129   3.749
55994W        W17305   0.371  30.542   1.419
55995W        W17306  17.296   9.341  11.611
55996W        W17307  44.947  29.112   3.299
55997W        W17308  13.653   9.701   4.651
55998W        W17309  44.388   3.791   3.152
55999W        W17310   6.751  17.740  14.006
56000W        W17311   4.424  14.276  13.416
56001W        W17312  26.068  12.651   3.274
56002W        W17313  26.692  18.623  13.542
56003W        W17314  18.096  30.942  14.996
56004W        W17315  21.231  40.489  11.403
56005W        W17316  33.893  32.901   9.534
56006W        W17317  16.274   7.679  14.353
56007W        W17318  35.100  20.623   4.807
56008W        W17319  32.074  25.098  14.018
56009W        W17320  37.364  25.964   3.317
56010W        W17321  30.077  27.955  14.513
56011W        W17322  15.103  19.089   2.837
56012W        W17323  41.008  23.176   0.400
56013W        W17324  39.360  35.944  14.017
56014W        W17325   3.374  41.867   0.930
56015W        W17326  25.089  15.222  12.382
56016W        W17327  41.309  16.199  14.516
56017W        W17328   6.889  42.339  12.933
56018W        W17329  34.572  35.937   2.858
56019W        W17330  25.673  37.947   1.224
56020W        W17331  28.596  44.006   1.919
56021W        W17332  15.096  44.430   1.343
56022W        W17333  33.117  28.464  10.560
56023W        W17334  22.224  18.183  11.082
56024W        W17335   7.685   4.442   2.315
56025W        W17336  17.650  34.904   4.796
56026W        W17337  20.182  44.476  12.864
56027W        W17338  41.941  35.514   4.123
56028W        W17339  25.190  26.665   4.150
56029W        W17340  44.920  20.184  11.539
56030W        W17341  34.955  41.835   4.236
56031W        W17342  39.901  19.197  14.993
56032W        W17343   6.242  11.359  11.389
56033W        W17344   6.202   5.904   3.784
56034W        W17345  31.500  32.029   1.273
56035W        W17346  39.043  13.300  11.528
56036W        W17347   2.755  37.486  11.573
56037W        W17348  37.382  39.371   4.723
56038W        W17349  27.194  41.036   3.751
56039W        W17350  25.689  42.447   0.794
56040W        W17351  39.449  21.523   4.130
56041W        W17352  27.602  20.730   0.281
56042W        W17353  43.363  20.663   2.360
56043W        W17354  42.013  39.932   1.865
56044W        W17355  38.920   4.404   1.380
56045W        W17356  27.665  36.487   1.727
56046W        W17357   2.866   5.745  12.884
56047W        W17358  25.085  42.950   3.266
56048W        W17359  26.493  39.954  13.403
56049W        W17360  12.789  22.096   9.588
56050W        W17361  22.729   4.422   4.307
56051W        W17362   7.775   8.380   4.126
56052W        W17363  24.134  44.459  12.376
56053W        W17364  39.348  26.550   0.852
56054W        W17365   1.901  43.893   0.960
56055W        W17366  13.347   5.757  13.308
56056W        W17367  16.805  15.729  14.808
56057W        W17368  19.665  43.496  12.895
56058W        W17369  39.052   6.786  14.354
56059W        W17370  25.710   8.173   2.757
56060W        W17371  37.035   8.719  10.947
56061W        W17372  35.462  43.931   3.786
56062W        W17373  13.330   7.201  12.567
56063W        W17374  17.112  12.199  10.926
56064W        W17375   5.378  33.885   1.450
56065W        W17376  34.891  38.427  12.858
56066W        W17377  21.563  17.559  13.380
56067W        W17378   7.897  24.586  12.071
56068W        W17379  28.150  24.480  12.031
56069W        W17380  22.062   5.703   4.698
56070W        W17381  24.678  24.602  12.000
56071W        W17382  27.061  18.214  12.861
56072W        W17383  10.139  19.720  10.135
56073W        W17384   7.277   4.909   3.681
56074W        W17385  28.437  24.058  13.968
56075W        W17386  21.141  19.591   5.306
56076W        W17387  35.017  33.019  10.422
56077W        W17388  12.718  23.199   1.312
56078W        W17389   4.310  17.249  10.112
56079W        W17390  15.816  27.676   2.794
56080W        W17391  29.514  25.101   1.376
56081W        W17392   9.830  31.053   0.403
56082W        W17393  27.605  29.110  11.111
56083W        W17394  31.977  38.021   4.799
56084W        W17395   4.898   7.323   0.922
56085W        W17396  32.940  36.029  13.471
56086W        W17397  33.932  39.865   0.904
56087W        W17398   1.411  39.838  13.995
56088W        W17399  23.207  19.082   1.766
56089W        W17400  32.419  28.482  13.462
56090W        W17401  26.549  28.485  10.063
56091W        W17402  16.607  24.007   3.297
56092W        W17403  33.888   3.427  12.349
56093W        W17404  44.916  34.440  14.820
56094W        W17405  29.957  38.491  10.503
56095W        W17406  28.092  17.256  10.993
56096W        W17407  29.937  21.748  11.855
56097W        W17408  14.677  39.329  12.394
56098W        W17409  35.436  24.574  13.852
56099W        W17410  28.132  33.534   2.801
56100W        W17411  28.569  37.879  12.942
56101W        W17412  36.444   0.269   0.886
56102W        W17413  38.015  44.865  14.508
56103W        W17414  10.145  42.845   2.713
56104W        W17415  33.916  34.101   0.883
56105W        W17416  26.161  23.574   3.633
56106W        W17417   0.334  21.079   0.304
56107W        W17418  27.125  10.159   2.705
56108W        W17419  39.947  34.874  10.896
56109W        W17420  29.614   9.369   4.822
56110W        W17421  27.564  43.949  11.529
56111W        W17422  44.831  24.709  14.770
56112W        W17423  10.832  34.884  12.482
56113W        W17424   7.895  39.351  13.043
56114W        W17425   0.326  32.032   2.283
56115W        W17426  40.800   5.303   1.869
56116W        W17427  34.934  19.041  11.482
56117W        W17428  40.997  26.102   4.153
56118W        W17429  16.217  25.597  12.492
56119W        W17430   9.720   9.274  13.523
56120W        W17431  31.444  15.090  14.865
56121W        W17432  19.142   9.212  11.454
56122W        W17433  44.376  20.542  12.405
56123W        W17434  41.826   1.289  10.475
56124W        W17435  22.657   6.895  14.476
56125W        W17436  35.032  16.738   0.920
56126W        W17437   3.298   2.737  12.007
56127W        W17438   6.828   4.407  11.122
56128W        W17439  39.419  36.416  10.516
56129W        W17440  12.222  11.846  10.901
56130W        W17441  17.164  17.730  11.423
56131W        W17442   0.320  34.877  10.518
56132W        W17443  42.343  37.571  12.977
56133W        W17444  14.712  21.159   3.203
56134W        W17445  27.104  40.027  14.970
56135W        W17446  30.584  22.624   1.717
56136W        W17447  11.711  37.924   2.783
56137W        W17448  20.180  40.512   5.097
56138W        W17449  43.423  38.342  10.541
56139W        W17450  25.472   6.763   1.714
56140W        W17451   3.350   0.397  12.569
56141W        W17452  13.171  10.854  14.815
56142W        W17453  19.600   9.382   4.313
56143W        W17454  41.834  24.094   3.292
56144W        W17455  17.089  40.491   3.739
56145W        W17456  20.589  10.256  10.576
56146W        W17457  19.134  11.737  13.452
56147W        W17458   2.842  18.675  14.868
56148W        W17459  32.559   0.781   4.322
56149W        W17460  24.671   2.723   1.854
56150W        W17461   6.752   3.408   4.127
56151W        W17462   3.283  44.865  10.495
56152W        W17463  31.936   5.704  12.531
56153W        W17464   2.286  30.617   1.919
56154W        W17465  25.092  42.970  10.442
56155W        W17466  34.932  27.115  14.391
56156W        W17467  34.615  27.013   3.227
56157W        W17468  31.510  10.743   3.848
56158W        W17469  26.155  31.948  12.088
56159W        W17470   9.383  16.747  10.143
56160W        W17471  13.728  19.074  11.949
56161W        W17472   6.701  18.764   1.719
56162W        W17473   4.260  27.992   2.184
56163W        W17474  18.146  21.045  14.322
56164W        W17475  18.664  33.955  13.534
56165W        W17476  28.622  18.576   3.304
56166W        W17477  33.129  12.134  13.886
56167W        W17478  28.505  16.787  13.374
56168W        W17479  29.972  39.903  13.025
56169W        W17480  44.762  16.305   2.869
56170W        W17481  29.454  29.929   4.639
56171W        W17482  14.109  34.046   4.814
56172W        W17483  40.955  19.134   1.399
56173W        W17484  25.024   2.313   3.644
56174W        W17485  29.433  25.508   4.215
56175W        W17486  38.983   8.276   5.110
56176W        W17487  39.882  18.731   4.251
56177W        W17488  17.790  18.088   1.400
56178W        W17489  11.185  16.609   2.854
56179W        W17490  37.039  17.140  13.007
56180W        W17491   0.938  13.605   4.740
56181W        W17492  23.553  33.991  11.901
56182W        W17493  16.126   0.753   1.784
56183W        W17494  34.453  13.311  14.780
56184W        W17495   6.393  40.355  11.938
56185W        W17496  24.498  40.799  12.558
56186W        W17497  41.835  43.984  12.579
56187W        W17498  19.608  17.299  12.931
56188W        W17499  11.792  15.197  13.471
56189W        W17500  28.611  23.523  10.572
56190W        W17501  14.658  41.827  11.507
56191W        W17502  32.568  21.017  11.071
56192W        W17503   4.242  33.074   0.948
56193W        W17504  42.363  30.091   1.711
56194W        W17505  24.539  17.072   2.899
56195W        W17506   3.300  14.278   2.381
56196W        W17507  14.294  44.863   0.803
56197W        W17508  39.349  35.894   1.294
56198W        W17509  15.327  29.994   4.231
56199W        W17510  39.039  37.896   0.343
56200W        W17511   2.884  13.653   4.809
56201W        W17512  31.041  40.369   4.261
56202W        W17513   5.876   5.702   1.867
56203W        W17514   4.429  10.242   1.928
56204W        W17515  28.642  32.534   1.450
56205W        W17516  33.115   5.847  10.452
56206W        W17517  32.423  43.842  14.315
56207W        W17518   6.370  30.481   0.734
56208W        W17519  43.319   9.758   0.788
56209W        W17520  17.294  28.578   4.306
56210W        W17521   4.332  13.334  13.459
56211W        W17522  15.599  44.290  13.952
56212W        W17523   9.736  39.848  14.369
56213W        W17524   9.236  10.194   2.786
56214W        W17525  39.024  29.423  10.584
56215W        W17526  16.759  38.010  11.942
56216W        W17527  12.746  44.443   3.183
56217W        W17528  31.433  22.092   0.362
56218W        W17529  42.517  43.369   1.434
56219W        W17530   8.658  14.715   2.203
56220W        W17531  23.029  15.323   1.887
56221W        W17532  43.359  23.575  10.457
56222W        W17533  33.440  25.123  11.532
56223W        W17534  37.401  34.088  13.352
56224W        W17535  36.392  32.029  14.402
56225W        W17536  26.460  24.204   0.902
56226W        W17537   5.821  21.251  13.433
56227W        W17538  23.051  20.591   4.794
56228W        W17539  18.728  25.004  12.481
56229W        W17540  16.732   7.726  14.449
56230W        W17541  34.389  20.215   3.325
56231W        W17542   0.400  15.797   1.732
56232W        W17543  16.636   0.869  11.095
56233W        W17544  37.340  13.138   5.117
56234W        W17545  14.644  36.867   4.194
56235W        W17546  27.054  12.702  13.815
56236W        W17547  40.517  31.501  14.389
56237W        W17548  14.206  19.050  14.491
56238W        W17549  31.095  28.984   4.607
56239W        W17550  44.888  30.994   2.788
56240W        W17551   8.365  33.881   3.799
56241W        W17552  15.307  23.560   1.219
56242W        W17553  34.474   0.966  13.498
56243W        W17554   0.896  17.563  12.497
56244W        W17555  22.692  20.707   1.212
56245W        W17556  19.640  10.704   2.408
56246W        W17557   4.913  14.763  11.874
56247W        W17558  41.336  36.014   3.247
56248W        W17559  28.099  22.500   4.789
56249W        W17560  15.128  37.452  11.471
56250W        W17561  10.186  13.282   4.262
56251W        W17562  19.159  25.117   3.750
56252W        W17563  12.787  39.514   4.182
56253W        W17564   9.189  30.593  14.450
56254W        W17565  33.411  38.074   2.227
56255W        W17566  34.536  40.349  10.599
56256W        W17567   3.781  41.357  14.814
56257W        W17568   7.196  30.659  11.540
56258W        W17569  10.687   8.402  12.359
56259W        W17570  21.042  34.919   1.791
56260W        W17571  36.561  21.179  11.524
56261W        W17572  12.678  28.536   4.181
56262W        W17573  25.164  19.103   3.303
56263W        W17574   5.818  40.410   1.275
56264W        W17575   4.273  10.854  12.033
56265W        W17576   3.924  43.013   0.915
56266W        W17577   4.297  29.553  10.472
56267W        W17578   2.941  36.528  13.427
56268W        W17579   6.728  17.095   0.732
56269W        W17580  15.777   9.821   2.340
56270W        W17581  38.549  12.853   1.796
56271W        W17582  31.611  29.151  10.887
56272W        W17583  18.759   7.686  13.477
56273W        W17584  24.209  25.150  14.457
56274W        W17585  19.211  17.270  10.618
56275W        W17586  19.626  23.074   3.287
56276W        W17587  26.032  28.933   4.293
56277W        W17588  12.264  26.659   1.730
56278W        W17589  26.496  15.115   0.961
56279W        W17590  14.257  13.112   5.233
56280W        W17591   0.840  28.959   0.459
56281W        W17592  21.031  41.840  14.851
56282W        W17593  33.601   5.744  10.480
56283W        W17594  23.166  34.541   0.396
56284W        W17595   9.855  33.536  14.420
56285W        W17596  39.972   0.413  11.492
56286W        W17597  37.560  30.584  13.957
56287W        W17598  30.054  26.685  12.552
56288W        W17599  28.150  17.072  13.341
56289W        W17600  19.595  20.536   0.836
56290W        W17601  17.191  21.602   4.354
56291W        W17602  34.893   9.372  14.921
56292W        W17603  36.484   6.912   1.928
56293W        W17604  32.570  38.533   2.870
56294W        W17605  41.383  10.795  12.850
56295W        W17606  12.140  44.365  12.561
56296W        W17607  27.662  37.999  10.906
56297W        W17608  44.395  19.238  14.420
56298W        W17609   1.438  21.018  10.929
56299W        W17610  16.712   4.721   2.873
56300W        W17611  44.351  30.931   2.240
56301W        W17612  43.479  43.847  14.513
56302W        W17613  26.975  20.069   0.881
56303W        W17614  44.985  43.777   4.638
56304W        W17615   2.868  37.420  11.025
56305W        W17616   6.418  41.301   9.949
56306W        W17617   9.172   7.730   0.829
56307W        W17618  38.505  18.571  11.910
56308W        W17619   4.706   4.216  10.998
56309W        W17620  18.784  20.196  13.362
56310W        W17621   3.338   9.387   5.237
56311W        W17622  29.533   7.828   1.417
56312W        W17623  26.059  14.096   1.751
56313W        W17624  10.739   1.962   0.766
56314W        W17625  36.940  22.161  10.583
56315W        W17626   8.206   5.821   2.808
56316W        W17627  33.505  15.585  12.831
56317W        W17628  15.104  32.570  11.995
56318W        W17629  24.529  11.817   4.618
56319W        W17630  29.520  41.915   4.639
56320W        W17631   5.879  13.337   4.726
56321W        W17632  33.950  39.484  11.087
56322W        W17633  38.350  36.997  13.420
56323W        W17634  36.524  21.758   3.301
56324W        W17635  25.547  38.953   3.710
56325W        W17636  41.529  17.101   3.852
56326W        W17637  25.984  38.512  13.892
56327W        W17638  29.542  27.689  11.381
56328W        W17639  43.846  35.015  12.405
56329W        W17640  43.021  24.077   4.309
56330W        W17641  34.384  13.746   1.331
56331W        W17642  43.391  38.451  12.464
56332W        W17643  43.450   3.437   3.747
56333W        W17644   2.843  23.172  11.945
56334W        W17645   2.450  26.032  12.874
56335W        W17646  37.552  21.091   5.239
56336W        W17647  35.554  19.233   4.760
56337W        W17648  12.823  22.593   0.820
56338W        W17649   3.286  41.476   4.157
56339W        W17650  26.676  17.588   4.343
56340W        W17651  24.508  39.490   2.401
56341W        W17652   6.239   6.306   5.311
56342W        W17653  36.465   9.214   1.399
56343W        W17654  16.174   1.934   2.820
56344W        W17655   0.768  32.948   1.257
56345W        W17656   6.809  27.117   4.774
56346W        W17657  25.501  40.427  13.906
56347W        W17658  35.060   4.209  11.039
56348W        W17659  20.755  25.987  11.467
56349W        W17660   5.332  37.037  10.507
56350W        W17661   8.208  38.861   0.899
56351W        W17662  15.146  44.910   3.793
56352W        W17663  13.174  22.558   2.358
56353W        W17664  16.572  24.495   3.839
56354W        W17665  35.935  11.306  14.877
56355W        W17666  28.994   3.742  12.861
56356W        W17667  10.711  40.477  10.578
56357W        W17668  11.678  23.515  12.841
56358W        W17669  11.248  44.816  13.896
56359W        W17670  27.161  26.481  14.853
56360W        W17671   4.288   5.249   2.321
56361W        W17672  42.422  28.973  11.903
56362W        W17673  17.789  34.484   2.795
56363W        W17674  30.490   2.864   4.234
56364W        W17675  22.737  42.833   4.176
56365W        W17676  38.874  24.522  12.567
56366W        W17677  31.471  20.678   3.660
56367W        W17678  22.246  31.471  13.050
56368W        W17679  20.607  25.005  11.535
56369W        W17680  14.329  38.467  11.498
56370W        W17681  26.002  32.416   4.754
56371W        W17682  38.393   1.422   1.807
56372W        W17683  10.637   7.288   3.340
56373W        W17684   3.910   8.722  10.453
56374W        W17685   1.278  34.369  14.321
56375W        W17686  10.703  35.987   0.812
56376W        W17687  11.764   3.222  10.133
56377W        W17688  27.460  23.067  14.930
56378W        W17689  34.440  10.173   1.284
56379W        W17690   5.235  41.969   4.691
56380W        W17691  42.016  19.579   1.700
56381W        W17692  43.016  19.251   0.256
56382W        W17693  31.991  35.029  11.467
56383W        W17694   2.437  32.435   2.365
56384W        W17695   5.424   5.772   4.781
56385W        W17696  23.577  17.787   3.229
56386W        W17697  33.529  24.683   3.718
56387W        W17698  38.477   0.883  13.958
56388W        W17699  31.589  12.848  12.022
56389W        W17700  20.033  39.884   0.250
56390W        W17701  24.982  28.042  11.492
56391W        W17702  23.564  20.603  12.492
56392W        W17703   6.333   8.778   2.859
56393W        W17704   2.363   9.257   3.230
56394W        W17705  32.443  10.837   0.825
56395W        W17706  20.571   4.302  13.934
56396W        W17707  19.100   8.250   3.330
56397W        W17708  20.094  14.708  10.538
56398W        W17709  41.918  27.623   3.715
56399W        W17710  41.818  35.496  12.420
56400W        W17711  39.855   6.808  10.581
56401W        W17712  29.574  14.231  10.475
56402W        W17713  37.002   3.863   0.376
56403W        W17714  40.842  33.623  13.386
56404W        W17715  24.198  11.196   4.734
56405W        W17716  33.602  24.999   2.384
56406W        W17717  16.307  10.826  13.391
56407W        W17718  37.551  30.041  13.512
56408W        W17719   2.931  19.721  14.964
56409W        W17720  42.431  32.132   2.853
56410W        W17721   4.206  40.459   4.694
56411W        W17722  17.141  40.951   0.282
56412W        W17723  43.302  20.174   0.246
56413W        W17724  41.306   3.269   0.270
56414W        W17725   0.956  17.138   3.666
56415W        W17726  43.862  23.995  10.591
56416W        W17727  17.228  32.946   2.211
56417W        W17728  17.127   0.432   1.706
56418W        W17729  12.671  25.662  14.502
56419W        W17730   0.753   4.788   2.897
56420W        W17731  21.139  26.540  10.129
56421W        W17732  37.471  17.657  13.017
56422W        W17733   2.262  22.642   1.859
56423W        W17734  11.300  23.733   2.733
56424W        W17735  13.279  36.867   4.640
56425W        W17736  10.751  18.677  11.116
56426W        W17737  34.886  23.231  11.001
56427W        W17738  39.421  11.845   1.423
56428W        W17739  27.043   3.830   3.230
56429W        W17740   3.710  32.996  11.517
56430W        W17741  24.029  17.304  12.459
56431W        W17742  10.312  14.315   0.346
56432W        W17743  26.073  36.955  11.083
56433W        W17744  34.869  32.402   0.761
56434W        W17745  35.603  44.418   3.241
56435W        W17746  11.794  26.684  12.435
56436W        W17747  21.674  29.497  10.506
56437W        W17748  15.714  33.492  11.510
56438W        W17749  22.084   6.757  12.842
56439W        W17750  18.739  24.626   1.314
56440W        W17751  24.609  10.784   0.866
56441W        W17752  43.958   8.187   2.884
56442W        W17753  12.646  13.637  11.959
56443W        W17754  14.620   7.391   3.306
56444W        W17755   5.863  28.502  12.095
56445W        W17756  11.864  23.666  13.998
56446W        W17757  23.188  44.469   2.249
56447W        W17758  14.657  26.673  11.468
56448W        W17759   5.761  11.195  10.990
56449W        W17760  35.537  44.931   2.312
56450W        W17761  18.126   2.875  14.879
56451W        W17762  19.161  38.917  14.854
56452W        W17763  33.886  38.496   4.208
56453W        W17764  27.521  28.628  13.329
56454W        W17765   3.248  44.873  13.959
56455W        W17766  35.557   4.860   2.342
56456W        W17767  29.431  32.430  12.531
56457W        W17768   5.691  11.668  11.375
56458W        W17769  32.997  44.753  11.465
56459W        W17770  24.532   9.289  10.537
56460W        W17771   0.322  13.705   3.319
56461W        W17772   9.690  40.903  13.006
56462W        W17773  41.792  22.077  14.957
56463W        W17774  43.923  35.073  14.479
56464W        W17775  41.399  10.299   2.782
56465W        W17776  11.728  39.034   1.263
56466W        W17777  10.170  42.779   3.823
56467W        W17778  23.126  19.638  11.931
56468W        W17779  17.062  26.696   3.254
56469W        W17780  37.512   8.750   2.187
56470W        W17781  37.421   4.898   9.957
56471W        W17782  21.677  14.331   0.295
56472W        W17783   1.292  15.606  12.823
56473W        W17784   6.193  38.385   3.639
56474W        W17785   6.244  20.048   3.334
56475W        W17786   1.746   8.812   0.482
56476W        W17787   7.782  25.667  14.342
56477W        W17788  34.448  16.207   3.178
56478W        W17789  33.473   6.692  13.900
56479W        W17790  16.219  28.166  13.801
56480W        W17791  44.795  30.152  11.991
56481W        W17792   9.352  25.591  11.434
56482W        W17793  43.281   7.228  11.954
56483W        W17794  21.181  43.780   3.775
56484W        W17795  23.103  21.567   0.252
56485W        W17796  23.497  14.735  14.930
56486W        W17797  40.497   6.678   1.267
56487W        W17798   4.441   7.851   2.889
56488W        W17799  31.524  19.094   0.870
56489W        W17800  34.876  33.488  14.795
56490W        W17801  14.643   0.785   3.696
56491W        W17802  28.047  38.894  10.453
56492W        W17803   6.718   7.794  10.482
56493W        W17804  18.195   6.385   1.397
56494W        W17805  26.519  17.226  13.005
56495W        W17806  21.720  24.618   3.293
56496W        W17807  33.532  21.550  14.936
56497W        W17808  40.027  39.485   1.396
56498W        W17809   4.210  31.936  10.505
56499W        W17810  21.562  30.498   2.275
56500W        W17811  42.367  22.658   1.773
56501W        W17812  36.078  39.876   0.265
56502W        W17813  29.115   7.887   5.697
56503W        W17814   4.401  11.306  13.038
56504W        W17815  22.687   9.229   4.602
56505W        W17816  29.589   4.251   0.432
56506W        W17817  36.499  16.169   4.801
56507W        W17818  41.401   8.687  11.540
56508W        W17819   1.974   9.226  10.923
56509W        W17820  23.205  31.962   1.852
56510W        W17821   3.834  28.625   4.794
56511W        W17822   8.868   0.326  13.962
56512W        W17823  34.531   2.842   2.272
56513W        W17824  26.663  14.240  10.589
56514W        W17825  36.462   6.330  14.938
56515W        W17826  20.714  29.919  10.642
56516W        W17827   7.818  21.750   3.716
56517W        W17828  15.198  24.183  12.426
56518W        W17829  33.996  10.731   2.200
56519W        W17830  42.000  23.522   2.412
56520W        W17831  25.993   1.455  11.416
56521W        W17832   0.353   2.367   1.308
56522W        W17833  16.677   0.303   3.330
56523W        W17834  20.573  20.537   2.735
56524W        W17835  34.012   3.710  10.451
56525W        W17836  21.597  40.857  14.834
56526W        W17837  21.243   7.746   3.665
56527W        W17838   9.192  31.964   1.252
56528W        W17839  20.654  31.007  13.006
56529W        W17840  30.095   0.430  14.279
56530W        W17841  20.086  38.333  10.016
56531W        W17842  40.315   4.740  10.083
56532W        W17843   3.767  27.594   1.321
56533W        W17844  17.802   7.846   1.893
56534W        W17845   2.958   6.327   2.216
56535W        W17846  31.598  27.017   1.747
56536W        W17847  11.825  24.078  11.051
56537W        W17848  28.460  29.470   3.296
56538W        W17849  40.053  33.552   1.314
56539W        W17850  25.613   7.318  11.861
56540W        W17851  44.431  24.713  13.805
56541W        W17852   8.191  28.444  14.368
56542W        W17853  42.863  37.048  10.918
56543W        W17854  16.132  33.583   4.765
56544W        W17855  23.599  36.866   2.681
56545W        W17856  22.033  31.128   2.341
56546W        W17857  14.728  40.390  12.045
56547W        W17858  19.098   1.367   1.782
56548W        W17859  13.621  33.524   2.383
56549W        W17860  26.607  20.524  13.487
56550W        W17861   1.388  24.994  13.980
56551W        W17862  34.528  39.000  10.930
56552W        W17863  37.903  31.034  11.465
56553W        W17864  26.669  41.801  13.387
56554W        W17865   9.243   6.258   3.157
56555W        W17866  27.518  22.530  11.941
56556W        W17867  19.586  11.754  11.040
56557W        W17868   7.281  28.459  11.573
56558W        W17869  19.199  29.477  12.458
56559W        W17870  27.182   7.868   2.707
56560W        W17871  14.639   0.319  10.539
56561W        W17872  30.977  35.088  14.000
56562W        W17873  12.757  31.043   0.807
56563W        W17874  26.205  19.126   3.791
56564W        W17875   3.908  33.033  13.929
56565W        W17876  26.675   4.410   2.766
56566W        W17877  35.390  36.846  13.815
56567W        W17878   0.920  15.101   2.291
56568W        W17879  36.842  28.450  11.385
56569W        W17880   3.328  42.802   3.856
56570W        W17881  38.466  34.054  12.935
56571W        W17882  26.082  39.336   4.787
56572W        W17883  37.409  10.175  14.478
56573W        W17884  19.724  36.084  12.949
56574W        W17885  23.180  20.585   3.280
56575W        W17886  38.534  40.904  13.519
56576W        W17887  26.183  34.507   2.832
56577W        W17888  35.862  27.025  14.516
56578W        W17889   0.883  36.570   0.888
56579W        W17890   7.893  32.126   4.774
56580W        W17891  37.568  29.661   4.812
56581W        W17892  36.055  40.956   0.408
56582W        W17893  31.928  23.689  14.786
56583W        W17894  37.360   0.846   1.863
56584W        W17895  30.932  31.410  14.806
56585W        W17896  42.810  42.341  14.829
56586W        W17897  16.162  21.681  13.372
56587W        W17898  18.259  23.660   5.659
56588W        W17899  22.998  39.426   2.893
56589W        W17900  18.788  37.025   3.837
56590W        W17901  39.058  27.503  11.039
56591W        W17902   6.790   4.357  11.895
56592W        W17903  41.487  33.559  14.469
56593W        W17904  14.315   2.764  13.861
56594W        W17905   8.793  29.434   0.344
56595W        W17906  35.086  28.440  11.013
56596W        W17907  18.623  16.731   0.313
56597W        W17908  28.492   8.845   9.968
56598W        W17909  17.728  16.211   5.692
56599W        W17910  33.490  43.427  14.923
56600W        W17911   3.759  16.658  11.079
56601W        W17912   3.329  27.106  11.110
56602W        W17913   8.396   0.785  11.390
56603W        W17914   5.800  36.428  13.001
56604W        W17915   9.673   7.735   1.706
56605W        W17916  23.106   1.475   2.193
56606W        W17917   6.310   4.224  13.515
56607W        W17918  23.121  41.000  12.358
56608W        W17919  28.935   5.203   4.253
56609W        W17920  11.144  13.349   3.229
56610W        W17921  19.663  19.603  10.567
56611W        W17922  17.170  42.384   3.242
56612W        W17923  35.073  40.013  11.983
56613W        W17924   0.883  23.679   9.922
56614W        W17925   4.931   8.790   3.803
56615W        W17926  20.608  35.399  13.367
56616W        W17927  15.207  23.191  12.859
56617W        W17928  25.050  18.632  11.023
56618W        W17929  10.171  42.835   3.376
56619W        W17930  25.134  12.210  14.883
56620W        W17931  20.059  10.257  10.457
56621W        W17932  14.094   4.917   1.390
56622W        W17933  12.362  42.508  13.933
56623W        W17934  26.507  17.663   4.832
56624W        W17935  38.540   4.321   3.738
56625W        W17936  14.122  22.716   5.647
56626W        W17937  28.022  41.519   9.994
56627W        W17938  31.901  33.090  12.085
56628W        W17939  35.878  18.197   3.723
56629W        W17940  11.147   8.654  10.641
56630W        W17941  33.123   1.956  11.964
56631W        W17942  40.004   1.377   2.249
56632W        W17943  19.617  22.080  12.937
56633W        W17944  32.919  14.282   4.613
56634W        W17945   3.820  19.117   1.744
56635W        W17946  32.897   7.696   2.727
56636W        W17947   8.897  43.925  10.010
56637W        W17948  38.886  26.180  12.344
56638W        W17949  10.695   6.261   1.249
56639W        W17950  19.087   6.796  14.367
56640W        W17951  27.692  42.958  11.449
56641W        W17952  21.663  16.179  10.475
56642W        W17953  27.119  13.267   1.809
56643W        W17954  32.417  34.415   2.809
56644W        W17955   9.179  26.961   4.744
56645W        W17956  44.939  44.444  14.926
56646W        W17957  34.581   5.234   2.891
56647W        W17958   5.693  18.776  12.573
56648W        W17959  36.521   6.750   0.757
56649W        W17960  12.175  22.178   4.792
56650W        W17961  16.153  25.130   1.862
56651W        W17962  34.940  12.131   3.386
56652W        W17963   4.378  37.576  12.567
56653W        W17964   8.704   0.435   1.839
56654W        W17965  32.011   6.784  14.276
56655W        W17966  35.890   4.933   1.811
56656W        W17967  43.913  21.677   0.419
56657W        W17968  24.577  40.514  14.466
56658W        W17969  15.273  39.972  13.438
56659W        W17970  35.901   4.797  11.416
56660W        W17971  24.720  34.369  13.514
56661W        W17972  13.769  27.666   1.866
56662W        W17973  12.678  34.874   2.276
56663W        W17974  40.870  10.367   3.238
56664W        W17975  40.821   6.745   4.302
56665W        W17976  41.920  14.718   2.766
56666W        W17977   3.387  18.588  12.453
56667W        W17978  17.630  27.144  12.997
56668W        W17979  38.998  27.998  14.760
56669W        W17980  23.092   2.229  11.907
56670W        W17981  11.658  35.488  13.364
56671W        W17982  22.635  27.034  11.587
56672W        W17983  13.301   1.251  14.913
56673W        W17984  37.351  33.077  14.439
56674W        W17985  22.022  42.388   4.155
56675W        W17986  11.162  22.742  12.438
56676W        W17987   0.962   3.238  14.360
56677W        W17988  21.179  15.307  11.983
56678W        W17989  23.121  26.629  14.514
56679W        W17990  20.677  15.755   3.177
56680W        W17991  12.689  38.432  12.985
56681W        W17992  13.609  14.125   0.905
56682W        W17993   7.269  38.965  12.575
56683W        W17994  23.544  22.653  14.421
56684W        W17995  10.739  19.683   5.259
56685W        W17996  17.617  41.313  13.849
56686W        W17997  40.899   1.256  13.349
56687W        W17998  21.579   8.718   0.397
56688W        W17999   3.871  27.517  13.446
56689W        W18000   1.828  44.963  11.601
56690W        W18001  17.274  30.158   1.758
56691W        W18002  26.599  25.694   5.303
56692W        W18003  14.288  28.506  13.360
56693W        W18004   9.826   1.812   2.731
56694W        W18005   3.405  20.666  13.878
56695W        W18006  22.183  21.227   0.315
56696W        W18007  13.141  44.359  12.044
56697W        W18008   2.768  27.060  13.335
56698W        W18009   4.293   8.880  11.070
56699W        W18010   9.770  26.466  12.449
56700W        W18011  40.369   9.175   0.266
56701W        W18012   6.855  40.879   4.176
56702W        W18013  19.730  27.029   2.314
56703W        W18014  35.949  11.626  12.046
56704W        W18015  10.320  16.296  14.896
56705W        W18016  32.581  37.964  13.447
56706W        W18017  19.192   3.400  11.384
56707W        W18018  23.103  36.505  12.074
56708W        W18019  18.106  37.575  11.599
56709W        W18020  34.478  22.601   4.745
56710W        W18021  42.029  27.584   2.356
56711W        W18022  20.624  22.062   3.688
56712W        W18023   6.195   4.934  10.605
56713W        W18024  33.047  27.675   3.344
56714W        W18025  11.841  35.361   1.720
56715W        W18026  12.150   0.894   1.221
56716W        W18027  31.540  20.138   4.804
56717W        W18028  18.170   7.691  13.862
56718W        W18029  44.328  36.922   3.303
56719W        W18030  38.524  30.457  13.930
56720W        W18031  33.568  27.012  11.876
56721W        W18032  29.993  28.621  12.960
56722W        W18033  36.899  13.120  12.065
56723W        W18034  22.128  14.658  13.362
56724W        W18035  11.697  11.315   1.442
56725W        W18036  39.996  22.191  12.833
56726W        W18037  40.922   4.213  11.519
56727W        W18038  14.685  15.130  11.861
56728W        W18039   3.269  41.516   1.254
56729W        W18040  27.986  14.284  14.825
56730W        W18041  32.932  22.166  11.535
56731W        W18042   8.358  33.916   1.705
56732W        W18043  21.641  23.655   1.696
56733W        W18044  15.620  19.621   0.762
56734W        W18045  41.953  12.135   4.175
56735W        W18046  26.499  10.776  10.621
56736W        W18047  16.569  37.936  10.472
56737W        W18048   5.198   2.276  12.530
56738W        W18049  10.362  21.085   0.827
56739W        W18050  36.033  17.737   4.151
56740W        W18051  37.510  40.895   9.580
56741W        W18052   1.341  17.192  11.881
56742W        W18053   9.331  32.619   2.830
56743W        W18054  39.009   5.879   2.664
56744W        W18055  13.164  25.553   0.457
56745W        W18056  42.922  16.072  14.289
56746W        W18057  19.676   6.803   3.843
56747W        W18058  28.058  21.039  14.937
56748W        W18059  16.699  18.558   0.829
56749W        W18060  36.945  18.147  13.978
56750W        W18061  31.117  33.101   1.243
56751W        W18062  27.512  12.308   0.273
56752W        W18063   8.672  23.536   3.656
56753W        W18064  17.284   3.323   1.285
56754W        W18065  43.935   1.304  12.491
56755W        W18066  25.470  33.383  10.493
56756W        W18067  40.950  30.524  11.027
56757W        W18068  32.469  11.631  14.355
56758W        W18069   9.764  19.112   0.759
56759W        W18070  30.080  10.719   2.776
56760W        W18071   0.936   1.777   0.335
56761W        W18072  18.592  24.035  11.881
56762W        W18073   9.814   0.325  12.998
56763W        W18074  44.308  42.473   1.252
56764W        W18075  30.535  20.613  12.919
56765W        W18076  18.176  21.683   1.345
56766W        W18077  12.851  32.570  10.892
56767W        W18078  11.793  30.650  11.005
56768W        W18079  39.913  21.688  11.901
56769W        W18080  14.239  39.038   1.368
56770W        W18081  18.612   6.808   2.418
56771W        W18082  24.587  39.392   0.843
56772W        W18083  37.060  42.345   1.288
56773W        W18084   0.368  10.706   4.779
56774W        W18085  11.669   5.361   4.346
56775W        W18086  26.577  18.286   3.306
56776W        W18087   6.750  20.072   2.752
56777W        W18088  41.793   3.744   4.296
56778W        W18089  41.406  35.062  10.902
56779W        W18090   3.834  11.782  12.847
56780W        W18091  14.287   0.789  13.904
56781W        W18092  39.961  25.537  12.975
56782W        W18093  35.537  23.723   1.390
56783W        W18094  34.578  17.783  12.929
56784W        W18095  23.673  10.317  13.532
56785W        W18096  35.413  36.492  13.548
56786W        W18097  32.097  30.923   3.826
56787W        W18098   5.280  33.601  14.817
56788W        W18099  31.046  31.144  12.483
56789W        W18100  44.283  37.933   3.168
56790W        W18101   2.469  27.161  10.637
56791W        W18102  13.841  23.995  12.355
56792W        W18103  33.603   0.406  13.543
56793W        W18104  43.906  31.540  10.507
56794W        W18105   6.722  26.531  11.433
56795W        W18106  10.819   4.733   4.208
56796W        W18107  41.461  32.469   4.351
56797W        W18108   5.713   1.873   4.638
56798W        W18109  27.489  10.371   2.701
56799W        W18110  25.185  34.569  11.555
56800W        W18111  21.671  17.759  14.858
56801W        W18112   6.183  12.309  11.978
56802W        W18113  31.521  27.512  12.874
56803W        W18114  29.619  20.137   2.415
56804W        W18115  39.998  30.060  11.003
56805W        W18116  41.404   6.923   3.635
56806W        W18117  12.238  26.527  14.298
56807W        W18118  17.617  32.442   3.817
56808W        W18119   2.906  35.374   2.874
56809W        W18120   6.183  32.497  13.811
56810W        W18121  35.089  44.957   3.166
56811W        W18122  42.314  29.441  11.013
56812W        W18123  26.589  30.016   3.316
56813W        W18124  32.396  30.463   1.402
56814W        W18125  37.837  42.385  13.456
56815W        W18126   1.471  34.098  11.889
56816W        W18127  31.428  38.886  10.627
56817W        W18128  25.649  32.959  13.379
56818W        W18129  20.606  18.576  11.103
56819W        W18130  27.098  17.632   2.707
56820W        W18131  29.560   8.244  11.505
56821W        W18132  42.414   2.326   4.738
56822W        W18133  14.715  26.503  11.940
56823W        W18134  21.237   9.323   3.255
56824W        W18135  39.366  13.715  10.913
56825W        W18136  13.757  38.063  10.491
56826W        W18137  24.003  40.340  13.472
56827W        W18138   3.420   0.857  11.590
56828W        W18139   9.802  35.026  11.546
56829W        W18140  38.397   8.809   0.435
56830W        W18141   2.760  39.044   4.340
56831W        W18142  34.562  21.194  13.315
56832W        W18143  26.604  21.152  13.986
56833W        W18144  24.658  10.181  13.345
56834W        W18145  10.229  20.232   4.120
56835W        W18146   4.362   9.829   0.253
56836W        W18147   0.912  43.817   3.737
56837W        W18148  25.135  39.523  14.993
56838W        W18149  40.958  42.985   2.391
56839W        W18150  19.705  37.926  10.931
56840W        W18151  29.648  10.751   1.846
56841W        W18152  38.495  43.482   2.318
56842W        W18153  39.056  42.808   4.167
56843W        W18154  31.106  26.194   4.720
56844W        W18155  37.341  26.070  12.480
56845W        W18156  12.661  43.410  11.088
56846W        W18157   4.898  29.079   4.315
56847W        W18158  29.037  11.688   3.155
56848W        W18159  10.218  21.607   2.399
56849W        W18160  19.047  30.591   4.800
56850W        W18161   3.281   9.663  12.555
56851W        W18162  12.126   2.341  10.471
56852W        W18163  18.643  33.496  14.380
56853W        W18164   2.319   0.304   2.895
56854W        W18165   5.721   9.687   0.782
56855W        W18166  42.470  39.847  11.611
56856W        W18167  31.055  30.007   4.777
56857W        W18168   8.401  21.615   2.681
56858W        W18169   9.380  10.670  12.435
56859W        W18170  36.960  25.055   4.122
56860W        W18171  18.144  41.817  11.017
56861W        W18172  33.913  21.221  13.868
56862W        W18173  24.047   5.795   0.316
56863W        W18174  40.336  41.304   0.450
56864W        W18175  14.148  13.166   3.824
56865W        W18176   0.254  15.157   1.449
56866W        W18177  31.479  37.561  14.284
56867W        W18178  16.598  43.515   0.252
56868W        W18179  36.003   4.374   3.776
56869W        W18180  36.580  14.817   3.686
56870W        W18181   4.407  36.499  13.868
56871W        W18182  41.028  40.313   4.339
56872W        W18183  19.676  13.202  11.400
56873W        W18184  15.662   6.812   2.192
56874W        W18185  25.204  21.524  11.588
56875W        W18186  37.366  43.902  10.085
56876W        W18187   8.683  10.374   5.295
56877W        W18188  25.108  28.623   4.697
56878W        W18189   1.307  41.931  13.018
56879W        W18190  28.448  20.140  12.905
56880W        W18191   5.892   9.313  14.342
56881W        W18192  36.377  22.549   3.862
56882W        W18193  43.961  14.281   3.254
56883W        W18194  35.100  38.952   5.652
56884W        W18195   6.683  44.999  14.392
56885W        W18196  13.782  21.020   4.654
56886W        W18197   0.795  32.446  11.936
56887W        W18198  20.654  40.474  11.382
56888W        W18199  36.063  39.977   0.746
56889W        W18200  25.970   0.317  12.945
56890W        W18201  11.826  43.771   4.331
56891W        W18202  13.739  34.011   1.742
56892W        W18203  12.189  11.327  11.055
56893W        W18204  33.018  42.432  14.438
56894W        W18205  37.957   4.945  13.051
56895W        W18206  21.038   7.676  14.369
56896W        W18207  31.915  39.445  10.930
56897W        W18208  15.194   2.877   1.223
56898W        W18209  10.325   2.819  14.478
56899W        W18210   2.930  31.470   3.222
56900W        W18211  28.948   5.296  12.366
56901W        W18212  30.140  22.007  11.949
56902W        W18213  32.123  12.358  13.806
56903W        W18214   2.333  43.877   1.442
56904W        W18215   1.372   6.354  11.915
56905W        W18216  21.088  19.137  13.347
56906W        W18217  29.155   0.274   0.819
56907W        W18218   9.283  16.695   1.720
56908W        W18219  39.888   5.928   0.444
56909W        W18220   8.197  12.264   2.730
56910W        W18221  42.879  14.327   3.772
56911W        W18222  36.002  23.240  12.913
56912W        W18223  27.953  13.696   2.305
56913W        W18224  10.830  34.587  13.449
56914W        W18225  34.509  25.475  13.342
56915W        W18226  22.583  12.333  14.514
56916W        W18227  31.139  12.842  12.077
56917W        W18228   3.772  20.032  11.072
56918W        W18229  22.573  14.697  12.872
56919W        W18230  39.435  10.380   0.741
56920W        W18231  41.840  22.669   0.275
56921W        W18232  21.207  41.881   9.650
56922W        W18233  12.309  39.444  12.398
56923W        W18234  24.002  42.366   3.756
56924W        W18235  41.980  26.120   0.427
56925W        W18236  22.131  29.566   2.344
56926W        W18237   7.706  13.654   2.339
56927W        W18238  34.079  13.836  11.442
56928W        W18239  18.211   9.732   0.929
56929W        W18240  39.984  23.141  12.895
56930W        W18241   0.859   3.806  13.974
56931W        W18242  11.170  34.513   4.155
56932W        W18243  40.352  32.602  11.452
56933W        W18244   9.746  32.438   1.802
56934W        W18245  13.320  36.514  14.368
56935W        W18246  30.980  15.129   2.873
56936W        W18247   5.224   7.247   2.356
56937W        W18248  13.189  21.079   3.287
56938W        W18249  29.494  42.286  11.505
56939W        W18250  19.148  15.747   4.780
56940W        W18251   1.965  21.077   1.877
56941W        W18252   0.427  31.032   3.774
56942W        W18253  34.601   8.796   4.786
56943W        W18254  25.554  22.742  10.430
56944W        W18255  10.755  43.880  11.510
56945W        W18256  10.711  40.008  11.505
56946W        W18257  36.908  18.738  13.054
56947W        W18258  11.689  26.013  13.984
56948W        W18259   7.864  36.362   3.653
56949W        W18260  36.869  39.002   1.766
56950W        W18261   9.250  28.674   0.410
56951W        W18262  44.316  34.459  14.772
56952W        W18263  20.533  27.641   1.387
56953W        W18264   0.917  18.183  11.428
56954W        W18265  14.116  41.016   3.865
56955W        W18266  18.622  24.600  14.403
56956W        W18267  39.401  30.043   3.356
56957W        W18268  35.504  40.353  10.471
56958W        W18269   8.843  22.637  11.068
56959W        W18270  43.773  11.177   1.223
56960W        W18271  16.154  41.834  13.312
56961W        W18272   4.849  21.234   0.291
56962W        W18273  17.070  30.937  12.965
56963W        W18274  15.107   7.180  12.897
56964W        W18275   5.252  23.652  10.987
56965W        W18276  19.069   2.863  10.531
56966W        W18277  15.656   0.291  14.348
56967W        W18278  36.369   7.690  10.470
56968W        W18279  17.075  41.943   4.262
56969W        W18280   8.813  21.031   5.204
56970W        W18281  22.675   8.356  10.637
56971W        W18282  11.785  19.228   1.238
56972W        W18283  25.681  27.172  10.644
56973W        W18284  40.494  21.661   3.811
56974W        W18285  14.136   7.328  12.827
56975W        W18286  32.027  37.035   0.749
56976W        W18287  33.533  39.031   0.896
56977W        W18288  17.286  20.724   3.642
56978W        W18289  12.857  36.989   3.703
56979W        W18290  41.514   5.737  14.940
56980W        W18291  27.525  22.574  10.591
56981W        W18292   4.824  40.309   4.234
56982W        W18293  36.382  15.259  11.028
56983W        W18294  13.819   8.210   2.394
56984W        W18295  16.788  41.010   2.883
56985W        W18296   1.970  36.572   0.304
56986W        W18297  22.713  34.520  13.524
56987W        W18298   9.216   0.304  13.425
56988W        W18299  16.601  28.051  11.886
56989W        W18300  13.621  34.095  14.329
56990W        W18301  31.960   6.813  13.335
56991W        W18302  44.402   4.938   1.916
56992W        W18303  26.609  13.751  10.938
56993W        W18304  42.946  26.458  14.885
56994W        W18305   0.978  43.408  12.439
56995W        W18306  20.105  12.808  13.364
56996W        W18307   5.396  28.567   3.639
56997W        W18308  35.005   9.310  12.441
56998W        W18309  10.746  33.068   4.334
56999W        W18310  21.726  36.971   3.228
57000W        W18311  40.900   3.420   2.878
57001W        W18312  12.325  15.582  14.421
57002W        W18313  20.664  17.225   4.171
57003W        W18314   0.889  32.475  14.882
57004W        W18315  33.469  34.575   4.311
57005W        W18316   8.889  42.835   4.618
57006W        W18317   8.378  27.090  14.969
57007W        W18318  24.090  32.955  11.906
57008W        W18319  26.204   3.377  14.758
57009W        W18320  24.977  28.614  14.833
57010W        W18321  13.223  22.087   3.148
57011W        W18322  21.035  24.134  12.494
57012W        W18323   1.265   4.884  12.980
57013W        W18324  28.679  27.496  14.954
57014W        W18325  34.559  39.950  11.856
57015W        W18326  31.598  39.809  11.952
57016W        W18327  27.191   4.237   2.862
57017W        W18328  29.488  10.210  11.985
57018W        W18329  23.175  30.520  13.026
57019W        W18330  41.410  38.405  12.391
57020W        W18331   1.777  32.425  12.861
57021W        W18332  35.099  42.384   4.612
57022W        W18333  17.280  10.246  12.376
57023W        W18334   4.827  43.834  11.578
57024W        W18335   1.859  19.648  12.074
57025W        W18336  13.279  14.645   4.676
57026W        W18337  36.374  32.921  14.940
57027W        W18338  10.345   0.791   3.869
57028W        W18339  23.118  40.360  10.158
57029W        W18340   2.357  13.187  13.999
57030W        W18341  39.520  30.617   1.375
57031W        W18342  44.981  23.095   0.851
57032W        W18343  35.972   6.816  12.564
57033W        W18344  42.786  21.237   3.752
57034W        W18345   7.245  37.060   0.445
57035W        W18346  38.953  19.153  12.414
57036W        W18347   8.860   8.326  10.918
57037W        W18348   7.409  44.331  12.339
57038W        W18349  10.316   3.939  12.843
57039W        W18350  31.614   2.860   4.114
57040W        W18351  26.196  25.201   1.307
57041W        W18352  20.760  31.430  13.866
57042W        W18353  27.155  41.953   1.364
57043W        W18354  26.556   7.267  13.886
57044W        W18355  19.778  25.513   1.916
57045W        W18356  25.969   8.371   3.824
57046W        W18357  26.463  27.576  12.844
57047W        W18358   6.724  14.279  12.371
57048W        W18359  43.021   6.423   0.361
57049W        W18360  31.925  34.912  13.999
57050W        W18361  23.227   0.425   0.779
57051W        W18362  10.142  33.383  12.859
57052W        W18363   0.856  16.665  13.790
57053W        W18364  43.808   5.814   1.729
57054W        W18365  17.763   0.345  13.833
57055W        W18366  12.253   7.830   3.357
57056W        W18367  30.043  26.009  10.441
57057W        W18368   7.704  10.804   2.275
57058W        W18369  15.658  15.173  11.383
57059W        W18370   5.216  33.502   2.753
57060W        W18371   4.753  31.127  13.520
57061W        W18372  33.892  19.190  14.410
57062W        W18373  20.655   8.789   3.195
57063W        W18374  40.051  36.505  13.526
57064W        W18375  41.938   3.411  14.816
57065W        W18376   4.701  31.549  13.835
57066W        W18377  10.152  36.047   4.229
57067W        W18378  33.458   7.845  12.889
57068W        W18379  35.908   0.348   1.268
57069W        W18380  27.128  22.202  12.881
57070W        W18381  34.019  34.095  14.898
57071W        W18382  29.470  12.692   4.716
57072W        W18383  29.054  43.329  13.490
57073W        W18384  28.177  30.652  13.846
57074W        W18385  16.207   8.782   5.268
57075W        W18386  33.472  25.024   3.848
57076W        W18387  39.322   4.834   3.207
57077W        W18388  34.084  10.719   1.331
57078W        W18389  26.111  37.835  12.383
57079W        W18390  38.337  15.130  14.777
57080W        W18391  25.063  32.543  11.055
57081W        W18392  34.986   1.819  11.020
57082W        W18393  36.455  23.538  13.426
57083W        W18394  28.667  25.066   2.894
57084W        W18395  15.808  43.820   3.193
57085W        W18396   3.247   5.351  12.938
57086W        W18397   2.892  34.539  13.046
57087W        W18398  18.164  20.208   2.188
57088W        W18399  32.452   4.893  11.471
57089W        W18400   1.941  17.592   2.817
57090W        W18401  13.175   7.384  11.589
57091W        W18402  35.445  29.552  12.507
57092W        W18403  43.810  11.822  13.944
57093W        W18404  15.101   2.804  14.802
57094W        W18405  19.164   2.728  13.948
57095W        W18406  34.899   7.186   0.434
57096W        W18407  19.649  22.682  11.128
57097W        W18408  39.395  33.072  14.977
57098W        W18409   9.695  25.121  10.504
57099W        W18410  24.049   5.333   1.441
57100W        W18411  28.626   4.412   0.381
57101W        W18412  40.530  13.771   2.386
57102W        W18413  27.530   8.890  13.461
57103W        W18414  42.516  37.344  10.577
57104W        W18415  44.274  29.025   1.427
57105W        W18416  32.616   5.306  13.940
57106W        W18417  28.040  12.175  14.793
57107W        W18418  12.284  20.162   1.236
57108W        W18419  31.545  40.804   1.320
57109W        W18420  27.089   1.479   3.364
57110W        W18421  13.152  42.905  14.321
57111W        W18422  12.196  30.581  12.087
57112W        W18423  13.329   6.720   4.652
57113W        W18424  34.864  11.358   4.151
57114W        W18425  27.961  20.655  14.841
57115W        W18426  38.527  10.716  13.809
57116W        W18427  11.352  38.891  11.555
57117W        W18428  43.377  16.670  13.045
57118W        W18429  38.931  30.597  10.067
57119W        W18430   1.969  44.452   3.147
57120W        W18431   6.426  21.173  14.461
57121W        W18432  44.455  39.376   2.277
57122W        W18433  24.028  36.348   0.468
57123W        W18434  34.495  27.670  14.299
57124W        W18435  25.570  21.207   3.851
57125W        W18436  41.427  16.714   1.297
57126W        W18437  35.108   3.885   0.810
57127W        W18438  40.475   8.748   2.892
57128W        W18439  25.585  10.234   3.800
57129W        W18440  22.100   5.316  12.433
57130W        W18441  33.418   2.773  12.004
57131W        W18442  34.503  44.807   1.293
57132W        W18443  30.055  10.852   3.635
57133W        W18444  35.389  42.952   3.749
57134W        W18445  39.526  35.989   4.345
57135W        W18446  36.395  33.391   3.290
57136W        W18447  27.477  21.540  13.897
57137W        W18448  42.968  25.713   2.220
57138W        W18449  17.085  39.895   1.879
57139W        W18450  36.423   2.881   2.219
57140W        W18451  11.156   7.817  12.904
57141W        W18452  33.449  14.103  12.850
57142W        W18453  17.571  15.291  14.394
57143W        W18454   1.250  31.515   3.370
57144W        W18455  29.647  23.162   0.468
57145W        W18456   3.878  39.327   3.282
57146W        W18457   7.279   3.303  12.564
57147W        W18458  30.152  40.381  13.837
57148W        W18459   5.699  21.068   3.698
57149W        W18460  30.987  10.687  14.886
57150W        W18461  14.100  35.093   1.700
57151W        W18462  37.347  14.674   1.878
57152W        W18463  24.996   1.808   2.762
57153W        W18464  29.611   0.412  11.372
57154W        W18465  15.286  22.144   3.857
57155W        W18466   1.386  35.357   3.818
57156W        W18467   0.743  15.133   2.694
57157W        W18468  43.845  13.789   4.614
57158W        W18469  35.860  34.896   2.681
57159W        W18470  43.430  44.869   4.141
57160W        W18471  41.990  30.086   2.782
57161W        W18472  30.930   8.691  11.125
57162W        W18473   2.368  32.994  10.600
57163W        W18474  21.104  12.843   3.738
57164W        W18475   2.742  37.536   1.702
57165W        W18476  43.858   7.814   1.867
57166W        W18477  44.435  23.675   1.732
57167W        W18478  34.021  19.592   3.257
57168W        W18479  40.841  11.641  13.795
57169W        W18480  40.047  42.361  11.978
57170W        W18481  22.560  22.629  13.876
57171W        W18482  39.387  21.711  13.534
57172W        W18483  17.648  44.997   2.731
57173W        W18484  36.476  26.033   4.755
57174W        W18485  20.536  16.698   3.181
57175W        W18486  44.871   3.227   4.799
57176W        W18487  22.222  30.625  11.995
57177W        W18488  13.170  42.304  13.485
57178W        W18489  15.799  39.851   3.758
57179W        W18490  25.541  11.236   1.271
57180W        W18491   8.335  23.021  11.973
57181W        W18492  14.138  43.878   2.797
57182W        W18493  23.159   6.689   3.193
57183W        W18494  38.361  12.302   0.754
57184W        W18495   4.444  10.210  12.933
57185W        W18496  38.878  29.020   0.419
57186W        W18497  12.277  23.215  11.861
57187W        W18498  37.510  30.474   0.829
57188W        W18499  23.086  32.431  14.365
57189W        W18500  41.329   2.780  10.938
57190W        W18501  30.653   3.225   3.837
57191W        W18502  25.996  31.115   4.166
57192W        W18503  26.005  34.894   3.808
57193W        W18504  39.866   9.764   3.799
57194W        W18505  40.456  41.532  10.978
57195W        W18506   9.320  39.366  11.071
57196W        W18507  13.116  12.735  10.988
57197W        W18508  33.906  29.149   1.284
57198W        W18509  40.846  32.412  11.533
57199W        W18510  27.545  15.625   3.695
57200W        W18511  24.020  12.776   4.612
57201W        W18512  14.234   6.820   1.927
57202W        W18513   8.803  33.407   3.844
57203W        W18514   6.326  13.763  12.966
57204W        W18515  26.174  21.086   2.303
57205W        W18516   5.821  12.247   2.261
57206W        W18517  16.151  28.673   0.382
57207W        W18518  18.748   8.808  12.356
57208W        W18519  10.264  16.734  10.575
57209W        W18520  40.891   3.306  11.978
57210W        W18521  27.994  15.629  12.003
57211W        W18522  10.660  42.426   4.183
57212W        W18523  19.071  40.012  14.949
57213W        W18524  13.774  34.994  14.315
57214W        W18525  21.020  29.626   0.391
57215W        W18526  35.056  17.246  10.928
57216W        W18527   8.191   5.719   1.797
57217W        W18528  20.135   6.884   4.192
57218W        W18529  10.879  30.452   3.668
57219W        W18530  30.063  42.424   4.186
57220W        W18531   2.403   8.728  14.497
57221W        W18532   8.807   3.885  11.903
57222W        W18533   9.224  42.817  12.503
57223W        W18534  39.836   2.942   2.858
57224W        W18535  10.697  15.822   3.375
57225W        W18536  28.547   0.273   4.603
57226W        W18537  19.540  12.736  14.414
57227W        W18538  29.476   8.835  11.045
57228W        W18539  41.346  42.996  12.545
57229W        W18540   7.804  40.418  13.802
57230W        W18541   5.832   9.369  13.414
57231W        W18542  32.892  36.994   4.301
57232W        W18543  33.569  32.511  12.951
57233W        W18544  35.873  29.594   0.348
57234W        W18545  44.799   8.672   0.816
57235W        W18546  34.476   0.435   3.698
57236W        W18547  10.216  13.765  13.983
57237W        W18548  12.701   4.296  14.456
57238W        W18549  10.366  23.167   4.282
57239W        W18550  10.162  32.891   3.806
57240W        W18551  16.769  10.765   3.666
57241W        W18552  16.588  14.629   0.739
57242W        W18553   3.918  21.094  14.429
57243W        W18554  11.152  33.985   4.127
57244W        W18555   9.722  23.634  12.829
57245W        W18556  24.566  33.083  12.971
57246W        W18557  32.110  44.313   0.343
57247W        W18558  35.852  42.291  10.961
57248W        W18559  32.583  38.941  13.431
57249W        W18560   8.312  44.980  10.549
57250W        W18561  37.480  29.953  14.803
57251W        W18562   0.395  30.465   2.210
57252W        W18563   7.365   5.424  11.114
57253W        W18564   9.754  38.055   3.674
57254W        W18565  22.532  35.923  10.903
57255W        W18566  26.130  28.961  11.452
57256W        W18567   0.273  19.652   3.166
57257W        W18568   9.720  44.469  14.981
57258W        W18569  42.370  26.677   1.317
57259W        W18570  15.763   6.305   4.768
57260W        W18571  35.541  39.953  14.437
57261W        W18572   0.937  10.311   1.234
57262W        W18573  32.118  25.697   0.835
57263W        W18574   2.446  34.419  13.905
57264W        W18575  18.563  41.444  14.957
57265W        W18576   5.929   3.227  11.397
57266W        W18577   5.753  11.209   4.715
57267W        W18578  44.871  37.010  12.028
57268W        W18579  11.751  41.453   3.707
57269W        W18580   4.355   5.369   4.710
57270W        W18581  32.047  42.951   3.209
57271W        W18582   7.691  38.954   5.193
57272W        W18583  19.649  34.942   3.194
57273W        W18584   2.428  43.359  12.559
57274W        W18585   7.848  32.464   4.663
57275W        W18586  43.421   4.831   1.934
57276W        W18587  11.362  30.036   3.294
57277W        W18588  40.943  25.211   1.366
57278W        W18589  43.391  10.267   0.267
57279W        W18590  23.226  27.474   3.241
57280W        W18591  32.481  19.595   0.797
57281W        W18592   1.825  21.191  10.937
57282W        W18593  29.132  40.508   3.353
57283W        W18594  14.821   1.240   2.894
57284W        W18595   0.466   2.428  12.371
57285W        W18596  25.217   7.229   4.731
57286W        W18597  27.665  21.097   1.822
57287W        W18598  40.894  13.315   2.373
57288W        W18599  25.648  27.538  10.558
57289W        W18600   1.929  26.144  12.438
57290W        W18601  22.073  33.461  14.803
57291W        W18602  13.745  16.587   4.673
57292W        W18603  28.997   7.345  14.778
57293W        W18604  30.128  33.489  12.841
57294W        W18605  31.486   9.752   0.836
57295W        W18606  21.185  23.163  13.429
57296W        W18607  44.781  40.885  14.401
57297W        W18608  16.269  30.634  10.601
57298W        W18609  44.800  10.373  14.361
57299W        W18610  23.611  22.674   0.935
57300W        W18611  27.643  19.756   4.817
57301W        W18612  33.615  42.783   1.374
57302W        W18613  14.671   1.269   1.900
57303W        W18614   0.976  24.583   2.320
57304W        W18615  28.499  38.461   0.275
57305W        W18616  19.591  20.170   4.130
57306W        W18617  39.008   8.667   4.626
57307W        W18618   8.194   8.688  14.332
57308W        W18619  40.447   0.988   4.605
57309W        W18620  42.906  36.533   1.890
57310W        W18621   4.734  39.490  13.936
57311W        W18622  14.173  38.983  12.967
57312W        W18623  42.942  37.514   9.931
57313W        W18624  39.043  29.101   1.346
57314W        W18625  21.158  28.003   9.990
57315W        W18626  24.047  29.985  14.367
57316W        W18627  32.421  36.384  14.345
57317W        W18628   3.829   0.769   1.833
57318W        W18629  25.968  33.938  11.467
57319W        W18630  25.615  40.517  11.611
57320W        W18631  40.345  27.691   2.744
57321W        W18632  21.061  42.888   4.203
57322W        W18633   3.802  11.342   3.301
57323W        W18634  31.532   2.917  14.481
57324W        W18635  32.585   0.982  14.883
57325W        W18636  27.061  25.166  13.412
57326W        W18637   9.855  42.505   4.162
57327W        W18638  19.769  26.484  11.416
57328W        W18639  40.476  13.293  12.402
57329W        W18640  25.087  26.179  11.467
57330W        W18641  13.780  43.973  14.421
57331W        W18642  32.504  17.690   3.374
57332W        W18643   4.283   4.805  10.977
57333W        W18644   7.806  20.642  12.940
57334W        W18645  24.666   1.310  11.439
57335W        W18646   1.884  17.280  11.950
57336W        W18647  40.540  43.498  13.328
57337W        W18648  42.468  37.836  13.004
57338W        W18649  27.510  11.164  14.399
57339W        W18650  42.787   6.750  14.989
57340W        W18651   2.374  38.488   3.245
57341W        W18652  35.985  37.058  10.999
57342W        W18653  41.427  17.737  11.943
57343W        W18654  32.931  37.845   3.841
57344W        W18655  27.119  21.189  12.575
57345W        W18656  38.366  27.986   1.403
57346W        W18657  34.087  43.419  13.439
57347W        W18658  21.604  35.530   3.285
57348W        W18659   7.190  25.100  12.825
57349W        W18660   9.380   2.941  14.828
57350W        W18661  26.586  10.189  14.293
57351W        W18662   7.407   0.320  10.519
57352W        W18663  12.218  16.681   2.318
57353W        W18664  28.050   6.859  13.441
57354W        W18665   2.373  31.458   0.474
57355W        W18666  40.416   4.275   4.636
57356W        W18667  19.076   8.201   3.686
57357W        W18668  43.501  30.575   4.734
57358W        W18669  17.714  14.107   0.771
57359W        W18670   5.349  22.590  14.826
57360W        W18671  20.723  38.941   1.732
57361W        W18672  11.836  38.954  12.909
57362W        W18673   8.244  28.106  14.960
57363W        W18674  32.065   7.868   1.312
57364W        W18675  26.560  34.494  12.383
57365W        W18676  32.940   3.253   0.745
57366W        W18677   1.771  40.995  10.516
57367W        W18678  29.956  27.517  11.089
57368W        W18679  36.031  10.847  11.488
57369W        W18680  37.944  21.036  11.955
57370W        W18681  18.727   4.849  14.819
57371W        W18682   0.286   8.165  12.953
57372W        W18683  16.107   6.394  11.945
57373W        W18684  11.652  24.724  13.391
57374W        W18685  28.574  41.417   5.272
57375W        W18686  22.086  10.171  12.364
57376W        W18687  37.865  19.547   5.196
57377W        W18688  43.380  18.748   1.868
57378W        W18689  42.800  39.508  11.036
57379W        W18690  23.725  12.357  12.367
57380W        W18691  18.100  12.145   1.369
57381W        W18692  18.125  22.081  14.474
57382W        W18693  41.529  14.175  14.032
57383W        W18694  14.129   6.332   0.887
57384W        W18695   1.749   2.846  11.052
57385W        W18696  14.828   9.812   3.214
57386W        W18697  41.339  10.315   1.414
57387W        W18698   4.766  44.264   2.776
57388W        W18699   6.258   8.795   3.288
57389W        W18700   6.901   1.885  14.492
57390W        W18701  35.539  28.072   2.407
57391W        W18702  15.179  41.515   0.853
57392W        W18703  11.298  22.158  10.954
57393W        W18704  36.880  36.993   9.979
57394W        W18705  21.151  36.958  12.953
57395W        W18706  21.645  35.516   1.302
57396W        W18707  28.496   3.318  12.539
57397W        W18708  20.567  27.177   0.874
57398W        W18709  43.467  43.775   3.209
57399W        W18710  27.488  31.141   4.292
57400W        W18711  11.152  20.655  10.637
57401W        W18712  13.677  29.547  10.467
57402W        W18713  38.842  39.445  14.994
57403W        W18714  39.924  38.334  12.504
57404W        W18715  11.816  33.590   3.222
57405W        W18716  14.624   7.368  14.377
57406W        W18717  39.364  23.177   0.333
57407W        W18718  11.295  14.178  11.587
57408W        W18719  16.167  13.645   3.353
57409W        W18720  28.027  35.568   1.405
57410W        W18721  37.441  33.449   1.790
57411W        W18722  16.077   6.805  10.144
57412W        W18723   5.922  42.290  13.845
57413W        W18724  10.747  12.676   0.313
57414W        W18725  24.190  16.707   3.173
57415W        W18726   7.191  27.554   3.808
57416W        W18727   3.355  17.731   3.277
57417W        W18728   4.205  38.061  10.978
57418W        W18729   0.253  12.662  13.338
57419W        W18730   8.260  21.175  14.410
57420W        W18731  40.053  40.907  13.852
57421W        W18732  16.130  44.810  12.450
57422W        W18733  34.572  25.651   4.341
57423W        W18734  20.646  44.408  13.503
57424W        W18735  40.936  18.291  14.765
57425W        W18736  42.031  13.159  14.438
57426W        W18737  35.052  12.642   2.825
57427W        W18738  38.827  37.472  14.881
57428W        W18739  28.599   1.476   1.351
57429W        W18740  23.576   3.276   1.906
57430W        W18741   5.376  36.548   1.736
57431W        W18742   4.706  33.442   2.729
57432W        W18743  38.529  32.939   2.329
57433W        W18744  28.020  12.714  13.397
57434W        W18745  44.281  26.991   4.755
57435W        W18746  16.592  42.309  12.962
57436W        W18747   0.832  36.469   2.313
57437W        W18748   5.815  13.809   3.732
57438W        W18749  30.089  23.705  13.938
57439W        W18750  34.026  38.060   4.220
57440W        W18751  32.452   7.744   1.797
57441W        W18752  38.549  29.559   4.335
57442W        W18753  44.999  22.099  10.618
57443W        W18754  41.508  32.569   3.304
57444W        W18755  17.603  39.987  11.037
57445W        W18756  30.971  19.660  13.329
57446W        W18757  23.621  36.999   4.731
57447W        W18758  22.738  11.668  12.947
57448W        W18759  41.422  36.586  11.587
57449W        W18760  39.545  23.993   4.134
57450W        W18761  30.962   8.230   2.879
57451W        W18762  43.876  32.119   1.240
57452W        W18763  29.443  25.547  14.810
57453W        W18764  27.536   9.753  13.541
57454W        W18765  29.554  14.728   0.302
57455W        W18766  34.109  29.573  14.350
57456W        W18767  44.983  15.202  12.570
57457W        W18768  34.087  18.102   3.683
57458W        W18769  16.659  27.469   2.872
57459W        W18770  28.143  23.176  10.064
57460W        W18771  29.585  21.092  13.031
57461W        W18772  37.993   7.262  14.301
57462W        W18773  33.024   3.412  11.522
57463W        W18774  24.010  23.675   1.744
57464W        W18775  17.144  25.102   1.882
57465W        W18776  36.503  12.203  13.853
57466W        W18777  19.069  25.647   3.382
57467W        W18778  34.886  11.223  11.510
57468W        W18779   1.958   3.881  12.949
57469W        W18780   3.383  16.784  10.917
57470W        W18781   3.722  24.103   3.703
57471W        W18782  25.641  15.165  10.608
57472W        W18783  17.238  23.501  10.060
57473W        W18784  44.420  10.825   4.635
57474W        W18785  10.735  29.009   0.484
57475W        W18786  19.123  33.035   4.760
57476W        W18787  37.340  13.147   2.691
57477W        W18788  35.427  43.431  13.396
57478W        W18789  26.607   4.914   2.418
57479W        W18790   0.392   4.713  11.592
57480W        W18791  21.697  42.989  14.303
57481W        W18792  17.661  24.063   1.273
57482W        W18793  26.562  42.283  13.329
57483W        W18794  22.681  36.579   5.147
57484W        W18795  32.549   8.822  13.984
57485W        W18796   7.696  16.736  13.445
57486W        W18797  39.505  34.025  13.871
57487W        W18798  31.051  18.208  14.991
57488W        W18799  12.300  13.619  11.573
57489W        W18800  29.924  15.145  14.333
57490W        W18801  34.081  25.560   1.782
57491W        W18802   1.249  25.062   4.639
57492W        W18803  26.167   0.463  11.468
57493W        W18804  43.950  35.928  12.469
57494W        W18805   5.919  29.667  12.375
57495W        W18806  33.953  32.983   4.830
57496W        W18807  16.702   4.345   0.965
57497W        W18808  29.670  33.426  11.447
57498W        W18809  17.144  35.054  13.863
57499W        W18810  30.129  24.099  11.405
57500W        W18811  39.051  23.068  11.374
57501W        W18812   6.230  26.663  12.473
57502W        W18813  15.171  14.236   5.779
57503W        W18814  30.035  12.798  11.392
57504W        W18815  38.923  30.936   1.828
57505W        W18816  31.511  32.914   1.752
57506W        W18817  32.009  19.585  12.395
57507W        W18818   0.461  16.647  13.828
57508W        W18819  23.550  38.965  11.025
57509W        W18820   3.229  23.639   2.284
57510W        W18821  22.019  31.582  14.878
57511W        W18822   9.335  11.220  11.893
57512W        W18823   3.265  19.234   4.131
57513W        W18824  13.273   5.877   4.633
57514W        W18825  31.585  35.480  12.012
57515W        W18826   7.305  22.533  12.401
57516W        W18827  41.968  24.060  14.764
57517W        W18828  10.718  37.512  14.355
57518W        W18829  41.975   8.365  14.011
57519W        W18830   4.897   5.749   1.218
57520W        W18831   8.894  41.466  14.771
57521W        W18832   7.384  44.362   4.644
57522W        W18833  27.594  38.487  12.345
57523W        W18834  42.320   8.211  14.482
57524W        W18835  29.441  10.349   5.268
57525W        W18836  12.207  30.608   1.729
57526W        W18837  29.548  44.379   2.682
57527W        W18838  32.109  38.492  12.578
57528W        W18839  28.644  15.777   0.429
57529W        W18840  12.231  29.579  13.055
57530W        W18841  15.817  22.508   2.386
57531W        W18842  14.833  39.030  12.969
57532W        W18843  24.585   5.330   1.260
57533W        W18844  20.126  32.417   4.333
57534W        W18845  19.610  23.728  12.458
57535W        W18846  28.623  31.937  13.962
57536W        W18847  34.373  25.046   4.155
57537W        W18848  43.009   8.779   0.458
57538W        W18849  35.016   1.423  14.438
57539W        W18850  29.075  34.109   0.938
57540W        W18851  32.122  37.417  14.293
57541W        W18852  35.931  17.583   0.334
57542W        W18853  22.522  16.629  11.950
57543W        W18854  35.395   1.335  13.413
57544W        W18855  43.014  30.160   2.371
57545W        W18856  43.510  22.231  11.106
57546W        W18857  27.689  14.203   3.304
57547W        W18858  32.081  41.409  13.836
57548W        W18859  11.340   4.351  13.431
57549W        W18860  10.763  37.372  13.350
57550W        W18861  11.295  38.874   3.335
57551W        W18862  32.915   1.976   1.311
57552W        W18863  13.260  13.798   4.163
57553W        W18864  12.327  20.216  13.925
57554W        W18865  12.342  44.763   3.649
57555W        W18866  33.939  15.276  14.942
57556W        W18867   7.372  32.907   4.618
57557W        W18868   6.209  33.437  14.860
57558W        W18869  39.325  13.154   2.341
57559W        W18870  12.319  13.144  11.864
57560W        W18871  38.355  40.469   2.360
57561W        W18872  14.823  33.009  13.499
57562W        W18873   3.219   6.399   5.194
57563W        W18874  33.567  12.201   0.812
57564W        W18875   1.442  19.754  12.434
57565W        W18876  12.188  40.378  13.491
57566W        W18877  34.092   5.792  10.572
57567W        W18878  34.480   9.693  10.925
57568W        W18879   2.404  29.024  10.451
57569W        W18880   8.160  27.968   3.344
57570W        W18881  13.143  34.563  13.819
57571W        W18882  16.114  29.162   3.246
57572W        W18883   0.309  41.964  10.568
57573W        W18884   7.738  29.083   5.257
57574W        W18885  15.624  17.778   4.284
57575W        W18886  23.217  28.112  14.895
57576W        W18887  35.482   4.230   0.953
57577W        W18888  13.610  21.099   4.218
57578W        W18889  14.755  43.802   3.781
57579W        W18890  26.469  44.405  11.041
57580W        W18891  17.768  37.866   4.266
57581W        W18892  15.815   5.324  12.989
57582W        W18893  27.180  11.845   3.312
57583W        W18894   7.212  34.974   4.700
57584W        W18895  39.511  41.401  11.502
57585W        W18896  25.701  25.525   3.838
57586W        W18897  37.529  16.621   1.740
57587W        W18898  26.090  42.349   1.797
57588W        W18899  42.385   4.372   1.893
57589W        W18900  29.457   8.255  10.080
57590W        W18901  30.966  26.584   5.234
57591W        W18902  33.902  30.912  14.794
57592W        W18903  29.461  25.685  12.996
57593W        W18904  28.163  30.073  12.887
57594W        W18905  17.656  39.464  14.791
57595W        W18906  29.536  22.588  11.996
57596W        W18907  36.847  27.511  13.311
57597W        W18908  41.362  36.506  14.478
57598W        W18909  15.275   8.710   3.271
57599W        W18910   5.818  38.956  14.010
57600W        W18911  20.191  10.335   3.688
57601W        W18912  42.984  19.596  10.948
57602W        W18913  17.230  13.124   5.640
57603W        W18914  13.194  43.818  10.452
57604W        W18915   8.865  44.765  12.827
57605W        W18916  29.085   3.377  13.455
57606W        W18917  15.715  14.307   1.931
57607W        W18918  21.215  38.526  13.811
57608W        W18919  27.548  40.824  11.611
57609W        W18920  37.938  10.651  10.616
57610W        W18921  12.820  35.000   4.817
57611W        W18922  22.662  28.634   3.779
57612W        W18923   8.223  20.187   2.391
57613W        W18924  41.787  41.028  12.394
57614W        W18925  21.572   5.890   0.799
57615W        W18926  17.599  17.597   3.356
57616W        W18927  44.838  39.487   0.864
57617W        W18928  12.637  21.121  10.124
57618W        W18929  39.922  33.997   0.309
57619W        W18930  27.087  12.256  10.553
57620W        W18931  29.556   2.282  12.421
57621W        W18932   9.725  13.662  11.069
57622W        W18933  23.649  40.377   4.283
57623W        W18934  14.304  23.138   4.196
57624W        W18935  26.650  44.281  13.529
57625W        W18936   4.763  44.800   0.378
57626W        W18937  35.928  35.991   1.432
57627W        W18938   0.911  23.613   0.410
57628W        W18939  23.531   9.701  13.356
57629W        W18940  31.003   4.394   2.417
57630W        W18941  29.426   0.363   1.841
57631W        W18942   2.326  15.705  14.470
57632W        W18943  16.609  27.657   4.319
57633W        W18944  41.387  11.800   4.664
57634W        W18945  39.831  39.060   4.804
57635W        W18946  40.320  11.798  10.932
57636W        W18947   6.756  24.131   2.838
57637W        W18948  17.090  25.704  12.548
57638W        W18949  15.745  26.140  10.029
57639W        W18950   0.315  11.307   4.184
57640W        W18951  22.633  27.100   0.351
57641W        W18952  39.851   5.373   3.165
57642W        W18953  24.561  21.109  13.320
57643W        W18954  36.039  26.041   0.899
57644W        W18955  33.112  21.239   3.311
57645W        W18956  23.060  29.487  14.350
57646W        W18957  41.393  11.185   0.451
57647W        W18958  31.412  42.013   3.692
57648W        W18959  42.302   1.796   4.130
57649W        W18960  11.751  17.130  12.847
57650W        W18961   4.829  39.492  14.901
57651W        W18962   5.392  14.744   0.869
57652W        W18963   0.945  44.294   2.808
57653W        W18964  20.668  39.885  14.783
57654W        W18965   6.778  20.213   0.332
57655W        W18966  30.161  18.244   2.237
57656W        W18967  30.150  38.068  14.431
57657W        W18968   9.732  40.908  13.488
57658W        W18969  13.734  18.066   3.786
57659W        W18970  44.383  23.178   2.834
57660W        W18971  12.729   2.364   3.796
57661W        W18972  19.278  11.243  12.021
57662W        W18973  18.688  36.439   3.728
57663W        W18974  34.977  10.336   2.191
57664W        W18975  12.724  42.874  11.059
57665W        W18976  33.019  36.492  12.994
57666W        W18977  44.374  13.261  14.365
57667W        W18978  32.050  28.564  13.342
57668W        W18979   7.847  20.731   1.743
57669W        W18980  11.307  11.356   3.833
57670W        W18981  44.502  23.161  14.350
57671W        W18982  25.107  12.764  13.471
57672W        W18983   3.299  18.134  14.341
57673W        W18984  10.358  29.942   3.775
57674W        W18985  33.465   1.351   1.786
57675W        W18986  28.165  24.674  10.432
57676W        W18987  27.688  13.285  11.538
57677W        W18988  13.689   1.421  14.804
57678W        W18989  35.569  40.867  13.358
57679W        W18990   3.370  22.027  12.985
57680W        W18991  30.651  17.766   1.247
57681W        W18992  10.320   5.296  11.061
57682W        W18993  34.000  40.409  12.508
57683W        W18994  12.137  12.205  10.632
57684W        W18995  12.312  34.424   3.157
57685W        W18996  43.278  24.103   2.278
57686W        W18997  23.240  35.377   2.703
57687W        W18998   7.866  43.431  12.555
57688W        W18999  22.649   5.275   1.828
57689W        W19000  32.613   0.752   0.319
57690W        W19001   9.376  12.322   4.170
57691W        W19002  22.684  43.385  14.304
57692W        W19003  33.457   2.750   2.332
57693W        W19004  34.585  25.054  10.472
57694W        W19005   5.330  30.478   5.244
57695W        W19006  29.000  29.125   2.338
57696W        W19007   7.274   9.309   0.849
57697W        W19008  27.122  44.334   2.182
57698W        W19009  35.044  27.966   4.169
57699W        W19010  20.735  35.480  12.867
57700W        W19011   5.268  24.555  10.568
57701W        W19012  10.866  23.115  12.380
57702W        W19013   9.315  13.255  13.957
57703W        W19014  21.696  33.074  13.466
57704W        W19015   9.193  40.442  12.839
57705W        W19016  17.650  10.877   2.197
57706W        W19017  15.716  18.147  10.078
57707W        W19018   5.400  37.519  14.027
57708W        W19019  30.429   2.354   1.379
57709W        W19020   0.432  12.695   3.793
57710W        W19021   6.358   3.873  11.069
57711W        W19022  33.437  19.208   9.976
57712W        W19023  38.853  14.340   1.312
57713W        W19024  32.582  40.953  11.472
57714W        W19025  22.037   0.483   2.880
57715W        W19026  30.652  14.167  12.937
57716W        W19027   5.726  39.546  14.874
57717W        W19028  20.570   0.273   0.472
57718W        W19029  12.177  22.082  14.917
57719W        W19030  35.054   4.919  10.454
57720W        W19031  34.948  10.865  10.473
57721W        W19032   0.374  15.217  14.343
57722W        W19033   0.780  13.216  13.467
57723W        W19034  15.185  32.493  13.838
57724W        W19035  27.085  16.643   1.777
57725W        W19036  37.430  32.409   9.630
57726W        W19037  32.034   0.343   4.312
57727W        W19038  24.676  14.768   3.303
57728W        W19039  13.156  22.511   3.165
57729W        W19040  43.850  27.526  10.604
57730W        W19041   9.357  11.623  11.101
57731W        W19042  11.745  19.717   5.255
57732W        W19043  41.382  16.725  12.003
57733W        W19044  39.419   4.937  14.846
57734W        W19045  19.673   4.836   0.320
57735W        W19046  42.792  19.634  13.535
57736W        W19047  24.525  39.869  10.064
57737W        W19048  12.696  42.307   3.688
57738W        W19049  13.236  12.840   2.184
57739W        W19050  23.137  24.104  12.405
57740W        W19051  44.400  43.378   0.370
57741W        W19052  34.990  44.758  14.362
57742W        W19053  25.676   2.444  12.446
57743W        W19054  15.229  31.046  13.434
57744W        W19055  44.466  19.230   2.667
57745W        W19056  31.617  22.055  12.499
57746W        W19057  32.052  40.978  10.466
57747W        W19058  34.975  27.191  12.013
57748W        W19059  40.403  12.638   1.704
57749W        W19060   4.742  42.385   1.785
57750W        W19061  27.679  44.373   3.825
57751W        W19062  21.691  16.662   9.592
57752W        W19063  31.604  20.228   1.776
57753W        W19064  19.058  15.084   3.686
57754W        W19065  21.069   8.666   2.794
57755W        W19066  21.715   8.860   4.692
57756W        W19067   5.405  27.513   2.785
57757W        W19068  30.526  32.506   0.428
57758W        W19069  35.425   9.209   3.370
57759W        W19070  11.684  22.584  11.023
57760W        W19071  10.715  36.580   1.732
57761W        W19072   9.837  43.950   2.838
57762W        W19073  35.498  23.179   3.297
57763W        W19074  34.037  26.206  13.826
57764W        W19075  43.900  22.192  13.490
57765W        W19076  14.300   1.850   2.870
57766W        W19077   3.929  12.641   3.146
57767W        W19078  41.009  11.660  13.337
57768W        W19079   3.413  44.336   5.210
57769W        W19080  32.597  32.610   2.712
57770W        W19081  20.705   7.323   4.747
57771W        W19082  11.866   7.761   3.719
57772W        W19083   6.713  33.918  13.054
57773W        W19084  10.383  31.089   4.748
57774W        W19085  28.997  14.233   0.967
57775W        W19086  22.111  39.349  12.524
57776W        W19087  42.810  33.905  13.812
57777W        W19088  41.315  19.107   3.814
57778W        W19089  43.822  11.678   4.777
57779W        W19090  35.085   8.184   2.208
57780W        W19091   4.711   5.403  12.438
57781W        W19092  22.093  37.876  12.395
57782W        W19093  24.222   3.294   1.756
57783W        W19094   0.333   6.871  12.567
57784W        W19095  28.584   2.851  11.881
57785W        W19096   0.824  19.167  11.078
57786W        W19097  10.139  43.972  10.007
57787W        W19098  21.605   9.283  13.984
57788W        W19099  38.917   5.407   1.775
57789W        W19100  39.065  32.112   4.796
57790W        W19101  36.420  33.529   0.407
57791W        W19102  37.050  24.067   3.377
57792W        W19103  39.391  17.108  10.536
57793W        W19104  39.389   6.313  13.911
57794W        W19105  19.202   2.287  10.471
57795W        W19106   3.769  14.309  10.424
57796W        W19107  11.785   8.354  13.498
57797W        W19108  44.976  12.647   3.681
57798W        W19109   4.892  14.254  11.055
57799W        W19110  38.346  15.682   3.735
57800W        W19111  22.233  19.184  12.073
57801W        W19112  16.266  15.254   3.274
57802W        W19113  12.352  33.938  14.335
57803W        W19114  29.491  41.484   0.730
57804W        W19115  10.246  39.831  14.847
57805W        W19116  37.341  25.074  12.520
57806W        W19117  30.164  18.618   2.747
57807W        W19118  16.196  36.585   3.324
57808W        W19119  15.292   3.777  14.817
57809W        W19120  14.297   8.189   0.769
57810W        W19121  19.738  43.003  11.542
57811W        W19122  15.103  25.495   4.208
57812W        W19123  13.678  38.524  10.999
57813W        W19124  29.953  18.782  12.008
57814W        W19125  12.120  31.608  11.594
57815W        W19126  43.807  30.542   3.630
57816W        W19127  26.674  39.442  10.628
57817W        W19128  41.386   2.833  13.524
57818W        W19129  42.878   2.272  13.941
57819W        W19130  32.616  38.885  12.420
57820W        W19131  15.313  36.480   4.822
57821W        W19132   3.955  19.167   1.260
57822W        W19133   4.401  29.144  11.051
57823W        W19134   5.253  16.616   1.359
57824W        W19135  34.891   7.260  12.890
57825W        W19136  24.191   4.829  11.377
57826W        W19137   2.269   0.848   1.877
57827W        W19138   2.296  25.680  14.319
57828W        W19139   1.836  43.954   0.376
57829W        W19140   0.853   2.405  12.060
57830W        W19141  18.208  22.062   0.928
57831W        W19142  17.586  17.762   0.824
57832W        W19143  21.530  18.554  10.982
57833W        W19144  15.753  33.046   0.409
57834W        W19145  11.687   6.710  14.812
57835W        W19146   8.224   6.393   2.305
57836W        W19147   3.726  44.995  12.350
57837W        W19148  16.225  30.113   0.441
57838W        W19149  43.405  42.507  10.973
57839W        W19150   8.216  39.867  14.853
57840W        W19151   0.935   5.412  12.919
57841W        W19152  35.592  17.283  14.475
57842W        W19153  29.544  27.010   2.384
57843W        W19154  23.216  35.859   1.368
57844W        W19155   2.782   5.920  13.369
57845W        W19156  28.166  17.602  12.580
57846W        W19157   8.844  40.033   1.399
57847W        W19158  41.981  35.933  12.923
57848W        W19159  38.921  37.470   4.314
57849W        W19160  10.334  23.498   1.232
57850W        W19161   2.252  30.645  13.989
57851W        W19162   0.932  37.480  13.391
57852W        W19163   9.715  34.592  12.343
57853W        W19164  42.829  36.548   2.392
57854W        W19165  15.666  17.566  10.511
57855W        W19166   7.721  26.108  11.086
57856W        W19167   7.198  18.259   1.268
57857W        W19168  42.022   4.927  11.043
57858W        W19169  12.739  34.511   0.290
57859W        W19170  43.431   3.448  12.900
57860W        W19171  28.007  28.607   3.686
57861W        W19172  12.357  24.485   1.843
57862W        W19173  12.628  39.553  14.851
57863W        W19174  31.548  21.104  14.288
57864W        W19175   4.365  22.717   2.299
57865W        W19176  28.126  39.958   3.224
57866W        W19177   7.349  10.689  13.364
57867W        W19178  31.115  15.152  14.392
57868W        W19179  43.950  31.992   2.818
57869W        W19180  25.153  42.521   1.388
57870W        W19181   6.702  23.013  13.957
57871W        W19182  30.490  27.966  12.941
57872W        W19183  11.843  22.741   4.661
57873W        W19184  25.138   8.323   4.812
57874W        W19185  35.419  28.052  14.460
57875W        W19186   0.777  22.246   1.452
57876W        W19187  19.205  10.805  11.438
57877W        W19188  21.745   4.267  11.037
57878W        W19189   9.385   5.339  10.470
57879W        W19190  27.600  36.086  13.980
57880W        W19191  28.641  35.895  11.491
57881W        W19192   4.349  41.971  11.991
57882W        W19193  18.740  35.942   3.850
57883W        W19194   5.908  28.442  13.993
57884W        W19195  29.517  22.666  14.337
57885W        W19196  28.549  40.926  14.449
57886W        W19197  40.889  27.657  11.035
57887W        W19198  16.257  30.589   1.714
57888W        W19199   1.781  42.506   4.256
57889W        W19200  38.502   1.829   0.315
57890W        W19201  29.929  36.572  13.880
57891W        W19202  29.545  23.219  12.041
57892W        W19203   3.414   5.329   3.161
57893W        W19204  29.449   8.894   4.334
57894W        W19205  37.949  40.921   5.716
57895W        W19206   2.323   6.337   1.734
57896W        W19207  10.848   9.345  13.398
57897W        W19208  35.058  35.868  14.971
57898W        W19209  33.506   7.733  13.922
57899W        W19210  10.846  27.990   2.391
57900W        W19211  44.278  24.076   1.776
57901W        W19212  16.577  24.229  12.941
57902W        W19213  19.149  30.939   3.799
57903W        W19214  40.355   4.329   0.740
57904W        W19215   3.795  17.287   9.997
57905W        W19216  35.952  14.165  10.893
57906W        W19217  44.978  13.184   0.308
57907W        W19218  20.538  28.584   2.753
57908W        W19219  34.008  22.009   1.394
57909W        W19220  31.404  25.547   1.272
57910W        W19221   7.220  23.132  10.554
57911W        W19222  33.910  41.852  11.108
57912W        W19223  17.103   8.791  12.379
57913W        W19224  15.085  30.976  13.979
57914W        W19225  14.284  16.757  12.885
57915W        W19226  43.949  24.613  13.028
57916W        W19227  34.868  23.237  11.518
57917W        W19228  15.121  20.562  14.377
57918W        W19229  14.753  30.579  13.454
57919W        W19230  39.917  16.780   1.252
57920W        W19231  15.660  40.388  12.527
57921W        W19232  14.600  17.606   3.679
57922W        W19233   6.348  43.299  11.922
57923W        W19234  17.155  13.829  14.876
57924W        W19235   2.391  14.213   1.327
57925W        W19236  12.310  25.065   1.739
57926W        W19237  33.972  32.049  11.086
57927W        W19238   5.277   5.259  13.063
57928W        W19239  20.125   8.894   2.728
57929W        W19240   4.715  33.098   0.331
57930W        W19241  22.156   5.296  11.061
57931W        W19242  26.465  15.753  12.035
57932W        W19243  31.991   4.251   0.402
57933W        W19244  36.481  15.608   3.350
57934W        W19245  19.045  32.493   2.856
57935W        W19246  40.833  15.780   1.828
57936W        W19247  40.815  17.626   3.757
57937W        W19248  41.361  42.903  11.414
57938W        W19249   6.268  22.626   2.210
57939W        W19250   2.866  20.053   2.188
57940W        W19251  39.034  18.185  14.984
57941W        W19252   1.473  12.297  12.343
57942W        W19253  13.345   0.989  14.368
57943W        W19254  24.033  40.000  10.064
57944W        W19255  41.469  44.386   1.341
57945W        W19256  23.533  42.946   1.900
57946W        W19257   6.869  18.189   0.322
57947W        W19258  34.071  34.512  14.833
57948W        W19259  18.231  44.265  13.327
57949W        W19260  23.637  36.538  14.897
57950W        W19261  15.287  16.688  14.894
57951W        W19262  21.081  19.082   2.190
57952W        W19263   3.737  32.457  14.774
57953W        W19264  23.548  31.988   5.702
57954W        W19265  32.479  28.083   0.261
57955W        W19266  20.173  14.635   3.383
57956W        W19267  10.187  43.491   4.661
57957W        W19268   8.258  41.911  13.383
57958W        W19269  19.611  13.124  12.956
57959W        W19270  44.810  40.825  12.458
57960W        W19271  35.580  33.405   3.181
57961W        W19272  28.931   2.835   3.325
57962W        W19273  18.102  40.907  11.097
57963W        W19274   4.239  25.199   0.330
57964W        W19275  44.869  29.073   4.663
57965W        W19276   2.367  22.608  14.457
57966W        W19277  26.660  10.207   4.780
57967W        W19278   1.966  44.797  13.350
57968W        W19279   6.386  21.245   0.385
57969W        W19280  27.128   8.267  13.522
57970W        W19281  23.542   0.904  14.908
57971W        W19282   9.665  33.933   3.655
57972W        W19283   3.784   3.737  13.410
57973W        W19284  17.262  17.659   4.242
57974W        W19285  44.939  21.158   2.703
57975W        W19286  14.823  44.371  10.436
57976W        W19287  16.232  13.143  11.395
57977W        W19288  11.633  33.948   3.358
57978W        W19289  28.043  14.251  10.498
57979W        W19290   0.983  12.780   1.240
57980W        W19291   0.785   2.452   0.275
57981W        W19292  10.224  25.008  14.395
57982W        W19293   6.332  39.394   3.819
57983W        W19294   4.822  10.642  14.375
57984W        W19295  22.182   9.645   4.283
57985W        W19296  20.704  44.377  12.453
57986W        W19297   2.781  38.559  13.455
57987W        W19298   6.818   7.876   2.219
57988W        W19299  19.731  31.133  12.544
57989W        W19300  10.174   2.312  11.889
57990W        W19301  35.577  10.814   3.773
57991W        W19302   5.930   8.192  13.323
57992W        W19303  17.144  10.767   2.697
57993W        W19304  33.892  20.237   2.803
57994W        W19305  40.864  12.315  13.543
57995W        W19306  23.172   5.294   4.241
57996W        W19307   3.944   9.781  12.349
57997W        W19308  20.581  15.663   0.413
57998W        W19309  17.581  13.828   1.218
57999W        W19310   3.323   4.787   0.885
58000W        W19311   6.796  15.121  10.407
58001W        W19312  42.478  17.087   0.444
58002W        W19313   1.834  24.667  13.320
58003W        W19314  23.583  23.200   4.295
58004W        W19315   5.287  14.223  10.111
58005W        W19316   3.297  30.478  11.918
58006W        W19317  26.629  14.767  14.470
58007W        W19318   7.176   5.902  11.421
58008W        W19319  37.409  28.933   2.787
58009W        W19320  18.716  37.343   2.215
58010W        W19321  30.023   3.790  12.415
58011W        W19322   8.162  34.085   1.214
58012W        W19323  27.520  20.186   2.788
58013W        W19324  35.358  25.970   4.169
58014W        W19325  11.335  28.058  12.529
58015W        W19326   4.386  39.411  14.020
58016W        W19327  24.574  14.768   1.787
58017W        W19328   0.977  37.459   5.305
58018W        W19329  10.633  18.059   1.837
58019W        W19330  23.720  13.278   4.221
58020W        W19331  31.436  43.819   3.376
58021W        W19332  42.926  23.720  12.823
58022W        W19333   4.259  19.716   4.605
58023W        W19334  28.493  18.667   0.249
58024W        W19335  28.668  38.389  14.420
58025W        W19336   8.306  34.426   4.784
58026W        W19337  26.517  34.026  12.055
58027W        W19338  35.544  43.808  11.501
58028W        W19339   9.755  10.689   0.927
58029W        W19340  33.941   6.410  14.873
58030W        W19341  22.171  22.505  11.870
58031W        W19342   5.881  40.001  13.393
58032W        W19343  25.477   4.221  13.056
58033W        W19344  12.807  35.377  10.446
58034W        W19345  42.775  29.570   3.778
58035W        W19346  41.498   3.740  14.414
58036W        W19347  28.627  33.061  12.566
58037W        W19348  13.290  15.087  11.018
58038W        W19349  36.370  44.823  11.909
58039W        W19350   7.373  11.318   1.841
58040W        W19351  20.204   9.661  13.503
58041W        W19352   4.910  38.013   0.903
58042W        W19353   5.391  32.896   2.711
58043W        W19354  12.634  30.035   0.856
58044W        W19355   5.240  39.560   4.236
58045W        W19356  13.618  40.310  10.500
58046W        W19357  34.075   4.380  13.312
58047W        W19358  15.718  39.938   1.877
58048W        W19359  33.076   0.783   0.269
58049W        W19360  34.463  44.874  14.363
58050W        W19361  37.997   6.257   0.271
58051W        W19362  30.559  33.002   4.144
58052W        W19363  17.295  10.763  13.966
58053W        W19364   9.150  23.667   3.646
58054W        W19365  29.613  43.401   0.335
58055W        W19366  11.627   1.797  13.929
58056W        W19367  38.456   4.911   1.220
58057W        W19368   0.320  21.059  11.547
58058W        W19369  35.005  29.137  11.050
58059W        W19370  15.674  25.084  13.958
58060W        W19371  37.507   7.782  14.378
58061W        W19372   2.314  24.699  14.465
58062W        W19373  21.548  27.096  11.977
58063W        W19374  44.761  25.028   4.257
58064W        W19375  35.393  43.393  14.957
58065W        W19376  28.521  42.447  11.450
58066W        W19377  39.477  22.661  11.519
58067W        W19378  20.176  35.105   3.284
58068W        W19379  12.312  39.333   0.906
58069W        W19380  27.067  31.033  13.846
58070W        W19381  12.289  37.848   2.852
58071W        W19382   7.725  18.614  14.758
58072W        W19383  38.495  35.107  13.497
58073W        W19384  19.275   6.408  10.644
58074W        W19385  18.111   1.892  13.534
58075W        W19386  10.351  31.066  14.002
58076W        W19387  22.500  25.554  13.470
58077W        W19388   5.812   2.840  13.486
58078W        W19389  19.606   8.390   2.411
58079W        W19390  13.778   2.882   2.404
58080W        W19391  10.369  44.765   3.750
58081W        W19392  19.112  29.939  11.924
58082W        W19393   5.830  33.594  11.526
58083W        W19394   6.309  20.722   3.200
58084W        W19395  15.300   8.406  11.985
58085W        W19396   7.783  24.212  14.829
58086W        W19397  28.500   5.230   3.666
58087W        W19398  38.819   9.195  11.593
58088W        W19399  33.561  41.001  13.045
58089W        W19400   4.799  12.151  11.886
58090W        W19401   0.452  42.281   3.338
58091W        W19402  12.778   5.433  11.542
58092W        W19403  21.511   1.309  10.446
58093W        W19404   7.859  17.234  11.420
58094W        W19405   2.900  13.812  14.418
58095W        W19406  18.605  43.880  10.527
58096W        W19407  31.458  44.462   0.955
58097W        W19408  22.526  29.473   0.283
58098W        W19409  27.562   7.345   9.944
58099W        W19410   6.230  11.219  11.884
58100W        W19411  16.260  17.697  13.341
58101W        W19412   9.283  29.139   3.839
58102W        W19413   0.397  16.590   4.664
58103W        W19414  41.388  26.110  11.926
58104W        W19415   4.377   3.413   3.821
58105W        W19416  35.431  15.604   4.650
58106W        W19417  22.637  36.902   2.732
58107W        W19418  28.581  26.147  14.366
58108W        W19419   5.375   9.765   4.597
58109W        W19420  20.228  13.756  10.460
58110W        W19421  39.944  24.169   1.244
58111W        W19422   1.909  42.868  12.961
58112W        W19423  20.217   6.383   1.434
58113W        W19424  42.861   0.427  14.908
58114W        W19425  35.521  43.347   4.304
58115W        W19426  24.033  33.927  12.855
58116W        W19427  38.325  44.830   3.364
58117W        W19428  11.323   1.771   4.189
58118W        W19429  29.162  24.066   0.775
58119W        W19430   4.225  17.113  12.870
58120W        W19431  35.895   8.657  12.415
58121W        W19432  29.138  34.540  14.342
58122W        W19433  39.375  43.345  12.919
58123W        W19434  36.961  18.778  13.357
58124W        W19435   1.376  44.975  14.986
58125W        W19436   1.861   5.254  11.419
58126W        W19437  39.387  30.982   4.216
58127W        W19438  13.179  21.638  12.519
58128W        W19439  13.747  33.431  11.421
58129W        W19440  31.070  12.249   4.829
58130W        W19441  42.986  12.715   4.338
58131W        W19442  27.690   5.731   2.299
58132W        W19443  15.307  33.039  10.542
58133W        W19444  28.615  16.317  12.508
58134W        W19445  12.755  25.585  10.426
58135W        W19446  10.271  22.017  11.945
58136W        W19447  40.880   1.249  12.834
58137W        W19448  16.809  38.990  13.494
58138W        W19449   6.891  32.503  11.485
58139W        W19450  20.126  38.556  11.926
58140W        W19451  31.618  40.013   0.937
58141W        W19452  26.084   5.268   4.827
58142W        W19453  44.498  43.452  13.983
58143W        W19454  24.697  13.701  11.079
58144W        W19455  14.643  31.576  11.434
58145W        W19456  38.007  28.054   2.895
58146W        W19457  12.177   4.699  10.631
58147W        W19458  31.093  43.452  12.852
58148W        W19459  19.663  13.826   2.867
58149W        W19460  15.622   0.302  10.585
58150W        W19461   4.881  22.684   1.773
58151W        W19462  14.302  18.079   3.714
58152W        W19463  12.700  38.543   0.824
58153W        W19464  38.828  16.310   2.182
58154W        W19465  20.219  13.309   4.167
58155W        W19466  29.963   1.786  10.629
58156W        W19467  21.193  12.285   2.349
58157W        W19468  24.004  32.075   3.332
58158W        W19469  43.996  30.526   1.362
58159W        W19470  37.980   1.847   0.412
58160W        W19471  37.838  38.919   3.688
58161W        W19472  14.699  30.492  11.577
58162W        W19473  13.193   4.784  11.531
58163W        W19474   0.411   3.820  12.878
58164W        W19475  14.786  16.167   4.787
58165W        W19476  17.578  28.441   2.770
58166W        W19477  17.078  30.475  13.805
58167W        W19478  42.988  37.947  13.414
58168W        W19479  38.336   6.708  12.492
58169W        W19480  36.015   9.796  12.996
58170W        W19481   4.367  30.588  13.047
58171W        W19482  38.939   8.338   2.328
58172W        W19483  12.622  20.600  10.926
58173W        W19484  29.486  22.175   0.438
58174W        W19485  17.757   8.840   1.286
58175W        W19486  19.657   2.256  10.418
58176W        W19487  34.378   5.917   4.296
58177W        W19488  39.455   9.261   0.394
58178W        W19489  23.122  25.138   5.217
58179W        W19490  15.634  42.303   0.790
58180W        W19491  18.208  21.155   1.777
58181W        W19492  34.615  11.240   1.824
58182W        W19493  36.507  11.821   3.847
58183W        W19494  18.194  33.097  13.940
58184W        W19495  36.955   4.808   2.261
58185W        W19496  24.093  32.589   2.296
58186W        W19497  41.400  10.376   0.938
58187W        W19498   7.887  19.764  13.953
58188W        W19499   4.379  31.637   4.781
58189W        W19500   9.194  15.250  14.363
58190W        W19501  41.923  34.526   4.289
58191W        W19502  31.995  21.742   1.227
58192W        W19503  20.637  21.174   3.737
58193W        W19504  13.202  21.739   0.878
58194W        W19505   3.353  25.524   1.719
58195W        W19506  38.904  32.481   3.201
58196W        W19507  37.371  36.841  12.539
58197W        W19508  35.603  10.635   1.361
58198W        W19509  22.243  40.429  14.832
58199W        W19510  19.633   2.391   3.680
58200W        W19511  27.690  13.645   4.687
58201W        W19512  26.618  27.086   0.869
58202W        W19513   1.932   0.287   0.268
58203W        W19514  12.780  44.958  13.922
58204W        W19515  29.645  31.923  12.529
58205W        W19516   9.176  41.959  13.958
58206W        W19517  40.522  29.112   2.376
58207W        W19518  18.221  13.246   0.396
58208W        W19519  21.096  42.403   4.203
58209W        W19520   4.309  22.677  12.565
58210W        W19521  39.820  41.867  12.962
58211W        W19522  38.956   9.759   0.332
58212W        W19523  44.833   3.408   1.821
58213W        W19524  12.806  42.804   1.324
58214W        W19525  20.638   5.294   2.306
58215W        W19526   2.452   2.369  14.290
58216W        W19527  28.063  17.306   2.689
58217W        W19528  17.648  44.886  13.481
58218W        W19529  32.891  42.350  10.479
58219W        W19530  19.773  43.332   3.221
58220W        W19531  26.652  20.175   1.908
58221W        W19532  21.536  16.255   1.353
58222W        W19533  26.030  15.083   0.856
58223W        W19534  36.863  22.560  13.063
58224W        W19535   5.798  19.131  14.841
58225W        W19536  27.616  30.627  14.800
58226W        W19537   1.813  21.061   0.817
58227W        W19538  17.684  40.039   2.252
58228W        W19539   2.934   3.244  13.425
58229W        W19540   3.352   2.927   3.313
58230W        W19541  20.705   4.780  12.402
58231W        W19542  39.028  10.373   5.187
58232W        W19543  26.513  10.746  11.537
58233W        W19544   1.483  12.150   0.355
58234W        W19545  23.124   4.399  14.806
58235W        W19546   8.793   2.442  12.083
58236W        W19547   2.345  13.690  12.544
58237W        W19548  37.004  29.487   0.781
58238W        W19549   5.276  37.505  11.469
58239W        W19550  30.655   3.226  13.349
58240W        W19551  14.705  11.227  11.063
58241W        W19552  20.602  29.574  12.920
58242W        W19553  14.218  18.766   4.630
58243W        W19554  35.037  41.411  14.509
58244W        W19555   1.275   9.675   3.746
58245W        W19556   4.886   0.381   2.670
58246W        W19557  29.133  10.327   3.711
58247W        W19558  44.482  29.073   2.773
58248W        W19559   6.234  38.829   3.150
58249W        W19560   2.253  19.241  13.799
58250W        W19561  43.300  32.116  10.157
58251W        W19562  17.307  13.198  14.379
58252W        W19563  16.287  41.864   3.385
58253W        W19564  15.095  13.619   0.385
58254W        W19565  38.331  43.967   3.331
58255W        W19566  43.410  35.387  10.637
58256W        W19567  31.480  29.135  14.451
58257W        W19568  26.111   6.363  14.900
58258W        W19569  14.619  33.536  14.953
58259W        W19570  29.643  14.784   1.783
58260W        W19571  13.603  38.987  13.500
58261W        W19572  37.495  19.693  14.438
58262W        W19573  35.439   5.295   4.757
58263W        W19574  20.525  34.468   1.744
58264W        W19575   9.659   9.727  12.854
58265W        W19576  41.979  26.072  12.383
58266W        W19577  18.785  38.951  10.452
58267W        W19578  42.946  38.827   2.311
58268W        W19579  39.540  10.381  11.428
58269W        W19580  25.479  35.874   4.297
58270W        W19581  11.713  39.384  13.909
58271W        W19582  33.559  20.708   2.842
58272W        W19583  41.301  11.681   1.843
58273W        W19584  26.554  37.467  13.863
58274W        W19585  23.531  17.193   3.815
58275W        W19586   4.309   1.277   1.899
58276W        W19587  21.221  18.066   1.721
58277W        W19588  33.466  38.513   4.148
58278W        W19589   9.761  35.967   3.322
58279W        W19590  25.586  39.049   4.177
58280W        W19591  33.896  34.026   2.696
58281W        W19592  32.589   2.345   1.890
58282W        W19593  41.858  22.156   4.694
58283W        W19594  11.836  11.769   4.769
58284W        W19595  43.967  23.130   0.806
58285W        W19596  17.757  24.562   9.589
58286W        W19597  37.841   6.722  10.544
58287W        W19598  41.301  21.615  11.507
58288W        W19599  10.186   5.438   3.164
58289W        W19600  16.701  43.784  12.051
58290W        W19601   3.760   5.428  14.471
58291W        W19602  20.104  10.641   0.431
58292W        W19603  40.385  14.796  11.104
58293W        W19604  37.435  37.888   2.786
58294W        W19605  40.304  20.200  12.571
58295W        W19606  20.232  31.535  10.462
58296W        W19607  36.910  37.432  10.554
58297W        W19608  27.647   2.363   1.907
58298W        W19609  44.849  12.674   3.369
58299W        W19610   8.383  39.045   0.293
58300W        W19611  18.141  34.448  12.389
58301W        W19612   5.746  39.873  11.549
58302W        W19613   3.314   2.775   1.774
58303W        W19614  19.537  11.318   3.289
58304W        W19615  37.567  30.946  12.559
58305W        W19616  41.533   5.901  14.462
58306W        W19617   2.858  31.085  14.452
58307W        W19618   5.267  20.126  11.033
58308W        W19619  10.238  35.892   0.814
58309W        W19620   0.420   5.688   4.686
58310W        W19621   6.334  11.857  10.019
58311W        W19622  11.819  18.760  12.569
58312W        W19623  40.942  24.633   4.328
58313W        W19624  23.020  28.154  13.443
58314W        W19625   7.338  20.527  11.398
58315W        W19626  17.175  28.625   3.214
58316W        W19627  36.373  28.051   0.466
58317W        W19628  11.228  21.191   1.892
58318W        W19629  28.078  44.909   3.703
58319W        W19630  34.898  16.592  11.875
58320W        W19631  15.601   1.922  10.625
58321W        W19632  42.029   8.758  12.089
58322W        W19633  40.346  18.607   1.247
58323W        W19634  13.832   8.196  11.001
58324W        W19635   0.902  33.475   3.795
58325W        W19636  33.900  41.302  11.508
58326W        W19637  40.812  18.596  13.886
58327W        W19638  44.843  20.561   1.786
58328W        W19639  25.614  42.803   9.978
58329W        W19640  38.533  33.501   0.388
58330W        W19641   9.723  36.895  11.398
58331W        W19642  12.786  41.505   4.762
58332W        W19643  18.710  42.898   4.217
58333W        W19644  34.967   2.277  12.933
58334W        W19645  38.871  20.525  10.414
58335W        W19646  27.527  32.965  13.979
58336W        W19647  21.180  13.287  13.367
58337W        W19648  14.616  13.753   0.386
58338W        W19649  12.647  44.809   4.178
58339W        W19650  30.476  39.376  14.472
58340W        W19651  12.735  37.892   0.432
58341W        W19652  11.840  14.762  10.495
58342W        W19653  29.533  33.109   1.697
58343W        W19654  14.589  36.011   3.674
58344W        W19655  25.630  35.587   4.253
58345W        W19656  29.140  42.412   1.274
58346W        W19657  30.998  33.489   0.415
58347W        W19658  31.459  43.987   0.453
58348W        W19659  15.304  25.614   1.244
58349W        W19660  36.509  37.959  14.847
58350W        W19661  10.325  18.063   1.359
58351W        W19662  15.621  11.812  14.378
58352W        W19663  30.469  33.947   0.378
58353W        W19664  18.246  39.544  12.916
58354W        W19665  11.829  37.897   2.398
58355W        W19666  30.519  24.511  10.586
58356W        W19667  13.661  27.148   4.647
58357W        W19668  21.020  18.650  11.605
58358W        W19669  32.120   1.890   3.667
58359W        W19670   8.708  31.005  10.925
58360W        W19671  27.491  32.446   0.269
58361W        W19672  15.201  21.662   1.451
58362W        W19673  11.766  37.954   0.776
58363W        W19674   6.380   8.255   2.296
58364W        W19675  20.244   1.309  14.920
58365W        W19676  27.656  14.221  12.067
58366W        W19677  27.452   8.714  14.970
58367W        W19678  21.658   9.230   0.430
58368W        W19679   3.280  10.229   2.352
58369W        W19680  32.419   9.279  12.077
58370W        W19681  42.844  41.473   0.814
58371W        W19682  22.556  32.036   0.938
58372W        W19683  22.203  13.816   2.886
58373W        W19684  37.482  22.139   4.129
58374W        W19685  22.738   6.184   0.746
58375W        W19686   9.703  31.640   0.762
58376W        W19687  37.384   4.734   2.203
58377W        W19688  22.134   4.411  12.466
58378W        W19689  22.552  38.040  11.054
58379W        W19690   2.945  21.127   4.318
58380W        W19691  17.114  33.618  13.063
58381W        W19692  14.153  33.468   3.705
58382W        W19693  22.591  43.461  14.012
58383W        W19694  21.076   9.303   4.227
58384W        W19695  19.218  40.860   1.225
58385W        W19696  28.096  20.654   3.237
58386W        W19697  27.140   6.798  12.889
58387W        W19698  44.335  40.408   0.841
58388W        W19699  24.684  33.562   3.659
58389W        W19700   3.941  25.984  12.079
58390W        W19701  22.656  17.623   3.242
58391W        W19702   1.282   3.747   4.150
58392W        W19703  28.014  37.864  11.503
58393W        W19704  19.659   3.416   2.277
58394W        W19705  36.931  22.055   0.477
58395W        W19706  21.624  41.976  14.363
58396W        W19707  30.076  24.088   0.770
58397W        W19708  23.524  43.389  10.566
58398W        W19709  44.826  31.588   0.459
58399W        W19710   0.312  13.783   0.905
58400W        W19711   5.703  37.837  14.009
58401W        W19712  20.054   2.785  10.577
58402W        W19713  38.046  31.422   2.411
58403W        W19714  10.701  24.195   0.956
58404W        W19715  20.084   0.357  12.510
58405W        W19716   3.952  21.025  11.477
58406W        W19717  30.593  16.308   1.269
58407W        W19718  33.960   6.331  13.983
58408W        W19719  31.631   3.408  10.490
58409W        W19720  13.600  34.991  14.967
58410W        W19721  26.547   9.825  11.932
58411W        W19722  36.910  35.420  12.455
58412W        W19723   6.891  30.441  11.080
58413W        W19724  21.231   5.348  11.984
58414W        W19725  41.494  23.048  13.361
58415W        W19726  38.911  35.495  12.887
58416W        W19727   5.782  19.264   0.284
58417W        W19728  10.188  33.083  14.970
58418W        W19729  14.819  18.203   3.274
58419W        W19730   9.847  38.994  11.928
58420W        W19731  36.989  35.897  14.376
58421W        W19732  24.043   3.220   5.235
58422W        W19733   7.783  17.664   1.706
58423W        W19734  15.125  33.448  13.872
58424W        W19735  41.321  29.167   2.335
58425W        W19736  43.929  22.674  11.501
58426W        W19737   0.406  36.579   4.125
58427W        W19738  16.633  29.548   1.773
58428W        W19739   7.377   2.822   0.457
58429W        W19740  21.061  20.111  12.833
58430W        W19741  28.443  11.737   2.798
58431W        W19742  36.536   2.948  13.323
58432W        W19743   4.401  42.939  11.528
58433W        W19744  28.472  34.443  11.936
58434W        W19745  28.940   1.794  12.044
58435W        W19746  44.801  32.484  14.969
58436W        W19747  42.918   2.771   1.314
58437W        W19748  25.562  21.572   3.706
58438W        W19749  16.076  37.039   2.243
58439W        W19750  39.035  39.838  12.058
58440W        W19751  22.509  31.476   0.783
58441W        W19752  26.613  12.679   1.337
58442W        W19753   5.810   6.857   1.276
58443W        W19754  43.481  25.479   1.857
58444W        W19755   3.767   8.830  13.322
58445W        W19756  24.097  10.253  13.395
58446W        W19757  10.197  30.484  10.959
58447W        W19758  24.634  22.219  11.100
58448W        W19759  18.736  21.648   3.175
58449W        W19760  30.639  15.633  13.846
58450W        W19761  33.023  10.157  11.968
58451W        W19762  17.680  28.059   4.732
58452W        W19763  19.113   6.350   2.391
58453W        W19764   6.283  24.659  14.827
58454W        W19765   6.290   7.390  10.612
58455W        W19766  26.082  40.874   1.802
58456W        W19767  20.222   2.269   3.772
58457W        W19768  11.281   1.347   1.323
58458W        W19769  38.331  31.470  12.862
58459W        W19770  14.275  37.031   4.256
58460W        W19771  15.140  18.101   4.352
58461W        W19772  30.612  26.995   0.869
58462W        W19773  42.949  16.753   0.370
58463W        W19774   2.776  11.165  11.052
58464W        W19775   8.286  12.329  11.373
58465W        W19776  22.650  19.175   3.850
58466W        W19777  11.786   6.685  12.461
58467W        W19778   2.800  15.105  12.576
58468W        W19779  27.951  27.109   0.415
58469W        W19780  13.163  21.748   1.351
58470W        W19781   1.814  22.550  14.781
58471W        W19782  27.076  18.085   1.763
58472W        W19783   3.264  25.006   0.934
58473W        W19784  18.655  17.727   4.810
58474W        W19785  26.119  44.768  14.336
58475W        W19786  36.845   1.877   1.766
58476W        W19787  20.095  36.530  11.922
58477W        W19788  14.321  36.474   5.269
58478W        W19789  38.393  16.704  13.386
58479W        W19790  40.316   5.835  10.957
58480W        W19791  10.765   2.408  12.371
58481W        W19792  38.521  33.962   1.848
58482W        W19793  36.934  25.982   0.276
58483W        W19794  13.697  18.605  12.852
58484W        W19795   4.278  11.200  10.957
58485W        W19796  14.303  41.475   4.268
58486W        W19797   1.814  44.842  10.560
58487W        W19798  44.963  10.205  14.990
58488W        W19799  24.230  16.666  12.082
58489W        W19800  40.473   1.748  14.030
58490W        W19801   6.406  33.612   2.769
58491W        W19802  41.830  35.914   2.190
58492W        W19803  30.575  17.116   4.780
58493W        W19804  38.534  20.152  10.966
58494W        W19805  30.654   3.833  11.552
58495W        W19806  14.224  13.796  12.018
58496W        W19807   5.697  42.380  14.396
58497W        W19808   5.290   4.421  12.066
58498W        W19809  10.785  26.568   0.762
58499W        W19810   5.239  39.880  12.877
58500W        W19811  19.272  12.856  12.947
58501W        W19812  35.855   4.257   2.779
58502W        W19813  14.781  41.472   5.224
58503W        W19814  40.380  17.099   3.237
58504W        W19815  35.026  18.263  12.502
58505W        W19816   6.693   9.176  14.801
58506W        W19817  29.104  43.431  11.428
58507W        W19818  15.646  12.697  13.396
58508W        W19819  33.499  11.675   2.707
58509W        W19820  37.375  27.612   3.853
58510W        W19821  35.994  44.859   3.839
58511W        W19822  13.187  20.193   1.823
58512W        W19823  16.811   5.363   4.301
58513W        W19824  29.118  26.486  12.057
58514W        W19825  13.235  25.219   2.272
58515W        W19826   6.869   5.786   2.303
58516W        W19827  11.693  27.627   0.452
58517W        W19828  35.998  30.495  11.408
58518W        W19829  33.979  15.145  14.399
58519W        W19830  43.512  29.543   3.814
58520W        W19831  28.648  29.922  13.005
58521W        W19832  14.197  41.441   3.639
58522W        W19833  21.084  26.551   0.380
58523W        W19834  10.797  44.407   3.802
58524W        W19835  32.430  27.509   3.330
58525W        W19836  22.572  27.529   3.193
58526W        W19837  19.749   9.691   2.887
58527W        W19838  13.653  23.233  14.900
58528W        W19839   7.352   2.461   4.661
58529W        W19840  22.197  40.007   1.299
58530W        W19841  25.709   3.929   3.673
58531W        W19842  15.749  21.139   1.731
58532W        W19843   2.812  10.834   4.298
58533W        W19844  20.117  17.668   3.237
58534W        W19845  26.197   7.889  14.786
58535W        W19846  20.716  20.141   3.822
58536W        W19847  39.341  36.455  14.433
58537W        W19848  10.238  35.582  13.476
58538W        W19849  43.384  16.585   1.846
58539W        W19850  30.977  30.125  13.027
58540W        W19851  29.585  33.130  10.952
58541W        W19852  27.972  30.641  10.483
58542W        W19853   7.331  41.307   2.401
58543W        W19854  14.325   6.908   0.806
58544W        W19855   0.924  32.889   4.765
58545W        W19856  16.171  37.409   3.339
58546W        W19857  44.444  23.233  12.832
58547W        W19858  27.685  13.165   2.361
58548W        W19859  38.063   2.857  11.921
58549W        W19860  41.798  20.705  13.005
58550W        W19861  26.608  32.416   4.767
58551W        W19862  42.901   4.867   3.344
58552W        W19863   4.933  32.037   0.829
58553W        W19864  19.174  38.053  11.952
58554W        W19865  14.271  29.008   2.203
58555W        W19866  14.169  20.704  11.856
58556W        W19867   9.349  27.036  14.486
58557W        W19868  38.416  21.155  14.966
58558W        W19869   2.887  28.994   0.376
58559W        W19870  39.533  41.027  14.359
58560W        W19871   4.931  14.292   4.726
58561W        W19872  20.067  41.531   0.448
58562W        W19873  42.780  16.733   2.839
58563W        W19874   0.381  18.687  12.524
58564W        W19875  12.737  12.258   0.424
58565W        W19876  37.882  12.759   4.253
58566W        W19877  19.040  23.123  14.381
58567W        W19878   0.888   7.764   0.362
58568W        W19879  10.328  24.719   0.796
58569W        W19880  43.330  43.945   1.383
58570W        W19881  18.677   8.828   5.288
58571W        W19882  34.526   4.908  11.442
58572W        W19883   0.334   0.288   3.353
58573W        W19884  26.637  14.279  13.527
58574W        W19885  19.218  39.438   4.353
58575W        W19886  19.285   2.364   2.706
58576W        W19887  21.584  10.371  10.119
58577W        W19888  12.190   1.482  10.915
58578W        W19889   0.395  38.442  11.428
58579W        W19890  19.723  36.030   3.701
58580W        W19891   3.921  44.969  10.598
58581W        W19892   5.282  34.046  12.887
58582W        W19893  23.560  28.014   2.294
58583W        W19894  32.509   1.738   1.331
58584W        W19895  33.121  34.580  12.036
58585W        W19896  28.956  24.621   0.740
58586W        W19897   6.278  16.779  13.380
58587W        W19898   9.311  14.755   4.245
58588W        W19899  34.105   0.333  10.493
58589W        W19900  37.984  34.549  14.895
58590W        W19901  33.031  14.309   3.175
58591W        W19902  14.792   8.788  11.500
58592W        W19903  22.048  31.033   3.173
58593W        W19904  22.158  33.471   4.603
58594W        W19905  13.795  37.378  11.420
58595W        W19906  41.379  39.936  12.015
58596W        W19907  29.535   9.689   2.758
58597W        W19908  18.579  14.646  11.947
58598W        W19909  11.714  30.604  13.537
58599W        W19910   3.444  23.228  14.351
58600W        W19911   5.262  40.429   1.443
58601W        W19912  22.556  15.232   4.704
58602W        W19913  17.560   7.323  13.520
58603W        W19914  30.136  30.555   3.166
58604W        W19915   7.319  42.923   2.748
58605W        W19916  23.224  17.697   2.373
58606W        W19917  20.613  40.507  14.024
58607W        W19918  32.101  12.730   3.869
58608W        W19919   9.746  40.818  11.086
58609W        W19920  29.599  44.357  10.429
58610W        W19921  12.249  10.778  12.057
58611W        W19922  34.482   1.279  11.410
58612W        W19923   8.176  22.502   2.733
58613W        W19924  23.559  18.133  10.544
58614W        W19925  17.072  13.612  11.564
58615W        W19926   2.753  29.012   3.725
58616W        W19927  40.445   4.295   1.768
58617W        W19928  25.570  24.082   2.801
58618W        W19929   8.655  24.709   2.231
58619W        W19930  19.058   0.967   4.796
58620W        W19931  28.467  17.630  12.409
58621W        W19932  24.584   6.369  12.462
58622W        W19933  43.440  12.790   4.339
58623W        W19934   1.780   8.757   4.710
58624W        W19935  14.152  15.606   3.181
58625W        W19936  44.978   8.668   2.351
58626W        W19937   5.922  37.418  12.421
58627W        W19938  10.748  24.682   1.425
58628W        W19939  12.218  29.978  14.940
58629W        W19940  20.135  27.651  12.066
58630W        W19941  30.598  17.156  10.636
58631W        W19942  25.143  25.086  14.810
58632W        W19943  36.483  36.099  11.986
58633W        W19944  29.056  18.050   2.828
58634W        W19945  23.011  26.673   0.435
58635W        W19946   3.443   3.394   0.387
58636W        W19947  23.004  10.820   3.184
58637W        W19948  24.672  41.830   3.256
58638W        W19949   5.733  10.186  11.979
58639W        W19950  15.323  14.777   9.986
58640W        W19951   8.662  22.137  13.939
58641W        W19952  14.662  40.486  11.047
58642W        W19953  33.459  37.433  11.003
58643W        W19954  37.957   9.660  10.977
58644W        W19955  39.430   3.366   3.210
58645W        W19956   5.736  44.771  13.834
58646W        W19957   5.336  10.782   3.179
58647W        W19958  21.248  20.100   1.268
58648W        W19959   1.390  36.033  12.446
58649W        W19960  30.065   1.393  10.941
58650W        W19961  23.699  19.098   2.712
58651W        W19962  24.087  11.266  13.892
58652W        W19963  14.286  10.227  12.538
58653W        W19964  39.026   1.843  11.604
58654W        W19965  30.148  35.583  13.368
58655W        W19966  20.138  32.444   1.263
58656W        W19967  14.743  26.200  11.430
58657W        W19968   4.210  33.942  14.484
58658W        W19969  11.303   7.773   0.796
58659W        W19970  38.891  35.450   4.722
58660W        W19971  37.854  39.462   2.387
58661W        W19972  12.800  40.508  12.979
58662W        W19973  10.760  17.729   1.288
58663W        W19974  25.634  25.472  10.956
58664W        W19975  38.376  23.168  12.087
58665W        W19976  12.272  19.113   4.178
58666W        W19977  13.673   9.889   3.165
58667W        W19978  20.591   5.778  11.428
58668W        W19979  17.615   3.237   5.788
58669W        W19980  24.983  37.498  10.510
58670W        W19981  36.415  44.975   2.256
58671W        W19982  32.432   9.755  12.481
58672W        W19983  37.863   6.290   3.648
58673W        W19984   5.231   3.933  11.568
58674W        W19985  20.265  37.473  10.950
58675W        W19986  40.518   6.721   1.845
58676W        W19987  30.458  37.910   0.286
58677W        W19988  33.900  22.504   0.440
58678W        W19989  30.527  25.199   4.798
58679W        W19990  17.300  37.953   2.194
58680W        W19991  26.095  25.120  12.876
58681W        W19992  36.346  15.319   1.790
58682W        W19993  16.170  11.284   0.786
58683W        W19994  11.257   6.784   2.334
58684W        W19995  14.641  17.136  12.087
58685W        W19996  19.265  11.749   1.903
58686W        W19997  10.695  13.110  12.090
58687W        W19998  25.208  36.489   0.737
58688W        W19999  41.500   5.788  13.950
58689W        W20000  12.839  24.186  13.389
58690W        W20001  23.721  30.959   9.946
58691W        W20002  37.336   4.400   1.824
58692W        W20003   7.388  21.213   5.261
58693W        W20004  23.232  31.949  10.559
58694W        W20005  42.524  36.505   1.935
58695W        W20006  19.277   5.312  13.873
58696W        W20007  20.088  25.982   4.749
58697W        W20008  25.559  38.534  14.337
58698W        W20009  39.383  17.683  13.796
58699W        W20010   4.908   2.393  11.116
58700W        W20011  30.658  13.309   4.304
58701W        W20012   2.472  16.145  10.624
58702W        W20013  27.508  32.403   1.841
58703W        W20014  30.073  14.800   1.725
58704W        W20015  12.281  23.236   3.271
58705W        W20016  18.686  42.803  11.916
58706W        W20017  44.799  35.070  13.396
58707W        W20018  35.502  11.819   1.303
58708W        W20019  24.187  31.116   2.751
58709W        W20020   3.882  38.429   2.339
58710W        W20021   7.857  24.991   0.308
58711W        W20022  21.093  32.070   3.377
58712W        W20023  15.740  11.720   1.744
58713W        W20024  10.834  30.569   0.818
58714W        W20025   1.343  39.329  13.496
58715W        W20026  39.351  10.324   0.370
58716W        W20027  37.974  38.396   0.334
58717W        W20028  42.525   1.782  11.066
58718W        W20029   9.711  30.988   4.820
58719W        W20030  16.657  39.515   1.273
58720W        W20031   9.852  22.183   1.409
58721W        W20032  37.863  24.555   0.792
58722W        W20033  32.113   8.680  13.955
58723W        W20034  24.559  40.420  10.624
58724W        W20035  15.636  37.930  10.955
58725W        W20036  30.497   5.227   5.798
58726W        W20037  17.692  29.030  10.482
58727W        W20038  19.075   0.895  11.534
58728W        W20039  40.980  35.012  14.866
58729W        W20040  41.869  22.695  14.327
58730W        W20041  33.619  26.686   1.844
58731W        W20042  25.005   2.443   4.667
58732W        W20043   4.810   8.399   1.405
58733W        W20044  20.661   6.347   4.152
58734W        W20045   3.322  44.301   1.353
58735W        W20046  42.027  38.858  10.541
58736W        W20047  14.628  30.547   0.386
58737W        W20048   1.914  35.478   4.250
58738W        W20049  31.993  20.088   5.086
58739W        W20050  38.886  25.050   4.764
58740W        W20051   2.871   7.199  14.023
58741W        W20052  17.771  24.207  13.404
58742W        W20053  24.988  34.480  11.944
58743W        W20054  35.981  22.193   4.814
58744W        W20055  10.756   8.757   0.307
58745W        W20056  30.982   6.347   3.248
58746W        W20057  32.413   9.238   2.413
58747W        W20058  40.379  10.193   1.433
58748W        W20059   3.879  37.061   3.227
58749W        W20060  20.230  17.632   3.660
58750W        W20061   0.886  13.287   3.849
58751W        W20062  32.611   8.347   3.218
58752W        W20063  40.390  12.205  14.887
58753W        W20064  40.462   5.791   2.324
58754W        W20065  35.053   8.766   0.849
58755W        W20066   8.351  41.993   0.346
58756W        W20067   0.918  38.951  13.356
58757W        W20068  39.498  13.266  10.427
58758W        W20069  38.846  34.398  11.861
58759W        W20070  37.841   2.366  12.095
58760W        W20071  37.069  43.475  14.897
58761W        W20072   1.480  31.029   4.707
58762W        W20073  17.688  35.946   4.803
58763W        W20074  34.975  23.515   4.163
58764W        W20075   6.237  41.312  11.063
58765W        W20076  39.476   6.216  14.957
58766W        W20077  37.443  16.185   3.866
58767W        W20078  41.870  40.823   1.887
58768W        W20079  32.531   9.327  14.787
58769W        W20080   5.264  37.376   3.320
58770W        W20081  25.160  23.566   0.903
58771W        W20082  44.291   4.304   0.330
58772W        W20083  12.716  16.123  11.910
58773W        W20084  15.618  22.172  14.788
58774W        W20085  27.672  21.184  13.447
58775W        W20086  10.373  16.587  12.507
58776W        W20087  17.795  34.545   2.219
58777W        W20088  43.770   9.364   4.697
58778W        W20089  13.649  21.644  12.347
58779W        W20090  29.094  24.207  13.313
58780W        W20091  42.335   1.779   2.809
58781W        W20092  44.788   3.237   2.780
58782W        W20093  13.137  26.694   1.317
58783W        W20094  19.597  18.607   2.694
58784W        W20095  27.671   3.303  10.999
58785W        W20096  36.531  36.906   4.260
58786W        W20097   5.273  12.757  12.510
58787W        W20098   8.885   7.699   4.113
58788W        W20099  33.907  42.939  11.587
58789W        W20100  37.382   3.833  10.428
58790W        W20101  28.525   8.667   2.371
58791W        W20102   9.694  44.962   1.312
58792W        W20103  27.471  41.995   4.154
58793W        W20104  27.197  18.222   2.400
58794W        W20105  40.319  26.171  14.323
58795W        W20106  28.642   4.877   1.238
58796W        W20107  30.454  10.726   2.852
58797W        W20108  19.778   8.371  14.377
58798W        W20109  18.095  29.098  11.932
58799W        W20110  27.950  11.700   3.211
58800W        W20111   1.815  13.841   1.828
58801W        W20112  43.948  29.643   2.696
58802W        W20113  37.972  21.168   3.748
58803W        W20114   2.802  24.684   0.818
58804W        W20115  38.451  23.155  10.511
58805W        W20116  19.120  35.935  10.494
58806W        W20117   9.283  12.328   0.339
58807W        W20118   5.807  17.286  11.967
58808W        W20119  37.073  10.688   2.861
58809W        W20120  41.515  37.942  13.863
58810W        W20121  14.694  30.622   0.745
58811W        W20122  26.460  24.557   2.820
58812W        W20123  40.458  18.130  12.878
58813W        W20124  15.703   9.309  13.443
58814W        W20125  34.905  21.155   0.380
58815W        W20126   8.794   1.805   4.667
58816W        W20127  15.277  38.009   1.392
58817W        W20128   6.718  44.906  10.936
58818W        W20129   8.705   4.245   4.683
58819W        W20130  36.990   2.786   1.414
58820W        W20131  35.449   2.321  10.550
58821W        W20132   2.459  27.622  12.078
58822W        W20133  38.516  37.449   0.302
58823W        W20134   4.743  34.553   3.673
58824W        W20135  35.381   1.389  12.437
58825W        W20136  19.745  20.188  11.904
58826W        W20137  36.523  31.542   1.395
58827W        W20138  42.804  23.986   1.790
58828W        W20139   9.172  44.447   2.728
58829W        W20140  32.422  18.708  12.350
58830W        W20141  44.899  15.614  13.428
58831W        W20142  17.216  16.172   0.292
58832W        W20143  33.606   4.378  11.042
58833W        W20144  22.589  27.047  10.448
58834W        W20145  16.780  17.708  13.808
58835W        W20146  10.686   8.273   2.894
58836W        W20147   2.402  42.330   4.776
58837W        W20148  24.040  35.502   3.808
58838W        W20149  35.421  20.232  14.988
58839W        W20150  20.726  12.248   1.746
58840W        W20151  44.840  23.152   2.673
58841W        W20152  23.584  26.533  14.384
58842W        W20153  15.612  40.927   4.201
58843W        W20154  34.891  18.214  11.399
58844W        W20155  24.001   4.746   2.269
58845W        W20156  29.104  44.799   2.741
58846W        W20157  41.367   8.368   0.958
58847W        W20158   7.718  13.627  12.843
58848W        W20159  30.624  28.967   0.899
58849W        W20160  31.084  23.073  12.384
58850W        W20161  32.541   2.909  12.537
58851W        W20162  33.892  28.460  11.989
58852W        W20163  41.382  44.373   4.242
58853W        W20164  34.601  42.522  14.002
58854W        W20165   6.230   3.816  14.901
58855W        W20166  15.101  24.611   3.661
58856W        W20167  11.275  26.695   0.415
58857W        W20168   6.722  32.083   0.812
58858W        W20169  26.700  36.531  12.534
58859W        W20170  17.603  41.340   4.132
58860W        W20171   2.794  17.277   1.875
58861W        W20172  39.967  20.564  10.980
58862W        W20173  43.915  33.500   2.376
58863W        W20174  40.031  25.495  14.488
58864W        W20175  32.119  15.311   0.258
58865W        W20176  25.104  19.094   2.370
58866W        W20177  30.955   2.432   2.357
58867W        W20178  14.104  25.046   2.667
58868W        W20179  19.160  31.411  11.028
58869W        W20180   6.268  41.031  11.588
58870W        W20181  23.033  24.600   2.247
58871W        W20182  10.832   2.450  12.070
58872W        W20183  18.770  32.619  12.062
58873W        W20184  35.959  21.557  14.887
58874W        W20185  15.284  27.992  11.020
58875W        W20186   3.752  36.461   2.857
58876W        W20187  30.935  20.217  14.321
58877W        W20188  22.164   3.923  11.501
58878W        W20189  25.218   1.758  14.870
58879W        W20190   9.699   5.340   2.321
58880W        W20191   6.405   4.368   4.165
58881W        W20192  21.545   6.880   1.923
58882W        W20193  23.126   5.406  12.444
58883W        W20194   4.791   3.412   1.230
58884W        W20195   7.312  16.621  10.429
58885W        W20196   9.178  16.249   0.940
58886W        W20197  38.905  31.562   0.897
58887W        W20198  15.606  38.343   1.408
58888W        W20199  26.000  36.991   2.740
58889W        W20200  13.739   6.740  12.909
58890W        W20201   0.391  36.560   2.283
58891W        W20202   9.253  23.021   2.704
58892W        W20203  24.984  11.762  13.950
58893W        W20204  38.375  42.001   1.231
58894W        W20205   8.350  32.514   0.354
58895W        W20206  16.774  18.784  12.848
58896W        W20207  42.435  43.452  11.076
58897W        W20208  42.423   3.876  14.459
58898W        W20209  30.573   4.298  14.909
58899W        W20210  32.391  13.218  12.829
58900W        W20211   0.934  31.153   4.788
58901W        W20212  34.986  26.097  14.401
58902W        W20213  42.829  44.445  11.128
58903W        W20214   5.929  23.175   1.698
58904W        W20215   3.261  42.452  13.518
58905W        W20216  27.488  19.613  11.409
58906W        W20217  35.477  22.015  12.893
58907W        W20218   2.783  34.097  14.785
58908W        W20219  32.120  28.991   2.895
58909W        W20220   3.256   5.301  13.991
58910W        W20221  17.761  37.943   2.820
58911W        W20222  38.355  36.414  11.416
58912W        W20223  21.735  37.920   5.733
58913W        W20224   7.379  29.627  14.896
58914W        W20225  37.908  16.073  11.025
58915W        W20226  14.100  40.421   4.333
58916W        W20227   2.423  10.205  10.972
58917W        W20228  11.326  23.490  13.794
58918W        W20229   6.773   6.763  14.496
58919W        W20230  44.940  30.493  14.430
58920W        W20231  21.234  40.850  13.439
58921W        W20232  11.743   6.342   0.940
58922W        W20233  16.745  19.713  12.377
58923W        W20234  31.918  17.086  14.396
58924W        W20235  35.421  36.094  14.880
58925W        W20236  21.161   3.938   3.155
58926W        W20237   3.720   2.780  12.042
58927W        W20238  34.038   4.376   0.323
58928W        W20239  29.468  30.140  14.290
58929W        W20240  40.459   3.340   0.826
58930W        W20241  27.520  32.096   2.689
58931W        W20242  44.325  10.746  14.424
58932W        W20243  27.623  19.134  14.433
58933W        W20244  34.068  42.366   3.243
58934W        W20245  17.156  11.781   5.091
58935W        W20246  41.890  14.233   0.761
58936W        W20247  30.144  29.469   0.370
58937W        W20248   5.399  38.018  10.593
58938W        W20249  15.701  23.992  12.931
58939W        W20250  44.847   0.791  13.807
58940W        W20251   6.679  37.929   0.942
58941W        W20252  24.082  11.340   3.236
58942W        W20253  33.887  43.385   3.778
58943W        W20254  23.535   1.368  14.815
58944W        W20255  10.187  14.637  13.894
58945W        W20256   6.724  26.501   2.741
58946W        W20257   5.393  44.393   4.658
58947W        W20258   7.857  35.456  12.497
58948W        W20259  19.258  22.734  14.915
58949W        W20260   4.747   3.757  13.479
58950W        W20261  34.917  25.069  12.023
58951W        W20262  13.152  29.445  10.097
58952W        W20263  41.333  16.088  12.556
58953W        W20264  44.759  19.636  13.909
58954W        W20265  37.846  26.668   1.395
58955W        W20266  37.833   1.248  13.458
58956W        W20267  35.396  41.854   9.925
58957W        W20268   7.828   8.806   9.966
58958W        W20269  30.119  44.930  13.850
58959W        W20270  27.974  42.450   4.340
58960W        W20271  26.136   0.406   0.419
58961W        W20272  31.483   0.927  13.375
58962W        W20273  30.011   7.343   1.926
58963W        W20274  31.108  10.729   3.313
58964W        W20275  26.548  40.479   1.753
58965W        W20276  34.505  33.962  11.576
58966W        W20277  32.941  21.083   1.700
58967W        W20278  42.428  32.439   4.166
58968W        W20279  25.065  38.968   3.639
58969W        W20280  15.742  42.869   1.222
58970W        W20281  40.997  21.611   2.863
58971W        W20282   7.376  12.760  13.398
58972W        W20283   0.264  28.137   3.842
58973W        W20284  26.471  41.496  10.620
58974W        W20285  30.919  10.142  13.823
58975W        W20286  35.529  38.426  11.879
58976W        W20287  39.898  37.403  14.444
58977W        W20288  31.994  35.453  11.917
58978W        W20289  20.168  13.747   9.968
58979W        W20290  32.575  19.636  10.640
58980W        W20291  38.346  36.451  10.925
58981W        W20292  27.546  16.728   1.850
58982W        W20293  16.219  32.992   2.824
58983W        W20294  43.395   5.365  11.472
58984W        W20295  13.308   8.840   4.215
58985W        W20296   7.821  35.399   4.655
58986W        W20297  12.743  31.120   1.850
58987W        W20298  20.565  14.226  11.904
58988W        W20299   4.912  38.999   3.797
58989W        W20300   7.723  37.536  11.560
58990W        W20301   8.761  12.276  12.373
58991W        W20302   3.450   6.222  13.316
58992W        W20303  14.684  19.567   0.796
58993W        W20304  38.551  34.101  11.560
58994W        W20305   2.855  21.143   1.341
58995W        W20306  21.622  15.097   1.809
58996W        W20307  12.350  40.844  12.346
58997W        W20308  40.342   1.881  12.091
58998W        W20309  24.138  14.310  14.873
58999W        W20310  31.446  31.516  11.079
59000W        W20311   0.283  10.144  10.044
59001W        W20312  26.465  26.037  13.350
59002W        W20313  30.120  26.628  12.836
59003W        W20314  32.569  32.067   1.433
59004W        W20315  28.546  17.635   2.747
59005W        W20316  37.439  12.777   4.802
59006W        W20317   9.207   5.785  10.984
59007W        W20318   5.195  19.610  12.491
59008W        W20319  10.785  11.722   0.410
59009W        W20320  24.169  13.197   4.334
59010W        W20321  36.048   5.842   0.429
59011W        W20322  15.739  17.723   3.318
59012W        W20323  17.228  13.216   3.277
59013W        W20324  12.698  20.757  13.970
59014W        W20325   3.824   4.923   0.370
59015W        W20326  18.136  36.960  11.553
59016W        W20327  11.841  33.591  13.896
59017W        W20328   5.896  23.631  13.388
59018W        W20329  16.806  41.415   4.795
59019W        W20330  43.297  31.408   2.251
59020W        W20331   3.294  34.108  11.396
59021W        W20332  24.157  25.651   0.445
59022W        W20333   0.276  42.391  11.439
59023W        W20334  27.511   3.311  14.442
59024W        W20335  32.421  21.624   0.376
59025W        W20336  27.024  39.908   0.751
59026W        W20337  43.379  21.201  12.012
59027W        W20338   8.684   2.239  14.030
59028W        W20339  40.359  37.438   4.641
59029W        W20340   5.303  29.474  14.017
59030W        W20341  12.811  16.759  10.639
59031W        W20342  40.491  26.556  14.363
59032W        W20343   3.262  21.133   4.126
59033W        W20344   9.726  18.552  13.964
59034W        W20345  40.845   7.333   0.372
59035W        W20346  15.634   0.248   2.669
59036W        W20347  11.188  28.051  14.354
59037W        W20348  17.582  24.498  14.897
59038W        W20349  32.617  19.629   1.703
59039W        W20350  15.188   3.353  12.546
59040W        W20351  30.984   8.800   4.228
59041W        W20352  39.836   9.710   4.690
59042W        W20353   9.673  12.355   3.690
59043W        W20354  20.643  31.450  14.764
59044W        W20355  32.962  40.888   2.739
59045W        W20356  13.760  17.772   0.353
59046W        W20357  14.777  14.335   9.962
59047W        W20358  38.820  22.109   1.422
59048W        W20359  34.885  10.747   0.276
59049W        W20360   7.793  14.637   3.838
59050W        W20361  21.204  19.191   0.836
59051W        W20362  11.322  18.143   2.677
59052W        W20363  42.966  19.635  14.419
59053W        W20364   9.649  15.615  11.918
59054W        W20365   3.889  33.501   4.776
59055W        W20366  19.156  10.159   9.931
59056W        W20367  19.689  37.852   3.363
59057W        W20368  32.051   3.456  13.820
59058W        W20369  33.481  33.984   2.878
59059W        W20370  37.873  35.031  11.110
59060W        W20371  38.955   1.858   3.152
59061W        W20372  11.347  41.877  12.495
59062W        W20373  39.549  29.424   0.956
59063W        W20374  24.147  22.577  13.935
59064W        W20375  38.415  36.530   1.282
59065W        W20376  29.027  15.159   2.767
59066W        W20377   5.311  22.131  11.096
59067W        W20378   1.256  25.635  14.783
59068W        W20379  26.674  31.924   3.711
59069W        W20380  25.669  40.398  11.058
59070W        W20381  34.557  31.929  11.593
59071W        W20382   9.796  43.789   2.304
59072W        W20383  22.174   6.325   2.875
59073W        W20384  10.151  32.610  12.414
59074W        W20385   6.705  43.868  13.059
59075W        W20386  32.898  15.737  10.918
59076W        W20387  39.401  16.629   3.678
59077W        W20388  25.193   6.255   1.843
59078W        W20389   8.165   1.309   3.792
59079W        W20390  35.926   3.307   1.724
59080W        W20391  25.630  22.123   0.855
59081W        W20392  11.649  32.027  12.063
59082W        W20393  36.959  10.318  11.977
59083W        W20394  32.097  43.400   1.786
59084W        W20395  44.450  43.434   5.191
59085W        W20396   4.335  17.124   4.168
59086W        W20397  10.334  33.499   2.684
59087W        W20398  23.723  29.607   4.778
59088W        W20399  27.536  27.058  11.074
59089W        W20400  25.214  17.204   4.777
59090W        W20401  12.177  43.415  12.094
59091W        W20402   4.282  12.724   3.715
59092W        W20403  33.395  29.524  13.324
59093W        W20404  31.584  41.030  11.557
59094W        W20405  31.930  31.922  14.880
59095W        W20406  37.507  29.514  13.423
59096W        W20407  15.633  43.345  14.378
59097W        W20408  36.984  29.045   1.803
59098W        W20409  30.941  38.906  12.970
59099W        W20410   4.933   2.359  14.975
59100W        W20411   3.837  37.392   4.743
59101W        W20412  22.015  33.622  13.339
59102W        W20413  17.795   7.792   0.317
59103W        W20414  43.974  22.228   1.443
59104W        W20415  20.201  34.565   1.375
59105W        W20416  35.411  16.661   4.291
59106W        W20417  41.034  13.796  11.566
59107W        W20418  43.336  38.870   3.833
59108W        W20419  44.782  25.093   2.699
59109W        W20420  29.017   6.389   9.518
59110W        W20421  20.697  18.267   4.625
59111W        W20422   7.731   1.879  13.831
59112W        W20423  17.134   1.888   2.191
59113W        W20424  32.586  20.570   2.795
59114W        W20425   7.293  12.816   3.161
59115W        W20426  38.407  40.335   5.308
59116W        W20427  12.139  41.376  13.475
59117W        W20428   1.444  35.944   0.748
59118W        W20429  39.986  30.499   0.791
59119W        W20430  32.903   9.298  11.039
59120W        W20431  39.989  31.151  14.901
59121W        W20432   1.268  10.715  12.376
59122W        W20433  38.832  39.035  13.960
59123W        W20434  13.308   7.833  14.777
59124W        W20435   6.848  25.057   3.328
59125W        W20436  29.034  21.641   4.612
59126W        W20437  30.602  33.092   1.762
59127W        W20438  16.150  28.161  14.459
59128W        W20439   1.812   6.195  11.860
59129W        W20440  16.597   5.770   3.260
59130W        W20441  19.728   2.408  14.426
59131W        W20442  42.426  19.102  10.637
59132W        W20443  34.904  20.176  12.509
59133W        W20444  15.175   7.405   2.737
59134W        W20445   6.744   0.932   1.769
59135W        W20446  15.187  28.057   0.732
59136W        W20447   0.964  13.213   2.751
59137W        W20448  32.564  11.660   4.151
59138W        W20449  34.113  41.292  10.441
59139W        W20450  22.171  16.576   2.278
59140W        W20451  14.247   2.233  14.889
59141W        W20452  21.025  35.970  12.060
59142W        W20453  20.681   1.813  14.939
59143W        W20454  21.170  15.247  12.409
59144W        W20455  42.294  11.743   0.279
59145W        W20456   6.354  15.104   3.837
59146W        W20457  35.425   4.873   2.845
59147W        W20458  34.020  24.116  14.939
59148W        W20459  29.433  28.010   4.325
59149W        W20460  12.710  13.165  10.915
59150W        W20461   1.849  37.423   3.226
59151W        W20462   4.896  26.150  14.466
59152W        W20463  20.754  43.488  10.991
59153W        W20464  29.602  15.208   2.816
59154W        W20465  39.373  38.022   2.839
59155W        W20466  16.157  21.088   2.270
59156W        W20467  10.633   8.662   0.817
59157W        W20468   8.251  40.371   0.904
59158W        W20469  41.356  38.870  13.875
59159W        W20470   5.802  10.848  12.844
59160W        W20471  10.344  39.470  12.381
59161W        W20472   4.391  29.128  13.424
59162W        W20473  23.491  19.632   0.418
59163W        W20474  40.928  41.845   3.326
59164W        W20475  19.711  16.783   2.244
59165W        W20476  12.122  27.677  11.974
59166W        W20477  40.328   7.219  13.415
59167W        W20478  13.745   9.682  11.604
59168W        W20479   3.440  12.263  13.889
59169W        W20480  24.185  44.448  14.357
59170W        W20481  23.718  17.680  11.005
59171W        W20482  21.122  17.162   3.179
59172W        W20483  26.649  37.910   5.228
59173W        W20484   8.768  20.154  10.937
59174W        W20485  22.092  20.664   3.632
59175W        W20486  44.783  18.625   4.768
59176W        W20487   4.919   0.878   1.269
59177W        W20488   4.359  37.387  10.945
59178W        W20489   2.870   5.281  13.023
59179W        W20490   3.904  33.050  10.995
59180W        W20491   7.206   7.832  11.938
59181W        W20492  14.698  11.721   1.348
59182W        W20493  35.487  41.981   5.272
59183W        W20494  12.116   1.429  11.437
59184W        W20495  23.167  44.293  14.926
59185W        W20496   2.367  37.039   3.669
59186W        W20497  14.303  43.352   4.350
59187W        W20498  10.762   3.785  13.038
59188W        W20499  36.856   5.375  10.582
59189W        W20500  33.092  18.215  11.031
59190W        W20501  35.918  32.907   2.348
59191W        W20502  36.503  25.006   1.813
59192W        W20503  29.451  32.992   0.932
59193W        W20504  17.743  30.654  12.351
59194W        W20505  30.453   4.740  10.554
59195W        W20506  17.683  36.359  14.961
59196W        W20507  20.711   2.821  12.050
59197W        W20508  44.271  29.085  13.966
59198W        W20509  35.895  32.088   4.790
59199W        W20510   7.405  25.700   3.857
59200W        W20511  25.209  21.661   0.817
59201W        W20512  40.003  24.655  11.072
59202W        W20513   9.183  42.777  11.573
59203W        W20514  21.529   5.877  14.488
59204W        W20515  31.103   4.736   3.820
59205W        W20516  23.059  21.065  10.990
59206W        W20517   8.387  37.928   0.860
59207W        W20518  26.613   4.765  12.044
59208W        W20519   4.822  35.982   2.303
59209W        W20520  30.587   4.800  10.097
59210W        W20521  27.548  28.561   1.882
59211W        W20522  18.712  11.196  13.313
59212W        W20523  44.304  18.601   4.113
59213W        W20524  44.888  20.267   3.796
59214W        W20525  13.692  26.629  11.978
59215W        W20526  19.754   8.756  11.376
59216W        W20527   2.805  24.613   2.808
59217W        W20528  16.233  35.387  13.015
59218W        W20529   3.447  15.642   1.893
59219W        W20530  30.963   1.399  13.961
59220W        W20531  16.663  43.300   2.809
59221W        W20532  21.674   2.916  13.045
59222W        W20533  32.969  11.165  14.772
59223W        W20534  11.718  35.873  13.014
59224W        W20535  20.699  43.976   1.933
59225W        W20536   8.183  38.932   4.221
59226W        W20537   0.255  37.031  13.500
59227W        W20538  18.748  27.049  11.559
59228W        W20539  24.530   9.361   3.835
59229W        W20540  41.294  32.453  10.946
59230W        W20541  44.438   7.843  13.931
59231W        W20542  30.164  35.083   2.292
59232W        W20543  39.436  32.392  13.346
59233W        W20544   9.770  29.960   0.331
59234W        W20545   5.696   7.728  14.480
59235W        W20546  11.354  31.945  10.496
59236W        W20547  13.822  29.121  12.095
59237W        W20548  27.556   9.678   2.663
59238W        W20549  33.102  16.108   2.886
59239W        W20550  21.093  44.412  10.453
59240W        W20551  12.721  14.689   0.294
59241W        W20552  30.090  15.728  10.541
59242W        W20553  41.402  40.018   3.779
59243W        W20554  16.718  36.565  10.459
59244W        W20555  17.614   8.308   2.784
59245W        W20556  41.383  21.111  14.880
59246W        W20557  36.042   9.754  11.988
59247W        W20558  25.537  19.750   1.833
59248W        W20559   5.919  26.144   2.892
59249W        W20560  24.668  26.598   4.323
59250W        W20561  13.151  34.478   1.916
59251W        W20562   3.229  35.088   4.835
59252W        W20563   2.375  20.578   4.667
59253W        W20564  32.561  23.719   2.862
59254W        W20565  12.641   6.315  10.536
59255W        W20566  35.099  22.139   1.280
59256W        W20567  16.150  38.842   2.204
59257W        W20568  31.025   9.387  13.479
59258W        W20569  19.041  18.553  10.636
59259W        W20570  18.186  25.625  11.961
59260W        W20571  34.603  33.450   3.864
59261W        W20572  25.632  15.130   3.184
59262W        W20573  27.983   5.791  12.067
59263W        W20574  37.444  12.173   0.896
59264W        W20575  15.808   7.342   4.662
59265W        W20576  34.905  38.509   5.315
59266W        W20577  15.215  34.388  14.478
59267W        W20578  44.822  42.287   0.472
59268W        W20579   3.329  42.329  10.521
59269W        W20580  13.605  29.459   1.720
59270W        W20581   7.673   6.215  12.560
59271W        W20582  35.441  24.527   2.290
59272W        W20583   6.807  39.406   3.287
59273W        W20584   1.949  34.435  13.843
59274W        W20585  12.306  42.832  12.374
59275W        W20586  28.503   4.793   0.406
59276W        W20587  13.802  11.178   3.738
59277W        W20588   6.419  14.710   4.299
59278W        W20589  18.556   5.345   2.257
59279W        W20590  27.176  21.613   4.206
59280W        W20591   8.719  22.030   2.839
59281W        W20592  24.140  38.526   1.251
59282W        W20593   0.832  41.457   3.734
59283W        W20594  35.080  26.606   0.322
59284W        W20595  43.470  43.508  13.371
59285W        W20596  43.997  14.240  14.490
59286W        W20597  37.928  11.247  11.371
59287W        W20598  16.308  40.000   4.331
59288W        W20599  13.764  27.985  11.542
59289W        W20600   0.400  40.439   1.362
59290W        W20601  40.912  14.144   2.393
59291W        W20602  21.127  17.216   4.699
59292W        W20603  31.519   1.835   1.760
59293W        W20604  24.153  10.318  13.799
59294W        W20605  17.611   4.331   3.676
59295W        W20606  37.851  29.451   1.232
59296W        W20607  15.252  20.252   2.324
59297W        W20608  34.433  39.425   2.834
59298W        W20609  32.434  38.501  13.014
59299W        W20610   9.213   6.286  14.478
59300W        W20611  34.948  28.931  13.546
59301W        W20612   9.254   4.327   3.385
59302W        W20613   0.378  18.615   0.426
59303W        W20614  41.517  19.078   0.837
59304W        W20615   4.748  16.639  12.513
59305W        W20616  41.536   4.806  12.368
59306W        W20617  42.788   4.267  13.903
59307W        W20618  31.067  23.227   4.701
59308W        W20619   3.851  35.578   0.902
59309W        W20620   3.729  22.658   3.759
59310W        W20621  14.132  18.119  11.863
59311W        W20622  15.200  28.177   0.313
59312W        W20623  31.443  44.008  10.445
59313W        W20624  10.643  41.008  14.371
59314W        W20625  19.134   6.776   2.672
59315W        W20626  38.876  42.484  14.772
59316W        W20627   0.870  38.479   1.233
59317W        W20628   5.208  20.606   3.374
59318W        W20629   2.451   9.847  13.413
59319W        W20630  43.297  19.673   3.648
59320W        W20631   1.303   2.930   4.190
59321W        W20632   1.270  44.410  13.470
59322W        W20633  33.102  32.500  10.099
59323W        W20634  40.990   8.664  14.967
59324W        W20635   3.760  44.943   4.349
59325W        W20636  17.209  19.063   1.308
59326W        W20637   2.396  20.133  13.988
59327W        W20638  39.959  41.936   2.707
59328W        W20639  29.609   3.429   1.737
59329W        W20640   7.740  10.179   2.263
59330W        W20641   3.911  13.765   2.800
59331W        W20642  11.303  14.226   2.750
59332W        W20643   5.695  23.022   3.325
59333W        W20644  36.991  37.869   3.363
59334W        W20645  38.327  30.431   3.822
59335W        W20646  29.606   1.441  10.529
59336W        W20647  33.953   1.406  14.926
59337W        W20648   2.859   7.812   1.800
59338W        W20649  32.623   4.714  10.889
59339W        W20650  23.133  15.694  14.964
59340W        W20651  21.522  35.922  14.014
59341W        W20652  17.095  12.244   9.965
59342W        W20653  42.435  31.111   3.372
59343W        W20654  34.553   0.419   2.882
59344W        W20655   3.309   4.906   0.334
59345W        W20656  33.112  44.009   4.251
59346W        W20657  36.959  35.368   1.255
59347W        W20658  10.853  27.050  13.398
59348W        W20659  13.733  22.553   0.761
59349W        W20660  38.456  24.525  10.915
59350W        W20661  22.069   6.314  14.343
59351W        W20662  30.553  27.197  10.912
59352W        W20663  31.090  25.092   1.766
59353W        W20664  30.018  27.022   4.625
59354W        W20665  21.048  13.704  12.091
59355W        W20666   2.881  42.873  14.305
59356W        W20667  42.456  34.062   3.831
59357W        W20668  10.253  37.065  13.841
59358W        W20669  29.451  32.564   4.270
59359W        W20670   7.783  13.221  12.524
59360W        W20671  18.289  29.152   0.421
59361W        W20672  30.423  16.638   3.798
59362W        W20673  14.229  17.735  12.878
59363W        W20674   3.378   9.784   4.136
59364W        W20675  24.496  39.375   0.276
59365W        W20676  42.353  14.229   3.266
59366W        W20677  22.611  37.523  13.486
59367W        W20678   6.427   9.882   4.229
59368W        W20679  38.555  11.653   1.392
59369W        W20680  36.503  10.762  10.982
59370W        W20681  20.242  27.627  14.506
59371W        W20682  43.344  35.958  12.576
59372W        W20683  38.922   1.303  12.375
59373W        W20684  31.140  31.950   0.908
59374W        W20685  24.625  43.493   3.797
59375W        W20686   2.864  23.023  14.347
59376W        W20687  33.616  38.519  10.063
59377W        W20688  37.370  38.850  14.865
59378W        W20689  27.063  44.285   3.272
59379W        W20690  38.352   2.309   2.888
59380W        W20691  18.579  12.231  11.558
59381W        W20692  12.677   4.904  11.032
59382W        W20693  38.475  33.539   0.811
59383W        W20694   7.855  16.602  11.532
59384W        W20695  13.784  31.963  11.083
59385W        W20696  41.888  21.086   3.258
59386W        W20697  15.682  44.327   2.849
59387W        W20698  12.153   5.203  12.356
59388W        W20699  10.701  28.109   3.352
59389W        W20700  39.815  24.628  13.941
59390W        W20701  21.695  16.730   0.453
59391W        W20702  22.712  11.158   3.716
59392W        W20703  35.010  38.356   1.270
59393W        W20704  33.045  18.225   1.329
59394W        W20705   8.373   8.345  11.065
59395W        W20706  33.474  37.831   4.623
59396W        W20707  40.352  36.510  11.028
59397W        W20708  17.777  11.351  12.441
59398W        W20709  16.252  42.988  11.472
59399W        W20710  26.037  43.474   1.297
59400W        W20711  13.732  15.675   0.329
59401W        W20712   8.866  23.023   3.679
59402W        W20713  32.983  30.105   2.222
59403W        W20714  34.956  31.471  10.959
59404W        W20715  18.108  18.114   3.730
59405W        W20716  39.433  14.655   2.349
59406W        W20717  38.331  11.233  10.586
59407W        W20718   9.211  43.401   2.414
59408W        W20719  33.430   5.291  11.895
59409W        W20720  11.300  42.828   5.217
59410W        W20721   7.234  39.015  14.333
59411W        W20722  24.146  38.871   2.275
59412W        W20723  36.941  42.470   4.660
59413W        W20724   6.381  10.290  14.792
59414W        W20725  16.301  30.959  12.454
59415W        W20726   2.799  40.499  13.952
59416W        W20727  41.797  43.493  11.121
59417W        W20728  41.984  11.819   1.925
59418W        W20729  14.234  14.178   9.940
59419W        W20730  44.260   8.705   1.786
59420W        W20731  21.131  27.022   4.725
59421W        W20732   6.223  32.966  13.312
59422W        W20733   4.302  39.029   4.797
59423W        W20734  40.944  21.034  14.764
59424W        W20735  24.697   7.284  10.905
59425W        W20736   0.277  18.549   4.146
59426W        W20737   7.201   1.340   2.743
59427W        W20738  14.795   9.386   0.447
59428W        W20739  20.070  35.074   1.303
59429W        W20740   1.782   3.772   0.756
59430W        W20741  43.325   4.427  11.379
59431W        W20742  18.217  23.678  11.054
59432W        W20743  22.143  14.140   1.436
59433W        W20744  35.359  27.071   2.325
59434W        W20745   0.260  37.891   2.193
59435W        W20746  41.441  39.808  12.994
59436W        W20747  35.872  19.534   0.338
59437W        W20748  21.535  28.948  12.952
59438W        W20749  13.754   3.376   2.377
59439W        W20750   3.946  21.579  14.456
59440W        W20751  37.996  22.231  14.325
59441W        W20752  14.321  21.632   4.667
59442W        W20753  13.735  23.547  11.461
59443W        W20754  14.744  32.502   3.240
59444W        W20755   6.912  34.934  14.765
59445W        W20756   6.267  26.065   1.223
59446W        W20757  35.359  28.969   4.625
59447W        W20758  34.419  26.155  12.511
59448W        W20759  23.497  31.452   3.702
59449W        W20760  22.617  29.927  13.464
59450W        W20761  43.328   6.200   3.259
59451W        W20762   9.786  30.459  12.371
59452W        W20763  19.654  25.009   3.227
59453W        W20764  36.569  13.655   2.390
59454W        W20765  13.762  17.251   0.876
59455W        W20766  35.938  12.728   2.324
59456W        W20767   6.799  35.490  12.046
59457W        W20768  15.783   0.387   3.825
59458W        W20769  23.225  23.608  12.478
59459W        W20770   1.742  21.112  14.334
59460W        W20771  24.192  20.581  12.452
59461W        W20772   9.850  25.970  14.812
59462W        W20773   5.335  13.144  11.979
59463W        W20774  38.374  28.141  11.958
59464W        W20775  43.439  22.052  12.478
59465W        W20776  16.089  32.120  11.910
59466W        W20777  30.445   2.935   3.178
59467W        W20778  17.687  38.915  12.029
59468W        W20779  28.036  20.241  10.563
59469W        W20780  40.851  40.963  11.557
59470W        W20781  44.315  14.150   0.798
59471W        W20782  44.820   9.232  10.493
59472W        W20783   7.222  43.928  13.900
59473W        W20784   8.324  10.774  11.489
59474W        W20785  21.210  18.704   0.789
59475W        W20786  25.488   2.743  12.524
59476W        W20787  13.217  38.937  11.407
59477W        W20788  19.704  39.834   3.192
59478W        W20789  31.501  12.212   4.804
59479W        W20790  31.066  40.468   2.261
59480W        W20791   1.864  44.325  14.347
59481W        W20792  41.484  35.967  12.513
59482W        W20793  15.820  30.621   0.461
59483W        W20794   1.841   8.225   3.827
59484W        W20795  28.007  25.076  13.404
59485W        W20796  24.628   2.280  11.993
59486W        W20797  17.074  25.535   1.881
59487W        W20798  14.812  27.043  10.912
59488W        W20799   0.289  35.462  14.354
59489W        W20800   8.861  13.266   0.746
59490W        W20801  37.472  21.074  11.914
59491W        W20802  34.096  25.168  11.390
59492W        W20803   5.753   7.384  10.527
59493W        W20804  28.126   4.258  14.428
59494W        W20805  18.592  16.160  14.987
59495W        W20806  23.116  31.028  10.005
59496W        W20807   0.336  29.089   0.885
59497W        W20808  20.080  38.504  14.408
59498W        W20809  39.557  14.747  11.043
59499W        W20810  39.531  25.676   3.202
59500W        W20811  25.208  40.052  11.447
59501W        W20812  43.972  23.204  11.937
59502W        W20813  19.727   4.407  12.935
59503W        W20814  10.185  29.609   0.476
59504W        W20815  38.330  40.973   4.714
59505W        W20816  43.829  13.330  10.479
59506W        W20817  15.209  13.840  10.094
59507W        W20818  13.306  35.024   4.117
59508W        W20819  13.645  39.527  11.528
59509W        W20820  44.922  25.488   2.305
59510W        W20821   4.314  33.089   2.802
59511W        W20822   5.734   3.805   0.928
59512W        W20823  36.426   1.904  14.494
59513W        W20824   0.910  32.935  12.411
59514W        W20825  10.801   5.786   4.181
59515W        W20826   2.384  11.787  11.424
59516W        W20827  13.143  13.297   3.367
59517W        W20828   6.826  14.249  13.930
59518W        W20829  27.031  11.228   2.362
59519W        W20830  24.639  27.992   1.779
59520W        W20831   2.869  31.048  11.556
59521W        W20832  30.429   2.805  10.506
59522W        W20833  11.699   8.382   2.216
59523W        W20834  24.714   0.859  14.815
59524W        W20835  13.833  18.089   0.374
59525W        W20836  26.525  27.519   0.731
59526W        W20837   3.752   2.352  14.502
59527W        W20838  21.708  10.214   5.286
59528W        W20839  10.801   4.750  12.848
59529W        W20840   8.378   5.274   0.275
59530W        W20841  35.914   6.428   1.377
59531W        W20842  22.156  36.975  13.438
59532W        W20843   2.734  25.616  14.777
59533W        W20844  28.026  37.988   2.228
59534W        W20845  32.938  40.016  13.862
59535W        W20846  36.365   7.295   1.801
59536W        W20847  22.012   6.272  10.917
59537W        W20848  30.567   9.702   1.352
59538W        W20849  21.136  13.636  11.034
59539W        W20850  35.904  11.841  13.452
59540W        W20851  42.927  40.036   1.773
59541W        W20852   0.840  30.516   3.680
59542W        W20853  37.925  23.147  11.414
59543W        W20854  20.589  34.049  14.446
59544W        W20855  40.982  23.497   2.662
59545W        W20856  22.630  34.548   4.797
59546W        W20857   0.847   0.949  12.045
59547W        W20858  44.981  14.314  14.919
59548W        W20859   2.944  40.351  11.988
59549W        W20860  27.611   0.813  11.562
59550W        W20861  14.251  40.354   1.879
59551W        W20862  37.501   7.730   0.952
59552W        W20863  43.953   2.425  11.589
59553W        W20864  15.212  43.342  10.427
59554W        W20865  38.040  43.463   5.256
59555W        W20866  27.195  29.522  10.992
59556W        W20867  38.954  30.107  11.429
59557W        W20868  24.547  20.619  12.827
59558W        W20869  38.822  42.921  14.323
59559W        W20870   5.212  44.446  12.018
59560W        W20871  21.156  32.436  13.889
59561W        W20872  39.831   8.219   4.736
59562W        W20873  27.079  14.110  13.822
59563W        W20874  22.065  21.220  14.024
59564W        W20875   3.744  23.573  14.320
59565W        W20876   8.276  21.249   3.338
59566W        W20877  26.007  23.679  12.933
59567W        W20878  13.308  40.820  13.355
59568W        W20879   5.355  35.473  11.581
59569W        W20880  31.906  29.489   2.718
59570W        W20881   1.287   9.840   0.369
59571W        W20882  16.728   4.810   1.849
59572W        W20883  19.539  31.992  14.421
59573W        W20884   6.350  28.935  13.910
59574W        W20885  43.022  11.294  11.449
59575W        W20886  26.491  41.040   1.433
59576W        W20887   9.784  35.432  12.918
59577W        W20888   7.798  26.605   0.292
59578W        W20889  19.275  10.328   4.129
59579W        W20890  41.801   0.922   3.868
59580W        W20891   1.808  22.711   3.812
59581W        W20892  11.692   2.779  14.492
59582W        W20893   3.761  34.115  13.857
59583W        W20894  28.956   7.886   4.809
59584W        W20895  44.983  39.464  11.459
59585W        W20896  40.946  35.065  14.312
59586W        W20897   8.191   2.875   0.926
59587W        W20898  27.494   0.831   0.246
59588W        W20899   9.324  31.534  10.492
59589W        W20900  32.541  33.552  12.991
59590W        W20901   2.448  17.158   2.386
59591W        W20902  18.170  43.493  11.070
59592W        W20903   5.327  13.191  11.089
59593W        W20904   0.898  12.282   4.671
59594W        W20905  33.907   2.750  13.943
59595W        W20906  12.637  26.202   2.238
59596W        W20907  21.183   3.300   0.735
59597W        W20908  10.818   6.690  12.907
59598W        W20909  29.061  13.190  12.424
59599W        W20910  30.628  38.343   3.156
59600W        W20911  35.419  27.177  14.882
59601W        W20912  14.650  14.277  10.418
59602W        W20913   1.836   6.727   0.299
59603W        W20914   7.738  22.618  13.857
59604W        W20915  10.736   6.732  14.874
59605W        W20916  32.587   6.875   0.834
59606W        W20917  30.132  18.113   3.652
59607W        W20918  28.607  13.109   0.290
59608W        W20919  27.557  10.789   2.258
59609W        W20920  15.704  31.054  12.393
59610W        W20921  36.398  18.757  11.541
59611W        W20922  12.265  33.043  14.815
59612W        W20923  21.681  38.543   2.290
59613W        W20924  28.651  34.602   1.223
59614W        W20925  32.566  36.519   0.964
59615W        W20926  18.097  24.182   9.602
59616W        W20927  33.065  15.083  14.938
59617W        W20928  41.014  35.002   0.455
59618W        W20929  31.605   0.373   4.289
59619W        W20930  40.435  27.673  13.817
59620W        W20931  43.846  11.218  10.983
59621W        W20932  33.976  31.559   2.853
59622W        W20933   5.800   7.198  13.475
59623W        W20934  25.112   4.730  12.454
59624W        W20935   8.878  11.803   0.405
59625W        W20936  31.037   0.490   0.389
59626W        W20937  10.185  28.625  10.539
59627W        W20938  34.497  35.597   1.824
59628W        W20939  44.907   4.882   1.799
59629W        W20940   5.225  14.102   1.928
59630W        W20941  26.467   5.264   1.788
59631W        W20942  38.944  33.994   1.931
59632W        W20943  24.097  32.486   1.702
59633W        W20944  23.028  34.095  14.360
59634W        W20945  25.054  26.576  13.928
59635W        W20946  23.141  20.618  14.339
59636W        W20947  20.689   3.742   1.376
59637W        W20948  36.439  18.285   1.797
59638W        W20949  10.649  27.448  10.533
59639W        W20950  15.750  35.397  12.369
59640W        W20951  32.419  16.753  11.611
59641W        W20952  33.090  35.026   0.824
59642W        W20953  11.701  23.172   2.210
59643W        W20954  41.851   6.216  10.517
59644W        W20955  16.127  44.355   1.865
59645W        W20956  13.631  31.550   1.441
59646W        W20957  32.026  36.857  11.600
59647W        W20958  18.583  40.507  13.513
59648W        W20959  35.395  43.906  13.034
59649W        W20960  28.622  36.443  10.945
59650W        W20961  35.581  14.817   0.837
59651W        W20962  11.266  31.128  10.932
59652W        W20963  23.496   5.710  11.605
59653W        W20964  10.676  35.413  10.607
59654W        W20965  42.826   6.260   3.344
59655W        W20966  35.054  33.075   1.875
59656W        W20967  33.518   0.747  11.496
59657W        W20968   3.235  14.106   1.387
59658W        W20969  29.927  29.602  14.423
59659W        W20970  36.877   4.305   1.366
59660W        W20971  44.824  36.997  14.850
59661W        W20972  10.258  24.481  10.525
59662W        W20973  13.185  32.033  10.560
59663W        W20974  41.806   2.853   4.240
59664W        W20975  23.677  10.657  10.972
59665W        W20976   8.656   2.799  13.495
59666W        W20977   7.217   5.391   2.375
59667W        W20978  30.587   0.845   0.484
59668W        W20979  39.873  33.082   4.766
59669W        W20980  20.728   0.814  13.524
59670W        W20981  28.654  41.509   0.408
59671W        W20982  40.446   3.334  11.399
59672W        W20983   4.767   0.852  13.487
59673W        W20984   2.277  23.153   2.683
59674W        W20985   5.728  15.650  13.404
59675W        W20986  26.690  32.111   4.235
59676W        W20987  33.509   2.389   1.445
59677W        W20988   2.752  36.899  12.423
59678W        W20989  11.225  26.528   4.675
59679W        W20990   0.892  11.174  14.824
59680W        W20991  42.502  38.906   2.875
59681W        W20992  37.339   3.769  12.923
59682W        W20993  39.517  28.105  13.428
59683W        W20994  27.090  36.479  14.398
59684W        W20995  16.307  27.645   1.279
59685W        W20996  40.458  21.196  13.901
59686W        W20997  21.149  33.476  10.924
59687W        W20998  43.353   9.355  13.385
59688W        W20999  22.239  31.497  13.355
59689W        W21000   0.829  24.712  11.956
59690W        W21001  27.509  43.487   4.206
59691W        W21002  38.386  38.074  12.487
59692W        W21003   4.350  12.216   1.217
59693W        W21004  38.451   5.226  13.009
59694W        W21005  27.463  35.862   4.117
59695W        W21006  13.715  30.579  14.876
59696W        W21007  26.670   9.388   4.119
59697W        W21008  20.534  24.206   3.838
59698W        W21009  36.545  20.581  12.434
59699W        W21010  30.621  19.707  11.399
59700W        W21011  30.489  42.990   3.845
59701W        W21012  23.670   4.334  14.429
59702W        W21013  30.491  38.046   2.329
59703W        W21014   4.401  21.052  11.419
59704W        W21015  22.241  31.950   0.406
59705W        W21016  16.209  10.720   3.809
59706W        W21017  36.057  15.638  11.600
59707W        W21018  35.395  29.132   2.827
59708W        W21019  24.540  26.080   0.299
59709W        W21020  39.957  33.018   1.801
59710W        W21021  16.143   4.286   3.815
59711W        W21022  37.014  35.588  12.882
59712W        W21023  11.625  11.261  12.559
59713W        W21024  26.121  17.181  13.801
59714W        W21025  19.050  39.368  13.373
59715W        W21026  36.351  37.431   9.487
59716W        W21027  19.773   6.773  14.317
59717W        W21028  10.352  15.742   5.161
59718W        W21029  34.107   4.233  14.400
59719W        W21030  35.902   6.737  11.441
59720W        W21031  23.037  36.032  14.360
59721W        W21032  33.428   7.673  11.125
59722W        W21033   1.852   0.876   4.136
59723W        W21034   0.747  16.718   0.793
59724W        W21035  19.748  12.766  10.631
59725W        W21036  27.192   1.752   1.384
59726W        W21037   7.280  42.798   3.280
59727W        W21038  34.959  40.320  14.874
59728W        W21039   0.916  19.693   4.239
59729W        W21040   9.766  35.000   3.194
59730W        W21041  18.207  23.216  12.348
59731W        W21042  30.131  34.558   1.414
59732W        W21043   0.780  40.507   2.327
59733W        W21044  29.073  30.485  14.903
59734W        W21045  19.687  22.617   0.270
59735W        W21046  34.440  43.276   1.355
59736W        W21047  22.139  11.343  12.463
59737W        W21048   9.267  43.343  14.982
59738W        W21049  42.335  28.625  11.402
59739W        W21050  22.666   4.861   2.853
59740W        W21051  29.120  14.679   0.796
59741W        W21052  12.714  36.939   3.247
59742W        W21053  20.556  40.387   1.360
59743W        W21054  35.498  17.745   1.395
59744W        W21055  40.499  25.213   1.782
59745W        W21056  33.980   6.884   3.238
59746W        W21057  10.154  13.659   0.829
59747W        W21058  19.680  14.699  11.855
59748W        W21059   7.348   0.844   0.744
59749W        W21060   2.408  25.553  11.876
59750W        W21061  19.270   4.859  11.122
59751W        W21062  22.086  30.628   5.618
59752W        W21063  20.750  16.186   0.848
59753W        W21064  13.298  41.948  11.891
59754W        W21065  14.665  37.867  13.007
59755W        W21066  33.022  28.476   3.369
59756W        W21067   5.840  42.354   3.686
59757W        W21068  26.963  39.350   3.162
59758W        W21069  12.332   8.744   3.751
59759W        W21070  23.599  15.152  10.980
59760W        W21071  35.946  30.946  13.457
59761W        W21072   2.841  42.973  11.548
59762W        W21073  27.502  34.934   2.778
59763W        W21074  27.686  21.755  14.363
59764W        W21075  39.496   8.250  13.424
59765W        W21076  33.464   3.792   1.238
59766W        W21077   6.189  27.123  13.865
59767W        W21078  41.036  24.707  14.959
59768W        W21079  30.078  28.065  10.949
59769W        W21080  29.142  44.485   0.962
59770W        W21081   2.874   6.913   4.660
59771W        W21082  33.480  22.227   5.099
59772W        W21083  30.514  35.507   0.914
59773W        W21084  34.471  15.104  11.991
59774W        W21085  34.985  19.622  11.870
59775W        W21086  29.043  33.096  12.963
59776W        W21087  40.360  25.577  14.948
59777W        W21088  33.907  30.656  12.836
59778W        W21089   2.771  20.195   3.223
59779W        W21090  36.546  20.526  14.873
59780W        W21091  22.700  38.559  14.508
59781W        W21092   9.200  43.945   4.263
59782W        W21093  23.986  39.028   0.350
59783W        W21094  20.082  16.696   2.306
59784W        W21095  22.030  25.967   3.861
59785W        W21096  40.838  34.108   4.675
59786W        W21097  11.745  33.091   1.700
59787W        W21098  16.736  34.595  12.501
59788W        W21099  10.340  24.598  11.421
59789W        W21100  14.232  33.044  11.927
59790W        W21101  20.132  33.048  12.870
59791W        W21102  14.639   6.922   4.334
59792W        W21103  30.991  24.678  13.826
59793W        W21104  15.208   6.855  10.545
59794W        W21105  29.579   5.335  13.504
59795W        W21106   5.205   4.422  12.543
59796W        W21107   6.895  24.139  13.903
59797W        W21108  36.533   3.944   2.309
59798W        W21109   8.209  35.903   2.293
59799W        W21110  11.168  31.625   2.873
59800W        W21111  32.636  16.601  11.962
59801W        W21112  43.274  21.021   0.844
59802W        W21113  11.712  12.840  14.918
59803W        W21114  42.492  42.906   0.801
59804W        W21115   2.836   8.320   1.359
59805W        W21116  26.186   3.769  12.487
59806W        W21117  16.138   6.320   2.701
59807W        W21118  22.136  11.832  12.528
59808W        W21119   7.286  14.654   2.890
59809W        W21120   9.280   8.711   5.198
59810W        W21121  29.112   6.327   4.650
59811W        W21122  16.610   3.847   0.450
59812W        W21123  19.051  37.512   1.398
59813W        W21124   2.898  37.027  11.046
59814W        W21125  43.806  34.370   0.327
59815W        W21126  39.443  24.987   4.727
59816W        W21127  13.616  44.357  10.572
59817W        W21128  20.233   0.943   2.710
59818W        W21129   4.363   1.921  13.044
59819W        W21130  16.747  16.075  13.433
59820W        W21131  41.926  23.185   1.378
59821W        W21132   3.233   9.302   2.344
59822W        W21133  10.188  31.916   2.299
59823W        W21134  42.417   7.776   3.680
59824W        W21135  17.765  29.156  10.962
59825W        W21136  34.590   4.863  13.994
59826W        W21137   8.756  35.917  13.967
59827W        W21138   3.800  36.577   1.278
59828W        W21139  30.158   8.791  14.860
59829W        W21140   0.361  19.214   1.911
59830W        W21141   9.725  14.834   2.232
59831W        W21142  30.645   3.904   4.285
59832W        W21143  31.926  23.092   2.755
59833W        W21144  38.460  23.494  14.325
59834W        W21145   5.754  26.586   4.778
59835W        W21146  16.682  29.961  11.086
59836W        W21147  38.880  13.615   4.705
59837W        W21148   6.780  35.025   0.418
59838W        W21149  11.811  44.461   2.186
59839W        W21150   3.933  34.050  11.891
59840W        W21151   8.354  19.225  13.314
59841W        W21152   7.272   3.770   3.850
59842W        W21153   8.700  30.121  14.784
59843W        W21154   1.259  16.569   0.379
59844W        W21155  42.415  18.276  14.381
59845W        W21156   2.325  25.018  13.940
59846W        W21157   6.335  17.200   1.816
59847W        W21158   8.859  36.051  12.346
59848W        W21159  27.976  41.861  12.919
59849W        W21160  44.978  14.219  13.409
59850W        W21161  35.905  12.816  12.463
59851W        W21162  37.905   5.834  12.935
59852W        W21163  39.415  33.026  11.868
59853W        W21164  43.774  41.977   4.128
59854W        W21165  27.985  35.399  10.996
59855W        W21166  12.236  18.155   0.809
59856W        W21167  40.939  26.011   0.937
59857W        W21168  29.134   9.868   9.581
59858W        W21169   2.399   7.278  11.933
59859W        W21170  10.851  33.991  11.427
59860W        W21171  12.682  10.664  14.941
59861W        W21172  26.041   9.854  14.442
59862W        W21173  11.830  10.844   4.683
59863W        W21174  20.758   7.230   3.758
59864W        W21175  12.801  34.004  11.553
59865W        W21176   5.716  17.071  12.511
59866W        W21177  44.901  41.349   4.611
59867W        W21178  24.577  35.105  12.825
59868W        W21179  18.171  12.612   4.233
59869W        W21180  44.420   8.768  14.389
59870W        W21181  40.845  36.399  14.985
59871W        W21182  25.031   1.916   4.680
59872W        W21183  42.417  22.057   1.321
59873W        W21184  18.167  35.865  13.994
59874W        W21185  21.657  30.541   2.860
59875W        W21186  29.138  19.717  13.544
59876W        W21187  12.780  19.281   2.840
59877W        W21188   0.989  33.953  11.924
59878W        W21189  11.862  38.532  14.805
59879W        W21190  43.463  43.445   0.848
59880W        W21191  39.884  33.091   2.236
59881W        W21192  27.105  24.498  14.449
59882W        W21193  32.912  29.425  14.350
59883W        W21194  37.360  17.182   3.345
59884W        W21195  17.157  43.791   3.742
59885W        W21196  44.355  33.995  12.445
59886W        W21197  32.005  15.221  11.863
59887W        W21198  18.273  43.803   2.411
59888W        W21199  34.478  26.603  13.860
59889W        W21200  26.699  29.083  10.905
59890W        W21201  41.866  10.640  13.435
59891W        W21202  29.014  41.988  13.904
59892W        W21203   7.283  30.105   0.342
59893W        W21204  15.688  30.986   0.915
59894W        W21205  27.462  37.012  11.874
59895W        W21206  12.136   6.899   3.829
59896W        W21207  13.751  29.460   3.696
59897W        W21208  24.980   7.181   4.228
59898W        W21209  14.297  30.491   4.790
59899W        W21210   0.942  12.685   4.724
59900W        W21211   9.359  33.440  10.614
59901W        W21212  40.524  31.410  14.005
59902W        W21213   3.844  35.971   3.739
59903W        W21214  31.151  30.613  14.006
59904W        W21215   4.935  34.442   2.247
59905W        W21216  27.542  34.403   4.230
59906W        W21217  41.439  41.040  11.967
59907W        W21218  12.316   5.377   4.296
59908W        W21219  43.863  17.262  11.393
59909W        W21220  13.613   4.793  11.078
59910W        W21221  36.475  41.375   3.183
59911W        W21222   2.913  19.092  11.601
59912W        W21223  11.677  30.424  14.513
59913W        W21224  16.169  25.611  13.935
59914W        W21225  17.295  18.706  10.486
59915W        W21226  41.495  24.053   1.434
59916W        W21227  34.072  16.734  12.896
59917W        W21228  34.929  44.332  14.789
59918W        W21229  39.524  16.674  14.815
59919W        W21230  25.008  13.636   3.680
59920W        W21231  41.447   2.339  14.930
59921W        W21232  34.915  42.987  14.399
59922W        W21233  43.997  30.416  10.514
59923W        W21234  42.405  29.004   1.288
59924W        W21235   5.427  17.301   3.864
59925W        W21236  27.679  41.041  13.414
59926W        W21237  18.723   0.841  14.901
59927W        W21238  30.066  40.806  14.894
59928W        W21239   2.774  16.179  11.033
59929W        W21240  24.126  32.473   0.867
59930W        W21241  34.994  13.222  11.537
59931W        W21242  38.862  19.535  10.152
59932W        W21243   2.394  17.795  12.435
59933W        W21244   1.807   1.460  11.955
59934W        W21245  13.772   8.399  13.343
59935W        W21246  21.723   2.751  13.409
59936W        W21247  23.551  24.090   3.816
59937W        W21248   7.318  11.799  14.886
59938W        W21249  37.477   9.304  14.944
59939W        W21250   6.289   4.328   0.357
59940W        W21251  36.001   6.377  11.397
59941W        W21252  18.769   1.336   1.902
59942W        W21253  28.597   3.910  11.889
59943W        W21254  43.341   9.647   2.183
59944W        W21255  43.371  11.214   0.877
59945W        W21256  33.004   9.368  12.410
59946W        W21257  39.503  29.621  11.074
59947W        W21258  27.631  25.091  10.492
59948W        W21259  22.150   6.771   2.415
59949W        W21260  28.160   8.673   2.758
59950W        W21261  33.460  15.640  12.504
59951W        W21262  23.073  12.830  11.537
59952W        W21263   7.223  42.369   4.796
59953W        W21264  14.751  30.155   3.245
59954W        W21265  11.196  25.102   5.264
59955W        W21266   0.462  34.977   4.225
59956W        W21267  13.215  35.879   5.097
59957W        W21268  23.106  33.471   1.253
59958W        W21269  22.049  12.313   1.734
59959W        W21270   8.361  24.021   0.323
59960W        W21271  14.187  12.145  11.025
59961W        W21272  30.477  33.100   0.779
59962W        W21273  35.889  20.207  13.404
59963W        W21274  11.796  41.522  10.145
59964W        W21275   5.715  44.976  12.391
59965W        W21276   1.236  15.125  13.465
59966W        W21277  20.743  28.467   3.804
59967W        W21278  40.363  12.319  10.489
59968W        W21279   2.236   8.656  10.942
59969W        W21280  35.031  42.465  10.626
59970W        W21281  13.240  22.221  13.830
59971W        W21282   0.893   7.316  10.032
59972W        W21283  20.205  27.132  14.976
59973W        W21284  18.069  12.687  12.054
59974W        W21285  22.725   2.832  12.560
59975W        W21286  13.321  35.587  14.767
59976W        W21287  35.089  42.957   5.256
59977W        W21288   8.686  31.985  12.519
59978W        W21289  31.115  43.444   2.734
59979W        W21290   9.375  14.653   0.919
59980W        W21291  16.265  12.824   0.795
59981W        W21292  12.209  20.202   3.860
59982W        W21293  18.596  15.240   0.260
59983W        W21294  34.106  26.652  14.310
59984W        W21295  14.661  14.613   9.665
59985W        W21296  22.510  19.233   1.271
59986W        W21297   5.697   9.324  12.923
59987W        W21298  20.589  14.791  13.990
59988W        W21299  18.096  12.256   1.744
59989W        W21300   5.378  30.951   4.310
59990W        W21301  26.630  12.164   4.834
59991W        W21302  29.621   6.188  12.863
59992W        W21303   3.862  29.972   4.273
59993W        W21304  35.358   2.287  13.319
59994W        W21305  36.524  32.076   4.163
59995W        W21306  13.708  34.422   4.319
59996W        W21307   9.703   5.356   4.600
59997W        W21308  38.426  32.133  10.905
59998W        W21309   4.359  29.669  10.983
59999W        W21310  34.401  40.333   4.300
60000W        W21311  12.273  21.139   2.380
60001W        W21312  27.611   0.486  14.299
60002W        W21313  18.137  23.604  13.849
60003W        W21314  30.941  14.104   3.381
60004W        W21315  30.046   6.844   1.435
60005W        W21316  20.070  41.962  12.876
60006W        W21317   1.242  20.063   1.764
60007W        W21318  31.987  31.087  14.443
60008W        W21319  42.303  31.610   3.321
60009W        W21320  19.627  21.578  13.873
60010W        W21321  43.906   5.810  12.463
60011W        W21322  41.319   1.878   0.894
60012W        W21323  35.883  43.774   2.720
60013W        W21324  35.602  13.133   4.630
60014W        W21325   3.420   2.259  12.025
60015W        W21326  12.322   9.236  13.473
60016W        W21327  10.815   2.842  10.604
60017W        W21328  21.054  43.884  13.470
60018W        W21329  19.081  31.113   3.244
60019W        W21330  42.289  40.010   0.400
60020W        W21331   4.826  42.442  10.908
60021W        W21332  40.995  21.241  11.420
60022W        W21333  12.260   4.801  14.856
60023W        W21334  44.999  36.857   0.844
60024W        W21335  30.608  30.155   1.885
60025W        W21336   2.283   2.855   0.781
60026W        W21337   8.744  36.473  13.022
60027W        W21338  17.733  17.145   4.217
60028W        W21339  44.371  44.313   9.986
60029W        W21340  32.090  41.980  13.547
60030W        W21341  16.276  43.878   1.924
60031W        W21342  34.562  12.835   2.793
60032W        W21343   4.826   5.253   0.329
60033W        W21344  23.042  17.602  12.431
60034W        W21345  14.152  21.064  10.446
60035W        W21346   7.206  37.072  13.443
60036W        W21347  36.520   2.733  14.867
60037W        W21348  23.535  20.130  10.515
60038W        W21349  29.141  27.659   4.330
60039W        W21350   5.380  22.120  12.371
60040W        W21351  24.570  19.678   2.394
60041W        W21352  44.420  29.066  11.015
60042W        W21353   3.219   4.378  11.855
60043W        W21354  19.701  41.508   3.147
60044W        W21355  20.552  14.162   4.768
60045W        W21356  11.696  40.906   4.735
60046W        W21357  22.504  43.915  11.503
60047W        W21358  44.926  35.930   5.242
60048W        W21359   9.688   4.339   0.729
60049W        W21360  32.988   1.237   4.173
60050W        W21361  37.449   1.241   4.603
60051W        W21362  10.250  10.649   2.868
60052W        W21363  40.445  18.253   1.754
60053W        W21364   0.328  44.913  12.348
60054W        W21365  26.563   2.779  14.002
60055W        W21366   4.429  13.787   2.218
60056W        W21367  28.575  19.097   4.270
60057W        W21368  37.970  34.035   0.945
60058W        W21369  34.108   8.761   1.695
60059W        W21370  43.365   8.187   0.338
60060W        W21371  29.486  35.064   0.382
60061W        W21372  30.138  40.448  10.505
60062W        W21373  36.553  40.913   2.661
60063W        W21374   3.419   7.315   0.457
60064W        W21375  18.083  14.297  14.436
60065W        W21376  41.946  41.451   1.746
60066W        W21377  27.690  39.439   0.827
60067W        W21378  27.471   5.226   1.404
60068W        W21379  18.767  42.962  14.846
60069W        W21380  18.074  43.397   1.875
60070W        W21381   7.416   4.874   1.927
60071W        W21382  18.244  29.111  12.470
60072W        W21383  22.030  10.847   0.753
60073W        W21384  27.601  31.127   0.317
60074W        W21385  20.258  38.956  11.937
60075W        W21386  21.700  30.937  11.548
60076W        W21387  21.056   8.403  14.423
60077W        W21388  41.003  27.186   3.808
60078W        W21389   7.366  36.492  13.942
60079W        W21390   5.396  32.608   4.204
60080W        W21391   6.320   4.942  13.923
60081W        W21392  18.618  23.587  12.991
60082W        W21393  36.991  37.346   2.283
60083W        W21394  15.730  21.625   1.356
60084W        W21395  27.985  20.115   0.481
60085W        W21396  17.221  31.435  10.551
60086W        W21397  13.728  21.515   2.299
60087W        W21398  28.117  13.625  12.878
60088W        W21399  23.053   8.311  14.455
60089W        W21400  21.017   9.377  10.432
60090W        W21401  15.252  37.410   2.721
60091W        W21402  37.833   6.426  12.359
60092W        W21403  16.147  11.205  11.044
60093W        W21404  31.910  20.086   1.347
60094W        W21405  42.363  42.493  11.056
60095W        W21406  42.008  24.061   3.740
60096W        W21407   0.977  42.412  10.953
60097W        W21408   1.783  15.123   4.287
60098W        W21409  34.073  19.645   2.381
60099W        W21410  27.543  40.036  14.976
60100W        W21411  22.730  22.713  11.438
60101W        W21412   4.785  34.488   4.630
60102W        W21413   3.431  37.855   4.612
60103W        W21414  38.859  11.691  13.944
60104W        W21415  24.990  22.155  14.479
60105W        W21416  29.055  14.255  13.975
60106W        W21417  30.635   1.479   3.159
60107W        W21418  37.078  34.007   2.415
60108W        W21419  33.520  16.813  12.875
60109W        W21420  40.351   2.900  10.633
60110W        W21421  37.992  36.393  12.361
60111W        W21422  20.699  35.406  11.450
60112W        W21423  20.688   0.265  14.399
60113W        W21424  43.016   3.408   0.307
60114W        W21425  22.553  39.488   0.915
60115W        W21426  16.284  44.889   1.840
60116W        W21427  44.821  12.322  13.422
60117W        W21428  41.015  35.596  10.407
60118W        W21429  36.541  15.609   3.776
60119W        W21430  12.767  22.012  10.965
60120W        W21431  21.118  31.600  13.041
60121W        W21432   6.834  44.277   0.797
60122W        W21433  11.694  11.706   2.343
60123W        W21434  40.396  34.536  12.897
60124W        W21435  36.041  22.074  13.542
60125W        W21436   9.647  25.684   1.708
60126W        W21437  28.536   5.279  14.876
60127W        W21438  22.033  17.073   4.346
60128W        W21439  10.160  13.813   2.899
60129W        W21440  19.281   3.928  10.912
60130W        W21441   3.265  40.936   4.347
60131W        W21442  24.652  23.646   2.698
60132W        W21443  10.140  15.187  14.343
60133W        W21444  31.524   0.964   0.965
60134W        W21445   8.898  44.950  13.859
60135W        W21446  41.011   6.852  14.886
60136W        W21447  40.919  28.590   2.710
60137W        W21448  20.592  32.391   0.427
60138W        W21449  36.924  32.606  14.382
60139W        W21450   9.153  44.313  13.338
60140W        W21451  32.585  19.155   1.440
60141W        W21452  36.459  30.924  12.864
60142W        W21453  18.567  38.989   5.636
60143W        W21454  29.457  13.804   2.360
60144W        W21455  12.724  41.301  14.458
60145W        W21456  44.457  20.031  13.471
60146W        W21457   6.218  13.312  12.461
60147W        W21458  39.550  42.791  13.428
60148W        W21459  32.500  32.007   3.699
60149W        W21460  33.449   1.746  13.347
60150W        W21461  30.101  39.339  12.398
60151W        W21462  39.560  37.560  13.902
60152W        W21463  15.314  27.022   5.282
60153W        W21464  11.845  31.534   1.384
60154W        W21465  21.144   2.742   4.669
60155W        W21466   1.796  44.486  12.025
60156W        W21467  38.056  13.346   0.727
60157W        W21468  33.385  14.657  13.416
60158W        W21469  35.570  16.590  12.476
60159W        W21470  41.413   1.422  13.354
60160W        W21471  42.031  40.397  14.883
60161W        W21472  23.578  19.643  14.006
60162W        W21473  25.659  12.678  13.327
60163W        W21474   7.898  23.644  14.975
60164W        W21475   5.396  16.235  14.947
60165W        W21476  43.991   7.286   2.386
60166W        W21477   9.846  11.225   1.327
60167W        W21478  38.518   5.768   4.333
60168W        W21479  32.111   6.772  11.883
60169W        W21480  24.667   3.751  14.291
60170W        W21481  15.794   7.716  11.456
60171W        W21482  28.936  38.330  11.048
60172W        W21483  38.019   9.310  14.395
60173W        W21484  42.013   9.818   2.769
60174W        W21485  39.901  32.573   0.243
60175W        W21486   8.805  42.425  10.436
60176W        W21487  13.233  28.578  14.326
60177W        W21488  40.369   1.287   3.242
60178W        W21489  22.683  34.072  12.071
60179W        W21490  31.614  28.976  12.907
60180W        W21491  40.042   7.194  12.055
60181W        W21492  33.384  17.116  11.392
60182W        W21493  19.575  40.927   0.458
60183W        W21494  43.410  14.823   2.247
60184W        W21495  40.437  41.018   3.173
60185W        W21496  37.344  22.062   0.967
60186W        W21497  42.282  30.616   4.620
60187W        W21498   3.276   4.260  13.996
60188W        W21499   5.743  34.452   2.409
60189W        W21500  30.915  42.012   3.215
60190W        W21501   2.237   1.458  14.921
60191W        W21502   2.317  34.984  11.015
60192W        W21503  38.869  21.154   5.216
60193W        W21504  31.444   9.191   0.747
60194W        W21505  42.307   6.186  11.897
60195W        W21506   1.773  18.716  11.071
60196W        W21507   9.303  43.841  14.299
60197W        W21508   1.841  29.052   3.274
60198W        W21509  15.704  31.559   1.873
60199W        W21510   0.768  22.028   2.369
60200W        W21511  17.108  40.394  10.067
60201W        W21512  41.988   4.935   3.809
60202W        W21513  32.090  11.723   1.901
60203W        W21514  43.302  30.999  10.561
60204W        W21515  31.107  40.037  14.815
60205W        W21516  44.283  34.867   2.251
60206W        W21517  40.420  20.634   2.892
60207W        W21518   4.763  40.469  12.059
60208W        W21519  18.591  15.240   1.785
60209W        W21520  26.146   3.763  13.480
60210W        W21521  39.983  10.700  10.483
60211W        W21522  40.951   8.302  14.925
60212W        W21523   2.769  24.165   3.362
60213W        W21524  28.020  44.395   2.834
60214W        W21525  10.664  26.151  11.433
60215W        W21526  30.135  29.096   1.799
60216W        W21527  33.440  16.080  11.020
60217W        W21528   1.309  37.906  12.020
60218W        W21529   1.474  37.976   1.861
60219W        W21530  23.699  44.955  14.804
60220W        W21531  23.117  12.160   0.261
60221W        W21532  41.037  20.524  10.956
60222W        W21533   3.295   7.764   5.256
60223W        W21534   0.413   6.873  11.910
60224W        W21535  40.472   6.390  14.822
60225W        W21536  21.162   0.344   3.182
60226W        W21537  15.252  44.947   0.772
60227W        W21538  18.604  17.729  14.407
60228W        W21539  11.313  26.966   4.252
60229W        W21540  16.641   0.353   1.396
60230W        W21541  12.642   6.413   3.731
60231W        W21542   4.872  41.487   2.290
60232W        W21543   3.775  28.651   1.908
60233W        W21544  35.954   2.244   3.294
60234W        W21545  10.865  10.370   3.787
60235W        W21546   4.911   4.299   4.807
60236W        W21547  10.841  26.194   2.693
60237W        W21548  11.173  31.526  10.424
60238W        W21549  27.663  27.571   2.691
60239W        W21550  40.520   7.204   1.890
60240W        W21551  27.467  17.219  11.474
60241W        W21552  19.763   0.781  10.441
60242W        W21553  20.236  26.003   1.896
60243W        W21554   1.770  38.358   3.341
60244W        W21555  16.636  15.139   2.823
60245W        W21556  19.716  15.713  14.348
60246W        W21557  33.942  29.516   0.413
60247W        W21558  19.060  20.546  12.342
60248W        W21559   4.771  22.084   2.295
60249W        W21560  26.121  27.667   9.972
60250W        W21561   0.365  43.787   0.324
60251W        W21562  13.827   6.391   3.310
60252W        W21563  25.646  26.540   2.244
60253W        W21564  10.850   9.759  11.104
60254W        W21565  17.666  39.822   0.311
60255W        W21566  21.512  38.395   3.232
60256W        W21567  20.046  12.674  14.004
60257W        W21568  22.631  39.863   2.334
60258W        W21569  17.077   0.367  14.833
60259W        W21570  15.602  25.677   4.722
60260W        W21571  10.348  15.803  12.417
60261W        W21572  14.302  22.600   3.257
60262W        W21573  10.164  19.683  11.039
60263W        W21574  16.791  31.902   3.838
60264W        W21575  29.480  39.995   0.789
60265W        W21576  30.929  28.990   3.855
60266W        W21577  34.551   4.730  10.589
60267W        W21578  36.996  40.030   2.815
60268W        W21579  34.581  23.086  12.843
60269W        W21580  29.660  26.159  10.626
60270W        W21581   3.238  20.195  11.120
60271W        W21582  16.303  16.659   2.860
60272W        W21583  18.636  38.535   3.275
60273W        W21584  13.648  14.284   1.340
60274W        W21585   4.759  35.468   0.274
60275W        W21586  23.723  31.474  11.547
60276W        W21587   2.886  37.066  12.956
60277W        W21588   8.338  12.698  10.451
60278W        W21589   1.870  27.943  12.896
60279W        W21590   1.483  40.395  12.870
60280W        W21591  29.597  17.557  11.859
60281W        W21592  36.553  14.285  13.332
60282W        W21593  16.701   3.407  10.638
60283W        W21594  44.818  21.043   2.238
60284W        W21595  33.944  44.964   4.225
60285W        W21596   4.732  43.399   1.862
60286W        W21597  10.860  20.256   4.304
60287W        W21598  12.314   8.298   1.897
60288W        W21599  18.203  25.527   1.911
60289W        W21600  39.384   2.953   1.731
60290W        W21601  36.019  20.729  11.425
60291W        W21602  34.973  33.027  12.891
60292W        W21603  38.052  17.274  13.966
60293W        W21604  19.659  19.188   0.275
60294W        W21605  44.488  11.652   2.871
60295W        W21606  41.041  26.542   2.348
60296W        W21607  26.484  34.492   0.888
60297W        W21608   9.672   2.835   0.476
60298W        W21609  17.695   1.331  11.947
60299W        W21610   9.764  22.668  14.324
60300W        W21611  26.096  16.091   3.719
60301W        W21612   6.831   3.399   1.846
60302W        W21613   1.241  18.100   0.474
60303W        W21614  25.571  38.031  11.592
60304W        W21615  13.656  23.196  10.057
60305W        W21616  35.464  24.694  12.544
60306W        W21617  25.209   2.925   1.805
60307W        W21618   9.723  20.758  14.846
60308W        W21619  23.721  18.228   9.568
60309W        W21620  20.762  37.964   4.126
60310W        W21621  32.934  32.018   0.838
60311W        W21622  11.785  21.627   3.801
60312W        W21623  15.694  14.731   3.770
60313W        W21624  21.551  41.825  13.503
60314W        W21625  11.320   3.237   0.792
60315W        W21626   1.932   7.813  10.977
60316W        W21627  10.154   1.399  10.590
60317W        W21628  24.222  31.480   5.684
60318W        W21629   8.685  34.881   4.679
60319W        W21630   0.301   0.407  13.442
60320W        W21631  12.279  28.651  10.954
60321W        W21632  43.969   7.895  14.413
60322W        W21633  42.518  10.303  10.558
60323W        W21634  24.515  25.699  13.844
60324W        W21635  10.822  37.944  10.506
60325W        W21636  23.002  19.113  12.092
60326W        W21637  16.120   4.435   1.902
60327W        W21638  37.508   0.828   4.218
60328W        W21639  27.562  15.111  13.800
60329W        W21640  21.735  21.722  14.901
60330W        W21641   9.212  15.223   1.804
60331W        W21642  25.519  39.470  14.981
60332W        W21643  13.283  40.952   3.387
60333W        W21644   9.684   5.713   3.803
60334W        W21645  15.599  26.112  13.889
60335W        W21646  13.822   1.758  13.519
60336W        W21647  13.293   8.831   1.412
60337W        W21648  39.997   8.305   1.338
60338W        W21649   6.823  37.403  12.039
60339W        W21650  17.774   9.179   4.146
60340W        W21651  26.978  10.864   2.386
60341W        W21652  22.721   9.724   1.388
60342W        W21653  24.710  40.828   0.810
60343W        W21654   9.721  19.592   0.883
60344W        W21655  39.010   5.369  13.939
60345W        W21656  29.457  38.912  10.150
60346W        W21657  18.574   8.761  14.389
60347W        W21658  43.270  24.536   3.173
60348W        W21659  11.248  22.694  11.098
60349W        W21660   0.854  37.923  14.787
60350W        W21661  33.984   8.285  12.877
60351W        W21662   9.688   9.794  11.439
60352W        W21663  20.047  23.166  11.529
60353W        W21664  16.803  13.761  11.541
60354W        W21665  39.818  18.269   3.249
60355W        W21666  27.018   3.393   1.423
60356W        W21667   4.716  37.034   4.230
60357W        W21668  21.567  43.895   4.172
60358W        W21669  21.224  22.114   2.858
60359W        W21670  41.367  20.257  11.863
60360W        W21671  44.498  16.729   3.226
60361W        W21672  13.809  18.602   4.193
60362W        W21673  25.644   8.270  13.000
60363W        W21674   8.680  40.408   4.630
60364W        W21675  17.161  43.004   4.304
60365W        W21676   3.887  18.693  11.493
60366W        W21677  43.909   4.812   4.598
60367W        W21678  30.126  34.915   2.886
60368W        W21679  35.577  16.801  11.541
60369W        W21680  43.284  16.171   4.321
60370W        W21681  27.478   4.815  10.068
60371W        W21682   1.825  13.136  14.323
60372W        W21683  14.722   6.804   0.358
60373W        W21684   6.755  12.743   0.936
60374W        W21685   5.356  40.345  14.847
60375W        W21686  41.995  41.923   0.906
60376W        W21687  31.086  36.023  12.527
60377W        W21688   9.343  13.204   2.249
60378W        W21689  23.567  27.196  13.444
60379W        W21690  18.060  33.583  11.904
60380W        W21691  42.869  33.408   1.906
60381W        W21692  27.616  25.160  10.962
60382W        W21693  20.100   7.384   0.758
60383W        W21694  29.158  28.045  13.059
60384W        W21695  21.710   4.845  14.309
60385W        W21696  10.261   6.336   5.180
60386W        W21697  25.652  39.391  11.441
60387W        W21698  26.124  33.619   4.695
60388W        W21699  30.469  12.708  13.859
60389W        W21700  42.447  11.754  11.571
60390W        W21701  35.562   8.390  11.547
60391W        W21702  25.086   2.840   3.209
60392W        W21703  26.471  43.775   3.639
60393W        W21704  28.973  43.902   4.820
60394W        W21705   8.710   9.285  14.835
60395W        W21706  37.925  23.541   4.293
60396W        W21707  38.919   4.273   3.814
60397W        W21708   5.708  25.514  12.859
60398W        W21709   7.772  36.469  14.866
60399W        W21710  15.283  15.123   9.506
60400W        W21711  41.468  40.477   0.256
60401W        W21712  38.980  26.623   2.348
60402W        W21713  32.008  24.180   0.404
60403W        W21714   3.328   5.764   0.933
60404W        W21715  12.798  37.481   2.372
60405W        W21716  39.468  25.708   4.354
60406W        W21717  41.512  18.149  12.981
60407W        W21718  32.556  43.968   1.768
60408W        W21719  15.324  11.331  13.484
60409W        W21720  16.599  12.214  13.330
60410W        W21721  14.792  44.339  12.413
60411W        W21722  34.992  37.532  11.498
60412W        W21723  17.288  21.056   5.262
60413W        W21724  24.226  39.045   9.996
60414W        W21725   4.209  17.211  13.908
60415W        W21726  18.287  16.243  11.032
60416W        W21727  17.062  42.390   4.316
60417W        W21728  31.038  42.030   2.213
60418W        W21729  11.821  40.518  13.434
60419W        W21730  40.421   6.318  10.942
60420W        W21731  38.359  19.626   0.804
60421W        W21732  30.063  29.102   2.199
60422W        W21733  37.457  28.972   1.710
60423W        W21734  25.975  30.984   2.403
60424W        W21735  25.149  12.121  13.062
60425W        W21736  28.060  28.475   1.357
60426W        W21737  36.471  35.962   0.727
60427W        W21738  30.961  43.501  13.466
60428W        W21739   5.870  30.632  14.400
60429W        W21740  41.492   7.789  12.829
60430W        W21741  37.405  28.643  14.971
60431W        W21742  31.970  34.516   3.839
60432W        W21743  21.689  16.625  12.057
60433W        W21744   6.849  13.706   4.132
60434W        W21745   1.404  19.699   2.218
60435W        W21746  28.056  20.619   3.638
60436W        W21747  29.073  30.653   2.739
60437W        W21748   3.331  41.385   3.286
60438W        W21749  28.634  41.028   0.340
60439W        W21750  11.864  14.807  11.023
60440W        W21751   7.784  44.351  12.944
60441W        W21752   3.912  26.135  12.921
60442W        W21753  34.377  34.916  12.916
60443W        W21754  29.083   7.751  10.141
60444W        W21755  17.786  19.141   3.304
60445W        W21756  18.628  35.496  11.003
60446W        W21757  34.430  29.071   1.291
60447W        W21758  41.465   9.211  11.977
60448W        W21759  27.013  44.978   4.332
60449W        W21760  41.460  19.572   2.835
60450W        W21761  22.530  15.611   1.862
60451W        W21762  24.207  40.516  11.050
60452W        W21763  28.185  32.557   3.230
60453W        W21764   6.306  34.882  14.343
60454W        W21765  16.259  41.308  14.457
60455W        W21766  15.166  16.640  12.543
60456W        W21767  19.149  16.770  14.974
60457W        W21768   2.285  42.441  12.579
60458W        W21769  23.612  13.352  10.458
60459W        W21770  35.596  27.086  10.604
60460W        W21771   7.763  37.419   0.753
60461W        W21772   6.712  41.495   4.168
60462W        W21773  17.599   1.424  10.942
60463W        W21774  38.520   9.732  14.769
60464W        W21775  27.968  38.834  10.961
60465W        W21776  33.472   6.212  14.466
60466W        W21777  20.741  19.547  12.980
60467W        W21778  17.211  10.655  11.574
60468W        W21779  26.200   8.863   1.228
60469W        W21780  43.368  41.414  12.525
60470W        W21781  10.165   3.289  14.812
60471W        W21782  10.309  28.513   2.799
60472W        W21783   9.177  17.103  12.546
60473W        W21784   9.720  30.491   2.189
60474W        W21785   6.808  20.094   4.287
60475W        W21786  42.916  24.483   2.888
60476W        W21787   0.808  38.511  10.594
60477W        W21788  30.421  32.579   3.837
60478W        W21789   6.249  24.519  14.490
60479W        W21790  27.030  41.997  13.518
60480W        W21791  40.520  34.540  13.828
60481W        W21792  31.901  12.845   1.701
60482W        W21793  14.232   1.252   0.448
60483W        W21794  21.211   7.789  11.981
60484W        W21795   5.717  30.437  12.512
60485W        W21796   1.292  41.810  13.390
60486W        W21797  35.479   1.368  11.516
60487W        W21798  44.954  30.550  14.032
60488W        W21799  21.051  42.915   3.157
60489W        W21800  15.112  28.553   3.716
60490W        W21801  12.782  38.829  11.406
60491W        W21802   7.732  35.011  12.076
60492W        W21803  38.389  23.194   4.248
60493W        W21804  16.703  14.619  11.988
60494W        W21805  31.444  20.230  11.995
60495W        W21806  36.058  43.282   3.859
60496W        W21807  30.115  26.123  11.400
60497W        W21808  28.019  25.017  10.453
60498W        W21809  28.478  36.447  10.621
60499W        W21810   6.254  29.976  14.277
60500W        W21811  23.054  34.994  14.481
60501W        W21812  34.107  36.488  11.409
60502W        W21813  31.566  13.335   4.123
60503W        W21814   4.777  35.881   0.360
60504W        W21815   5.785  21.098  10.001
60505W        W21816   5.764  42.527  13.384
60506W        W21817  29.073  35.021   2.826
60507W        W21818   0.879  42.947   3.860
60508W        W21819  14.245  30.104   4.306
60509W        W21820  21.178   8.730  10.498
60510W        W21821  16.667   3.298   9.581
60511W        W21822  22.682  41.805   2.183
60512W        W21823   8.805  43.788  11.104
60513W        W21824  25.996  42.938  11.020
60514W        W21825  37.493  17.738   1.748
60515W        W21826  22.723   0.826  13.958
60516W        W21827  43.387  32.421  13.916
60517W        W21828  35.959   0.893   0.870
60518W        W21829   6.887  12.224  14.370
60519W        W21830   4.922  33.878  14.031
60520W        W21831  41.965  36.558   4.671
60521W        W21832   2.949  23.654   1.706
60522W        W21833  14.178  11.239   3.761
60523W        W21834  44.880   4.827   2.740
60524W        W21835  19.614  29.632  10.436
60525W        W21836   8.249  31.975  13.882
60526W        W21837   7.902  38.905   3.304
60527W        W21838  21.639  16.285   3.381
60528W        W21839  32.545  33.111   2.307
60529W        W21840  40.009  10.299  10.583
60530W        W21841  32.045  21.689  11.380
60531W        W21842  21.068   2.352   0.934
60532W        W21843  35.523   6.297  10.549
60533W        W21844   5.876  14.826   2.874
60534W        W21845  36.420   4.223   0.471
60535W        W21846  24.127  38.863   3.213
60536W        W21847   8.798  23.734  11.035
60537W        W21848  33.399  33.566   5.094
60538W        W21849  23.573  28.610   4.680
60539W        W21850  33.524  20.119  13.378
60540W        W21851  24.188   9.254   3.840
60541W        W21852  21.534  24.120  13.468
60542W        W21853  41.476  10.157   2.252
60543W        W21854  22.711  17.692   2.833
60544W        W21855  18.240  12.773   2.827
60545W        W21856  42.386  17.584   1.838
60546W        W21857  19.242  30.161   0.747
60547W        W21858  42.792  36.534   4.165
60548W        W21859   3.733   5.924  10.500
60549W        W21860  36.034   8.286   3.162
60550W        W21861  32.074   3.938   1.877
60551W        W21862  41.998  44.504   1.699
60552W        W21863   0.418  19.555   1.395
60553W        W21864  12.157  37.579   4.326
60554W        W21865  27.032  20.075  12.513
60555W        W21866  37.889  26.577   0.776
60556W        W21867   4.699  37.509  12.067
60557W        W21868  21.517  18.627   1.369
60558W        W21869  39.433  17.653  12.985
60559W        W21870   8.222  25.062   3.746
60560W        W21871   7.375  19.632  13.543
60561W        W21872  18.622  30.510   4.208
60562W        W21873   8.174  27.637   2.217
60563W        W21874  37.943   5.207   3.290
60564W        W21875  44.319  43.930  10.486
60565W        W21876  32.519  27.657   4.153
60566W        W21877  37.928  34.516   3.155
60567W        W21878  42.437  24.708  13.476
60568W        W21879   5.687  10.204   3.779
60569W        W21880  35.427  18.721   1.729
60570W        W21881  10.160  23.652  14.308
60571W        W21882   9.299  38.364   0.808
60572W        W21883  18.604  32.025  12.004
60573W        W21884  38.347  11.633   4.294
60574W        W21885  16.723   3.289   5.236
60575W        W21886  39.451  29.565   2.252
60576W        W21887   0.348  27.457  10.959
60577W        W21888  35.983  22.185  14.872
60578W        W21889   2.846  16.203   3.689
60579W        W21890  37.572   8.197  12.879
60580W        W21891  26.155  35.493  12.557
60581W        W21892  20.766  39.041  12.028
60582W        W21893   7.293  21.621   2.716
60583W        W21894  44.396  44.426  13.492
60584W        W21895  28.557  43.775  12.834
60585W        W21896  43.346  20.043   4.643
60586W        W21897  23.519  13.630  13.513
60587W        W21898  13.806  39.541  10.633
60588W        W21899   2.366  18.061   4.802
60589W        W21900   2.336  14.233  14.422
60590W        W21901  17.598  21.021  13.946
60591W        W21902   4.932  29.572  12.418
60592W        W21903  32.632  40.515   2.361
60593W        W21904  11.759  34.430  12.528
60594W        W21905   8.776   5.765  10.462
60595W        W21906  20.550  24.017  12.556
60596W        W21907  20.679  43.978  13.511
60597W        W21908  35.464  28.439   0.946
60598W        W21909  37.435   8.760  13.386
60599W        W21910  23.231   1.880   4.605
60600W        W21911  44.455   5.354   3.168
60601W        W21912  19.691  30.963  10.460
60602W        W21913  35.364  35.973   0.452
60603W        W21914  36.364  30.555   1.393
60604W        W21915  10.300  20.045  11.044
60605W        W21916  24.643   2.939   0.850
60606W        W21917   9.882  32.492  14.322
60607W        W21918  38.946  40.968   1.432
60608W        W21919   4.370   7.219  11.955
60609W        W21920  28.632   5.729   4.329
60610W        W21921  38.390  27.559  13.319
60611W        W21922  24.483  25.086  14.328
60612W        W21923  42.282  12.155   3.231
60613W        W21924  29.469   9.156  12.016
60614W        W21925  12.775  16.080   2.250
60615W        W21926  14.807  19.254   2.186
60616W        W21927  18.692  39.548   3.845
60617W        W21928  31.117  32.988  11.466
60618W        W21929   2.247  27.126  13.998
60619W        W21930  37.388  13.245   4.173
60620W        W21931  21.658  44.456   3.338
60621W        W21932  37.880  44.346  14.328
60622W        W21933   0.416  17.671  11.921
60623W        W21934  21.552  25.197  10.418
60624W        W21935   5.252  32.061  12.968
60625W        W21936  37.875  37.949  10.020
60626W        W21937  34.947  25.110  13.426
60627W        W21938  30.420   2.394  13.415
60628W        W21939  26.633  39.926  10.084
60629W        W21940  20.071   9.708   2.870
60630W        W21941   2.463  10.816   0.354
60631W        W21942  19.066  42.491   2.721
60632W        W21943  17.281  34.082  14.444
60633W        W21944   1.479   6.411   4.259
60634W        W21945  35.103  28.641   2.744
60635W        W21946  37.981  20.586  12.837
60636W        W21947  22.580  29.071   4.267
60637W        W21948   4.928  42.516   9.957
60638W        W21949  13.294   3.260   0.944
60639W        W21950  14.317  39.433  11.533
60640W        W21951  10.766  10.852  13.440
60641W        W21952  42.819  13.747  13.980
60642W        W21953   9.850   7.859   3.635
60643W        W21954  13.803  36.897  12.536
60644W        W21955  31.111  38.069  13.018
60645W        W21956  32.623  32.416  12.025
60646W        W21957  11.262  42.801  14.326
60647W        W21958  10.172  23.207   3.151
60648W        W21959  17.264  24.041  12.998
60649W        W21960  23.501  17.787  11.487
60650W        W21961   6.816  22.591   1.367
60651W        W21962  33.093  44.006   0.775
60652W        W21963  26.524  16.201   1.249
60653W        W21964  36.435  30.429   3.224
60654W        W21965  34.393  19.079  13.021
60655W        W21966  39.827  23.573  14.844
60656W        W21967  16.096  32.010   1.840
60657W        W21968   0.874  25.053  14.852
60658W        W21969   6.883  12.219   4.222
60659W        W21970  35.969  11.628   4.134
60660W        W21971  23.126  34.534   1.418
60661W        W21972  20.271   2.720  12.938
60662W        W21973  17.253  32.554  13.411
60663W        W21974   9.742   2.285  14.489
60664W        W21975  24.546  31.998  13.803
60665W        W21976   1.753   4.833  10.549
60666W        W21977  37.875  27.581   0.736
60667W        W21978  18.693   5.771  10.595
60668W        W21979   9.733  10.239  12.962
60669W        W21980   5.827  26.101  12.530
60670W        W21981   4.746   1.831   4.664
60671W        W21982  33.477  13.787  13.933
60672W        W21983  33.007   1.302  13.485
60673W        W21984  11.178  28.059   1.414
60674W        W21985  21.237  20.705  11.590
60675W        W21986  17.081   8.370  14.881
60676W        W21987  18.220  18.664   4.614
60677W        W21988   8.211  34.399   4.337
60678W        W21989  14.627  13.138   2.747
60679W        W21990   1.803   6.871  11.584
60680W        W21991   0.335  12.780   0.280
60681W        W21992  11.301  26.203  13.033
60682W        W21993   9.157  33.909  11.010
60683W        W21994  41.428  14.684   4.621
60684W        W21995  22.131   9.773  13.893
60685W        W21996  11.746  27.602  14.810
60686W        W21997  44.402  29.999  13.946
60687W        W21998   8.226   1.812  13.452
60688W        W21999  15.713  27.568  11.860
60689W        W22000  20.756  29.588   4.615
60690W        W22001  31.597   0.459   2.848
60691W        W22002  41.803  12.706   0.448
60692W        W22003  21.735  29.570   2.676
60693W        W22004   7.306   3.916  11.489
60694W        W22005  43.376  39.508  12.364
60695W        W22006  31.964  18.190   2.177
60696W        W22007   9.697  31.487   2.362
60697W        W22008  28.513  35.872  12.934
60698W        W22009  36.522  10.190  13.541
60699W        W22010  38.924  27.131   1.253
60700W        W22011  21.620  17.711   3.314
60701W        W22012  21.058  36.942  13.436
60702W        W22013  25.555  12.200  10.579
60703W        W22014   4.917  27.622  13.024
60704W        W22015  18.627  13.628  11.976
60705W        W22016   3.716   2.857   0.381
60706W        W22017   3.258  34.408   2.193
60707W        W22018  34.976  39.378   3.170
60708W        W22019  24.095  10.151   0.783
60709W        W22020  31.540   2.721   0.364
60710W        W22021   7.275  30.599   0.319
60711W        W22022  11.366  39.947  12.542
60712W        W22023  10.295   9.712  10.078
60713W        W22024  20.765   7.299  12.354
60714W        W22025   0.395  23.193   3.679
60715W        W22026  13.188  41.348   0.280
60716W        W22027   0.387  28.634  14.009
60717W        W22028  20.054  42.839  11.470
60718W        W22029  30.422  40.477   1.231
60719W        W22030  27.054  42.518   4.819
60720W        W22031  42.479  40.040   3.260
60721W        W22032  41.887  33.507  14.398
60722W        W22033  11.328  27.511   0.843
60723W        W22034   7.767   1.938   9.956
60724W        W22035   6.273  33.522  13.803
60725W        W22036  23.012  24.033   0.872
60726W        W22037  17.801  44.947  11.911
60727W        W22038  24.974  32.440  13.316
60728W        W22039  15.591  27.017  13.013
60729W        W22040  37.368  43.764   1.429
60730W        W22041  20.726  31.644  10.458
60731W        W22042  35.391  14.151  13.337
60732W        W22043  15.214  10.271   3.317
60733W        W22044   9.248  39.327  13.929
60734W        W22045  31.502  37.482  10.612
60735W        W22046  28.462  35.974  10.494
60736W        W22047   2.772  34.876   1.909
60737W        W22048  16.277   8.190  14.774
60738W        W22049  38.419  30.135  13.873
60739W        W22050  22.236  23.136  12.014
60740W        W22051   8.843  15.318   1.271
60741W        W22052  39.859   0.396  10.440
60742W        W22053  35.498   6.676  12.036
60743W        W22054  15.735  37.959  13.877
60744W        W22055   0.882   1.399  13.877
60745W        W22056  27.652  43.779  11.015
60746W        W22057  17.262   6.219   0.391
60747W        W22058  21.047   0.384  14.344
60748W        W22059   3.927  35.408  12.463
60749W        W22060  21.052   5.717   0.361
60750W        W22061  21.672   3.271   4.228
60751W        W22062  16.156   3.794  11.968
60752W        W22063   1.277  19.597  11.896
60753W        W22064  13.226  16.743   1.778
60754W        W22065  32.475   9.331  11.116
60755W        W22066  17.062  25.554  11.114
60756W        W22067   1.390  43.796  11.989
60757W        W22068  37.080  40.514  11.005
60758W        W22069   8.887  13.769  11.513
60759W        W22070  32.973  40.356  12.560
60760W        W22071  11.854   1.446  14.402
60761W        W22072  10.191  23.636  11.005
60762W        W22073  40.834   2.431   1.709
60763W        W22074   3.795  27.127  13.544
60764W        W22075  34.913  28.560   3.687
60765W        W22076   8.730  37.881   3.179
60766W        W22077   3.828   7.850   3.317
60767W        W22078  23.501  30.018   1.411
60768W        W22079  26.977   2.738  14.333
60769W        W22080  34.018  15.284   4.662
60770W        W22081  36.886  15.271  14.018
60771W        W22082  43.779  26.180  14.879
60772W        W22083  36.935  44.417   2.365
60773W        W22084  28.132  26.530  12.342
60774W        W22085  13.169  19.112  14.446
60775W        W22086   7.292  42.904  14.891
60776W        W22087  17.139  37.862   4.615
60777W        W22088  38.917  35.439   1.841
60778W        W22089  30.135  36.038   3.176
60779W        W22090  29.167  25.547   4.320
60780W        W22091  20.572   9.334  11.000
60781W        W22092  21.521  16.624   2.722
60782W        W22093   2.946  33.998   2.301
60783W        W22094  31.480  34.912  13.403
60784W        W22095  29.557  23.070  13.415
60785W        W22096   4.802  12.614  12.371
60786W        W22097  13.115  15.594   0.372
60787W        W22098  38.025   0.436   2.880
60788W        W22099   4.399  16.290   9.958
60789W        W22100  20.084  24.487   4.744
60790W        W22101   3.441  19.113   2.802
60791W        W22102   4.383  15.224  11.992
60792W        W22103  32.627  22.133  11.052
60793W        W22104  33.075  22.671   2.805
60794W        W22105   2.843  24.502  13.475
60795W        W22106   1.833  36.467  11.921
60796W        W22107   1.437   4.915  14.501
60797W        W22108  24.001  16.786   3.824
60798W        W22109  17.099  20.094  14.859
60799W        W22110  34.545  30.523   0.923
60800W        W22111  16.102  44.927  11.909
60801W        W22112   2.767   1.881  12.526
60802W        W22113  42.438   1.749  11.610
60803W        W22114  41.498  44.908   1.385
60804W        W22115  31.591  34.436  11.922
60805W        W22116  11.362   0.476  11.945
60806W        W22117  39.450  39.423  13.396
60807W        W22118  17.644  42.471   4.149
60808W        W22119  11.709  41.340  11.093
60809W        W22120  39.825  17.124  12.512
60810W        W22121  25.040  20.246   4.351
60811W        W22122  26.966  40.042  13.021
60812W        W22123  28.973  36.926   2.367
60813W        W22124  35.996  42.927   2.724
60814W        W22125  19.083  33.585   3.815
60815W        W22126   4.430  41.788  13.427
60816W        W22127  24.550  12.154  13.943
60817W        W22128  33.990  16.238   4.770
60818W        W22129  28.145  23.001   0.891
60819W        W22130  38.834  44.778   2.756
60820W        W22131  14.321  31.153   0.256
60821W        W22132   7.745  11.636   2.823
60822W        W22133  30.646   6.239   3.642
60823W        W22134  33.017  13.181  11.425
60824W        W22135  12.332  13.218  13.328
60825W        W22136  26.549  18.106  13.444
60826W        W22137  30.946  39.886   3.342
60827W        W22138  42.483  40.052   0.744
60828W        W22139  29.424  43.409  11.041
60829W        W22140   2.326  30.587  12.043
60830W        W22141   4.854  29.530  14.330
60831W        W22142  24.101  22.084  14.380
60832W        W22143   1.456  24.195   4.716
60833W        W22144  37.842  35.424  14.952
60834W        W22145  29.467   8.370   1.842
60835W        W22146   5.276   6.804  12.356
60836W        W22147  10.172   5.841   3.325
60837W        W22148   0.872  38.490   3.184
60838W        W22149  14.639  25.201  11.918
60839W        W22150  10.850   4.364  12.447
60840W        W22151  18.695  23.671   5.094
60841W        W22152  40.417  41.895  14.822
60842W        W22153  40.904  37.961   2.367
60843W        W22154  38.056  41.365   0.929
60844W        W22155  44.281  24.135  12.389
60845W        W22156  15.247   6.735   0.461
60846W        W22157   5.409  26.106   4.807
60847W        W22158  19.639  19.591   4.773
60848W        W22159  19.598  39.350   5.617
60849W        W22160  26.463   8.661   9.950
60850W        W22161   4.204  25.472  14.905
60851W        W22162  16.612   9.741   2.218
60852W        W22163  36.476  13.306   4.674
60853W        W22164  18.573  37.023   1.814
60854W        W22165   2.270  15.783  11.087
60855W        W22166  12.306   4.411   1.809
60856W        W22167  10.251   5.414   2.717
60857W        W22168  44.355   9.764   4.256
60858W        W22169   5.753  25.109  10.642
60859W        W22170  11.672  37.976   0.322
60860W        W22171  21.204  37.989   4.815
60861W        W22172  42.925  23.664   1.222
60862W        W22173  13.329  33.066   3.358
60863W        W22174  30.032  11.209  11.930
60864W        W22175  24.520   3.769   2.684
60865W        W22176  11.859  15.774   0.914
60866W        W22177  22.586  15.715  12.405
60867W        W22178   9.297  40.316  11.514
60868W        W22179  29.146  37.883   0.802
60869W        W22180  20.245  23.050   1.431
60870W        W22181   7.692  33.111  13.839
60871W        W22182  14.194   6.289  14.351
60872W        W22183   3.864  26.188   1.298
60873W        W22184   4.786   7.873   3.638
60874W        W22185  33.022  24.217   3.815
60875W        W22186  35.417   1.764  11.502
60876W        W22187   7.176  29.158  14.900
60877W        W22188  21.584   7.772   1.398
60878W        W22189  24.609  18.072  11.862
60879W        W22190   5.923   5.765   3.829
60880W        W22191  34.056  41.870   4.659
60881W        W22192  18.248  40.460   4.726
60882W        W22193  20.591  22.077   4.135
60883W        W22194   8.772  13.675   0.873
60884W        W22195  20.125  10.249   2.281
60885W        W22196  22.641   2.472  12.870
60886W        W22197  13.755  42.411   4.146
60887W        W22198  32.042  41.986   1.426
60888W        W22199  27.185  30.058   0.781
60889W        W22200  40.803  35.058   4.656
60890W        W22201  15.637  23.041   0.354
60891W        W22202  36.484   0.316   4.778
60892W        W22203  41.024  23.032   0.942
60893W        W22204  38.369   3.387   3.718
60894W        W22205   8.756  38.406  14.995
60895W        W22206  42.999  27.944  14.808
60896W        W22207  15.580  34.119   4.609
60897W        W22208  40.320  35.946   1.704
60898W        W22209  31.599  20.749  13.995
60899W        W22210  31.005  42.344   2.697
60900W        W22211  12.826  16.246   2.839
60901W        W22212  42.808  15.658  14.840
60902W        W22213   3.434  21.112  10.063
60903W        W22214  38.888  40.458  13.531
60904W        W22215   1.756  17.789   1.344
60905W        W22216  10.292  39.014  12.459
60906W        W22217  28.052  26.196  10.928
60907W        W22218  40.879  23.729   3.782
60908W        W22219  41.363  37.566  12.460
60909W        W22220  20.121  11.758  13.523
60910W        W22221  23.124   9.648  14.965
60911W        W22222  26.011  32.529   2.771
60912W        W22223  25.476  12.837   4.790
60913W        W22224  13.702  24.610  12.552
60914W        W22225  43.950  27.488  14.852
60915W        W22226  18.261  10.862  11.379
60916W        W22227  14.150  33.443   4.836
60917W        W22228  35.367   6.248   1.722
60918W        W22229  27.563   9.792  14.004
60919W        W22230  29.171  30.004   0.951
60920W        W22231  17.763  25.087  11.421
60921W        W22232  42.813   6.353   4.206
60922W        W22233  29.125  22.661   3.632
60923W        W22234  42.431  16.279   2.704
60924W        W22235  41.960   0.411   4.817
60925W        W22236  18.570  34.456  11.979
60926W        W22237  33.465  43.313   1.929
60927W        W22238  24.620  43.848   4.160
60928W        W22239  33.442   3.267   3.716
60929W        W22240  35.399  14.746   4.162
60930W        W22241  41.879  15.681  11.909
60931W        W22242  35.089  17.079   1.349
60932W        W22243  13.769  11.644   0.289
60933W        W22244  31.949  18.140   3.741
60934W        W22245   8.898  29.486   0.737
60935W        W22246  26.504   4.813  14.990
60936W        W22247  28.943   1.867   3.338
60937W        W22248  37.846  38.479   0.751
60938W        W22249  15.138   1.478  13.464
60939W        W22250  41.417  33.046  12.962
60940W        W22251  35.914  34.380   4.792
60941W        W22252   5.779  10.202  14.920
60942W        W22253   4.204  11.749   1.257
60943W        W22254  19.122  35.043  13.062
60944W        W22255  33.092  19.682   0.393
60945W        W22256  44.497  20.543  11.928
60946W        W22257  29.604  11.820   2.404
60947W        W22258  23.616  40.526  14.497
60948W        W22259  14.591  37.485  14.287
60949W        W22260  44.270  38.953  10.423
60950W        W22261  31.010  19.114   0.340
60951W        W22262  43.923  39.435   0.471
60952W        W22263   1.482  19.686   3.188
60953W        W22264  44.769  14.282  11.553
60954W        W22265  33.105   0.292   2.178
60955W        W22266  26.482  43.022   2.214
60956W        W22267  13.673  42.949  10.503
60957W        W22268  43.825   9.745  11.973
60958W        W22269   0.397  32.485  14.884
60959W        W22270   4.276  27.615   0.379
60960W        W22271  21.753  42.998   4.328
60961W        W22272  11.234  42.391   1.867
60962W        W22273  14.114  22.038  14.812
60963W        W22274  24.572  11.358  12.030
60964W        W22275  28.679  44.424   4.129
60965W        W22276  32.560  12.221  12.952
60966W        W22277   7.765  15.782   2.242
60967W        W22278  31.090  11.180  13.486
60968W        W22279  27.523  43.905   0.727
60969W        W22280  14.096  23.177  10.054
60970W        W22281  15.626  20.190   3.756
60971W        W22282  32.938  21.674   1.423
60972W        W22283  27.118   0.944   3.784
60973W        W22284  28.461  32.122  11.930
60974W        W22285   6.195  27.193  12.567
60975W        W22286   0.475  32.915  14.489
60976W        W22287  35.930  36.511  13.455
60977W        W22288   6.389  24.707   2.239
60978W        W22289  37.021  11.839  14.894
60979W        W22290  19.193  33.552  12.369
60980W        W22291  41.894  26.547   2.891
60981W        W22292   2.904  19.536  12.383
60982W        W22293   1.872  26.644  11.050
60983W        W22294   4.837  18.782   4.222
60984W        W22295  15.104  44.283  14.890
60985W        W22296  36.512  30.564   4.760
60986W        W22297   6.215   3.748   3.687
60987W        W22298   4.290  25.972   3.799
60988W        W22299   6.810  10.375  12.922
60989W        W22300  35.053  44.827  13.317
60990W        W22301   1.936   4.362  10.947
60991W        W22302  36.855  40.908   3.799
60992W        W22303   2.373  33.418   3.291
60993W        W22304  25.113  20.686   2.874
60994W        W22305  36.903  43.780   2.413
60995W        W22306  31.462  12.715  13.433
60996W        W22307  20.564   2.769   4.834
60997W        W22308  15.769  24.522   3.331
60998W        W22309  21.681  24.146  10.919
60999W        W22310  31.898   0.744  11.577
61000W        W22311  17.225   4.828  11.438
61001W        W22312  40.431  13.709  10.988
61002W        W22313   2.788  35.952  14.862
61003W        W22314  37.927  33.080  14.324
61004W        W22315  21.582  21.536   3.713
61005W        W22316  12.833  28.992   4.749
61006W        W22317  17.589  21.253   4.634
61007W        W22318  31.468  36.993  10.968
61008W        W22319  43.393  43.339  11.053
61009W        W22320   2.384  25.549   1.714
61010W        W22321   2.434  44.936  14.985
61011W        W22322   7.309  10.312   1.839
61012W        W22323  10.876  14.110  10.483
61013W        W22324  31.933  40.347   1.904
61014W        W22325  40.537  36.430   4.246
61015W        W22326  16.583  43.416  11.581
61016W        W22327  24.631  43.454   1.423
61017W        W22328  31.921   4.932   2.356
61018W        W22329  29.150  14.692  13.440
61019W        W22330  33.081  27.948  13.857
61020W        W22331   2.882  23.572  11.550
61021W        W22332  23.039   6.835  10.891
61022W        W22333  16.715   5.399   1.344
61023W        W22334   2.381  43.477   4.812
61024W        W22335   9.302   7.204   3.805
61025W        W22336  16.202   5.748  12.932
61026W        W22337  25.625   4.339   1.245
61027W        W22338  23.566  29.640  11.012
61028W        W22339   8.319  40.892   2.198
61029W        W22340  34.556  38.859  12.456
61030W        W22341  18.227   3.319   4.173
61031W        W22342  28.142   3.924   4.616
61032W        W22343  37.906  38.872   0.852
61033W        W22344  24.115  27.691   4.251
61034W        W22345  23.066  16.307  10.509
61035W        W22346   5.214  41.948  12.877
61036W        W22347  28.042   5.793  14.889
61037W        W22348   9.249   4.783  10.983
61038W        W22349  15.304   4.351  14.312
61039W        W22350   9.301  19.197  14.290
61040W        W22351  43.448  23.490  12.881
61041W        W22352  15.682  28.549  13.007
61042W        W22353  25.694   1.251  11.956
61043W        W22354  44.947  27.460  13.460
61044W        W22355   1.385  15.607   4.688
61045W        W22356  41.921  24.485  12.076
61046W        W22357  10.771   7.832  12.069
61047W        W22358  30.019  38.939  12.975
61048W        W22359   9.653   8.796  13.322
61049W        W22360   7.218  40.871  13.936
61050W        W22361  29.622  19.181  12.040
61051W        W22362  26.639  21.169   1.764
61052W        W22363  24.183  37.973   1.926
61053W        W22364  18.078  34.043   2.336
61054W        W22365  32.472   9.759  14.409
61055W        W22366  11.307   3.816   4.138
61056W        W22367  30.912  25.138   0.394
61057W        W22368  42.838   0.326  12.953
61058W        W22369  23.601  23.516  11.464
61059W        W22370  11.246  43.918   4.164
61060W        W22371  22.183   1.906  11.906
61061W        W22372   0.402   7.280   4.816
61062W        W22373   4.860   5.764  10.411
61063W        W22374  25.539  23.104  14.835
61064W        W22375   3.936  39.505  13.859
61065W        W22376  21.254  34.088   1.421
61066W        W22377  12.358  18.134  14.882
61067W        W22378  32.532  30.471  13.476
61068W        W22379  19.205  19.077   2.366
61069W        W22380  28.106  19.673  14.981
61070W        W22381  10.348  25.700  10.607
61071W        W22382  39.955  11.740  14.834
61072W        W22383  27.080  36.884   3.347
61073W        W22384  21.672  42.377  14.886
61074W        W22385  13.723  22.623  12.835
61075W        W22386  10.341  32.595  14.430
61076W        W22387  39.860  34.889   0.938
61077W        W22388  20.073   5.886   3.370
61078W        W22389  34.583  24.588   4.144
61079W        W22390  20.252   8.829  13.930
61080W        W22391   6.918   6.318  13.812
61081W        W22392  20.713  44.395   3.272
61082W        W22393  10.197  23.724   1.817
61083W        W22394  42.988  39.005  11.026
61084W        W22395   9.793  32.990  12.026
61085W        W22396   5.913  12.742  14.504
61086W        W22397  27.956  26.525  11.110
61087W        W22398  41.458  33.026   2.842
61088W        W22399  22.558  41.388  11.040
61089W        W22400  29.955  41.786  12.070
61090W        W22401  11.810  23.157  10.625
61091W        W22402  41.508  22.079   2.226
61092W        W22403  36.993  31.075  11.386
61093W        W22404  31.440   9.723   3.847
61094W        W22405  35.859  25.039  11.519
61095W        W22406  31.987   5.807  13.863
61096W        W22407  18.608  44.309   0.927
61097W        W22408   5.741   6.812   4.790
61098W        W22409   2.901  42.911  14.837
61099W        W22410  11.867  38.893   2.194
61100W        W22411  11.865  37.477   0.934
61101W        W22412  33.942  17.153   1.858
61102W        W22413  14.168  17.211  10.024
61103W        W22414  39.973  11.650  11.110
61104W        W22415   6.207  33.122  11.500
61105W        W22416  21.126  42.333  12.899
61106W        W22417  23.596   5.765  12.561
61107W        W22418   5.753  31.990   0.928
61108W        W22419   0.834  42.781  13.493
61109W        W22420  38.835  25.572  12.504
61110W        W22421   7.257  22.097  12.888
61111W        W22422  25.532   1.340  12.867
61112W        W22423   9.333  34.493   1.771
61113W        W22424  13.742  14.603   4.820
61114W        W22425  19.542  13.338  12.018
61115W        W22426  22.594   8.266  14.949
61116W        W22427  30.066   4.449  13.352
61117W        W22428  22.134  17.628   4.655
61118W        W22429  16.108  38.861   3.258
61119W        W22430   7.362  10.355  13.381
61120W        W22431  33.565  21.103   9.978
61121W        W22432  40.343  20.691  11.110
61122W        W22433  44.465  44.302   5.096
61123W        W22434  39.813  43.446  10.628
61124W        W22435  19.673   3.942  12.505
61125W        W22436  13.158  35.970  14.761
61126W        W22437   7.219  31.521  13.334
61127W        W22438   2.947  19.706   3.377
61128W        W22439  30.006  30.458   2.237
61129W        W22440   7.380  16.084  13.530
61130W        W22441   3.939   7.300   2.751
61131W        W22442  24.589  40.509   2.392
61132W        W22443  36.587  36.932   0.908
61133W        W22444  34.569  25.596   0.466
61134W        W22445  19.150   5.743   2.247
61135W        W22446  25.475  20.266   3.384
61136W        W22447  40.502   1.248  13.983
61137W        W22448  18.768  39.891   0.923
61138W        W22449  13.218  41.963  12.460
61139W        W22450  21.086   8.355   2.874
61140W        W22451  16.135   7.399  12.580
61141W        W22452   7.794  27.033   4.600
61142W        W22453  41.317  29.434  13.805
61143W        W22454   6.918  27.568  13.887
61144W        W22455   1.259  27.183  12.015
61145W        W22456   9.253  19.762  12.346
61146W        W22457   2.443  16.244  10.920
61147W        W22458  39.908  35.957   1.928
61148W        W22459   0.343   0.787  10.630
61149W        W22460   4.384  22.637  10.898
61150W        W22461  24.185   0.764   4.130
61151W        W22462   4.297  28.525   0.841
61152W        W22463  16.600  13.133  14.308
61153W        W22464  24.576  15.153   3.666
61154W        W22465  44.349  29.477  12.934
61155W        W22466  25.158  36.554   1.710
61156W        W22467   2.897   3.885   1.796
61157W        W22468  21.032   4.254  11.874
61158W        W22469   6.733  26.500  14.015
61159W        W22470   7.815  19.275   2.366
61160W        W22471  17.240   6.369   0.737
61161W        W22472  40.411  23.696   4.278
61162W        W22473  30.128  21.730   2.739
61163W        W22474  27.943  32.629   0.423
61164W        W22475  13.164  37.078  12.035
61165W        W22476  35.441   7.908   3.701
61166W        W22477  37.835  43.303  12.407
61167W        W22478   6.686  15.629   5.148
61168W        W22479  25.148  36.017   2.198
61169W        W22480  43.386   3.452   3.243
61170W        W22481  13.831  41.428  14.450
61171W        W22482   7.172  35.952  14.966
61172W        W22483  43.816  44.880   4.830
61173W        W22484  25.704   4.872   4.242
61174W        W22485  40.995  35.566  10.907
61175W        W22486  19.571   2.925   4.695
61176W        W22487  25.202  18.102   5.146
61177W        W22488   1.412  17.690   2.331
61178W        W22489  36.451   0.827   5.174
61179W        W22490   0.296  29.113  14.946
61180W        W22491   8.874  39.339  13.460
61181W        W22492  41.827  36.038  10.132
61182W        W22493  36.527  15.696  10.444
61183W        W22494  42.850  44.902  11.472
61184W        W22495  42.468   6.768   0.375
61185W        W22496  24.538   7.325  10.592
61186W        W22497  23.098  22.622  13.496
61187W        W22498   2.446  21.608   2.277
61188W        W22499  20.093  27.957  11.437
61189W        W22500  12.616  29.523  11.453
61190W        W22501  15.814  11.365   5.193
61191W        W22502  14.643   3.255  11.386
61192W        W22503  14.829  15.652  11.948
61193W        W22504   1.803  13.217  11.015
61194W        W22505  30.587  29.627   2.830
61195W        W22506  18.065   1.471  12.563
61196W        W22507  40.036  19.736  12.352
61197W        W22508   6.728  39.034   3.801
61198W        W22509  43.992  42.459  10.636
61199W        W22510  23.715  14.718  14.485
61200W        W22511  23.056   9.679  14.009
61201W        W22512   6.361  40.420  14.306
61202W        W22513  34.969  39.852   0.791
61203W        W22514   7.200  42.302   0.284
61204W        W22515  18.685  10.344  13.535
61205W        W22516   3.945   7.354  13.487
61206W        W22517  42.335  41.393  12.366
61207W        W22518  22.678  24.678   1.230
61208W        W22519  31.113  21.057  12.361
61209W        W22520  30.163  33.501   2.887
61210W        W22521  17.245  14.147   1.783
61211W        W22522  21.205  44.491  11.912
61212W        W22523  44.505  35.083   4.227
61213W        W22524  19.771  38.022  11.492
61214W        W22525  13.196  32.568   2.218
61215W        W22526  35.948  28.061  10.461
61216W        W22527  12.224   4.852  14.313
61217W        W22528  38.485  33.102   0.910
61218W        W22529  30.611  38.843   4.773
61219W        W22530  22.601  17.151   1.932
61220W        W22531   1.362  38.949  12.876
61221W        W22532  11.372  20.098   0.791
61222W        W22533  36.907  35.062   2.294
61223W        W22534  20.057  11.740   0.914
61224W        W22535  42.428  23.513  12.952
61225W        W22536  30.963  22.650   4.225
61226W        W22537  14.164  27.038  11.956
61227W        W22538   2.430  19.586   1.888
61228W        W22539  33.506  37.519   1.269
61229W        W22540   0.441  11.654  12.848
61230W        W22541  38.935  24.538  14.945
61231W        W22542   1.390  27.461  14.389
61232W        W22543   9.245  35.006  14.863
61233W        W22544  43.889  19.084  12.898
61234W        W22545   7.193  23.126  13.015
61235W        W22546  20.052  21.584  14.298
61236W        W22547  24.054  15.690   5.308
61237W        W22548  31.450  17.145   3.772
61238W        W22549  14.270  42.005   1.781
61239W        W22550   1.810   0.899  14.944
61240W        W22551  27.103  35.361  10.931
61241W        W22552  24.092   9.384  14.355
61242W        W22553  39.482  41.924  11.024
61243W        W22554  39.922  18.114  14.341
61244W        W22555  11.349  35.084  11.567
61245W        W22556  26.691  23.522  13.320
61246W        W22557  40.865  24.173   3.802
61247W        W22558  32.417   0.751  11.498
61248W        W22559   2.232  18.188   1.367
61249W        W22560  36.992  20.163  11.907
61250W        W22561  44.386  32.607  13.058
61251W        W22562  29.610  32.972   2.854
61252W        W22563  20.555  10.154   3.308
61253W        W22564  19.738  35.428   1.921
61254W        W22565  15.096  35.998   0.408
61255W        W22566   0.794  28.669   3.855
61256W        W22567  29.989  25.504   0.796
61257W        W22568   8.894  42.887  12.033
61258W        W22569  20.699  40.899   0.799
61259W        W22570  17.178   9.243   4.129
61260W        W22571   7.756  44.005  13.935
61261W        W22572  33.113  23.052  13.391
61262W        W22573   2.255   1.242  12.930
61263W        W22574   5.282  35.474   1.301
61264W        W22575   1.948  26.610  10.450
61265W        W22576  43.931  24.226  13.017
61266W        W22577   2.937   5.315   1.273
61267W        W22578  25.545  39.971  14.780
61268W        W22579  37.989   2.952  10.962
61269W        W22580  30.949  30.610   3.835
61270W        W22581  23.109  28.459   3.377
61271W        W22582  34.996  34.410   1.792
61272W        W22583  34.437  44.846  13.450
61273W        W22584   2.774  40.013   3.159
61274W        W22585   0.866  15.653   4.639
61275W        W22586   7.313   0.798   1.256
61276W        W22587   3.393  24.989  14.506
61277W        W22588  27.149  41.391   2.349
61278W        W22589  39.340  42.781   3.261
61279W        W22590  27.504  20.547  13.972
61280W        W22591   3.952  26.999  11.392
61281W        W22592  16.190  14.245  13.437
61282W        W22593  37.481   8.686  14.330
61283W        W22594  17.578  37.917   0.739
61284W        W22595  25.969  28.489  12.537
61285W        W22596  43.380   2.837   1.839
61286W        W22597  25.054   0.983  12.872
61287W        W22598   3.792  29.977  14.972
61288W        W22599  13.121  27.682   4.254
61289W        W22600  37.039  34.430   3.193
61290W        W22601  11.678  28.066   0.874
61291W        W22602   4.305   6.259   0.324
61292W        W22603  25.104   2.886   0.928
61293W        W22604  27.016  28.059   0.291
61294W        W22605  39.871  32.459  14.280
61295W        W22606  23.591   5.376   3.293
61296W        W22607  17.298  31.937  13.909
61297W        W22608   5.426   1.870   0.282
61298W        W22609  43.498  34.372  10.622
61299W        W22610   8.882  44.908  13.345
61300W        W22611  44.319  34.451  14.422
61301W        W22612  21.568  31.646  11.479
61302W        W22613  15.176   3.341  14.352
61303W        W22614   1.266   3.345   2.402
61304W        W22615  29.919  29.125  11.004
61305W        W22616   4.340  25.016  13.869
61306W        W22617  16.794  15.668  10.089
61307W        W22618  15.260  32.519  14.767
61308W        W22619  26.526  39.909   3.849
61309W        W22620  38.992   4.382  14.426
61310W        W22621  43.830  40.939   4.229
61311W        W22622  12.317  16.123   2.300
61312W        W22623  42.790  11.718  14.419
61313W        W22624  34.096  13.144   2.728
61314W        W22625  28.039   4.374  13.975
61315W        W22626  18.222  15.706  13.492
61316W        W22627  25.983  33.607  11.406
61317W        W22628   1.447  30.966  14.978
61318W        W22629  22.705  19.746   0.298
61319W        W22630  35.998  25.587   4.640
61320W        W22631   5.896  37.569   3.753
61321W        W22632  23.632  10.817  12.466
61322W        W22633  28.126  40.922  12.540
61323W        W22634  29.107  40.004   4.146
61324W        W22635  17.655  31.410  12.959
61325W        W22636  37.976   5.719   2.283
61326W        W22637  12.137  22.012   1.216
61327W        W22638  19.098   8.723  10.900
61328W        W22639  26.553  12.249  14.973
61329W        W22640  23.567  23.997   4.299
61330W        W22641  25.155  28.123  12.003
61331W        W22642   6.853  23.555  10.930
61332W        W22643  39.452  32.892   2.783
61333W        W22644  33.486  34.010  10.502
61334W        W22645   7.196  10.658  10.420
61335W        W22646   4.435  11.794   4.718
61336W        W22647  17.099   6.380  13.476
61337W        W22648  40.984  21.700   2.226
61338W        W22649  14.194  20.558   1.370
61339W        W22650  22.598  41.824  11.454
61340W        W22651  26.552   3.837  11.530
61341W        W22652   4.301   5.293  10.579
61342W        W22653  18.636  38.954  10.971
61343W        W22654   8.668   0.341   3.372
61344W        W22655  22.728  34.487  14.478
61345W        W22656   6.202  30.002   1.313
61346W        W22657  33.406   1.302   0.933
61347W        W22658  32.970  14.624  10.980
61348W        W22659   4.709  11.187   4.188
61349W        W22660  44.410   1.863  13.308
61350W        W22661  32.402  35.018   3.163
61351W        W22662   9.197  38.465  11.980
61352W        W22663  39.483  42.955  12.990
61353W        W22664  25.011  19.695   2.293
61354W        W22665  33.426  14.779   2.411
61355W        W22666   1.786  17.267  14.327
61356W        W22667  39.032  17.596  12.478
61357W        W22668  16.569  23.067  13.821
61358W        W22669  29.981  17.630  10.642
61359W        W22670  23.532  31.917   4.807
61360W        W22671   4.395  20.215   1.400
61361W        W22672  27.052  35.583  12.842
61362W        W22673  26.993  10.764  14.360
61363W        W22674  30.925  41.413   1.806
61364W        W22675  34.879  41.998  12.827
61365W        W22676  34.592   0.754   4.704
61366W        W22677  42.927  26.168  12.974
61367W        W22678  14.117  28.167   2.857
61368W        W22679  22.604  16.681  11.574
61369W        W22680  14.727  29.582  12.866
61370W        W22681  23.556  40.547  10.480
61371W        W22682  40.920   9.845  13.978
61372W        W22683  13.260  23.097  13.330
61373W        W22684  36.880  19.140  12.918
61374W        W22685   1.934  34.471  14.983
61375W        W22686  31.423  16.227  13.364
61376W        W22687   6.822   3.398  11.072
61377W        W22688  31.120  10.290  13.043
61378W        W22689  32.086  36.522  13.341
61379W        W22690  37.372  37.037  12.831
61380W        W22691  23.711  23.654   4.293
61381W        W22692  44.964  40.406  12.037
61382W        W22693   9.332  41.444  11.959
61383W        W22694  10.158  25.083  11.475
61384W        W22695   4.757  28.129   2.365
61385W        W22696  20.129   2.265  13.867
61386W        W22697  31.083   5.272  13.390
61387W        W22698  19.534  20.656  11.896
61388W        W22699   6.817  11.181  12.493
61389W        W22700   3.851  38.556   1.409
61390W        W22701  27.448  33.464  11.964
61391W        W22702  41.463  35.400   4.118
61392W        W22703   6.730   7.388  10.489
61393W        W22704  44.417  43.279   0.779
61394W        W22705  11.679  38.849   3.170
61395W        W22706  13.798  33.973   2.689
61396W        W22707   6.852  43.898   4.152
61397W        W22708  11.276  23.631  14.832
61398W        W22709  16.647  12.333  12.940
61399W        W22710  35.413  15.810   1.818
61400W        W22711  30.464  10.309  14.445
61401W        W22712  23.641   5.410  11.408
61402W        W22713   9.294  37.562   3.658
61403W        W22714  32.495  25.015   4.698
61404W        W22715  12.805  40.924   4.242
61405W        W22716  33.443  15.733   1.226
61406W        W22717  22.226   7.367  12.940
61407W        W22718   3.882  27.083   4.811
61408W        W22719   5.362   2.356   4.119
61409W        W22720  23.022  26.980  12.401
61410W        W22721  43.883  21.705   1.250
61411W        W22722  42.904  12.354   1.215
61412W        W22723  32.467  38.915   0.448
61413W        W22724  13.754  17.187   2.359
61414W        W22725  17.681   4.352  14.799
61415W        W22726  39.517  33.902  12.563
61416W        W22727   5.254  12.154  14.507
61417W        W22728   7.673  25.554   1.413
61418W        W22729   2.757   1.743   2.378
61419W        W22730   1.731  39.374  10.428
61420W        W22731  27.192  38.854   4.837
61421W        W22732  43.928  26.629   0.847
61422W        W22733  32.453  22.691  13.972
61423W        W22734   6.239  10.356   1.324
61424W        W22735  21.060  12.741   0.933
61425W        W22736  17.302   0.973  12.459
61426W        W22737  31.486  34.022   3.801
61427W        W22738  21.557   8.322   1.907
61428W        W22739  20.735   4.431   3.194
61429W        W22740  43.996  43.859  13.027
61430W        W22741  20.087   2.466   4.171
61431W        W22742  39.926  41.947  10.133
61432W        W22743  27.455  14.799  13.323
61433W        W22744  30.577  17.269  13.016
61434W        W22745  20.194  10.850  11.490
61435W        W22746  17.214  23.223   4.128
61436W        W22747  12.616  24.631  12.082
61437W        W22748  37.550  11.627   0.257
61438W        W22749  29.991  43.881   0.256
61439W        W22750   0.250  25.593   2.324
61440W        W22751  36.356  37.349   5.601
61441W        W22752   2.451   9.383  11.588
61442W        W22753  40.352  28.125   0.820
61443W        W22754  23.726   5.807  14.318
61444W        W22755  41.347   4.781  14.931
61445W        W22756  22.150  23.224   0.873
61446W        W22757  16.159   7.173  10.528
61447W        W22758   9.268  21.179  11.534
61448W        W22759  37.353  43.940   3.216
61449W        W22760  14.215  36.046   4.804
61450W        W22761  37.485  43.022  10.438
61451W        W22762   1.751   2.964  13.346
61452W        W22763  44.978  34.496   2.234
61453W        W22764   1.288   1.731  10.412
61454W        W22765  12.355   5.252  10.404
61455W        W22766  31.104  27.606   4.729
61456W        W22767  13.167  12.624   0.755
61457W        W22768   8.339  16.122   0.839
61458W        W22769   8.689  32.118  14.506
61459W        W22770  22.135  41.878  12.522
61460W        W22771  16.078  38.994   9.950
61461W        W22772  40.530  14.238  14.393
61462W        W22773  14.201  30.962  14.290
61463W        W22774   1.974  43.776  11.909
61464W        W22775   2.237   2.331   3.692
61465W        W22776  26.646   4.757  14.372
61466W        W22777  16.122  32.573   0.380
61467W        W22778  15.731   6.681  11.121
61468W        W22779  29.658  15.109  13.417
61469W        W22780   4.850  29.159   9.953
61470W        W22781  40.043   0.475  12.357
61471W        W22782  23.153  44.378   4.297
61472W        W22783   5.236   0.970  13.963
61473W        W22784  33.061  39.951   0.966
61474W        W22785  19.636  22.618   2.182
61475W        W22786  17.600  11.833   0.892
61476W        W22787   1.912  17.786  12.529
61477W        W22788  19.144   2.298   1.416
61478W        W22789  27.011  29.963   3.818
61479W        W22790  31.914   1.931  11.862
61480W        W22791  42.964  35.876  12.972
61481W        W22792  28.479  15.109   4.163
61482W        W22793  19.094  10.305  14.010
61483W        W22794  35.088   1.405  11.514
61484W        W22795  11.621  42.377   3.192
61485W        W22796  13.752  26.961   0.422
61486W        W22797   6.817  42.469   0.301
61487W        W22798  20.144  32.434  11.875
61488W        W22799  32.945  30.465   0.458
61489W        W22800  19.046  19.156  12.876
61490W        W22801  37.887  31.102  14.792
61491W        W22802  42.927  10.265   3.347
61492W        W22803   1.734  32.115   0.896
61493W        W22804   5.718   3.296  10.554
61494W        W22805  10.709  21.260   2.766
61495W        W22806  20.633  24.527  12.831
61496W        W22807  20.598   8.268   1.433
61497W        W22808  22.143  29.139  11.886
61498W        W22809   8.743  32.502   0.869
61499W        W22810   5.864  20.680   3.720
61500W        W22811  14.222  42.827  14.775
61501W        W22812  39.946  18.745  10.500
61502W        W22813  32.973  43.451   1.913
61503W        W22814  11.148   0.927   2.397
61504W        W22815  25.512   9.771  14.432
61505W        W22816  35.898  33.504  11.467
61506W        W22817  29.121  25.576  14.969
61507W        W22818   8.298  17.211  12.400
61508W        W22819  19.726   1.293  10.913
61509W        W22820  28.449   0.764  14.778
61510W        W22821  38.452  41.497   1.223
61511W        W22822  30.583   0.271   4.694
61512W        W22823  37.459  26.951  11.423
61513W        W22824  16.652   1.309  11.911
61514W        W22825  26.199   0.889   4.174
61515W        W22826  24.170  30.029  13.902
61516W        W22827  22.148   9.158  13.527
61517W        W22828  23.646  11.347   3.663
61518W        W22829  30.600  35.601   3.732
61519W        W22830  43.433  16.185  14.495
61520W        W22831  37.359  34.445  13.062
61521W        W22832   8.794  29.461  13.384
61522W        W22833  44.287   3.893  11.871
61523W        W22834  29.096  26.586   1.863
61524W        W22835  15.268  10.319   4.204
61525W        W22836  13.229  30.152   2.285
61526W        W22837  31.595  17.649  12.089
61527W        W22838  21.756  29.034   0.958
61528W        W22839  21.705  44.003  13.508
61529W        W22840  33.506  42.860   1.750
61530W        W22841  40.408  14.253  14.968
61531W        W22842  22.025  21.112  12.088
61532W        W22843  24.604  43.894   0.250
61533W        W22844  32.033  32.410   3.742
61534W        W22845   4.943  16.579   0.269
61535W        W22846   5.326  40.503  10.412
61536W        W22847  39.530  22.687  12.486
61537W        W22848  12.748   3.942   9.532
61538W        W22849   5.793  12.691   4.215
61539W        W22850   3.287  27.070   3.223
61540W        W22851  17.587  38.829   1.865
61541W        W22852  29.578   6.739  12.421
61542W        W22853  28.469  17.578  12.966
61543W        W22854  30.433  35.935   2.282
61544W        W22855  14.761  14.731  12.466
61545W        W22856   5.297  40.495   2.182
61546W        W22857  37.392  15.293  11.469
61547W        W22858  22.660  32.507  11.037
61548W        W22859  32.573  39.437  14.450
61549W        W22860  40.840  15.219  14.836
61550W        W22861  23.139  29.135  11.423
61551W        W22862  22.530  25.010  10.536
61552W        W22863   3.792  37.037   2.885
61553W        W22864  18.068  41.385  14.785
61554W        W22865   1.447   0.749   3.643
61555W        W22866  37.484   8.389   2.802
61556W        W22867  37.377   4.722  13.825
61557W        W22868  41.325  29.138   3.323
61558W        W22869  12.275  28.454   3.643
61559W        W22870  42.818  41.966   5.108
61560W        W22871  10.818  25.546  13.322
61561W        W22872  27.656  37.506   3.320
61562W        W22873  32.142   9.798  10.061
61563W        W22874   5.371   8.686   4.161
61564W        W22875   2.403  13.314   3.870
61565W        W22876  22.081   4.410  10.907
61566W        W22877  40.335  32.396   4.159
61567W        W22878  21.545  34.521   2.786
61568W        W22879  24.507  32.395  13.420
61569W        W22880  42.868  14.277  14.901
61570W        W22881  23.213  34.574   4.348
61571W        W22882  22.593  16.176   3.222
61572W        W22883   4.257  38.456   0.353
61573W        W22884  38.548  33.887   1.227
61574W        W22885  40.458  21.692  12.526
61575W        W22886  10.293   4.858   5.320
61576W        W22887  18.710  39.493  12.522
61577W        W22888   9.716  22.722   0.451
61578W        W22889  37.348  30.488   3.294
61579W        W22890  40.496  10.729  14.770
61580W        W22891  10.159  11.281  14.408
61581W        W22892  24.155  44.761  14.840
61582W        W22893  26.509  30.059   2.285
61583W        W22894  23.664  18.070   2.701
61584W        W22895  38.873  18.160   4.334
61585W        W22896  26.071  21.696   2.240
61586W        W22897  24.141  11.713  12.823
61587W        W22898  14.690  22.227   2.398
61588W        W22899  14.758  15.143  13.414
61589W        W22900  16.643  42.312   0.958
61590W        W22901  26.650  17.262  14.937
61591W        W22902  38.943   0.387  13.869
61592W        W22903  44.848  20.225  14.450
61593W        W22904  33.505  16.716   3.214
61594W        W22905   0.839  20.571  11.859
61595W        W22906  39.403  28.061   4.267
61596W        W22907   1.470   5.252   2.276
61597W        W22908  37.365   7.722  14.010
61598W        W22909  14.612  15.187   0.744
61599W        W22910  44.957  33.429   3.365
61600W        W22911  24.641  14.659   1.289
61601W        W22912  10.230  12.811   4.241
61602W        W22913  33.492  37.064  14.017
61603W        W22914   8.721  19.216   2.268
61604W        W22915  22.670  44.341  10.925
61605W        W22916  44.336  42.425  13.487
61606W        W22917  20.716  40.969  10.995
61607W        W22918  24.081  15.684  12.353
61608W        W22919  24.601  15.590  11.398
61609W        W22920  34.999  12.824  11.017
61610W        W22921  11.174  31.124   0.387
61611W        W22922  27.587  18.154  10.905
61612W        W22923  14.220  18.677   5.307
61613W        W22924  19.157  12.626  11.525
61614W        W22925  24.484  28.580   3.155
61615W        W22926  21.255  38.522  13.405
61616W        W22927  29.979  42.978   0.268
61617W        W22928  29.951  13.708   4.739
61618W        W22929   4.338  31.587  12.357
61619W        W22930   7.180   1.770  13.850
61620W        W22931  39.881   2.818  14.513
61621W        W22932   0.357  21.574  14.433
61622W        W22933  26.669   9.386   0.913
61623W        W22934  11.867   1.267   0.461
61624W        W22935   9.734  35.473   2.356
61625W        W22936  34.073  39.030   4.602
61626W        W22937  28.463  35.378  12.013
61627W        W22938  40.036   0.415   4.622
61628W        W22939  25.580   5.744   3.731
61629W        W22940  33.501   9.357   2.688
61630W        W22941  22.705   8.277   1.258
61631W        W22942  43.284  15.785   2.216
61632W        W22943  32.539   6.857  12.571
61633W        W22944   9.778  26.512  13.810
61634W        W22945  10.214  30.922   0.264
61635W        W22946  10.197  22.101   0.460
61636W        W22947  42.919  17.142   4.616
61637W        W22948   9.817  42.004   4.721
61638W        W22949  24.574  29.449  12.078
61639W        W22950   2.786  10.156   0.461
61640W        W22951  41.869  41.334   3.758
61641W        W22952   1.924  20.221  12.901
61642W        W22953  27.091  33.877  13.397
61643W        W22954  16.721   0.433   4.160
61644W        W22955  36.444  36.921  13.836
61645W        W22956  18.158   4.368   2.302
61646W        W22957  41.820  14.769  12.516
61647W        W22958  42.017  14.153   1.777
61648W        W22959  39.973  15.217  13.536
61649W        W22960  37.444  35.405  14.765
61650W        W22961   7.260   5.796   4.786
61651W        W22962  31.054  30.510  10.940
61652W        W22963  12.744  26.511   0.826
61653W        W22964  37.923  34.929  12.506
61654W        W22965  35.439  11.323   2.180
61655W        W22966  30.997  14.328   1.775
61656W        W22967  42.859  33.089  12.035
61657W        W22968  15.660  23.133   3.306
61658W        W22969  10.152  38.005  13.022
61659W        W22970  44.790  31.086   0.462
61660W        W22971  41.457  35.895  10.472
61661W        W22972  24.224  42.876  11.942
61662W        W22973  31.508  17.717   3.298
61663W        W22974  16.297  26.054   2.840
61664W        W22975   2.790  43.305  10.600
61665W        W22976  33.558   5.819   4.782
61666W        W22977   1.415  24.104   1.835
61667W        W22978  27.520  16.726  10.444
61668W        W22979   3.311  21.550  12.481
61669W        W22980  39.994  32.421  11.117
61670W        W22981  24.220  36.950  13.342
61671W        W22982  18.787   9.384  12.861
61672W        W22983   0.758  28.050   2.378
61673W        W22984  29.025  20.068  12.441
61674W        W22985  28.161  27.948  13.920
61675W        W22986   4.853   7.188   3.738
61676W        W22987  18.737  40.884   3.240
61677W        W22988  23.165  19.153   1.345
61678W        W22989  38.049   9.251  10.515
61679W        W22990  43.357  36.039  13.443
61680W        W22991  43.427   4.901  14.871
61681W        W22992  19.085  23.583   4.760
61682W        W22993  33.427  36.017  10.585
61683W        W22994  44.782  31.458  11.577
61684W        W22995  11.647   9.384   4.671
61685W        W22996  41.943  32.142   0.246
61686W        W22997  42.914  43.945   3.382
61687W        W22998  17.572  10.705  11.405
61688W        W22999  21.184  30.611  13.950
61689W        W23000  25.138   5.293  13.361
61690W        W23001  33.592  43.880   4.352
61691W        W23002   5.718   7.222  11.603
61692W        W23003  38.863  17.222   4.114
61693W        W23004  13.626  25.497   1.856
61694W        W23005   6.397  37.866  12.859
61695W        W23006  35.047  37.967  13.829
61696W        W23007  19.230  34.877   1.399
61697W        W23008   5.269   9.367  13.424
61698W        W23009  26.540  12.685  14.928
61699W        W23010  26.085  33.011  11.879
61700W        W23011  40.434  19.683  11.120
61701W        W23012  15.146  31.580  13.908
61702W        W23013  27.097  16.145   4.604
61703W        W23014  37.417  33.881   3.255
61704W        W23015  41.898  44.802  13.949
61705W        W23016  12.623  43.919   4.273
61706W        W23017   6.330  41.299  12.927
61707W        W23018   3.744  29.993   3.677
61708W        W23019  14.614  41.027   1.758
61709W        W23020   8.839   8.866  12.522
61710W        W23021  36.855   8.854   1.450
61711W        W23022  35.575   5.279   1.437
61712W        W23023  21.211  15.227   2.812
61713W        W23024  16.123  24.551   3.765
61714W        W23025  27.983  14.231  11.072
61715W        W23026   0.314  32.497  11.062
61716W        W23027  34.491  30.000  10.026
61717W        W23028  18.143  38.885   1.307
61718W        W23029  42.510  18.148  11.497
61719W        W23030  17.153  41.829   2.358
61720W        W23031  41.360  36.409   1.721
61721W        W23032  29.024  15.133  12.393
61722W        W23033  13.602  24.205   0.895
61723W        W23034  36.487  29.443  11.386
61724W        W23035   3.839   4.885  10.427
61725W        W23036  34.995  18.277   3.765
61726W        W23037   2.379  34.479  14.960
61727W        W23038  39.349   8.200  11.950
61728W        W23039  37.032  41.845   4.155
61729W        W23040  13.173  14.213   9.954
61730W        W23041  31.483  26.086   3.199
61731W        W23042  12.293  37.460   0.297
61732W        W23043  20.575  36.575  12.922
61733W        W23044  31.642  28.679  12.561
61734W        W23045  10.834  22.658  10.513
61735W        W23046  32.117   9.842   0.733
61736W        W23047  43.304  31.017   3.854
61737W        W23048  21.081   6.354  11.567
61738W        W23049  14.675  40.531  14.795
61739W        W23050  26.035  13.127   1.451
61740W        W23051  26.674   1.293  12.434
61741W        W23052  35.413  37.015   5.309
61742W        W23053  26.010   9.304   3.765
61743W        W23054   0.468   3.764  11.957
61744W        W23055  24.599  31.127   0.300
61745W        W23056  35.530   2.370   4.265
61746W        W23057  37.994   0.883   2.823
61747W        W23058  22.209  23.699   4.767
61748W        W23059  23.111  37.860   0.875
61749W        W23060  20.125  42.282   1.351
61750W        W23061  15.636  35.909  10.478
61751W        W23062  24.617  26.530   3.303
61752W        W23063  20.601  26.958  11.526
61753W        W23064  40.515  18.263   4.668
61754W        W23065  33.600   4.859  14.505
61755W        W23066  18.137  35.941   0.466
61756W        W23067   5.279   1.841  12.524
61757W        W23068   2.251   3.900   1.265
61758W        W23069  22.605  30.939  13.318
61759W        W23070  40.458   4.218  12.365
61760W        W23071   6.255  21.592  11.590
61761W        W23072  15.295   8.867   0.923
61762W        W23073   3.454  36.959   2.390
61763W        W23074  24.154  22.160   5.234
61764W        W23075   8.765  22.238   4.603
61765W        W23076  18.715  38.332   3.796
61766W        W23077  35.495  16.656   3.871
61767W        W23078  37.343  16.215  12.928
61768W        W23079  18.209  41.956   1.439
61769W        W23080   6.421  20.126   5.120
61770W        W23081  19.278  40.371   3.209
61771W        W23082  22.686  30.120  11.896
61772W        W23083  15.311  23.543   0.885
61773W        W23084  22.664  36.081  13.309
61774W        W23085  20.767  22.006  11.960
61775W        W23086   2.894  22.213   1.414
61776W        W23087  33.577  23.732   2.213
61777W        W23088   1.483  42.431  11.999
61778W        W23089  23.575  32.586   1.336
61779W        W23090  16.637  35.544  12.003
61780W        W23091  31.958  36.500  10.462
61781W        W23092  25.211   1.755   3.337
61782W        W23093   6.740   7.865  10.908
61783W        W23094  29.085  42.948  12.838
61784W        W23095   3.926  38.903   4.788
61785W        W23096  40.845   7.867   1.277
61786W        W23097  18.546  28.164   1.300
61787W        W23098  17.780  23.240   4.313
61788W        W23099   7.839  37.913   2.419
61789W        W23100  24.016   3.453  10.420
61790W        W23101  41.514  14.807  13.038
61791W        W23102  21.138  32.128   2.664
61792W        W23103  31.946  34.882   1.865
61793W        W23104   1.874  26.601  13.418
61794W        W23105   8.660  28.091   0.308
61795W        W23106   5.877  28.600   0.795
61796W        W23107  25.977  21.524  11.490
61797W        W23108  22.708  37.832  14.860
61798W        W23109  16.713  16.316   3.194
61799W        W23110   1.352  44.763  13.505
61800W        W23111  30.154  26.995  14.885
61801W        W23112  19.595  30.914  10.987
61802W        W23113   5.372  12.621   4.251
61803W        W23114  14.781   5.372   4.292
61804W        W23115  31.059  38.560   0.249
61805W        W23116  10.827  21.017   0.469
61806W        W23117  18.076  30.439   4.802
61807W        W23118  17.095  35.886   4.714
61808W        W23119  19.224  41.904  12.542
61809W        W23120  29.921  10.243  11.584
61810W        W23121  25.602   0.303  14.939
61811W        W23122  25.126  44.458  10.965
61812W        W23123  13.195   5.430   1.702
61813W        W23124  38.384  28.981   3.810
61814W        W23125  20.246   5.809   4.701
61815W        W23126   9.662  17.623  11.969
61816W        W23127  14.675  23.997   1.274
61817W        W23128   0.358  19.648   4.347
61818W        W23129  44.377   5.226  14.865
61819W        W23130  39.819  34.050   4.723
61820W        W23131  10.800  15.298  11.871
61821W        W23132   7.410  13.800   0.427
61822W        W23133  36.389  11.743  14.500
61823W        W23134  41.326  26.092  14.294
61824W        W23135  32.962   4.757  14.513
61825W        W23136  29.475  12.312  12.882
61826W        W23137  32.978  40.014   1.861
61827W        W23138  18.065  41.346   2.345
61828W        W23139  33.600  26.185  14.428
61829W        W23140  19.733  37.388   4.177
61830W        W23141  22.076   2.907  13.975
61831W        W23142  38.487  40.353  12.450
61832W        W23143  44.364  13.742  14.017
61833W        W23144   6.214  27.668  10.955
61834W        W23145   1.269  22.215  13.496
61835W        W23146   1.840   5.305  10.441
61836W        W23147   4.933  10.800  14.941
61837W        W23148  29.979  11.294   2.699
61838W        W23149  44.429  27.448  10.513
61839W        W23150  19.202  36.864  12.072
61840W        W23151   0.771  44.856   0.811
61841W        W23152  26.703  42.810  12.080
61842W        W23153  35.053  14.178  11.496
61843W        W23154  25.554  27.116  14.759
61844W        W23155  28.626  38.043   0.753
61845W        W23156   0.326  27.043  12.507
61846W        W23157  25.073  33.478  14.798
61847W        W23158  11.796  31.524  12.470
61848W        W23159  25.173  39.845  12.002
61849W        W23160  34.420  24.995  12.463
61850W        W23161   4.777   4.824   4.642
61851W        W23162  18.610  24.671  13.504
61852W        W23163  10.262  17.664   2.765
61853W        W23164   4.766  34.111  14.381
61854W        W23165   7.364   8.279   3.743
61855W        W23166  35.581  15.159  14.902
61856W        W23167  23.032  16.273  12.437
61857W        W23168  17.221  21.741  10.905
61858W        W23169  15.776  27.014  11.478
61859W        W23170  27.952   7.222   2.827
61860W        W23171  44.963  12.683  11.954
61861W        W23172  10.142  23.015  11.451
61862W        W23173  22.695  18.786  13.503
61863W        W23174   5.337  43.986   4.621
61864W        W23175   2.247  40.432  10.408
61865W        W23176  22.543   0.897   1.751
61866W        W23177  41.974  42.849  10.526
61867W        W23178  41.430  38.431   3.315
61868W        W23179  35.395  11.370  13.868
61869W        W23180  28.011  12.747  11.070
61870W        W23181  24.023  27.038  14.816
61871W        W23182  38.855   8.233   4.155
61872W        W23183  14.263  10.716   4.647
61873W        W23184  10.267  18.174   4.720
61874W        W23185  10.164  44.434   0.825
61875W        W23186  10.217  34.028  14.961
61876W        W23187  29.605  10.299   4.256
61877W        W23188  31.571  12.243   0.835
61878W        W23189  26.665  27.575  11.566
61879W        W23190   9.284  35.561   2.715
61880W        W23191   1.408  26.128   4.284
61881W        W23192  37.547  13.244  13.461
61882W        W23193  17.587   5.792  13.870
61883W        W23194   9.192   0.434   3.175
61884W        W23195  24.535  26.614   1.752
61885W        W23196  24.174  19.154   1.870
61886W        W23197   9.150  32.010  11.973
61887W        W23198  16.663   4.422   2.356
61888W        W23199   4.729  30.015  12.537
61889W        W23200  40.926  13.116   2.896
61890W        W23201  30.581  19.666  10.897
61891W        W23202  12.779  31.028  13.346
61892W        W23203   5.336   0.943   2.901
61893W        W23204  21.694  31.901   3.634
61894W        W23205  33.015  36.541  14.793
61895W        W23206  38.031  21.710  14.879
61896W        W23207  30.516   3.776   3.182
61897W        W23208   9.340  28.021   2.201
61898W        W23209  41.989  42.500   1.426
61899W        W23210  19.734   7.670   4.326
61900W        W23211  10.753  19.063  11.605
61901W        W23212   6.304  44.871   3.346
61902W        W23213  43.309  19.700  12.993
61903W        W23214  32.591  22.225  13.516
61904W        W23215  44.307  38.383  13.998
61905W        W23216  16.260  15.804   1.376
61906W        W23217   0.438   0.948  13.878
61907W        W23218   0.371  28.000  12.992
61908W        W23219  18.584  22.679   4.829
61909W        W23220  43.997  21.530   3.689
61910W        W23221  26.517  34.558   9.937
61911W        W23222   8.344  35.002  11.418
61912W        W23223  18.583  29.157   2.662
61913W        W23224   3.899  32.083   2.366
61914W        W23225  39.855  43.889   0.253
61915W        W23226  44.461   7.253  14.861
61916W        W23227  30.925  14.202   1.447
61917W        W23228  24.659  19.663  12.580
61918W        W23229   6.207  21.702   1.250
61919W        W23230  12.237  17.571  10.462
61920W        W23231  33.959  16.664   4.783
61921W        W23232  20.073  24.167  14.445
61922W        W23233  24.985  15.593   2.806
61923W        W23234   3.437  33.070   3.193
61924W        W23235  14.693  37.052   3.242
61925W        W23236  23.136  40.858  11.097
61926W        W23237  27.954  28.574   4.268
61927W        W23238  44.357  33.613  13.945
61928W        W23239   6.300   0.773  14.386
61929W        W23240  21.112  43.384  14.761
61930W        W23241  37.368   1.360  12.496
61931W        W23242  11.757  19.039  10.460
61932W        W23243  15.311  42.021   2.846
61933W        W23244  40.543  14.678  12.342
61934W        W23245  11.755  39.029   3.819
61935W        W23246  41.865  12.824  13.539
61936W        W23247  18.250  44.451   2.888
61937W        W23248   8.735   5.280  12.918
61938W        W23249  36.028   1.815   4.644
61939W        W23250  12.794  21.534  13.498
61940W        W23251  30.519  37.087  13.802
61941W        W23252   0.970  31.051  12.823
61942W        W23253  40.961  30.993  13.514
61943W        W23254  31.125  23.493   2.356
61944W        W23255  34.943  41.908   0.732
61945W        W23256  13.207  32.057  11.984
61946W        W23257  14.802  26.129   3.219
61947W        W23258  28.040  12.320  11.094
61948W        W23259  44.368   3.725  14.857
61949W        W23260   6.285  34.505  11.044
61950W        W23261  20.128   6.698   1.210
61951W        W23262  36.439  32.465  10.480
61952W        W23263  22.077  30.942   1.918
61953W        W23264  44.390  26.622  13.901
61954W        W23265   3.255  13.697   1.328
61955W        W23266  32.557  10.647  13.362
61956W        W23267  19.118  42.447   1.216
61957W        W23268  15.110  36.907  14.435
61958W        W23269   1.268  38.987  12.080
61959W        W23270  29.103   8.739   3.308
61960W        W23271  14.707  44.968  13.809
61961W        W23272  33.622  22.007   1.694
61962W        W23273   0.916  44.005   4.177
61963W        W23274  28.010  17.226   4.143
61964W        W23275  35.426   5.236  13.439
61965W        W23276  40.853  30.610  13.408
61966W        W23277  24.046  39.538   2.279
61967W        W23278  15.163  41.933  10.580
61968W        W23279   2.839  15.584  13.315
61969W        W23280   1.445  19.778   0.276
61970W        W23281  22.239  41.430  12.372
61971W        W23282   7.771  33.028   3.709
61972W        W23283  25.631  31.419   0.384
61973W        W23284  33.085  18.672  12.073
61974W        W23285  20.714  44.353  14.760
61975W        W23286  40.534  24.622   1.289
61976W        W23287  14.108   3.833   0.948
61977W        W23288   6.761   9.253   4.750
61978W        W23289  17.684   6.805  13.384
61979W        W23290  13.768  15.319   0.832
61980W        W23291  24.496  27.466   0.272
61981W        W23292  17.776  23.208  14.772
61982W        W23293  38.376  36.473   2.395
61983W        W23294   0.268   4.726   2.373
61984W        W23295  29.163  24.599  10.594
61985W        W23296  42.334  41.390   1.845
61986W        W23297  30.917   6.891   0.885
61987W        W23298  28.568  13.318  14.980
61988W        W23299  18.233  29.111   2.403
61989W        W23300  15.742   3.743   0.778
61990W        W23301  25.705  26.658   0.273
61991W        W23302  32.449   0.273   0.301
61992W        W23303  40.417  40.966   4.657
61993W        W23304   2.283  37.484  13.948
61994W        W23305  24.568   6.701   1.440
61995W        W23306  27.637  41.978  10.450
61996W        W23307  20.140  36.891   0.311
61997W        W23308   5.848   9.245  11.865
61998W        W23309  17.207  24.563  12.418
61999W        W23310  30.911  34.108  13.888
62000W        W23311  32.561  44.292  13.062
62001W        W23312  38.448   7.714  11.604
62002W        W23313   2.947  27.482  10.895
62003W        W23314   1.294  28.645  14.970
62004W        W23315   2.420  33.451   1.913
62005W        W23316  27.115   2.243   2.716
62006W        W23317  22.141  16.637  14.974
62007W        W23318  13.282   3.421  14.479
62008W        W23319  10.170  20.718  14.824
62009W        W23320  43.847  15.659   1.848
62010W        W23321   0.413  34.511  13.512
62011W        W23322  14.689  32.931  14.832
62012W        W23323  42.895   6.708   1.274
62013W        W23324  18.073  25.190  11.411
62014W        W23325  44.465  42.894  10.951
62015W        W23326  11.327  42.901   0.248
62016W        W23327  31.526  27.552  10.935
62017W        W23328  23.591  13.727   2.877
62018W        W23329  16.170  33.904  12.961
62019W        W23330  33.031  12.813   0.478
62020W        W23331  22.693   1.398   0.831
62021W        W23332  12.150  28.438   0.326
62022W        W23333  11.204  11.283   0.457
62023W        W23334   4.731  25.978  13.929
62024W        W23335  32.456  26.619  11.420
62025W        W23336  21.226  38.539   0.286
62026W        W23337  42.992  34.389  10.533
62027W        W23338  10.362  19.626   1.799
62028W        W23339  27.481  13.793  12.525
62029W        W23340  24.985  37.403   2.403
62030W        W23341  35.896  14.778  13.975
62031W        W23342   1.434   8.798  12.924
62032W        W23343  17.250  30.992   4.711
62033W        W23344  20.050  20.171  10.430
62034W        W23345  31.084  21.511   0.775
62035W        W23346   6.899  33.104   0.451
62036W        W23347  13.231   5.339  14.908
62037W        W23348  21.521  42.888  11.409
62038W        W23349  19.596  25.096  11.011
62039W        W23350  21.595  33.422   3.843
62040W        W23351  21.110   6.818   4.272
62041W        W23352   6.856  17.094  13.831
62042W        W23353   8.239  28.992  11.980
62043W        W23354   5.790  16.311   1.823
62044W        W23355  31.025   0.772  12.443
62045W        W23356  31.643  14.600   0.943
62046W        W23357  27.023  20.030  14.969
62047W        W23358  41.946  20.123  11.123
62048W        W23359  27.614  15.326  14.510
62049W        W23360  15.685  44.396   4.221
62050W        W23361   0.298   8.857   3.267
62051W        W23362  28.985  20.190  11.613
62052W        W23363  27.521  10.366   2.217
62053W        W23364   7.862   7.290   4.718
62054W        W23365  30.643  24.071  14.988
62055W        W23366  10.170  33.008   4.648
62056W        W23367  39.466  43.985   0.344
62057W        W23368  22.197  22.217   2.220
62058W        W23369   0.271  23.565   3.862
62059W        W23370   4.745  27.605   0.354
62060W        W23371  26.108   8.250   3.255
62061W        W23372  11.799  24.973   5.098
62062W        W23373  23.155  41.939   2.894
62063W        W23374  18.098  29.140   4.623
62064W        W23375  21.175  23.620  11.584
62065W        W23376  17.562  23.644  14.306
62066W        W23377  20.662  26.988   3.707
62067W        W23378  10.801  10.210  13.857
62068W        W23379  26.486  41.307   1.914
62069W        W23380  35.561  15.149  10.472
62070W        W23381  30.090  40.928  14.381
62071W        W23382  10.284  27.137  10.426
62072W        W23383   3.422  27.520  10.891
62073W        W23384  17.071  38.882  11.973
62074W        W23385  26.074  22.635  11.398
62075W        W23386  19.157  30.558   1.210
62076W        W23387   3.235  19.572  12.938
62077W        W23388  27.016  17.173   4.168
62078W        W23389  38.010  35.896   0.353
62079W        W23390  15.689  20.597   1.339
62080W        W23391  17.257  40.971  14.979
62081W        W23392  27.447  44.284  10.979
62082W        W23393  44.357   2.799   1.216
62083W        W23394  17.801   2.392   4.216
62084W        W23395  38.034  32.068   2.896
62085W        W23396   1.847  35.989  10.456
62086W        W23397  42.810  30.136  10.935
62087W        W23398  17.556  43.433   0.942
62088W        W23399  13.797  42.351  11.960
62089W        W23400  21.753   2.836  11.441
62090W        W23401  25.491  33.483   2.273
62091W        W23402  41.999  40.982   2.186
62092W        W23403  13.180  30.911   3.869
62093W        W23404   4.776  27.619  10.935
62094W        W23405  11.214  29.654  12.575
62095W        W23406  18.755  37.509   3.656
62096W        W23407  16.588  29.498   2.721
62097W        W23408  23.509  28.136   2.774
62098W        W23409  21.099  29.138  11.938
62099W        W23410   8.364  35.988   0.465
62100W        W23411  22.236  27.487   3.369
62101W        W23412   0.938  21.671  11.941
62102W        W23413  26.612  38.378   0.727
62103W        W23414  28.518   2.468   0.944
62104W        W23415   3.835   4.790   4.834
62105W        W23416   5.318  33.956   0.950
62106W        W23417  37.467   0.920  14.814
62107W        W23418  34.377  13.157  13.974
62108W        W23419  42.332  21.037  13.318
62109W        W23420  41.417  23.093   0.342
62110W        W23421   6.384  44.899   0.842
62111W        W23422   9.238  10.138  13.919
62112W        W23423  18.649  25.550   0.412
62113W        W23424  38.461   7.878   0.830
62114W        W23425  28.448  27.068   0.246
62115W        W23426  22.645  42.939  10.427
62116W        W23427  10.218  43.992  14.918
62117W        W23428   5.829  33.079  13.845
62118W        W23429  12.268  10.722   2.734
62119W        W23430  20.534  37.083  13.884
62120W        W23431  37.581  39.992   0.451
62121W        W23432  41.292  22.613  12.870
62122W        W23433  30.163  35.854  12.830
62123W        W23434  36.886  28.972   2.705
62124W        W23435  21.252   6.836   0.462
62125W        W23436   7.398   5.413  11.397
62126W        W23437  19.705  26.040  13.491
62127W        W23438  40.521  42.006   1.415
62128W        W23439  24.164  36.022   2.865
62129W        W23440  40.930  43.328  12.930
62130W        W23441  42.498  42.489   3.669
62131W        W23442  31.953  22.097   2.715
62132W        W23443  43.944  42.361  12.417
62133W        W23444  17.255   3.872   1.766
62134W        W23445   1.836  25.142   3.847
62135W        W23446  25.009   5.321  12.440
62136W        W23447  21.205  23.493  10.913
62137W        W23448  22.643   5.197   0.808
62138W        W23449   0.751  42.449  11.418
62139W        W23450  31.098  22.741   5.163
62140W        W23451  10.325  24.671  14.304
62141W        W23452  40.819  36.413   0.380
62142W        W23453  22.177   0.954   0.331
62143W        W23454  25.512   7.873   4.228
62144W        W23455  36.381  13.711   1.260
62145W        W23456  15.584  15.630  11.857
62146W        W23457  32.541  14.681  11.007
62147W        W23458  16.585  38.516   4.753
62148W        W23459   5.436  27.483  14.487
62149W        W23460  17.151  10.277  12.875
62150W        W23461   2.782  29.593   3.167
62151W        W23462  21.582   8.214  10.522
62152W        W23463  26.991  24.637   3.862
62153W        W23464  15.124   3.737   3.308
62154W        W23465   3.391  39.504   1.363
62155W        W23466  11.674  28.565   0.457
62156W        W23467  11.206  12.794  11.384
62157W        W23468   0.842  13.604  12.475
62158W        W23469  33.584  32.924   1.383
62159W        W23470  22.697   4.708   1.885
62160W        W23471   7.319  19.704   3.163
62161W        W23472  29.433   3.229   1.336
62162W        W23473  24.105  43.814   3.154
62163W        W23474   4.771  38.440   2.324
62164W        W23475  27.054  18.659  14.501
62165W        W23476  11.867  18.773  11.985
62166W        W23477  27.036  16.666  11.023
62167W        W23478  17.063  23.603  10.532
62168W        W23479  23.218   0.798   0.251
62169W        W23480  42.926   9.747   3.695
62170W        W23481  33.939   6.684   0.945
62171W        W23482  17.164  22.703  14.930
62172W        W23483   5.280  37.427   0.296
62173W        W23484  17.075  21.115   3.372
62174W        W23485  17.275  30.069  13.324
62175W        W23486   1.930  16.748  12.361
62176W        W23487  13.127   5.404   0.244
62177W        W23488  41.870  19.585   5.159
62178W        W23489  30.485  42.866  11.541
62179W        W23490  18.581   4.254   2.233
62180W        W23491  44.451   0.329   3.312
62181W        W23492  29.146  41.368  11.468
62182W        W23493  40.943  41.803   4.343
62183W        W23494  43.369  34.501  10.976
62184W        W23495   4.885  36.961   1.784
62185W        W23496  30.006  32.002  11.484
62186W        W23497  10.812  22.032  14.381
62187W        W23498  26.479   4.912  13.323
62188W        W23499  32.949  19.659   2.884
62189W        W23500  42.388   9.846   1.417
62190W        W23501   6.772   8.229   2.861
62191W        W23502   3.333   1.343  10.951
62192W        W23503  21.645  20.685  11.477
62193W        W23504  29.599  28.530  12.075
62194W        W23505  21.646  24.673  11.389
62195W        W23506  41.408  37.934   3.737
62196W        W23507  28.570  18.291  12.477
62197W        W23508   4.331  17.780   4.629
62198W        W23509  25.983   8.223  14.483
62199W        W23510   6.773  10.161  10.023
62200W        W23511  14.298  14.186   1.903
62201W        W23512  29.607  21.728  12.541
62202W        W23513  23.210  12.775  12.950
62203W        W23514  20.597  32.419   4.304
62204W        W23515  34.971  20.737   2.257
62205W        W23516   9.200  29.431   0.264
62206W        W23517  17.696  28.938  13.855
62207W        W23518  30.569  13.117   2.227
62208W        W23519  21.540  14.684   0.847
62209W        W23520   6.327  41.827   4.617
62210W        W23521   0.959  23.698   4.329
62211W        W23522  11.129   4.724   1.805
62212W        W23523  28.163  44.762  11.909
62213W        W23524  44.992  39.498   4.598
62214W        W23525   3.878  28.509   0.895
62215W        W23526  25.597  39.882   3.200
62216W        W23527   8.789  16.624   2.353
62217W        W23528  26.683  14.251   9.982
62218W        W23529  25.963  36.930   3.290
62219W        W23530  44.268  35.926  13.502
62220W        W23531  30.050  19.202  14.307
62221W        W23532  22.690  11.833   0.803
62222W        W23533  13.164   4.706  11.009
62223W        W23534  37.837  15.152  14.422
62224W        W23535  31.574  18.584   0.293
62225W        W23536   2.314   5.810  13.322
62226W        W23537  28.122   9.850  13.425
62227W        W23538  24.518  32.529   4.269
62228W        W23539  40.379  21.593  14.982
62229W        W23540  10.287  31.942  13.515
62230W        W23541  43.513  37.904   2.725
62231W        W23542   5.432  36.095  14.901
62232W        W23543   8.216  42.943   4.656
62233W        W23544   0.985  40.408   0.467
62234W        W23545  11.791  18.781  14.012
62235W        W23546  40.449  22.199  11.590
62236W        W23547  21.235   1.480   3.637
62237W        W23548  37.870   9.199   0.925
62238W        W23549   2.950   4.792  14.012
62239W        W23550  18.078  27.577   0.469
62240W        W23551  41.469   6.417  13.534
62241W        W23552  34.872   0.479  14.449
62242W        W23553   0.300  20.033   4.833
62243W        W23554  44.892   5.438   4.181
62244W        W23555  29.928  33.093  11.508
62245W        W23556   3.892  20.766   1.442
62246W        W23557  30.595   5.804  14.307
62247W        W23558  42.000  26.524  11.974
62248W        W23559  31.139  23.997  11.037
62249W        W23560  43.340   3.892  12.468
62250W        W23561  39.445  40.397   3.815
62251W        W23562  14.799  41.016   3.197
62252W        W23563  44.458   2.303  13.884
62253W        W23564  37.446   2.250  12.009
62254W        W23565  31.425  31.974  14.438
62255W        W23566   5.329   1.328  13.929
62256W        W23567  44.920  35.537  10.920
62257W        W23568  28.086  34.434  11.056
62258W        W23569  26.641   4.285  12.927
62259W        W23570  29.563  38.483   4.311
62260W        W23571  36.908  12.322  14.302
62261W        W23572  41.000   0.763  12.061
62262W        W23573  36.019  10.142  14.902
62263W        W23574  18.200  13.668  14.885
62264W        W23575  22.192  22.542   2.203
62265W        W23576   1.855  22.584  12.837
62266W        W23577   7.799  36.943   3.240
62267W        W23578  36.029  38.950  12.075
62268W        W23579   6.897  14.811  10.505
62269W        W23580  21.211  21.199   1.366
62270W        W23581  20.630  43.492   1.337
62271W        W23582   1.236  43.933   4.813
62272W        W23583   4.910   5.394  13.925
62273W        W23584  43.318   1.796  12.363
62274W        W23585  20.768  17.166  10.545
62275W        W23586   6.206   8.820   0.748
62276W        W23587   0.348   7.253   4.296
62277W        W23588  18.734   1.470  12.571
62278W        W23589   0.317  25.571   0.963
62279W        W23590  14.118  39.437  14.785
62280W        W23591  21.152   7.759   0.932
62281W        W23592   0.964  13.176  14.798
62282W        W23593  19.191   7.896   0.401
62283W        W23594  16.775  22.740  14.791
62284W        W23595  39.537  21.164   3.341
62285W        W23596  44.344  33.548   2.194
62286W        W23597  25.136   7.758   3.208
62287W        W23598   0.291  21.243   4.814
62288W        W23599   9.383  32.927   2.211
62289W        W23600  35.536  35.862   1.873
62290W        W23601  22.704   6.857   2.292
62291W        W23602   4.789  14.337   3.635
62292W        W23603  11.256  28.550   4.725
62293W        W23604  10.684  20.552  12.055
62294W        W23605  34.445  14.276  12.573
62295W        W23606  10.731  19.095   3.749
62296W        W23607  24.157  35.034   3.370
62297W        W23608  39.550   3.863   1.694
62298W        W23609   0.790  33.560   4.620
62299W        W23610   8.316  23.538  13.000
62300W        W23611  32.997  30.448   4.263
62301W        W23612   9.776   2.860  12.411
62302W        W23613  15.238  19.229   1.712
62303W        W23614   9.847  36.900   3.669
62304W        W23615  40.798  28.611  13.028
62305W        W23616  18.732   2.870  12.976
62306W        W23617  41.926  28.981   4.140
62307W        W23618  41.907  29.096  14.463
62308W        W23619  25.634  26.699  10.913
62309W        W23620   8.850   7.255   4.131
62310W        W23621  20.148  12.286  13.468
62311W        W23622   5.733  21.738  13.859
62312W        W23623  29.584  43.377  12.438
62313W        W23624  30.103  12.687  11.089
62314W        W23625  12.689   8.735   0.829
62315W        W23626  41.818   9.227  12.082
62316W        W23627  28.612  15.148   1.428
62317W        W23628  37.355  28.004  11.414
62318W        W23629   3.841   2.951   3.661
62319W        W23630  29.430  16.798   2.723
62320W        W23631  30.950  21.676  12.065
62321W        W23632  39.875  27.071  11.416
62322W        W23633  37.361  39.388  14.989
62323W        W23634  29.044  34.498   4.319
62324W        W23635  24.188  30.954   2.308
62325W        W23636  12.767   6.740   3.855
62326W        W23637  28.526   7.188  11.116
62327W        W23638  22.066   5.924  11.025
62328W        W23639  35.362  14.717  12.964
62329W        W23640  37.407   1.477   1.935
62330W        W23641  37.057  12.669  14.329
62331W        W23642  30.422   9.254  14.923
62332W        W23643  22.114  32.481  11.051
62333W        W23644  30.157  29.088  12.499
62334W        W23645  43.361  37.021   0.886
62335W        W23646  44.762   6.877  13.519
62336W        W23647  18.762   1.910  11.475
62337W        W23648  29.429  40.408   0.896
62338W        W23649   3.787   5.390   4.815
62339W        W23650  38.911   2.867   3.206
62340W        W23651  36.980  30.946   3.805
62341W        W23652  31.459  41.332   1.360
62342W        W23653  20.203   3.876   1.781
62343W        W23654  28.534  42.000   4.661
62344W        W23655   2.722  39.901   4.238
62345W        W23656  33.496   8.706  13.867
62346W        W23657  15.818  40.418   0.797
62347W        W23658  11.671  36.375   4.643
62348W        W23659  19.537   7.186   4.232
62349W        W23660  13.617  14.300   3.794
62350W        W23661  21.217  44.001  11.450
62351W        W23662  27.575  16.810   0.901
62352W        W23663  21.195  33.485  14.429
62353W        W23664  39.958  37.475  13.362
62354W        W23665  20.230  19.651   0.327
62355W        W23666   8.305  40.847  11.385
62356W        W23667  26.679  23.196  11.036
62357W        W23668  36.424  32.947   0.440
62358W        W23669  17.293  27.513  13.845
62359W        W23670  33.914  10.664   3.724
62360W        W23671   6.263  32.999  10.493
62361W        W23672  35.029  18.661   0.374
62362W        W23673  24.651  31.451  14.942
62363W        W23674   1.460  30.029  12.031
62364W        W23675   8.194  11.340  10.474
62365W        W23676  15.091   1.383  10.426
62366W        W23677  11.199  35.052   3.256
62367W        W23678   4.867  23.241   3.340
62368W        W23679  32.040   8.884   0.896
62369W        W23680  38.970  22.082   2.767
62370W        W23681  14.620   9.813  14.002
62371W        W23682  11.143  29.156  11.857
62372W        W23683  22.670  31.044   2.894
62373W        W23684  41.424  43.365   4.660
62374W        W23685  19.208   4.767  13.388
62375W        W23686   8.389  43.492   0.452
62376W        W23687  15.741  24.994   1.812
62377W        W23688  24.646  17.579   3.849
62378W        W23689  43.934  15.095  11.394
62379W        W23690  38.998   3.785  14.515
62380W        W23691   7.697  24.585  14.861
62381W        W23692  31.948  27.515   3.832
62382W        W23693   8.699   5.776  14.913
62383W        W23694  17.279  35.024  10.500
62384W        W23695  37.840  31.085   0.344
62385W        W23696  15.295  13.783  12.387
62386W        W23697  41.888  28.177  10.566
62387W        W23698  44.378  13.271   0.453
62388W        W23699  33.408  32.938   2.262
62389W        W23700   5.255   7.870  14.404
62390W        W23701  17.087  17.575  13.855
62391W        W23702  26.996  12.733  11.124
62392W        W23703  11.264   3.230  14.941
62393W        W23704  40.957  35.592  12.360
62394W        W23705  20.673  40.812   3.827
62395W        W23706  18.630  17.179   5.606
62396W        W23707  41.040  34.087   3.161
62397W        W23708  35.448  38.452  13.928
62398W        W23709  10.639  30.502  13.870
62399W        W23710  33.618  31.456   3.758
62400W        W23711  33.522   0.848   2.293
62401W        W23712   2.357  12.855   4.768
62402W        W23713   6.697  21.224   1.298
62403W        W23714  27.582  44.872  11.068
62404W        W23715   4.916  36.545   0.420
62405W        W23716  41.000   0.311  10.979
62406W        W23717  40.521  25.069   2.677
62407W        W23718  20.540   0.436   0.898
62408W        W23719  40.352   6.880   2.235
62409W        W23720  25.212  42.856  13.963
62410W        W23721  37.383  35.948  11.543
62411W        W23722  21.235  15.258   0.302
62412W        W23723  10.788  38.821  11.007
62413W        W23724  35.954  38.075   0.443
62414W        W23725   9.809  44.438   2.816
62415W        W23726   8.248  18.139   4.188
62416W        W23727  38.529   9.173  11.870
62417W        W23728  30.512  18.696  12.534
62418W        W23729  33.529  26.671   4.153
62419W        W23730  35.503  16.639   1.724
62420W        W23731  15.647  21.563  13.332
62421W        W23732  14.340  17.668   4.742
62422W        W23733  26.164  44.893   4.340
62423W        W23734  20.181   6.187   0.357
62424W        W23735   7.724  40.531  12.837
62425W        W23736  33.452  32.126   5.135
62426W        W23737  39.039  44.261   0.898
62427W        W23738  38.443  15.245   0.734
62428W        W23739  17.090  33.051  12.061
62429W        W23740  22.699   0.952   2.825
62430W        W23741  28.132  38.328   0.362
62431W        W23742  38.895  16.770  13.432
62432W        W23743  20.209  34.920   2.782
62433W        W23744   7.313  16.246  13.796
62434W        W23745  35.925   5.285  12.396
62435W        W23746  23.541  14.225  13.494
62436W        W23747  16.256  22.110   2.394
62437W        W23748  29.058   8.727   2.831
62438W        W23749  13.194  11.721   5.287
62439W        W23750  21.182  24.093   2.333
62440W        W23751  32.498   4.412  14.282
62441W        W23752  40.480   7.908   1.241
62442W        W23753  23.625  42.481   1.893
62443W        W23754  39.823  33.544  13.408
62444W        W23755  42.025  30.607   1.389
62445W        W23756   5.810   3.422   0.924
62446W        W23757  13.180  33.459   0.899
62447W        W23758  35.014   1.478   0.266
62448W        W23759  38.879  33.384  14.304
62449W        W23760  25.993  17.146   0.835
62450W        W23761  32.616   7.231   1.809
62451W        W23762   3.241   1.427  14.805
62452W        W23763  30.066   6.898  12.463
62453W        W23764  17.074  43.778   0.315
62454W        W23765  36.058  36.946   3.705
62455W        W23766  18.624   6.368  14.436
62456W        W23767  28.999  29.591  10.590
62457W        W23768  41.871  41.832  13.334
62458W        W23769  17.297  17.751  10.637
62459W        W23770  31.950   1.767  13.489
62460W        W23771  28.556   8.848  11.613
62461W        W23772   2.813  23.680  14.485
62462W        W23773  13.123  27.961   4.265
62463W        W23774  43.383   8.285  13.504
62464W        W23775   0.256  31.431  10.574
62465W        W23776  13.758  37.391  10.619
62466W        W23777   0.940  29.127  11.067
62467W        W23778  40.036  22.048   0.865
62468W        W23779   6.695  42.008  12.842
62469W        W23780  40.856   2.383   2.771
62470W        W23781  39.446  44.896   2.702
62471W        W23782  31.522  22.601  13.452
62472W        W23783  11.782  23.585  14.927
62473W        W23784   8.756  41.412  13.318
62474W        W23785   4.838  12.691  10.906
62475W        W23786  36.403   1.925   2.860
62476W        W23787  10.242   2.289   5.099
62477W        W23788  36.437  22.068  13.874
62478W        W23789  40.871   4.442   2.365
62479W        W23790  16.295   1.469   4.715
62480W        W23791   2.764  34.045  11.374
62481W        W23792  18.143  17.138   3.239
62482W        W23793  39.913  15.088   3.865
62483W        W23794  40.897  36.034   2.335
62484W        W23795  35.987  38.953   3.855
62485W        W23796  40.540  25.069  14.346
62486W        W23797  12.276  39.450   4.711
62487W        W23798  42.918  41.395  12.523
62488W        W23799   0.300  19.209   2.662
62489W        W23800   2.945  14.112  13.460
62490W        W23801  28.076   8.809  14.349
62491W        W23802  24.207   2.823   2.881
62492W        W23803  34.524  35.084   4.772
62493W        W23804   8.655  27.137   0.773
62494W        W23805  41.320  41.296  14.378
62495W        W23806  37.958  19.760  10.554
62496W        W23807  20.034   4.299   4.649
62497W        W23808  31.044   9.241  13.004
62498W        W23809  42.952   7.413  12.389
62499W        W23810  40.854  39.858  12.021
62500W        W23811  38.870   3.377   3.262
62501W        W23812  44.371  32.886   0.878
62502W        W23813  15.200   8.662  14.908
62503W        W23814  21.133  26.972   0.469
62504W        W23815  41.008  43.908   4.305
62505W        W23816  26.167  41.969  11.963
62506W        W23817  14.096  38.376  12.952
62507W        W23818  14.831  13.683   3.751
62508W        W23819  11.164  37.835   1.793
62509W        W23820   5.766  19.203  11.539
62510W        W23821  41.916  25.073  12.536
62511W        W23822  38.833  17.578   4.142
62512W        W23823  14.152  21.536  15.000
62513W        W23824  19.641  15.228   5.101
62514W        W23825  30.933  32.548   2.714
62515W        W23826  29.548  10.835   4.730
62516W        W23827  21.111  37.442   1.441
62517W        W23828  30.618  16.311  10.591
62518W        W23829  25.104  34.930   0.936
62519W        W23830  20.088  10.253  13.967
62520W        W23831  17.612  35.894   0.282
62521W        W23832  18.161  12.174  14.933
62522W        W23833  27.577  20.246   4.740
62523W        W23834  31.994  18.230  13.007
62524W        W23835  30.589  33.461   3.690
62525W        W23836  16.174  30.939   1.895
62526W        W23837  12.274   7.865   0.366
62527W        W23838   9.822   8.665   1.747
62528W        W23839  36.981  36.942   0.755
62529W        W23840  28.598  24.682  13.995
62530W        W23841  38.428  30.143  12.356
62531W        W23842   8.736   8.295  12.380
62532W        W23843  29.101  37.467   1.330
62533W        W23844  16.228   6.410   4.303
62534W        W23845  30.136   6.341  11.090
62535W        W23846  17.667  33.516   3.764
62536W        W23847   3.428  33.602  14.915
62537W        W23848  26.552  41.932  12.024
62538W        W23849  27.166  32.113   4.270
62539W        W23850  28.614  20.693   4.606
62540W        W23851  40.498  29.467  13.467
62541W        W23852  39.914  17.268   2.804
62542W        W23853  37.340   2.911   2.893
62543W        W23854   2.353   6.819   0.313
62544W        W23855   2.346   2.267   3.369
62545W        W23856  27.083  16.101  14.494
62546W        W23857  29.074   7.347   4.219
62547W        W23858   7.697  12.734  13.836
62548W        W23859  14.812  17.282  13.861
62549W        W23860  10.353  23.618   2.701
62550W        W23861  17.779  23.572   3.844
62551W        W23862  31.968   2.855  12.943
62552W        W23863  43.394  35.051  11.539
62553W        W23864  41.871  18.072  11.994
62554W        W23865  37.415  32.402  11.379
62555W        W23866  35.043  31.604   2.728
62556W        W23867  21.575  37.493  14.509
62557W        W23868  39.842   5.794  12.452
62558W        W23869  41.801   0.477  12.851
62559W        W23870   0.974  34.923  12.843
62560W        W23871   9.838   6.875   1.268
62561W        W23872  37.857  14.762   4.599
62562W        W23873  10.771  44.326  13.403
62563W        W23874  44.267  30.532  12.036
62564W        W23875   2.345  42.980   5.290
62565W        W23876  32.982  13.837   3.263
62566W        W23877  29.611   9.659   2.271
62567W        W23878  22.613   8.697  10.578
62568W        W23879   9.790  23.230   2.200
62569W        W23880   3.765  29.646   3.757
62570W        W23881   4.359  34.509   2.406
62571W        W23882   6.184  31.032   3.834
62572W        W23883  11.373  44.264   0.371
62573W        W23884  33.592  11.369  10.947
62574W        W23885   8.836  34.008   0.891
62575W        W23886   6.781  31.609   2.396
62576W        W23887  34.428   0.941   2.372
62577W        W23888   3.730  22.647   0.891
62578W        W23889  27.998  39.907  12.419
62579W        W23890  36.373  23.505   4.196
62580W        W23891  43.943   2.929   2.348
62581W        W23892  40.961  19.113   3.182
62582W        W23893  22.627  43.995   3.646
62583W        W23894  23.703  21.682   1.866
62584W        W23895  38.856  35.882   1.239
62585W        W23896   1.914  41.999   2.221
62586W        W23897   3.714  39.330   2.762
62587W        W23898   4.355  18.759   2.817
62588W        W23899  20.590  15.803   5.083
62589W        W23900  36.023   1.757   2.275
62590W        W23901  29.174  37.508   0.942
62591W        W23902  32.560  37.939   3.702
62592W        W23903  34.415  14.682  11.437
62593W        W23904  29.143  43.843   1.330
62594W        W23905   1.252  40.348   1.435
62595W        W23906  20.545  15.155  12.940
62596W        W23907  32.474  29.133   0.807
62597W        W23908  44.841  29.156   4.181
62598W        W23909  14.321  30.652  12.385
62599W        W23910  35.530  20.125   1.773
62600W        W23911  31.112  14.159  12.925
62601W        W23912  25.010  33.506  12.929
62602W        W23913  17.644  21.050   3.205
62603W        W23914  11.173  32.068   1.243
62604W        W23915  14.780  19.145   1.717
62605W        W23916   6.193  24.158   3.171
62606W        W23917   3.436  24.175   3.689
62607W        W23918  14.601   9.887  14.978
62608W        W23919  39.382  14.790  13.931
62609W        W23920   5.272  42.894  12.998
62610W        W23921  12.691  31.552   3.796
62611W        W23922   1.438  25.690   2.700
62612W        W23923  21.641  17.791   2.239
62613W        W23924  10.156  36.904   1.874
62614W        W23925  17.223  27.178  13.008
62615W        W23926  20.662  41.883  14.503
62616W        W23927  42.464  25.659  11.470
62617W        W23928  23.716   8.282   0.449
62618W        W23929  12.833  41.866   2.322
62619W        W23930  33.089  19.591  13.830
62620W        W23931  39.548   0.376   4.794
62621W        W23932  19.121  25.591  13.464
62622W        W23933  38.472   0.477   3.641
62623W        W23934  35.919  22.650   4.248
62624W        W23935  39.375  30.148  13.859
62625W        W23936  39.062  23.235  14.963
62626W        W23937  42.905  11.854  12.440
62627W        W23938  35.562  44.488  11.429
62628W        W23939  26.663  32.127  13.388
62629W        W23940   3.923  33.043   4.300
62630W        W23941   9.843  27.168  13.914
62631W        W23942  39.903   7.271   1.396
62632W        W23943  28.148  43.472   3.681
62633W        W23944  28.138  43.476   1.862
62634W        W23945  19.160  34.093  10.482
62635W        W23946  21.556   2.430   3.205
62636W        W23947  38.333  22.019   4.705
62637W        W23948  36.092  29.512   4.601
62638W        W23949  13.695  16.589  10.416
62639W        W23950  44.409  30.470   1.807
62640W        W23951  12.233  37.579   1.366
62641W        W23952  34.608  31.467  12.341
62642W        W23953  31.905  28.179   3.860
62643W        W23954  20.035   3.767   4.836
62644W        W23955  40.487   8.286  12.841
62645W        W23956  34.448  13.784   0.929
62646W        W23957  31.032   7.862  13.366
62647W        W23958   6.285  17.141   3.363
62648W        W23959   9.284  36.469  10.995
62649W        W23960  25.084  33.557   1.284
62650W        W23961  38.836  12.155  11.982
62651W        W23962  42.326  14.671  10.998
62652W        W23963  21.212  19.218  10.033
62653W        W23964  12.177   3.725   5.098
62654W        W23965   9.675  15.261   2.185
62655W        W23966  29.132  29.534  14.380
62656W        W23967  33.436  39.513   4.248
62657W        W23968   4.774  40.867  14.919
62658W        W23969  27.449   5.259   0.828
62659W        W23970  43.306  39.419   3.650
62660W        W23971  37.973  18.737   4.738
62661W        W23972   4.391  26.549  11.026
62662W        W23973  10.299  18.245  14.939
62663W        W23974  18.646  25.991  10.953
62664W        W23975  33.114  23.143  13.851
62665W        W23976   3.278  14.317   4.288
62666W        W23977   6.855   7.367  12.849
62667W        W23978  41.480  30.008   0.742
62668W        W23979  39.371  43.345   3.651
62669W        W23980  42.950  36.583  13.978
62670W        W23981  20.273   5.265  13.480
62671W        W23982  28.643   4.372  12.930
62672W        W23983  33.043  23.719  13.533
62673W        W23984  33.557   3.726  13.400
62674W        W23985  23.019   0.797   0.880
62675W        W23986  28.607  40.325   1.904
62676W        W23987   0.848  31.478  11.467
62677W        W23988  30.416  14.210  10.628
62678W        W23989  32.016  11.824   3.786
62679W        W23990  44.792  42.500   3.763
62680W        W23991   7.323  44.883   0.321
62681W        W23992   9.788  23.708  13.451
62682W        W23993  12.815  40.910   3.336
62683W        W23994  14.130  21.552   5.211
62684W        W23995   8.773  13.809   1.873
62685W        W23996  20.174  37.562   0.407
62686W        W23997  19.625   9.661   3.220
62687W        W23998  16.155  13.176   1.846
62688W        W23999  20.130  40.439   3.259
62689W        W24000  40.323   2.816  14.001
62690W        W24001  33.624  19.135   2.413
62691W        W24002  36.588  43.998   0.420
62692W        W24003  39.879  30.604  11.100
62693W        W24004  23.129  12.826   1.721
62694W        W24005  20.700  34.115   2.751
62695W        W24006  15.599  10.345  14.955
62696W        W24007   2.910  42.926  13.863
62697W        W24008   4.887   1.919  11.927
62698W        W24009  39.477  19.065   4.710
62699W        W24010   2.271  40.439   0.286
62700W        W24011   4.233  30.450  14.426
62701W        W24012  41.464   6.278  11.069
62702W        W24013   7.734   9.832   4.247
62703W        W24014   4.886  34.888   4.350
62704W        W24015  38.480   0.442   2.333
62705W        W24016  42.472  21.178  13.847
62706W        W24017  43.467  40.324  13.312
62707W        W24018   3.401   3.842   2.240
62708W        W24019  36.506  35.003   5.209
62709W        W24020   4.205   3.713   3.761
62710W        W24021  27.042  15.101  13.977
62711W        W24022  28.114   0.814  12.918
62712W        W24023  35.954  20.200  13.880
62713W        W24024  10.774  43.282   2.888
62714W        W24025  43.883  43.944   4.623
62715W        W24026  17.758  41.806  12.383
62716W        W24027   5.391   4.932  11.450
62717W        W24028  34.010   8.861  10.541
62718W        W24029  16.286  21.684  14.338
62719W        W24030  15.602  11.155   0.462
62720W        W24031  18.623  43.009   1.802
62721W        W24032   8.384  28.539  13.309
62722W        W24033  36.859  30.029  13.951
62723W        W24034  19.778  35.073   1.864
62724W        W24035  29.430  27.048   1.451
62725W        W24036  24.119   6.833  10.533
62726W        W24037   8.771  36.077  14.864
62727W        W24038  22.120  23.998  10.998
62728W        W24039  35.928  33.118   1.836
62729W        W24040   7.775   5.251   3.859
62730W        W24041  37.402   7.339  11.438
62731W        W24042  43.356  43.428   2.884
62732W        W24043  26.192  37.358  11.875
62733W        W24044  42.306   7.906   2.811
62734W        W24045  43.328  33.572  12.398
62735W        W24046  40.509  19.070  12.984
62736W        W24047  10.322  33.432   2.295
62737W        W24048   3.749   2.964  11.087
62738W        W24049   5.430  19.108  12.429
62739W        W24050  42.335  37.947  10.581
62740W        W24051  27.469  25.042   0.399
62741W        W24052   9.240  40.495   3.664
62742W        W24053  36.433  34.427   5.287
62743W        W24054  20.246  12.218   3.701
62744W        W24055  15.707  30.607  12.835
62745W        W24056   6.383   7.668  12.361
62746W        W24057  21.637   8.291   1.314
62747W        W24058  27.110  41.841   2.245
62748W        W24059  14.596  37.017  14.358
62749W        W24060   9.307  32.051   1.934
62750W        W24061  38.487  11.685   0.321
62751W        W24062  43.948  26.979   0.383
62752W        W24063  37.024  19.180  14.445
62753W        W24064  28.022  13.170   0.888
62754W        W24065   3.758  40.523  13.819
62755W        W24066   8.827  11.621   4.724
62756W        W24067  34.926  19.737   9.993
62757W        W24068  24.170  41.925   0.362
62758W        W24069   0.374   6.822  12.837
62759W        W24070   9.679  43.777  10.996
62760W        W24071  27.538  35.866  13.445
62761W        W24072  15.800   2.321   4.656
62762W        W24073  32.925   9.387  12.056
62763W        W24074  37.428  41.306   0.885
62764W        W24075  17.636  36.490  12.524
62765W        W24076  19.099  12.311  13.806
62766W        W24077  37.501  13.203  12.009
62767W        W24078  20.101  14.667   4.818
62768W        W24079  21.713  24.002   3.259
62769W        W24080   9.794   4.432   3.735
62770W        W24081   1.866   4.712  14.996
62771W        W24082  33.120   7.680   2.381
62772W        W24083  26.530   3.229   0.285
62773W        W24084  30.574  23.693  14.864
62774W        W24085  30.127  29.954  11.969
62775W        W24086   4.763  41.399   5.111
62776W        W24087   1.366  18.652  12.353
62777W        W24088  12.285  32.016  13.379
62778W        W24089  36.925   4.409  11.420
62779W        W24090   9.287  11.696  10.445
62780W        W24091  13.192   1.828  12.921
62781W        W24092  17.228   0.772   4.176
62782W        W24093  28.937  22.548  11.512
62783W        W24094  15.600   5.339  11.966
62784W        W24095  36.868   5.360  11.569
62785W        W24096  38.432   3.872  11.025
62786W        W24097  30.958  38.569  10.639
62787W        W24098  11.657   2.903   2.842
62788W        W24099  19.768  21.219   5.233
62789W        W24100  18.648   8.368   3.317
62790W        W24101  36.355  27.027  11.088
62791W        W24102  40.434  12.145   3.359
62792W        W24103  12.318  41.943   3.219
62793W        W24104  20.720  27.039   0.340
62794W        W24105   8.354  10.675   1.358
62795W        W24106  29.660  37.914  10.457
62796W        W24107  43.837  39.927   0.731
62797W        W24108  28.971  43.478   0.828
62798W        W24109  16.743  40.804  10.544
62799W        W24110  39.355  19.555  11.933
62800W        W24111  40.969  38.496   0.276
62801W        W24112  43.285  44.905  14.031
62802W        W24113  23.499  16.626  10.545
62803W        W24114  24.725   1.780  10.970
62804W        W24115   1.930  36.916  11.480
62805W        W24116  28.150  20.052   0.800
62806W        W24117   0.742   5.312   4.226
62807W        W24118  28.102   3.274   0.278
62808W        W24119  10.221  19.168   1.872
62809W        W24120  32.889  25.070  11.117
62810W        W24121   9.879  19.147   0.396
62811W        W24122  32.073   7.364   0.813
62812W        W24123  15.694  22.662   0.923
62813W        W24124  23.019  17.237  10.118
62814W        W24125  22.235  13.163   3.372
62815W        W24126  44.293  42.287   4.320
62816W        W24127   4.443   6.723  13.332
62817W        W24128  23.621  44.381  13.473
62818W        W24129  34.044   7.705  11.418
62819W        W24130  42.358  17.185  14.455
62820W        W24131  12.274  17.162  14.854
62821W        W24132   8.899  42.495   1.925
62822W        W24133   9.335  31.142  14.908
62823W        W24134   1.374   4.873  11.560
62824W        W24135  33.906   0.390   4.736
62825W        W24136  31.117  20.546   0.911
62826W        W24137  37.935  32.622  14.296
62827W        W24138  25.630   9.779  11.384
62828W        W24139  36.579   2.416  10.581
62829W        W24140  15.132  32.898  12.886
62830W        W24141  43.456   4.282  13.545
62831W        W24142   9.653  23.228   0.412
62832W        W24143  12.717  16.653  13.514
62833W        W24144  38.957   1.283  11.380
62834W        W24145   7.806  38.936  10.039
62835W        W24146  21.699  29.670  12.415
62836W        W24147  10.859   7.377  11.978
62837W        W24148  30.028  44.505   0.935
62838W        W24149   4.410   9.821   0.833
62839W        W24150   6.903  16.178   3.867
62840W        W24151  38.868  36.488   1.753
62841W        W24152  32.451  18.170  12.354
62842W        W24153  16.078  32.034  10.918
62843W        W24154  44.904  14.108  14.013
62844W        W24155   3.867  31.602   4.635
62845W        W24156  19.648   9.383  14.296
62846W        W24157  21.559  21.062  12.524
62847W        W24158  44.440  33.624  13.445
62848W        W24159   4.368  23.143  14.486
62849W        W24160  42.323  35.359   0.390
62850W        W24161  14.783  29.543   2.319
62851W        W24162  21.024  22.225   0.387
62852W        W24163  27.505  17.781  11.085
62853W        W24164  39.477   8.743   2.729
62854W        W24165   9.672   0.335  10.961
62855W        W24166  38.510  31.455  14.986
62856W        W24167   2.301  28.157  13.331
62857W        W24168   5.741  16.110   1.369
62858W        W24169  15.707  43.309   5.307
62859W        W24170  17.775  22.028  11.372
62860W        W24171  35.560  34.090   4.694
62861W        W24172  30.927  30.020   2.885
62862W        W24173  34.496  11.218  11.075
62863W        W24174  38.063  11.310   0.379
62864W        W24175  13.691  36.365  11.912
62865W        W24176  39.006  28.545   2.821
62866W        W24177  25.698   2.276   4.291
62867W        W24178  23.021  42.415  12.988
62868W        W24179  13.745  19.628  14.317
62869W        W24180  17.190  16.712  10.505
62870W        W24181   9.211  19.765   5.300
62871W        W24182   5.867  12.722  14.020
62872W        W24183  37.012   2.446  12.512
62873W        W24184  11.631  43.338  12.889
62874W        W24185  20.589   1.460  11.876
62875W        W24186  23.693  40.011  12.523
62876W        W24187   1.349  13.166  12.054
62877W        W24188   3.276  35.946   4.626
62878W        W24189  44.795  23.696  14.991
62879W        W24190   0.954  28.619  13.491
62880W        W24191  43.826   6.697  13.323
62881W        W24192   5.858  39.474   1.440
62882W        W24193  28.623  18.166   4.665
62883W        W24194  30.542   5.799  12.489
62884W        W24195  39.361  18.056  14.365
62885W        W24196  15.093   7.261   2.248
62886W        W24197  12.638  18.263   0.870
62887W        W24198  35.425  43.861  10.627
62888W        W24199  20.167  28.670   3.337
62889W        W24200   4.243  34.425  10.918
62890W        W24201  40.877  11.371   4.202
62891W        W24202   7.785  14.211   5.140
62892W        W24203  24.599  19.171   0.758
62893W        W24204  15.133  36.065   4.308
62894W        W24205  36.989  33.020   1.874
62895W        W24206   6.209  35.428   2.798
62896W        W24207   1.796  37.408   2.226
62897W        W24208  11.808  44.348  12.852
62898W        W24209  16.210  10.170   1.715
62899W        W24210  25.973  41.001   4.114
62900W        W24211  31.447  35.513  13.794
62901W        W24212  31.099   4.401   3.863
62902W        W24213   2.406  40.832  11.450
62903W        W24214  28.508  37.915   4.207
62904W        W24215  42.452   1.452  14.482
62905W        W24216  10.381   6.194  13.429
62906W        W24217  24.569  44.467   2.323
62907W        W24218  34.026   8.188  10.527
62908W        W24219   8.301   0.448   1.260
62909W        W24220  35.862  23.490  11.103
62910W        W24221  37.571   7.754   1.364
62911W        W24222  19.121   8.390   2.726
62912W        W24223  28.557   1.930   3.362
62913W        W24224  22.068   7.758  13.029
62914W        W24225  12.215  29.983  12.467
62915W        W24226  10.159  15.142  12.424
62916W        W24227  17.216  39.866  14.469
62917W        W24228   1.930  21.201   0.406
62918W        W24229  32.128  24.987   4.826
62919W        W24230  31.515  30.507  10.515
62920W        W24231  14.242  35.888  10.606
62921W        W24232  37.028  33.616   2.361
62922W        W24233  20.661  20.055   0.359
62923W        W24234  27.597  31.427   1.770
62924W        W24235  33.091   5.372   4.225
62925W        W24236  10.142   0.854  11.031
62926W        W24237  18.053  38.908  11.941
62927W        W24238  20.214  26.074  13.816
62928W        W24239   3.342  10.282  11.936
62929W        W24240  41.881  39.893   4.135
62930W        W24241  43.974  43.890   1.303
62931W        W24242   9.223  10.634   3.301
62932W        W24243  34.456  39.369   3.246
62933W        W24244  17.779  14.260   3.790
62934W        W24245   5.738   0.373   1.810
62935W        W24246  37.856  29.137  14.021
62936W        W24247  38.494  43.923   4.155
62937W        W24248   6.695  14.296   3.378
62938W        W24249  22.590  42.300   2.391
62939W        W24250  42.940  15.809   0.964
62940W        W24251  36.434  18.177  12.487
62941W        W24252   4.846  41.502  14.969
62942W        W24253   1.883  21.549  13.350
62943W        W24254  23.064  34.918  11.887
62944W        W24255  41.361  37.440  14.888
62945W        W24256  39.057  11.825   2.761
62946W        W24257  21.201   4.341   2.866
62947W        W24258  16.723   7.888  11.396
62948W        W24259  12.228   9.277   3.841
62949W        W24260  16.259  11.751   3.820
62950W        W24261   8.187  44.275  10.568
62951W        W24262  13.822  10.226   4.279
62952W        W24263   4.326  37.885  14.927
62953W        W24264  35.855  24.628   1.717
62954W        W24265   2.813  23.077   3.249
62955W        W24266  42.451  10.754  11.429
62956W        W24267   4.347   2.729   0.792
62957W        W24268   8.276   0.799   3.673
62958W        W24269  37.372   1.914  12.432
62959W        W24270  13.332  29.966  11.554
62960W        W24271   6.319  40.392  13.525
62961W        W24272  30.586   5.872  12.838
62962W        W24273  33.440  18.652  10.998
62963W        W24274  20.744   4.437  10.965
62964W        W24275  44.371  16.208   4.189
62965W        W24276   3.400  33.882   4.147
62966W        W24277  35.028  10.199   1.843
62967W        W24278  33.390  32.460   0.846
62968W        W24279   8.689  27.601   2.198
62969W        W24280  19.609  20.588  12.490
62970W        W24281  13.766   6.759   4.810
62971W        W24282  44.270   0.377  14.800
62972W        W24283  43.306   6.821   1.732
62973W        W24284  37.475  36.992  13.945
62974W        W24285   3.341  18.711   3.868
62975W        W24286  30.037  14.203  14.996
62976W        W24287   4.827   9.684   0.734
62977W        W24288  33.982   5.426  10.973
62978W        W24289  27.494  20.079  13.971
62979W        W24290  37.078  23.984  12.452
62980W        W24291  43.924  18.545  14.916
62981W        W24292  41.881   4.381   3.198
62982W        W24293  21.035  12.177   3.206
62983W        W24294  16.795  36.373  11.597
62984W        W24295  17.178  12.244   3.285
62985W        W24296  11.286  38.552   4.602
62986W        W24297   3.328  42.418   1.704
62987W        W24298  33.624  23.522  10.541
62988W        W24299  22.104  24.682  12.837
62989W        W24300   3.450   2.850  11.479
62990W        W24301  37.835  38.904  11.519
62991W        W24302  31.141  34.479   4.198
62992W        W24303  24.681  26.197  10.575
62993W        W24304  36.962  17.089   0.427
62994W        W24305  15.150  19.103   1.326
62995W        W24306  26.580  13.722   0.761
62996W        W24307  18.181  18.557  14.441
62997W        W24308  10.665   1.244   4.708
62998W        W24309  27.056  31.418   4.771
62999W        W24310  11.261  36.444   4.297
63000W        W24311   5.217  39.847   4.200
63001W        W24312   7.873  40.894  12.943
63002W        W24313  36.430   1.462  14.461
63003W        W24314   2.283  16.220  14.835
63004W        W24315  35.601   1.756   0.365
63005W        W24316  30.636  13.714   2.377
63006W        W24317  34.391   5.848   1.878
63007W        W24318   5.835  23.648  14.996
63008W        W24319  18.156  30.447   2.272
63009W        W24320  31.483  29.127   1.340
63010W        W24321   8.707   4.749  11.858
63011W        W24322   0.761   7.268  12.031
63012W        W24323  12.626   3.338  14.773
63013W        W24324   0.986  42.934   1.292
63014W        W24325  37.955  26.696  11.952
63015W        W24326   4.311  32.422  11.508
63016W        W24327  38.476  39.363  14.864
63017W        W24328  11.169  29.946  12.449
63018W        W24329  21.549  32.031   1.437
63019W        W24330  16.080   1.930   1.408
63020W        W24331  28.463  44.311  12.030
63021W        W24332  31.981   0.896  13.967
63022W        W24333   9.837  24.695   0.306
63023W        W24334  20.236  39.362   3.167
63024W        W24335   0.297  35.471   4.687
63025W        W24336   0.974  25.511   3.826
63026W        W24337  33.000  18.165  14.859
63027W        W24338  31.941   5.926  11.447
63028W        W24339  28.092  16.142  12.052
63029W        W24340  41.867  37.872  12.983
63030W        W24341   9.292  16.274   2.689
63031W        W24342   5.342  17.650   4.169
63032W        W24343  38.972   5.791  11.406
63033W        W24344  35.545  18.790  12.509
63034W        W24345  20.078  33.398   2.383
63035W        W24346   4.448  27.524   1.286
63036W        W24347  31.470   8.822  13.527
63037W        W24348  14.701  26.690  12.571
63038W        W24349  43.436   3.436  14.389
63039W        W24350  14.691  13.186  12.091
63040W        W24351  40.844   9.888  13.487
63041W        W24352   4.238  13.326  11.946
63042W        W24353  16.734  33.101   4.352
63043W        W24354  34.388  36.094   2.180
63044W        W24355  41.875  15.288   1.387
63045W        W24356  40.004  18.193   0.776
63046W        W24357  43.880  16.669  13.015
63047W        W24358  39.397  38.490   0.378
63048W        W24359   7.332  10.776   3.643
63049W        W24360  42.467  35.107  10.570
63050W        W24361  20.205  27.473  12.355
63051W        W24362  14.102  17.270  12.019
63052W        W24363  36.533   3.906   0.442
63053W        W24364   6.798  27.992  12.083
63054W        W24365  31.515  19.096  11.499
63055W        W24366  29.612  18.721  11.558
63056W        W24367  13.606  34.614   1.914
63057W        W24368  29.937   9.195  10.894
63058W        W24369  19.543   3.435  14.993
63059W        W24370  20.558  31.991   3.349
63060W        W24371  12.638  13.754   1.700
63061W        W24372  26.093  27.640  14.031
63062W        W24373  21.687  31.123  13.405
63063W        W24374  44.484   2.762  11.414
63064W        W24375   1.770  35.387  12.980
63065W        W24376  20.601  24.227   1.361
63066W        W24377  30.480  34.409   0.290
63067W        W24378  13.813  35.908   1.283
63068W        W24379  42.925  15.111  12.899
63069W        W24380  36.444   9.336   0.966
63070W        W24381  37.436  18.169   3.664
63071W        W24382  21.613   6.797   0.834
63072W        W24383  27.142  36.017   2.278
63073W        W24384  23.559  27.086  10.926
63074W        W24385  21.564  25.620  14.300
63075W        W24386  44.841  36.965   2.735
63076W        W24387  15.744  38.558  12.360
63077W        W24388   7.263  19.590   2.248
63078W        W24389  39.877  42.447  13.841
63079W        W24390  32.992  32.456  12.894
63080W        W24391  11.178   6.295   3.833
63081W        W24392  19.727  28.142   0.749
63082W        W24393   4.833  33.929   2.179
63083W        W24394  28.639   5.870  11.518
63084W        W24395  35.587   3.223   2.183
63085W        W24396  13.184   4.424  13.308
63086W        W24397   5.359  30.132   1.928
63087W        W24398  25.124  15.583  14.811
63088W        W24399  27.104   5.277  10.553
63089W        W24400  31.937  31.971  12.409
63090W        W24401   6.862  30.517  10.469
63091W        W24402  27.683  27.484   4.682
63092W        W24403  44.793  23.674   2.879
63093W        W24404  17.277   0.851   3.350
63094W        W24405   8.302  41.372  13.042
63095W        W24406   3.367  17.084  13.915
63096W        W24407   8.305  44.413  12.898
63097W        W24408  34.103  29.060  13.991
63098W        W24409  18.090  29.978  11.000
63099W        W24410  29.112  31.453  11.376
63100W        W24411  16.643   7.831   0.287
63101W        W24412  15.181  28.617   2.888
63102W        W24413  12.226  24.098   0.475
63103W        W24414   4.816  19.683  13.402
63104W        W24415  19.651  23.010   4.789
63105W        W24416  29.167  21.129  11.468
63106W        W24417  39.996  25.501   2.711
63107W        W24418  13.678  34.516   3.177
63108W        W24419  17.224  38.422   0.956
63109W        W24420  24.700  31.420   2.725
63110W        W24421  16.303  33.466   3.187
63111W        W24422  28.128  41.030   2.838
63112W        W24423  28.939   6.753   4.784
63113W        W24424  42.842  10.748  14.858
63114W        W24425   0.855   1.380  14.481
63115W        W24426  10.677  11.809  13.802
63116W        W24427  20.660  38.924   2.711
63117W        W24428   2.951   1.239  11.979
63118W        W24429  13.329  39.455  14.301
63119W        W24430  31.898  22.524   4.344
63120W        W24431  11.277  34.606  13.818
63121W        W24432  18.213   1.316   3.655
63122W        W24433   7.886  43.810  13.314
63123W        W24434  17.065  11.338  14.489
63124W        W24435  30.164  21.033   4.299
63125W        W24436  41.792   3.406   4.140
63126W        W24437   4.264  22.120  12.912
63127W        W24438  24.111  17.622  11.417
63128W        W24439   1.325  10.317   2.283
63129W        W24440   6.361  11.348  13.806
63130W        W24441  34.069  18.788  13.024
63131W        W24442  38.865   5.799  10.507
63132W        W24443  38.547  24.690  14.329
63133W        W24444  30.424  10.850   0.784
63134W        W24445  32.949  21.572   2.677
63135W        W24446   9.858   4.390   1.224
63136W        W24447  43.430  34.601   0.778
63137W        W24448  15.687   6.838  14.769
63138W        W24449   9.334  21.138   3.796
63139W        W24450  41.297  40.821   0.897
63140W        W24451  27.568  24.630  14.772
63141W        W24452   9.771   1.930  13.494
63142W        W24453  42.798  44.807  14.450
63143W        W24454  14.819  26.150  11.039
63144W        W24455   2.936  41.400  14.816
63145W        W24456  34.040  30.036   4.307
63146W        W24457  24.679  25.977  14.334
63147W        W24458  39.449  24.224   1.891
63148W        W24459  34.076  15.667  11.902
63149W        W24460  11.792   7.172  13.309
63150W        W24461  14.604  38.482   1.385
63151W        W24462  43.358  42.896   3.653
63152W        W24463  33.890  10.222  14.862
63153W        W24464  26.071  40.486   0.750
63154W        W24465  22.672  21.531   3.871
63155W        W24466  31.536  10.155  12.981
63156W        W24467  38.071  24.075   0.897
63157W        W24468  38.496  23.699   4.286
63158W        W24469  31.494  37.998   0.732
63159W        W24470  34.570   6.421   1.710
63160W        W24471  17.103  11.316  14.008
63161W        W24472  43.861   8.808   2.323
63162W        W24473  35.996   0.389   0.794
63163W        W24474   7.783   0.283  11.425
63164W        W24475  20.653   5.770   0.959
63165W        W24476  43.493  23.096  11.597
63166W        W24477  14.173  29.547   3.203
63167W        W24478  29.571  30.960  13.980
63168W        W24479  44.991  11.631  10.135
63169W        W24480  38.990  12.619  12.522
63170W        W24481   5.211   9.288  12.391
63171W        W24482  39.316   1.324  13.358
63172W        W24483  39.882  14.154  11.571
63173W        W24484  10.828   3.449   4.636
63174W        W24485  32.903  21.757   4.164
63175W        W24486  35.537  37.062   1.885
63176W        W24487  28.602  27.549   1.774
63177W        W24488  18.072   1.896  12.382
63178W        W24489   7.192   0.291   2.355
63179W        W24490  44.426   3.271  13.423
63180W        W24491   7.679  41.847  13.363
63181W        W24492  11.354  22.553  10.556
63182W        W24493  37.982  19.611  13.376
63183W        W24494  38.408   0.284  11.575
63184W        W24495  27.165  27.985   3.169
63185W        W24496  10.198  12.116  10.579
63186W        W24497  40.936  42.916  10.483
63187W        W24498   1.852   3.428  10.571
63188W        W24499   9.386  38.076   4.288
63189W        W24500  19.206  27.178   4.817
63190W        W24501  23.069  38.881   0.465
63191W        W24502  37.970  41.491  13.883
63192W        W24503   1.481   0.430  13.310
63193W        W24504  22.099  19.550   9.952
63194W        W24505  36.387   4.424   3.784
63195W        W24506  13.288  44.956  11.105
63196W        W24507  37.423  44.476  10.970
63197W        W24508  37.885  31.997  12.527
63198W        W24509  12.688  30.648  12.912
63199W        W24510   5.745  24.707   0.810
63200W        W24511   2.841  37.837   2.821
63201W        W24512  42.853   0.951   5.313
63202W        W24513  13.830   4.710  14.442
63203W        W24514  42.466  10.857  12.553
63204W        W24515  42.498  19.058   1.334
63205W        W24516  39.836   0.805   3.315
63206W        W24517   3.318  30.590  10.562
63207W        W24518  43.397  11.662  11.384
63208W        W24519  41.895   9.216   0.796
63209W        W24520   4.800   3.929  14.984
63210W        W24521  12.612   3.232  12.848
63211W        W24522  41.381  29.628  11.949
63212W        W24523  13.196  40.802  12.481
63213W        W24524  12.203  44.381   9.964
63214W        W24525  44.493   8.747  11.064
63215W        W24526  11.661  33.098  12.495
63216W        W24527  44.460  24.116  13.910
63217W        W24528  13.616  35.357  12.418
63218W        W24529  25.075  15.687   4.229
63219W        W24530  44.770  24.617  11.000
63220W        W24531  20.147   1.253  10.574
63221W        W24532  34.962  41.874  10.933
63222W        W24533  41.793   6.701  14.824
63223W        W24534  28.042  28.044   3.369
63224W        W24535  30.483  26.628   3.638
63225W        W24536   7.278   2.795   1.859
63226W        W24537  31.587  35.395  14.912
63227W        W24538   5.264  26.157  12.030
63228W        W24539  37.515  44.458   0.802
63229W        W24540  17.255  25.649   2.845
63230W        W24541   6.752  15.805  11.870
63231W        W24542   9.207  39.362  11.915
63232W        W24543   2.357  32.958  12.854
63233W        W24544  27.574  32.977  12.055
63234W        W24545  34.884  43.791   3.186
63235W        W24546  39.338  19.670  11.423
63236W        W24547  34.576  23.647  14.854
63237W        W24548   4.914   0.468   1.343
63238W        W24549  28.052  42.988  13.993
63239W        W24550   0.839  44.834   2.222
63240W        W24551  38.839  22.588  11.453
63241W        W24552  25.669  42.966  14.507
63242W        W24553  14.670   2.300   3.837
63243W        W24554  43.506  11.865   1.740
63244W        W24555  10.821   4.394   3.711
63245W        W24556  41.861   8.844  12.884
63246W        W24557   6.891   2.758  11.579
63247W        W24558   5.243  32.601  14.334
63248W        W24559  10.144   9.711  13.445
63249W        W24560  24.481  36.552   0.303
63250W        W24561  26.980   7.322   0.433
63251W        W24562  28.001  14.801  13.828
63252W        W24563  32.636  42.796   0.358
63253W        W24564  34.403  36.974   3.777
63254W        W24565  39.523  24.499   2.687
63255W        W24566   2.777   2.284  10.608
63256W        W24567   7.262  38.016  12.474
63257W        W24568  16.096   4.796   1.302
63258W        W24569  11.178  16.181  11.984
63259W        W24570  28.459  21.683  13.042
63260W        W24571  21.625  44.946  12.519
63261W        W24572   6.289  16.706  12.062
63262W        W24573  16.073  37.406  13.471
63263W        W24574  28.077  33.493  12.981
63264W        W24575  27.155   6.696  11.057
63265W        W24576  11.683  39.525   3.798
63266W        W24577  10.232  24.215   2.187
63267W        W24578  23.101  12.355  10.621
63268W        W24579  40.988  36.844  13.351
63269W        W24580  27.983  15.735   9.974
63270W        W24581   1.397  14.809  12.431
63271W        W24582  18.157  29.140   3.191
63272W        W24583   5.221   9.875  14.826
63273W        W24584  43.312  27.162   1.752
63274W        W24585  25.552  36.360   1.746
63275W        W24586  15.291  42.863  12.496
63276W        W24587   4.340  32.585   3.274
63277W        W24588  38.534  19.707  13.037
63278W        W24589  43.279  39.823   0.815
63279W        W24590  18.706   0.798   4.730
63280W        W24591  30.931  32.081   3.868
63281W        W24592  22.233  25.697  10.638
63282W        W24593   1.394  11.193   0.401
63283W        W24594  19.106  27.591   1.727
63284W        W24595  33.464  17.748  10.477
63285W        W24596  14.633  21.618  10.582
63286W        W24597  43.786  35.383  11.108
63287W        W24598  33.105   8.663  13.458
63288W        W24599  16.186  37.371  14.957
63289W        W24600  29.939   6.378   1.807
63290W        W24601  20.623   0.927  11.912
63291W        W24602  20.219  13.321  10.631
63292W        W24603  31.010  21.051   4.731
63293W        W24604   3.235   8.812  14.447
63294W        W24605   6.856  13.117  10.502
63295W        W24606  31.450  20.250   4.272
63296W        W24607   1.764  28.450  11.516
63297W        W24608  39.372   5.834  13.899
63298W        W24609  36.410  29.073  11.550
63299W        W24610  31.117  38.520   2.394
63300W        W24611  13.606  19.046  11.090
63301W        W24612  22.551  31.579   1.914
63302W        W24613  35.420  19.606  11.864
63303W        W24614  25.099  28.658   1.249
63304W        W24615  36.452  15.698  12.859
63305W        W24616  15.118  34.490  11.023
63306W        W24617  20.620  23.208  12.418
63307W        W24618  20.677  34.563   2.725
63308W        W24619   5.228   6.775   1.412
63309W        W24620  31.012  44.791  14.828
63310W        W24621   9.153  33.942   2.736
63311W        W24622  37.870  11.180   3.793
63312W        W24623  22.536  41.915  12.578
63313W        W24624  44.761  21.064  14.844
63314W        W24625  33.531   4.922  14.914
63315W        W24626   5.334  22.091  11.479
63316W        W24627  42.838  16.748   1.246
63317W        W24628  13.624   6.911   2.773
63318W        W24629   1.838  15.118   1.821
63319W        W24630   1.432  41.494   2.178
63320W        W24631   7.831   5.932   3.159
63321W        W24632  22.538  12.214  11.437
63322W        W24633  38.373  10.282   3.828
63323W        W24634  36.076  13.235   1.878
63324W        W24635   7.697  40.867   2.300
63325W        W24636  39.880  39.334   1.820
63326W        W24637  24.717  15.648   0.379
63327W        W24638  20.765   1.475  11.549
63328W        W24639   7.277  33.509  11.569
63329W        W24640  41.311  44.972  11.459
63330W        W24641  21.053  10.831   2.301
63331W        W24642  35.528  40.001  14.766
63332W        W24643  26.675  12.678  13.423
63333W        W24644  29.645  21.106  13.959
63334W        W24645  33.962  27.957   4.659
63335W        W24646  24.021   3.742  11.022
63336W        W24647  42.791  13.311  14.434
63337W        W24648  36.097  40.926  11.977
63338W        W24649  29.009  30.927  14.408
63339W        W24650   0.754   8.783  13.949
63340W        W24651   7.693  24.060   4.184
63341W        W24652  19.679  14.676   0.326
63342W        W24653  36.444  15.791  13.433
63343W        W24654   3.782  22.202   4.758
63344W        W24655   2.847  19.089   4.288
63345W        W24656  34.886  31.021   1.367
63346W        W24657  42.977  11.152   3.377
63347W        W24658  40.399  22.049  13.835
63348W        W24659  14.680  28.477  11.517
63349W        W24660  32.533  35.363  12.045
63350W        W24661  17.797  21.207  10.492
63351W        W24662  22.727  36.533   3.324
63352W        W24663  33.565   6.832   3.313
63353W        W24664  42.446   7.673  13.946
63354W        W24665   3.833  11.313   4.122
63355W        W24666  15.594   6.270   3.358
63356W        W24667   2.369   8.751  12.972
63357W        W24668   0.758   7.360   2.399
63358W        W24669  24.121   0.355   0.914
63359W        W24670  18.646  17.618  12.371
63360W        W24671  24.025   7.203   0.466
63361W        W24672  21.519  34.995   0.946
63362W        W24673   9.173   7.873  11.918
63363W        W24674  37.031  12.852   3.641
63364W        W24675   6.837  29.435  11.877
63365W        W24676   1.418  41.365  13.936
63366W        W24677  11.770  27.658  13.996
63367W        W24678   8.788  21.140  14.003
63368W        W24679  11.309   5.196   0.728
63369W        W24680  23.697  33.130   4.767
63370W        W24681  14.330  26.197  14.382
63371W        W24682  22.557   4.332  11.004
63372W        W24683  25.702  16.147   3.770
63373W        W24684   0.344  12.839  12.554
63374W        W24685   1.357  38.401  14.405
63375W        W24686  12.724  13.643  11.438
63376W        W24687  22.070   0.460   0.306
63377W        W24688   6.399  41.933   2.822
63378W        W24689  38.389   0.886   0.852
63379W        W24690  23.166  26.528   4.783
63380W        W24691  16.309  40.339  11.073
63381W        W24692  29.973  41.998  14.443
63382W        W24693  25.161   0.314   3.335
63383W        W24694  21.238  15.177  14.951
63384W        W24695  10.750  24.508   3.371
63385W        W24696   4.869   6.761   4.167
63386W        W24697  17.659  31.508   4.813
63387W        W24698  38.037  20.603   1.259
63388W        W24699   0.433  19.576   4.671
63389W        W24700  22.695  26.107  11.978
63390W        W24701  43.468  14.673   3.694
63391W        W24702  22.219  16.729   3.282
63392W        W24703  23.585  25.204  13.351
63393W        W24704  41.897  24.152  12.953
63394W        W24705  32.613  24.654   0.927
63395W        W24706  15.725  19.170  14.480
63396W        W24707  29.437  40.909   0.382
63397W        W24708  33.975  29.976  10.923
63398W        W24709  38.980  33.037   4.331
63399W        W24710  30.515  29.547   3.172
63400W        W24711  44.407   0.422   2.411
63401W        W24712  18.283  15.657   0.846
63402W        W24713  33.507  29.513  12.460
63403W        W24714   6.417   2.872  11.592
63404W        W24715   5.389  30.058  12.350
63405W        W24716  25.981  34.915   1.264
63406W        W24717   9.319  28.573   2.893
63407W        W24718   1.866   1.758   3.691
63408W        W24719   0.939  29.579  11.967
63409W        W24720  14.260   1.876   9.501
63410W        W24721  35.570  35.538  10.588
63411W        W24722  25.079   2.227   3.211
63412W        W24723   6.345  19.070  13.464
63413W        W24724  44.951  12.807   4.209
63414W        W24725   6.401  20.626   1.931
63415W        W24726   2.349  39.459   1.832
63416W        W24727  44.992  20.592  11.112
63417W        W24728  39.522   2.410  12.400
63418W        W24729  44.359  28.504   4.817
63419W        W24730  17.670  37.946  14.939
63420W        W24731  21.251  44.805  12.011
63421W        W24732  41.472  17.566  12.928
63422W        W24733  37.874   1.423  12.469
63423W        W24734  33.015  12.672   2.265
63424W        W24735  42.286   9.871  14.404
63425W        W24736   7.205  25.024  13.827
63426W        W24737  26.510  39.358   4.775
63427W        W24738  14.232  10.878  12.002
63428W        W24739  14.287  22.616   1.720
63429W        W24740  16.572  30.052  13.014
63430W        W24741   8.230  30.644   2.304
63431W        W24742  31.146   7.349  13.845
63432W        W24743   9.372   6.259   1.820
63433W        W24744  27.085  35.364   0.310
63434W        W24745  25.552  16.159  12.443
63435W        W24746  18.714  28.487  11.471
63436W        W24747  24.701  35.050   1.383
63437W        W24748  41.445  32.553  12.016
63438W        W24749  12.779  16.780  13.842
63439W        W24750  11.171  14.601   2.705
63440W        W24751   1.356  22.629  12.019
63441W        W24752   4.265  22.234   4.689
63442W        W24753  14.668  16.146   4.322
63443W        W24754  17.793  16.117   0.938
63444W        W24755  43.299  37.448  10.966
63445W        W24756  29.924  40.448  11.556
63446W        W24757   6.810  44.473  14.366
63447W        W24758  34.038  44.818   0.470
63448W        W24759  15.237  11.728   3.371
63449W        W24760  27.546  33.558  14.027
63450W        W24761   9.377   7.292   2.700
63451W        W24762  13.249  22.612  13.548
63452W        W24763   4.769  39.427   0.427
63453W        W24764   3.898  24.170   1.934
63454W        W24765  15.164   9.650  11.598
63455W        W24766  39.897  37.874  10.953
63456W        W24767  27.540   3.868   3.271
63457W        W24768  27.990  42.467   0.325
63458W        W24769  10.164  30.999   2.209
63459W        W24770  29.942   5.427   3.779
63460W        W24771   4.237  37.581   0.473
63461W        W24772   7.266  20.274   5.320
63462W        W24773  40.529   5.723  10.480
63463W        W24774  36.073  35.516   2.356
63464W        W24775  41.409  14.819  13.512
63465W        W24776  15.133  29.940  12.948
63466W        W24777   1.304  32.477  10.441
63467W        W24778  36.886  32.072  14.510
63468W        W24779  42.837  31.604  12.503
63469W        W24780  11.825  14.797   0.280
63470W        W24781  33.045  17.266  12.930
63471W        W24782  27.621  17.099   4.801
63472W        W24783   6.837  36.975  12.501
63473W        W24784  12.148  33.904   2.223
63474W        W24785  30.971  28.019   1.725
63475W        W24786  39.342   2.354   2.669
63476W        W24787  20.631  40.815   3.232
63477W        W24788  17.681  39.404   3.195
63478W        W24789  19.639   6.714   4.278
63479W        W24790  44.342  30.962  13.058
63480W        W24791  37.997  43.411   5.792
63481W        W24792   8.690  12.765  11.034
63482W        W24793  12.174  44.962  14.777
63483W        W24794   1.286  44.808   3.739
63484W        W24795  38.497  20.245  11.519
63485W        W24796  10.721  41.001   2.342
63486W        W24797  25.197   1.754   0.856
63487W        W24798  22.673  39.883   9.588
63488W        W24799  15.671  21.757   0.272
63489W        W24800  12.315   9.833  13.008
63490W        W24801  10.726   6.292  11.428
63491W        W24802  35.921  30.498   2.327
63492W        W24803  16.163  19.560   0.907
63493W        W24804   1.874  33.500   3.718
63494W        W24805  11.802  33.957  12.416
63495W        W24806  43.336  22.083  14.869
63496W        W24807   0.471  41.791  13.016
63497W        W24808  11.197  28.120   0.811
63498W        W24809  10.866  25.480  11.605
63499W        W24810  43.795  19.271   0.902
63500W        W24811   1.363  35.047  13.536
63501W        W24812  28.533  15.776   0.733
63502W        W24813  34.433  27.612  12.521
63503W        W24814  20.671  33.501  13.488
63504W        W24815  40.352  43.374  13.894
63505W        W24816  10.779  44.882   4.680
63506W        W24817  13.224   3.813   2.780
63507W        W24818  43.375  23.991   0.902
63508W        W24819  20.051  34.082  13.370
63509W        W24820  23.115  14.204  14.344
63510W        W24821  35.596   8.776  13.818
63511W        W24822  15.293  21.738   4.185
63512W        W24823  41.000  35.528   1.268
63513W        W24824   7.870  19.109   0.744
63514W        W24825  25.078   1.946   2.403
63515W        W24826   6.379  34.944   2.333
63516W        W24827  22.653  25.034   2.885
63517W        W24828   2.265  37.486   1.435
63518W        W24829  40.043  27.950  11.506
63519W        W24830  35.947  41.997  11.948
63520W        W24831  40.325   1.794  14.468
63521W        W24832  12.234   2.875   4.198
63522W        W24833  23.230  28.140  13.000
63523W        W24834  32.055  39.914   1.870
63524W        W24835  31.961  13.603  12.064
63525W        W24836   5.266  43.977  11.082
63526W        W24837   9.645  37.367  14.950
63527W        W24838   8.812  11.365   2.305
63528W        W24839  32.495  43.942  11.046
63529W        W24840   0.323  43.823   4.626
63530W        W24841  27.130  41.826  13.009
63531W        W24842  25.506  42.318   4.749
63532W        W24843  36.045  13.281   2.323
63533W        W24844   9.678  11.691  11.422
63534W        W24845  35.901  41.931   1.805
63535W        W24846  33.968  21.561   4.771
63536W        W24847  42.856  19.238   2.325
63537W        W24848   5.247   1.747   1.353
63538W        W24849   2.827  15.623   3.676
63539W        W24850   1.284  27.550  10.452
63540W        W24851  26.108   3.314  11.385
63541W        W24852  20.085  22.200   3.845
63542W        W24853  10.249  34.953   2.223
63543W        W24854  40.543  14.776  13.514
63544W        W24855  12.154  26.186  14.510
63545W        W24856   3.376   8.772   4.268
63546W        W24857  37.453  15.176  14.970
63547W        W24858  22.045  24.198   3.296
63548W        W24859  30.523  19.763  14.837
63549W        W24860  34.890  17.706  10.451
63550W        W24861   8.274  25.017  14.472
63551W        W24862  12.779  31.419   3.265
63552W        W24863   2.432  18.214   1.856
63553W        W24864   7.816  26.175  11.986
63554W        W24865   8.816  18.548   0.760
63555W        W24866  13.156  24.217  11.510
63556W        W24867  43.790  36.380  10.496
63557W        W24868  20.623  33.052  14.869
63558W        W24869   0.331   5.736  12.925
63559W        W24870   3.315  21.514   2.292
63560W        W24871  19.668  15.158  10.890
63561W        W24872   4.754  27.678  13.387
63562W        W24873  27.015  23.610  13.038
63563W        W24874  42.338  43.000   0.246
63564W        W24875  28.632   1.819   4.716
63565W        W24876  35.961   0.392   0.467
63566W        W24877  19.192   3.710   4.836
63567W        W24878  31.067  17.144  14.329
63568W        W24879   5.753  41.938   1.729
63569W        W24880  20.528  42.343  12.404
63570W        W24881  21.720  28.513  13.361
63571W        W24882  17.586   2.948  11.514
63572W        W24883   2.822  32.507  10.630
63573W        W24884  42.360  43.390  14.427
63574W        W24885   7.406   5.284   3.250
63575W        W24886  13.655   3.255  12.502
63576W        W24887  20.621  10.346   2.244
63577W        W24888   6.184  13.276  14.899
63578W        W24889  23.611  41.894  12.367
63579W        W24890   6.831  29.576  14.401
63580W        W24891  27.521  35.484   0.453
63581W        W24892  39.526  12.613   0.250
63582W        W24893  32.549  32.922  10.475
63583W        W24894  39.357  12.797  14.482
63584W        W24895  35.399  36.364   0.754
63585W        W24896   9.857  28.114   0.879
63586W        W24897  27.127  22.552   3.155
63587W        W24898  25.673   3.817  12.455
63588W        W24899  33.621  22.511   3.856
63589W        W24900  33.068   3.284   1.305
63590W        W24901   5.746  41.507   3.841
63591W        W24902  28.053  21.515  11.448
63592W        W24903  18.577  43.388  12.070
63593W        W24904  25.579  21.591  12.389
63594W        W24905   6.853  29.934   4.786
63595W        W24906   0.939  28.465   3.377
63596W        W24907  38.517   9.705   1.931
63597W        W24908  12.254  23.143  14.789
63598W        W24909  26.668  42.338  13.986
63599W        W24910  22.631  20.752   2.682
63600W        W24911  44.400  40.449   4.201
63601W        W24912  32.558  33.407   3.782
63602W        W24913  14.335  38.571   0.761
63603W        W24914  27.954  37.493   3.802
63604W        W24915   8.186   8.894   1.709
63605W        W24916  37.874  11.755   9.927
63606W        W24917   5.748  40.438  14.979
63607W        W24918  11.191  11.372  11.542
63608W        W24919  10.703  31.509  10.888
63609W        W24920   6.884  16.269  14.439
63610W        W24921  42.792   0.838   1.309
63611W        W24922  35.911  22.622   2.803
63612W        W24923  31.527  15.201   0.284
63613W        W24924   6.695  36.566   2.201
63614W        W24925  14.761  25.678  14.027
63615W        W24926   3.350  32.059   3.351
63616W        W24927  12.727  15.209   0.844
63617W        W24928  40.515  13.697   3.341
63618W        W24929  41.824  30.012  13.881
63619W        W24930  33.473   9.717  10.111
63620W        W24931   3.800   3.431   0.427
63621W        W24932  29.168  18.617  12.456
63622W        W24933   5.219  41.863  11.532
63623W        W24934   6.858  36.852  14.469
63624W        W24935   5.196  30.910  11.010
63625W        W24936  29.496  27.656   0.776
63626W        W24937  20.663  10.247  13.005
63627W        W24938   2.274  17.797   4.289
63628W        W24939  32.587  21.165   2.721
63629W        W24940   7.385  21.153   1.219
63630W        W24941   9.274  14.690  13.416
63631W        W24942  11.258  43.988  11.612
63632W        W24943  15.613   6.897  13.377
63633W        W24944  19.261  40.951  11.913
63634W        W24945  23.546  39.425   0.404
63635W        W24946  37.052  16.772  11.507
63636W        W24947  42.389  11.305   4.282
63637W        W24948  43.482  25.202  13.805
63638W        W24949  32.897  29.135   1.227
63639W        W24950  34.474   6.904  10.968
63640W        W24951  32.416  21.186  14.354
63641W        W24952  32.906  32.496   5.662
63642W        W24953  37.364  12.631  13.925
63643W        W24954   9.825  28.461   4.633
63644W        W24955  27.520  30.642  13.430
63645W        W24956  42.356   6.232   1.906
63646W        W24957   6.693  18.296   4.326
63647W        W24958  33.501  35.031   1.737
63648W        W24959  33.936  30.442   0.934
63649W        W24960   9.656  13.227  13.327
63650W        W24961  16.303   2.298  11.525
63651W        W24962  22.560  27.480  13.424
63652W        W24963  17.668  29.551  13.520
63653W        W24964  23.688   2.803  11.002
63654W        W24965  42.019   7.357   9.936
63655W        W24966  34.471   1.916  11.885
63656W        W24967  25.574  42.824  13.449
63657W        W24968  43.328  11.339  13.792
63658W        W24969  11.362  27.151  10.477
63659W        W24970  15.128  25.073  12.478
63660W        W24971  35.486  41.840  12.470
63661W        W24972  39.957  33.941   3.198
63662W        W24973   9.851  10.832  12.576
63663W        W24974   2.749  12.328  10.419
63664W        W24975  28.592  24.091  12.902
63665W        W24976   7.740  34.486   1.449
63666W        W24977  15.180  35.916   2.410
63667W        W24978  42.523  23.514  13.956
63668W        W24979   8.280  30.135  11.044
63669W        W24980  20.188  36.946  14.938
63670W        W24981  33.912  11.809  11.101
63671W        W24982  18.602   7.301   1.239
63672W        W24983  21.018  42.801   1.724
63673W        W24984  34.476  35.914   3.181
63674W        W24985  29.537  44.408  14.447
63675W        W24986  28.172  36.979   4.744
63676W        W24987  37.922  29.002   2.805
63677W        W24988  20.665   0.958  12.517
63678W        W24989  28.635  39.482   4.660
63679W        W24990  41.518  29.160   0.746
63680W        W24991  41.825  42.969  11.938
63681W        W24992  40.504  36.418   1.249
63682W        W24993  38.911  38.969   2.834
63683W        W24994  26.538  14.589   4.632
63684W        W24995   3.309  36.089   0.332
63685W        W24996  23.492   2.406   1.774
63686W        W24997  17.679  33.118   3.741
63687W        W24998  24.638   1.853  12.855
63688W        W24999  44.807  23.031   1.908
63689W        W25000  32.637  22.013  11.897
63690W        W25001  27.116   6.741   4.824
63691W        W25002  38.838   8.826  11.909
63692W        W25003  20.055  39.460  11.473
63693W        W25004  28.139  41.876  13.835
63694W        W25005  11.849  11.200  14.922
63695W        W25006  31.458   8.254   1.410
63696W        W25007  17.162  36.058  11.484
63697W        W25008   7.254  24.719  12.495
63698W        W25009  25.579  36.888   4.129
63699W        W25010  28.647   1.763  12.581
63700W        W25011  11.268  21.658   1.844
63701W        W25012  35.601  21.691  12.488
63702W        W25013  37.476  15.097  13.378
63703W        W25014  43.496  10.832  12.066
63704W        W25015   0.783  14.756   1.227
63705W        W25016  12.200   8.707  10.477
63706W        W25017  42.872  10.688   2.709
63707W        W25018  15.112  31.896  10.498
63708W        W25019  37.965  18.233  11.925
63709W        W25020  40.354  26.493  11.030
63710W        W25021  11.362  16.650  12.568
63711W        W25022   3.301  26.175  13.957
63712W        W25023  25.699  11.130  11.073
63713W        W25024   8.238  30.593   4.612
63714W        W25025  42.527  44.810  14.275
63715W        W25026  42.813  10.822  12.930
63716W        W25027  20.568  15.683  14.408
63717W        W25028  32.518   1.938   2.279
63718W        W25029   5.881  17.797   2.685
63719W        W25030   5.282  13.298  10.586
63720W        W25031  25.200  14.286   1.377
63721W        W25032  13.327  37.507   3.806
63722W        W25033   5.711  20.090   1.835
63723W        W25034   5.339  40.868  14.015
63724W        W25035  39.849  18.211  11.889
63725W        W25036  44.953  16.119  12.837
63726W        W25037  29.540  22.035   1.927
63727W        W25038  40.423   9.761  10.587
63728W        W25039  36.447  14.779   1.324
63729W        W25040   8.849  32.407   1.382
63730W        W25041  44.861  24.492   0.799
63731W        W25042  21.234  14.291  11.106
63732W        W25043  29.929  39.552   0.358
63733W        W25044   4.734  27.097   1.738
63734W        W25045  34.998  41.891   3.371
63735W        W25046  37.535   1.951   2.739
63736W        W25047   4.248  11.303  13.958
63737W        W25048  15.696  18.701  10.911
63738W        W25049  22.738  28.645   1.435
63739W        W25050   8.259  35.992   4.774
63740W        W25051  13.652  37.367  12.378
63741W        W25052  15.145  34.094  14.427
63742W        W25053  35.870  28.540  11.129
63743W        W25054  10.318   9.214  13.851
63744W        W25055  11.354  42.782  10.587
63745W        W25056   9.276  26.662  12.452
63746W        W25057  19.182  33.064  13.974
63747W        W25058  45.000   3.333   3.377
63748W        W25059  37.502  37.942  11.404
63749W        W25060  17.278   8.705   4.289
63750W        W25061  12.683  23.521   1.390
63751W        W25062  40.958  39.387   4.139
63752W        W25063  20.068   2.757   3.780
63753W        W25064   6.890  26.702   1.717
63754W        W25065  10.302  16.195   0.443
63755W        W25066  42.508  36.852  10.578
63756W        W25067  20.601  17.131   1.921
63757W        W25068  41.903  32.514   0.397
63758W        W25069  37.416  30.424   2.674
63759W        W25070  24.592   1.461   4.330
63760W        W25071   4.887  23.678   5.240
63761W        W25072  39.910   3.927  14.365
63762W        W25073  26.466   0.779  10.929
63763W        W25074  37.383  43.877  13.447
63764W        W25075   1.902  22.116  12.971
63765W        W25076   8.735   1.857   1.781
63766W        W25077  11.717  12.324   0.245
63767W        W25078  44.974  10.285  10.414
63768W        W25079  23.001  15.624  13.032
63769W        W25080  26.532  30.110   1.732
63770W        W25081  30.018  32.076   1.227
63771W        W25082  11.846  10.671  12.065
63772W        W25083  41.964  31.584   4.805
63773W        W25084   4.728  34.010  12.532
63774W        W25085  31.132  16.128   4.220
63775W        W25086  15.099  28.545   4.298
63776W        W25087  33.931  11.209  11.481
63777W        W25088  27.469   4.814   0.764
63778W        W25089  42.885  42.941   2.387
63779W        W25090   9.697  33.093   2.867
63780W        W25091  39.419   9.329  10.897
63781W        W25092  12.326  19.652  10.415
63782W        W25093   4.907  14.755  14.767
63783W        W25094  33.440   8.259   3.642
63784W        W25095  41.967  32.418   1.766
63785W        W25096   0.359  18.114   1.216
63786W        W25097   6.312  27.501   0.777
63787W        W25098   1.790  22.155   3.158
63788W        W25099  44.372   8.313  12.427
63789W        W25100  31.460  16.251   4.263
63790W        W25101  21.092  22.670  14.412
63791W        W25102   9.793  25.128  13.421
63792W        W25103   8.324  15.724   5.216
63793W        W25104  34.963  22.224   3.228
63794W        W25105  11.815  28.961  13.823
63795W        W25106  27.178  38.971   2.303
63796W        W25107  20.072  31.640   1.303
63797W        W25108   4.422   7.875  13.988
63798W        W25109  15.591  42.433   9.987
63799W        W25110  31.476  38.885   4.643
63800W        W25111  21.132  18.246  10.073
63801W        W25112  16.782  15.189   0.455
63802W        W25113  41.312   5.229   3.240
63803W        W25114  18.213   0.317  11.551
63804W        W25115  39.509  34.370   1.886
63805W        W25116  25.562   7.868  12.468
63806W        W25117  17.109  11.727   0.261
63807W        W25118  29.618  34.563   9.959
63808W        W25119  44.326  35.886  10.441
63809W        W25120   6.851  30.951  14.413
63810W        W25121   7.797  26.525   1.394
63811W        W25122  26.487  41.918  14.283
63812W        W25123  22.590  12.274   3.801
63813W        W25124  31.140  23.727  12.833
63814W        W25125  44.886   6.286   0.474
63815W        W25126  24.697  20.671   0.287
63816W        W25127  29.627  28.637  12.892
63817W        W25128  25.092  36.953  11.089
63818W        W25129  28.979   0.382   1.402
63819W        W25130  41.352  33.933   3.771
63820W        W25131   4.889  38.931  14.478
63821W        W25132   4.745  28.080   2.708
63822W        W25133  41.538   5.796   0.957
63823W        W25134  32.064  17.800   3.683
63824W        W25135   5.208  13.674  11.453
63825W        W25136  12.688   0.323  12.411
63826W        W25137  10.229  13.281  12.516
63827W        W25138  14.749  11.284  12.470
63828W        W25139  33.528   0.892   1.855
63829W        W25140  17.299  28.993   2.249
63830W        W25141   9.723  10.659   1.449
63831W        W25142  27.582  28.467   2.191
63832W        W25143  12.827  24.579   9.651
63833W        W25144  35.549  42.334  11.378
63834W        W25145  36.845  44.809   4.319
63835W        W25146  13.267  10.374   0.361
63836W        W25147  37.568  30.993   1.316
63837W        W25148  39.989   3.274  10.963
63838W        W25149  10.872  18.120  14.495
63839W        W25150  34.979  29.987  13.045
63840W        W25151  42.324   5.830   1.768
63841W        W25152  25.975  25.690   0.890
63842W        W25153  22.060  23.033   1.782
63843W        W25154  17.575  30.049   1.299
63844W        W25155  40.931  30.510   0.764
63845W        W25156  30.911  37.360   1.919
63846W        W25157   8.161   2.375  14.885
63847W        W25158  44.499  12.140  11.529
63848W        W25159  34.970   7.373  12.562
63849W        W25160   0.827   4.347  10.572
63850W        W25161  28.999  36.530  13.348
63851W        W25162   3.888  27.985  11.881
63852W        W25163  14.819  21.159  10.091
63853W        W25164  14.128  22.630  14.870
63854W        W25165  36.966  44.815   0.832
63855W        W25166  12.688   5.904   2.316
63856W        W25167  35.070  20.677  10.934
63857W        W25168  20.220   8.209  11.475
63858W        W25169  23.213  15.087  11.407
63859W        W25170  38.445  11.863  13.366
63860W        W25171   0.415  36.008   4.696
63861W        W25172  35.925  31.973   1.793
63862W        W25173  10.796  22.021   1.880
63863W        W25174  25.103  38.075   1.894
63864W        W25175  39.932  14.113   0.852
63865W        W25176  26.090  18.604  10.921
63866W        W25177  11.215   4.767  12.969
63867W        W25178  43.427   8.373   2.684
63868W        W25179  27.509  38.924   4.717
63869W        W25180  15.199   6.283  11.058
63870W        W25181  21.161  13.734   1.716
63871W        W25182  15.739  28.456   0.792
63872W        W25183   0.393  19.727  10.637
63873W        W25184   6.417  32.142  12.832
63874W        W25185  34.495  32.072   3.375
63875W        W25186  36.351  17.722   4.184
63876W        W25187  30.933  23.503  11.899
63877W        W25188  37.901  18.263   1.919
63878W        W25189  41.444   6.681   4.301
63879W        W25190  27.558   1.777   1.217
63880W        W25191  12.294  25.164   1.312
63881W        W25192   0.778  41.865   3.328
63882W        W25193  24.066  16.097   5.098
63883W        W25194   7.866   6.245   2.666
63884W        W25195   2.458  36.535   1.809
63885W        W25196  26.115  36.937  14.017
63886W        W25197  30.144  43.376  10.447
63887W        W25198   6.685   2.740   3.849
63888W        W25199  13.804  14.654   1.360
63889W        W25200  35.559  44.297   0.841
63890W        W25201  44.479   1.740   4.769
63891W        W25202  36.956   6.748  11.039
63892W        W25203   1.412  42.901  10.476
63893W        W25204  27.592  28.048  14.959
63894W        W25205  38.834  12.795   9.970
63895W        W25206  43.011   7.870  12.532
63896W        W25207   3.221  15.294   2.318
63897W        W25208  20.549  22.685  11.604
63898W        W25209   6.229  26.508   2.327
63899W        W25210  27.072  12.765  14.985
63900W        W25211   1.412   0.901   3.212
63901W        W25212  33.933  38.914  11.378
63902W        W25213   4.251  12.778  11.963
63903W        W25214  25.069  26.127   0.414
63904W        W25215  39.057  14.189   4.329
63905W        W25216  17.796  38.072  11.936
63906W        W25217  19.662  31.640  14.507
63907W        W25218  27.484  40.036  10.523
63908W        W25219  23.092  15.751  10.941
63909W        W25220  36.545  37.369  11.983
63910W        W25221  32.413  22.126  12.837
63911W        W25222  38.885  23.676  13.864
63912W        W25223   3.943  36.994  14.948
63913W        W25224  31.125  44.309  10.894
63914W        W25225  34.907  25.704  11.388
63915W        W25226  19.716   6.274   3.341
63916W        W25227  22.675  34.102   1.272
63917W        W25228  26.951   5.810   1.254
63918W        W25229  25.547   1.778  11.590
63919W        W25230  43.283  43.467   1.864
63920W        W25231  14.155  33.531   5.113
63921W        W25232  14.193  27.643  10.577
63922W        W25233   0.282  24.485  12.888
63923W        W25234  18.246  17.796  13.987
63924W        W25235  37.972  33.538   0.906
63925W        W25236  35.436  40.947   2.384
63926W        W25237   4.836  24.645  10.573
63927W        W25238  41.990   8.841   4.201
63928W        W25239  24.605  13.132  14.912
63929W        W25240   2.280   8.666   3.646
63930W        W25241  41.516   7.209   1.253
63931W        W25242   5.385  38.045   2.702
63932W        W25243  39.023  20.672  13.856
63933W        W25244  18.777  25.696  14.279
63934W        W25245  30.553  20.062  10.615
63935W        W25246  40.927   0.951   2.881
63936W        W25247  27.575  29.173  14.814
63937W        W25248  26.571   6.733  13.967
63938W        W25249  34.452  14.737   3.691
63939W        W25250  27.601  24.105   1.711
63940W        W25251  27.196   7.746  13.033
63941W        W25252  41.953  33.458   2.376
63942W        W25253  40.808  12.190   0.472
63943W        W25254  26.028  36.088   4.167
63944W        W25255  42.392  22.601  10.517
63945W        W25256  21.583  41.990  14.028
63946W        W25257  39.880  22.729   1.389
63947W        W25258  18.283  23.204  13.355
63948W        W25259   2.838   4.235  13.901
63949W        W25260  14.664  36.875   2.370
63950W        W25261  35.579  21.156  12.831
63951W        W25262  19.567  42.872   4.307
63952W        W25263  35.920  17.668   1.313
63953W        W25264   5.374  39.481   1.788
63954W        W25265  41.987  38.956  11.469
63955W        W25266  18.257  15.127  12.504
63956W        W25267  18.131  10.809  14.479
63957W        W25268  40.503  20.553  11.471
63958W        W25269  24.997  19.219   2.764
63959W        W25270   6.261   9.819  12.832
63960W        W25271  44.951  17.226  10.140
63961W        W25272   2.934  35.039   3.842
63962W        W25273   9.166   8.884   1.869
63963W        W25274  19.637  33.588  10.414
63964W        W25275   8.376  44.861  11.477
63965W        W25276  43.462  19.135  12.360
63966W        W25277  44.893  15.095   1.383
63967W        W25278  41.924  27.966  12.509
63968W        W25279  22.198  14.831  14.336
63969W        W25280  11.770   5.431   2.252
63970W        W25281   7.684  23.613  13.822
63971W        W25282  25.713  24.506   3.315
63972W        W25283  28.010  18.739  13.063
63973W        W25284  24.503  44.978   3.822
63974W        W25285  25.627   0.818   2.883
63975W        W25286   7.867  32.452  12.481
63976W        W25287  40.425  26.583   4.816
63977W        W25288   1.259  37.367  11.982
63978W        W25289  12.633  43.318   0.894
63979W        W25290  27.591  10.190  11.991
63980W        W25291   2.284  31.138  10.595
63981W        W25292  41.028   7.190  10.600
63982W        W25293  10.727  23.091   3.701
63983W        W25294   4.882  19.127   2.677
63984W        W25295  15.292   6.393  13.864
63985W        W25296   5.329   7.740  14.816
63986W        W25297  25.679  43.502  14.011
63987W        W25298  42.296   2.921  11.496
63988W        W25299   4.412  35.896   3.296
63989W        W25300  18.099  11.333  11.963
63990W        W25301  41.852  20.146   3.686
63991W        W25302  21.090   8.750   0.935
63992W        W25303   9.359  36.874  11.857
63993W        W25304  19.094  13.664   1.305
63994W        W25305  21.104  39.029   1.874
63995W        W25306   6.241   6.375  14.965
63996W        W25307  40.383  24.067   0.915
63997W        W25308  32.008   1.409  11.573
63998W        W25309  41.351  36.389  11.963
63999W        W25310   6.232  35.553  13.309
64000W        W25311  24.153  27.996   5.110
64001W        W25312   8.836  20.753   4.690
64002W        W25313   9.171  21.692  13.509
64003W        W25314  44.405  24.103   0.332
64004W        W25315   0.321  38.345  14.467
64005W        W25316  16.761  38.982   2.882
64006W        W25317  20.564  11.846   3.790
64007W        W25318  35.576  30.970  14.328
64008W        W25319   1.465  38.011   1.276
64009W        W25320  44.799  29.052   1.846
64010W        W25321   1.892  44.804  11.122
64011W        W25322  26.594  39.905   4.286
64012W        W25323  14.604  34.926  13.961
64013W        W25324  13.625  20.566  11.898
64014W        W25325  29.611  17.094   5.290
64015W        W25326  28.035   1.472  13.806
64016W        W25327  24.534  16.568  10.497
64017W        W25328  32.077  33.540   3.155
64018W        W25329  29.630  42.522  11.054
64019W        W25330   9.245  11.864   2.747
64020W        W25331  20.102  11.628   0.472
64021W        W25332  35.577  33.026   1.286
64022W        W25333  22.657  34.025   3.847
64023W        W25334  17.743  21.552  12.472
64024W        W25335  18.258   4.248  10.443
64025W        W25336   2.428  23.026  13.914
64026W        W25337  41.947  28.527  10.442
64027W        W25338   7.889   0.423   0.820
64028W        W25339  30.650   7.886  11.908
64029W        W25340  18.582  16.637   3.849
64030W        W25341  32.914  38.329   2.747
64031W        W25342  27.121  33.119   0.909
64032W        W25343  17.621  11.668  12.028
64033W        W25344  29.057  20.572   4.606
64034W        W25345  30.477   0.925  14.823
64035W        W25346  29.123  10.831   2.350
64036W        W25347  14.185  25.598   1.303
64037W        W25348  19.062  42.347  14.403
64038W        W25349   8.901  35.983  12.053
64039W        W25350  23.639   7.329   1.243
64040W        W25351  16.647   6.679  14.331
64041W        W25352  43.919  36.091  14.291
64042W        W25353  40.799   1.761  10.408
64043W        W25354   8.754   2.872   3.842
64044W        W25355  13.320  10.685   4.155
64045W        W25356  39.941   8.350  10.454
64046W        W25357  29.568   0.760   0.349
64047W        W25358  32.632  14.808   4.727
64048W        W25359   0.415  12.318  10.639
64049W        W25360  20.093   5.350   0.777
64050W        W25361   9.654  27.656  14.282
64051W        W25362  28.500  32.542   1.827
64052W        W25363  41.922  14.594   0.941
64053W        W25364  27.084   4.903   0.307
64054W        W25365  36.978   8.191   1.919
64055W        W25366  41.829  23.695   0.255
64056W        W25367  14.309  25.065   1.903
64057W        W25368   7.876   6.848   1.370
64058W        W25369   8.712  42.520   4.786
64059W        W25370  36.065  20.525  14.772
64060W        W25371   7.301  31.002   4.170
64061W        W25372  23.218   7.194  11.452
64062W        W25373  18.614  19.711   2.713
64063W        W25374  24.144  41.531  13.427
64064W        W25375   9.857   4.890  11.471
64065W        W25376  38.485  14.603  13.891
64066W        W25377  41.447  35.043  12.001
64067W        W25378  15.655  39.313   0.249
64068W        W25379  18.237  18.702  12.888
64069W        W25380  25.052  14.287   3.756
64070W        W25381  11.791   2.292  12.569
64071W        W25382  30.065  43.947  11.492
64072W        W25383   6.806  37.406   2.834
64073W        W25384  31.027  29.666  11.064
64074W        W25385   0.465  21.218  12.047
64075W        W25386  30.573  40.869  11.107
64076W        W25387   0.808  21.587   2.838
64077W        W25388   4.856   9.210  10.531
64078W        W25389  32.986   1.297  11.947
64079W        W25390  23.602  35.873  11.611
64080W        W25391   4.270  10.188   4.816
64081W        W25392  18.168  31.993   4.631
64082W        W25393   3.951  33.890  13.538
64083W        W25394  21.171  40.315   0.746
64084W        W25395  44.963  35.012   0.750
64085W        W25396  34.978  35.532   0.391
64086W        W25397   3.229   0.432   4.603
64087W        W25398   5.205  21.758  11.880
64088W        W25399  42.871  23.729   2.668
64089W        W25400  28.437  27.570   2.790
64090W        W25401  43.888  42.411   2.774
64091W        W25402  16.729  13.266  14.781
64092W        W25403  19.731  30.088   4.351
64093W        W25404  25.005  11.319  11.408
64094W        W25405  30.972  33.420  14.356
64095W        W25406  22.045  39.943  12.982
64096W        W25407  40.433  27.082  14.760
64097W        W25408  31.547  26.563  10.415
64098W        W25409  35.454  17.177   4.244
64099W        W25410   4.861  26.135  13.352
64100W        W25411  10.722  36.525   2.830
64101W        W25412  15.634  10.688  13.913
64102W        W25413   2.839   3.919  12.468
64103W        W25414  34.100  34.934  14.366
64104W        W25415  44.823  11.741   3.352
64105W        W25416   8.858  18.136  10.633
64106W        W25417  44.328  20.057   2.377
64107W        W25418  20.226  19.632   0.776
64108W        W25419  21.168  39.828  14.383
64109W        W25420  37.363  16.806  10.900
64110W        W25421  21.705  30.016   0.448
64111W        W25422  10.722  19.641   0.470
64112W        W25423   8.307  27.011   0.811
64113W        W25424  19.084  35.098   0.896
64114W        W25425  42.376  11.241  14.351
64115W        W25426  38.487  42.922   0.251
64116W        W25427   7.869   3.431   1.815
64117W        W25428   3.909  12.691   0.275
64118W        W25429  17.188  29.013  11.025
64119W        W25430  13.629  14.315  11.121
64120W        W25431  31.642  27.690  10.573
64121W        W25432  13.792  31.564   0.252
64122W        W25433  15.173  18.559   2.226
64123W        W25434   3.296  36.364  13.027
64124W        W25435   7.233  19.154  12.093
64125W        W25436   4.892  20.670   1.451
64126W        W25437   9.695  32.478   4.668
64127W        W25438  39.848   5.775   3.710
64128W        W25439   8.897  32.990  14.471
64129W        W25440  11.667  10.798  10.410
64130W        W25441  24.607  44.798  11.470
64131W        W25442  37.342  34.423  14.333
64132W        W25443  24.212  39.446   1.435
64133W        W25444  36.377  27.971  13.502
64134W        W25445  18.163   9.362   2.344
64135W        W25446  13.282  18.222   3.755
64136W        W25447  28.546   5.718  14.021
64137W        W25448  31.522   8.748   0.918
64138W        W25449  19.540  40.355   1.852
64139W        W25450  39.810   3.837  10.644
64140W        W25451  37.007  18.788   1.698
64141W        W25452  10.806  35.103   1.329
64142W        W25453  36.429   8.829   3.185
64143W        W25454   4.234   0.962  10.439
64144W        W25455  21.695   0.445  10.642
64145W        W25456  39.875   7.839   4.144
64146W        W25457   0.476  40.815  12.560
64147W        W25458  31.530   6.865   3.288
64148W        W25459  34.060  31.977  10.094
64149W        W25460  31.438  38.542  14.819
64150W        W25461  12.301  24.667   5.242
64151W        W25462  32.490  10.372   2.396
64152W        W25463  23.560  36.994   0.320
64153W        W25464  35.393  44.763  10.430
64154W        W25465  32.536  24.162  14.994
64155W        W25466  31.107  18.576  12.375
64156W        W25467  44.487  14.761   2.672
64157W        W25468   1.940  33.531   1.727
64158W        W25469  38.561  23.235   4.717
64159W        W25470  29.139   6.369   2.207
64160W        W25471  26.531  16.167  13.809
64161W        W25472  19.670   9.825  11.450
64162W        W25473  27.574   6.265   1.793
64163W        W25474   6.855  36.420  11.376
64164W        W25475  19.134   7.848  12.567
64165W        W25476  21.638  31.575   0.821
64166W        W25477  35.022  18.084  10.116
64167W        W25478  43.483  29.423  11.433
64168W        W25479   9.158  17.076   3.244
64169W        W25480  39.457  37.952   1.255
64170W        W25481  42.503  15.686   2.375
64171W        W25482   2.788  29.022   4.682
64172W        W25483  10.378  36.426   3.370
64173W        W25484  24.082  25.219  10.075
64174W        W25485  40.022  40.920   2.197
64175W        W25486  17.774   6.750   5.098
64176W        W25487   6.392  33.617   0.937
64177W        W25488  41.477  40.483   3.782
64178W        W25489  25.557   1.916  10.969
64179W        W25490  21.611  19.683   2.749
64180W        W25491  39.322  25.973   0.903
64181W        W25492   0.253  15.090   4.278
64182W        W25493  28.067  11.152  12.928
64183W        W25494  35.944  17.070   1.264
64184W        W25495   7.822  15.618  13.527
64185W        W25496   0.449  32.974   4.708
64186W        W25497  36.413   3.724  11.411
64187W        W25498  22.520  22.039  13.405
64188W        W25499  16.205  22.556   0.480
64189W        W25500  30.553   3.401  14.861
64190W        W25501  34.866   6.847  12.487
64191W        W25502  33.569   5.846  11.525
64192W        W25503  42.868  11.327  10.134
64193W        W25504  23.077  17.302  10.589
64194W        W25505  25.642  22.667   1.707
64195W        W25506  19.082  38.958   5.576
64196W        W25507   0.347  14.688  10.497
64197W        W25508  28.618  43.943   2.412
64198W        W25509  43.391  13.760   3.798
64199W        W25510  25.968   5.839  12.398
64200W        W25511  32.045  26.557   0.828
64201W        W25512  18.179  22.020   4.691
64202W        W25513  41.488  34.447  13.816
64203W        W25514  27.593  29.659   4.671
64204W        W25515  18.741  15.797  11.528
64205W        W25516  26.637  15.718   3.637
64206W        W25517  44.834  22.078   3.263
64207W        W25518  30.484   1.795  14.981
64208W        W25519  14.712  35.885   1.243
64209W        W25520  29.633   0.419   4.719
64210W        W25521  28.649  29.985   4.144
64211W        W25522  43.827   0.302   4.182
64212W        W25523  36.919  29.604  10.589
64213W        W25524  36.023  39.910  13.910
64214W        W25525   9.296  14.287   1.791
64215W        W25526  30.988  38.899   0.256
64216W        W25527   9.678   4.709   1.391
64217W        W25528  26.635  37.051  13.027
64218W        W25529  11.789  20.170  11.907
64219W        W25530   2.414   4.823   3.351
64220W        W25531  12.303  28.618   1.914
64221W        W25532  43.808  10.876  14.292
64222W        W25533  42.405  26.531   3.278
64223W        W25534  36.576   4.733   1.305
64224W        W25535   4.309  14.620   2.674
64225W        W25536  32.054  43.987   9.986
64226W        W25537   3.879  37.003  11.074
64227W        W25538  12.296  20.077   4.353
64228W        W25539  44.851  33.563  11.897
64229W        W25540   0.908  12.322  11.555
64230W        W25541  38.419  18.647   1.431
64231W        W25542  12.852  14.720  14.393
64232W        W25543  32.092  39.388   2.187
64233W        W25544  34.988   0.268  13.865
64234W        W25545  39.932  39.325   4.221
64235W        W25546  42.978   6.779   2.834
64236W        W25547  13.224  12.642   0.304
64237W        W25548  12.127  18.235   2.888
64238W        W25549  44.845  41.448  12.519
64239W        W25550  38.441  37.374   4.193
64240W        W25551  18.252   9.277  14.838
64241W        W25552   4.314  10.694   2.859
64242W        W25553   5.386  29.941   4.252
64243W        W25554  33.461  28.986  12.861
64244W        W25555  18.138  24.622   0.871
64245W        W25556   9.223   5.780   0.930
64246W        W25557   5.399  28.559  14.498
64247W        W25558  22.074  18.681   3.764
64248W        W25559  13.704  26.499   1.334
64249W        W25560  14.280  43.947  13.360
64250W        W25561  42.383  29.593  11.904
64251W        W25562   6.702  11.183  14.514
64252W        W25563  25.570   1.738   0.737
64253W        W25564  15.119   2.464   1.714
64254W        W25565   2.911  34.885  13.456
64255W        W25566   0.445   8.303  14.978
64256W        W25567  40.946  35.556  12.824
64257W        W25568  13.256  15.632  13.015
64258W        W25569  30.588  27.171  13.959
64259W        W25570  26.102  29.443   3.355
64260W        W25571  19.225  40.510   5.208
64261W        W25572   8.681  11.626   2.224
64262W        W25573  42.022  19.770   3.741
64263W        W25574  18.193  41.374   4.239
64264W        W25575  28.462   5.853  11.936
64265W        W25576  18.573  36.886  13.990
64266W        W25577  41.341  13.648   2.358
64267W        W25578   7.862  18.582   2.728
64268W        W25579  43.784  25.007   0.735
64269W        W25580   9.868  11.867  11.046
64270W        W25581  14.738  44.267  11.867
64271W        W25582  15.278  18.735  14.355
64272W        W25583  32.000  44.356   4.798
64273W        W25584  21.711  15.612   4.769
64274W        W25585  18.775  33.568  13.990
64275W        W25586  42.983  41.476  14.780
64276W        W25587   5.817  43.439  11.903
64277W        W25588  29.443   1.743   2.409
64278W        W25589  42.829  10.789   4.332
64279W        W25590  26.059  32.596  12.406
64280W        W25591  31.959  30.004  12.532
64281W        W25592  27.055   8.767   1.840
64282W        W25593   8.229  14.266  10.608
64283W        W25594  44.805  27.054   4.668
64284W        W25595   6.326  33.471  10.073
64285W        W25596   4.269  40.489   3.223
64286W        W25597   1.885  31.643  13.336
64287W        W25598  26.651   9.725  10.963
64288W        W25599  15.230   2.391  11.061
64289W        W25600  22.601  42.980   0.319
64290W        W25601   2.308  20.217   3.264
64291W        W25602   8.842  34.407   1.760
64292W        W25603  32.105  15.255  10.594
64293W        W25604  25.097  29.452  11.566
64294W        W25605  20.668  36.004  14.989
64295W        W25606   7.251   3.822  13.913
64296W        W25607   1.307  44.892  11.872
64297W        W25608  29.937  13.605   2.373
64298W        W25609  37.849  27.466   1.771
64299W        W25610  15.319  15.733   2.691
64300W        W25611  24.983  38.499   1.783
64301W        W25612  28.458  39.364  11.123
64302W        W25613  40.352  21.017  14.311
64303W        W25614  15.581  29.584   2.224
64304W        W25615  27.026  18.128  10.960
64305W        W25616  43.378  14.175   4.814
64306W        W25617  15.822   7.307  12.878
64307W        W25618  31.092  15.647   3.864
64308W        W25619  43.494   1.304  12.840
64309W        W25620  32.922  17.252  13.425
64310W        W25621   7.234   7.811   4.747
64311W        W25622  44.997  42.401  11.090
64312W        W25623  28.035  38.003   3.797
64313W        W25624  13.842   5.265   1.840
64314W        W25625  17.588  35.989  10.992
64315W        W25626  21.661  11.698   2.198
64316W        W25627  34.494   3.887   0.409
64317W        W25628  11.864  17.274   0.356
64318W        W25629  29.500  38.350   0.259
64319W        W25630  16.791  16.278  12.476
64320W        W25631  38.894  36.098   4.236
64321W        W25632  34.420  26.662  13.059
64322W        W25633  42.498  39.047   3.329
64323W        W25634  25.004   7.751   9.942
64324W        W25635  35.454  37.387   1.860
64325W        W25636  26.597  34.467   4.597
64326W        W25637  19.105  40.451   5.714
64327W        W25638  14.663  38.881   4.601
64328W        W25639  25.184  27.963   3.346
64329W        W25640   5.358  40.918   0.350
64330W        W25641  33.885  27.639  12.373
64331W        W25642   2.868  14.611  13.370
64332W        W25643  28.948  35.865   3.368
64333W        W25644  28.020  41.468  11.118
64334W        W25645  19.273  21.211  12.527
64335W        W25646  20.043  31.562  12.002
64336W        W25647  31.626  42.940   2.721
64337W        W25648   3.891  12.649  14.893
64338W        W25649  11.825  41.877  10.586
64339W        W25650  36.558  17.800   0.413
64340W        W25651  28.115  32.635   4.211
64341W        W25652  25.671  12.790  14.333
64342W        W25653  11.840  31.624  11.984
64343W        W25654  14.286  36.084   0.357
64344W        W25655  39.438  11.252  14.424
64345W        W25656  34.894  18.565   4.787
64346W        W25657  13.223  12.291  13.984
64347W        W25658  29.554  37.878  11.097
64348W        W25659  11.705   8.816  14.927
64349W        W25660  42.940   1.898   1.804
64350W        W25661  23.712  42.326   4.832
64351W        W25662  25.124  17.664  14.983
64352W        W25663  32.558   4.226   1.888
64353W        W25664  12.241  31.901   3.753
64354W        W25665  32.089  17.095   1.305
64355W        W25666  23.558  31.044   2.818
64356W        W25667  28.662   6.348   0.437
64357W        W25668  24.502  30.429   0.249
64358W        W25669  33.893  17.757  14.888
64359W        W25670  18.562  37.863  12.365
64360W        W25671   7.871  34.050  11.106
64361W        W25672  43.326  29.083   4.696
64362W        W25673  14.775  25.120   2.818
64363W        W25674   0.331   6.238   3.778
64364W        W25675  12.130   9.160  10.519
64365W        W25676  41.524  16.077   3.776
64366W        W25677   3.298  22.693   4.649
64367W        W25678  38.024   6.857  11.940
64368W        W25679  26.027  36.060   2.717
64369W        W25680  43.500   9.153  11.456
64370W        W25681  14.737  39.860  12.497
64371W        W25682   4.928  30.003   4.199
64372W        W25683  11.823   3.799   1.430
64373W        W25684  34.533  10.735   1.291
64374W        W25685  32.111  43.988   4.729
64375W        W25686   6.410  23.674  14.448
64376W        W25687  22.238  23.107  11.493
64377W        W25688  14.117  38.835   2.270
64378W        W25689   5.770  39.953   0.288
64379W        W25690  32.582  38.825   4.673
64380W        W25691  40.872  20.122  11.501
64381W        W25692  33.930  24.567   3.203
64382W        W25693  25.148  31.468  12.551
64383W        W25694   8.863  23.494  13.794
64384W        W25695   6.297   1.310  13.807
64385W        W25696  38.016  24.977   0.737
64386W        W25697  39.513  15.141  10.585
64387W        W25698  43.823   3.846  10.495
64388W        W25699   2.281  19.707  13.840
64389W        W25700  26.521  42.954  11.009
64390W        W25701  17.185  28.043   4.214
64391W        W25702  17.675  10.786  14.468
64392W        W25703  16.638   0.308  11.461
64393W        W25704  44.420  24.550  13.008
64394W        W25705  32.002  18.549   0.949
64395W        W25706  27.545  36.905   4.347
64396W        W25707   3.820   9.685  13.948
64397W        W25708  33.057  14.231   3.828
64398W        W25709  15.110  18.140  11.910
64399W        W25710  13.192   4.750   1.929
64400W        W25711  40.928  29.525   4.279
64401W        W25712  17.144  11.237   4.641
64402W        W25713  20.068  35.446   0.286
64403W        W25714  11.742  23.621   0.855
64404W        W25715  32.138  19.072  13.994
64405W        W25716   1.380  20.029   2.815
64406W        W25717  27.692  34.971  11.436
64407W        W25718  32.635  28.155  13.908
64408W        W25719   5.435   5.392   3.214
64409W        W25720  11.685  43.923  12.980
64410W        W25721  28.109  19.242   1.225
64411W        W25722  10.800  15.614  11.009
64412W        W25723  33.101  27.045   1.710
64413W        W25724  32.032  27.472   4.279
64414W        W25725  40.825  21.044  11.108
64415W        W25726  24.522  38.495   0.858
64416W        W25727  38.069  26.165  14.012
64417W        W25728  34.604  13.701  14.418
64418W        W25729  34.011   1.431   0.448
64419W        W25730  43.875   4.794  13.800
64420W        W25731  19.206   7.279  12.854
64421W        W25732   6.256  40.459   3.219
64422W        W25733  17.625  21.624   2.808
64423W        W25734  24.130  21.028  10.459
64424W        W25735  24.058  40.448   1.893
64425W        W25736  33.101   9.187   4.121
64426W        W25737   6.885  27.044   1.710
64427W        W25738  17.620  26.973  14.401
64428W        W25739   0.851  14.636   4.670
64429W        W25740  31.076  41.957   0.396
64430W        W25741  26.068  16.758  12.963
64431W        W25742  33.101  44.863  12.904
64432W        W25743   3.317  27.639  14.913
64433W        W25744  31.139  33.890  14.376
64434W        W25745   4.320  29.642  12.938
64435W        W25746  26.024   6.414  12.904
64436W        W25747  16.799  34.556  10.972
64437W        W25748  33.031  40.387   2.373
64438W        W25749  41.964   6.395   0.911
64439W        W25750   0.268   6.694  14.358
64440W        W25751   5.285   3.930  13.487
64441W        W25752  40.481   6.224  10.011
64442W        W25753   6.294  43.274  12.555
64443W        W25754  29.951  38.362  12.502
64444W        W25755  39.446  22.635  13.482
64445W        W25756  22.185   9.788  13.476
64446W        W25757  15.143  30.637   1.787
64447W        W25758  32.921  23.602   1.790
64448W        W25759  17.733   6.769  14.879
64449W        W25760   6.216   6.275   0.378
64450W        W25761   8.249  43.317   1.805
64451W        W25762  22.656   3.397  13.545
64452W        W25763   9.871  19.667   4.603
64453W        W25764  33.404  15.186   1.900
64454W        W25765  14.675  10.342   2.322
64455W        W25766  42.514  17.222  10.928
64456W        W25767  21.544  34.085   0.785
64457W        W25768  33.423  36.035   0.292
64458W        W25769  12.635  13.327  13.963
64459W        W25770  15.761   1.814   1.428
64460W        W25771  11.781   1.308  10.605
64461W        W25772  40.858  20.251   1.705
64462W        W25773   4.244   9.166  14.313
64463W        W25774  12.704  30.117   1.792
64464W        W25775  15.131  10.674   0.943
64465W        W25776  14.313   4.752  13.455
64466W        W25777  39.054  22.728  13.329
64467W        W25778  41.878  37.346   2.853
64468W        W25779  30.047   1.781   2.770
64469W        W25780   3.273  27.537   0.780
64470W        W25781   0.273  44.429   0.451
64471W        W25782  34.910  17.257   1.709
64472W        W25783  39.530  44.782   0.344
64473W        W25784  36.412  34.546   0.758
64474W        W25785  31.545   7.783   0.812
64475W        W25786  14.225  11.848  13.866
64476W        W25787   6.189  40.376   3.665
64477W        W25788  36.512   8.321   3.216
64478W        W25789   6.332  26.505   1.318
64479W        W25790  17.173  25.713   1.424
64480W        W25791   3.892  26.008  10.605
64481W        W25792   4.393  34.422   3.344
64482W        W25793   8.725  36.872   1.238
64483W        W25794  30.948  21.232  10.007
64484W        W25795  34.049  29.065  12.010
64485W        W25796  18.768  12.209  14.390
64486W        W25797  35.063  10.877  11.396
64487W        W25798  13.280  32.119  13.501
64488W        W25799  39.346  20.113   1.851
64489W        W25800  31.145  38.075  14.511
64490W        W25801  27.130  34.607  13.028
64491W        W25802  29.967  22.608   4.819
64492W        W25803   6.402  14.210  10.435
64493W        W25804  41.451  10.679  13.822
64494W        W25805  33.095  19.263   3.286
64495W        W25806  30.639   0.270   2.272
64496W        W25807  39.994  16.209   4.146
64497W        W25808   8.166   6.319   0.281
64498W        W25809  35.001   2.824  13.522
64499W        W25810  13.699  37.056   1.910
64500W        W25811  43.429  25.056   4.773
64501W        W25812  18.778  39.339  12.854
64502W        W25813   3.885  19.166   3.747
64503W        W25814  26.140  42.365  12.464
64504W        W25815   4.840  39.909  10.513
64505W        W25816  27.100  42.971  13.924
64506W        W25817  25.650  42.779   4.811
64507W        W25818  40.442  33.468   1.421
64508W        W25819  20.700   9.309  13.518
64509W        W25820   3.822  19.235  11.989
64510W        W25821   3.370  40.901  10.644
64511W        W25822  30.530   0.305   0.922
64512W        W25823   7.783  22.111  11.958
64513W        W25824  19.778  30.488  12.884
64514W        W25825  33.450  23.627   4.291
64515W        W25826  36.347  37.063  10.075
64516W        W25827  19.660   7.381  14.285
64517W        W25828  43.820  13.164  14.310
64518W        W25829  12.629  42.467  14.898
64519W        W25830  15.597  10.737   4.762
64520W        W25831  23.509  40.044   4.183
64521W        W25832  25.541  18.169   1.757
64522W        W25833   5.908  30.544  11.917
64523W        W25834  20.666  15.214  10.544
64524W        W25835   9.166  41.529   9.970
64525W        W25836  13.846   2.726   4.246
64526W        W25837  11.661  22.110  12.864
64527W        W25838  13.655   6.820  14.763
64528W        W25839  34.374  44.405   9.942
64529W        W25840  42.010  16.710  12.004
64530W        W25841  29.100   4.322   4.125
64531W        W25842  34.402  36.882   2.344
64532W        W25843   0.901  25.142   4.818
64533W        W25844  37.052  14.672   0.917
64534W        W25845   9.289  42.952   3.781
64535W        W25846  12.210  22.037   4.166
64536W        W25847  35.473  22.030  10.963
64537W        W25848  43.300  22.703  14.876
64538W        W25849  37.464  38.460   2.288
64539W        W25850  24.003  33.440   1.387
64540W        W25851  13.657   4.738   4.127
64541W        W25852   3.894  14.235  12.965
64542W        W25853  35.416  42.922  14.481
64543W        W25854  40.986  24.668   1.399
64544W        W25855  44.386  25.073  14.371
64545W        W25856  29.171   2.441   1.363
64546W        W25857  10.152  25.979  11.031
64547W        W25858  25.574  14.763  12.962
64548W        W25859  34.042  11.655  14.361
64549W        W25860   1.265  21.623   2.288
64550W        W25861   8.174  17.237  11.898
64551W        W25862  36.356  10.241   0.842
64552W        W25863  12.802  28.536  11.500
64553W        W25864  37.553  10.244   3.316
64554W        W25865  15.728  19.185   1.273
64555W        W25866  26.655  33.981  13.521
64556W        W25867  21.175   9.194   1.699
64557W        W25868   0.906  37.409   4.697
64558W        W25869  25.504   0.940  13.906
64559W        W25870  18.568  42.503  12.540
64560W        W25871   5.335  11.627  11.377
64561W        W25872  30.588  31.952   2.329
64562W        W25873  36.017  27.532   3.164
64563W        W25874   6.362  40.331  12.823
64564W        W25875   4.211  12.150   0.956
64565W        W25876  26.683   0.253   2.736
64566W        W25877  16.595  22.109  12.939
64567W        W25878   4.308  15.103   2.666
64568W        W25879  15.717  28.626  11.969
64569W        W25880  30.027  38.919   0.411
64570W        W25881  41.492  41.787  11.002
64571W        W25882   2.914  41.956  13.811
64572W        W25883  20.619  18.686   2.886
64573W        W25884   1.300  15.271   1.864
64574W        W25885  14.592  16.603  14.949
64575W        W25886  26.495   3.789  12.826
64576W        W25887  32.938  10.237   3.757
64577W        W25888  21.541  23.586  12.427
64578W        W25889  30.114  29.960  11.010
64579W        W25890  44.004  29.476   3.210
64580W        W25891   5.406  27.942   0.416
64581W        W25892  36.468  29.626  12.533
64582W        W25893  27.189   5.207  14.326
64583W        W25894  27.594   8.772   2.371
64584W        W25895  37.357  35.889  13.989
64585W        W25896  30.641  22.526  14.419
64586W        W25897  20.757  35.871   5.167
64587W        W25898  12.190  37.850   3.769
64588W        W25899  39.480  24.662  13.011
64589W        W25900  31.620  39.960  10.507
64590W        W25901  24.625  26.679  11.890
64591W        W25902  33.562  36.507  14.346
64592W        W25903  11.850  39.925   3.207
64593W        W25904  18.116  25.635  11.111
64594W        W25905  33.080  36.352   0.933
64595W        W25906   9.658   2.265   0.371
64596W        W25907  13.792  38.549   4.329
64597W        W25908  20.249  23.019   0.740
64598W        W25909  28.130   3.849  12.534
64599W        W25910   7.353  16.690   0.325
64600W        W25911  32.520  10.358   0.335
64601W        W25912  19.196  20.128   2.222
64602W        W25913  17.166  41.004   4.184
64603W        W25914  41.365  10.300   0.256
64604W        W25915  22.076  13.281  12.943
64605W        W25916   6.203   3.394  12.407
64606W        W25917  30.578   4.304  11.912
64607W        W25918  26.504   2.440   0.258
64608W        W25919  16.086  22.516  13.386
64609W        W25920  15.284  35.097   2.363
64610W        W25921  39.475   8.248  13.006
64611W        W25922  41.478  10.797   0.283
64612W        W25923  41.309  12.826   4.602
64613W        W25924  17.589  25.557   3.754
64614W        W25925  43.005  11.825  14.777
64615W        W25926  13.168  42.781   1.875
64616W        W25927  24.981  33.438   2.179
64617W        W25928  38.884  37.077  12.450
64618W        W25929   2.456   3.875  12.442
64619W        W25930   1.780  30.007   2.822
64620W        W25931   0.869  27.975  10.146
64621W        W25932  16.733   5.334   5.316
64622W        W25933  29.552  30.439  11.524
64623W        W25934  25.677  10.216   4.125
64624W        W25935  15.690   3.892  12.462
64625W        W25936  25.587   8.686  13.859
64626W        W25937  36.395  16.192   2.272
64627W        W25938  34.473   3.840  11.099
64628W        W25939  28.679  20.523   0.472
64629W        W25940  11.639  22.517  11.511
64630W        W25941  21.218  24.173  10.532
64631W        W25942  14.640  20.154  10.424
64632W        W25943   7.690  15.753  11.536
64633W        W25944  38.510  20.031   2.855
64634W        W25945  26.646  21.246   0.917
64635W        W25946  36.545  29.041   3.810
64636W        W25947  30.966  27.979   4.129
64637W        W25948  15.174  40.853   0.938
64638W        W25949  43.491  37.988  11.377
64639W        W25950  23.108  26.072  13.884
64640W        W25951  10.690  39.531  13.537
64641W        W25952  31.040  30.992  11.019
64642W        W25953  31.938  17.197   5.205
64643W        W25954  27.620   1.403  12.383
64644W        W25955  15.159  10.245   1.374
64645W        W25956  43.951   5.385   3.636
64646W        W25957   3.291   1.335   0.416
64647W        W25958   8.726  23.677  11.613
64648W        W25959  35.076   4.881   5.134
64649W        W25960  33.030  41.038   1.795
64650W        W25961  23.035  36.482   1.757
64651W        W25962  21.758   3.247  10.560
64652W        W25963   2.375  27.174   1.892
64653W        W25964  23.584  19.078   5.225
64654W        W25965  40.820  39.935   1.392
64655W        W25966   6.415  39.456   0.727
64656W        W25967   4.361  40.034   3.831
64657W        W25968  36.521  37.892   4.134
64658W        W25969  38.945  20.691  12.428
64659W        W25970  29.090   8.847   2.234
64660W        W25971  33.462  13.723   3.332
64661W        W25972  18.250  40.415   1.847
64662W        W25973   6.900  19.709  12.081
64663W        W25974  22.110  35.857  13.809
64664W        W25975   4.361  11.745   4.262
64665W        W25976  42.990  33.384  10.901
64666W        W25977   4.225  28.534  14.796
64667W        W25978  14.628  29.603  13.399
64668W        W25979  34.612  38.006  11.075
64669W        W25980  44.818  28.114   1.822
64670W        W25981   9.381   5.400  10.916
64671W        W25982  27.161   3.848  13.909
64672W        W25983  42.346  32.441  14.794
64673W        W25984  19.762   8.872  13.448
64674W        W25985  38.485  44.325  13.854
64675W        W25986  32.971  26.588   1.373
64676W        W25987  24.580  42.794   1.254
64677W        W25988   2.242  31.002  12.465
64678W        W25989  41.791  29.541   3.208
64679W        W25990   8.251  38.433   3.361
64680W        W25991  19.177  31.525   0.948
64681W        W25992  39.980  43.892  10.420
64682W        W25993  30.003  27.677  13.533
64683W        W25994   9.304  19.167   2.263
64684W        W25995  13.209   6.204   2.854
64685W        W25996  26.506  20.149  13.026
64686W        W25997  37.488  35.940   0.861
64687W        W25998  12.839   8.749   4.802
64688W        W25999  14.275   2.959  10.533
64689W        W26000  26.951  15.279  14.280
64690W        W26001   0.880  20.259   4.682
64691W        W26002  41.478  20.764  12.366
64692W        W26003   8.254   0.744  12.889
64693W        W26004   4.909  31.443  14.927
64694W        W26005   5.364   1.437  12.914
64695W        W26006  23.004  24.988  11.034
64696W        W26007  24.024  16.312   3.786
64697W        W26008  19.153  30.432  11.589
64698W        W26009  15.198  40.953   3.222
64699W        W26010  32.062  43.946  14.779
64700W        W26011  21.591   9.844  11.887
64701W        W26012  21.521  20.542   0.329
64702W        W26013  24.583  34.444  14.022
64703W        W26014  25.129  27.497  12.039
64704W        W26015   6.922   5.800   3.332
64705W        W26016   2.342  27.157  12.840
64706W        W26017  23.075  32.451   1.903
64707W        W26018  20.528  42.028   4.823
64708W        W26019  33.535  26.499  13.803
64709W        W26020  12.335   6.806  14.423
64710W        W26021  44.917  14.718  13.916
64711W        W26022  20.238  43.019   0.390
64712W        W26023   9.774  23.188   3.764
64713W        W26024  40.311  29.958  11.443
64714W        W26025  34.877  12.234   1.361
64715W        W26026   6.850  41.847  11.427
64716W        W26027  36.518  25.663  13.962
64717W        W26028   9.353  28.166   2.708
64718W        W26029   8.840   3.878   2.331
64719W        W26030  21.219   4.720  12.997
64720W        W26031   0.353  37.567  13.530
64721W        W26032  37.382  32.413   0.296
64722W        W26033  22.020  31.554   3.788
64723W        W26034  32.046  40.327  11.588
64724W        W26035   3.838  41.819  14.431
64725W        W26036  14.144  37.080   2.835
64726W        W26037  28.657  25.217   1.875
64727W        W26038  38.031  28.028  10.011
64728W        W26039  29.937  37.458   5.267
64729W        W26040  15.635  10.362  10.515
64730W        W26041  31.441  41.538   2.358
64731W        W26042  24.130   4.885   0.267
64732W        W26043  23.032  12.310   3.774
64733W        W26044  41.934  26.569  13.373
64734W        W26045   6.421  44.393  14.316
64735W        W26046  24.066  16.658  10.144
64736W        W26047  14.197  28.022   4.682
64737W        W26048   7.303   0.370  11.454
64738W        W26049   8.801   5.825  12.354
64739W        W26050   3.877  40.044  10.890
64740W        W26051  28.517  14.265   3.267
64741W        W26052  13.140   9.709  13.351
64742W        W26053  27.594   2.754   1.286
64743W        W26054  34.556   3.438   0.780
64744W        W26055  42.368   5.817   2.719
64745W        W26056  13.243  25.979  10.611
64746W        W26057   5.195  44.943   1.839
64747W        W26058   7.268  14.120  13.039
64748W        W26059  13.138  32.491   0.785
64749W        W26060   1.971  10.317  10.915
64750W        W26061  28.978  32.514   2.268
64751W        W26062  40.484  22.075   2.280
64752W        W26063  32.954  34.020  10.454
64753W        W26064  39.930  17.086   0.324
64754W        W26065  12.646  40.051   0.368
64755W        W26066  41.345  27.657   0.938
64756W        W26067  42.449  36.408   2.751
64757W        W26068   1.973  41.975   1.726
64758W        W26069  19.602  15.802   2.736
64759W        W26070   8.667  20.523  11.049
64760W        W26071  17.203  43.469  13.808
64761W        W26072  35.108  28.641   0.816
64762W        W26073   9.236   6.777   0.747
64763W        W26074  20.610  19.124  12.828
64764W        W26075  22.712   5.809  11.920
64765W        W26076   3.884   6.777  14.793
64766W        W26077  24.685  40.403   2.844
64767W        W26078  31.626  44.924  11.484
64768W        W26079  21.148  30.067   2.826
64769W        W26080  42.485   0.942  14.322
64770W        W26081  12.294  16.084  11.477
64771W        W26082  44.006  44.981   4.168
64772W        W26083  28.958   6.787  12.925
64773W        W26084  41.845  42.925  13.865
64774W        W26085  27.521  38.537   0.432
64775W        W26086  38.409  44.502  12.008
64776W        W26087  19.657   9.363   0.743
64777W        W26088  34.461  39.429  13.022
64778W        W26089  40.427   4.943  11.993
64779W        W26090   1.293   4.234   1.699
64780W        W26091  10.859  16.746  14.289
64781W        W26092  44.434   3.843  10.998
64782W        W26093  22.723  43.489   1.372
64783W        W26094  43.368  14.260   4.270
64784W        W26095  43.826  14.762   1.405
64785W        W26096   0.847   2.776  11.029
64786W        W26097  23.602  29.024  11.462
64787W        W26098  15.773  44.480  14.759
64788W        W26099  19.723   8.375  11.988
64789W        W26100  11.325  35.396   0.857
64790W        W26101  39.530  37.351   4.159
64791W        W26102  27.463  31.466  14.000
64792W        W26103  44.415  38.985  14.280
64793W        W26104  23.237   9.154  13.517
64794W        W26105  18.720  11.663   5.217
64795W        W26106  13.602  30.077   1.699
64796W        W26107  40.331  17.581   4.290
64797W        W26108   4.312  31.467  14.413
64798W        W26109  21.063   2.349  11.566
64799W        W26110   7.389  26.535  11.059
64800W        W26111  29.560  41.809   3.150
64801W        W26112  24.705   0.463  11.112
64802W        W26113  42.467   7.372  11.601
64803W        W26114  13.846   5.811  14.471
64804W        W26115  18.166  31.414   4.745
64805W        W26116   2.794  20.104  13.012
64806W        W26117  17.780  12.305  11.031
64807W        W26118  43.822  17.625  13.814
64808W        W26119  22.011  35.076   2.680
64809W        W26120  36.000  24.619   0.933
64810W        W26121  23.169   9.200   1.772
64811W        W26122  14.769   7.691  10.510
64812W        W26123  25.523  23.519   4.746
64813W        W26124  35.415  32.975  11.477
64814W        W26125  17.597  21.112   1.350
64815W        W26126  41.375   2.341   0.373
64816W        W26127   6.413  28.067  11.522
64817W        W26128  28.565  29.992   3.233
64818W        W26129  41.520  27.059  11.126
64819W        W26130  40.529  24.685   0.743
64820W        W26131   9.844  14.322  14.875
64821W        W26132  44.440   6.848   2.819
64822W        W26133   2.840  17.563   1.843
64823W        W26134  31.590  30.655   1.724
64824W        W26135   7.729  12.325   3.184
64825W        W26136  10.314  25.045  12.060
64826W        W26137  29.069  37.441  13.973
64827W        W26138  39.851  37.855  14.032
64828W        W26139  18.711  27.468   3.179
64829W        W26140   4.814  22.545  11.492
64830W        W26141  17.645  12.252   0.947
64831W        W26142  43.897   7.288   3.272
64832W        W26143   6.917  30.945  14.024
64833W        W26144  21.043  37.567   3.258
64834W        W26145   1.939  30.634   3.793
64835W        W26146  35.526  30.132  12.479
64836W        W26147   7.326  10.138   4.809
64837W        W26148   0.875  37.006   4.763
64838W        W26149  13.259  25.172  13.056
64839W        W26150  18.618  17.085  10.027
64840W        W26151   1.803  23.507  12.934
64841W        W26152  40.914  11.846   3.638
64842W        W26153   0.987   4.766  12.075
64843W        W26154   6.875   5.403   0.928
64844W        W26155  21.626  23.101  12.550
64845W        W26156  12.832  30.051  13.925
64846W        W26157   7.810  32.425   4.268
64847W        W26158  22.622  41.497  14.292
64848W        W26159  18.769  31.589   0.746
64849W        W26160  31.483   8.676   3.241
64850W        W26161   6.378   7.790   4.161
64851W        W26162  38.983  36.996  13.523
64852W        W26163  28.448  36.888   2.205
64853W        W26164  28.522  40.956   1.354
64854W        W26165  21.675  28.495  14.303
64855W        W26166  16.720  21.031  11.956
64856W        W26167   7.315  15.106  12.880
64857W        W26168  29.007  36.568  14.836
64858W        W26169  23.191  20.617   4.137
64859W        W26170   7.809  22.026   0.463
64860W        W26171  41.312  15.326  14.905
64861W        W26172   1.780   5.381   2.305
64862W        W26173  19.615  11.671  13.417
64863W        W26174  16.196  17.102   1.229
64864W        W26175  22.048  25.689   0.447
64865W        W26176  26.091  10.318   1.414
64866W        W26177  27.968  16.605  13.467
64867W        W26178  25.041  21.082  10.945
64868W        W26179  36.418   0.758   4.185
64869W        W26180  34.097  27.576   4.158
64870W        W26181   7.382   7.255   3.702
64871W        W26182  14.638  42.937  10.505
64872W        W26183  14.202  31.574   1.217
64873W        W26184  11.367  21.063   0.861
64874W        W26185   9.240  21.650   0.275
64875W        W26186  42.326  36.097   3.851
64876W        W26187  11.204  44.858   3.335
64877W        W26188   3.324   7.710   2.666
64878W        W26189  24.584  37.881  10.008
64879W        W26190  42.975   7.869  14.381
64880W        W26191   5.318   2.287   3.263
64881W        W26192   6.310   9.219   3.323
64882W        W26193  18.087  26.489  13.031
64883W        W26194  11.671  44.908  13.033
64884W        W26195  43.516  25.987  13.537
64885W        W26196  10.259   3.955   0.780
64886W        W26197  31.106  12.678  12.865
64887W        W26198  36.975  39.403  11.909
64888W        W26199  15.798   8.855   9.957
64889W        W26200  20.164  23.008   1.892
64890W        W26201  39.324   9.342  14.978
64891W        W26202  22.116  43.909  12.580
64892W        W26203  42.470  28.016  11.604
64893W        W26204  21.635  31.983   0.416
64894W        W26205   4.901  23.146   1.861
64895W        W26206  35.602  31.459  10.130
64896W        W26207  12.711  38.891  13.359
64897W        W26208  29.007  33.427  13.812
64898W        W26209  31.488  34.574   3.254
64899W        W26210  41.973  32.020  12.447
64900W        W26211  34.017  14.104  14.380
64901W        W26212  30.424  18.181   4.798
64902W        W26213   2.427   5.822   2.345
64903W        W26214  18.570  31.987   4.767
64904W        W26215  26.083  27.582  12.946
64905W        W26216  20.601  15.194   2.802
64906W        W26217   3.835   9.846   0.794
64907W        W26218  24.084  20.181  14.898
64908W        W26219  28.464  19.094  11.907
64909W        W26220  20.640  23.113  10.442
64910W        W26221  24.621  22.161   4.686
64911W        W26222   2.409  29.039  13.358
64912W        W26223  20.177  12.755   2.708
64913W        W26224  19.109  30.098   3.347
64914W        W26225  25.030  19.712  12.404
64915W        W26226  25.625  18.072  13.911
64916W        W26227  17.785  17.189   5.113
64917W        W26228  35.429  13.680   2.865
64918W        W26229  39.894   8.175  13.881
64919W        W26230  21.119   5.217   2.895
64920W        W26231  38.033  40.477   0.809
64921W        W26232  25.664   4.436  14.981
64922W        W26233  40.479  14.239   4.264
64923W        W26234  26.657  22.113  11.411
64924W        W26235   4.920  33.541  12.837
64925W        W26236  42.470   4.359   4.257
64926W        W26237  30.537   2.958  12.011
64927W        W26238  19.657   5.898   1.892
64928W        W26239  44.778   8.277   3.157
64929W        W26240  10.278  16.743   3.304
64930W        W26241  20.118  16.590   1.442
64931W        W26242  38.551  14.178   4.598
64932W        W26243   1.396  32.970   3.870
64933W        W26244  19.660  39.965   5.744
64934W        W26245  27.601   9.787   1.784
64935W        W26246   7.769  24.218   3.652
64936W        W26247  22.237   4.268  14.276
64937W        W26248   4.272  37.931  12.024
64938W        W26249  16.306   1.970   0.918
64939W        W26250   3.925   0.789   1.297
64940W        W26251  40.797  19.671  13.420
64941W        W26252   1.867  30.081  12.377
64942W        W26253   4.834  11.745   1.414
64943W        W26254   6.263  23.197  11.025
64944W        W26255   1.732  24.061   1.344
64945W        W26256  35.491   1.373   1.319
64946W        W26257  15.300  33.047  13.546
64947W        W26258  18.586  30.535  14.423
64948W        W26259  18.200  21.619   0.363
64949W        W26260  11.229  23.988   2.746
64950W        W26261  42.935  42.345  10.410
64951W        W26262  31.955   6.683  13.948
64952W        W26263  36.893  14.715  13.818
64953W        W26264  25.597  39.501  10.961
64954W        W26265  40.419   5.258   1.444
64955W        W26266  36.041  36.919  12.041
64956W        W26267  26.185  35.436  11.468
64957W        W26268  20.029  38.946  14.774
64958W        W26269   5.239  30.970   1.759
64959W        W26270  35.573  44.773  14.815
64960W        W26271  41.389  19.693  10.900
64961W        W26272  11.202  19.556  13.920
64962W        W26273  11.198  17.614   3.304
64963W        W26274  44.421  19.707   3.676
64964W        W26275  30.629  38.889   1.753
64965W        W26276  19.247  44.914  13.903
64966W        W26277  22.192   3.354  12.040
64967W        W26278  24.138  22.252   2.703
64968W        W26279  43.952  28.679   4.696
64969W        W26280  29.636  43.785   4.670
64970W        W26281   5.796  17.672   0.753
64971W        W26282   9.689  17.161   2.245
64972W        W26283  10.776   3.420   5.318
64973W        W26284   6.190  23.092   0.761
64974W        W26285  36.034  26.041  11.895
64975W        W26286  32.061   6.744   3.194
64976W        W26287  16.112  28.628   2.779
64977W        W26288  39.963  15.652  14.490
64978W        W26289   8.391  19.586  12.948
64979W        W26290   9.694  35.031   0.916
64980W        W26291   5.893  15.752  12.417
64981W        W26292  12.706  37.528  13.476
64982W        W26293  26.106  38.371   0.248
64983W        W26294  42.482  31.644  12.926
64984W        W26295  44.758  26.958   2.418
64985W        W26296  33.931  33.079  12.914
64986W        W26297   5.300  39.920   1.230
64987W        W26298   7.336  20.196   3.350
64988W        W26299  17.727  28.574  14.484
64989W        W26300  34.607  27.455   2.185
64990W        W26301  40.516  13.250   2.321
64991W        W26302  31.129  24.496   1.380
64992W        W26303  35.485   8.820  11.449
64993W        W26304  37.947   8.726  10.521
64994W        W26305  31.043   6.399  14.912
64995W        W26306  10.359  11.339  13.365
64996W        W26307   6.802  26.989  12.580
64997W        W26308   0.980   6.244  13.855
64998W        W26309  20.188  26.598   0.353
64999W        W26310   0.796  19.646  12.460
65000W        W26311  25.201  28.668  12.997
65001W        W26312  38.878  31.478   5.173
65002W        W26313  27.555  14.333   4.786
65003W        W26314  11.275  24.638   4.345
65004W        W26315  10.284   6.298  11.569
65005W        W26316  44.485   3.244   1.775
65006W        W26317  13.712   2.305   3.649
65007W        W26318  14.727  11.177  14.424
65008W        W26319  21.681  40.441  12.909
65009W        W26320  23.012   6.404  11.098
65010W        W26321  20.740   4.240   3.660
65011W        W26322  15.292  12.178  11.467
65012W        W26323   6.681   8.694   0.733
65013W        W26324   5.868  13.176   1.423
65014W        W26325   7.394  22.157   0.897
65015W        W26326  21.512  33.448   0.287
65016W        W26327  39.517   3.792  12.548
65017W        W26328   1.242  44.472  12.843
65018W        W26329  24.706  38.983  13.943
65019W        W26330  42.441  17.221   3.637
65020W        W26331  33.007  14.705  11.466
65021W        W26332  21.056  44.289  14.399
65022W        W26333   0.947  44.348   0.747
65023W        W26334  23.692   9.272  11.458
65024W        W26335   4.725   3.789  10.947
65025W        W26336  41.477  39.967  13.885
65026W        W26337  28.100   0.819   2.787
65027W        W26338  16.116  44.753   1.398
65028W        W26339   9.733  27.577   3.842
65029W        W26340  29.926  23.717  12.830
65030W        W26341  24.228  22.513   2.401
65031W        W26342   8.354  44.409  11.984
65032W        W26343  27.463  18.672   0.373
65033W        W26344  44.770   2.845   0.252
65034W        W26345  39.469  29.014  13.854
65035W        W26346  12.314  28.595   0.798
65036W        W26347  16.211  39.809  11.859
65037W        W26348  23.500  38.519   1.714
65038W        W26349  28.010   6.201   2.665
65039W        W26350  29.487  36.503  10.424
65040W        W26351  34.553  33.534   2.784
65041W        W26352  32.926  29.466  11.451
65042W        W26353  23.620  40.545   0.756
65043W        W26354  10.248  40.929   3.253
65044W        W26355  41.787  18.249   4.163
65045W        W26356   5.269  41.861  10.643
65046W        W26357  12.251   2.440   1.720
65047W        W26358  33.110  43.432  10.584
65048W        W26359  32.527  21.053  12.095
65049W        W26360   6.878  23.022   0.365
65050W        W26361   0.850  15.655   0.962
65051W        W26362  43.965  16.593   4.705
65052W        W26363  22.740  28.541   4.290
65053W        W26364  13.845  12.261   3.753
65054W        W26365  11.323  16.627   4.659
65055W        W26366   6.212   3.753   4.785
65056W        W26367  14.749   7.677  10.993
65057W        W26368  15.164  24.198   3.688
65058W        W26369   6.754  41.800  10.991
65059W        W26370   0.758  23.725   0.875
65060W        W26371   6.411  10.681  11.434
65061W        W26372  23.634  28.497  10.492
65062W        W26373   4.752  44.465   4.621
65063W        W26374  19.248  12.746  12.460
65064W        W26375   5.290  12.315  10.949
65065W        W26376   9.273  12.785  12.408
65066W        W26377  32.017   2.948   3.323
65067W        W26378  22.035  37.543   4.223
65068W        W26379  37.395  18.560  10.905
65069W        W26380  43.832  13.152   0.307
65070W        W26381  33.983   0.745   4.257
65071W        W26382   3.816  31.064  13.926
65072W        W26383  35.489  26.112   2.194
65073W        W26384  18.731  40.932   1.884
65074W        W26385  38.404   1.853   0.735
65075W        W26386  41.005  21.577  13.471
65076W        W26387  18.588  31.002  14.913
65077W        W26388  29.002  28.112   1.352
65078W        W26389  31.504   8.298   4.790
65079W        W26390  29.604  26.561   3.338
65080W        W26391   0.895   6.295  13.032
65081W        W26392  14.197   2.284  11.538
65082W        W26393  24.227  25.165  13.502
65083W        W26394  11.225  25.647  11.902
65084W        W26395  19.609   3.952   2.260
65085W        W26396   2.352  23.051  14.504
65086W        W26397  35.402   9.774   4.122
65087W        W26398  34.937  38.336   3.256
65088W        W26399  21.611  30.587  11.564
65089W        W26400   6.189  18.121   4.235
65090W        W26401  20.079  17.720  14.987
65091W        W26402   8.273  21.130  14.984
65092W        W26403  35.000  38.401  14.017
65093W        W26404  22.715   8.802  13.456
65094W        W26405   1.272  43.826   1.309
65095W        W26406  14.178  28.649   3.715
65096W        W26407  13.684  16.102  10.431
65097W        W26408  32.600  31.577  11.387
65098W        W26409  21.240   5.409  14.014
65099W        W26410  28.612  10.267   2.179
65100W        W26411   0.765  27.192   4.346
65101W        W26412   8.329  23.632  13.526
65102W        W26413  18.791  39.867   2.181
65103W        W26414  37.457  13.298  12.834
65104W        W26415  23.078  12.716   4.780
65105W        W26416  32.476  43.314  14.844
65106W        W26417  17.153   3.354   1.775
65107W        W26418  14.180  18.589  11.555
65108W        W26419  23.667  22.138   3.694
65109W        W26420  28.632  40.454  10.561
65110W        W26421  34.011  43.774   3.730
65111W        W26422  12.178  30.478   2.713
65112W        W26423  37.898  17.253  13.509
65113W        W26424   9.875  12.217   0.331
65114W        W26425  39.058  17.174   3.718
65115W        W26426  26.204  41.295   0.395
65116W        W26427  29.047  10.637   3.260
65117W        W26428  25.051  10.826   3.310
65118W        W26429  32.527  30.516   3.681
65119W        W26430  18.785   3.836   5.259
65120W        W26431  30.638  20.155  11.888
65121W        W26432   8.306  28.969  12.576
65122W        W26433   1.771  11.294   1.307
65123W        W26434  40.842  26.609   4.753
65124W        W26435  17.792  29.643   4.681
65125W        W26436  32.093  44.487  10.980
65126W        W26437  35.513  35.501  12.351
65127W        W26438  11.292  35.523   4.254
65128W        W26439  10.378  16.164  11.379
65129W        W26440   5.741  40.979  12.459
65130W        W26441  29.528  17.774   4.769
65131W        W26442  12.793   3.754  11.601
65132W        W26443  42.786  22.544   1.369
65133W        W26444  41.034  40.307   3.752
65134W        W26445  44.303  29.463  11.527
65135W        W26446   1.831  43.831   2.667
65136W        W26447  25.096  25.054  11.454
65137W        W26448  26.663  29.158   0.781
65138W        W26449   0.346   5.268   2.250
65139W        W26450  34.482  36.096  11.513
65140W        W26451   4.380  39.999   1.735
65141W        W26452  13.680  35.478   2.380
65142W        W26453  40.347  19.668   4.697
65143W        W26454   3.340   7.383  14.833
65144W        W26455   3.310  37.377   4.811
65145W        W26456  32.107  41.351  14.275
65146W        W26457  16.702  17.562  10.975
65147W        W26458  42.483  38.019   0.276
65148W        W26459  41.393  12.633   2.792
65149W        W26460  22.218  42.995  10.470
65150W        W26461  16.301   1.970   2.235
65151W        W26462  37.832  28.550  14.416
65152W        W26463  20.586  29.473   0.315
65153W        W26464   8.164  24.664   1.710
65154W        W26465  35.517  20.574  12.369
65155W        W26466   6.411  37.577   4.164
65156W        W26467   4.814  26.687   2.246
65157W        W26468  26.674  28.665   4.127
65158W        W26469  13.717  10.875   3.798
65159W        W26470   0.860  33.380   9.964
65160W        W26471  34.382   4.356   4.314
65161W        W26472  38.342  33.538   2.845
65162W        W26473   9.843  18.677  11.940
65163W        W26474  41.036  19.678   0.888
65164W        W26475  10.361   8.754   2.791
65165W        W26476   1.456   8.179   1.231
65166W        W26477  44.433  25.992  14.959
65167W        W26478  40.357  16.117  13.013
65168W        W26479  19.730  35.583  13.384
65169W        W26480  17.569  31.541  13.524
65170W        W26481  29.487  19.160  14.017
65171W        W26482  39.968  20.088   4.291
65172W        W26483  39.453  44.308   4.259
65173W        W26484   9.158  24.550  11.996
65174W        W26485  11.240  20.723  11.920
65175W        W26486  36.559   4.758   3.279
65176W        W26487  23.025  13.232  11.536
65177W        W26488  18.762   7.709   1.890
65178W        W26489  24.659  41.851  14.843
65179W        W26490  43.968  38.989   4.252
65180W        W26491   6.231   4.423   4.718
65181W        W26492  16.579   7.771   1.433
65182W        W26493  39.814  17.575  13.831
65183W        W26494  28.550  14.635   3.357
65184W        W26495   0.745   6.737  14.915
65185W        W26496  23.173  24.209  13.986
65186W        W26497   7.692  44.898  11.023
65187W        W26498  23.150  22.067   0.756
65188W        W26499  17.246  28.649  13.391
65189W        W26500  27.578  16.607  13.343
65190W        W26501  27.957  26.521  14.321
65191W        W26502  20.067  13.609  11.074
65192W        W26503   6.259  23.650   3.673
65193W        W26504  29.127  31.998   1.211
65194W        W26505   8.859   1.915  13.831
65195W        W26506  10.330  18.133  14.385
65196W        W26507  37.342  33.131   3.339
65197W        W26508   2.304  37.410  11.610
65198W        W26509  20.527   2.941  10.594
65199W        W26510  35.057  25.571  12.993
65200W        W26511   9.786   1.409   2.773
65201W        W26512  20.664   0.882   4.655
65202W        W26513   8.855  15.821   4.315
65203W        W26514  29.640  33.618  12.827
65204W        W26515  36.970  18.786  10.582
65205W        W26516  21.083  27.194   2.270
65206W        W26517  31.601   8.700   3.797
65207W        W26518  32.093  31.496  13.057
65208W        W26519  31.403  24.996  12.402
65209W        W26520  19.280  18.170   3.212
65210W        W26521  23.533  15.720   4.646
65211W        W26522  16.228  38.369   0.929
65212W        W26523  39.835  33.059   3.221
65213W        W26524  42.315  38.936   0.458
65214W        W26525  37.535  36.010   2.676
65215W        W26526  30.537  38.952   4.243
65216W        W26527  25.096  33.125   3.326
65217W        W26528  23.016  25.689   1.377
65218W        W26529  14.185  40.480   3.349
65219W        W26530  44.784  17.158  13.338
65220W        W26531  37.841  31.497  13.366
65221W        W26532  12.147  27.994  13.863
65222W        W26533  26.956  13.754   2.721
65223W        W26534  40.397   5.402   3.629
65224W        W26535   3.352   9.259  12.389
65225W        W26536  25.198  25.008  12.090
65226W        W26537  35.025  25.216   3.755
65227W        W26538  40.944   8.189   1.260
65228W        W26539  35.434  38.909   3.661
65229W        W26540  17.181  10.215   1.256
65230W        W26541   9.263  13.666   2.414
65231W        W26542  17.652  43.326   3.804
65232W        W26543  32.631  34.554   4.825
65233W        W26544  13.304  35.499   2.313
65234W        W26545  27.112  13.226   1.322
65235W        W26546  25.659  16.256   4.764
65236W        W26547  31.060  38.439  12.852
65237W        W26548  43.339  39.493   4.351
65238W        W26549  25.191  18.172  11.425
65239W        W26550   6.244  34.475   0.325
65240W        W26551   1.411  11.207   1.733
65241W        W26552  16.317  23.200   4.776
65242W        W26553  18.131  40.473  10.627
65243W        W26554  38.918  14.636  12.856
65244W        W26555  34.068  19.683  11.064
65245W        W26556  33.467  36.952  11.465
65246W        W26557  17.181  14.803  13.854
65247W        W26558  43.509   0.250   0.738
65248W        W26559   9.748  19.127   2.901
65249W        W26560  20.183  34.548   3.708
65250W        W26561  44.432   6.829  13.479
65251W        W26562  13.306  28.503   3.643
65252W        W26563   4.923  12.180  13.351
65253W        W26564  32.902   5.707  13.332
65254W        W26565  41.480  35.487  14.454
65255W        W26566  23.497  24.656  13.483
65256W        W26567   1.385  39.546   0.342
65257W        W26568   9.179  18.742   4.279
65258W        W26569  30.425   4.739  11.859
65259W        W26570  41.031   9.867  12.974
65260W        W26571  17.798  39.453  12.544
65261W        W26572  26.516  13.348   4.797
65262W        W26573   3.782  11.849   3.674
65263W        W26574  29.087  34.121  10.519
65264W        W26575  28.177  44.837  11.094
65265W        W26576   7.791  33.564   1.752
65266W        W26577  12.667  27.449  13.337
65267W        W26578   5.840  32.424  14.943
65268W        W26579  14.656  39.391  11.428
65269W        W26580  12.245  10.166  12.039
65270W        W26581   3.350  41.851  14.425
65271W        W26582  32.965  32.563   1.309
65272W        W26583  27.521  17.242  12.890
65273W        W26584  13.205  17.176   1.445
65274W        W26585  23.080   9.169  10.489
65275W        W26586  43.885  14.197   2.771
65276W        W26587  26.205   0.931  11.482
65277W        W26588  19.547  42.914  12.539
65278W        W26589  12.665  17.786   0.840
65279W        W26590   9.745  37.485   0.278
65280W        W26591  16.762  23.671   4.757
65281W        W26592  15.606  37.879  14.923
65282W        W26593   3.919  32.431  12.381
65283W        W26594  33.459  33.879   0.923
65284W        W26595  18.238  34.988  11.005
65285W        W26596  28.531  40.003   4.349
65286W        W26597  40.523   9.699  11.116
65287W        W26598  11.846  23.158   9.610
65288W        W26599   7.189  38.833   0.954
65289W        W26600   4.709  30.031  12.894
65290W        W26601  27.581  20.668  12.471
65291W        W26602  23.156  20.049  11.381
65292W        W26603   4.781  17.191   5.606
65293W        W26604  31.012   4.256  12.502
65294W        W26605  14.739  36.067   2.244
65295W        W26606  35.595   3.332   1.813
65296W        W26607   3.852  20.267   0.785
65297W        W26608  41.471  12.299   2.726
65298W        W26609   1.872  18.771  14.888
65299W        W26610  38.914  16.219   2.839
65300W        W26611  12.330  15.774   4.784
65301W        W26612  26.473   2.759  10.408
65302W        W26613  35.565  37.870   2.822
65303W        W26614  21.519  28.087   2.185
65304W        W26615  10.314  27.676   4.238
65305W        W26616  29.061  32.512   2.865
65306W        W26617  41.029  26.004   0.366
65307W        W26618   5.933  16.568  12.878
65308W        W26619  16.160  25.585   2.284
65309W        W26620  15.249   1.287  10.044
65310W        W26621   2.321  44.401  11.601
65311W        W26622  43.829  44.974   0.395
65312W        W26623  30.566  30.920  14.331
65313W        W26624   7.285  27.521   4.603
65314W        W26625   4.827  44.962   2.331
65315W        W26626  21.255  29.017  14.903
65316W        W26627   5.355  28.056   1.702
65317W        W26628  15.739  36.454   0.373
65318W        W26629  19.102  16.253   4.768
65319W        W26630  30.564  35.866   3.251
65320W        W26631  40.003   2.357   3.657
65321W        W26632   6.714  42.832   1.388
65322W        W26633   5.343  15.251  12.436
65323W        W26634   4.321   8.238   0.743
65324W        W26635   9.318  32.127   3.648
65325W        W26636   5.401  14.269   4.820
65326W        W26637  10.369   4.208  13.940
65327W        W26638   5.916   6.250   0.774
65328W        W26639  36.071  25.987   2.794
65329W        W26640  23.225  18.782  12.340
65330W        W26641  25.101   7.289   3.166
65331W        W26642   4.913   9.153   1.717
65332W        W26643  36.064  21.619  10.976
65333W        W26644  30.924  41.856  13.526
65334W        W26645  35.929   4.389  14.910
65335W        W26646  11.691   0.781   1.216
65336W        W26647  35.414  17.695   0.753
65337W        W26648   9.394  19.585   3.249
65338W        W26649   9.760  40.309   4.776
65339W        W26650  15.814  37.445   5.160
65340W        W26651  37.986   7.321  13.962
65341W        W26652   2.316  34.864  14.280
65342W        W26653   1.819  29.645   0.912
65343W        W26654  18.257  36.051  12.973
65344W        W26655  35.531  38.016  10.014
65345W        W26656  14.713  13.658  11.995
65346W        W26657  26.500  41.818   2.181
65347W        W26658  33.089  42.883  14.008
65348W        W26659  14.275  37.556  13.841
65349W        W26660  28.936  17.068   4.195
65350W        W26661  27.482  22.205  11.075
65351W        W26662  36.445   5.229   3.718
65352W        W26663  20.662  19.700   1.384
65353W        W26664   1.465   0.986   1.425
65354W        W26665  20.047   7.376  12.056
65355W        W26666  28.070   1.409   3.152
65356W        W26667   7.878  25.641  13.337
65357W        W26668   4.748  39.361  12.067
65358W        W26669  18.263  18.781   1.359
65359W        W26670  41.392  17.721  14.913
65360W        W26671  43.790  15.092   3.246
65361W        W26672  23.570  35.003  12.929
65362W        W26673  25.978  44.265   2.222
65363W        W26674   2.787  43.315  11.999
65364W        W26675  19.693  43.910   2.818
65365W        W26676  26.567  29.054   4.623
65366W        W26677   7.734   2.878   2.400
65367W        W26678  18.102  23.188  11.398
65368W        W26679   8.203  14.611  14.515
65369W        W26680  27.602   1.863  11.874
65370W        W26681  27.503  12.630   0.777
65371W        W26682  33.603   1.294  13.383
65372W        W26683  23.511  27.555  13.878
65373W        W26684  27.084  19.077  12.455
65374W        W26685  22.150   4.885  14.805
65375W        W26686  19.678  20.189   4.708
65376W        W26687  14.261  34.966  14.775
65377W        W26688   4.901  29.956  10.099
65378W        W26689  10.821  15.229  13.350
65379W        W26690  23.694   0.880   4.228
65380W        W26691  10.253  14.653  10.550
65381W        W26692  38.837   2.852  10.974
65382W        W26693  43.408  27.625   4.168
65383W        W26694  12.720  11.265   3.655
65384W        W26695  25.149  19.698  11.871
65385W        W26696  38.501  44.438  11.050
65386W        W26697  23.655  30.609  11.863
65387W        W26698  13.175  36.557  12.502
65388W        W26699  14.609  30.993   3.740
65389W        W26700  29.080  13.336  11.379
65390W        W26701  37.376  34.499   5.303
65391W        W26702  42.462   0.751  13.534
65392W        W26703  15.579  28.113   5.158
65393W        W26704  15.292  24.569   0.835
65394W        W26705  16.709  44.492  14.377
65395W        W26706  41.321  20.744  13.863
65396W        W26707  38.426  32.134  14.416
65397W        W26708  38.896  32.915   4.715
65398W        W26709   9.379  35.426  13.800
65399W        W26710  21.582   0.943   3.677
65400W        W26711  10.140   3.329   3.335
65401W        W26712  40.521  19.601  14.823
65402W        W26713  14.279  33.037  14.935
65403W        W26714   2.843  42.300  11.952
65404W        W26715  30.521  22.544  10.433
65405W        W26716  40.847  17.111  13.495
65406W        W26717  10.329  29.033  11.911
65407W        W26718  14.149  18.130   4.264
65408W        W26719  22.662  15.185   2.328
65409W        W26720  17.117   9.235   1.818
65410W        W26721  19.214   0.432   2.387
65411W        W26722  39.487   6.709  13.449
65412W        W26723  26.696  22.530   5.254
65413W        W26724  21.679  20.693  14.401
65414W        W26725  10.257  36.995  11.394
65415W        W26726   5.249  20.251   1.246
65416W        W26727  32.911  24.701  11.476
65417W        W26728  25.075   6.210  11.933
65418W        W26729  11.258  33.588  11.447
65419W        W26730  22.605  37.931  11.383
65420W        W26731  18.762  33.596  13.397
65421W        W26732  21.177  18.622  13.883
65422W        W26733  21.648  32.601   3.834
65423W        W26734  40.456  34.116   3.186
65424W        W26735  13.267  31.450   2.893
65425W        W26736  35.401  44.957   3.634
65426W        W26737  20.738   3.827  10.626
65427W        W26738  44.475  39.379   1.885
65428W        W26739  11.749  41.832  14.905
65429W        W26740   6.681  34.999  13.335
65430W        W26741  17.638  36.542  10.539
65431W        W26742  15.637   7.371   1.266
65432W        W26743  35.554  12.816  12.082
65433W        W26744   4.833   0.275  14.907
65434W        W26745  14.809  40.477   1.849
65435W        W26746  11.850  15.310  13.897
65436W        W26747  39.494  35.990  11.104
65437W        W26748  31.949   8.313   4.273
65438W        W26749   7.754  31.630  14.373
65439W        W26750  27.477  31.533  13.546
65440W        W26751  20.227  23.690   0.726
65441W        W26752   3.385  26.178  12.872
65442W        W26753   2.296  30.926   1.341
65443W        W26754  17.574   1.797   0.728
65444W        W26755  21.542  16.640  13.827
65445W        W26756  41.395  37.935  12.835
65446W        W26757  19.109  15.726   9.963
65447W        W26758  25.042  32.579  12.544
65448W        W26759  23.005  25.017  13.922
65449W        W26760  14.607  35.082  11.882
65450W        W26761  28.090  13.282   4.665
65451W        W26762   7.905  27.544   4.620
65452W        W26763  11.274  40.889  13.325
65453W        W26764  14.185  35.036  13.817
65454W        W26765  27.531  28.443  12.846
65455W        W26766  18.085  23.012   3.372
65456W        W26767  28.977  16.603  12.001
65457W        W26768  38.063  34.007   9.441
65458W        W26769  17.686  31.573   2.678
65459W        W26770  36.373  13.319   3.184
65460W        W26771  22.542  24.497  13.794
65461W        W26772   8.393  33.476   1.306
65462W        W26773  39.462  22.605   0.791
65463W        W26774  37.898  32.034   1.267
65464W        W26775   4.916  32.535  11.983
65465W        W26776  30.930   0.771   4.146
65466W        W26777  15.291  41.455  10.937
65467W        W26778  28.162  26.981   1.903
65468W        W26779  17.172  17.133   1.434
65469W        W26780   7.671   1.970  12.449
65470W        W26781  31.524  31.558   2.715
65471W        W26782   6.352   9.833  14.383
65472W        W26783  25.573  23.532   4.319
65473W        W26784  13.732  44.775   0.421
65474W        W26785   6.316   1.949  10.038
65475W        W26786   5.373  36.094   1.730
65476W        W26787  15.707  42.485  14.980
65477W        W26788  10.810  30.989   1.376
65478W        W26789  42.448  41.879   4.670
65479W        W26790  40.473  18.077   0.922
65480W        W26791  39.961   2.819   3.223
65481W        W26792  23.539  42.291  12.060
65482W        W26793  10.260  23.145  14.452
65483W        W26794  24.671  26.192   1.718
65484W        W26795  38.557  41.810   2.840
65485W        W26796  17.079   7.816  14.024
65486W        W26797   8.893   0.455  13.309
65487W        W26798  38.041  44.308  12.570
65488W        W26799  36.058   4.882   2.233
65489W        W26800   7.373  35.935   4.177
65490W        W26801   5.876  29.961  13.814
65491W        W26802  31.583   5.766  13.527
65492W        W26803  16.304  43.803   4.333
65493W        W26804  27.606  30.027  12.341
65494W        W26805  42.013  15.766   2.316
65495W        W26806  22.503   3.935  11.920
65496W        W26807  13.245  30.054  14.508
65497W        W26808  18.188  40.459   2.324
65498W        W26809  44.876  31.539   4.767
65499W        W26810  30.054   0.248   0.440
65500W        W26811  11.210  22.144  12.948
65501W        W26812  12.251  30.007  12.831
65502W        W26813  26.029   2.248  14.455
65503W        W26814  20.628  34.434  10.626
65504W        W26815  30.466  24.523   4.656
65505W        W26816  38.843  18.686  13.797
65506W        W26817  28.073  31.150  13.843
65507W        W26818  13.165  27.516   3.730
65508W        W26819  32.596  40.452   4.756
65509W        W26820  27.172  16.651   4.293
65510W        W26821  24.618  28.104   3.222
65511W        W26822  11.205   7.848  11.390
65512W        W26823  32.588  16.609   3.281
65513W        W26824  23.173   7.796  11.487
65514W        W26825  39.035  43.277   1.224
65515W        W26826  41.343   2.452   1.755
65516W        W26827  32.082  21.120  11.881
65517W        W26828  33.396  43.308  13.875
65518W        W26829  35.365  43.397   4.721
65519W        W26830  26.091  32.436   1.283
65520W        W26831  43.328  24.108   2.880
65521W        W26832   5.846  37.835  11.518
65522W        W26833  36.364  15.580   2.861
65523W        W26834   2.457  16.664  12.571
65524W        W26835  19.181  28.628  12.499
65525W        W26836  27.188   6.913   4.172
65526W        W26837  17.799  31.920   4.720
65527W        W26838  23.567   3.251  10.421
65528W        W26839  12.260   8.690   2.738
65529W        W26840  13.707  36.566   4.656
65530W        W26841  19.284  10.672   1.874
65531W        W26842  33.438   8.857   3.291
65532W        W26843  13.140  40.432   1.740
65533W        W26844   0.362  24.023   0.361
65534W        W26845  30.501  41.885   5.119
65535W        W26846  27.099  37.428  14.792
65536W        W26847  21.233   2.886   1.720
65537W        W26848   9.375  34.387  13.905
65538W        W26849  14.117  17.289   4.137
65539W        W26850  34.104   8.297   4.173
65540W        W26851  27.051  39.450  10.600
65541W        W26852  15.648  39.936  10.006
65542W        W26853  43.321   6.363  11.550
65543W        W26854  28.448  42.848  13.880
65544W        W26855  14.830   6.862   3.157
65545W        W26856  36.531  21.040  14.841
65546W        W26857  31.150  20.728   4.613
65547W        W26858  25.517  17.594  14.959
65548W        W26859  39.808  40.489  14.948
65549W        W26860  42.371  39.040   1.926
65550W        W26861  40.892  37.952  13.901
65551W        W26862  12.129   7.248   0.331
65552W        W26863   2.733  24.635   3.160
65553W        W26864  33.522   4.919   9.947
65554W        W26865   6.337  34.097   3.235
65555W        W26866  30.432  12.637   1.404
65556W        W26867  37.075   6.403  12.024
65557W        W26868   0.977  31.502   0.307
65558W        W26869  19.610  32.397   3.326
65559W        W26870  36.403  28.944   4.197
65560W        W26871  25.075  28.985   1.728
65561W        W26872  22.512   3.418  10.616
65562W        W26873  13.219  23.096   0.266
65563W        W26874  26.161  37.394   3.693
65564W        W26875  10.879  31.901  10.028
65565W        W26876  33.575  24.988   0.836
65566W        W26877  43.312  34.410  11.990
65567W        W26878   2.965  30.594  12.055
65568W        W26879   7.253  30.063   1.812
65569W        W26880  13.714   6.707   3.271
65570W        W26881  37.398   6.187   3.870
65571W        W26882  18.709  28.004   4.290
65572W        W26883  41.850  44.947  13.386
65573W        W26884   1.749  44.899   1.834
65574W        W26885  15.612   9.842   3.828
65575W        W26886  10.632  37.025   1.845
65576W        W26887   3.280  26.051   0.737
65577W        W26888  36.072  39.824  10.518
65578W        W26889   6.191   5.438  11.881
65579W        W26890  13.814  39.849  14.461
65580W        W26891   4.800  41.000  10.470
65581W        W26892  28.966  43.479   4.254
65582W        W26893  31.077  35.887   3.793
65583W        W26894   0.788  42.515  10.595
65584W        W26895  33.995  16.100   3.239
65585W        W26896  19.595  28.649  10.917
65586W        W26897  10.677  44.389  12.055
65587W        W26898  17.675  29.117  11.402
65588W        W26899  40.855  12.731   1.793
65589W        W26900  25.044  23.194  12.908
65590W        W26901  21.605  33.943  14.513
65591W        W26902  43.439  10.815   0.756
65592W        W26903  44.335   1.847  12.085
65593W        W26904  24.976  43.776   3.704
65594W        W26905  10.351   6.214  12.448
65595W        W26906  18.724  28.962   0.445
65596W        W26907  19.143  14.096   0.829
65597W        W26908  20.753  11.788  11.936
65598W        W26909  28.078  26.551   0.345
65599W        W26910  20.675  10.343  12.402
65600W        W26911  43.003  40.815   1.780
65601W        W26912  11.677  12.180   0.917
65602W        W26913  24.183  36.366  11.982
65603W        W26914  19.244   1.336   4.681
65604W        W26915  39.927  35.856  14.897
65605W        W26916  38.061  44.270   2.409
65606W        W26917  34.039  11.222  13.375
65607W        W26918  23.566  10.653   3.227
65608W        W26919  33.444  39.999   1.900
65609W        W26920  25.626  32.557   2.764
65610W        W26921  16.113  16.619   1.238
65611W        W26922  22.690  13.203  10.618
65612W        W26923  17.710  20.253   4.632
65613W        W26924  31.147  29.423   1.767
65614W        W26925  26.055   6.262  12.020
65615W        W26926   7.204  18.274   5.260
65616W        W26927  42.929   7.208  13.869
65617W        W26928  10.240  38.953   2.795
65618W        W26929   2.230  41.347   4.770
65619W        W26930  25.506  41.867  14.980
65620W        W26931   8.886   7.879   3.707
65621W        W26932   4.838   5.742   9.979
65622W        W26933  20.727  36.388   5.619
65623W        W26934  35.968   2.909   2.221
65624W        W26935  21.758   6.281  14.967
65625W        W26936   4.266  35.589  11.491
65626W        W26937  39.362   1.330   1.724
65627W        W26938  15.712  13.826   0.445
65628W        W26939  29.561  44.302   0.929
65629W        W26940  33.434  24.518  10.405
65630W        W26941   5.862   4.323  14.481
65631W        W26942  32.485   5.852  12.906
65632W        W26943   9.169  19.183   4.741
65633W        W26944  12.669   2.230  10.621
65634W        W26945  28.627   5.328  13.878
65635W        W26946  28.550  44.767   0.948
65636W        W26947   9.350  31.133   1.823
65637W        W26948  18.239  18.183   4.123
65638W        W26949   7.831  34.121  14.451
65639W        W26950  12.222  21.521   2.872
65640W        W26951  21.220  13.205  11.565
65641W        W26952  44.392  40.536   1.804
65642W        W26953  34.039  41.922  14.416
65643W        W26954  19.667  12.760   2.806
65644W        W26955   8.251   9.298  11.458
65645W        W26956  21.598  27.006   0.430
65646W        W26957  10.310  14.213  13.331
65647W        W26958  33.119  43.973   1.913
65648W        W26959   0.433  29.976  13.310
65649W        W26960  40.854  36.574   4.228
65650W        W26961  44.389  41.008   2.321
65651W        W26962  33.100  42.437   2.253
65652W        W26963  38.556   1.472   4.609
65653W        W26964  43.964   0.951  14.815
65654W        W26965  32.915  22.557   2.407
65655W        W26966  30.988  32.459   4.309
65656W        W26967  21.179  19.581  13.387
65657W        W26968  30.013  36.393   4.127
65658W        W26969  18.086  16.120   4.819
65659W        W26970   7.846  10.369   2.751
65660W        W26971  14.328  19.118   1.244
65661W        W26972  44.397  24.481   0.251
65662W        W26973  33.964  35.092   3.345
65663W        W26974   9.849  15.779   0.364
65664W        W26975  37.355  35.503  11.992
65665W        W26976  12.287  33.116   1.376
65666W        W26977   9.167   2.341   0.769
65667W        W26978  24.680  17.151  10.480
65668W        W26979  19.072  36.524   1.765
65669W        W26980  41.473  24.138  12.522
65670W        W26981  22.709  43.279  10.618
65671W        W26982  34.593  26.639   1.437
65672W        W26983  13.145  18.145   4.169
65673W        W26984   0.788  10.326   0.751
65674W        W26985  24.534  26.045   3.176
65675W        W26986  15.657  27.537   2.356
65676W        W26987  13.349   2.331  14.828
65677W        W26988  16.760  43.464   4.614
65678W        W26989  20.102  25.206   3.385
65679W        W26990   4.837  29.558  11.975
65680W        W26991   3.891  42.983   0.380
65681W        W26992  13.700  39.830  14.907
65682W        W26993   6.678  12.142   1.934
65683W        W26994  22.525   8.290   4.689
65684W        W26995   9.324   9.667   2.348
65685W        W26996  11.285  18.223   1.807
65686W        W26997  44.888   9.812  12.862
65687W        W26998  32.620   3.358   3.365
65688W        W26999   2.822  13.704   1.908
65689W        W27000  33.407  23.185   4.628
65690W        W27001  18.572  34.961  13.047
65691W        W27002  30.627  25.676   2.880
65692W        W27003  20.040  29.484  14.990
65693W        W27004   4.342  14.150   2.696
65694W        W27005  39.939   2.778  13.010
65695W        W27006   4.226  17.717   2.759
65696W        W27007  24.593   7.857  12.341
65697W        W27008  12.225  10.169  14.486
65698W        W27009  17.738  44.942  11.579
65699W        W27010  44.781  25.669  11.016
65700W        W27011   8.799  24.685   1.431
65701W        W27012  33.553  43.913  14.877
65702W        W27013  17.768   1.333   2.406
65703W        W27014  39.493  28.522  12.031
65704W        W27015  13.631  10.357   0.410
65705W        W27016   6.231  37.897   3.690
65706W        W27017  22.595   6.256   4.254
65707W        W27018  43.774  26.676  12.490
65708W        W27019  35.564   9.715  10.999
65709W        W27020  32.608   4.431  10.473
65710W        W27021  10.140  31.920  13.995
65711W        W27022  23.054  21.137   2.794
65712W        W27023  22.620  21.749  14.998
65713W        W27024  44.308  36.541   3.787
65714W        W27025  39.495  33.541  12.343
65715W        W27026   1.947  44.922   0.460
65716W        W27027   5.711   9.168  14.806
65717W        W27028  30.147   2.293  12.504
65718W        W27029  39.013  20.212   3.197
65719W        W27030  30.004   6.752   3.272
65720W        W27031  20.556  15.597  10.606
65721W        W27032  30.453  19.053  12.005
65722W        W27033  33.487   7.224   2.238
65723W        W27034  24.651  28.519   0.472
65724W        W27035  42.796  29.425   2.249
65725W        W27036  32.887   8.893   3.727
65726W        W27037  18.289  36.071  11.024
65727W        W27038  38.420  17.555  13.417
65728W        W27039  19.182   0.365   3.820
65729W        W27040   8.346  41.947   4.717
65730W        W27041  13.600  13.701   0.860
65731W        W27042  21.512   5.350   2.350
65732W        W27043  13.609   2.798  13.490
65733W        W27044   4.436  43.467   4.769
65734W        W27045  19.140   1.795  10.558
65735W        W27046   0.288  30.413  13.505
65736W        W27047  37.543  31.003  11.480
65737W        W27048  22.584   9.225   1.812
65738W        W27049  27.451  20.145  12.486
65739W        W27050   2.448  12.124  10.607
65740W        W27051  24.124   7.717   0.459
65741W        W27052  31.433   5.698   0.383
65742W        W27053  22.723  35.491  14.988
65743W        W27054  10.279  30.973  14.922
65744W        W27055  20.114  35.934  10.589
65745W        W27056  19.083   5.361   3.276
65746W        W27057   6.414   7.411   2.199
65747W        W27058   5.330  23.500  12.563
65748W        W27059   9.252  17.304  10.077
65749W        W27060   1.300  41.820  14.310
65750W        W27061  33.514  33.914   4.268
65751W        W27062   6.233   6.915   2.340
65752W        W27063  26.514  19.229  13.969
65753W        W27064  17.092  25.055   3.242
65754W        W27065  43.433  39.387  11.016
65755W        W27066  42.877   9.888  13.048
65756W        W27067  43.990   2.833   1.437
65757W        W27068   7.724   1.344   3.379
65758W        W27069  43.289  43.409   0.318
65759W        W27070  13.183   0.428  13.878
65760W        W27071  44.468   1.748  14.902
65761W        W27072  15.195  38.860  13.454
65762W        W27073  38.553  16.246   1.840
65763W        W27074   4.897  10.780  11.592
65764W        W27075  31.466  44.959   3.317
65765W        W27076  21.735  24.699   0.260
65766W        W27077  37.831   8.831   3.309
65767W        W27078  30.054  25.185  14.483
65768W        W27079  10.207  28.100   2.191
65769W        W27080   2.311  39.410   4.215
65770W        W27081  13.612  14.697  13.522
65771W        W27082  11.860  37.492   5.138
65772W        W27083  15.670  44.963  14.360
65773W        W27084   3.228  36.960   0.938
65774W        W27085  40.515  28.045   2.387
65775W        W27086   2.367  34.382  14.293
65776W        W27087  30.590  22.713  12.436
65777W        W27088  44.785  27.057  14.866
65778W        W27089  44.948  36.469  11.402
65779W        W27090  42.006  41.349   4.350
65780W        W27091  16.104  11.248   1.345
65781W        W27092  13.337  16.701   3.715
65782W        W27093  22.536   3.709   0.292
65783W        W27094  20.615  17.299   4.621
65784W        W27095  38.015  42.882  11.082
65785W        W27096  28.037  27.189   4.604
65786W        W27097  20.553   6.182  13.963
65787W        W27098   6.381  15.324  11.902
65788W        W27099  10.648  39.053  14.923
65789W        W27100  13.668  25.525  14.948
65790W        W27101  23.000   3.758   0.844
65791W        W27102  43.795  42.469   1.402
65792W        W27103  36.998  37.528  12.375
65793W        W27104  32.610  19.093   1.760
65794W        W27105   8.668  10.141   4.150
65795W        W27106  38.512  18.113   1.216
65796W        W27107  38.026   0.809   9.967
65797W        W27108  36.097   0.974   2.178
65798W        W27109  38.432  17.677  13.796
65799W        W27110  29.119  44.765   1.703
65800W        W27111  36.953  27.005  12.560
65801W        W27112   2.944  22.008   1.912
65802W        W27113   4.400  26.462  14.857
65803W        W27114  39.346  10.733   3.211
65804W        W27115  30.981  19.058   4.651
65805W        W27116   5.731  23.044  13.051
65806W        W27117  15.645  17.156  13.998
65807W        W27118  21.575  15.806   1.827
65808W        W27119  24.622  38.886   4.210
65809W        W27120  43.316  31.450  13.451
65810W        W27121  16.678  16.809   3.758
65811W        W27122   3.908  23.628   4.152
65812W        W27123  13.312   3.450   5.273
65813W        W27124  40.318  32.437  14.996
65814W        W27125   6.811   6.768   0.277
65815W        W27126  21.090  41.995   5.086
65816W        W27127  34.935  10.656   2.757
65817W        W27128  40.952  32.999   0.953
65818W        W27129   5.393  40.803  13.459
65819W        W27130  33.029  12.845   3.360
65820W        W27131  24.048  16.641   4.352
65821W        W27132   8.359  43.493  10.592
65822W        W27133   6.189  26.194  14.853
65823W        W27134  26.092  15.089  13.935
65824W        W27135  44.003  10.334  11.513
65825W        W27136  17.627  32.894   1.856
65826W        W27137  23.223  41.019   1.862
65827W        W27138  20.044   2.943  13.870
65828W        W27139  37.890  23.182  14.365
65829W        W27140   0.307  39.480  11.481
65830W        W27141  30.978  14.621  11.461
65831W        W27142  15.599  10.759  14.847
65832W        W27143  36.961   4.287   2.351
65833W        W27144   3.868  27.675   2.763
65834W        W27145  17.757  10.828   0.866
65835W        W27146  20.526  12.272   0.910
65836W        W27147  38.504  22.742  11.517
65837W        W27148  11.651  43.833  14.911
65838W        W27149  36.440   2.915   0.353
65839W        W27150  43.448  20.065   1.336
65840W        W27151  37.408  42.843   0.267
65841W        W27152  32.434  17.661   1.250
65842W        W27153  39.317  13.686   1.309
65843W        W27154   5.244  42.797   1.798
65844W        W27155  16.073  23.593   4.634
65845W        W27156   4.715   8.308  13.427
65846W        W27157  26.478  43.867   4.701
65847W        W27158   4.837   2.381   0.467
65848W        W27159  39.334  12.223  12.996
65849W        W27160  41.000  16.201  12.347
65850W        W27161   6.898  37.524   2.399
65851W        W27162   4.934  31.504   3.797
65852W        W27163  21.086   0.274   3.803
65853W        W27164  23.016  32.398   2.813
65854W        W27165  43.832  15.254  13.855
65855W        W27166  23.541  43.504   1.340
65856W        W27167  12.792  36.447   4.614
65857W        W27168  42.008   8.741   9.929
65858W        W27169  23.052   3.317   2.810
65859W        W27170  25.162  15.650  12.495
65860W        W27171  32.095  26.018   4.199
65861W        W27172  18.105  25.133  12.004
65862W        W27173  10.329  13.612  10.943
65863W        W27174   5.355  33.009   0.461
65864W        W27175  13.142  26.462   4.252
65865W        W27176  29.529  44.480  12.566
65866W        W27177  17.094  11.785   4.659
65867W        W27178  36.422  39.916   0.248
65868W        W27179  15.655  37.524   1.788
65869W        W27180  18.179  33.543  10.538
65870W        W27181  37.978  27.632   4.613
65871W        W27182  40.926   7.251   4.300
65872W        W27183  32.923  26.682  14.455
65873W        W27184  15.686  40.990   3.795
65874W        W27185  26.968  10.225   2.186
65875W        W27186  31.909  34.019  13.964
65876W        W27187  38.904  29.648   0.801
65877W        W27188  23.499  11.829  12.949
65878W        W27189   0.333  12.209  10.974
65879W        W27190  38.340   8.683  11.445
65880W        W27191  14.639  34.065  14.484
65881W        W27192  40.895   7.256  12.546
65882W        W27193  30.502   5.807  11.572
65883W        W27194  40.908  39.025   1.762
65884W        W27195  33.564   4.396   9.992
65885W        W27196   0.344   7.776   2.293
65886W        W27197  36.497  44.990  11.406
65887W        W27198  17.062  26.194   2.879
65888W        W27199   6.876  26.573  13.464
65889W        W27200  37.426  37.409  13.845
65890W        W27201  32.633  33.423   0.260
65891W        W27202   6.860   3.329   2.228
65892W        W27203   9.749  39.911   0.956
65893W        W27204  43.843  29.646  14.277
65894W        W27205  28.174  44.914   4.647
65895W        W27206  40.967  44.011   0.760
65896W        W27207  36.009  30.098  12.370
65897W        W27208   3.343  13.843  13.936
65898W        W27209   7.800  34.483  13.885
65899W        W27210  25.097  10.264  14.447
65900W        W27211  34.925  11.163   2.665
65901W        W27212  19.688  18.680   1.312
65902W        W27213  19.678  31.040   2.235
65903W        W27214   7.843  36.922   3.836
65904W        W27215  42.310  31.646  14.305
65905W        W27216  19.259  42.308   4.766
65906W        W27217  10.295  39.431  13.501
65907W        W27218   6.194  38.500   1.772
65908W        W27219  41.337  24.580   3.161
65909W        W27220  14.769  43.418  11.935
65910W        W27221  30.070  29.985   2.767
65911W        W27222   5.696  38.845   1.777
65912W        W27223  10.240  43.319   1.716
65913W        W27224  27.177   7.413  11.017
65914W        W27225  40.012  11.773  13.927
65915W        W27226   8.313   1.391  10.430
65916W        W27227  19.730  30.571  14.772
65917W        W27228   7.323   2.334  11.373
65918W        W27229   0.465  11.829   4.202
65919W        W27230  16.099  43.881  11.611
65920W        W27231  26.695   7.210  11.579
65921W        W27232  30.499   6.903  13.518
65922W        W27233  35.390  33.419   4.152
65923W        W27234  15.800  31.571  11.464
65924W        W27235   6.746   5.324  14.869
65925W        W27236  43.483  27.141   3.159
65926W        W27237   1.468  32.052  10.989
65927W        W27238  12.748  19.777  12.952
65928W        W27239  25.181  33.900   2.278
65929W        W27240   8.797  28.162   1.731
65930W        W27241   6.345  44.822   4.280
65931W        W27242  14.274  21.666   9.970
65932W        W27243  18.694  41.363  11.466
65933W        W27244   3.849  41.948   3.161
65934W        W27245  12.338  10.321   3.822
65935W        W27246  42.326  25.152   2.767
65936W        W27247  31.450  35.361  14.412
65937W        W27248  10.332  28.933   2.853
65938W        W27249   9.808  22.104   3.661
65939W        W27250  12.630  10.669   1.735
65940W        W27251   3.939  40.952   0.278
65941W        W27252  36.495  37.348   3.378
65942W        W27253  12.183  43.345   0.409
65943W        W27254  18.701  14.264  12.416
65944W        W27255   5.827   1.802  13.447
65945W        W27256  28.976  27.065   4.292
65946W        W27257  12.217  24.216  12.900
65947W        W27258   4.791  18.728  12.512
65948W        W27259  29.468  35.430  14.979
65949W        W27260  25.594   6.354   2.765
65950W        W27261  16.748  12.836   4.340
65951W        W27262  35.395  35.383  14.937
65952W        W27263  20.722  15.646   3.800
65953W        W27264  12.798   1.405   4.235
65954W        W27265  21.231   5.817   2.205
65955W        W27266   3.410  23.492  10.623
65956W        W27267   6.871  37.390   0.252
65957W        W27268  29.159  38.981  14.491
65958W        W27269  38.011   4.333  10.418
65959W        W27270  19.583  34.911   0.967
65960W        W27271  32.503   1.450  11.463
65961W        W27272  16.587  23.670  14.342
65962W        W27273  36.360  15.141  10.473
65963W        W27274  16.631  20.135  11.455
65964W        W27275  13.141  29.439   0.470
65965W        W27276  35.931  32.939  13.839
65966W        W27277  34.506  10.716   3.241
65967W        W27278  17.171  32.628  11.935
65968W        W27279  36.908  37.926   4.270
65969W        W27280  43.005  33.624   1.226
65970W        W27281  28.482   3.831  14.352
65971W        W27282  16.229   8.374  13.033
65972W        W27283  29.544  31.492   2.217
65973W        W27284   9.787  11.143  12.016
65974W        W27285  29.037  39.340   2.835
65975W        W27286  24.070   9.818   1.935
65976W        W27287  41.840   4.856   0.276
65977W        W27288  44.314  22.550  14.766
65978W        W27289  16.102  42.877   4.212
65979W        W27290  27.029   2.894   4.351
65980W        W27291  36.050  23.170   2.873
65981W        W27292   3.754  28.014  14.394
65982W        W27293  22.604  27.512  10.936
65983W        W27294  36.411  43.289  12.377
65984W        W27295  22.532  20.090  14.916
65985W        W27296  38.996   6.883   2.278
65986W        W27297  11.162  16.784  13.807
65987W        W27298  11.641  25.039   2.313
65988W        W27299  24.530  30.434   3.803
65989W        W27300   4.378  17.676  13.314
65990W        W27301  41.306   5.425  13.389
65991W        W27302  31.928  27.065   4.351
65992W        W27303  20.646  36.857   0.428
65993W        W27304   2.420  16.213  14.428
65994W        W27305  20.140  32.591  10.639
65995W        W27306   8.660  43.885  13.946
65996W        W27307  19.702   2.447   1.306
65997W        W27308  20.750  43.769  11.508
65998W        W27309   7.707  43.365  11.612
65999W        W27310  35.062  35.484  14.802
66000W        W27311  21.066  40.541   9.971
66001W        W27312   8.895  37.928   2.347
66002W        W27313  29.447  36.535  13.024
66003W        W27314  18.693  19.722   1.230
66004W        W27315  39.910  17.590   4.320
66005W        W27316   4.814  21.089   2.867
66006W        W27317   7.702   9.693  13.938
66007W        W27318  12.856  33.895  11.908
66008W        W27319  12.709  29.957  10.620
66009W        W27320  29.538   2.324  13.368
66010W        W27321  33.517  27.645   4.644
66011W        W27322   4.428   3.834   3.375
66012W        W27323  41.790  44.311  10.474
66013W        W27324  19.686   0.901   1.247
66014W        W27325  37.982  37.355  11.417
66015W        W27326   9.214  39.465   3.378
66016W        W27327  34.470  40.040  13.037
66017W        W27328  22.247   7.231  14.032
66018W        W27329  19.637  11.130  11.374
66019W        W27330   2.884  31.085  13.016
66020W        W27331   3.223  17.590   1.441
66021W        W27332  29.510  19.202   0.740
66022W        W27333  27.060  43.823   4.213
66023W        W27334  17.260  16.765   4.814
66024W        W27335  29.168  41.892  12.534
66025W        W27336  30.907   7.728   2.673
66026W        W27337  16.249  41.486  12.847
66027W        W27338  22.619  36.471   4.330
66028W        W27339  42.402  22.663  10.915
66029W        W27340  26.187  44.492   0.908
66030W        W27341  15.676  17.686   0.907
66031W        W27342  13.811  40.812  10.466
66032W        W27343  11.774  26.631   3.253
66033W        W27344   7.770  31.936   0.932
66034W        W27345  29.077  25.618  12.005
66035W        W27346  35.075  28.985  11.475
66036W        W27347   3.732  39.546   3.757
66037W        W27348  34.069   2.903   2.245
66038W        W27349  14.778  39.838  11.973
66039W        W27350  21.086   6.240   3.634
66040W        W27351  11.648  26.693   1.928
66041W        W27352  15.735  39.948  12.408
66042W        W27353  15.181  21.052  13.884
66043W        W27354  21.571  44.998   0.462
66044W        W27355  28.519  16.187  14.347
66045W        W27356  14.172  30.936   2.319
66046W        W27357  30.012  29.603  11.463
66047W        W27358  10.247  41.792  11.493
66048W        W27359  34.422   2.286   4.163
66049W        W27360   1.819   0.271  13.517
66050W        W27361  25.989  35.415  11.998
66051W        W27362  25.969   9.340  13.923
66052W        W27363   4.739   4.864   2.183
66053W        W27364  25.580  31.414  11.458
66054W        W27365   4.378  14.817   0.382
66055W        W27366   0.850  44.320   4.334
66056W        W27367  28.124  34.907   2.849
66057W        W27368  15.322  17.279  13.403
66058W        W27369  36.384  30.975  12.339
66059W        W27370  32.498   2.361   3.772
66060W        W27371  41.314  35.064  11.468
66061W        W27372   7.891  27.999   2.237
66062W        W27373   1.246  41.333  13.438
66063W        W27374  16.224  35.874   1.368
66064W        W27375  23.069   7.241  10.574
66065W        W27376  39.009   1.757   5.180
66066W        W27377  40.433  17.227   2.395
66067W        W27378  15.606  32.053   3.804
66068W        W27379  26.545  19.568   5.247
66069W        W27380  12.310   4.299  13.316
66070W        W27381  13.761   8.895   2.241
66071W        W27382  28.548  40.992   4.820
66072W        W27383  12.237  16.616  12.901
66073W        W27384  13.614   5.345  10.078
66074W        W27385  36.386  14.799  14.897
66075W        W27386  42.460  19.762   0.475
66076W        W27387  36.873  37.876  14.992
66077W        W27388  30.460  24.671  14.475
66078W        W27389  26.207  20.698  10.948
66079W        W27390  12.752  27.539  11.475
66080W        W27391   7.763  35.022  13.889
66081W        W27392  31.966  43.504   2.391
66082W        W27393  44.838   5.904   1.874
66083W        W27394  10.368  36.867  13.309
66084W        W27395  25.669  36.373   3.672
66085W        W27396  31.086  27.060  11.443
66086W        W27397  23.505  14.594  13.878
66087W        W27398  39.548  37.442   1.246
66088W        W27399  25.171  41.434  14.777
66089W        W27400  17.213   7.805   1.400
66090W        W27401  19.611  21.591   4.758
66091W        W27402  36.081  39.043  14.788
66092W        W27403  18.644  43.779   2.188
66093W        W27404   7.880  41.827   0.949
66094W        W27405  42.448   8.246  13.428
66095W        W27406  10.754   6.217  11.079
66096W        W27407   5.709  38.410  10.471
66097W        W27408  37.958  30.044   2.784
66098W        W27409  36.462  31.557  11.968
66099W        W27410  22.043  18.673  12.873
66100W        W27411   8.293  16.088   2.845
66101W        W27412  33.515  35.957   2.864
66102W        W27413  36.024  38.837   1.422
66103W        W27414  25.085   5.933   3.217
66104W        W27415   0.810  17.583  13.501
66105W        W27416  41.408  37.018   0.842
66106W        W27417  29.599   4.894  10.935
66107W        W27418   0.288   3.278  13.882
66108W        W27419  18.231   6.810  10.411
66109W        W27420   7.829   5.735   2.676
66110W        W27421  38.905  17.567  13.896
66111W        W27422  18.238  40.928   1.329
66112W        W27423  43.894   9.763  13.544
66113W        W27424  26.644   7.886   3.782
66114W        W27425  41.355  23.165   2.710
66115W        W27426  24.655  44.851   4.749
66116W        W27427  10.834  21.068  12.862
66117W        W27428  16.652  41.808  14.506
66118W        W27429  25.002  30.571   3.243
66119W        W27430  37.480  12.719   1.902
66120W        W27431  15.708   5.707   0.798
66121W        W27432  23.552  17.777   5.572
66122W        W27433   1.340   2.814   2.844
66123W        W27434  44.331  38.432   1.916
66124W        W27435   6.719   1.813  13.803
66125W        W27436  28.063  43.875  12.076
66126W        W27437  25.630   8.178  11.914
66127W        W27438   6.683   4.934   2.751
66128W        W27439  37.358   5.766   4.603
66129W        W27440  25.155   0.958   2.741
66130W        W27441  24.540  27.542  14.453
66131W        W27442  15.086  17.685   4.706
66132W        W27443  27.619   5.701  14.925
66133W        W27444  38.461  18.663  13.333
66134W        W27445  39.824  26.498  13.396
66135W        W27446  23.143  31.988   4.280
66136W        W27447  14.671  30.103   1.451
66137W        W27448   4.942  38.359  12.390
66138W        W27449  10.866  44.266  10.973
66139W        W27450   4.412  41.355  13.037
66140W        W27451  27.149  35.013   1.324
66141W        W27452  43.949  21.229  12.568
66142W        W27453   1.351   7.286   3.318
66143W        W27454  10.219  33.483  10.002
66144W        W27455  38.841   0.474   1.425
66145W        W27456  20.539  16.168  10.581
66146W        W27457   4.746  21.107   1.253
66147W        W27458   0.915  42.438   0.357
66148W        W27459  36.023  32.447   3.869
66149W        W27460   4.450  12.795   1.789
66150W        W27461  36.429  12.230  10.486
66151W        W27462   4.400   1.940  11.994
66152W        W27463  23.612   3.391   0.807
66153W        W27464   5.706  19.279  13.414
66154W        W27465  34.513  20.636   0.798
66155W        W27466  16.114  32.026  14.951
66156W        W27467  42.453  37.415   5.240
66157W        W27468  35.907  14.720   4.836
66158W        W27469  27.555  26.074   4.692
66159W        W27470   9.206  28.150   3.350
66160W        W27471   9.866  39.527  10.625
66161W        W27472   3.882  40.817   0.945
66162W        W27473  13.810  20.739   4.205
66163W        W27474  24.043  42.492  11.445
66164W        W27475  23.603  42.781  11.861
66165W        W27476  38.891  35.470  10.465
66166W        W27477  37.920   2.270   0.744
66167W        W27478  19.549  14.793   0.924
66168W        W27479  39.954   9.788  10.590
66169W        W27480   2.957  17.693  11.492
66170W        W27481   2.782  25.597   1.384
66171W        W27482  18.123  39.959  13.316
66172W        W27483  28.106  34.443  13.473
66173W        W27484   2.434  24.144   3.377
66174W        W27485  12.838  27.149  12.365
66175W        W27486  28.097  39.905  10.061
66176W        W27487  23.073   3.307   4.633
66177W        W27488  12.690  42.832  10.619
66178W        W27489  21.207   0.373   0.479
66179W        W27490   4.769  42.951  13.384
66180W        W27491  41.373  41.304   2.352
66181W        W27492   3.392  40.317   1.253
66182W        W27493   4.427  30.998   3.838
66183W        W27494  27.649   8.724   4.244
66184W        W27495  31.630   9.804   1.810
66185W        W27496  28.958   2.848  13.449
66186W        W27497   3.440  18.252  14.772
66187W        W27498  27.618   0.251   3.318
66188W        W27499  10.719  10.691  13.976
66189W        W27500  13.667  19.629   0.407
66190W        W27501  38.875  19.141  11.537
66191W        W27502  13.649   5.823  13.416
66192W        W27503   3.855  34.425  12.870
66193W        W27504  27.580  15.607  14.426
66194W        W27505   3.856  31.425   0.385
66195W        W27506  21.252  23.128   0.903
66196W        W27507   1.740  26.697  11.938
66197W        W27508   0.794  32.122   2.736
66198W        W27509   6.898  19.629   4.675
66199W        W27510   1.360  44.411   2.251
66200W        W27511   6.254  24.575  10.053
66201W        W27512   0.364  20.745  14.021
66202W        W27513  31.968  41.946  14.344
66203W        W27514  32.895  25.642  10.983
66204W        W27515  43.911  22.134  10.962
66205W        W27516  42.409  28.950   2.364
66206W        W27517  26.677  12.333   1.703
66207W        W27518  29.042   0.873   2.714
66208W        W27519  16.073  40.040   3.155
66209W        W27520  31.919  11.338  12.382
66210W        W27521   3.857  30.616  14.940
66211W        W27522   7.844  36.556  14.340
66212W        W27523  10.683  24.036   2.320
66213W        W27524   8.268  20.244  14.415
66214W        W27525  28.518  35.588  14.001
66215W        W27526  43.008  19.267  13.460
66216W        W27527  16.113  33.618  10.552
66217W        W27528  44.756  21.229   1.347
66218W        W27529   4.225  28.504  11.878
66219W        W27530  35.062   6.900  10.931
66220W        W27531  18.223  43.833   3.287
66221W        W27532  29.023  41.494  13.792
66222W        W27533  34.465  32.907   4.203
66223W        W27534   1.773  34.473   4.226
66224W        W27535  41.848  13.721   4.814
66225W        W27536   2.317   5.790   1.443
66226W        W27537  30.121  44.269  14.977
66227W        W27538  24.175  19.240  12.834
66228W        W27539  38.043  28.175  13.928
66229W        W27540  23.218  26.062   1.896
66230W        W27541  38.528  29.156   4.215
66231W        W27542  38.348  23.080  11.536
66232W        W27543  36.405  37.021   1.306
66233W        W27544   4.776   6.914   0.816
66234W        W27545  19.589   3.233  12.040
66235W        W27546  37.059  11.372   1.760
66236W        W27547  16.115  15.667   3.854
66237W        W27548  40.847   6.207   3.679
66238W        W27549  11.684  29.954  13.008
66239W        W27550  15.084  23.120   4.689
66240W        W27551  42.283  36.997  14.314
66241W        W27552   6.820  35.969   0.428
66242W        W27553  11.628  11.311  11.516
66243W        W27554  14.685  35.524  13.898
66244W        W27555  33.929   6.751   2.272
66245W        W27556  13.247  27.457   4.615
66246W        W27557  21.223   6.808  13.513
66247W        W27558  12.681  42.286  11.387
66248W        W27559  35.554  41.413  10.557
66249W        W27560   9.696  36.374   4.744
66250W        W27561  27.136  11.246   3.738
66251W        W27562   2.281  30.056  11.009
66252W        W27563  43.501  12.350  11.918
66253W        W27564  33.604  12.243  11.543
66254W        W27565   0.769  39.815   4.606
66255W        W27566  36.579  44.448  11.033
66256W        W27567  30.948   1.410  11.954
66257W        W27568  21.069  17.635  11.572
66258W        W27569  29.555   1.976   1.325
66259W        W27570  38.481   1.766  12.423
66260W        W27571  29.606  13.156  13.929
66261W        W27572   4.808  26.018  11.068
66262W        W27573  16.739  37.961   0.782
66263W        W27574  21.534  25.138  12.088
66264W        W27575  26.991   3.389  13.969
66265W        W27576  17.737  17.619  10.915
66266W        W27577  40.925  12.144  14.802
66267W        W27578  16.187  17.736  13.869
66268W        W27579  44.366   0.935  11.892
66269W        W27580  18.051  43.445  11.987
66270W        W27581   4.880   7.306  14.870
66271W        W27582   6.292  36.989  13.932
66272W        W27583   5.282  29.661  11.040
66273W        W27584   2.752   0.830  14.013
66274W        W27585   1.970  39.853   0.353
66275W        W27586  12.233  19.144   1.781
66276W        W27587  24.574  20.756   2.766
66277W        W27588   1.912  24.143  14.496
66278W        W27589  14.613  34.377  14.964
66279W        W27590  24.083  38.402  10.110
66280W        W27591  42.288  26.141  14.285
66281W        W27592  18.122   8.694   4.273
66282W        W27593  36.361  21.755   4.270
66283W        W27594  12.354  39.529  11.578
66284W        W27595   8.762  37.549  12.852
66285W        W27596  39.920  26.085   1.433
66286W        W27597  21.681  17.067   2.781
66287W        W27598  25.593   3.307  11.116
66288W        W27599  23.238  27.523  10.614
66289W        W27600  42.292  19.606   2.670
66290W        W27601  33.047   4.882  12.971
66291W        W27602  12.625   3.852  13.994
66292W        W27603  41.927  33.482  13.908
66293W        W27604   5.388  25.076  13.893
66294W        W27605  32.022  36.935   1.355
66295W        W27606  22.160  16.584   0.435
66296W        W27607  33.496  26.196  12.491
66297W        W27608  36.419  26.133  11.576
66298W        W27609  25.635  31.048   3.840
66299W        W27610  18.183  39.339  13.474
66300W        W27611   5.770  18.174  13.524
66301W        W27612  41.372  30.110   4.292
66302W        W27613  41.375  10.846   2.855
66303W        W27614  40.313  10.357   4.633
66304W        W27615  20.683  12.224  13.441
66305W        W27616   5.268  30.599  14.305
66306W        W27617  31.496  25.016  10.488
66307W        W27618  43.336  33.008   1.402
66308W        W27619   8.708   2.432   4.741
66309W        W27620  21.236  35.927   1.429
66310W        W27621  39.019  18.774  14.776
66311W        W27622  11.250  19.581   2.746
66312W        W27623  32.005  33.584   4.184
66313W        W27624  16.175  25.205  14.848
66314W        W27625  26.531  22.677   2.244
66315W        W27626  37.034  18.581   4.188
66316W        W27627  24.087  23.148   0.821
66317W        W27628  42.005   0.261   2.245
66318W        W27629  31.033  40.829  14.973
66319W        W27630  15.274   3.402  12.012
66320W        W27631  12.154  32.466   4.726
66321W        W27632  23.137  37.506   4.681
66322W        W27633  21.663  10.286   3.264
66323W        W27634   8.758   8.203   1.279
66324W        W27635  16.244  43.002   3.322
66325W        W27636  44.881  32.545  10.981
66326W        W27637   1.956  13.695  13.428
66327W        W27638  42.488   0.417  10.980
66328W        W27639  26.492  25.016  12.920
66329W        W27640  35.039  12.633  10.506
66330W        W27641   3.938  30.503   1.438
66331W        W27642  40.494  26.010   3.756
66332W        W27643   5.272  20.675  11.962
66333W        W27644  33.049  11.267   2.336
66334W        W27645  42.908  15.724   4.273
66335W        W27646   4.326  25.187  12.833
66336W        W27647  26.110  37.882   1.268
66337W        W27648  34.521   8.765  14.973
66338W        W27649  27.035  26.491   1.845
66339W        W27650  38.526  39.467  13.358
66340W        W27651  17.109   7.886   3.207
66341W        W27652   6.852  27.568   1.296
66342W        W27653  37.996  23.682  13.041
66343W        W27654  11.700  44.478  12.009
66344W        W27655  32.552  32.611   4.330
66345W        W27656  28.117   5.251  12.441
66346W        W27657   2.253  22.218   2.841
66347W        W27658   3.300  18.056  11.882
66348W        W27659  36.401   2.301   1.877
66349W        W27660  17.696  20.123  13.931
66350W        W27661  29.471  32.619  14.850
66351W        W27662  32.009   5.346  14.988
66352W        W27663  14.148   3.288   1.825
66353W        W27664  23.650  35.041   3.656
66354W        W27665  18.631  22.669   0.390
66355W        W27666   3.254   2.323   1.825
66356W        W27667  27.970  29.170   1.320
66357W        W27668  26.055  21.055   4.732
66358W        W27669  31.557  41.508   0.790
66359W        W27670  20.752  14.299   0.838
66360W        W27671  34.059  40.425   4.813
66361W        W27672  18.759  25.967  13.877
66362W        W27673  29.561  33.910   3.217
66363W        W27674  35.905   1.787  12.067
66364W        W27675  31.913  37.365  13.495
66365W        W27676  37.981  19.180  12.969
66366W        W27677  39.848  42.430   3.768
66367W        W27678  41.912  18.710  11.506
66368W        W27679  10.872  35.434   0.960
66369W        W27680  25.605  36.920   4.763
66370W        W27681  43.421  27.020   3.750
66371W        W27682  44.893  34.900   3.696
66372W        W27683  34.593   9.810   0.799
66373W        W27684   6.745  44.759  13.985
66374W        W27685  15.637  26.580   1.422
66375W        W27686   4.324  34.931  13.006
66376W        W27687  42.836  12.719   2.232
66377W        W27688  43.358  17.308  14.437
66378W        W27689  28.633   4.752  13.026
66379W        W27690  21.184  41.442  10.004
66380W        W27691   8.208  40.541  13.008
66381W        W27692  11.187  18.729   1.871
66382W        W27693  10.171  39.410  11.088
66383W        W27694  36.877  25.036   0.916
66384W        W27695   0.314  20.114   0.311
66385W        W27696  22.712  25.080  12.832
66386W        W27697   6.808  44.908  11.586
66387W        W27698  41.821   5.735  11.037
66388W        W27699   5.385  12.792  12.041
66389W        W27700  32.401  30.029  10.436
66390W        W27701  44.309   7.801   4.617
66391W        W27702  16.124   1.325   2.860
66392W        W27703  21.612  30.582   0.246
66393W        W27704  34.117   0.313  13.471
66394W        W27705  14.163  39.501  11.957
66395W        W27706  35.861   3.720  13.346
66396W        W27707  44.992  42.987   3.203
66397W        W27708   0.461   7.403  14.031
66398W        W27709   0.417  20.611   1.422
66399W        W27710  37.476   2.382  11.110
66400W        W27711  38.459   1.809  10.570
66401W        W27712  18.753  44.871   4.668
66402W        W27713  16.625  16.806   2.315
66403W        W27714  24.545   0.308  14.442
66404W        W27715  37.894  16.740  11.878
66405W        W27716  21.097   4.282  10.423
66406W        W27717  42.010  28.102   2.901
66407W        W27718   0.915   6.854   1.698
66408W        W27719  13.790  35.973   3.208
66409W        W27720  19.187  22.209  12.423
66410W        W27721  39.900  44.894  13.973
66411W        W27722   4.228  38.407  13.518
66412W        W27723   9.717  40.417  13.936
66413W        W27724  35.546   6.696  12.379
66414W        W27725  32.000  13.685   1.855
66415W        W27726  36.546   3.339   3.297
66416W        W27727  16.258  16.124   2.664
66417W        W27728  17.300   9.378  11.994
66418W        W27729  39.976   5.392  13.833
66419W        W27730  17.272  21.563  11.569
66420W        W27731  10.273  20.101   0.765
66421W        W27732  18.286  44.933   2.678
66422W        W27733   0.437   4.934   2.796
66423W        W27734  41.308  31.081   3.215
66424W        W27735   0.830  35.447  12.916
66425W        W27736  14.697  24.517  12.476
66426W        W27737  23.498  30.493   0.378
66427W        W27738  33.391  44.434   1.731
66428W        W27739   5.771  13.186   3.721
66429W        W27740   5.849   4.742  14.493
66430W        W27741  37.424  42.516   1.762
66431W        W27742  20.110  10.162  14.386
66432W        W27743   4.869  39.935  10.897
66433W        W27744  27.606  23.638  11.084
66434W        W27745  38.058   1.867   3.188
66435W        W27746  18.778   4.231  13.451
66436W        W27747   0.340   0.377  10.623
66437W        W27748  44.769  26.487   1.311
66438W        W27749  19.534  24.045  11.886
66439W        W27750  40.533   6.385   2.818
66440W        W27751  40.303  19.766  12.380
66441W        W27752  36.050  44.476   2.889
66442W        W27753  39.900  35.362  12.576
66443W        W27754  24.591   3.721  12.019
66444W        W27755  28.443   6.218   0.938
66445W        W27756  19.676  22.745   1.784
66446W        W27757   1.901  41.790  12.460
66447W        W27758  30.982  14.140   3.679
66448W        W27759  39.449   3.353   4.155
66449W        W27760  31.094   6.266   0.870
66450W        W27761  17.655   3.242   4.153
66451W        W27762  18.657   7.396  11.901
66452W        W27763  23.045  13.287  13.990
66453W        W27764  26.031  27.592  12.560
66454W        W27765  18.086  19.179  13.958
66455W        W27766   2.298  37.365   0.917
66456W        W27767  16.650  31.609  12.950
66457W        W27768  42.825  11.651   4.202
66458W        W27769  35.431  33.380  12.029
66459W        W27770  44.312  27.459   4.158
66460W        W27771  40.464  15.676   2.185
66461W        W27772  28.060   5.805   2.394
66462W        W27773  41.380   2.443  14.373
66463W        W27774  36.908  16.610   0.343
66464W        W27775  31.420  13.738  14.386
66465W        W27776  23.033  44.964   1.267
66466W        W27777  26.683  23.177   0.348
66467W        W27778  12.247  44.783  11.886
66468W        W27779  24.713   8.300   3.366
66469W        W27780  17.223   6.758  14.855
66470W        W27781  24.666  37.935  14.020
66471W        W27782   9.768   9.871  14.411
66472W        W27783  30.008   7.747  10.615
66473W        W27784  42.926  40.904   4.684
66474W        W27785  12.837  25.648  14.032
66475W        W27786   7.897  12.217   1.841
66476W        W27787   8.715  38.837  10.911
66477W        W27788  40.897  38.482   3.804
66478W        W27789  29.639  26.069  11.002
66479W        W27790  26.060  30.594  12.528
66480W        W27791  21.167  19.253  12.533
66481W        W27792  29.165  33.614  10.494
66482W        W27793  14.656  23.118   5.145
66483W        W27794  43.780  29.055   2.384
66484W        W27795  28.651  23.550   3.312
66485W        W27796  20.750  32.581   2.810
66486W        W27797  35.991  33.044  10.567
66487W        W27798  18.066  40.998  14.340
66488W        W27799  17.590  26.672   0.409
66489W        W27800  41.431  30.469   0.373
66490W        W27801  10.822   6.262   4.640
66491W        W27802  35.471  21.754   2.313
66492W        W27803  13.127   1.258   4.214
66493W        W27804  13.829   4.774   2.365
66494W        W27805  41.003  37.027   3.337
66495W        W27806  29.114  21.086  14.827
66496W        W27807   9.724   8.791  13.928
66497W        W27808   0.254  14.591   2.415
66498W        W27809  16.093   0.819   2.407
66499W        W27810  23.578   9.685   3.236
66500W        W27811   3.802  25.600  12.082
66501W        W27812  38.050  19.207  13.518
66502W        W27813  10.779   9.183   2.705
66503W        W27814  14.144  19.270  11.389
66504W        W27815   8.818  11.341   4.278
66505W        W27816   3.810  21.152  11.992
66506W        W27817  29.973   5.889  12.925
66507W        W27818   5.421  21.168  11.489
66508W        W27819  36.094  25.219  13.010
66509W        W27820   4.720  41.491  12.560
66510W        W27821  35.855   9.663   3.267
66511W        W27822  14.206   0.269   3.866
66512W        W27823  12.686  29.573   3.357
66513W        W27824  26.994  37.516   3.290
66514W        W27825  24.073  44.859   3.837
66515W        W27826  19.271  20.229   4.728
66516W        W27827  44.392  42.849  11.434
66517W        W27828  36.017  23.657   2.230
66518W        W27829  39.051   6.406   5.133
66519W        W27830  37.472  26.123   0.787
66520W        W27831   2.911  23.063   1.916
66521W        W27832  12.260  27.073  12.930
66522W        W27833  25.688  34.947   2.867
66523W        W27834  39.052  28.519  11.996
66524W        W27835  17.196  16.609   3.849
66525W        W27836  18.116  25.475   4.674
66526W        W27837  21.557   5.304   1.724
66527W        W27838  17.689  30.068   4.684
66528W        W27839  27.679   7.270   0.256
66529W        W27840  38.372  29.977  10.923
66530W        W27841  39.360  35.993   3.373
66531W        W27842  40.380  39.999  13.360
66532W        W27843  33.882  27.455  11.503
66533W        W27844   2.919  29.463   1.819
66534W        W27845  40.523  32.092  12.569
66535W        W27846  16.251  31.623  11.412
66536W        W27847   3.282   0.768  10.927
66537W        W27848  17.095  22.041  10.899
66538W        W27849   0.394  25.212  10.536
66539W        W27850  32.441  44.995   3.675
66540W        W27851   9.273  19.284   0.386
66541W        W27852  20.568   7.265   2.313
66542W        W27853   8.246  41.013  13.312
66543W        W27854  27.955   7.798  12.959
66544W        W27855  25.681   8.242  13.969
66545W        W27856  43.952   2.881   0.450
66546W        W27857  31.484  12.324  11.010
66547W        W27858   5.855  29.632  13.973
66548W        W27859  30.469   4.280  11.125
66549W        W27860   1.361   0.922  12.010
66550W        W27861   8.678  22.214  13.337
66551W        W27862   3.733  39.353   0.330
66552W        W27863  10.243   6.385   2.892
66553W        W27864  36.394  21.249   3.315
66554W        W27865  33.515  43.399   9.946
66555W        W27866  37.071  16.794  11.127
66556W        W27867  34.049  30.425  12.404
66557W        W27868  41.294  35.080   0.744
66558W        W27869  26.620  16.286   3.279
66559W        W27870  33.936  24.668  14.387
66560W        W27871  34.871   8.821   5.191
66561W        W27872  44.392  40.381  10.951
66562W        W27873  24.663  37.342   3.779
66563W        W27874  42.834  12.304  14.323
66564W        W27875  10.206  32.602  13.396
66565W        W27876  12.187  34.960  10.958
66566W        W27877  36.962  43.836  11.941
66567W        W27878  14.291   5.359   1.699
66568W        W27879   9.354  14.271   4.354
66569W        W27880  14.733   0.745  12.414
66570W        W27881  21.221  11.279   0.352
66571W        W27882  15.618  40.031  11.125
66572W        W27883  14.118  10.166   1.333
66573W        W27884  11.305  43.975  14.958
66574W        W27885  35.453  24.574  10.539
66575W        W27886  17.293  18.166   4.704
66576W        W27887  12.246   3.811   2.837
66577W        W27888  24.032  20.090  11.949
66578W        W27889  17.083  22.032   5.236
66579W        W27890  18.288  26.690  13.375
66580W        W27891  40.337  44.984  13.856
66581W        W27892   6.350  16.692   0.771
66582W        W27893  33.623  28.977   1.223
66583W        W27894  10.354  35.039   3.231
66584W        W27895   0.342  22.155  11.593
66585W        W27896  26.009  17.698  11.942
66586W        W27897   5.888   1.281   0.361
66587W        W27898  13.325  26.206   3.795
66588W        W27899  30.505  25.641   2.300
66589W        W27900  17.625  42.426  10.529
66590W        W27901   6.264  38.493   4.714
66591W        W27902   4.868  37.980   4.626
66592W        W27903  18.681  40.911  12.408
66593W        W27904   4.866  38.419  14.343
66594W        W27905  23.155  31.551   0.750
66595W        W27906  35.538   5.246   3.329
66596W        W27907  15.653  29.146  14.893
66597W        W27908  42.826  43.021   5.246
66598W        W27909   5.227  37.510  12.944
66599W        W27910  40.945  36.433   4.632
66600W        W27911   1.850   0.818  14.398
66601W        W27912  31.565  38.424   2.785
66602W        W27913  33.466  39.060   0.267
66603W        W27914  33.089  36.410   0.244
66604W        W27915  24.600   5.315  10.523
66605W        W27916  25.563  36.035  10.120
66606W        W27917  41.964  10.360  14.436
66607W        W27918   4.270  20.145  12.356
66608W        W27919  16.216  25.163   3.195
66609W        W27920  16.608  10.384  10.594
66610W        W27921  17.655  31.637   1.441
66611W        W27922  16.248   7.843   0.726
66612W        W27923  38.995  40.537  14.981
66613W        W27924   7.744  44.756   4.207
66614W        W27925   0.899  29.978  13.063
66615W        W27926  32.975  32.450  10.971
66616W        W27927   5.893  16.080   3.167
66617W        W27928   1.854  18.619   3.861
66618W        W27929   9.779  23.230  14.450
66619W        W27930   5.831  33.602   0.467
66620W        W27931  25.100  29.041   9.467
66621W        W27932  16.697   4.329  13.995
66622W        W27933  20.608   1.928   0.864
66623W        W27934  20.542  44.892   1.755
66624W        W27935   2.348  41.042  12.388
66625W        W27936  43.489  29.965   1.898
66626W        W27937  38.917  43.380   4.704
66627W        W27938  27.642  15.268   1.806
66628W        W27939  35.439  39.323   5.599
66629W        W27940  19.139   8.266  12.371
66630W        W27941   8.177  44.386   0.320
66631W        W27942   7.286  10.704   4.815
66632W        W27943  40.350   3.299  11.913
66633W        W27944   2.770  22.234  12.491
66634W        W27945  28.005   5.279  14.424
66635W        W27946  35.574  27.454   1.363
66636W        W27947   9.851   2.964   2.695
66637W        W27948  42.360  28.121   3.764
66638W        W27949  19.039  44.296   1.747
66639W        W27950  28.139  39.819  12.863
66640W        W27951  19.659  25.531  14.938
66641W        W27952  29.566   0.791   3.226
66642W        W27953  34.111  21.261  14.952
66643W        W27954  42.925  25.088  10.080
66644W        W27955  18.152  32.126  14.405
66645W        W27956   0.785  35.394  12.424
66646W        W27957  17.581   6.282  14.952
66647W        W27958   6.802   8.732   4.147
66648W        W27959  11.199  39.367  14.498
66649W        W27960  16.298  41.998   4.171
66650W        W27961  37.040   7.198   4.325
66651W        W27962  20.122  21.044   1.271
66652W        W27963   3.424   0.319  10.092
66653W        W27964  10.749   8.869  13.827
66654W        W27965  16.116  41.009  11.514
66655W        W27966  27.639  17.109  14.965
66656W        W27967   2.362  26.052   3.721
66657W        W27968  29.003  11.173  12.880
66658W        W27969   6.334  43.897   4.317
66659W        W27970  24.634  15.669   2.681
66660W        W27971  26.481  12.291   1.385
66661W        W27972  23.022  39.432   1.933
66662W        W27973  19.231  33.430   4.717
66663W        W27974  22.501  11.696  10.953
66664W        W27975   6.816   0.470  14.319
66665W        W27976   7.213  15.214  10.454
66666W        W27977  24.595  31.931  12.067
66667W        W27978  28.022   0.950  14.327
66668W        W27979   1.364   3.390   1.775
66669W        W27980  14.793  44.459   0.433
66670W        W27981   6.399   3.869   0.789
66671W        W27982   7.344  39.419   0.910
66672W        W27983  22.118  21.556  14.368
66673W        W27984  19.624   4.363   0.941
66674W        W27985  26.163   0.313  12.058
66675W        W27986  26.170  24.222  10.604
66676W        W27987   9.162  16.231   4.323
66677W        W27988  22.189  16.305   4.684
66678W        W27989   9.737  37.874   3.155
66679W        W27990  40.013   3.352  12.398
66680W        W27991   3.442  26.654  14.381
66681W        W27992  36.083   3.829   0.286
66682W        W27993   7.191  12.169   3.346
66683W        W27994  16.718  14.774   2.761
66684W        W27995  42.521   7.194   3.329
66685W        W27996  17.190  34.956  11.560
66686W        W27997  18.691  40.427   3.719
66687W        W27998  13.317  20.113   4.656
66688W        W27999  22.124  40.860   2.859
66689W        W28000  31.908  13.802  12.844
66690W        W28001  25.618   7.239  13.885
66691W        W28002  37.935  27.030   4.327
66692W        W28003  21.200  25.595  14.438
66693W        W28004  23.993   8.785  10.098
66694W        W28005   5.921  28.078   2.778
66695W        W28006   8.759  19.747  10.496
66696W        W28007  16.668  40.885   2.311
66697W        W28008  41.998  27.157   4.244
66698W        W28009   0.964  30.992   2.283
66699W        W28010  41.396  11.163  12.087
66700W        W28011  41.969  31.966  14.355
66701W        W28012  42.838  22.013  12.921
66702W        W28013  18.740  34.542   0.345
66703W        W28014  17.239  27.976   1.818
66704W        W28015  40.933  28.455  12.344
66705W        W28016  10.195  11.765  13.867
66706W        W28017  20.140  34.409  12.459
66707W        W28018   6.354  30.040  14.981
66708W        W28019  20.262  17.179  14.343
66709W        W28020  31.529  29.128  12.037
66710W        W28021  44.863  40.478   3.735
66711W        W28022  20.742  17.240  13.322
66712W        W28023  13.329  30.925   3.314
66713W        W28024  34.612  15.759  10.557
66714W        W28025  29.161  44.869   0.357
66715W        W28026  31.582  23.002   3.800
66716W        W28027  43.010  25.516  10.598
66717W        W28028   4.875  38.055  13.880
66718W        W28029   9.711  32.890  14.773
66719W        W28030  31.476  11.281  12.021
66720W        W28031  34.613  38.405   3.676
66721W        W28032  38.379  12.360  11.597
66722W        W28033  32.000   9.255   0.768
66723W        W28034  30.537  34.966  11.915
66724W        W28035   1.246  34.492   4.143
66725W        W28036  25.542  39.414   3.223
66726W        W28037  12.841  40.485   1.251
66727W        W28038  31.497  20.194   0.728
66728W        W28039  11.753  22.642  13.990
66729W        W28040  19.547  20.619   1.339
66730W        W28041  13.834  18.678  14.302
66731W        W28042  16.304   0.859   3.324
66732W        W28043  33.517   8.197  13.417
66733W        W28044  42.470  16.136  10.581
66734W        W28045  25.209  39.004   0.864
66735W        W28046  11.226  23.531  13.324
66736W        W28047  13.281  18.677  13.349
66737W        W28048  28.516   9.802   5.689
66738W        W28049  28.657  20.052   1.351
66739W        W28050  42.813  10.194   1.297
66740W        W28051  26.693  15.790  14.786
66741W        W28052  39.396  42.923   1.250
66742W        W28053  21.042  20.155   9.586
66743W        W28054  16.655  42.314  11.382
66744W        W28055  41.444  14.737   2.839
66745W        W28056  44.266  27.514   3.171
66746W        W28057  12.752  21.022  14.498
66747W        W28058  34.438  22.087  10.631
66748W        W28059  37.920  42.836  14.422
66749W        W28060   7.326   7.254   2.179
66750W        W28061  26.512  29.637  13.481
66751W        W28062  39.886  35.468  12.052
66752W        W28063  10.369  34.581  10.098
66753W        W28064  26.134  10.765  12.080
66754W        W28065   2.807  16.627  11.461
66755W        W28066   1.239  18.279  14.300
66756W        W28067  28.531   5.419  11.551
66757W        W28068  13.271  25.655   2.230
66758W        W28069  12.638   2.439   3.284
66759W        W28070   9.216  30.152  12.854
66760W        W28071  15.132  44.803   4.714
66761W        W28072  34.437  37.046   4.119
66762W        W28073  23.611  33.462  10.893
66763W        W28074  19.613  17.727   2.378
66764W        W28075  10.868  30.642   5.096
66765W        W28076  13.808  17.739  13.345
66766W        W28077  11.858  43.996  13.893
66767W        W28078  32.620  22.590  10.612
66768W        W28079  42.839  24.219   3.324
66769W        W28080  34.441  40.968  13.834
66770W        W28081  36.955  14.650  10.472
66771W        W28082  39.517  11.193   1.358
66772W        W28083  22.635  28.933  10.987
66773W        W28084  25.635   8.879  10.443
66774W        W28085  43.975  41.339   0.740
66775W        W28086  26.499  20.151   4.131
66776W        W28087  35.957  13.655  12.446
66777W        W28088  23.586  36.038  13.378
66778W        W28089  27.008   7.796   4.620
66779W        W28090   4.341   9.363  10.573
66780W        W28091  13.670  19.720   3.654
66781W        W28092  27.047   9.668   1.711
66782W        W28093  43.428  22.700   3.785
66783W        W28094  26.499   2.335  10.500
66784W        W28095  12.173  23.020  11.441
66785W        W28096  40.466   5.263  13.492
66786W        W28097  30.077  16.720   4.348
66787W        W28098  10.376   6.698  10.923
66788W        W28099   2.376  23.994   0.891
66789W        W28100  27.056  10.782   4.680
66790W        W28101  23.176  16.255   0.384
66791W        W28102  12.635  13.818  10.959
66792W        W28103  35.362  31.604   1.891
66793W        W28104  25.086  37.525   1.910
66794W        W28105  35.559  17.278   1.243
66795W        W28106  37.843  14.144   2.872
66796W        W28107  44.331   0.403  11.125
66797W        W28108  13.812  42.817   2.369
66798W        W28109   9.746   6.388  13.418
66799W        W28110  11.628  20.598   3.342
66800W        W28111  32.886  37.389   0.775
66801W        W28112  42.316  12.855  12.957
66802W        W28113  18.606  36.902  14.362
66803W        W28114  35.402   7.895  11.413
66804W        W28115  12.804  28.171   4.162
66805W        W28116  36.898  32.898  14.009
66806W        W28117  28.536  12.854  13.881
66807W        W28118  15.153   3.275  10.484
66808W        W28119  36.962   5.267  12.557
66809W        W28120  35.078  36.044   4.686
66810W        W28121  25.182   4.218  13.451
66811W        W28122  10.801  26.686   4.286
66812W        W28123  29.496  27.639  14.488
66813W        W28124  12.690  34.419   2.730
66814W        W28125  13.112  11.232  12.452
66815W        W28126  16.631  38.861   1.283
66816W        W28127   3.453   9.818   0.447
66817W        W28128  17.274  27.003   3.823
66818W        W28129  39.022   2.879   4.251
66819W        W28130  18.614  18.767  14.456
66820W        W28131  13.327   3.320   2.375
66821W        W28132  32.424  33.625   2.182
66822W        W28133  42.316  14.239   4.817
66823W        W28134  36.457   6.835  12.016
66824W        W28135  38.395  25.688  11.443
66825W        W28136   6.788  23.595  10.631
66826W        W28137  28.933  22.122  11.024
66827W        W28138   7.896  35.097  13.441
66828W        W28139   4.209   3.378   4.238
66829W        W28140  26.585  40.995   2.829
66830W        W28141  18.089   3.902   9.992
66831W        W28142  23.573  19.739   3.387
66832W        W28143   4.930   4.785   0.790
66833W        W28144  29.099  29.029   4.708
66834W        W28145  17.101  39.968   0.751
66835W        W28146  43.811  37.902  14.013
66836W        W28147  19.743  33.542  12.841
66837W        W28148  22.098  15.599   0.355
66838W        W28149  24.207  41.931   3.773
66839W        W28150  17.689   1.305   1.866
66840W        W28151  35.594   8.722  12.413
66841W        W28152  32.508   4.246  12.030
66842W        W28153   5.278  30.961  12.497
66843W        W28154  40.828  44.795  11.114
66844W        W28155  11.771  22.034   4.829
66845W        W28156   4.810  28.600  12.879
66846W        W28157  20.172  39.959  14.281
66847W        W28158  32.463  35.474  13.837
66848W        W28159  10.150  20.255   2.264
66849W        W28160  27.109  33.887  13.030
66850W        W28161  43.800  25.663   0.786
66851W        W28162   3.893  16.211  10.024
66852W        W28163   9.258  20.271   3.363
66853W        W28164  28.478  44.852  13.383
66854W        W28165  21.044  17.107   2.207
66855W        W28166  16.727   4.276   3.683
66856W        W28167   5.371  34.590  13.826
66857W        W28168  25.669  23.984  13.050
66858W        W28169  24.640   8.233   4.223
66859W        W28170  10.635  37.877  14.986
66860W        W28171  25.209  10.759  14.331
66861W        W28172  16.637  36.975   0.867
66862W        W28173   2.342  24.530   2.678
66863W        W28174  26.965  13.226   4.210
66864W        W28175  34.937  37.547  13.315
66865W        W28176  23.503  37.378  11.894
66866W        W28177  18.749  27.028   2.218
66867W        W28178   6.417   6.299   1.779
66868W        W28179  19.563   1.463   0.361
66869W        W28180   0.896  37.077  12.940
66870W        W28181   1.848  32.445   1.424
66871W        W28182  43.456  17.745  10.989
66872W        W28183  14.335  36.484  12.050
66873W        W28184   1.319  24.709   1.314
66874W        W28185  26.007   2.867   4.755
66875W        W28186  37.404  14.663   4.607
66876W        W28187  26.546  21.687   3.196
66877W        W28188  41.952  33.988  13.310
66878W        W28189  18.780   4.926  10.593
66879W        W28190  44.344  25.070  10.037
66880W        W28191  33.937  30.917  12.072
66881W        W28192   2.281   0.986   3.188
66882W        W28193  44.309   2.731   3.669
66883W        W28194  14.671  43.853   4.343
66884W        W28195  32.047  29.964   3.653
66885W        W28196  24.088   0.959  13.539
66886W        W28197   2.430   2.778  14.410
66887W        W28198   2.926  28.526   1.416
66888W        W28199  19.166   9.178   0.408
66889W        W28200   7.855   9.268  11.017
66890W        W28201   8.748  17.769   4.150
66891W        W28202  30.083  43.976  10.894
66892W        W28203  21.142  34.457  13.964
66893W        W28204  31.083   5.338   0.786
66894W        W28205  12.632  34.468   4.691
66895W        W28206  22.689  29.666   0.817
66896W        W28207  10.665  28.153   4.796
66897W        W28208  22.079  16.588   3.781
66898W        W28209  26.021  31.432  14.413
66899W        W28210  36.454  19.123  12.017
66900W        W28211  36.375   6.274   3.761
66901W        W28212  35.400  28.648   3.278
66902W        W28213  34.487  35.507   4.791
66903W        W28214  27.601  31.953  11.586
66904W        W28215  14.111  25.636  12.063
66905W        W28216  20.763  26.653  10.482
66906W        W28217   7.836  31.126  11.974
66907W        W28218   1.858  42.457   0.740
66908W        W28219  43.497  22.174  13.947
66909W        W28220  36.589  18.735  11.008
66910W        W28221  30.598  23.101   1.446
66911W        W28222  37.493  17.179  13.516
66912W        W28223   2.364  42.001  12.063
66913W        W28224   2.884   9.694  10.610
66914W        W28225  30.656  43.792   0.812
66915W        W28226  20.121   0.363   1.912
66916W        W28227   0.932  40.335   1.304
66917W        W28228   7.414   4.261  11.924
66918W        W28229  35.366  32.433   0.297
66919W        W28230  24.145  29.452  12.497
66920W        W28231   2.350  31.558   0.865
66921W        W28232  26.027  12.243   3.242
66922W        W28233   8.164  35.592   4.314
66923W        W28234  22.080  24.056  13.999
66924W        W28235  29.431   2.442   1.866
66925W        W28236  34.556  25.481  12.429
66926W        W28237  36.449  20.072   0.275
66927W        W28238   5.920  32.391  12.534
66928W        W28239  32.012  34.532   0.282
66929W        W28240  26.610  38.530   3.275
66930W        W28241  25.490  39.487   4.675
66931W        W28242  27.173   6.787  13.914
66932W        W28243  33.952  44.357  11.409
66933W        W28244  34.085  39.531  13.962
66934W        W28245  15.776   3.393   2.735
66935W        W28246  10.823  35.485   0.356
66936W        W28247  11.788  36.901   4.191
66937W        W28248  26.067  11.645  13.014
66938W        W28249  43.013  35.413  11.098
66939W        W28250  19.225  39.530  12.518
66940W        W28251  17.242  10.705  10.594
66941W        W28252  35.463   8.830  13.535
66942W        W28253  19.226  23.189   4.639
66943W        W28254  21.088  15.709   4.273
66944W        W28255  28.065  39.899   2.854
66945W        W28256  17.123   1.809   2.901
66946W        W28257  38.904  14.788   3.286
66947W        W28258  23.540  13.610   3.763
66948W        W28259  15.203  32.392   4.141
66949W        W28260  21.098   6.678   5.205
66950W        W28261   9.655  10.377   2.328
66951W        W28262  39.322  43.370   3.206
66952W        W28263   0.985   5.858  12.053
66953W        W28264  36.524  37.076  13.479
66954W        W28265  22.124   0.450   4.786
66955W        W28266  17.788  16.633  12.846
66956W        W28267   7.174  37.420  14.031
66957W        W28268  38.905  38.977   2.187
66958W        W28269  29.154  14.276   1.243
66959W        W28270  15.821  13.120   2.366
66960W        W28271  31.581  32.459   3.165
66961W        W28272   5.727  42.298  12.040
66962W        W28273  16.297   3.797   3.831
66963W        W28274  36.866  20.762  13.430
66964W        W28275   4.925  25.524  13.487
66965W        W28276  40.857  31.053  11.864
66966W        W28277  41.528  22.239   4.674
66967W        W28278  32.030   6.283  13.325
66968W        W28279  12.757  28.006  13.953
66969W        W28280  29.557  39.056   2.359
66970W        W28281  26.025  20.561  14.406
66971W        W28282  32.600  26.672   3.666
66972W        W28283  29.661  44.301   0.381
66973W        W28284  21.060  43.940  13.884
66974W        W28285  44.386  25.641  12.507
66975W        W28286  41.486  21.057   4.170
66976W        W28287   9.788   3.898   0.467
66977W        W28288  34.046   7.681  13.418
66978W        W28289  20.223  10.247   4.686
66979W        W28290  29.111  15.607   3.759
66980W        W28291  32.922   7.818  10.501
66981W        W28292  37.870   3.875   3.353
66982W        W28293  37.428  24.570  14.292
66983W        W28294   7.292  27.630  11.436
66984W        W28295   0.327   7.686   3.175
66985W        W28296  13.286  28.485   1.243
66986W        W28297  38.340  12.698   0.354
66987W        W28298  25.171  14.094  12.396
66988W        W28299   6.860  25.637   1.799
66989W        W28300   8.843  32.070  13.310
66990W        W28301  19.682  23.505  13.415
66991W        W28302  12.252  20.225   2.737
66992W        W28303  33.912  27.525   1.832
66993W        W28304  23.702  11.863  13.833
66994W        W28305  28.156  10.722  10.025
66995W        W28306  42.928  35.455   0.413
66996W        W28307  14.715  21.707   0.481
66997W        W28308  19.085   9.709   1.434
66998W        W28309  28.014   1.875   0.812
66999W        W28310  30.062  22.022  13.056
67000W        W28311  42.329  21.731   3.257
67001W        W28312   9.170   0.760   0.904
67002W        W28313   9.700  33.093  11.108
67003W        W28314   9.343  43.276   4.751
67004W        W28315   6.683  18.577   3.750
67005W        W28316  42.028  12.234  13.984
67006W        W28317  17.591  16.667   4.273
67007W        W28318  14.757   2.882   0.471
67008W        W28319  23.238  19.070  11.528
67009W        W28320   0.466  26.618  10.089
67010W        W28321  44.436   6.388   2.340
67011W        W28322  10.338   4.872   3.780
67012W        W28323  11.318  27.544   4.201
67013W        W28324  16.190   9.288  12.405
67014W        W28325  43.890   4.750  11.437
67015W        W28326  14.652   1.467   3.151
67016W        W28327  13.821  25.176   2.283
67017W        W28328  37.896  25.103  13.056
67018W        W28329  26.697   2.237   0.853
67019W        W28330  24.035   9.715  14.861
67020W        W28331  35.413   8.306  13.046
67021W        W28332   0.972  38.002   3.164
67022W        W28333   1.835   0.263   3.829
67023W        W28334  12.235  25.198  13.418
67024W        W28335  19.199   7.249  12.459
67025W        W28336  14.240  32.977   4.278
67026W        W28337  31.053   6.188  12.484
67027W        W28338  18.755  32.440   3.761
67028W        W28339   6.380  22.645  12.537
67029W        W28340  40.380   8.657  13.316
67030W        W28341  34.385  26.051   1.854
67031W        W28342   9.388  13.712   1.353
67032W        W28343  26.011   2.349  11.454
67033W        W28344  35.066  23.239  14.020
67034W        W28345  42.960  19.098   1.858
67035W        W28346   6.420  17.206  11.894
67036W        W28347  23.094  32.472  12.000
67037W        W28348  41.886  37.504   3.780
67038W        W28349  28.545  30.149  13.970
67039W        W28350  35.486  18.780   4.650
67040W        W28351  12.256  35.882  11.873
67041W        W28352   5.854  14.186   4.700
67042W        W28353  36.987  38.967   3.272
67043W        W28354  29.165  44.815  13.807
67044W        W28355  41.484  27.690  12.352
67045W        W28356  32.594  39.935  12.388
67046W        W28357  12.309  34.110  13.352
67047W        W28358  29.652  37.509   4.662
67048W        W28359  41.962   9.682  10.554
67049W        W28360  37.353  35.373   3.805
67050W        W28361  20.031  39.028  14.378
67051W        W28362   6.775   9.206  12.341
67052W        W28363  31.446  35.913   1.785
67053W        W28364  15.680   6.307   5.196
67054W        W28365  24.709  44.836   4.239
67055W        W28366  43.386  21.092  10.473
67056W        W28367   9.703  21.687  10.957
67057W        W28368  12.766  33.122  10.433
67058W        W28369  41.015  26.545  13.374
67059W        W28370   9.811  14.197  14.296
67060W        W28371  32.534   2.833   1.274
67061W        W28372  41.033   1.345  11.390
67062W        W28373  28.501  34.457   4.825
67063W        W28374  19.056  18.082  12.388
67064W        W28375   8.843  37.346   0.877
67065W        W28376   0.855  24.150  11.087
67066W        W28377  36.927  13.140  13.394
67067W        W28378   5.704   8.886  12.896
67068W        W28379  21.559  27.677   5.114
67069W        W28380  34.495   7.742  11.419
67070W        W28381   2.726   2.919   3.682
67071W        W28382  11.362  29.941  12.858
67072W        W28383  22.635  15.628   1.343
67073W        W28384  17.700   5.746   0.459
67074W        W28385  26.652  24.981  10.571
67075W        W28386  43.989  16.125   1.407
67076W        W28387  23.527  32.629  12.941
67077W        W28388  10.212  40.344  10.594
67078W        W28389  19.755   5.691   4.821
67079W        W28390  15.788  36.065  13.542
67080W        W28391  19.668  37.925  14.897
67081W        W28392   2.800  37.013   1.768
67082W        W28393  15.194   6.234  10.501
67083W        W28394  35.897  20.567   2.401
67084W        W28395  27.186  12.218  13.837
67085W        W28396  35.459  29.487   3.327
67086W        W28397  39.347  41.395   2.863
67087W        W28398  41.496  25.580  13.364
67088W        W28399  17.653   1.874  13.003
67089W        W28400   0.778  24.131   1.211
67090W        W28401  25.213  44.284   1.695
67091W        W28402  37.397  30.028   2.719
67092W        W28403   2.463  35.941  10.485
67093W        W28404  19.237  13.680   1.759
67094W        W28405  14.237   1.897   0.770
67095W        W28406   3.873   1.942  11.874
67096W        W28407  39.336   1.898  13.397
67097W        W28408  23.523  31.577   3.267
67098W        W28409   9.794  33.437  13.908
67099W        W28410   3.736  27.460  12.468
67100W        W28411  41.414  17.204   4.627
67101W        W28412  44.846  12.168  14.987
67102W        W28413  39.340  29.563  13.362
67103W        W28414   2.300   5.239  12.059
67104W        W28415  44.950  20.270   4.697
67105W        W28416  26.528  11.183   0.295
67106W        W28417  33.880  36.554  11.071
67107W        W28418  30.955  13.330   0.784
67108W        W28419  15.182  23.592   2.754
67109W        W28420   3.937  24.570   1.862
67110W        W28421  40.316  17.224  13.518
67111W        W28422  21.147  25.657  10.429
67112W        W28423  40.429  36.066   4.706
67113W        W28424  42.023  44.859  12.469
67114W        W28425  30.086  22.108  14.333
67115W        W28426  13.178   9.291  12.073
67116W        W28427  33.599  27.658  14.411
67117W        W28428   2.331  22.626   5.085
67118W        W28429   0.792   4.248   2.901
67119W        W28430  19.779   9.192  12.441
67120W        W28431  41.804  37.945   4.718
67121W        W28432  22.081  16.738  11.470
67122W        W28433  17.659  40.846   3.822
67123W        W28434   9.685  35.573  12.533
67124W        W28435  26.956  38.556   2.208
67125W        W28436  31.132  35.428  11.089
67126W        W28437  38.075  13.814   2.354
67127W        W28438  12.144   5.772   4.635
67128W        W28439  39.551  11.211   3.184
67129W        W28440  15.173  32.628   0.775
67130W        W28441  15.200  18.653   0.479
67131W        W28442  29.149  10.140   2.840
67132W        W28443  16.286  28.585   3.205
67133W        W28444  36.993  17.132   0.728
67134W        W28445  39.014  34.932   0.836
67135W        W28446   2.965  22.218  11.505
67136W        W28447  32.059  14.257   3.265
67137W        W28448  15.765  20.069   0.945
67138W        W28449   6.702  36.353  14.438
67139W        W28450  35.386   9.263   1.776
67140W        W28451  13.235  23.594   9.519
67141W        W28452  19.617  27.560   3.312
67142W        W28453  43.428  44.760   4.717
67143W        W28454   7.793  41.921   2.360
67144W        W28455  14.230   2.372  10.431
67145W        W28456  19.537  21.572  12.524
67146W        W28457  41.856  18.113   5.125
67147W        W28458  35.511  18.194  14.409
67148W        W28459  25.630  22.695  13.362
67149W        W28460  14.298  34.988  12.827
67150W        W28461  27.012   4.778   5.201
67151W        W28462  10.833   2.742   3.332
67152W        W28463  15.659  42.961   0.842
67153W        W28464  28.618  31.130   0.349
67154W        W28465  44.964  35.963   4.721
67155W        W28466  38.876   9.716   1.413
67156W        W28467  14.203  43.944  10.079
67157W        W28468   9.262  41.463  14.859
67158W        W28469  44.445  32.971   4.194
67159W        W28470  18.693  13.316  13.972
67160W        W28471  10.855   4.274   0.441
67161W        W28472  20.163  37.378  13.509
67162W        W28473   9.278  28.079   9.960
67163W        W28474  15.151  35.556   0.966
67164W        W28475  11.330  40.333   2.393
67165W        W28476  33.386  42.841   0.936
67166W        W28477  25.112  26.563   3.636
67167W        W28478  16.797  40.882   1.704
67168W        W28479   1.886  35.589   0.800
67169W        W28480  31.051  27.682   4.330
67170W        W28481   5.792   0.315  14.408
67171W        W28482   7.298  35.955  10.447
67172W        W28483   0.447  22.606   4.625
67173W        W28484  25.182  32.967   4.288
67174W        W28485  35.409  15.111  12.090
67175W        W28486   8.862  24.032  11.924
67176W        W28487  31.462  15.255   2.743
67177W        W28488  34.525  43.822   3.172
67178W        W28489  36.370  41.901  12.970
67179W        W28490  15.293  37.452  14.020
67180W        W28491  30.442  15.085   2.409
67181W        W28492  32.630   9.852  13.336
67182W        W28493  35.015  34.910  10.954
67183W        W28494  20.141  12.220   2.767
67184W        W28495  24.643  36.491   0.907
67185W        W28496   9.667  40.882   3.263
67186W        W28497  15.729  19.210  12.556
67187W        W28498  29.013  27.505  11.950
67188W        W28499   5.850   8.861   4.729
67189W        W28500  22.172   4.251   2.203
67190W        W28501   9.857   1.331  10.591
67191W        W28502  28.973  19.109   3.315
67192W        W28503  42.317   6.292  11.577
67193W        W28504   7.810  28.951  10.957
67194W        W28505  24.992  38.932   2.663
67195W        W28506  28.451   7.873   2.403
67196W        W28507  29.133  26.987  11.049
67197W        W28508  24.112  36.545  13.512
67198W        W28509  13.129  27.062  14.985
67199W        W28510  12.242  34.525  12.525
67200W        W28511   2.830  33.933  12.942
67201W        W28512  18.779  30.024   0.250
67202W        W28513  23.071  12.229   1.848
67203W        W28514   0.745  15.663  13.407
67204W        W28515  43.903  19.699   5.169
67205W        W28516   1.261   6.376  12.562
67206W        W28517   9.324  31.088  13.443
67207W        W28518   2.952  12.711   2.846
67208W        W28519  33.054  20.571  12.009
67209W        W28520  30.085  39.385  14.973
67210W        W28521   1.840  13.111   1.331
67211W        W28522  11.168  25.119   2.178
67212W        W28523  19.276  29.435   0.330
67213W        W28524  11.257  15.207   3.707
67214W        W28525  21.029   9.646  13.049
67215W        W28526  38.058  29.518  11.959
67216W        W28527   1.923  35.396   0.399
67217W        W28528   0.360  25.512   0.418
67218W        W28529  13.605   9.247  13.062
67219W        W28530  39.451  27.672  13.874
67220W        W28531  18.625  43.286  10.475
67221W        W28532  19.657  35.550   2.689
67222W        W28533   3.792  28.021   4.703
67223W        W28534  40.497  12.773   5.087
67224W        W28535  33.881  22.528   2.392
67225W        W28536  12.763   6.776   0.921
67226W        W28537   1.787  13.619  12.885
67227W        W28538  38.519  25.563   4.785
67228W        W28539  41.911  36.980  14.409
67229W        W28540  33.555  31.016   4.196
67230W        W28541  35.543  29.023   1.699
67231W        W28542  22.182  15.774  14.291
67232W        W28543  16.297  32.528  14.455
67233W        W28544  10.695  40.034   2.353
67234W        W28545  10.735  20.583   2.737
67235W        W28546   8.818  30.983   4.245
67236W        W28547  35.932  40.969   3.776
67237W        W28548  43.420   1.465   2.787
67238W        W28549  34.969  23.063   1.404
67239W        W28550   3.432  25.020   1.845
67240W        W28551   8.163   0.352  14.325
67241W        W28552  36.426  22.219  14.384
67242W        W28553  34.555  36.407   2.897
67243W        W28554  37.524  44.810   2.829
67244W        W28555  44.813  41.018  13.491
67245W        W28556   2.753   7.850  11.958
67246W        W28557   2.361  20.230   3.631
67247W        W28558  11.709  15.791   4.770
67248W        W28559  36.505   4.856  14.449
67249W        W28560   6.833   5.804  14.809
67250W        W28561  36.537  32.062   3.318
67251W        W28562  34.497  28.629  14.032
67252W        W28563  10.685  36.371  14.926
67253W        W28564   1.817  27.500   1.764
67254W        W28565   5.864  11.179   2.781
67255W        W28566  18.790   9.773   0.897
67256W        W28567  38.459  25.123  14.511
67257W        W28568   3.446  10.360  10.916
67258W        W28569  29.930  41.466  13.533
67259W        W28570  10.337  41.922   4.229
67260W        W28571  21.592   1.390   3.277
67261W        W28572  34.085  29.099   4.752
67262W        W28573  28.067  24.075  14.997
67263W        W28574  16.727   9.790  14.354
67264W        W28575   2.433  31.009   3.260
67265W        W28576   7.687  24.005  13.425
67266W        W28577   0.462  26.592  10.567
67267W        W28578  30.422  18.749  10.969
67268W        W28579  39.338  34.561  13.337
67269W        W28580  29.490   2.744  12.841
67270W        W28581   3.825  39.438  13.516
67271W        W28582  23.493   0.872   4.621
67272W        W28583  20.691  26.115  14.355
67273W        W28584  21.094  12.814   1.295
67274W        W28585  27.182   9.169  12.979
67275W        W28586  12.342  21.652  10.621
67276W        W28587  16.095  31.612  11.942
67277W        W28588  20.118  16.658   4.332
67278W        W28589   0.447  40.945  13.510
67279W        W28590  37.948  16.158   4.292
67280W        W28591  28.677  18.248  13.999
67281W        W28592  42.464   3.253  11.540
67282W        W28593   9.788  22.513  10.601
67283W        W28594  32.559  15.301   3.816
67284W        W28595  11.663  16.790  13.938
67285W        W28596  24.145  36.067   2.375
67286W        W28597  34.087  33.489  14.418
67287W        W28598  38.872  41.329   3.757
67288W        W28599  28.014  17.629  14.452
67289W        W28600   0.767  10.365  11.525
67290W        W28601   9.379  42.330  14.510
67291W        W28602  28.674  44.956  12.849
67292W        W28603  41.450  39.825  11.547
67293W        W28604   9.282  15.717   0.809
67294W        W28605  27.485  21.579  12.017
67295W        W28606  24.218   4.704   0.786
67296W        W28607  15.578  36.086   2.370
67297W        W28608  29.465  24.593  14.365
67298W        W28609  20.048  10.779   4.225
67299W        W28610  22.516  17.710   4.173
67300W        W28611  25.148  44.336   2.735
67301W        W28612  28.141  25.021   2.398
67302W        W28613  18.263  26.134   3.715
67303W        W28614   5.913  35.509   0.811
67304W        W28615  18.611  41.009   2.683
67305W        W28616   6.800  33.909   2.662
67306W        W28617  29.059  37.037  13.375
67307W        W28618  36.862  36.365   4.326
67308W        W28619   7.803  35.541   0.859
67309W        W28620  14.228  36.029   1.737
67310W        W28621   1.808  26.153   4.189
67311W        W28622  10.874   0.250   3.806
67312W        W28623   8.384  32.924   3.385
67313W        W28624  10.151  22.610  14.019
67314W        W28625   7.317  40.394   2.251
67315W        W28626   2.888  18.677   0.478
67316W        W28627   0.947  39.024   3.166
67317W        W28628   0.445   8.235   1.228
67318W        W28629  17.702   4.758   3.173
67319W        W28630  26.681   9.649  14.951
67320W        W28631  27.581  39.421   1.224
67321W        W28632  42.891  20.761  12.504
67322W        W28633  27.973  10.218  10.115
67323W        W28634  29.033  22.572   2.328
67324W        W28635  24.486   5.199  14.296
67325W        W28636  37.949  20.123   0.866
67326W        W28637  23.079   2.288  13.832
67327W        W28638  12.672   4.805  11.954
67328W        W28639  24.675   8.224   3.792
67329W        W28640  22.679   1.269  13.932
67330W        W28641  39.046  22.570  14.797
67331W        W28642  35.568  43.513   1.424
67332W        W28643  34.578  31.145  12.939
67333W        W28644  25.673   1.446  10.921
67334W        W28645  23.694  32.590  10.627
67335W        W28646  41.473  40.421  13.959
67336W        W28647  38.377  19.106   1.355
67337W        W28648   0.862   7.414   1.450
67338W        W28649  14.340  24.693  14.467
67339W        W28650  13.284  32.555   1.695
67340W        W28651  35.487  37.053   1.352
67341W        W28652  27.186   1.929  14.787
67342W        W28653   0.910  42.488   4.833
67343W        W28654  40.441  39.810  10.595
67344W        W28655  27.175  20.084  14.321
67345W        W28656  32.026   0.932  14.929
67346W        W28657  38.069  26.020  12.866
67347W        W28658  20.580  24.718  14.482
67348W        W28659  26.009   6.294   0.958
67349W        W28660  42.416  27.180   1.759
67350W        W28661  22.015   2.372   0.247
67351W        W28662   6.356   1.828  12.041
67352W        W28663  37.935  19.747   4.353
67353W        W28664  21.080  30.422   4.698
67354W        W28665  21.180  31.566  14.823
67355W        W28666  18.768  15.769  13.401
67356W        W28667  30.080   5.222   2.299
67357W        W28668  43.838  19.078   3.356
67358W        W28669  38.415  25.475  13.962
67359W        W28670  32.399  31.638  12.503
67360W        W28671  23.124   5.929  14.826
67361W        W28672  31.004  10.830   1.721
67362W        W28673  25.642  43.903   2.800
67363W        W28674  30.633  32.436   3.315
67364W        W28675  18.171  40.414  11.499
67365W        W28676   4.805  32.087   2.346
67366W        W28677  14.616   0.266  14.882
67367W        W28678  38.382   7.412   4.833
67368W        W28679  44.817  11.246  13.833
67369W        W28680  29.575  17.780   1.441
67370W        W28681  29.577  32.619  12.840
67371W        W28682  25.140  44.872  12.865
67372W        W28683  16.676  11.210   5.769
67373W        W28684   3.423  44.793  13.331
67374W        W28685  35.507  39.846   0.926
67375W        W28686  17.269   5.876   3.268
67376W        W28687  21.632  33.052  13.850
67377W        W28688  33.484  42.315   0.248
67378W        W28689  24.000   1.933  10.538
67379W        W28690  27.177  13.148  11.006
67380W        W28691  23.213   4.210  12.935
67381W        W28692   3.313   1.925  13.910
67382W        W28693  43.935  44.272  12.980
67383W        W28694   4.751  20.109   3.846
67384W        W28695  39.336  39.927   2.692
67385W        W28696  22.706  24.668  14.407
67386W        W28697  11.841   4.249   4.689
67387W        W28698  42.497  22.587   1.237
67388W        W28699  44.907  37.881   1.378
67389W        W28700   4.712  38.848  13.466
67390W        W28701  24.197  24.661  13.417
67391W        W28702  32.439  38.417  11.605
67392W        W28703   2.379   3.235   0.395
67393W        W28704  10.187  31.513  13.326
67394W        W28705   3.839  13.627   3.785
67395W        W28706  41.789  43.365   4.661
67396W        W28707  37.052  32.559  11.478
67397W        W28708   7.373  34.979   3.363
67398W        W28709   3.451  34.379   3.269
67399W        W28710  38.869   5.879   2.318
67400W        W28711  36.854  32.905  11.528
67401W        W28712   5.329   2.416  11.953
67402W        W28713  31.023  33.008  13.019
67403W        W28714  36.439  17.751  13.997
67404W        W28715  43.358  31.569  12.851
67405W        W28716   2.316  22.120  14.423
67406W        W28717   1.883  14.737   2.366
67407W        W28718  23.711  10.180  11.975
67408W        W28719  20.035  36.900  13.498
67409W        W28720  33.012  44.447   3.791
67410W        W28721   7.741  19.257  13.010
67411W        W28722  18.228  18.200  13.407
67412W        W28723  16.073  17.122  11.897
67413W        W28724  24.174  34.009  11.437
67414W        W28725  32.919  18.052  11.437
67415W        W28726  29.545  23.141   2.246
67416W        W28727  11.139  18.699   0.252
67417W        W28728  28.521   6.886   3.829
67418W        W28729   1.970  42.512   1.865
67419W        W28730  32.106  15.631  13.531
67420W        W28731   5.814   6.282   0.347
67421W        W28732   6.857  12.644  12.077
67422W        W28733   9.772  43.468  13.546
67423W        W28734  21.135   4.299   4.236
67424W        W28735  25.614   4.438   2.689
67425W        W28736  16.084  27.634   3.774
67426W        W28737  25.977  31.119  11.496
67427W        W28738   5.407  38.845   2.364
67428W        W28739   6.900  18.245  10.918
67429W        W28740  28.482  21.685  11.039
67430W        W28741   4.239  42.807   2.879
67431W        W28742  23.184  24.578  11.069
67432W        W28743  33.021  34.489  14.982
67433W        W28744  19.175   8.883  11.447
67434W        W28745  18.197  21.520   3.819
67435W        W28746  20.548  18.754   9.954
67436W        W28747  12.191  33.411  13.884
67437W        W28748  21.125  31.481  14.025
67438W        W28749  23.576  37.032  11.078
67439W        W28750  12.659  29.078  10.957
67440W        W28751  12.718  18.587   4.633
67441W        W28752   7.184   4.215  11.121
67442W        W28753  35.517  20.585   1.781
67443W        W28754   0.815  11.326   1.781
67444W        W28755  24.636  22.043   1.862
67445W        W28756  31.111   5.772  13.900
67446W        W28757   5.404  28.462   1.383
67447W        W28758  43.302  12.612   0.785
67448W        W28759  35.892  35.011  12.918
67449W        W28760  11.648   9.188   2.199
67450W        W28761  23.675  22.573   3.763
67451W        W28762  24.139  32.489  12.461
67452W        W28763   6.858  14.626  13.487
67453W        W28764  41.428  36.977  14.946
67454W        W28765  34.439   7.343   3.335
67455W        W28766  29.471   5.708  11.899
67456W        W28767  16.575  13.644  14.989
67457W        W28768  38.510  13.248   0.475
67458W        W28769  19.723  24.645  14.899
67459W        W28770  31.572  31.075  10.480
67460W        W28771  43.821  42.893   1.859
67461W        W28772  34.905   1.437  11.879
67462W        W28773  21.122  38.508  11.984
67463W        W28774  40.951  13.261  10.506
67464W        W28775  44.278  19.131   4.685
67465W        W28776  23.529  31.573  13.433
67466W        W28777  42.984  37.002   0.472
67467W        W28778  39.880  41.321   4.643
67468W        W28779  39.881  40.020   2.831
67469W        W28780   2.746  25.653   1.919
67470W        W28781  10.352  30.924   3.698
67471W        W28782   4.864  44.960   1.256
67472W        W28783   7.179  19.680   1.213
67473W        W28784  21.512  23.666   1.234
67474W        W28785  42.431  39.530  13.450
67475W        W28786   1.771  16.573   4.704
67476W        W28787  19.123  41.804   0.257
67477W        W28788  22.162  21.229   4.281
67478W        W28789  27.143   7.845  14.838
67479W        W28790  42.986  14.302   5.237
67480W        W28791  28.024   6.363   2.278
67481W        W28792  42.836  37.416   4.295
67482W        W28793  43.324   9.369   2.716
67483W        W28794  17.596   4.828   2.378
67484W        W28795  14.814  26.496   0.416
67485W        W28796  33.575  36.871   1.835
67486W        W28797  41.819   7.331   3.172
67487W        W28798  24.202   6.760  12.888
67488W        W28799  24.042  27.447   0.400
67489W        W28800  30.518  44.902   0.254
67490W        W28801  27.990   2.271  10.610
67491W        W28802  29.572   2.455   4.838
67492W        W28803  12.335   2.938   2.187
67493W        W28804   8.339  43.319   2.258
67494W        W28805   8.820  44.434   5.185
67495W        W28806  39.972  37.378   3.798
67496W        W28807   0.346   2.240   3.172
67497W        W28808  12.715  13.270   2.340
67498W        W28809  22.659  17.709  14.028
67499W        W28810  21.663  19.085   9.624
67500W        W28811  15.111   6.280  11.949
67501W        W28812  25.174  16.611   2.387
67502W        W28813   1.732  29.598   3.694
67503W        W28814  43.302  22.555   3.206
67504W        W28815  24.230  25.635   2.414
67505W        W28816  38.552  29.944   2.331
67506W        W28817  39.326   8.162   0.455
67507W        W28818  15.647  38.335   0.889
67508W        W28819  11.187  27.528  12.843
67509W        W28820  16.651  32.616  12.459
67510W        W28821  40.460   2.859  14.959
67511W        W28822  15.114  30.613  12.999
67512W        W28823  13.225   1.313   2.858
67513W        W28824   4.224  14.816  14.388
67514W        W28825  16.120  23.529   9.990
67515W        W28826  30.163  41.443  14.803
67516W        W28827   8.810  43.989  12.829
67517W        W28828  28.117  23.227  13.485
67518W        W28829  42.000  42.344   4.274
67519W        W28830  21.636  25.032   4.311
67520W        W28831  20.039  36.919   0.950
67521W        W28832  20.709  16.090   1.227
67522W        W28833   3.772  16.639  11.855
67523W        W28834  28.555   3.235   1.900
67524W        W28835  15.602   1.865   2.340
67525W        W28836  11.701  25.092  13.902
67526W        W28837  36.021   2.415  10.412
67527W        W28838   1.402  20.602   2.255
67528W        W28839  40.987  26.982  12.042
67529W        W28840  31.142  29.957  13.955
67530W        W28841  16.088  24.038  13.335
67531W        W28842  26.474   1.914   2.846
67532W        W28843  36.423   6.919   2.745
67533W        W28844  25.648  30.152   2.881
67534W        W28845   6.752  24.635   1.749
67535W        W28846  12.158  40.446  11.375
67536W        W28847  10.162  37.048  10.520
67537W        W28848  36.990   5.324  14.458
67538W        W28849  20.701   7.739  13.955
67539W        W28850   4.773  25.576  11.041
67540W        W28851   4.427  44.963  10.981
67541W        W28852   9.670   6.368   3.183
67542W        W28853  18.759  15.702   0.774
67543W        W28854  10.768  38.392  11.435
67544W        W28855  20.752  13.165  13.310
67545W        W28856   5.735  15.084  10.583
67546W        W28857   1.912  15.809   2.415
67547W        W28858  35.474  16.316   3.378
67548W        W28859  39.888   6.708  13.984
67549W        W28860  39.484  35.358  13.809
67550W        W28861  12.266  33.019  10.988
67551W        W28862  23.625   0.379  14.851
67552W        W28863  35.505  37.521   3.328
67553W        W28864  31.526  15.732  12.080
67554W        W28865   7.857  29.496   4.729
67555W        W28866   4.427  39.490  13.383
67556W        W28867   6.756  21.168   2.262
67557W        W28868  17.094   5.373   5.104
67558W        W28869  24.221  38.451  10.563
67559W        W28870  18.276  10.216   4.229
67560W        W28871  11.299   1.385   4.649
67561W        W28872  28.933  13.134   4.752
67562W        W28873  30.609  34.875   4.226
67563W        W28874  10.699  28.051  12.968
67564W        W28875  15.150  27.620   0.894
67565W        W28876   5.836  33.983  14.423
67566W        W28877  36.907  39.469   1.713
67567W        W28878  21.149  36.910   3.205
67568W        W28879  35.508  30.481  12.882
67569W        W28880  37.564   1.814  10.585
67570W        W28881  30.569  29.650  14.012
67571W        W28882  10.215  20.538  12.888
67572W        W28883  44.929  36.590  10.950
67573W        W28884  20.041  19.162   3.157
67574W        W28885  37.023   3.884  12.894
67575W        W28886  10.742  26.555  14.903
67576W        W28887  30.076   3.415  13.832
67577W        W28888   7.780  23.139   0.287
67578W        W28889  40.897  42.796   3.240
67579W        W28890  43.512   1.278  13.383
67580W        W28891  13.741   6.256  11.414
67581W        W28892  44.400  37.047  10.969
67582W        W28893  23.676  38.461  14.348
67583W        W28894   5.397  32.040  12.470
67584W        W28895  44.391  35.022   5.208
67585W        W28896  35.994  22.129   2.708
67586W        W28897   5.756  43.845  11.509
67587W        W28898  26.527  37.058   3.724
67588W        W28899  11.838  28.109   4.290
67589W        W28900  27.569  27.007  12.371
67590W        W28901   1.930  26.458   3.318
67591W        W28902   7.272  33.937  10.935
67592W        W28903   9.653  29.001  12.381
67593W        W28904  34.864  42.812  10.906
67594W        W28905   8.387  22.200   0.261
67595W        W28906  27.661  33.532   1.840
67596W        W28907  20.064   2.281  12.974
67597W        W28908   5.223   2.764  11.422
67598W        W28909  18.749  40.917   5.640
67599W        W28910   5.919   4.240  13.843
67600W        W28911   0.468  12.174   1.388
67601W        W28912   8.373  22.177   2.673
67602W        W28913  19.211  38.828  11.051
67603W        W28914   5.286   0.383  11.920
67604W        W28915   6.233  30.939  11.040
67605W        W28916  37.073   3.386  10.430
67606W        W28917   9.799  41.821  11.469
67607W        W28918  37.359  25.967   1.839
67608W        W28919  18.202  10.775  10.547
67609W        W28920   7.802  37.532   2.813
67610W        W28921   0.824  28.532  13.940
67611W        W28922  10.329  19.762  10.538
67612W        W28923  44.757  22.609  13.017
67613W        W28924  21.116   8.715  11.591
67614W        W28925  39.319  18.675   0.334
67615W        W28926   1.861  30.611  13.057
67616W        W28927  10.208  21.512   4.342
67617W        W28928   7.720  19.135   3.657
67618W        W28929  29.477  27.144  11.491
67619W        W28930  23.092   8.385  12.938
67620W        W28931  30.923   1.307   1.744
67621W        W28932  13.195  11.750  13.870
67622W        W28933  22.740  33.442  11.612
67623W        W28934  36.079  16.755  13.447
67624W        W28935  34.440   1.457  12.388
67625W        W28936  33.077  15.136  12.375
67626W        W28937  18.130  18.590  10.028
67627W        W28938   7.250  14.244   1.403
67628W        W28939  39.328  20.192   0.781
67629W        W28940  39.454  30.426   2.873
67630W        W28941  39.860   1.468  14.906
67631W        W28942  16.160  20.674  14.457
67632W        W28943  38.330  16.586   0.458
67633W        W28944  43.372   2.860   2.711
67634W        W28945  18.101  11.851  10.574
67635W        W28946  39.333  44.372   3.236
67636W        W28947   3.405   0.279  11.897
67637W        W28948  34.442   4.816  14.292
67638W        W28949  30.513  37.531  12.561
67639W        W28950   4.894  33.876   1.243
67640W        W28951  19.096  23.523   2.668
67641W        W28952  37.373  22.079  11.107
67642W        W28953  39.912  19.101   2.299
67643W        W28954  33.588   8.844   4.661
67644W        W28955  24.617   8.757  11.883
67645W        W28956   1.788  12.216   4.631
67646W        W28957   8.316   4.372  14.453
67647W        W28958   8.254  20.721   4.805
67648W        W28959  41.508  38.431   4.158
67649W        W28960  19.222  26.476   0.814
67650W        W28961  26.701  23.226  10.598
67651W        W28962  21.654  33.958  12.072
67652W        W28963  18.260   2.819   1.394
67653W        W28964  14.221  44.903  11.983
67654W        W28965   3.340  22.022   1.315
67655W        W28966   6.223  12.223  13.802
67656W        W28967  25.117   4.723  14.292
67657W        W28968   7.319  40.816  14.484
67658W        W28969  29.043  36.060   2.752
67659W        W28970  42.421  34.021  14.292
67660W        W28971  32.417   8.825  11.958
67661W        W28972   6.898  11.289   0.811
67662W        W28973  22.121   8.818  12.341
67663W        W28974   0.915   1.298  14.774
67664W        W28975  33.056   6.215  14.812
67665W        W28976  26.634  27.546   3.684
67666W        W28977  30.130  25.076   1.790
67667W        W28978  17.563  40.465   3.835
67668W        W28979  33.588  30.997  12.872
67669W        W28980   8.889  24.125   1.843
67670W        W28981  10.138  38.051   3.148
67671W        W28982  29.622  33.551   3.815
67672W        W28983  25.083  39.469   0.436
67673W        W28984  20.048  43.421  12.066
67674W        W28985  32.138  16.567   0.371
67675W        W28986  15.270  42.913   2.179
67676W        W28987  37.502  11.622   5.189
67677W        W28988  35.893  34.013  12.007
67678W        W28989  30.606  16.584  14.356
67679W        W28990  30.089  23.032  12.070
67680W        W28991  21.131  34.502   2.806
67681W        W28992  15.293  14.761   9.447
67682W        W28993  41.018   9.646  12.047
67683W        W28994  28.485  24.633  12.470
67684W        W28995  39.837  26.675   2.267
67685W        W28996   2.903   9.843  11.935
67686W        W28997  13.795  36.093   4.313
67687W        W28998  42.499  41.518   3.842
67688W        W28999  16.205  11.759   0.347
67689W        W29000  43.334  11.852  12.845
67690W        W29001  37.850  27.127  13.871
67691W        W29002   1.922  26.975   2.203
67692W        W29003  35.967   8.719   4.349
67693W        W29004   7.761  42.021  11.541
67694W        W29005   3.222  10.839   3.195
67695W        W29006  30.557  17.140   3.814
67696W        W29007  44.753   2.728   1.349
67697W        W29008   0.928  11.263   2.382
67698W        W29009  39.474  41.980  14.906
67699W        W29010  33.624  27.635  14.890
67700W        W29011  11.287  41.794   1.893
67701W        W29012  13.111   8.200  14.918
67702W        W29013  17.271  39.867  12.423
67703W        W29014  44.810  37.422   1.331
67704W        W29015  32.945  43.318  14.375
67705W        W29016  15.772  12.231  10.575
67706W        W29017  37.853  14.830   2.292
67707W        W29018  13.351  19.592  12.580
67708W        W29019  30.465  12.279   1.706
67709W        W29020  10.360   5.860   2.259
67710W        W29021  16.724  40.347  13.841
67711W        W29022  10.312   8.177  10.467
67712W        W29023  23.158   0.406  12.023
67713W        W29024  39.427  15.322   0.368
67714W        W29025  16.221  38.949   3.830
67715W        W29026  14.814  12.251   0.445
67716W        W29027  28.145  18.607  14.826
67717W        W29028  28.171  30.618   0.447
67718W        W29029   3.245  10.355  14.958
67719W        W29030  13.175  26.196   0.747
67720W        W29031  22.057  32.952  13.339
67721W        W29032  39.350  30.492   4.171
67722W        W29033  36.087  20.704   4.812
67723W        W29034  25.544  32.060  11.474
67724W        W29035   4.698   1.923  10.577
67725W        W29036  11.312  40.331  13.904
67726W        W29037   4.874   9.362  11.115
67727W        W29038  32.513   8.229  10.591
67728W        W29039  10.222  37.860   2.899
67729W        W29040   5.405  10.856   4.265
67730W        W29041  24.688   9.857  10.887
67731W        W29042  11.634   8.183   3.731
67732W        W29043  36.026   6.227  11.890
67733W        W29044   4.819  22.209   3.169
67734W        W29045  13.133  22.206  11.594
67735W        W29046  11.313   8.208  12.513
67736W        W29047  40.532  33.067  14.787
67737W        W29048  17.195   8.664   0.390
67738W        W29049  43.988   3.427   4.314
67739W        W29050   8.857  15.115   2.373
67740W        W29051  33.591  35.980  13.962
67741W        W29052  14.276  44.754  10.463
67742W        W29053  38.069  31.042   2.191
67743W        W29054  21.147   2.384   1.695
67744W        W29055  41.359   7.355   4.670
67745W        W29056  18.141  10.208   1.292
67746W        W29057  39.928  16.635   4.767
67747W        W29058  31.960   2.902  14.991
67748W        W29059  11.339  43.875  12.091
67749W        W29060  24.086  28.052   1.742
67750W        W29061   5.781  30.005  14.326
67751W        W29062  19.766  22.548  12.469
67752W        W29063  10.385  43.991  14.440
67753W        W29064  18.289  16.072  13.497
67754W        W29065   1.441   5.793   1.405
67755W        W29066  27.171  42.825  10.552
67756W        W29067  34.541   7.828  14.940
67757W        W29068  29.083  15.792  10.068
67758W        W29069  15.293  13.232   4.146
67759W        W29070  35.502   4.804   1.785
67760W        W29071   5.852  18.205   4.294
67761W        W29072  44.454  35.974   2.188
67762W        W29073  19.277  32.083  14.316
67763W        W29074  13.150  14.191   3.186
67764W        W29075  16.618  28.680   4.306
67765W        W29076  10.832  41.870   2.383
67766W        W29077  16.653  22.225  12.070
67767W        W29078  40.935  12.246   2.305
67768W        W29079   7.740  10.829   4.203
67769W        W29080   1.281  44.807  12.421
67770W        W29081  20.532   2.803   2.701
67771W        W29082  34.512  18.690  14.318
67772W        W29083   3.317  43.480  12.873
67773W        W29084  28.119  42.780  14.374
67774W        W29085  43.884  12.333   0.753
67775W        W29086   4.757   0.904  12.569
67776W        W29087  28.975  39.912  14.763
67777W        W29088   2.409  36.986  12.417
67778W        W29089  27.060  29.957   0.253
67779W        W29090  32.922  22.501  14.987
67780W        W29091  29.052  31.114  11.025
67781W        W29092  15.633   9.737   4.154
67782W        W29093  42.332  10.785  13.910
67783W        W29094  36.853   7.805   2.265
67784W        W29095  18.547  14.171   1.716
67785W        W29096  39.462  19.559   0.924
67786W        W29097  21.728  34.865  11.073
67787W        W29098   6.826  42.307  12.552
67788W        W29099   2.765  34.033  12.364
67789W        W29100  28.075   8.692  14.763
67790W        W29101  31.903  19.051   4.283
67791W        W29102  40.387  40.539   9.982
67792W        W29103  32.893   4.260   4.749
67793W        W29104  31.449  28.017  11.034
67794W        W29105  16.292  32.467   2.192
67795W        W29106  12.361   0.868   2.800
67796W        W29107  18.773  29.502   3.167
67797W        W29108  42.870  39.970  10.957
67798W        W29109   6.423  38.014   2.300
67799W        W29110  42.438  26.667   3.699
67800W        W29111  39.482  17.171  13.851
67801W        W29112   6.738  38.527  11.961
67802W        W29113  38.840   9.267  13.534
67803W        W29114  29.007  31.498   0.474
67804W        W29115  29.081   8.781  11.522
67805W        W29116   6.413   6.424  12.856
67806W        W29117  22.727  39.378   2.382
67807W        W29118  37.346  35.945   1.899
67808W        W29119  44.493  24.185   3.334
67809W        W29120  15.293  32.402   1.834
67810W        W29121  20.262  17.121   4.793
67811W        W29122  10.669  28.011  12.432
67812W        W29123  33.994  33.001   0.368
67813W        W29124   5.362  15.808   9.677
67814W        W29125  32.563  36.491  12.007
67815W        W29126  36.544   5.321   4.220
67816W        W29127  21.550  31.024  14.997
67817W        W29128  36.535  25.158  13.454
67818W        W29129  31.981  28.467   4.598
67819W        W29130  40.328  24.567   4.597
67820W        W29131   4.278  16.653   0.259
67821W        W29132  31.477  39.824   1.312
67822W        W29133  41.381  44.418  11.386
67823W        W29134  36.445   9.299   1.760
67824W        W29135  17.172   0.920  13.393
67825W        W29136  27.036   7.675  10.593
67826W        W29137  34.925  12.131   1.829
67827W        W29138  19.552   4.808   1.417
67828W        W29139   5.308   5.878  10.514
67829W        W29140  10.822  35.864  13.860
67830W        W29141  31.481  13.633   3.228
67831W        W29142  20.186   8.866  12.087
67832W        W29143  42.466  29.601  13.856
67833W        W29144  42.844  35.996  14.915
67834W        W29145  10.347   9.357   4.826
67835W        W29146  24.034  10.848   0.843
67836W        W29147  24.190  36.991   5.160
67837W        W29148  10.837   0.743   4.260
67838W        W29149   1.387   3.286   1.278
67839W        W29150   8.804  20.663  11.447
67840W        W29151  12.360  18.757   0.443
67841W        W29152  30.149  32.921  14.500
67842W        W29153  26.194   2.874   3.375
67843W        W29154  38.003  39.529   0.457
67844W        W29155   7.267  26.069   0.922
67845W        W29156  27.999  32.959   4.124
67846W        W29157  25.080  33.494  13.547
67847W        W29158  28.490  12.230   1.438
67848W        W29159  16.160  24.007   2.403
67849W        W29160   7.830  10.878  11.409
67850W        W29161  35.425  14.227  14.027
67851W        W29162  14.137   7.309  13.494
67852W        W29163  12.156  11.858  10.459
67853W        W29164  32.588  35.409  13.548
67854W        W29165  24.208  37.379   1.792
67855W        W29166  10.197   5.932  14.910
67856W        W29167   1.360  31.949   1.713
67857W        W29168  13.617   3.928   1.239
67858W        W29169  28.036  32.513   4.796
67859W        W29170   9.186   8.811  13.385
67860W        W29171  18.725  13.601  14.856
67861W        W29172  38.434  40.965   4.129
67862W        W29173   1.961  14.726  14.301
67863W        W29174  44.936  18.085   0.472
67864W        W29175  40.312  36.430  14.940
67865W        W29176  31.507  42.851  13.467
67866W        W29177  42.410  28.634   0.728
67867W        W29178  15.752  35.874  11.042
67868W        W29179  35.564  35.965   0.734
67869W        W29180  11.281  35.414  11.016
67870W        W29181  38.470  25.209   0.919
67871W        W29182  12.687  17.652   2.722
67872W        W29183  44.403  24.178  10.960
67873W        W29184  14.762   1.935  14.441
67874W        W29185  33.934   0.795  14.488
67875W        W29186   6.735  38.956   4.148
67876W        W29187  21.241  22.533   4.132
67877W        W29188  20.253  17.137   1.243
67878W        W29189  30.125  21.244   0.962
67879W        W29190   1.360  25.687  13.815
67880W        W29191  29.644  13.648   4.835
67881W        W29192   3.278  18.708   0.248
67882W        W29193  15.317  23.626  12.839
67883W        W29194  38.373  28.438   0.287
67884W        W29195  13.676  10.341  10.917
67885W        W29196   5.843  29.063  11.556
67886W        W29197  37.366  21.115   2.895
67887W        W29198   7.872  24.122  12.904
67888W        W29199  24.623  43.925  13.493
67889W        W29200  20.743   7.378   0.805
67890W        W29201  30.633   7.204   4.219
67891W        W29202  11.848  32.079  14.335
67892W        W29203  13.235  41.953  11.466
67893W        W29204  44.291  16.144  11.905
67894W        W29205  22.534  33.039   5.293
67895W        W29206  40.502  37.412  14.996
67896W        W29207  37.525  16.761  12.855
67897W        W29208  18.160  29.653  14.898
67898W        W29209  17.739   1.780   2.677
67899W        W29210  34.946  36.443  12.957
67900W        W29211  34.602  19.623  12.351
67901W        W29212  43.506   9.703  12.836
67902W        W29213  19.213  33.425   1.315
67903W        W29214  17.109   5.701   1.349
67904W        W29215   8.672   9.825  10.916
67905W        W29216   2.302   4.701  13.528
67906W        W29217  10.174  11.637  14.967
67907W        W29218   7.826   8.384  14.882
67908W        W29219  10.703  33.443   1.409
67909W        W29220   2.866  26.969  12.933
67910W        W29221   8.745  14.828  13.332
67911W        W29222   9.326   7.700   4.313
67912W        W29223  42.810  42.351  11.572
67913W        W29224  42.812   3.810  12.569
67914W        W29225   5.761   0.923  13.012
67915W        W29226  39.909   6.896   4.682
67916W        W29227   5.370  21.518   1.796
67917W        W29228   3.794  29.581   2.327
67918W        W29229  29.074  21.705  13.987
67919W        W29230  18.654   5.813   4.336
67920W        W29231  25.110  11.689   4.647
67921W        W29232  35.944   7.710   4.329
67922W        W29233  37.549  24.999  12.823
67923W        W29234  19.128  24.988  14.426
67924W        W29235   7.190  44.780   0.903
67925W        W29236  23.531  39.055   2.780
67926W        W29237  19.249  44.260  12.567
67927W        W29238  29.993   4.405   3.376
67928W        W29239   9.850  15.260   0.396
67929W        W29240  34.096  41.434   3.348
67930W        W29241  10.140  15.179  11.952
67931W        W29242  26.686  20.583  12.408
67932W        W29243   6.726  27.656   0.429
67933W        W29244   3.412  29.446  12.377
67934W        W29245  26.476  44.935  14.294
67935W        W29246  32.947  13.345  13.875
67936W        W29247  41.889  38.373  14.929
67937W        W29248  39.811  22.079  11.880
67938W        W29249  34.112  20.629   0.362
67939W        W29250  34.016  29.114   2.663
67940W        W29251  28.124  33.975  10.955
67941W        W29252   3.812  27.092  14.955
67942W        W29253  10.199   7.309   1.380
67943W        W29254   7.666  15.256  13.311
67944W        W29255  27.975  16.155  12.426
67945W        W29256  44.950  10.775  10.421
67946W        W29257  20.078   5.908  12.905
67947W        W29258  39.488  22.076   3.297
67948W        W29259   1.317  35.453   0.351
67949W        W29260   4.788  30.585  11.408
67950W        W29261  33.023  27.007   0.326
67951W        W29262   6.216  17.198   0.788
67952W        W29263  10.257  42.974  14.874
67953W        W29264  16.299  28.475   0.893
67954W        W29265   7.322  18.696   1.749
67955W        W29266   5.915  38.445  12.572
67956W        W29267  25.204  41.847   2.732
67957W        W29268  42.501   6.759   3.216
67958W        W29269  12.794   5.736   3.720
67959W        W29270  11.857  24.081   0.450
67960W        W29271   6.297  43.779  12.856
67961W        W29272  23.571   8.387  12.366
67962W        W29273  17.681  26.114  14.937
67963W        W29274  40.467  39.039  10.114
67964W        W29275   5.427  10.322  11.447
67965W        W29276   7.302  31.906   3.633
67966W        W29277  17.757  30.566  13.370
67967W        W29278  32.596   7.347  12.944
67968W        W29279  34.871   4.919  11.477
67969W        W29280   3.312  43.414   3.322
67970W        W29281  28.523  41.960   0.771
67971W        W29282  35.957  18.736   0.462
67972W        W29283  25.081   8.222  10.489
67973W        W29284  44.470  36.490   1.934
67974W        W29285  40.836  15.811   4.344
67975W        W29286   7.394  14.329   3.635
67976W        W29287  24.196  20.215   5.103
67977W        W29288  23.153  11.161  12.938
67978W        W29289  30.637  19.607  10.565
67979W        W29290  35.506  16.081  14.369
67980W        W29291  22.128  19.045  14.768
67981W        W29292  19.049  43.456  14.347
67982W        W29293  17.226  31.073   3.806
67983W        W29294   7.753   8.743  14.009
67984W        W29295  16.657  33.449  12.864
67985W        W29296  21.617  26.502  13.043
67986W        W29297  17.617  41.932   0.393
67987W        W29298  17.074  21.181  14.332
67988W        W29299   5.293  37.418   1.745
67989W        W29300  10.356  21.077  10.494
67990W        W29301  26.057  38.903   3.843
67991W        W29302   8.767   8.802  11.077
67992W        W29303  32.888   2.749   1.393
67993W        W29304  17.799  11.340  13.345
67994W        W29305  24.494  42.518   2.675
67995W        W29306   6.294   6.293   3.841
67996W        W29307  25.510  35.038  14.950
67997W        W29308  29.628  40.884   4.238
67998W        W29309  31.583  38.334  13.547
67999W        W29310  30.933  33.948  12.579
68000W        W29311   7.809  14.235  12.398
68001W        W29312  20.664  20.111   1.251
68002W        W29313   4.395  39.026  11.567
68003W        W29314   2.349   6.371   3.777
68004W        W29315   1.820  29.561  14.891
68005W        W29316  22.237   1.850  10.529
68006W        W29317   7.830  38.975  11.429
68007W        W29318   6.316  31.509   3.721
68008W        W29319  35.018  42.324   4.287
68009W        W29320  38.415  21.055   2.328
68010W        W29321  37.086   6.770   4.303
68011W        W29322  25.593  16.205  10.964
68012W        W29323  32.469   5.413   3.715
68013W        W29324  44.417  32.460  14.906
68014W        W29325  25.198  14.784   0.850
68015W        W29326  40.965  10.379  12.433
68016W        W29327  17.250  13.301   4.768
68017W        W29328   1.957   4.295  11.566
68018W        W29329  32.114  24.645  13.516
68019W        W29330  27.997   0.883   4.752
68020W        W29331  13.623  16.650  11.407
68021W        W29332  14.636   5.250  11.103
68022W        W29333   4.908  26.606  10.487
68023W        W29334  39.005  44.799   4.726
68024W        W29335  44.372  25.711   2.210
68025W        W29336  15.161  32.548   2.246
68026W        W29337  18.176  21.128   0.319
68027W        W29338  11.806  41.481   1.920
68028W        W29339  27.179  35.560  12.422
68029W        W29340  28.949   4.752  11.897
68030W        W29341  30.050  25.207   2.364
68031W        W29342  11.650   4.762  13.864
68032W        W29343  19.235  33.978  14.945
68033W        W29344  20.545   9.390   3.369
68034W        W29345   2.800  30.510   1.442
68035W        W29346  37.848  24.661  13.877
68036W        W29347  41.011  41.308  14.358
68037W        W29348  10.654   3.328   3.155
68038W        W29349  21.684  32.111   0.874
68039W        W29350  32.474  40.350   0.773
68040W        W29351  42.470  10.849  13.433
68041W        W29352  15.243   9.822  13.805
68042W        W29353   9.759  21.089   4.784
68043W        W29354  41.944   1.240   0.246
68044W        W29355  30.584  11.690   4.624
68045W        W29356   2.734   7.846  13.472
68046W        W29357  27.967  11.167  11.971
68047W        W29358  12.358  20.671  13.991
68048W        W29359  28.063   6.887  14.972
68049W        W29360   2.329  19.749   4.707
68050W        W29361   0.293  29.966   1.378
68051W        W29362  28.563   3.951  12.348
68052W        W29363   2.961  31.070  13.347
68053W        W29364  38.992   2.397   1.260
68054W        W29365  34.589   9.367  11.481
68055W        W29366  14.770  43.861  14.913
68056W        W29367  29.664   0.825   1.900
68057W        W29368  18.253   1.759   3.820
68058W        W29369   9.301   2.740   2.273
68059W        W29370  19.624  23.560  11.928
68060W        W29371   9.771  43.422   4.699
68061W        W29372  19.727  12.796   2.301
68062W        W29373  30.150  35.371  14.777
68063W        W29374  23.157  35.425  14.926
68064W        W29375   2.351   2.313   1.335
68065W        W29376  23.061   4.328  11.613
68066W        W29377  32.128  16.810  11.551
68067W        W29378  15.108  35.451  14.951
68068W        W29379  17.732  20.605   4.227
68069W        W29380  17.262  23.225   2.770
68070W        W29381  41.531  21.255  12.440
68071W        W29382  24.997   2.246  12.025
68072W        W29383   1.243  24.008   1.399
68073W        W29384  28.089  11.715   1.306
68074W        W29385  13.294  18.186  12.556
68075W        W29386  29.944  23.988  13.999
68076W        W29387  34.436  25.544   2.371
68077W        W29388   4.736  15.583   4.301
68078W        W29389   8.831  14.192  14.888
68079W        W29390  29.560  44.387   2.327
68080W        W29391  20.194  23.195  12.396
68081W        W29392   2.378  15.697  10.572
68082W        W29393  15.201  10.206   0.315
68083W        W29394   4.914  34.884   2.854
68084W        W29395  39.980  41.443  13.507
68085W        W29396  20.103  20.111   0.918
68086W        W29397  40.541  12.677  14.997
68087W        W29398  36.096  39.032   0.761
68088W        W29399   5.237  12.831   3.712
68089W        W29400  28.617   3.843   5.296
68090W        W29401   1.410  42.881  11.372
68091W        W29402  42.364  27.058  12.083
68092W        W29403  13.188  13.241  10.607
68093W        W29404  32.060  40.897  13.314
68094W        W29405  11.127   1.821  13.932
68095W        W29406  26.069  15.163   0.402
68096W        W29407  30.464  40.321  12.382
68097W        W29408   9.183   4.310   1.264
68098W        W29409  24.516  11.229  10.970
68099W        W29410  11.763   3.772   0.813
68100W        W29411  34.038  26.053   0.473
68101W        W29412  28.002   7.829   2.667
68102W        W29413   6.355  17.745  14.822
68103W        W29414  14.591  27.687  12.470
68104W        W29415  23.614  43.275  13.968
68105W        W29416   0.821  25.179   1.332
68106W        W29417  27.032  30.150   2.258
68107W        W29418   6.191   7.862   3.380
68108W        W29419   0.460  26.635   4.225
68109W        W29420  17.165  15.145   0.471
68110W        W29421  21.153  12.726  14.463
68111W        W29422   1.784  44.449  13.854
68112W        W29423  39.352  28.472  11.392
68113W        W29424   2.347  35.488   1.732
68114W        W29425  38.040  18.556   4.202
68115W        W29426  10.277   6.308   3.720
68116W        W29427  15.814   5.853  12.513
68117W        W29428  13.627   3.780   3.678
68118W        W29429  15.184  33.023   4.184
68119W        W29430  34.081  20.269   3.324
68120W        W29431  13.152  41.888  10.944
68121W        W29432  26.658  21.663   4.639
68122W        W29433   7.836  15.695   1.773
68123W        W29434   9.255  39.942  13.375
68124W        W29435  17.641  20.532  10.594
68125W        W29436   5.869  29.587  12.093
68126W        W29437  28.182  18.579  12.501
68127W        W29438  11.756  21.593  11.596
68128W        W29439  27.056   5.421  13.933
68129W        W29440  44.386  35.967   0.941
68130W        W29441  29.128  44.789   2.307
68131W        W29442  21.656  26.506  10.526
68132W        W29443   0.942   6.720  10.403
68133W        W29444   1.969   1.430  13.493
68134W        W29445  15.099   7.829   4.727
68135W        W29446  32.927  31.103   0.319
68136W        W29447  10.343   0.957   1.430
68137W        W29448  27.965  18.611  14.447
68138W        W29449  42.819   8.737  13.813
68139W        W29450  13.291  20.669   4.316
68140W        W29451   0.300  22.638   2.342
68141W        W29452   5.380   9.829   3.843
68142W        W29453  23.680  42.811  13.442
68143W        W29454  22.522  14.337   2.862
68144W        W29455  26.109  24.545   3.791
68145W        W29456  24.977  32.594  13.945
68146W        W29457   0.870   7.328  14.338
68147W        W29458  40.485  14.817  13.034
68148W        W29459   2.883  42.313  10.638
68149W        W29460  37.554   7.835   1.785
68150W        W29461  38.359  24.659   2.388
68151W        W29462  29.594  29.985   0.446
68152W        W29463  27.094  24.612  12.379
68153W        W29464  34.516  38.075  12.564
68154W        W29465  38.066  29.550   2.291
68155W        W29466  28.120  35.368   3.850
68156W        W29467  29.471  41.872  14.807
68157W        W29468  42.388  34.885   4.271
68158W        W29469  12.689  10.233   4.175
68159W        W29470  43.462   6.884  13.919
68160W        W29471  27.678  19.655   0.914
68161W        W29472  15.802  40.543   3.727
68162W        W29473   8.174  43.016  14.838
68163W        W29474   2.897   4.421   1.888
68164W        W29475  37.483   2.889  12.555
68165W        W29476   4.821  43.856   0.404
68166W        W29477  10.825  20.049  11.104
68167W        W29478  35.088  34.510  12.853
68168W        W29479  17.296  29.505  13.420
68169W        W29480  38.552  15.820   1.250
68170W        W29481  10.337  42.443  11.026
68171W        W29482  34.479  14.635  13.411
68172W        W29483  14.798  43.942  12.079
68173W        W29484  44.935   7.907  11.004
68174W        W29485  27.963  10.186  14.864
68175W        W29486  17.634  31.533  10.458
68176W        W29487  10.201  32.886   5.310
68177W        W29488   6.685  42.386   3.697
68178W        W29489  42.916  16.171  10.540
68179W        W29490  40.905  36.897   2.703
68180W        W29491  21.109  23.210   0.460
68181W        W29492  28.158   4.761  10.518
68182W        W29493  42.306   3.293  10.967
68183W        W29494  34.111  11.653   2.366
68184W        W29495  11.297  12.347   2.390
68185W        W29496  17.231  37.077  14.339
68186W        W29497  22.573  30.524  14.395
68187W        W29498  35.973  44.928   4.327
68188W        W29499  27.978  12.288   3.838
68189W        W29500   7.367  27.167   3.638
68190W        W29501  35.439  23.595  11.038
68191W        W29502   1.400  40.967  12.511
68192W        W29503  29.665  31.150   0.821
68193W        W29504  35.464   1.363   3.851
68194W        W29505  29.560  30.443  14.366
68195W        W29506  26.516   5.786  12.340
68196W        W29507  44.364  25.569  11.125
68197W        W29508  23.212  34.920  12.558
68198W        W29509  11.635   4.248  11.601
68199W        W29510  20.208   3.457   5.185
68200W        W29511  26.693   2.389   1.264
68201W        W29512  18.148  12.833   5.239
68202W        W29513   4.306   0.758   1.223
68203W        W29514  32.419  13.301   1.270
68204W        W29515   4.234  21.691   0.761
68205W        W29516  34.411  26.197  11.122
68206W        W29517  17.251  20.199   4.120
68207W        W29518  41.371  41.322  13.326
68208W        W29519  30.464  31.547   0.915
68209W        W29520  21.617  33.106   4.337
68210W        W29521   9.875  37.501  12.871
68211W        W29522  33.426  17.791  12.091
68212W        W29523  32.533  26.645   2.729
68213W        W29524  42.019   7.816  13.462
68214W        W29525   8.873  44.996  12.071
68215W        W29526  35.457   4.894   3.256
68216W        W29527   7.755  23.241  12.428
68217W        W29528  22.642  11.779  11.942
68218W        W29529  19.538  39.395  13.825
68219W        W29530  18.757  25.967   3.364
68220W        W29531  27.161   9.717  13.988
68221W        W29532   0.489  27.157   4.747
68222W        W29533  25.660  32.990   0.447
68223W        W29534  12.804  21.100  10.455
68224W        W29535  13.771   1.476   2.386
68225W        W29536  42.848  42.379   2.250
68226W        W29537  39.458  21.524   0.248
68227W        W29538  35.929  23.609  14.772
68228W        W29539  42.822   1.278  12.525
68229W        W29540  22.056  39.389  10.896
68230W        W29541  17.611  26.178   4.828
68231W        W29542  30.021  27.943  10.539
68232W        W29543  30.104   8.403  14.007
68233W        W29544  43.871  42.525  11.884
68234W        W29545   5.913   5.862  10.531
68235W        W29546  43.311  15.646  11.567
68236W        W29547  16.691  37.562   3.642
68237W        W29548  38.893   7.748  10.559
68238W        W29549  30.499  28.602  12.832
68239W        W29550  17.229   9.684   2.718
68240W        W29551  38.416  25.495  14.797
68241W        W29552  11.244  37.005   2.311
68242W        W29553  25.119  10.268  11.407
68243W        W29554  29.516   4.334   3.680
68244W        W29555  24.024  39.841   1.261
68245W        W29556  44.404  16.630   2.274
68246W        W29557  10.746  12.255  14.458
68247W        W29558  35.883  43.463   1.379
68248W        W29559  22.592   3.270  14.866
68249W        W29560   8.682  26.562   3.163
68250W        W29561  39.373  35.031   1.353
68251W        W29562   2.826  15.137  10.421
68252W        W29563   2.846  23.726  10.955
68253W        W29564  42.007  34.063   3.256
68254W        W29565  26.985   9.825   1.238
68255W        W29566  43.515  39.488   2.873
68256W        W29567  12.779  10.370   0.832
68257W        W29568  40.935  22.053   0.828
68258W        W29569  15.303   8.397  12.421
68259W        W29570  11.842  36.906   3.861
68260W        W29571  39.009  18.254   3.177
68261W        W29572  28.486  33.434   3.838
68262W        W29573  17.274  13.620   3.153
68263W        W29574  35.872  12.679   0.899
68264W        W29575  22.675  16.164  14.799
68265W        W29576   2.878   4.712   4.640
68266W        W29577  19.596   8.658   1.280
68267W        W29578  16.312  32.518   1.281
68268W        W29579  22.622  15.306  11.562
68269W        W29580  22.544   7.390  14.326
68270W        W29581  15.733  19.702   4.611
68271W        W29582  20.028  14.175   1.857
68272W        W29583  42.346   0.361  11.934
68273W        W29584  30.922  36.592   0.279
68274W        W29585  14.327  13.670   4.143
68275W        W29586  34.460  27.000  11.591
68276W        W29587  18.063   4.317  12.553
68277W        W29588  35.999  27.155   3.194
68278W        W29589  33.086  39.006  12.044
68279W        W29590  32.985  13.770   0.883
68280W        W29591  29.498  29.980   2.879
68281W        W29592  19.170  10.804  11.871
68282W        W29593   1.783  18.649   4.322
68283W        W29594  17.270  12.711  12.035
68284W        W29595  29.003   7.851  12.361
68285W        W29596  11.811  44.502   2.901
68286W        W29597  16.765  31.095  12.047
68287W        W29598  40.912   4.239  12.001
68288W        W29599  33.098  29.928  12.047
68289W        W29600  38.546  38.372   0.823
68290W        W29601  21.215  28.040   4.184
68291W        W29602   7.821  35.384   1.291
68292W        W29603  26.149  37.417   1.371
68293W        W29604   7.866  13.116   0.403
68294W        W29605  17.095  13.240  12.374
68295W        W29606  15.802  15.203   0.336
68296W        W29607  24.230   3.354  10.934
68297W        W29608  43.470  10.710   3.739
68298W        W29609  22.084  33.542  14.382
68299W        W29610  27.193  42.981   1.736
68300W        W29611  21.240   4.823   3.847
68301W        W29612  19.167   2.302   3.785
68302W        W29613  22.532   7.888  14.790
68303W        W29614  16.727  39.979  13.327
68304W        W29615  27.658  44.295   1.772
68305W        W29616  31.010  21.050   4.237
68306W        W29617  38.328  21.750  12.861
68307W        W29618  24.192  32.140  10.941
68308W        W29619  33.578  16.698   2.766
68309W        W29620   6.355  15.700  12.019
68310W        W29621  14.176  28.613   2.759
68311W        W29622   2.266  20.077   2.746
68312W        W29623  24.625  16.767  12.937
68313W        W29624  21.561  13.107   0.852
68314W        W29625  18.734   0.309  11.443
68315W        W29626  24.510  23.501   4.616
68316W        W29627  19.568  17.784  13.978
68317W        W29628  44.789  42.297  14.855
68318W        W29629  36.444  37.430  10.937
68319W        W29630  23.581  14.761   4.338
68320W        W29631   3.890  15.159   2.355
68321W        W29632  28.445  28.471   2.352
68322W        W29633  44.008  40.944   4.695
68323W        W29634  18.729  22.031  14.821
68324W        W29635  37.893  22.595   3.756
68325W        W29636  14.151  40.913  13.040
68326W        W29637  27.141  18.114  10.534
68327W        W29638  26.600  37.967  12.996
68328W        W29639  31.648  25.519   2.663
68329W        W29640  26.021  37.865  11.866
68330W        W29641  40.418  39.065   0.765
68331W        W29642  25.555  13.163   0.435
68332W        W29643  19.260  42.900  12.944
68333W        W29644   8.771  23.652   0.438
68334W        W29645  14.826  21.723   9.992
68335W        W29646  36.958  18.783   3.213
68336W        W29647  14.605  11.246   3.813
68337W        W29648  32.504  15.652  12.543
68338W        W29649  38.390  19.555  14.461
68339W        W29650   2.768  34.933   2.713
68340W        W29651   9.648  15.617   1.845
68341W        W29652  12.317  16.224   3.686
68342W        W29653  35.001  35.537  12.055
68343W        W29654  34.548  19.117  11.016
68344W        W29655  29.444   0.338   4.250
68345W        W29656  36.922  30.482   2.718
68346W        W29657  10.267  17.751   5.217
68347W        W29658  28.646  16.726   1.217
68348W        W29659  15.702  44.983  11.396
68349W        W29660  27.149   9.817   2.419
68350W        W29661  19.089  20.259  10.960
68351W        W29662   6.309  17.775   4.829
68352W        W29663   3.783   6.418  12.554
68353W        W29664  20.730  20.712   0.899
68354W        W29665  29.939  13.123  14.945
68355W        W29666  41.011  19.249   0.825
68356W        W29667  16.615  42.885  11.123
68357W        W29668  18.086  13.785   1.776
68358W        W29669  29.608  12.723  11.442
68359W        W29670   2.392   4.385  13.810
68360W        W29671   2.938  39.402   1.276
68361W        W29672  15.295   0.833   3.148
68362W        W29673  22.036  31.144   0.346
68363W        W29674  15.707  17.604  10.979
68364W        W29675  17.068   8.767   5.099
68365W        W29676  44.876  42.916  13.863
68366W        W29677  15.638  42.844   4.276
68367W        W29678  16.170  34.372   2.764
68368W        W29679  41.025   4.226   4.264
68369W        W29680  43.480  19.232  10.406
68370W        W29681  38.493   2.377   0.784
68371W        W29682  17.082   4.393   2.389
68372W        W29683  25.522  27.961  14.975
68373W        W29684  19.163  39.327  12.999
68374W        W29685   1.278   2.754   0.303
68375W        W29686  20.593  14.827   3.349
68376W        W29687  24.673  20.104   1.379
68377W        W29688  22.073  15.695   1.357
68378W        W29689  39.980  32.024  14.409
68379W        W29690  34.542   8.758   1.267
68380W        W29691  11.144   2.334  11.870
68381W        W29692   7.898  40.980  12.037
68382W        W29693  22.120  33.094  14.828
68383W        W29694  30.160   2.242  11.538
68384W        W29695  17.630  37.050  12.825
68385W        W29696  14.239  30.988   1.417
68386W        W29697  31.569  41.989  10.928
68387W        W29698  13.138  20.572  11.962
68388W        W29699  25.991  44.366   4.227
68389W        W29700   9.151  16.576   9.667
68390W        W29701   6.897  17.604   1.842
68391W        W29702  39.813  12.198   3.821
68392W        W29703   2.366  17.662  12.887
68393W        W29704  32.890   2.305   4.797
68394W        W29705  25.137  16.736   4.323
68395W        W29706  19.556  41.526   4.292
68396W        W29707  21.256  21.609   4.788
68397W        W29708  13.600  41.296   4.654
68398W        W29709  28.043  31.061   2.744
68399W        W29710  19.076  11.360   2.211
68400W        W29711  31.412  33.102   2.245
68401W        W29712  40.516  16.677   4.821
68402W        W29713  25.521  13.779   3.762
68403W        W29714  27.543  43.790  14.481
68404W        W29715   8.336  17.206   3.321
68405W        W29716   0.294  35.480  13.476
68406W        W29717  38.972  28.664   2.309
68407W        W29718  20.105  16.274  11.463
68408W        W29719  27.960   1.326  14.425
68409W        W29720  26.102   4.312  12.460
68410W        W29721  40.530   6.889   0.731
68411W        W29722   6.768  13.184   0.344
68412W        W29723  29.510  27.624   1.889
68413W        W29724  20.078  37.074  13.010
68414W        W29725  11.730  15.583  12.450
68415W        W29726  28.995  15.713  14.428
68416W        W29727   6.874  13.111   2.832
68417W        W29728  28.001   4.311   1.335
68418W        W29729  20.758  30.004  12.923
68419W        W29730  22.152   5.269   0.813
68420W        W29731  40.879   2.402  11.084
68421W        W29732  11.723   2.748   4.300
68422W        W29733  39.531  24.093  14.451
68423W        W29734  28.495   1.928  11.548
68424W        W29735  15.769  11.339  10.980
68425W        W29736  42.313   1.435   4.699
68426W        W29737  30.064  23.020  14.807
68427W        W29738  20.733  22.233  14.767
68428W        W29739  26.576   4.704  11.016
68429W        W29740  35.920  37.968  13.369
68430W        W29741  37.877  21.020  14.819
68431W        W29742  11.624  40.515   0.361
68432W        W29743  43.301   0.441   4.304
68433W        W29744  25.082  30.456   3.692
68434W        W29745  36.566  12.222   2.231
68435W        W29746  36.914  13.122  14.859
68436W        W29747  36.486  39.011  12.933
68437W        W29748  17.272   9.727   4.217
68438W        W29749  33.114  13.845   3.695
68439W        W29750  28.569  25.515  12.935
68440W        W29751  24.676   4.219  12.432
68441W        W29752  40.473  26.171  14.772
68442W        W29753  44.961   8.264   2.350
68443W        W29754  34.440  33.995   1.403
68444W        W29755  31.097  24.482  13.349
68445W        W29756  18.229  24.518  10.505
68446W        W29757  34.095   1.767  11.952
68447W        W29758   1.785  33.431   2.869
68448W        W29759  39.881  32.081   1.327
68449W        W29760  33.891  38.382  10.086
68450W        W29761  24.496  36.030  14.899
68451W        W29762  42.962  32.080   1.798
68452W        W29763  14.823   1.743  14.786
68453W        W29764  15.718  33.125   4.270
68454W        W29765   9.824  28.498  12.936
68455W        W29766  43.849  26.672   2.226
68456W        W29767  19.267  21.612  12.944
68457W        W29768  19.765  13.835   4.780
68458W        W29769   6.237   0.423  12.874
68459W        W29770  33.382  31.584   2.318
68460W        W29771  13.668  22.626   1.264
68461W        W29772  15.649  10.842  12.953
68462W        W29773   3.435  37.954   4.155
68463W        W29774  29.619  35.046  12.549
68464W        W29775  28.656  40.327   3.315
68465W        W29776  29.444  26.137  13.041
68466W        W29777  27.003  26.099   4.686
68467W        W29778  22.024  30.591   2.724
68468W        W29779  30.924  42.390   0.748
68469W        W29780  20.767  12.170  14.961
68470W        W29781  31.427   4.833  14.479
68471W        W29782  37.054   6.214   2.212
68472W        W29783   0.287  10.263   4.331
68473W        W29784  28.074  15.633  14.998
68474W        W29785  28.454  15.800  12.968
68475W        W29786  44.269  15.155  14.342
68476W        W29787  23.660  30.968   1.928
68477W        W29788  29.173  33.916  14.367
68478W        W29789  20.642  18.186   3.792
68479W        W29790   4.802   0.836   1.735
68480W        W29791  12.795  43.989   3.843
68481W        W29792  25.525  21.736   0.787
68482W        W29793  11.638  29.640   1.921
68483W        W29794  33.908   9.648  10.510
68484W        W29795  18.625   6.791   0.342
68485W        W29796  14.319  23.526   1.441
68486W        W29797  31.994  34.382  14.278
68487W        W29798  14.813  22.213  11.040
68488W        W29799   1.257  40.022   3.316
68489W        W29800  20.238  14.327  14.314
68490W        W29801  10.853  23.572   2.400
68491W        W29802  16.692  11.355   0.431
68492W        W29803   2.857   6.274  14.474
68493W        W29804  34.989  14.256  12.377
68494W        W29805   2.378  43.876  14.338
68495W        W29806   6.876  16.580   5.165
68496W        W29807  14.823  13.109   1.410
68497W        W29808  17.647  17.207   0.922
68498W        W29809  11.300   0.384   2.838
68499W        W29810   9.711  30.644   3.739
68500W        W29811   6.283   1.875  10.404
68501W        W29812   2.383   6.392  13.874
68502W        W29813   6.708   9.779   1.405
68503W        W29814  33.883  10.181   3.801
68504W        W29815   2.442  43.483   0.738
68505W        W29816  19.720   1.944  10.912
68506W        W29817  38.884  21.193   0.426
68507W        W29818  40.328  15.813   5.101
68508W        W29819  13.153  21.050  10.894
68509W        W29820  34.105   0.937  14.795
68510W        W29821   6.813  32.923  11.511
68511W        W29822  23.202   8.818   3.769
68512W        W29823  34.008  24.658   1.834
68513W        W29824  12.844  31.947   0.769
68514W        W29825  21.732  26.676  11.548
68515W        W29826  34.104  39.515  14.941
68516W        W29827   7.220  13.254   2.816
68517W        W29828   6.883  18.243   0.820
68518W        W29829   5.843   6.891  12.834
68519W        W29830  28.530  40.512   3.703
68520W        W29831  41.494  20.126   4.811
68521W        W29832   8.352  30.035   4.186
68522W        W29833  15.232  41.809   3.247
68523W        W29834  21.560  20.264   4.732
68524W        W29835  37.906  40.955   2.270
68525W        W29836  33.530   3.337   1.710
68526W        W29837  13.621  36.979   4.712
68527W        W29838  19.679  36.383   0.399
68528W        W29839  21.541  26.690  13.985
68529W        W29840  14.306  24.213   0.840
68530W        W29841  34.614  38.030  10.624
68531W        W29842  29.507  23.094  10.926
68532W        W29843  22.162  25.468   1.275
68533W        W29844  26.643  12.218  10.409
68534W        W29845  27.046  42.026   1.887
68535W        W29846   7.178  14.738  12.035
68536W        W29847  43.475   1.416  14.026
68537W        W29848   5.752  13.147  13.503
68538W        W29849   7.689  18.718   3.239
68539W        W29850  10.291  12.211   3.221
68540W        W29851  10.768  33.474  14.451
68541W        W29852  33.954  36.030   2.272
68542W        W29853  42.925   4.863   4.636
68543W        W29854  41.458  18.563   4.688
68544W        W29855  25.486  24.993  13.840
68545W        W29856  11.844   1.746   4.247
68546W        W29857  43.278  15.669   3.265
68547W        W29858   3.394  19.766  10.919
68548W        W29859   5.864  37.004   2.294
68549W        W29860  33.974  33.011   2.236
68550W        W29861   8.183  11.185  14.293
68551W        W29862  15.782   9.316   3.700
68552W        W29863   7.386  43.493  13.937
68553W        W29864  43.406   9.842  13.358
68554W        W29865  10.308  14.307  10.052
68555W        W29866  19.222  43.926  14.311
68556W        W29867   8.388  21.538   2.358
68557W        W29868  19.761  33.569   2.786
68558W        W29869  11.649  28.990  13.346
68559W        W29870   0.447   4.819   0.254
68560W        W29871   9.795   1.814  11.512
68561W        W29872  42.877  18.117  11.118
68562W        W29873   2.469  13.131  13.397
68563W        W29874   8.754  30.592   4.264
68564W        W29875  42.788   0.777   3.261
68565W        W29876  23.110  39.007   3.201
68566W        W29877  35.939   3.272  12.508
68567W        W29878   8.694  17.079   0.795
68568W        W29879  20.270  31.921   2.704
68569W        W29880  43.986  38.421   0.864
68570W        W29881  39.885  10.287  12.974
68571W        W29882  24.645  27.166   5.261
68572W        W29883  29.589   8.293   0.965
68573W        W29884   9.730  15.732  12.978
68574W        W29885   5.344   8.721  13.858
68575W        W29886  39.850  13.189   2.698
68576W        W29887  38.074   4.388  13.535
68577W        W29888  33.539  19.092  11.976
68578W        W29889  29.549  23.580   1.333
68579W        W29890   8.402  41.319  11.957
68580W        W29891  32.896  32.422  11.993
68581W        W29892  37.880  32.584   0.427
68582W        W29893  25.580  21.736   1.785
68583W        W29894  29.614  32.055  14.822
68584W        W29895  16.275  41.293   0.919
68585W        W29896  15.260  30.972   3.796
68586W        W29897  10.325  33.568  12.083
68587W        W29898  11.291   8.368   1.271
68588W        W29899  23.715  37.922  12.053
68589W        W29900  35.578  37.850  13.431
68590W        W29901  42.441  43.893   2.249
68591W        W29902  18.155  26.052   0.781
68592W        W29903  12.823  38.042   2.246
68593W        W29904   0.794  39.336   4.772
68594W        W29905  15.185  42.859  11.002
68595W        W29906  21.175  44.337   4.836
68596W        W29907  23.230  23.223   4.347
68597W        W29908  42.407  37.850  14.831
68598W        W29909  12.234  17.722   3.731
68599W        W29910   6.702  20.223   1.736
68600W        W29911  21.214  22.084  12.554
68601W        W29912  12.357  11.331   1.764
68602W        W29913  17.768   2.847   2.334
68603W        W29914  25.974  29.077  13.524
68604W        W29915  26.575   2.793  11.516
68605W        W29916   9.211  32.095   2.854
68606W        W29917  33.989   8.185  13.320
68607W        W29918  22.056  42.967   1.260
68608W        W29919   9.649  38.489  14.295
68609W        W29920  35.109  23.153  12.924
68610W        W29921  34.598  16.190  12.826
68611W        W29922  23.734   6.241   3.256
68612W        W29923   7.274   3.947   1.782
68613W        W29924   1.798  17.750  13.042
68614W        W29925   5.886  41.325  11.947
68615W        W29926   7.329  25.122  14.447
68616W        W29927  27.148  12.654  11.601
68617W        W29928   5.431  18.229  13.474
68618W        W29929   4.291  26.681   5.267
68619W        W29930   6.308  18.672  10.964
68620W        W29931  40.827  31.642  13.064
68621W        W29932  42.838   9.193  13.888
68622W        W29933   8.280  40.439  13.962
68623W        W29934  33.957  42.514   0.875
68624W        W29935  32.511  11.864   4.779
68625W        W29936  41.019  30.971  10.431
68626W        W29937  43.295   3.791  13.033
68627W        W29938   3.939  30.122   2.280
68628W        W29939  36.516  38.507  11.924
68629W        W29940  10.801   5.273   3.801
68630W        W29941  14.299   8.311   4.260
68631W        W29942  18.790   6.218   3.258
68632W        W29943  24.192  13.682  12.512
68633W        W29944  23.216   5.254   1.924
68634W        W29945  19.770  22.510  14.365
68635W        W29946   6.717  14.095   0.360
68636W        W29947  21.605  11.159   0.427
68637W        W29948  26.668  14.828  13.334
68638W        W29949  44.289  26.540   1.725
68639W        W29950  34.064  25.202   1.769
68640W        W29951  36.512  40.455   3.629
68641W        W29952  39.344   7.883   3.274
68642W        W29953  26.977  42.495  12.956
68643W        W29954  33.026   0.362   0.727
68644W        W29955  33.419  42.026  11.544
68645W        W29956  28.951  15.103  13.797
68646W        W29957   2.398  31.921   0.963
68647W        W29958  35.397  19.584  13.327
68648W        W29959  16.300   7.761   3.819
68649W        W29960   9.204  40.368   4.651
68650W        W29961  21.216  16.737   2.404
68651W        W29962  38.328  40.016   1.930
68652W        W29963  39.036  37.058  11.399
68653W        W29964   4.841  33.125  12.470
68654W        W29965  32.499  22.046   3.194
68655W        W29966  20.070  35.525   2.743
68656W        W29967  33.441  15.815  11.456
68657W        W29968  43.496   6.759  14.418
68658W        W29969  25.606   1.841  12.377
68659W        W29970   3.301  40.435   0.302
68660W        W29971  28.974  19.609   3.773
68661W        W29972  37.483   6.827   0.370
68662W        W29973  12.275  37.854   1.759
68663W        W29974  11.788  19.084   2.417
68664W        W29975  21.161  33.895  13.517
68665W        W29976  26.197  10.652   1.375
68666W        W29977  11.365   5.396  11.904
68667W        W29978  28.992  40.952  14.318
68668W        W29979   0.446  28.495   2.340
68669W        W29980   5.915   3.880  14.403
68670W        W29981  37.068   4.424  12.571
68671W        W29982  22.595  36.360   1.232
68672W        W29983  24.995  21.130  12.870
68673W        W29984  31.560  30.536  12.022
68674W        W29985   4.334  22.671  14.390
68675W        W29986   0.798  21.058  13.482
68676W        W29987  36.041  28.474  14.380
68677W        W29988  41.912  18.660   3.288
68678W        W29989  17.134  10.736   1.419
68679W        W29990  41.354  14.633  11.912
68680W        W29991  22.628  37.921   4.227
68681W        W29992  12.222  42.396   0.419
68682W        W29993  38.971  17.101  13.049
68683W        W29994   9.219  39.458  12.914
68684W        W29995  11.763  21.739   1.283
68685W        W29996  21.640  11.806   4.611
68686W        W29997  41.434  22.247   3.789
68687W        W29998  28.674   3.384  10.022
68688W        W29999   3.893  33.550   3.232
68689W        W30000   8.829  24.125  14.500
68690W        W30001  24.725  43.934  11.927
68691W        W30002  23.606  26.159  11.884
68692W        W30003  39.968   7.911  13.058
68693W        W30004  10.333  23.239   1.371
68694W        W30005  25.653  32.936  12.922
68695W        W30006  14.788  23.208   9.926
68696W        W30007  30.046  17.688   4.728
68697W        W30008   6.391  32.079   1.782
68698W        W30009  23.027  20.039   2.394
68699W        W30010  17.159  20.618  11.521
68700W        W30011  20.094   3.788   0.415
68701W        W30012   8.159  23.007   1.754
68702W        W30013  41.496  21.639  14.428
68703W        W30014  24.974  33.089   1.729
68704W        W30015   0.346  23.092  12.454
68705W        W30016  41.029  14.265  13.933
68706W        W30017   1.435  23.099  10.478
68707W        W30018   7.875   4.415  13.930
68708W        W30019  34.070   0.897   1.804
68709W        W30020  34.119  19.137   0.849
68710W        W30021   5.277  44.844  14.452
68711W        W30022  44.398  35.600   2.690
68712W        W30023  44.931   2.903  11.599
68713W        W30024  27.157   3.830   4.674
68714W        W30025  33.085  35.574   0.768
68715W        W30026  26.693  27.518  11.109
68716W        W30027  38.868  18.220   0.380
68717W        W30028  27.571   1.884  12.465
68718W        W30029  16.287  25.198   1.388
68719W        W30030   7.233  17.715   0.454
68720W        W30031  20.066  42.869  12.461
68721W        W30032  20.157  40.004  13.451
68722W        W30033  16.244  39.428   3.313
68723W        W30034  13.119   1.938  10.964
68724W        W30035  41.368  39.888   0.831
68725W        W30036  13.844   9.332  10.505
68726W        W30037  40.314  22.694   4.598
68727W        W30038  34.384  34.880  13.936
68728W        W30039  18.572  23.656   3.152
68729W        W30040  25.697  38.935  12.450
68730W        W30041  19.538  44.445   2.343
68731W        W30042  35.915  35.377  13.414
68732W        W30043  21.187   3.249   5.176
68733W        W30044   1.754  37.993   1.300
68734W        W30045  13.129  18.268   4.611
68735W        W30046   2.755  24.012  14.908
68736W        W30047  44.296  29.659   0.481
68737W        W30048   9.733   5.196   1.351
68738W        W30049  11.719  31.402   0.284
68739W        W30050  14.684  43.271  11.128
68740W        W30051   5.198   9.235  12.933
68741W        W30052   1.403  38.970  13.483
68742W        W30053  26.697  28.659  13.019
68743W        W30054  39.022  10.786  10.632
68744W        W30055   4.889  34.512  14.967
68745W        W30056  20.260  35.373  14.020
68746W        W30057  43.798  12.135  11.040
68747W        W30058  12.233   6.683  13.039
68748W        W30059  29.051  31.524   0.749
68749W        W30060  12.625  34.554   1.242
68750W        W30061  24.980  18.211   5.768
68751W        W30062   5.830  16.566  14.864
68752W        W30063   4.938  27.040   4.650
68753W        W30064  29.510  23.113  10.453
68754W        W30065  10.669  26.042  14.788
68755W        W30066   9.848   7.779  12.043
68756W        W30067  18.556   1.278   3.321
68757W        W30068   0.424  12.637   4.793
68758W        W30069  40.898   5.324  10.532
68759W        W30070  28.645  11.178  12.931
68760W        W30071  32.412  42.888   3.317
68761W        W30072   6.702   6.916   1.884
68762W        W30073  22.244  27.536  13.035
68763W        W30074  44.875  15.795   1.215
68764W        W30075  25.980  11.819  11.098
68765W        W30076  29.053  20.760  14.349
68766W        W30077  35.486  19.113   0.283
68767W        W30078  38.958  32.142  13.825
68768W        W30079  25.162  12.822   4.700
68769W        W30080  18.578  37.076  13.038
68770W        W30081  40.833  19.081  13.497
68771W        W30082  20.751  22.103  14.028
68772W        W30083  44.946  34.369  10.985
68773W        W30084  10.659   2.761   1.228
68774W        W30085  42.863  13.835  14.771
68775W        W30086  20.760  16.297   0.480
68776W        W30087  26.581   6.414  14.810
68777W        W30088  30.501  34.577  14.411
68778W        W30089  13.684  14.311  12.466
68779W        W30090  32.427  38.854  10.482
68780W        W30091  10.149  22.085   1.262
68781W        W30092   9.364  30.063   0.915
68782W        W30093   2.844  24.725   0.385
68783W        W30094   5.223  18.053   3.785
68784W        W30095  22.154  17.280  13.444
68785W        W30096  42.977  37.541  12.851
68786W        W30097  36.859  29.002   5.779
68787W        W30098  14.732  24.110  14.874
68788W        W30099  13.120   9.854  11.541
68789W        W30100  39.904  38.066   0.247
68790W        W30101  16.218  29.010   1.221
68791W        W30102  12.725   0.753   1.895
68792W        W30103   0.308  38.030  13.486
68793W        W30104  21.648  33.056  12.858
68794W        W30105  42.491   1.913  14.783
68795W        W30106  18.184  26.130   2.869
68796W        W30107   2.317  18.163  13.994
68797W        W30108  32.406  37.003   0.376
68798W        W30109  23.235  25.205   4.767
68799W        W30110  18.183  41.942   0.926
68800W        W30111  34.432  34.562   3.653
68801W        W30112  25.677  39.870  13.964
68802W        W30113  19.600  43.328   4.646
68803W        W30114  40.519  36.929  14.385
68804W        W30115  42.802   1.842  10.015
68805W        W30116   9.364   4.350   2.707
68806W        W30117  32.038  31.081   1.804
68807W        W30118  18.675   8.357  10.464
68808W        W30119  39.557   6.361   4.817
68809W        W30120  33.441  16.569  14.856
68810W        W30121  16.150  30.584  13.879
68811W        W30122  25.187  40.027  10.611
68812W        W30123  10.237  21.258  11.425
68813W        W30124   8.231  14.753   4.124
68814W        W30125  26.620  11.201   2.345
68815W        W30126  31.558  29.595   1.451
68816W        W30127  39.883   8.883  13.487
68817W        W30128  16.713  20.042  12.491
68818W        W30129  21.034  29.588  12.061
68819W        W30130  24.567  21.748   1.281
68820W        W30131  42.507  35.040   1.243
68821W        W30132  27.122  30.506   0.474
68822W        W30133  22.631  44.813   3.275
68823W        W30134  44.890  28.104  13.393
68824W        W30135  44.337  34.507   1.781
68825W        W30136  17.623  25.516   2.367
68826W        W30137  14.097  30.422   0.457
68827W        W30138  31.937   0.419   2.751
68828W        W30139  43.013  44.286   0.288
68829W        W30140   3.369  37.496   2.784
68830W        W30141  29.948  13.160   4.745
68831W        W30142  40.401  44.972  14.280
68832W        W30143  21.680  21.742   5.107
68833W        W30144  36.480  32.452  14.032
68834W        W30145  41.456   1.427   4.148
68835W        W30146  42.342  40.896  11.064
68836W        W30147   3.422  41.426  10.029
68837W        W30148  36.028   0.363   1.702
68838W        W30149   0.925  24.714  10.586
68839W        W30150  14.781  40.888  13.314
68840W        W30151  11.741  38.338  12.524
68841W        W30152  30.005  20.103   4.118
68842W        W30153  12.705  29.427   4.762
68843W        W30154  22.629  39.381  12.415
68844W        W30155  40.455   3.920   3.688
68845W        W30156  10.178  20.529  14.409
68846W        W30157  34.092  25.014   0.395
68847W        W30158  39.325  12.630  11.570
68848W        W30159  24.114  38.003  13.417
68849W        W30160  37.362  25.667  12.381
68850W        W30161  36.021  35.361  10.440
68851W        W30162  13.201  43.798  14.438
68852W        W30163  18.620  40.996  11.462
68853W        W30164  29.479  25.713   1.267
68854W        W30165  21.148  25.607   2.858
68855W        W30166  19.768  40.464   4.746
68856W        W30167  19.071   3.458   2.688
68857W        W30168   8.305   5.722  12.495
68858W        W30169  40.042  40.437  10.453
68859W        W30170   7.278  33.600   1.359
68860W        W30171  40.353  43.451  13.055
68861W        W30172  16.804   6.406  12.003
68862W        W30173   9.323  22.656   2.264
68863W        W30174  34.380  21.065  14.373
68864W        W30175  44.287  34.590   2.820
68865W        W30176   9.171   5.848  10.518
68866W        W30177   0.916  27.130   3.176
68867W        W30178  35.087   7.747   1.890
68868W        W30179  40.544  16.073  11.505
68869W        W30180  20.546  15.686   4.831
68870W        W30181  26.112  33.126  11.005
68871W        W30182  18.643  42.514   2.217
68872W        W30183  33.028  22.162  14.775
68873W        W30184  34.527  42.807   2.258
68874W        W30185  17.723  11.177   2.242
68875W        W30186   7.219   8.756  11.589
68876W        W30187  43.380  22.596   4.277
68877W        W30188  10.227  27.184  11.083
68878W        W30189  21.564  26.188   1.853
68879W        W30190  28.025  23.696  13.810
68880W        W30191  44.768  25.530   3.823
68881W        W30192   2.292  16.681   4.341
68882W        W30193   4.304   8.270  11.099
68883W        W30194  32.575  24.707   1.442
68884W        W30195   5.915  21.693  14.908
68885W        W30196  19.534  17.246  11.013
68886W        W30197   4.869  13.173   0.434
68887W        W30198  11.315   0.340   2.294
68888W        W30199  10.301  36.012  13.347
68889W        W30200  42.412  26.531   0.324
68890W        W30201  21.225  10.697   1.935
68891W        W30202   1.855   3.387  13.448
68892W        W30203   7.701  39.922   1.230
68893W        W30204  20.527  17.174   3.644
68894W        W30205  44.386   3.233   3.222
68895W        W30206  37.519  29.172  12.916
68896W        W30207  31.426  31.600   1.808
68897W        W30208  31.922  24.210  14.377
68898W        W30209  21.052  39.556  14.353
68899W        W30210  28.130   2.399   3.374
68900W        W30211  42.017   4.751   9.962
68901W        W30212  14.192  37.491  14.405
68902W        W30213  32.081  35.430   2.335
68903W        W30214  13.296  19.688   3.314
68904W        W30215   0.917  16.154   0.948
68905W        W30216  38.444   5.275   2.790
68906W        W30217  28.146  34.392  11.976
68907W        W30218  17.227  40.305  12.366
68908W        W30219  12.768   1.871  10.632
68909W        W30220   2.956  34.882   3.373
68910W        W30221  33.404  39.823   9.988
68911W        W30222  13.346  38.985   3.635
68912W        W30223   2.380  35.975   0.791
68913W        W30224  21.650  10.370   3.809
68914W        W30225  37.061  35.084  10.418
68915W        W30226  40.412  43.349   4.808
68916W        W30227  17.566  27.062   1.335
68917W        W30228  41.893  10.761   2.310
68918W        W30229  26.969   8.670   0.967
68919W        W30230  40.487  31.956  14.870
68920W        W30231  26.164  25.991  11.496
68921W        W30232  37.065  44.417   2.761
68922W        W30233  20.746  14.801   3.644
68923W        W30234  34.485  16.622  10.465
68924W        W30235  34.119  31.610  13.506
68925W        W30236  16.788  31.984  10.410
68926W        W30237  34.088   8.249  11.872
68927W        W30238  25.615  10.179   1.260
68928W        W30239  37.970  15.808  11.931
68929W        W30240   3.718  18.606  14.994
68930W        W30241  39.462  13.703  12.451
68931W        W30242   4.710  42.390   4.603
68932W        W30243  41.448   5.845   2.809
68933W        W30244  42.957   9.848  14.917
68934W        W30245   7.194  18.137   3.687
68935W        W30246  44.315   0.743   4.235
68936W        W30247   5.395  25.170  10.452
68937W        W30248  12.726   6.256   0.332
68938W        W30249  10.267  18.079   1.708
68939W        W30250   6.361  24.497  10.525
68940W        W30251  43.851   7.693  13.017
68941W        W30252  42.295  27.554   4.651
68942W        W30253  24.201  26.973  12.905
68943W        W30254   7.786  40.805   4.790
68944W        W30255  14.124  11.133   1.844
68945W        W30256  32.986  44.482   3.318
68946W        W30257  33.910  15.088  12.975
68947W        W30258  16.751   1.806   3.199
68948W        W30259   5.931  19.192  14.401
68949W        W30260  24.703  21.618   1.819
68950W        W30261   2.751  37.473  12.856
68951W        W30262  26.630  19.064   0.950
68952W        W30263   6.341  33.992  13.886
68953W        W30264  34.003  40.880   0.930
68954W        W30265  27.003  15.144  12.092
68955W        W30266   9.675  16.739   3.782
68956W        W30267  27.621  38.074   0.420
68957W        W30268  33.599  39.947  10.537
68958W        W30269   6.370  23.207   0.404
68959W        W30270  29.572  30.008  11.856
68960W        W30271   0.841   4.237   1.442
68961W        W30272  19.058  43.018   4.134
68962W        W30273  17.671   4.314   4.305
68963W        W30274   9.342   9.705  11.938
68964W        W30275   4.699  35.579   2.212
68965W        W30276  24.168  29.088  10.148
68966W        W30277  11.140  42.422  11.885
68967W        W30278  11.158  34.371   2.405
68968W        W30279  21.707  41.503   9.509
68969W        W30280  36.089  18.278   0.426
68970W        W30281  15.813  33.957  12.055
68971W        W30282  24.064  15.124   0.866
68972W        W30283  21.554  32.626  13.802
68973W        W30284  34.980   2.278   1.934
68974W        W30285   3.725  35.367   2.390
68975W        W30286   0.967  17.265  10.593
68976W        W30287  36.900  44.896   1.274
68977W        W30288  23.086  42.426   1.768
68978W        W30289  20.035  28.455  10.450
68979W        W30290   1.304  41.479   3.289
68980W        W30291  19.772  13.121   0.397
68981W        W30292  40.435   6.213   0.870
68982W        W30293  30.415  14.241  13.978
68983W        W30294   1.825  37.475  11.954
68984W        W30295  24.504  44.483   4.671
68985W        W30296  11.158  36.992   0.345
68986W        W30297   8.768  13.748  14.493
68987W        W30298   7.854  40.328   1.410
68988W        W30299  14.595   4.314  12.878
68989W        W30300  33.989  28.656  10.896
68990W        W30301  20.061  14.186   4.319
68991W        W30302  17.700  14.739   5.114
68992W        W30303  27.647  41.387  11.903
68993W        W30304   7.758  22.548  14.780
68994W        W30305  26.518  44.310  12.833
68995W        W30306  39.925  14.815   2.208
68996W        W30307  29.007  44.940   1.371
68997W        W30308  17.565   0.895   1.430
68998W        W30309  23.215  17.114  14.500
68999W        W30310   6.322  43.967  13.360
69000W        W30311  36.386  17.167   4.166
69001W        W30312   4.280  22.580   2.668
69002W        W30313  36.496   8.739  11.463
69003W        W30314   2.370  10.683  12.573
69004W        W30315  36.425  33.095   4.702
69005W        W30316  20.147  41.857  12.387
69006W        W30317  37.876  15.209  13.342
69007W        W30318  42.447  27.121  14.372
69008W        W30319   1.754  37.385  11.052
69009W        W30320  23.561  13.794  12.345
69010W        W30321   2.303   9.325  12.541
69011W        W30322   1.407  14.134   4.340
69012W        W30323  15.263   4.755   2.367
69013W        W30324  40.880   9.328  14.882
69014W        W30325   4.881  44.303   3.783
69015W        W30326  41.951  12.701   1.917
69016W        W30327  44.323  11.643   3.308
69017W        W30328  41.383  42.826   2.231
69018W        W30329  16.601  41.394  11.071
69019W        W30330  37.425  25.968  13.958
69020W        W30331  31.489   8.834  11.431
69021W        W30332  37.853  40.013  13.825
69022W        W30333  39.489  41.450  13.909
69023W        W30334  26.047  10.352  13.954
69024W        W30335  33.051  32.064  12.081
69025W        W30336  22.021  36.881   1.709
69026W        W30337  20.115  12.800   1.795
69027W        W30338   7.890  15.764  12.461
69028W        W30339  21.729   3.230   3.682
69029W        W30340  12.630  18.640  13.521
69030W        W30341  18.247  24.530  12.528
69031W        W30342   5.239   9.663   2.878
69032W        W30343  20.685  44.497   4.739
69033W        W30344  37.947  33.502   3.166
69034W        W30345  44.831   8.189  14.807
69035W        W30346   7.300  26.158   2.362
69036W        W30347  41.405  30.431   3.787
69037W        W30348  31.414  44.794   2.274
69038W        W30349  29.026  30.955   4.714
69039W        W30350  40.321  21.129   4.649
69040W        W30351  33.876  18.645   4.667
69041W        W30352  35.507  19.042   2.350
69042W        W30353  21.225  22.521   0.324
69043W        W30354   2.866  29.996   2.202
69044W        W30355  39.544  18.150  12.462
69045W        W30356   4.324  42.873  14.986
69046W        W30357  22.614   6.775  13.387
69047W        W30358  43.829  20.088  11.092
69048W        W30359  34.500   3.736  12.374
69049W        W30360   2.932  28.041  12.394
69050W        W30361  10.682   8.758   4.722
69051W        W30362  36.888  16.756  13.800
69052W        W30363  40.804   2.942  13.922
69053W        W30364  37.869  15.639   5.313
69054W        W30365   9.696   8.716  12.418
69055W        W30366  11.370  34.942  14.005
69056W        W30367  43.005  34.411  10.100
69057W        W30368  22.727   4.223   3.289
69058W        W30369  36.381  24.485  11.528
69059W        W30370   9.203  44.823  14.767
69060W        W30371   3.948   3.937   3.778
69061W        W30372  34.953  33.082  12.558
69062W        W30373   8.863  18.756   4.350
69063W        W30374  33.501  43.461  12.950
69064W        W30375  11.832   5.305   0.483
69065W        W30376   0.781   1.266  13.431
69066W        W30377   2.778  15.667   4.223
69067W        W30378   1.919   4.300   2.676
69068W        W30379  19.119  23.172   3.239
69069W        W30380  23.008  16.157   2.847
69070W        W30381  24.105  36.875   3.766
69071W        W30382  37.013  21.724  11.077
69072W        W30383  21.737  32.634   0.349
69073W        W30384  38.427  25.980  11.437
69074W        W30385  37.893  44.286  10.464
69075W        W30386  36.937  30.641   1.932
69076W        W30387  28.515   9.318  12.423
69077W        W30388  24.642  19.275   1.881
69078W        W30389   1.898  10.795  11.890
69079W        W30390  37.550  28.039   0.366
69080W        W30391  24.150   7.357  13.487
69081W        W30392  18.296  12.719  11.065
69082W        W30393   4.886  21.556  11.114
69083W        W30394  28.648   1.263  10.543
69084W        W30395   7.233  32.941   1.838
69085W        W30396  32.402  31.925  12.389
69086W        W30397  21.728  43.880  13.922
69087W        W30398  37.414  36.586  13.851
69088W        W30399  11.855   9.732  12.459
69089W        W30400  31.477   5.816   1.215
69090W        W30401  25.645  14.713  12.427
69091W        W30402  29.930  40.892   0.265
69092W        W30403   2.402  27.622   1.430
69093W        W30404  22.615  15.214   2.853
69094W        W30405  28.952  40.387  12.891
69095W        W30406  44.477  18.153   3.869
69096W        W30407  15.247   1.971  14.890
69097W        W30408  37.566   9.201   1.787
69098W        W30409   4.209  38.824   4.262
69099W        W30410  39.540   4.321  14.008
69100W        W30411  26.636   6.687  13.368
69101W        W30412  10.806  37.934   4.612
69102W        W30413  34.983  12.226   0.361
69103W        W30414  32.056  23.014   0.391
69104W        W30415  15.221   9.321  14.418
69105W        W30416  43.917   9.296   0.933
69106W        W30417   6.680  42.498   2.380
69107W        W30418  15.697  11.146  12.963
69108W        W30419  10.153  39.546   3.687
69109W        W30420  30.142  35.935   0.404
69110W        W30421  30.608  27.508  12.547
69111W        W30422  34.458  41.424  10.997
69112W        W30423  15.675   8.706   4.686
69113W        W30424  42.466  16.730  13.016
69114W        W30425  26.151   8.386  12.859
69115W        W30426  14.830   0.386   0.357
69116W        W30427  17.612  31.032   2.337
69117W        W30428   4.381  11.756  12.524
69118W        W30429  25.995  34.981   2.814
69119W        W30430  11.758  40.054   1.909
69120W        W30431  17.263   7.671   3.826
69121W        W30432  20.237  17.216  13.797
69122W        W30433  40.820   7.749   0.423
69123W        W30434  27.593  27.107  13.531
69124W        W30435  42.897   7.823   3.831
69125W        W30436   5.864  18.221   3.363
69126W        W30437  27.063  20.755   1.379
69127W        W30438   4.931  27.523  12.413
69128W        W30439   2.743  17.082  10.409
69129W        W30440  37.834  26.198  11.954
69130W        W30441  44.898  22.131   3.826
69131W        W30442   6.863   8.828  12.862
69132W        W30443   3.315   8.163  14.854
69133W        W30444  44.397  22.234   0.826
69134W        W30445  24.210   7.830  11.582
69135W        W30446  41.934  36.509   3.346
69136W        W30447  12.175  44.452  11.916
69137W        W30448  31.987  34.078  12.389
69138W        W30449  28.093  34.020  12.352
69139W        W30450  36.935  43.467  13.328
69140W        W30451   0.280  32.500  11.997
69141W        W30452  40.523  35.478   1.812
69142W        W30453  33.907  42.974   9.983
69143W        W30454   2.416  23.497  14.803
69144W        W30455  38.833  43.784  12.080
69145W        W30456  12.712  18.759  12.951
69146W        W30457  37.046  17.307   4.783
69147W        W30458   1.772  18.206  14.431
69148W        W30459   7.253  37.855   4.131
69149W        W30460  36.868  19.694   2.889
69150W        W30461  40.459   8.826   4.608
69151W        W30462  15.206   8.284   1.816
69152W        W30463  16.722  29.111  10.981
69153W        W30464  33.537  27.687   1.904
69154W        W30465  28.508  29.484  14.363
69155W        W30466   6.360  14.603  12.848
69156W        W30467  18.655  18.244   1.905
69157W        W30468   1.399  20.648   4.725
69158W        W30469  39.892  39.872  14.823
69159W        W30470  24.197   0.487  12.427
69160W        W30471  42.376   9.799   4.777
69161W        W30472  27.509  15.604  11.015
69162W        W30473   9.802  26.035   2.326
69163W        W30474  34.970  17.770  14.354
69164W        W30475  43.318   9.865   3.256
69165W        W30476  36.383  35.995   3.748
69166W        W30477   1.243  41.445   1.270
69167W        W30478  41.399  34.482  12.481
69168W        W30479  36.986  44.410   4.709
69169W        W30480  17.194  41.343   4.206
69170W        W30481  43.391  12.212   3.274
69171W        W30482  23.052  36.359   4.600
69172W        W30483  43.022   9.321  10.926
69173W        W30484  13.681   6.184  14.846
69174W        W30485  39.391  44.328   1.895
69175W        W30486   0.857  37.411  12.533
69176W        W30487  35.451  18.111  10.504
69177W        W30488  32.393  18.603  11.064
69178W        W30489   9.217   2.731  11.998
69179W        W30490  40.875  40.027  11.478
69180W        W30491   8.774  28.166  11.582
69181W        W30492  12.333  35.954   3.252
69182W        W30493  23.110   0.442   2.339
69183W        W30494  38.521  16.294  14.785
69184W        W30495  37.831  31.499   3.762
69185W        W30496  30.928   4.870   4.834
69186W        W30497  43.811  10.266   2.210
69187W        W30498  44.418  39.520   2.673
69188W        W30499   3.277   7.348   0.798
69189W        W30500  20.233  33.001  14.285
69190W        W30501  14.177  38.395  13.910
69191W        W30502  24.977  24.102   2.860
69192W        W30503  31.497  40.393   0.420
69193W        W30504  31.056  27.053   1.253
69194W        W30505   1.407  18.121   2.281
69195W        W30506  29.032  18.226  12.916
69196W        W30507   5.314  44.768  14.758
69197W        W30508   6.266  21.112   5.182
69198W        W30509  42.836  40.907  10.989
69199W        W30510  33.887  37.949  10.932
69200W        W30511  32.440  26.614  12.549
69201W        W30512  40.834  28.966   2.701
69202W        W30513   6.295  36.052   0.424
69203W        W30514  28.097   7.318  11.967
69204W        W30515  22.656  41.849   1.713
69205W        W30516  36.078   6.314   4.125
69206W        W30517  39.372  41.850   3.235
69207W        W30518  33.924  42.869   0.790
69208W        W30519  15.627  25.479   5.111
69209W        W30520  38.501  42.941   5.231
69210W        W30521  11.653  21.726  13.919
69211W        W30522  40.008  26.188  13.036
69212W        W30523   8.808  43.984   3.254
69213W        W30524  38.560  37.908   3.804
69214W        W30525  12.323  26.609  13.956
69215W        W30526  43.309  17.097   2.243
69216W        W30527  11.136  24.671  14.966
69217W        W30528  10.836  14.224   0.932
69218W        W30529  40.026   9.881   4.154
69219W        W30530  23.218  11.660   4.819
69220W        W30531  24.624  30.458  11.079
69221W        W30532  21.626  42.880  14.799
69222W        W30533  28.123  16.684  12.553
69223W        W30534   2.274  19.647   9.966
69224W        W30535  10.640  36.082  14.426
69225W        W30536  15.251  44.397  11.401
69226W        W30537  31.995  36.851  13.873
69227W        W30538   2.738  41.423  10.406
69228W        W30539  26.111  25.115   3.738
69229W        W30540   4.230  16.279  11.910
69230W        W30541  25.175   8.278   3.763
69231W        W30542  36.916  14.231  12.012
69232W        W30543   1.808  43.492  14.855
69233W        W30544  23.504   8.328  12.005
69234W        W30545  10.834  15.602  13.931
69235W        W30546  33.076   6.401   0.359
69236W        W30547   1.759  24.199  14.911
69237W        W30548  33.930  18.640  10.517
69238W        W30549  31.918  41.365   3.807
69239W        W30550  26.532  32.512   9.487
69240W        W30551   4.211  21.091  11.867
69241W        W30552   1.950  37.937  11.582
69242W        W30553   5.834  25.112   3.337
69243W        W30554  40.831  34.387  12.570
69244W        W30555  10.315  13.303   0.808
69245W        W30556   2.792  11.266   3.249
69246W        W30557  30.435  11.152   2.365
69247W        W30558  20.635  22.083  11.105
69248W        W30559  38.359  30.023   5.590
69249W        W30560   0.869  15.163   0.267
69250W        W30561  43.957  21.217  10.947
69251W        W30562  13.660  25.481   3.837
69252W        W30563   1.841  33.924   2.354
69253W        W30564  43.917  25.061   2.686
69254W        W30565  28.975  39.379   1.222
69255W        W30566  41.981   7.204   0.406
69256W        W30567   8.741  42.953   1.791
69257W        W30568   8.170  16.315   4.259
69258W        W30569   5.243  24.704  12.905
69259W        W30570  36.378   8.282  10.945
69260W        W30571  33.450   6.238  11.923
69261W        W30572  39.397  19.214  13.040
69262W        W30573  26.132  35.379   4.614
69263W        W30574  16.764  35.896  13.989
69264W        W30575  37.420   8.312   1.905
69265W        W30576  25.154  12.693   2.806
69266W        W30577  38.004  44.437  13.339
69267W        W30578  27.087  26.632   4.722
69268W        W30579  15.222  40.514   4.337
69269W        W30580  41.839   1.276   1.890
69270W        W30581  33.915  37.416  14.898
69271W        W30582   7.812  22.620   2.183
69272W        W30583  33.565  21.249   0.815
69273W        W30584  42.822   0.903   2.678
69274W        W30585  15.318  39.948   2.370
69275W        W30586  16.752  12.850   3.214
69276W        W30587  11.144   2.452   4.301
69277W        W30588  11.769  43.779   0.261
69278W        W30589  24.211  30.951  12.455
69279W        W30590  19.062  40.489  13.866
69280W        W30591  13.301  26.002   2.319
69281W        W30592  15.789   6.189  13.904
69282W        W30593   4.825   1.788  10.948
69283W        W30594  36.945  11.731   2.674
69284W        W30595  42.476  31.624   2.723
69285W        W30596  32.905  18.228  12.467
69286W        W30597  30.417  28.932  11.457
69287W        W30598  27.064  23.067   1.773
69288W        W30599  43.952   1.757  13.464
69289W        W30600   1.446  21.565   1.225
69290W        W30601  43.362  25.212   4.304
69291W        W30602   0.869   5.875   2.700
69292W        W30603  29.932  15.670  11.044
69293W        W30604   0.444   1.298   1.881
69294W        W30605  28.449   2.229  11.085
69295W        W30606  16.256   7.197   0.431
69296W        W30607   6.752   1.783  12.508
69297W        W30608   6.338  37.080  10.915
69298W        W30609  41.379   8.672  13.958
69299W        W30610  37.023  43.443  10.586
69300W        W30611  28.622   8.256  14.280
69301W        W30612   2.964  32.393  11.960
69302W        W30613  33.918  17.274  14.456
69303W        W30614  31.638  21.140  13.802
69304W        W30615   8.226  41.869   1.280
69305W        W30616   4.744  28.986   4.820
69306W        W30617  44.935  42.978   2.739
69307W        W30618  31.410  13.256  12.068
69308W        W30619  34.486  40.928   1.223
69309W        W30620  12.218  31.411   3.844
69310W        W30621  16.246  38.973  13.400
69311W        W30622  28.079  15.820  10.457
69312W        W30623  35.012  41.517   1.326
69313W        W30624  11.360   7.760  13.512
69314W        W30625  28.572   0.281   0.959
69315W        W30626  27.529   6.732   0.809
69316W        W30627  22.726  30.037  14.297
69317W        W30628  10.284  42.483  13.469
69318W        W30629   2.303  19.740  13.466
69319W        W30630  43.010  15.150   0.791
69320W        W30631  24.182  14.248   5.245
69321W        W30632  22.191  43.308   2.695
69322W        W30633   3.417  20.744   4.796
69323W        W30634   5.855   2.368   0.794
69324W        W30635   2.294  26.522   3.695
69325W        W30636  40.979  25.171   3.325
69326W        W30637  42.005  23.592  12.476
69327W        W30638  40.490  26.642   0.816
69328W        W30639  31.093  14.743   0.400
69329W        W30640   8.743  18.671   1.431
69330W        W30641  19.595   1.399   2.710
69331W        W30642  29.448  19.733   2.736
69332W        W30643  25.151  34.096  13.520
69333W        W30644   3.917  39.381  10.992
69334W        W30645   5.725   1.870  11.086
69335W        W30646  17.267  28.072   2.386
69336W        W30647  39.026  31.009   1.415
69337W        W30648  36.861  17.198  14.497
69338W        W30649  15.803  10.806  14.429
69339W        W30650   6.197   8.382   0.824
69340W        W30651  25.578  21.566  12.062
69341W        W30652  10.290  25.696   4.207
69342W        W30653  16.236   1.478   0.470
69343W        W30654  20.033  15.251   1.915
69344W        W30655  29.996  36.551  10.419
69345W        W30656  15.808  19.253  12.958
69346W        W30657  31.039  22.522  12.567
69347W        W30658  14.145  24.227   3.255
69348W        W30659   9.207   9.334  13.855
69349W        W30660  42.296  21.658   0.260
69350W        W30661  28.101  17.619   3.727
69351W        W30662  41.837  27.943   0.249
69352W        W30663  44.858  42.791  10.911
69353W        W30664   5.687  21.233  10.607
69354W        W30665  20.190  13.640   2.362
69355W        W30666  34.600  21.600  11.446
69356W        W30667  44.992   2.370  12.998
69357W        W30668  13.781  27.990   0.454
69358W        W30669   2.417  39.948   4.715
69359W        W30670   1.286  44.808  12.882
69360W        W30671  31.526  23.498  11.867
69361W        W30672  24.169  26.172   2.188
69362W        W30673  22.721  21.039  11.418
69363W        W30674  41.867   3.284  10.009
69364W        W30675  30.142  35.019   4.771
69365W        W30676  32.431  38.519  12.022
69366W        W30677  32.990  41.930   3.211
69367W        W30678  12.773   0.985   2.247
69368W        W30679  20.049  18.128   4.602
69369W        W30680  27.107  43.821   3.373
69370W        W30681  20.541  35.871  11.888
69371W        W30682   2.352  28.164  11.866
69372W        W30683  41.447   0.978   0.307
69373W        W30684  40.519  12.128  12.509
69374W        W30685  28.540  32.048   1.415
69375W        W30686  27.620   9.860   4.115
69376W        W30687  13.281  20.671   3.387
69377W        W30688  34.114   6.240   1.436
69378W        W30689   5.224  17.070   3.263
69379W        W30690  35.970  12.773   4.195
69380W        W30691  14.296  11.325  10.594
69381W        W30692  11.650   6.386   3.860
69382W        W30693  13.275  43.335  10.993
69383W        W30694  22.133  39.530   0.796
69384W        W30695  22.182  21.064   2.341
69385W        W30696  40.028  18.119   2.297
69386W        W30697   0.418  38.440   1.783
69387W        W30698  33.035  19.230   2.299
69388W        W30699  38.046  44.283  12.093
69389W        W30700  17.600  16.086  12.531
69390W        W30701  42.339  28.149   0.389
69391W        W30702   4.932  29.472  10.615
69392W        W30703  16.120  29.605  11.011
69393W        W30704  29.634  13.767  13.489
69394W        W30705   3.454  23.064   2.853
69395W        W30706  17.787  43.813   3.637
69396W        W30707  20.531  24.173   0.421
69397W        W30708  33.007  13.166  12.001
69398W        W30709  29.046   2.851  10.634
69399W        W30710   1.949  30.040  13.515
69400W        W30711  31.448  16.706   4.234
69401W        W30712  33.469  20.589  14.846
69402W        W30713  19.170  27.551  11.087
69403W        W30714  32.568   6.811  10.441
69404W        W30715  26.617  40.307   3.246
69405W        W30716  14.649  16.184  12.919
69406W        W30717  32.029  11.757   0.880
69407W        W30718  30.971  24.515   0.811
69408W        W30719  14.700  41.361  12.985
69409W        W30720   7.253   6.755   3.372
69410W        W30721  24.496  20.088   2.232
69411W        W30722  13.217  10.773  13.522
69412W        W30723  32.953  43.964   2.859
69413W        W30724  29.511  35.434  11.860
69414W        W30725  30.119  32.115   3.252
69415W        W30726  43.883   6.785   0.471
69416W        W30727  12.628  39.810  12.921
69417W        W30728   8.299  39.992   3.843
69418W        W30729  40.535  40.353  14.806
69419W        W30730   6.913  40.316   4.326
69420W        W30731  19.608  18.693  13.395
69421W        W30732  34.420   9.780   2.817
69422W        W30733  34.946  15.314  10.994
69423W        W30734  10.267   1.871   0.935
69424W        W30735  24.228  14.328   1.729
69425W        W30736  41.433  18.769   0.851
69426W        W30737  12.306   3.316   2.408
69427W        W30738  10.677  35.016   9.953
69428W        W30739  21.223  25.005  13.860
69429W        W30740  32.413  22.081  11.593
69430W        W30741   5.909  36.592  12.573
69431W        W30742  18.060  40.346  14.465
69432W        W30743  29.615   2.823   4.273
69433W        W30744   3.716   8.369  11.407
69434W        W30745  16.166  35.439   2.843
69435W        W30746  40.522   0.958  11.996
69436W        W30747  36.062  35.954   0.925
69437W        W30748  30.125  40.959   0.824
69438W        W30749  42.988   5.222  12.568
69439W        W30750   9.258  26.013   3.322
69440W        W30751   1.876   1.280  13.036
69441W        W30752   0.267  44.794  10.406
69442W        W30753  11.276  41.464  11.502
69443W        W30754  14.601  22.682  11.009
69444W        W30755   3.328  10.789  14.481
69445W        W30756  44.452  42.841  14.816
69446W        W30757   6.396  15.726   1.758
69447W        W30758   9.183  36.593  14.764
69448W        W30759  24.515   3.854  13.907
69449W        W30760  37.510   6.681   2.692
69450W        W30761  23.634  16.799   1.728
69451W        W30762  37.048  22.693  13.872
69452W        W30763  35.450   1.441  10.610
69453W        W30764  42.867  10.257  10.553
69454W        W30765   2.882  13.188  11.901
69455W        W30766  17.189  44.322  13.972
69456W        W30767  32.558  38.507   3.867
69457W        W30768   4.819  40.868  12.915
69458W        W30769   4.761  27.943  13.411
69459W        W30770  19.766  42.514   4.698
69460W        W30771  37.400  16.286  11.123
69461W        W30772  13.707  32.430  13.920
69462W        W30773  29.949  15.110   2.783
69463W        W30774  35.401  33.984   3.269
69464W        W30775  25.711  27.654   0.274
69465W        W30776   9.868  21.699  13.412
69466W        W30777   1.390  42.290   0.356
69467W        W30778   1.771  16.161  13.436
69468W        W30779  34.467   9.381   1.252
69469W        W30780  35.604  42.986  10.507
69470W        W30781  33.890  18.274   0.368
69471W        W30782   0.804   0.342  11.597
69472W        W30783   2.410   7.264   2.901
69473W        W30784  15.254  29.637  12.545
69474W        W30785  42.966  30.920   2.699
69475W        W30786  31.122   5.710  13.417
69476W        W30787  16.680   4.240   1.331
69477W        W30788  39.529  37.338  10.966
69478W        W30789   6.863  18.141  14.816
69479W        W30790  18.693  29.599  11.473
69480W        W30791   2.870  31.497   1.403
69481W        W30792  17.092  23.114  11.928
69482W        W30793  41.840  19.176   4.187
69483W        W30794  20.235  40.871  12.407
69484W        W30795  11.713   7.382   2.703
69485W        W30796  21.071  17.693   3.172
69486W        W30797  41.836   3.459  11.554
69487W        W30798  31.434   5.428  14.905
69488W        W30799  41.401  40.457   4.741
69489W        W30800   6.295   9.173   0.841
69490W        W30801  16.169   6.423  10.917
69491W        W30802  23.704  24.533  12.049
69492W        W30803  39.489   6.678   3.308
69493W        W30804   5.382  42.879   2.711
69494W        W30805   6.846  23.129   3.213
69495W        W30806  33.615  36.437  12.355
69496W        W30807   9.865  27.472   1.747
69497W        W30808  21.188   0.900   1.907
69498W        W30809   8.803  36.962  10.487
69499W        W30810  16.774  11.771  12.922
69500W        W30811  35.077  22.597   1.332
69501W        W30812  43.964  36.416  11.508
69502W        W30813  21.235   6.387  10.986
69503W        W30814  26.144   0.368   2.334
69504W        W30815  13.317  42.349   2.381
69505W        W30816  19.043  28.968  14.364
69506W        W30817   4.707  43.968  12.377
69507W        W30818  14.104  18.724   2.864
69508W        W30819  19.187   0.812  12.554
69509W        W30820  10.663   5.391  12.956
69510W        W30821  39.443   9.764   0.759
69511W        W30822  31.898   1.747  13.981
69512W        W30823  30.981  19.578   1.266
69513W        W30824  22.043   9.270  10.509
69514W        W30825   8.163  14.616  13.929
69515W        W30826  20.582   9.342  14.965
69516W        W30827  29.655  33.514   3.248
69517W        W30828  16.166  43.883   3.176
69518W        W30829  17.227  38.498   3.153
69519W        W30830  33.998  21.647  13.545
69520W        W30831  25.676  11.316  10.572
69521W        W30832  25.685  41.832   0.956
69522W        W30833   4.847  41.514   4.636
69523W        W30834   3.422  26.605  13.036
69524W        W30835  40.378   3.403  14.408
69525W        W30836  30.132   5.318   3.381
69526W        W30837  29.494   5.244   1.411
69527W        W30838  39.341  34.968  14.818
69528W        W30839  10.751  38.038  13.808
69529W        W30840  11.683  11.645  13.544
69530W        W30841  11.839  30.077   4.624
69531W        W30842  18.167  26.084  14.784
69532W        W30843  21.070  15.579  10.968
69533W        W30844  17.643   3.320   3.663
69534W        W30845  19.575  12.625  11.112
69535W        W30846  42.022  38.567  10.982
69536W        W30847  40.929  40.879  10.527
69537W        W30848  28.533  35.094  13.874
69538W        W30849  43.475  23.035  13.797
69539W        W30850  34.472  18.090  13.054
69540W        W30851  29.114  28.581   4.753
69541W        W30852  20.047  29.578   0.251
69542W        W30853  31.570  23.206   4.707
69543W        W30854  12.141  29.971   2.274
69544W        W30855   2.447  38.486  11.383
69545W        W30856  15.743  26.461  11.108
69546W        W30857  21.752  43.283  11.953
69547W        W30858  14.756  27.629  10.452
69548W        W30859  24.029  14.288   0.299
69549W        W30860  12.129   0.353   0.386
69550W        W30861  27.649  41.394  12.860
69551W        W30862  26.000   7.738   0.762
69552W        W30863  26.641  18.598  12.434
69553W        W30864  22.023  20.590  12.957
69554W        W30865   6.225  38.032   2.711
69555W        W30866  18.561  19.608  10.965
69556W        W30867  30.529  35.384   2.312
69557W        W30868  31.467  13.723   1.340
69558W        W30869   2.815  25.968  11.026
69559W        W30870  33.609  18.162  12.573
69560W        W30871  42.378   9.785  12.892
69561W        W30872   4.390   0.867  14.438
69562W        W30873  36.867  44.385   4.153
69563W        W30874  33.019  35.415   4.270
69564W        W30875  23.236  29.974   3.682
69565W        W30876  24.011  24.557  11.402
69566W        W30877  41.001  25.708  14.952
69567W        W30878  40.851  32.589   1.703
69568W        W30879   5.338  33.041  12.519
69569W        W30880   1.954   1.781   4.626
69570W        W30881   4.721  42.920   2.699
69571W        W30882  42.299  17.209  14.980
69572W        W30883   3.455  26.511  12.356
69573W        W30884  38.955  39.960   3.240
69574W        W30885  20.632  37.869  11.546
69575W        W30886  23.038   4.733  14.808
69576W        W30887  22.527  23.074   2.858
69577W        W30888   8.388  16.759   0.966
69578W        W30889  44.974  37.489   3.290
69579W        W30890   6.210  13.840   0.869
69580W        W30891  41.853   3.736   2.327
69581W        W30892   7.780   2.250  13.900
69582W        W30893  25.981  38.981  11.122
69583W        W30894  11.349  32.966   2.305
69584W        W30895   2.922  26.477   3.741
69585W        W30896  28.590   9.318  11.910
69586W        W30897  41.337  41.320   0.371
69587W        W30898  25.205   2.266   0.731
69588W        W30899  26.670   8.696  12.525
69589W        W30900  22.587  35.389  12.833
69590W        W30901  38.864  40.850   1.747
69591W        W30902  28.601  44.379  11.123
69592W        W30903  29.016  37.840   2.688
69593W        W30904   2.925  44.868  13.899
69594W        W30905  28.115  42.951   0.888
69595W        W30906   9.263  41.042  11.908
69596W        W30907  27.005  24.531   4.772
69597W        W30908   7.207  14.174  12.474
69598W        W30909   9.876   7.739  12.426
69599W        W30910   6.887  12.760   1.226
69600W        W30911   6.806  12.347   4.663
69601W        W30912  42.408  36.864  11.400
69602W        W30913  28.989   7.834   3.631
69603W        W30914  35.030  20.536  14.318
69604W        W30915  41.810  10.669  14.432
69605W        W30916  32.015  41.984   1.772
69606W        W30917  16.118   3.794  12.973
69607W        W30918  19.173  31.986  12.344
69608W        W30919  34.592  40.005  11.573
69609W        W30920  18.055  20.235  12.443
69610W        W30921  31.897  23.184  12.483
69611W        W30922  20.174  23.641  13.501
69612W        W30923  33.945  29.169   3.268
69613W        W30924   2.922  43.782  10.512
69614W        W30925  42.877  22.696   4.343
69615W        W30926  10.869   4.879  10.582
69616W        W30927  38.850  23.214   2.305
69617W        W30928   2.898  16.284   0.274
69618W        W30929  28.626  24.597   0.799
69619W        W30930   7.736  43.958  12.453
69620W        W30931  26.963   5.274  12.926
69621W        W30932  36.982  12.617  12.371
69622W        W30933   8.284  22.646   1.865
69623W        W30934   3.384  25.072  12.481
69624W        W30935   9.761   7.772  11.043
69625W        W30936  23.693  11.296  12.364
69626W        W30937  24.706  32.033  10.888
69627W        W30938  40.825  23.125   4.705
69628W        W30939   1.948   7.192   0.839
69629W        W30940  39.907  16.309   1.352
69630W        W30941  34.598  44.815  14.883
69631W        W30942   0.271   3.860  14.480
69632W        W30943  10.837  24.228  10.601
69633W        W30944  33.610  38.922  11.483
69634W        W30945  14.262  12.718  11.526
69635W        W30946  39.515   6.853  14.403
69636W        W30947  42.395  27.196   1.260
69637W        W30948  13.303  24.138   0.750
69638W        W30949  33.877  41.886  10.471
69639W        W30950  34.381  34.387   1.926
69640W        W30951  19.755   8.760  11.089
69641W        W30952  40.819  18.767   1.875
69642W        W30953  10.340  28.435  12.081
69643W        W30954  25.066  36.983   1.793
69644W        W30955  40.882   3.890  14.286
69645W        W30956  33.414  17.225  14.765
69646W        W30957   2.419  43.486  11.071
69647W        W30958   7.770   0.360  14.379
69648W        W30959  40.492  22.590   1.265
69649W        W30960  31.014  36.557   2.301
69650W        W30961   0.755  24.208  10.542
69651W        W30962  23.715  30.473  11.481
69652W        W30963  26.508  11.334   0.875
69653W        W30964  12.759   4.315  11.069
69654W        W30965  32.430   7.255   0.913
69655W        W30966  30.628  40.888   0.748
69656W        W30967  32.609  43.821   3.736
69657W        W30968  42.454   3.461  11.890
69658W        W30969   7.285  36.958  14.512
69659W        W30970  10.714  35.020   4.143
69660W        W30971  12.706  19.143  12.051
69661W        W30972   7.805  33.520  13.362
69662W        W30973  32.072  23.000   2.265
69663W        W30974   4.237   7.720  11.089
69664W        W30975  40.480  26.579   0.366
69665W        W30976  42.798   3.316   5.183
69666W        W30977   3.875   7.791   1.236
69667W        W30978   0.771  10.237  10.033
69668W        W30979  35.370   4.383  11.607
69669W        W30980  36.965   3.776  14.919
69670W        W30981   6.897   9.206  14.460
69671W        W30982  44.756  37.002  12.952
69672W        W30983   0.448  30.946  14.022
69673W        W30984  35.979  32.550  13.341
69674W        W30985  39.526  12.135  13.881
69675W        W30986  44.458  44.769   3.233
69676W        W30987  18.660   6.406   1.782
69677W        W30988  17.235  37.569   2.378
69678W        W30989  11.373  13.679  14.989
69679W        W30990   8.160  21.738   0.247
69680W        W30991  18.162  26.697   0.845
69681W        W30992  27.658  13.169   4.719
69682W        W30993  20.608  27.975  11.017
69683W        W30994  33.505  25.476   2.258
69684W        W30995   1.246  16.186  13.038
69685W        W30996   4.433  15.630  12.851
69686W        W30997  17.581  39.997  14.509
69687W        W30998  16.219  34.466  12.482
69688W        W30999  28.571  41.923   3.343
69689W        W31000  31.121  32.397   4.786
69690W        W31001  34.053  17.723   1.435
69691W        W31002  15.643  15.263   5.208
69692W        W31003  28.455  27.450   3.190
69693W        W31004  12.147   9.355   1.265
69694W        W31005   8.864  41.818   4.160
69695W        W31006  23.131  36.980  14.976
69696W        W31007  25.523  23.003  14.019
69697W        W31008  16.608  11.279   5.172
69698W        W31009   5.883   9.780   2.711
69699W        W31010  33.942   5.308   2.401
69700W        W31011  41.457  36.561  10.625
69701W        W31012  11.790  11.726  11.435
69702W        W31013  32.043   1.762   4.765
69703W        W31014  10.834   5.275   2.873
69704W        W31015  12.781  27.536  12.968
69705W        W31016  40.038  31.628   4.791
69706W        W31017   9.387  35.506   0.430
69707W        W31018  26.961   1.388   0.771
69708W        W31019  39.899  29.066  14.320
69709W        W31020   7.313  11.195   1.412
69710W        W31021   8.360   4.813   3.294
69711W        W31022  33.131  40.921   4.263
69712W        W31023  29.440  12.691   0.251
69713W        W31024  18.237  19.176  14.308
69714W        W31025  31.414  27.041   1.399
69715W        W31026  16.105  23.051   2.339
69716W        W31027  18.696  32.550  13.410
69717W        W31028  22.679   5.326   2.325
69718W        W31029  17.217  36.867  10.909
69719W        W31030  29.057  42.348   3.785
69720W        W31031  20.760  41.937  12.397
69721W        W31032  30.430  41.388   1.751
69722W        W31033  25.072  17.252  12.444
69723W        W31034   4.877  40.880   4.789
69724W        W31035  18.765  41.310   0.340
69725W        W31036  24.007   4.922   1.723
69726W        W31037  20.759  13.250   2.872
69727W        W31038   3.439  18.195  12.834
69728W        W31039  21.513   9.308  10.462
69729W        W31040  22.682   9.698  14.478
69730W        W31041   2.391  13.756   0.928
69731W        W31042  26.533  16.567   2.686
69732W        W31043  18.615   1.868  12.892
69733W        W31044  25.988  16.622  14.434
69734W        W31045   8.876  30.611   4.696
69735W        W31046  13.281  40.817  14.789
69736W        W31047  32.428  37.505   1.839
69737W        W31048  24.193  13.785  10.606
69738W        W31049  38.926  15.754  13.961
69739W        W31050  43.918  23.622  11.594
69740W        W31051  25.633   6.683  14.334
69741W        W31052   3.382   7.232  14.335
69742W        W31053  31.562  35.078  13.021
69743W        W31054   8.205   2.886  10.594
69744W        W31055   0.788   3.949  14.364
69745W        W31056   1.325   7.282  13.813
69746W        W31057  11.834  41.908   1.933
69747W        W31058  26.037  24.096   2.692
69748W        W31059  27.559  43.488  11.026
69749W        W31060  26.098   2.251   4.785
69750W        W31061  20.681  33.104   3.343
69751W        W31062  13.204  18.711  10.576
69752W        W31063  40.849  44.910  12.035
69753W        W31064  24.535  27.545   1.822
69754W        W31065  31.053  32.923   3.849
69755W        W31066  31.483  10.811   0.399
69756W        W31067  39.829  44.822   0.401
69757W        W31068  40.319  35.503  10.480
69758W        W31069   5.195   7.326  13.879
69759W        W31070  23.628  34.030   4.829
69760W        W31071  37.969  44.899  14.887
69761W        W31072  30.024  10.226   3.215
69762W        W31073  22.737  33.947   0.293
69763W        W31074  18.621  11.265   1.710
69764W        W31075  31.522  22.730  14.462
69765W        W31076  18.083  30.594   1.349
69766W        W31077  33.412  13.694   1.752
69767W        W31078   9.689  15.182   0.847
69768W        W31079   8.742  14.692  10.618
69769W        W31080  26.094  38.061   4.151
69770W        W31081  33.968  10.803   3.241
69771W        W31082   1.891  36.432   0.809
69772W        W31083  12.713  44.930  12.577
69773W        W31084  38.968  26.073   1.749
69774W        W31085  10.680  25.518  10.987
69775W        W31086  20.195  30.541   1.778
69776W        W31087   5.381   5.849   0.264
69777W        W31088   6.920  23.070  10.628
69778W        W31089   0.968  37.393   1.411
69779W        W31090   0.898  19.596   2.402
69780W        W31091  34.068   8.836   4.693
69781W        W31092  17.678  36.896   4.647
69782W        W31093   8.402  39.333  12.025
69783W        W31094  28.929  18.206   0.359
69784W        W31095  35.085  18.181   2.343
69785W        W31096  30.076  41.987  10.486
69786W        W31097  16.731   5.927  12.548
69787W        W31098  16.725  20.554  11.483
69788W        W31099  25.504  27.173   2.350
69789W        W31100  29.470  33.120  10.504
69790W        W31101  22.524  25.483   4.685
69791W        W31102   3.776  31.947   2.793
69792W        W31103  31.521  22.995  12.920
69793W        W31104  42.440   9.712  10.415
69794W        W31105   8.281  18.712   1.758
69795W        W31106  39.061  14.830   0.958
69796W        W31107  26.566  14.216  13.043
69797W        W31108  21.128  31.536   4.712
69798W        W31109   1.457  18.597  13.411
69799W        W31110  34.953  32.083  11.006
69800W        W31111   3.838  36.940  10.460
69801W        W31112   1.942  37.448   1.388
69802W        W31113   1.739  16.099   2.704
69803W        W31114  26.099  20.079  13.019
69804W        W31115  42.358  40.307  11.032
69805W        W31116  18.280  39.424   0.442
69806W        W31117  35.979   0.426  11.066
69807W        W31118  27.022  21.675   3.657
69808W        W31119   5.897  38.900   4.116
69809W        W31120   7.311  14.774   0.326
69810W        W31121  15.225  15.800   0.247
69811W        W31122  28.478  24.001   2.209
69812W        W31123  39.449  31.430   0.752
69813W        W31124  22.106  41.343  11.404
69814W        W31125  31.525  30.094   1.872
69815W        W31126   6.355  27.646   0.393
69816W        W31127   6.303  20.565  11.863
69817W        W31128  43.976  24.987   0.451
69818W        W31129  39.036  33.381  10.433
69819W        W31130  32.559  39.845  13.484
69820W        W31131  19.722   7.900   3.209
69821W        W31132   5.706   5.205  10.591
69822W        W31133  34.469   2.878   1.439
69823W        W31134  22.167  27.048   4.272
69824W        W31135  20.598  22.559   2.281
69825W        W31136  38.982  14.675   1.789
69826W        W31137  27.504   3.709  13.058
69827W        W31138  34.493  32.970   1.837
69828W        W31139  14.644  17.299  11.096
69829W        W31140  24.513  39.396  13.032
69830W        W31141   7.847  43.003  10.991
69831W        W31142  35.967  30.490  12.894
69832W        W31143  12.831   5.815   4.779
69833W        W31144  17.132  44.816   4.675
69834W        W31145  30.550   3.870   2.218
69835W        W31146   4.871  16.781   1.420
69836W        W31147  25.105  44.277  13.524
69837W        W31148  30.163  27.014   0.870
69838W        W31149  27.530  20.252   1.748
69839W        W31150   6.332   8.793  12.043
69840W        W31151  42.378  39.328   0.484
69841W        W31152  43.426  10.156  14.937
69842W        W31153  19.648  28.568   4.786
69843W        W31154  32.616  11.273  13.399
69844W        W31155  18.129   0.491   3.366
69845W        W31156  20.728  36.006   4.694
69846W        W31157  37.448  18.748  12.939
69847W        W31158   0.767   5.710   1.316
69848W        W31159   8.260  43.945  10.614
69849W        W31160  15.311  40.341   2.773
69850W        W31161   3.431  13.633   4.242
69851W        W31162  12.141  37.381   4.642
69852W        W31163  33.012  34.885  12.899
69853W        W31164  12.319  19.110   2.271
69854W        W31165   0.366  11.664   3.261
69855W        W31166  43.360  16.772   1.399
69856W        W31167   4.450  13.613   4.276
69857W        W31168   4.273  19.598   3.328
69858W        W31169  10.850  21.204  14.375
69859W        W31170  11.809  28.015   2.265
69860W        W31171  37.489  42.380   2.857
69861W        W31172   0.967  35.097   3.871
69862W        W31173  30.945   7.254   2.396
69863W        W31174  26.994  18.097   4.183
69864W        W31175  24.635   8.830   4.734
69865W        W31176  29.460   8.364  14.890
69866W        W31177  12.290  17.694   0.315
69867W        W31178  24.060  22.028   1.318
69868W        W31179  12.278  10.651   1.264
69869W        W31180  27.538  13.278  13.976
69870W        W31181  11.651  31.913   0.901
69871W        W31182  14.745   6.844  13.801
69872W        W31183  29.954  37.010   4.266
69873W        W31184   8.325   4.263  12.947
69874W        W31185  42.520  39.824  14.996
69875W        W31186  32.495  44.789   0.414
69876W        W31187  36.409  41.790   4.680
69877W        W31188  29.163  19.182  10.520
69878W        W31189  40.490  23.592   3.230
69879W        W31190   0.789  26.689  13.936
69880W        W31191  34.043  26.525  11.996
69881W        W31192  36.563  35.949   2.315
69882W        W31193  24.645  36.391  10.524
69883W        W31194  27.672  11.311   2.712
69884W        W31195   3.297  44.281   2.741
69885W        W31196   9.800  24.544   4.671
69886W        W31197  35.374  24.656   0.795
69887W        W31198   4.898  21.086  14.879
69888W        W31199  23.647  34.374  12.019
69889W        W31200  27.689  43.503  14.934
69890W        W31201  25.522  32.564  11.931
69891W        W31202  12.184  27.678   0.953
69892W        W31203  32.043  44.334   1.394
69893W        W31204  29.083  28.979  14.961
69894W        W31205  22.032   7.862  12.434
69895W        W31206  28.484  33.544  11.875
69896W        W31207   0.470  31.003  11.437
69897W        W31208  24.605   5.730   3.266
69898W        W31209   1.734  35.578  14.933
69899W        W31210  37.984  12.650   1.283
69900W        W31211  24.206  26.519   2.687
69901W        W31212  33.097  10.766  14.956
69902W        W31213   6.766  26.047  13.522
69903W        W31214  35.597  38.381   5.209
69904W        W31215  33.441  31.581  13.438
69905W        W31216   8.216  19.184  14.885
69906W        W31217  18.634   2.773  14.412
69907W        W31218  44.337   0.912   3.305
69908W        W31219   8.837   3.871  11.444
69909W        W31220  25.684  14.671  11.065
69910W        W31221  11.303   1.914  11.609
69911W        W31222  19.149   7.787   4.307
69912W        W31223   9.760  27.117  12.046
69913W        W31224  35.975  34.019   3.355
69914W        W31225  34.581  40.370   3.314
69915W        W31226  19.126   6.332   3.629
69916W        W31227   1.420  24.540   2.878
69917W        W31228  20.669   0.398   4.294
69918W        W31229  28.969  28.645   2.692
69919W        W31230   5.248  32.988  11.546
69920W        W31231   1.943   6.920   1.285
69921W        W31232  19.239  36.427   0.369
69922W        W31233  34.922  35.576   0.796
69923W        W31234  27.540  24.200  13.870
69924W        W31235  41.359  21.715   2.265
69925W        W31236  10.178  11.849   1.753
69926W        W31237  26.024  33.105   3.807
69927W        W31238  23.136  41.024  13.981
69928W        W31239   1.247  17.143  14.761
69929W        W31240   4.937  43.871  12.972
69930W        W31241  30.487  25.544  13.525
69931W        W31242  34.942  37.377  13.846
69932W        W31243  21.247  17.236  14.855
69933W        W31244  34.607   1.372  11.883
69934W        W31245  18.188  37.982   9.965
69935W        W31246  44.442   0.273  13.973
69936W        W31247   5.334  15.249   3.741
69937W        W31248  26.678  43.895  14.331
69938W        W31249  27.611   4.848  14.858
69939W        W31250  32.488  38.002   2.815
69940W        W31251   8.684  35.992  12.832
69941W        W31252  28.528   2.347  11.586
69942W        W31253  10.221  44.950   4.668
69943W        W31254   9.785  26.003  12.389
69944W        W31255  26.054  12.786  10.485
69945W        W31256  29.062  42.420  13.891
69946W        W31257   9.155   8.892   2.763
69947W        W31258  21.257   6.359   1.746
69948W        W31259  10.245  40.329   5.216
69949W        W31260   2.434   2.269   2.290
69950W        W31261  16.115  19.102   3.711
69951W        W31262   2.738  38.852   2.813
69952W        W31263  19.591  40.484   3.816
69953W        W31264  14.784   0.889   2.717
69954W        W31265  20.573  32.442   3.676
69955W        W31266   2.460  40.488   3.651
69956W        W31267  10.845  13.799  14.014
69957W        W31268  23.220  14.281   4.789
69958W        W31269  19.040  15.279  13.385
69959W        W31270  32.470  33.451   2.848
69960W        W31271   5.847  18.141   3.799
69961W        W31272  15.181  22.647  11.444
69962W        W31273  23.202  42.504  10.483
69963W        W31274  22.637  17.570   5.271
69964W        W31275  36.450  17.210  11.880
69965W        W31276  19.215  24.708  11.915
69966W        W31277  19.667  30.138   0.302
69967W        W31278   4.400  31.000  12.578
69968W        W31279   7.316  11.652  13.434
69969W        W31280  42.479   9.201   4.235
69970W        W31281  29.984  40.860   2.853
69971W        W31282  36.481  15.707   4.757
69972W        W31283  14.100  32.980  12.458
69973W        W31284  40.813  10.716   3.360
69974W        W31285  12.623  35.998  10.573
69975W        W31286  22.671  11.294  12.093
69976W        W31287   6.772  24.613  13.811
69977W        W31288  23.693  43.847  11.544
69978W        W31289  15.719  24.626   3.870
69979W        W31290   9.188  25.154  11.049
69980W        W31291  28.523  19.238   2.209
69981W        W31292  42.926  20.766  13.003
69982W        W31293  14.787   7.906  12.517
69983W        W31294  39.341  32.071  13.826
69984W        W31295  11.823  19.740  13.378
69985W        W31296  37.870   1.330  11.954
69986W        W31297  20.222  36.044  13.496
69987W        W31298  20.748  26.979  12.540
69988W        W31299  21.609  35.982   4.717
69989W        W31300  35.898  14.275  12.508
69990W        W31301   3.275   6.842   0.892
69991W        W31302  31.141   0.879  11.917
69992W        W31303   1.395  16.691   3.839
69993W        W31304   3.956  42.983   4.748
69994W        W31305  39.989  16.125   2.741
69995W        W31306   7.244  23.206   1.363
69996W        W31307  19.646  38.386   5.123
69997W        W31308  22.548  36.085   1.260
69998W        W31309  30.657  11.795   2.723
69999W        W31310  16.777  15.217  14.315
70000W        W31311  33.576   6.404   2.212
70001W        W31312  39.357   8.211   0.900
70002W        W31313  35.004  39.888   1.734
70003W        W31314   1.263   2.960   1.448
70004W        W31315  31.630  27.675   3.707
70005W        W31316  17.156  14.622   0.423
70006W        W31317  39.347  21.243  11.077
70007W        W31318  29.058  12.821  13.988
70008W        W31319   1.442  44.383  12.368
70009W        W31320   5.786  24.522  14.281
70010W        W31321  26.991  36.374  10.464
70011W        W31322  33.066   9.708   4.203
70012W        W31323   4.388  38.903  11.965
70013W        W31324   1.936   0.871   1.431
70014W        W31325   9.377  24.552  12.502
70015W        W31326  21.684  37.838  14.975
70016W        W31327   1.391   5.739  12.392
70017W        W31328   1.313  13.122   4.680
70018W        W31329  19.079  18.770   3.835
70019W        W31330   2.282  34.991   2.352
70020W        W31331  10.178   7.778   3.263
70021W        W31332   7.699  33.032  12.555
70022W        W31333  19.542  33.384   5.194
70023W        W31334   5.774  32.976   3.646
70024W        W31335  41.999  32.056   4.710
70025W        W31336   0.392  19.601  12.883
70026W        W31337   9.193  14.687  14.773
70027W        W31338  25.148   1.345   1.370
70028W        W31339  26.123   9.333   1.439
70029W        W31340  19.660  20.244   2.689
70030W        W31341  31.063  33.997  11.546
70031W        W31342  41.513  12.210  12.440
70032W        W31343  25.702   5.338  12.478
70033W        W31344  40.540  38.921  10.893
70034W        W31345  38.410  34.569  11.007
70035W        W31346   5.418  34.912  11.391
70036W        W31347  37.880   4.739   1.283
70037W        W31348  29.151  42.356  14.292
70038W        W31349  28.128  27.950   1.795
70039W        W31350   5.253  39.875  12.529
70040W        W31351   3.217  34.077   2.188
70041W        W31352  16.311  22.508   2.853
70042W        W31353  32.590  10.726   3.221
70043W        W31354  42.490  14.174  11.989
70044W        W31355  33.962  40.410  11.447
70045W        W31356  15.657   0.490   3.175
70046W        W31357   1.473  26.075   4.791
70047W        W31358   1.293  25.644   0.914
70048W        W31359  13.307  23.174   1.710
70049W        W31360  22.171   6.920  14.946
70050W        W31361  30.439   8.848  13.309
70051W        W31362  42.936   2.401   0.813
70052W        W31363  35.043  42.788  11.855
70053W        W31364  15.286  16.214  13.401
70054W        W31365  28.961  42.327   2.268
70055W        W31366   0.812  21.587  13.384
70056W        W31367  19.090  35.404  13.895
70057W        W31368  31.030  16.597   4.760
70058W        W31369  29.170  25.966   4.261
70059W        W31370   4.278  31.916   3.192
70060W        W31371  25.622  24.051  12.499
70061W        W31372   0.493  30.524   0.737
70062W        W31373  29.135   4.303   1.269
70063W        W31374  17.204   6.426  13.063
70064W        W31375  32.898   2.417  12.096
70065W        W31376  43.924  36.082  14.785
70066W        W31377  29.069  23.075   2.798
70067W        W31378   9.844  38.889  13.944
70068W        W31379  34.591  43.480  11.064
70069W        W31380  11.199  35.012  11.930
70070W        W31381  43.899  38.016   2.869
70071W        W31382  41.041  26.172  11.417
70072W        W31383  28.634   9.755   2.892
70073W        W31384  29.092  16.802   2.188
70074W        W31385  40.009  26.523   1.358
70075W        W31386  41.418   8.286  10.506
70076W        W31387  34.508   5.250  12.899
70077W        W31388  30.975   7.737  11.379
70078W        W31389  25.493   9.728   1.756
70079W        W31390  28.594   4.220  10.640
70080W        W31391  42.465  24.143   4.339
70081W        W31392  37.347  11.327   3.315
70082W        W31393   8.305  27.039  12.445
70083W        W31394   4.701  12.307  13.793
70084W        W31395  15.613   3.807  12.923
70085W        W31396  15.743  19.723  14.837
70086W        W31397   5.701  42.503   4.835
70087W        W31398  30.432  32.928  14.471
70088W        W31399  16.181  28.064   9.993
70089W        W31400  13.703   0.486   1.393
70090W        W31401  35.358  29.084   0.881
70091W        W31402   8.880  41.936   2.402
70092W        W31403  37.841  36.958   3.384
70093W        W31404  43.339   4.887   1.441
70094W        W31405  33.515   7.200   3.672
70095W        W31406  43.819  22.513   4.775
70096W        W31407  18.752  43.313   2.746
70097W        W31408  24.507  26.059   0.767
70098W        W31409  24.090   5.845  11.078
70099W        W31410  28.495  13.625  12.842
70100W        W31411   7.313   1.781  12.491
70101W        W31412  21.132  18.754   3.236
70102W        W31413  13.640  40.830   0.407
70103W        W31414  24.976  30.023   2.813
70104W        W31415   6.301  43.352   4.223
70105W        W31416  18.256   7.763   0.957
70106W        W31417  34.901  34.500   2.663
70107W        W31418  41.292  22.546   2.757
70108W        W31419  10.247   5.818  13.395
70109W        W31420   9.260  37.976   1.362
70110W        W31421  32.918   8.205  13.893
70111W        W31422  36.897  22.658  11.902
70112W        W31423  36.085  39.969   1.793
70113W        W31424   0.831  13.811   2.685
70114W        W31425  16.214   9.820  13.471
70115W        W31426  34.887  15.287   1.369
70116W        W31427   4.922  40.810   0.798
70117W        W31428  41.791  35.086   0.879
70118W        W31429  28.565  44.915  13.864
70119W        W31430  38.395  29.097  13.998
70120W        W31431  25.535  18.574   3.277
70121W        W31432  26.605  13.242  10.569
70122W        W31433  11.334  18.192   0.416
70123W        W31434  18.228   8.293   4.297
70124W        W31435  32.604   2.280  13.545
70125W        W31436  30.472  26.073  11.114
70126W        W31437  43.766   0.472   0.755
70127W        W31438  11.169  21.740  13.853
70128W        W31439   2.354  42.501   0.893
70129W        W31440  32.501  23.677   2.343
70130W        W31441  38.528  20.163   4.681
70131W        W31442  31.533  14.641  10.433
70132W        W31443  29.086  29.613   0.427
70133W        W31444  40.839  38.874  13.843
70134W        W31445  27.682  31.084   1.831
70135W        W31446  34.378  33.473  10.095
70136W        W31447  21.694  31.589   4.645
70137W        W31448  12.220  23.039   4.152
70138W        W31449  27.167  21.715  11.012
70139W        W31450   1.910  24.663   4.119
70140W        W31451  11.836  29.560   2.369
70141W        W31452  33.454  25.677  14.298
70142W        W31453  31.098  29.590   3.276
70143W        W31454   4.266  19.109   1.415
70144W        W31455  42.962  43.450   1.757
70145W        W31456  18.092  15.233  14.363
70146W        W31457   1.276  40.986   3.338
70147W        W31458  41.972  44.767  13.054
70148W        W31459  35.589  22.642   4.794
70149W        W31460  33.006  40.980  10.458
70150W        W31461   7.350  19.710  13.900
70151W        W31462  39.951  34.560   4.834
70152W        W31463  16.160   1.846  13.940
70153W        W31464  15.757  10.290   0.962
70154W        W31465  23.538  20.626  14.850
70155W        W31466   4.311  20.726  10.958
70156W        W31467  37.473  35.905  12.832
70157W        W31468  20.112  40.377   0.824
70158W        W31469  15.747  23.077  10.567
70159W        W31470  40.495   8.235  13.344
70160W        W31471  11.709   0.893   3.247
70161W        W31472  42.310  30.973   3.642
70162W        W31473  37.476   8.178  13.932
70163W        W31474  41.040   5.849   4.138
70164W        W31475   9.209  34.384   0.771
70165W        W31476  19.124  24.652   2.872
70166W        W31477  41.024  36.048   4.179
70167W        W31478  44.336   3.927   4.265
70168W        W31479  19.147  19.717   0.754
70169W        W31480  13.202   7.382  10.510
70170W        W31481   0.434  41.811  12.429
70171W        W31482  12.246  20.224  14.310
70172W        W31483  11.215  28.553   1.744
70173W        W31484  26.531  34.084   1.260
70174W        W31485  19.536  27.069   0.822
70175W        W31486  43.899  28.035  14.319
70176W        W31487  26.171  34.555  11.476
70177W        W31488   7.906   8.838   1.357
70178W        W31489  19.162   4.387  13.856
70179W        W31490  17.144  24.712   5.629
70180W        W31491   1.814  39.506  12.551
70181W        W31492  44.881   1.810   0.270
70182W        W31493   5.363  43.973   2.303
70183W        W31494  17.740  41.804  14.304
70184W        W31495  44.830  29.506  13.326
70185W        W31496  20.049   7.884   5.201
70186W        W31497  21.648  36.585   1.357
70187W        W31498  44.410   7.260  11.384
70188W        W31499  38.880   5.214  14.865
70189W        W31500  28.555  16.723  11.891
70190W        W31501  38.048   7.417   1.846
70191W        W31502  43.889   2.964  11.429
70192W        W31503   6.871  22.734  11.007
70193W        W31504   5.362  21.135  12.376
70194W        W31505  13.835   0.310  10.924
70195W        W31506  21.716  42.494   0.448
70196W        W31507  26.035   4.734   0.420
70197W        W31508   0.839  19.658   5.258
70198W        W31509  35.413  40.422  13.392
70199W        W31510  27.971  23.065  13.922
70200W        W31511  44.848  24.555  13.514
70201W        W31512  43.823  33.905   1.837
70202W        W31513  17.740   2.900  14.013
70203W        W31514  44.295   4.725  14.489
70204W        W31515   1.898  16.089   1.796
70205W        W31516  43.471  27.686  14.334
70206W        W31517  19.177  41.988   2.813
70207W        W31518   7.228   3.867  12.949
70208W        W31519  44.311  37.911   3.709
70209W        W31520  11.159  24.100   0.347
70210W        W31521  35.397  31.946  10.596
70211W        W31522  12.685  33.523  10.516
70212W        W31523  30.978   1.908  11.953
70213W        W31524  31.995   6.351   1.384
70214W        W31525  41.479  35.597   0.807
70215W        W31526  44.332  10.342  11.400
70216W        W31527  23.500  35.401   0.870
70217W        W31528   3.414  41.821  13.512
70218W        W31529  19.140  11.841   4.816
70219W        W31530  18.159  13.328  12.436
70220W        W31531  14.632  22.143  11.897
70221W        W31532  29.062  11.674   4.309
70222W        W31533   6.811  41.385   1.725
70223W        W31534  29.968  30.087  14.978
70224W        W31535  37.936   2.391  11.007
70225W        W31536   4.215  21.616  12.964
70226W        W31537   7.225  35.597   2.755
70227W        W31538  12.624  42.421  13.495
70228W        W31539  31.533  34.475  13.538
70229W        W31540  14.763  12.292  11.051
70230W        W31541   7.737  34.478   3.264
70231W        W31542   3.278  17.671  12.406
70232W        W31543  38.905  25.531   1.806
70233W        W31544  22.683  33.923   4.834
70234W        W31545  13.761   2.826  12.501
70235W        W31546  34.952  13.701   2.708
70236W        W31547  17.573  44.394  12.052
70237W        W31548  22.195  44.874  11.869
70238W        W31549   6.775   9.796  12.825
70239W        W31550  32.576   9.338   2.684
70240W        W31551   8.769  14.285  12.381
70241W        W31552  43.337   7.265   0.792
70242W        W31553  34.547   9.297  13.004
70243W        W31554  31.533  43.864  13.045
70244W        W31555  36.868  35.951  13.383
70245W        W31556  44.496  10.728  13.535
70246W        W31557   0.310  21.750  14.011
70247W        W31558  40.368  34.053  10.529
70248W        W31559  16.094  18.652   4.820
70249W        W31560   2.920   2.237   1.728
70250W        W31561   5.850  32.509   0.850
70251W        W31562   1.858  19.111   0.339
70252W        W31563  34.930  39.515  12.560
70253W        W31564  16.664  40.347  11.405
70254W        W31565  32.434  32.534   0.444
70255W        W31566  36.957  32.906   3.797
70256W        W31567  40.325  29.465   1.704
70257W        W31568  32.637  22.669   1.800
70258W        W31569  23.576  28.437   2.185
70259W        W31570  26.464  24.146   1.824
70260W        W31571   0.873  29.439   3.698
70261W        W31572  28.656   7.869  10.968
70262W        W31573  41.533   2.875  13.051
70263W        W31574  15.115  27.031  14.779
70264W        W31575  21.552  44.007   1.777
70265W        W31576   0.891  17.586   2.799
70266W        W31577  42.327   6.325  13.034
70267W        W31578  10.178  41.295  14.872
70268W        W31579  23.209  27.121   5.568
70269W        W31580  40.936  15.287  10.413
70270W        W31581  23.621   1.932   3.688
70271W        W31582  26.625  26.158  11.402
70272W        W31583  44.902  15.701   2.202
70273W        W31584  17.149  40.501   3.251
70274W        W31585  30.548  44.424   2.778
70275W        W31586   8.178  37.528  14.841
70276W        W31587  15.598  30.078  10.570
70277W        W31588  15.255  36.536  12.341
70278W        W31589  31.589  37.920   1.447
70279W        W31590  24.572  34.531   2.796
70280W        W31591  35.472  34.907   2.274
70281W        W31592  19.116   5.791  10.444
70282W        W31593   4.754  17.802   1.242
70283W        W31594   4.892  28.139  11.466
70284W        W31595  15.163  15.699  10.923
70285W        W31596  12.791  40.529  10.404
70286W        W31597   6.341  14.761  14.410
70287W        W31598   7.393  40.481   1.339
70288W        W31599  22.025  22.621   0.845
70289W        W31600  37.550  43.389  10.599
70290W        W31601  22.145   8.181   4.314
70291W        W31602  14.259  42.333  11.546
70292W        W31603  16.216  22.570   3.852
70293W        W31604  12.677  21.579   2.275
70294W        W31605   6.347  28.996  14.964
70295W        W31606   9.853  15.751  10.139
70296W        W31607   0.363  44.383  12.884
70297W        W31608  30.567  24.636   3.671
70298W        W31609  11.363  42.446  12.939
70299W        W31610   3.242  29.581  11.099
70300W        W31611  11.191  38.906  14.495
70301W        W31612  27.603   3.751   1.915
70302W        W31613  27.186  17.759   0.409
70303W        W31614  35.923  37.948  14.011
70304W        W31615   8.178   3.224   1.315
70305W        W31616  36.467  29.571  13.912
70306W        W31617  27.061  33.025   4.265
70307W        W31618  40.453  41.000   1.435
70308W        W31619  14.132  39.445  10.426
70309W        W31620  39.050  39.321  12.062
70310W        W31621  14.279   7.911  11.003
70311W        W31622   0.389  32.391   3.780
70312W        W31623  37.850  27.057  10.634
70313W        W31624  24.177  17.279   3.294
70314W        W31625  23.558   4.810   1.776
70315W        W31626  26.156  28.088   4.802
70316W        W31627   8.780  12.240   3.704
70317W        W31628  28.499  21.208  12.887
70318W        W31629  37.952  17.776  13.060
70319W        W31630   9.688  27.601   2.417
70320W        W31631  31.450  11.797  11.593
70321W        W31632  23.032  27.464  13.977
70322W        W31633  23.678  13.152  14.289
70323W        W31634  13.234   4.769   0.421
70324W        W31635   3.360  43.921   1.415
70325W        W31636  18.681  24.973  13.950
70326W        W31637  25.009  22.228  12.497
70327W        W31638  41.954  35.586   1.908
70328W        W31639  15.698  13.710  14.846
70329W        W31640  20.727  20.766  13.033
70330W        W31641  19.138  10.330  14.944
70331W        W31642  16.278   0.936   3.820
70332W        W31643  21.124  23.610  11.879
70333W        W31644  26.548   8.712   2.347
70334W        W31645  23.048  41.343   0.443
70335W        W31646  17.640  37.370  12.038
70336W        W31647  34.386  20.620  13.053
70337W        W31648  35.439  37.535  14.369
70338W        W31649  44.469  11.149   3.260
70339W        W31650  17.653   6.323  10.549
70340W        W31651   3.901  42.814   1.298
70341W        W31652   7.395   2.401  14.954
70342W        W31653  13.277  16.714  10.623
70343W        W31654  32.524  12.710   4.621
70344W        W31655  42.509  18.545  12.028
70345W        W31656  27.127  28.051  14.485
70346W        W31657  28.163  21.072  10.561
70347W        W31658  24.110   5.269  13.909
70348W        W31659  18.229   7.904  14.865
70349W        W31660  34.400  12.314   4.741
70350W        W31661  10.653  22.206   0.436
70351W        W31662   8.704  18.135   2.374
70352W        W31663  35.431  39.029   0.273
70353W        W31664  26.478  35.879   2.842
70354W        W31665   8.884  43.300   3.241
70355W        W31666  36.973  35.597   2.316
70356W        W31667  11.651  13.311   1.386
70357W        W31668  27.495  37.407  12.845
70358W        W31669  12.229  27.618  13.379
70359W        W31670  36.515   3.826  14.796
70360W        W31671   6.884  15.759   0.395
70361W        W31672  27.161  33.436  13.455
70362W        W31673  26.496   9.802   0.876
70363W        W31674  36.464  18.256   3.373
70364W        W31675  32.410  20.230   3.864
70365W        W31676   0.941   6.724   1.273
70366W        W31677  21.727  31.422   0.463
70367W        W31678   8.798  35.076   3.218
70368W        W31679  35.996   4.413  14.291
70369W        W31680  14.604   9.305   4.693
70370W        W31681  22.213   6.337  12.050
70371W        W31682   5.912  20.089  10.068
70372W        W31683  16.166  37.020   3.338
70373W        W31684  44.459  40.925  14.416
70374W        W31685  17.229  19.727  13.982
70375W        W31686  32.403  30.140   0.878
70376W        W31687   7.386  29.154   0.433
70377W        W31688  41.323  36.557   0.836
70378W        W31689  39.482  41.841   0.927
70379W        W31690   4.333   8.712  12.848
70380W        W31691  13.309   6.768   0.955
70381W        W31692   0.459   8.843   3.707
70382W        W31693  15.771  26.089   4.275
70383W        W31694   0.316  38.498  13.482
70384W        W31695  32.631  20.272   2.890
70385W        W31696  18.647  14.313  11.514
70386W        W31697  23.683  11.863  14.345
70387W        W31698  15.640   8.256  10.537
70388W        W31699  13.703  33.965  14.003
70389W        W31700   9.845  23.597   1.884
70390W        W31701  40.868  10.272  14.324
70391W        W31702  33.877   5.929   3.269
70392W        W31703  19.700   3.949  12.090
70393W        W31704  22.722  24.073  10.413
70394W        W31705  36.547  44.430   5.087
70395W        W31706  20.239  22.175  12.873
70396W        W31707  20.211  43.397  11.517
70397W        W31708  43.008  22.570   3.641
70398W        W31709  24.711   1.284  13.999
70399W        W31710  39.440  10.696  11.108
70400W        W31711  21.596  35.559  11.003
70401W        W31712  17.148  18.247   0.859
70402W        W31713   6.198  42.350   4.717
70403W        W31714  42.313  10.199  11.993
70404W        W31715  17.220  34.918   3.704
70405W        W31716  22.586  36.913   1.371
70406W        W31717  41.924  24.686  10.627
70407W        W31718  42.336  33.426   2.803
70408W        W31719  18.782  19.086   0.269
70409W        W31720  36.448  11.713  11.912
70410W        W31721  44.305  22.525   2.725
70411W        W31722  11.247  10.149  10.585
70412W        W31723  33.488   3.399   0.407
70413W        W31724  25.705   1.342  11.372
70414W        W31725  42.911   4.318  10.899
70415W        W31726  24.502  16.276   3.178
70416W        W31727  41.811  20.150  11.992
70417W        W31728   3.819  41.941   3.745
70418W        W31729  16.264  37.965  14.483
70419W        W31730  42.481  28.135   3.298
70420W        W31731  23.107  41.921   4.114
70421W        W31732  41.828   2.316   0.788
70422W        W31733   9.346  32.898   2.901
70423W        W31734  14.206  34.024  13.041
70424W        W31735  34.611   0.483  12.540
70425W        W31736  26.980   5.428   5.109
70426W        W31737  29.572  11.720   4.299
70427W        W31738  28.609  29.125  12.531
70428W        W31739   9.391  29.494  12.040
70429W        W31740  15.628  33.541   5.242
70430W        W31741  21.677   7.671  14.369
70431W        W31742  22.074  11.660  13.307
70432W        W31743  17.202  38.857   5.238
70433W        W31744  39.855  39.042   3.352
70434W        W31745  17.752  42.421   3.696
70435W        W31746   7.794   8.159   1.324
70436W        W31747  13.113  23.010  11.476
70437W        W31748   3.905  10.755  12.904
70438W        W31749   1.300  11.245   0.785
70439W        W31750  30.574  27.495  13.318
70440W        W31751  22.151   2.783   2.306
70441W        W31752  16.607   0.814   4.178
70442W        W31753  13.677   7.174  14.939
70443W        W31754  20.082   6.835   0.841
70444W        W31755  30.421  21.241   3.746
70445W        W31756  34.893  16.676   1.327
70446W        W31757   7.835   0.272   4.672
70447W        W31758  15.660  36.885  13.988
70448W        W31759  32.953   6.383   4.666
70449W        W31760   9.154  39.440  10.609
70450W        W31761  26.986  22.016   3.344
70451W        W31762  36.056  10.141   1.775
70452W        W31763  43.832   2.347  11.862
70453W        W31764  38.920   6.873  12.443
70454W        W31765  19.238   0.478   1.929
70455W        W31766  25.637  32.629  12.435
70456W        W31767  36.953   0.970   0.478
70457W        W31768  44.429   2.451   2.681
70458W        W31769  28.588   4.789   3.646
70459W        W31770  11.793  26.097   0.434
70460W        W31771  33.937  22.607   0.858
70461W        W31772  24.048  15.808  14.939
70462W        W31773  15.136  44.420   4.786
70463W        W31774  20.131  25.195  11.884
70464W        W31775  22.732  16.167  13.412
70465W        W31776  30.499  19.741  14.391
70466W        W31777  33.119   2.821   1.746
70467W        W31778  24.716  25.694   1.388
70468W        W31779   1.804  30.424   1.739
70469W        W31780  22.218  27.658   2.789
70470W        W31781  21.748   4.236  13.488
70471W        W31782   5.909  44.408   4.134
70472W        W31783  10.250  27.151  10.050
70473W        W31784  15.270   8.718  13.379
70474W        W31785  44.426   6.728  11.064
70475W        W31786  43.329  35.401  14.412
70476W        W31787  30.498  36.590   0.399
70477W        W31788  37.497  34.449   1.773
70478W        W31789  10.658  18.129  11.980
70479W        W31790  24.978   7.747   3.804
70480W        W31791  32.047  35.426   4.610
70481W        W31792  25.153  34.949  14.440
70482W        W31793  32.577  15.646   4.756
70483W        W31794   3.916  24.975   4.681
70484W        W31795   5.399  34.521   1.417
70485W        W31796  21.628  36.034   1.868
70486W        W31797  30.538  44.259   4.306
70487W        W31798  26.700   5.422  10.581
70488W        W31799  43.338  30.531  13.317
70489W        W31800   7.838   8.273   4.771
70490W        W31801  40.831  33.962  10.405
70491W        W31802  35.075   0.454   1.277
70492W        W31803  22.690  29.114  11.398
70493W        W31804  16.127   6.285   0.746
70494W        W31805  37.959   1.375  11.514
70495W        W31806  43.794   1.435   3.710
70496W        W31807  43.379  38.071   3.215
70497W        W31808  22.024  29.933  12.984
70498W        W31809   6.192  18.117  12.449
70499W        W31810  32.071  25.685  12.899
70500W        W31811   4.388   5.689  14.308
70501W        W31812  15.639  37.000   3.180
70502W        W31813  42.834  30.587   0.245
70503W        W31814  37.403   6.780  13.990
70504W        W31815   5.323  34.566  11.466
70505W        W31816   9.816  25.137   4.199
70506W        W31817  38.846  27.988   2.222
70507W        W31818   4.927  36.889   3.385
70508W        W31819   1.806  18.246  12.085
70509W        W31820  39.374  28.454   4.674
70510W        W31821  19.756  12.211   3.353
70511W        W31822  28.079   8.875   1.769
70512W        W31823  14.160   7.336   0.308
70513W        W31824  35.534  43.815   4.753
70514W        W31825   4.205   7.298   0.940
70515W        W31826  41.500  19.622   2.371
70516W        W31827  17.615  34.463  11.549
70517W        W31828  34.867  26.970   4.632
70518W        W31829   9.735  41.421   1.220
70519W        W31830   2.910  43.323   1.267
70520W        W31831  27.466  44.370   4.688
70521W        W31832  19.284  27.090   0.832
70522W        W31833   4.869   2.967   5.209
70523W        W31834  16.258   3.454  11.581
70524W        W31835  40.007  14.818  13.321
70525W        W31836   2.823   7.714   2.785
70526W        W31837  16.081  10.809  11.919
70527W        W31838   9.294  27.094  14.824
70528W        W31839  13.159  20.611  13.976
70529W        W31840  22.574   7.798  11.874
70530W        W31841  11.197  24.612   2.802
70531W        W31842  12.614  15.803  14.929
70532W        W31843  13.133  31.446   3.638
70533W        W31844  13.820  41.889  14.817
70534W        W31845  33.399  23.613  13.824
70535W        W31846  14.314  16.607  10.027
70536W        W31847  21.726  37.561  11.528
70537W        W31848  17.119  42.780  13.489
70538W        W31849  14.331  28.642   1.378
70539W        W31850  11.865  38.983  11.545
70540W        W31851  27.976   1.824  11.058
70541W        W31852  16.317  44.324  13.376
70542W        W31853   1.843   0.353   3.189
70543W        W31854  24.014  17.632  10.011
70544W        W31855  27.198   5.841  12.060
70545W        W31856  43.334  12.851  13.829
70546W        W31857  42.824  38.968  14.865
70547W        W31858  21.088  29.068   2.293
70548W        W31859  39.944  30.046  13.324
70549W        W31860  10.730  33.059  14.374
70550W        W31861  27.009   0.370   2.796
70551W        W31862   4.764  31.952   2.676
70552W        W31863  40.948   7.351   2.343
70553W        W31864  34.370  16.648   1.272
70554W        W31865  35.585   5.833  11.956
70555W        W31866  41.515  40.998   2.832
70556W        W31867   3.779  19.167  10.066
70557W        W31868  18.731  32.048  14.424
70558W        W31869  42.385  25.710   1.386
70559W        W31870  10.155   0.956   2.712
70560W        W31871  44.784  38.893  14.457
70561W        W31872  39.834  16.607   3.386
70562W        W31873   3.860  29.620   1.889
70563W        W31874  36.885  40.473   5.110
70564W        W31875  34.574  24.989  10.887
70565W        W31876  41.861   4.742   3.162
70566W        W31877  26.977  37.576  11.385
70567W        W31878  40.800  25.041   2.408
70568W        W31879  11.651   4.243  13.401
70569W        W31880  19.543  31.151  13.418
70570W        W31881   1.936  36.897  13.392
70571W        W31882   6.793  10.682   4.745
70572W        W31883  36.518  34.549  12.881
70573W        W31884  26.006  44.991   4.734
70574W        W31885  42.911  36.883  13.460
70575W        W31886  26.087  15.763  13.912
70576W        W31887   1.891   9.763   2.182
70577W        W31888  23.080   1.752  11.588
70578W        W31889  11.304  38.935   3.774
70579W        W31890  20.175   7.333  12.543
70580W        W31891  31.449  21.541  13.877
70581W        W31892  14.827   9.774   0.920
70582W        W31893  26.075  16.574  11.566
70583W        W31894  16.307  43.437  10.928
70584W        W31895  30.654  41.503  10.488
70585W        W31896   9.273   3.404   0.463
70586W        W31897  15.125  23.594  12.358
70587W        W31898   6.744  23.662   3.699
70588W        W31899  17.218  30.085  10.591
70589W        W31900  35.481  33.131   3.162
70590W        W31901  23.672  41.467  12.456
70591W        W31902  40.386  33.890   4.175
70592W        W31903   7.710  43.303   3.781
70593W        W31904   0.945   9.223   4.197
70594W        W31905   4.736  42.352  12.005
70595W        W31906  40.908  27.984  14.927
70596W        W31907  16.647   2.825   4.184
70597W        W31908  29.140  23.542  11.514
70598W        W31909   2.874  39.515  12.535
70599W        W31910  31.503  17.622   1.319
70600W        W31911  18.664  25.089   3.795
70601W        W31912  15.325   9.792   4.667
70602W        W31913  37.980  41.295  11.518
70603W        W31914   8.834  26.988   0.481
70604W        W31915  34.522  33.554   0.798
70605W        W31916   4.723  37.472   3.214
70606W        W31917   5.349   4.841   1.887
70607W        W31918  43.019   0.936  14.275
70608W        W31919  24.124  42.442   4.298
70609W        W31920  44.453  29.057   3.150
70610W        W31921   7.716  37.563  10.599
70611W        W31922  15.793  34.387   2.347
70612W        W31923  15.631  30.623   3.689
70613W        W31924  27.006  40.495   2.197
70614W        W31925  17.634  26.646  13.349
70615W        W31926  23.731  31.496   4.824
70616W        W31927  38.525  15.112  11.864
70617W        W31928  24.667   3.459   4.205
70618W        W31929  43.933  29.448  11.092
70619W        W31930  41.351  17.241   0.832
70620W        W31931  27.571   2.792   4.208
70621W        W31932  20.035  39.955   5.295
70622W        W31933  36.874  40.511  11.924
70623W        W31934  14.731  32.628  13.936
70624W        W31935   3.333  15.101   1.345
70625W        W31936  26.972  27.001  12.472
70626W        W31937  25.512  36.560  10.607
70627W        W31938  35.551  33.512  13.023
70628W        W31939  11.703   8.311   1.235
70629W        W31940  17.674  35.484   1.898
70630W        W31941  39.058  10.844   3.794
70631W        W31942  31.959  34.401  11.121
70632W        W31943  39.896  12.763  14.915
70633W        W31944  32.598  44.497   3.634
70634W        W31945   8.249  26.572  13.038
70635W        W31946  23.134  11.818   1.358
70636W        W31947   8.254   3.221   1.776
70637W        W31948  23.651  31.433   5.303
70638W        W31949  33.580  17.241  12.414
70639W        W31950  43.874   1.952  10.549
70640W        W31951  30.423  40.915   3.194
70641W        W31952  35.107  44.934  10.436
70642W        W31953  34.037  38.560  14.800
70643W        W31954  26.158  43.830  10.978
70644W        W31955  37.873  30.946   2.790
70645W        W31956  15.297   9.372   1.278
70646W        W31957   6.912   5.314  11.503
70647W        W31958   8.810  30.448  12.461
70648W        W31959  13.256  38.520  12.386
70649W        W31960  37.903  14.797   3.717
70650W        W31961   0.280   9.177  11.987
70651W        W31962  33.486   6.396   3.700
70652W        W31963  30.998  40.860  12.432
70653W        W31964   2.842  39.003  14.313
70654W        W31965  17.593  24.187   5.586
70655W        W31966   8.778  34.028  10.954
70656W        W31967   3.347  39.956  11.606
70657W        W31968  30.498  25.507  11.981
70658W        W31969  10.193   2.929   4.284
70659W        W31970  41.998  12.186   2.843
70660W        W31971  43.878  16.686   3.334
70661W        W31972   9.725   4.351  13.948
70662W        W31973  23.038   4.382   3.749
70663W        W31974  11.770  38.416   2.901
70664W        W31975  25.548   6.917   0.259
70665W        W31976  26.670  43.397  11.414
70666W        W31977  42.880  34.449  12.438
70667W        W31978  35.037  28.539   3.231
70668W        W31979  33.931  38.564   9.519
70669W        W31980   5.785   6.378  12.020
70670W        W31981  13.246  15.605  14.314
70671W        W31982   9.238   3.919   3.703
70672W        W31983   4.375   0.755  12.544
70673W        W31984   8.356  21.133  10.609
70674W        W31985  41.318  10.710   4.808
70675W        W31986  39.394   4.401   3.385
70676W        W31987  23.722  25.577  10.991
70677W        W31988  11.663  39.038  11.944
70678W        W31989  20.702   8.786   0.415
70679W        W31990  27.043  28.580   1.289
70680W        W31991  14.283   7.796  11.894
70681W        W31992   2.272  38.865   2.201
70682W        W31993   2.765  17.747   0.812
70683W        W31994   8.728  43.799   1.338
70684W        W31995  26.581   4.747   1.770
70685W        W31996  34.433  32.593  12.054
70686W        W31997  20.165  44.817  10.556
70687W        W31998  35.566  43.416  10.604
70688W        W31999  12.274  35.587   0.289
70689W        W32000  35.519  20.663   4.632
70690W        W32001   1.733   7.867   2.848
70691W        W32002  19.721   9.709  12.486
70692W        W32003  15.289  39.868   4.275
70693W        W32004  34.454  13.316  13.338
70694W        W32005  10.710   3.276  10.516
70695W        W32006  42.844  31.116   4.769
70696W        W32007  17.582  42.890   2.285
70697W        W32008  35.359  29.994   2.188
70698W        W32009  18.232  24.720   1.901
70699W        W32010  29.121  10.777  12.888
70700W        W32011   1.357   0.316  14.468
70701W        W32012  15.688  25.687   0.345
70702W        W32013  41.866  22.590   2.295
70703W        W32014  43.499  17.119  10.583
70704W        W32015  25.086  23.679   4.625
70705W        W32016  38.890   9.709   4.794
70706W        W32017  18.229  21.241  12.577
70707W        W32018  26.649  17.687   1.909
70708W        W32019   7.817  30.082  12.018
70709W        W32020  16.794   5.266  10.640
70710W        W32021  19.653   4.281  11.027
70711W        W32022  14.170  13.340   2.703
70712W        W32023   1.878  27.052  14.926
70713W        W32024   5.698  33.535  11.001
70714W        W32025  36.521  14.647  10.519
70715W        W32026  28.526  25.987   2.762
70716W        W32027  16.157  37.535   3.787
70717W        W32028  41.789   8.819   2.209
70718W        W32029   2.289   2.959  11.507
70719W        W32030   8.382  13.790  11.454
70720W        W32031  43.502   7.775  12.058
70721W        W32032  12.615  35.007  10.505
70722W        W32033  11.664  14.660   2.818
70723W        W32034   3.373  21.252   3.288
70724W        W32035   6.418  19.080   0.795
70725W        W32036   5.302  30.086  10.461
70726W        W32037  30.634  39.446   3.632
70727W        W32038  36.365  18.683   1.916
70728W        W32039  17.229  13.273   1.312
70729W        W32040  18.160   6.739  13.895
70730W        W32041  14.772  11.232   1.707
70731W        W32042  39.916  34.458  10.897
70732W        W32043  22.695  19.713   1.272
70733W        W32044  30.979  25.598  13.392
70734W        W32045  11.865   0.280   3.356
70735W        W32046   3.265  42.304  14.971
70736W        W32047  32.594  31.583  11.927
70737W        W32048   7.236  27.495   2.227
70738W        W32049  44.987  40.503  11.573
70739W        W32050  40.836  23.496  10.540
70740W        W32051   6.719  36.943  12.916
70741W        W32052  17.081  33.881   2.754
70742W        W32053  34.596  17.664   0.331
70743W        W32054   6.237  18.670   2.879
70744W        W32055  29.616  17.757  13.817
70745W        W32056   6.762   1.872   4.172
70746W        W32057  24.978  21.141  12.343
70747W        W32058  43.311   1.891   3.789
70748W        W32059  37.386  15.162   3.381
70749W        W32060   3.935  18.750  13.423
70750W        W32061  28.636  41.295  10.929
70751W        W32062  30.424  26.521   1.757
70752W        W32063  17.086  36.576   2.771
70753W        W32064   3.807  11.682   0.909
70754W        W32065  29.501  44.823  12.968
70755W        W32066  17.071  29.134   4.326
70756W        W32067   1.841   9.231   3.354
70757W        W32068  29.088  11.281   2.371
70758W        W32069  34.972   3.812  12.570
70759W        W32070  13.662  11.199  14.912
70760W        W32071  30.981  24.514   1.751
70761W        W32072  34.907  35.397  13.480
70762W        W32073   1.375  28.084   1.856
70763W        W32074  26.099   3.714   3.633
70764W        W32075  35.908  26.528  10.476
70765W        W32076  13.758   1.758  14.866
70766W        W32077   6.413   8.311   1.439
70767W        W32078   5.724  33.878  14.024
70768W        W32079  28.083  29.646   3.711
70769W        W32080  42.293  42.923   4.219
70770W        W32081  36.976  39.922   2.236
70771W        W32082  10.705   0.868   2.219
70772W        W32083  23.161  26.611   1.390
70773W        W32084  23.495  40.956   1.707
70774W        W32085   1.770  16.793   3.278
70775W        W32086  41.843  21.629  14.411
70776W        W32087  21.689  10.252  11.574
70777W        W32088  29.115  23.674  13.386
70778W        W32089  17.263  34.946   3.192
70779W        W32090  12.351   6.764  11.470
70780W        W32091  44.386  18.099   0.331
70781W        W32092   2.933   1.910  14.413
70782W        W32093  12.145   3.928   4.620
70783W        W32094  32.537  17.243  13.380
70784W        W32095   4.253  29.595   0.459
70785W        W32096  34.516   3.931  11.457
70786W        W32097  12.249  21.674   1.252
70787W        W32098  40.859  25.056  10.995
70788W        W32099  11.210  40.877  13.983
70789W        W32100  34.969   5.712  11.952
70790W        W32101  13.826  39.812  12.948
70791W        W32102   7.694  38.873  14.890
70792W        W32103  21.711  31.509  14.437
70793W        W32104  29.942   1.866  11.111
70794W        W32105  37.982   0.383   0.745
70795W        W32106  38.562  26.106   1.326
70796W        W32107  24.112  42.980  14.817
70797W        W32108  28.080  31.519  14.494
70798W        W32109   2.773  10.147   4.279
70799W        W32110  11.786  38.927   1.760
70800W        W32111  40.328  36.966   1.877
70801W        W32112  23.992  30.492   2.321
70802W        W32113  41.004  28.648  10.602
70803W        W32114  24.643  30.987  13.373
70804W        W32115   5.314   1.327  11.500
70805W        W32116   1.416   8.321   0.286
70806W        W32117  28.460  17.296  12.531
70807W        W32118   3.247  15.262  12.467
70808W        W32119   0.867  40.514  14.767
70809W        W32120   4.227  22.193   2.346
70810W        W32121  37.393  11.715   1.249
70811W        W32122  25.631  24.226   0.283
70812W        W32123   0.476  11.860   2.731
70813W        W32124  20.065  15.617  13.797
70814W        W32125  27.076  20.051  13.969
70815W        W32126  29.096   3.251   2.222
70816W        W32127   5.770  14.707  14.782
70817W        W32128  23.991   6.275   4.174
70818W        W32129  42.923  24.027   2.739
70819W        W32130  20.722   9.884   3.370
70820W        W32131  12.814   0.841   4.121
70821W        W32132  33.613   0.470   1.218
70822W        W32133  14.325  35.980  13.313
70823W        W32134  37.956  17.231   4.349
70824W        W32135  36.492  32.928  13.988
70825W        W32136  31.082  31.103   2.690
70826W        W32137  41.803  26.498  13.048
70827W        W32138  13.117   7.226   3.190
70828W        W32139   7.282  27.955  11.885
70829W        W32140  22.026  24.019   1.827
70830W        W32141  43.433   1.396  14.946
70831W        W32142   8.269  10.201   9.953
70832W        W32143   0.985  11.178  14.506
70833W        W32144  29.549  34.422   2.691
70834W        W32145  23.182  30.600   1.219
70835W        W32146  26.000  34.985   3.176
70836W        W32147  18.658  32.038   2.355
70837W        W32148   4.268  28.438   4.290
70838W        W32149  17.073  28.079   1.288
70839W        W32150  28.549  22.633   2.709
70840W        W32151   5.374  32.518   0.789
70841W        W32152  20.693  40.978  14.788
70842W        W32153  11.182  37.338   1.701
70843W        W32154   9.376  16.143   4.606
70844W        W32155  38.925   0.820   2.275
70845W        W32156  35.380  24.981   3.171
70846W        W32157  25.163   5.756  10.940
70847W        W32158  16.801  35.081  12.437
70848W        W32159   8.661   5.320   1.356
70849W        W32160  11.215   5.265  13.336
70850W        W32161  40.545  15.779  12.397
70851W        W32162   3.860  23.115   1.436
70852W        W32163  33.896  23.615  14.346
70853W        W32164   7.813   9.865   1.714
70854W        W32165  24.148   7.834   2.900
70855W        W32166  23.177  29.582   3.300
70856W        W32167  28.487  28.936   4.309
70857W        W32168   2.435  13.639  14.988
70858W        W32169   9.263  13.825   4.245
70859W        W32170  35.578   8.264  10.404
70860W        W32171   7.307  22.620   1.888
70861W        W32172  19.635   2.839  14.349
70862W        W32173  25.646   5.828  14.457
70863W        W32174   9.699   5.880   4.635
70864W        W32175  31.097  19.611  11.960
70865W        W32176   6.202  37.887   4.281
70866W        W32177   0.958  20.540  14.410
70867W        W32178  30.516  41.537  12.994
70868W        W32179   3.798   3.780  10.448
70869W        W32180  16.629  30.034   2.286
70870W        W32181  25.024   2.470  10.907
70871W        W32182  14.800  33.426   4.761
70872W        W32183  31.534  37.986  13.341
70873W        W32184   5.698  10.848  12.070
70874W        W32185  11.290  19.267   3.725
70875W        W32186  12.357  11.139   3.301
70876W        W32187  17.730   5.222  12.908
70877W        W32188  27.150  29.491  11.906
70878W        W32189  42.501  24.117  14.018
70879W        W32190  23.582  37.355   2.777
70880W        W32191  17.253  24.142  13.851
70881W        W32192  12.706  35.518  13.817
70882W        W32193  30.469  43.888   4.138
70883W        W32194  28.993  27.602  13.403
70884W        W32195  40.484  16.166   0.878
70885W        W32196  25.018  41.990  12.924
70886W        W32197  21.065  20.142  13.867
70887W        W32198  36.982  20.552   2.379
70888W        W32199   9.667  31.144  11.891
70889W        W32200  33.021  28.003   4.263
70890W        W32201  19.645  37.530  13.436
70891W        W32202  38.552  16.132   2.867
70892W        W32203  15.603  12.695  13.812
70893W        W32204  19.069  13.338  12.396
70894W        W32205  24.095   6.394   3.355
70895W        W32206  36.417  18.122   4.799
70896W        W32207   5.848   7.392   4.153
70897W        W32208  37.024  31.528  13.826
70898W        W32209  43.774  33.058   2.391
70899W        W32210  34.583  30.073  14.977
70900W        W32211  18.125   7.189  14.770
70901W        W32212  28.640   2.946   1.402
70902W        W32213  38.042  14.655   4.340
70903W        W32214  15.149   8.737  11.859
70904W        W32215  10.358  29.112   3.856
70905W        W32216  44.757  42.488  11.448
70906W        W32217  16.183  37.483  11.001
70907W        W32218  34.894   0.477  12.492
70908W        W32219  32.133   4.886  10.419
70909W        W32220  34.069  22.698   2.761
70910W        W32221  16.162  26.601   1.694
70911W        W32222  21.648  35.882   4.223
70912W        W32223  14.310  12.177   0.952
70913W        W32224  43.785  44.490  14.874
70914W        W32225   6.221  44.286  13.418
70915W        W32226  32.918  25.162  13.884
70916W        W32227  35.560  27.030   4.836
70917W        W32228  42.918  38.846   3.148
70918W        W32229  27.497  42.331   3.820
70919W        W32230   4.294  15.124  14.390
70920W        W32231  27.572  13.834  11.871
70921W        W32232   5.878  14.209   3.832
70922W        W32233  36.874  30.047  14.905
70923W        W32234   0.322  33.608   1.379
70924W        W32235  24.585   6.751  12.573
70925W        W32236   2.413  27.624  14.766
70926W        W32237  41.036  39.543   4.715
70927W        W32238  14.161  10.712   3.320
70928W        W32239   7.773  36.400  13.894
70929W        W32240  36.020  20.155   2.237
70930W        W32241  33.534  18.732  14.891
70931W        W32242  10.372  14.799  14.283
70932W        W32243   2.339  38.867  13.367
70933W        W32244   6.211  23.712  11.028
70934W        W32245  26.088  34.602  12.972
70935W        W32246  28.637  24.713  10.508
70936W        W32247   4.339  42.834   4.282
70937W        W32248   7.171   5.241  13.458
70938W        W32249  40.842  13.155   0.945
70939W        W32250   7.182  30.545   2.724
70940W        W32251  24.590  34.115   5.187
70941W        W32252  20.263   7.790   4.301
70942W        W32253  16.569  37.979  13.010
70943W        W32254  19.761  32.969  13.005
70944W        W32255   7.880  19.730   1.375
70945W        W32256   3.313  42.946  13.321
70946W        W32257  30.137  12.152   1.232
70947W        W32258  15.592   9.274   1.215
70948W        W32259  12.304  42.780  11.544
70949W        W32260  44.379  25.634   4.748
70950W        W32261  19.204  14.831   2.878
70951W        W32262   7.714   5.894   3.850
70952W        W32263  40.509  27.108  12.576
70953W        W32264   5.381  29.970  11.515
70954W        W32265  39.420   1.294   2.265
70955W        W32266  35.065  40.826   0.750
70956W        W32267  18.587  42.949  14.353
70957W        W32268  39.415  25.130  11.454
70958W        W32269   8.701   8.254   0.378
70959W        W32270  42.892  24.040  14.492
70960W        W32271  42.928  30.028  11.942
70961W        W32272  23.521  10.746  10.426
70962W        W32273   6.769  29.151  12.986
70963W        W32274  10.778  40.026  12.946
70964W        W32275  34.498   1.897   4.338
70965W        W32276  22.517  27.542   1.863
70966W        W32277  10.247  31.491   1.356
70967W        W32278  42.347  18.567   4.796
70968W        W32279  20.183  19.543   2.188
70969W        W32280   3.781  38.023  13.314
70970W        W32281   2.329  15.589   4.303
70971W        W32282  42.287   3.944   1.270
70972W        W32283  21.257  28.670   0.893
70973W        W32284   2.455   3.368   2.312
70974W        W32285  11.705  28.053  11.925
70975W        W32286  32.956   8.713  14.418
70976W        W32287  39.040   2.827  12.572
70977W        W32288   7.722   6.892  10.436
70978W        W32289   4.235  43.426  12.984
70979W        W32290  44.333  20.707   4.783
70980W        W32291   3.780  35.417  14.974
70981W        W32292  17.711  16.275   2.283
70982W        W32293  14.767  37.556   2.288
70983W        W32294   4.443  36.424   1.871
70984W        W32295  39.362  20.683   2.717
70985W        W32296  32.126  12.303  12.427
70986W        W32297  27.681  26.129  12.058
70987W        W32298   0.485   5.852  14.507
70988W        W32299  31.617  15.623   3.235
70989W        W32300  38.897  34.558   0.875
70990W        W32301  18.647   1.803   9.965
70991W        W32302  36.473  19.556  14.300
70992W        W32303  16.778  40.008  12.963
70993W        W32304  16.768  38.557   1.721
70994W        W32305  20.720  32.474   3.183
70995W        W32306  38.051  43.805   4.236
70996W        W32307  17.161  11.135  10.923
70997W        W32308  32.042  12.125  14.962
70998W        W32309   0.289  33.003  12.436
70999W        W32310  19.728  15.203   0.329
71000W        W32311  30.047  44.449  10.976
71001W        W32312   1.787  30.016  14.287
71002W        W32313  41.026   4.815  11.375
71003W        W32314   7.816   1.254   3.833
71004W        W32315  29.928  12.338   4.790
71005W        W32316  30.996   0.934  14.415
71006W        W32317  43.304   4.439   3.836
71007W        W32318  43.774  10.659   2.225
71008W        W32319  31.087  29.036  13.478
71009W        W32320  39.962  23.614  11.908
71010W        W32321  25.654   6.364   3.750
71011W        W32322  39.848   9.783  13.472
71012W        W32323   6.367  30.651  11.613
71013W        W32324  35.859  10.366  11.409
71014W        W32325   8.200  44.896   3.859
71015W        W32326  23.702  24.999  10.981
71016W        W32327  43.982  36.939   3.640
71017W        W32328  11.688  11.789  14.331
71018W        W32329  18.292  35.391   3.383
71019W        W32330  29.572  33.983  11.599
71020W        W32331   7.725  43.455   4.814
71021W        W32332   7.359  25.963   1.242
71022W        W32333   3.860  41.995  10.644
71023W        W32334   2.255   0.910   2.826
71024W        W32335  10.863  17.127  13.835
71025W        W32336  16.254  36.980   0.881
71026W        W32337  42.472  23.678   3.165
71027W        W32338   5.316   3.911  10.481
71028W        W32339   2.237  36.909   2.190
71029W        W32340  17.568  15.772  12.404
71030W        W32341  32.432   4.781   9.924
71031W        W32342  21.130   9.720   2.736
71032W        W32343  35.543  28.534   4.306
71033W        W32344   8.383  18.650   3.199
71034W        W32345  12.245  43.500   4.154
71035W        W32346  29.626  36.871  12.847
71036W        W32347   6.783  13.185   2.263
71037W        W32348  14.121  34.449   4.122
71038W        W32349  30.504  36.500   0.745
71039W        W32350  35.895  22.571  11.875
71040W        W32351  27.050  33.394   4.308
71041W        W32352  18.057  25.985   4.249
71042W        W32353  42.418  44.825  12.565
71043W        W32354  38.561  37.965   2.874
71044W        W32355  38.366  10.878  12.932
71045W        W32356  25.986  31.924   3.630
71046W        W32357   3.840  29.126   4.738
71047W        W32358  27.007   4.929   2.339
71048W        W32359  38.953  29.062   9.938
71049W        W32360   6.259  29.922   4.331
71050W        W32361   1.868  23.543   0.367
71051W        W32362  15.762  34.426   1.309
71052W        W32363  44.504  25.000   0.815
71053W        W32364  24.019  40.861  10.405
71054W        W32365   7.825  31.950   1.889
71055W        W32366  32.392  16.740  10.995
71056W        W32367  28.446  21.594  14.488
71057W        W32368  12.622  35.434  14.461
71058W        W32369  25.560  15.253  12.873
71059W        W32370   6.867   8.258   1.329
71060W        W32371  22.607  36.891  14.431
71061W        W32372  11.288  43.903   2.354
71062W        W32373  33.446  38.542  13.423
71063W        W32374  13.324  12.137   3.758
71064W        W32375  37.893  20.630   4.746
71065W        W32376  20.146  18.641   3.370
71066W        W32377  44.948   5.342   1.260
71067W        W32378  20.665   3.321  14.486
71068W        W32379   2.828  22.249   0.823
71069W        W32380  18.218  21.232  13.978
71070W        W32381  31.601   8.197   0.258
71071W        W32382   1.857   1.248  12.564
71072W        W32383  43.446  24.511  10.481
71073W        W32384  35.901   9.729  14.377
71074W        W32385  21.177  23.587   5.297
71075W        W32386  15.749  25.154  12.473
71076W        W32387  17.211  25.592  14.028
71077W        W32388  14.267  36.449  14.282
71078W        W32389  41.333   6.379   1.394
71079W        W32390  11.176  19.573  14.308
71080W        W32391   3.898  24.103   1.231
71081W        W32392  11.160  23.211   2.193
71082W        W32393   8.871  13.677   4.177
71083W        W32394  10.654  44.303  12.905
71084W        W32395  20.236  15.779  13.016
71085W        W32396   8.350   1.397  11.515
71086W        W32397  42.874  21.115  10.939
71087W        W32398  39.350  34.070   2.750
71088W        W32399  39.857  36.552   3.706
71089W        W32400  33.091  44.299  11.542
71090W        W32401  35.403   3.800   2.209
71091W        W32402   6.785  43.005  12.385
71092W        W32403   5.747  35.982  13.353
71093W        W32404   0.315  33.592   9.959
71094W        W32405  15.123  40.036   2.799
71095W        W32406   3.432  38.012   2.857
71096W        W32407   8.202  34.393   1.243
71097W        W32408  35.051  25.034   5.286
71098W        W32409  21.026  21.708   1.378
71099W        W32410  28.575   4.334   3.807
71100W        W32411  11.261  10.875   2.794
71101W        W32412  33.896  34.503   2.335
71102W        W32413  31.972   4.387  14.334
71103W        W32414   7.264  43.429  10.607
71104W        W32415   2.342  12.621   3.363
71105W        W32416  34.045  11.337   2.213
71106W        W32417  41.356  41.958  13.925
71107W        W32418  22.611  15.710  13.823
71108W        W32419  20.146  18.703  14.357
71109W        W32420  17.773  41.424  13.036
71110W        W32421  15.717  20.544  14.832
71111W        W32422  31.624  26.008  13.417
71112W        W32423   9.325  22.528  12.442
71113W        W32424  26.465   5.863   2.794
71114W        W32425  36.515  34.561   3.205
71115W        W32426  23.723   9.860  11.976
71116W        W32427  37.462  22.093  10.502
71117W        W32428  36.577  11.664  14.780
71118W        W32429  41.934  25.487  12.057
71119W        W32430  23.515  36.529  11.586
71120W        W32431  13.179  23.573  13.399
71121W        W32432   2.950  24.986   1.789
71122W        W32433  36.464   1.808   1.715
71123W        W32434   1.401  15.626   0.847
71124W        W32435  27.633  43.788   0.422
71125W        W32436   3.334  16.311   0.870
71126W        W32437  25.594  32.562   3.326
71127W        W32438   5.785  37.857   2.735
71128W        W32439  10.238  28.514  14.328
71129W        W32440   7.883   3.310   3.178
71130W        W32441  12.804  30.456  13.890
71131W        W32442  42.317  26.057   3.681
71132W        W32443  37.499  22.640   2.678
71133W        W32444  11.296   8.839   3.316
71134W        W32445  16.097  12.716  14.376
71135W        W32446  19.538  43.396  11.978
71136W        W32447  35.095  43.468  14.289
71137W        W32448  38.438  37.019   0.306
71138W        W32449  16.095  44.986   2.293
71139W        W32450  14.175  36.995   3.272
71140W        W32451  34.453  19.107  12.499
71141W        W32452  27.513  44.421   4.184
71142W        W32453  20.177  26.620   2.260
71143W        W32454   6.715  13.132   3.778
71144W        W32455  17.254  32.086  12.518
71145W        W32456  27.071  30.540   2.724
71146W        W32457  16.684  41.818  12.054
71147W        W32458   2.359  35.549   4.128
71148W        W32459  17.257  27.462  14.847
71149W        W32460  20.559  39.477   1.305
71150W        W32461   0.801  14.223  12.843
71151W        W32462  35.414  28.081   3.218
71152W        W32463  41.849  28.178   2.186
71153W        W32464  39.046  25.534   4.604
71154W        W32465   1.442  33.383   3.691
71155W        W32466  22.018  23.156   2.822
71156W        W32467   1.420  35.086  11.118
71157W        W32468  11.806  37.558   4.771
71158W        W32469  38.999   5.228  13.332
71159W        W32470  38.859   0.902  11.110
71160W        W32471  32.447   2.899   3.276
71161W        W32472  11.647  31.041   1.884
71162W        W32473  32.093  44.857  12.895
71163W        W32474  32.419  15.213   1.872
71164W        W32475  25.526  35.603   0.362
71165W        W32476   5.401   0.810   1.844
71166W        W32477  14.610  11.782  14.803
71167W        W32478  17.777  31.540   4.237
71168W        W32479  35.583   0.380   4.312
71169W        W32480   2.938  23.578  14.029
71170W        W32481  38.565  31.983   5.201
71171W        W32482  32.605  30.525  12.971
71172W        W32483  38.859  42.375  12.914
71173W        W32484  14.297  10.347  10.938
71174W        W32485  27.033  42.454   1.395
71175W        W32486   8.290   6.386   4.224
71176W        W32487  18.201  20.039  11.088
71177W        W32488  37.919  25.691   2.772
71178W        W32489  44.463   0.313   3.731
71179W        W32490  17.253  10.869  14.425
71180W        W32491  13.348  28.517   3.182
71181W        W32492  14.613  41.339  10.434
71182W        W32493  31.906  27.461  13.922
71183W        W32494   0.412  13.227  11.984
71184W        W32495  41.359  42.347  13.544
71185W        W32496  27.980   8.232   4.753
71186W        W32497   9.274  33.493   0.846
71187W        W32498  14.721   5.881  12.876
71188W        W32499  13.747  37.481  14.769
71189W        W32500  41.319  17.656  10.577
71190W        W32501  12.166   0.398  14.886
71191W        W32502  19.082   1.798  14.905
71192W        W32503  42.827  40.982   2.403
71193W        W32504   8.847  21.033  11.378
71194W        W32505  28.647   0.821   2.359
71195W        W32506  39.442  18.564  14.808
71196W        W32507  23.725  38.469  13.900
71197W        W32508   9.304  39.058   1.216
71198W        W32509  32.926  37.460   2.285
71199W        W32510   4.431   0.862   3.286
71200W        W32511  19.721  32.082  12.957
71201W        W32512  31.073  16.297   1.911
71202W        W32513  33.535  24.127  13.991
71203W        W32514   7.880  39.378  10.942
71204W        W32515  35.392  33.029   3.743
71205W        W32516  40.421   2.339  13.041
71206W        W32517  30.915  32.520  11.986
71207W        W32518  24.525  21.566   4.337
71208W        W32519  28.536  35.995   4.686
71209W        W32520  34.592  22.677  13.052
71210W        W32521  14.252  39.543   0.451
71211W        W32522  41.796  29.150  13.048
71212W        W32523   3.803   4.924   4.248
71213W        W32524  27.618  19.230  10.972
71214W        W32525  14.214  12.770   3.654
71215W        W32526  28.056  19.088   2.875
71216W        W32527   5.431   6.300  13.383
71217W        W32528   8.841  38.556   4.192
71218W        W32529  15.631   4.294  11.572
71219W        W32530  35.067  40.927   3.714
71220W        W32531  25.200  12.135  10.910
71221W        W32532  31.970   3.358   1.880
71222W        W32533  17.296  19.228   4.745
71223W        W32534   2.926   9.248  11.460
71224W        W32535  42.802  23.039  14.282
71225W        W32536  44.886   5.730   3.804
71226W        W32537  39.537  24.022   0.329
71227W        W32538  16.145   4.770  14.786
71228W        W32539  23.122  13.217   2.255
71229W        W32540  11.681  18.117  14.375
71230W        W32541  33.071  36.860   1.878
71231W        W32542  25.594   3.793  11.051
71232W        W32543  31.051  42.868  10.548
71233W        W32544  36.575  16.313   2.745
71234W        W32545  27.666  43.420   2.743
71235W        W32546  38.519  25.054  13.350
71236W        W32547  11.812   3.286  11.464
71237W        W32548  23.127  10.870   4.150
71238W        W32549  27.507  43.409   1.298
71239W        W32550   6.914  18.079   5.633
71240W        W32551  24.047  35.558  14.918
71241W        W32552  41.454  28.502  14.825
71242W        W32553  15.310  31.436   1.931
71243W        W32554  22.017   2.939   3.162
71244W        W32555  34.873  24.613   1.277
71245W        W32556   5.263  39.472   2.739
71246W        W32557  18.268  34.979   3.737
71247W        W32558  13.224  37.432   1.384
71248W        W32559   9.385  34.070  12.071
71249W        W32560  33.543  40.416  11.441
71250W        W32561  38.069  43.420  14.383
71251W        W32562   0.900   9.328  14.909
71252W        W32563   8.737  14.637   3.205
71253W        W32564  18.548  42.450   4.184
71254W        W32565  31.404  21.180   4.118
71255W        W32566  38.912  27.101   1.897
71256W        W32567  40.816   8.697  11.576
71257W        W32568  31.595  17.118   0.881
71258W        W32569  18.246  11.283   3.676
71259W        W32570  12.326  33.118  12.452
71260W        W32571  11.648  39.963  12.506
71261W        W32572  13.110  15.123   1.420
71262W        W32573  44.945  15.194  14.374
71263W        W32574  37.357  32.139   4.740
71264W        W32575   4.392  30.658   3.743
71265W        W32576  26.176  23.516  14.377
71266W        W32577  16.648  28.943  12.522
71267W        W32578  44.786  18.636  14.829
71268W        W32579   2.403  33.610  14.996
71269W        W32580  32.405  13.152   2.890
71270W        W32581   4.884  15.694   1.757
71271W        W32582  29.989  11.655  11.418
71272W        W32583  17.622   7.883   3.793
71273W        W32584  26.476  17.721  13.951
71274W        W32585  38.073   2.365  10.526
71275W        W32586  35.941  31.950   1.259
71276W        W32587  39.497  18.089  10.926
71277W        W32588  41.036  31.424   1.875
71278W        W32589  25.962  33.591  10.580
71279W        W32590  38.013   5.859  13.383
71280W        W32591  26.139  16.709  13.315
71281W        W32592   9.777  31.610   1.366
71282W        W32593  43.781  28.999  14.784
71283W        W32594  28.672  43.837  10.543
71284W        W32595  29.612  41.825  14.489
71285W        W32596   9.187   1.288  10.509
71286W        W32597  16.607  17.571   2.755
71287W        W32598  22.122  26.587   5.139
71288W        W32599  32.579  42.847  11.452
71289W        W32600  22.123  23.103  11.059
71290W        W32601  40.904  27.995  13.026
71291W        W32602  11.264   9.157   4.194
71292W        W32603  19.558  31.973   2.195
71293W        W32604  35.075   7.668  14.342
71294W        W32605  24.031  14.597   3.177
71295W        W32606  15.610  35.066   4.793
71296W        W32607  44.771  38.387   2.326
71297W        W32608  21.238  16.590   4.660
71298W        W32609  21.085   2.776   2.843
71299W        W32610  42.368  34.483   4.617
71300W        W32611  23.148  25.505   1.712
71301W        W32612  12.667  39.009   3.815
71302W        W32613  32.606  20.211   2.239
71303W        W32614  22.025  10.835   0.480
71304W        W32615  21.723   6.751  12.355
71305W        W32616   0.387  13.169  13.484
71306W        W32617   3.457  24.637  10.525
71307W        W32618  40.507  10.687   2.831
71308W        W32619  10.341  13.114   2.707
71309W        W32620  44.845   2.273  11.010
71310W        W32621  18.296   2.398  14.880
71311W        W32622  42.915   3.295  11.408
71312W        W32623  39.900  13.350   3.739
71313W        W32624  44.878  35.977  12.056
71314W        W32625  40.797  39.911   1.877
71315W        W32626   8.718  17.561   4.837
71316W        W32627  26.166   6.324   4.772
71317W        W32628  12.856  44.295   2.877
71318W        W32629  12.771  35.080  13.813
71319W        W32630  37.534   5.428   0.852
71320W        W32631  22.622  12.665   1.268
71321W        W32632  18.245   3.336   0.920
71322W        W32633  40.824  29.644   3.267
71323W        W32634  34.536  32.451  14.795
71324W        W32635  38.534  39.418   3.670
71325W        W32636  26.125   7.780   3.175
71326W        W32637  25.981  33.989  13.966
71327W        W32638  13.193  29.619  13.419
71328W        W32639  35.369  14.096  12.428
71329W        W32640  29.495   0.387  12.997
71330W        W32641   9.351  23.633  14.407
71331W        W32642  20.104  41.952  13.858
71332W        W32643  41.840   9.177  12.559
71333W        W32644   6.862  43.789  13.879
71334W        W32645   7.799   5.391   1.917
71335W        W32646  14.320  39.059   1.886
71336W        W32647  43.968  31.992  10.435
71337W        W32648   1.884  23.543   3.807
71338W        W32649  10.660  28.152  14.327
71339W        W32650   2.418   2.938  11.889
71340W        W32651  26.663  26.962  12.976
71341W        W32652  24.158  34.881  14.369
71342W        W32653  29.942  36.461   2.290
71343W        W32654  35.580  33.402  14.414
71344W        W32655  27.611  36.448   0.831
71345W        W32656   6.692  29.482   4.749
71346W        W32657  34.511   7.901   3.379
71347W        W32658  14.207  19.630  14.464
71348W        W32659  34.975  42.798   4.119
71349W        W32660   5.930  22.645  13.487
71350W        W32661  29.961  29.167   0.838
71351W        W32662  19.753   3.303  10.982
71352W        W32663  38.868  35.421   2.865
71353W        W32664  24.603   7.203   0.329
71354W        W32665  16.574  16.175  12.947
71355W        W32666  21.726  21.090  11.015
71356W        W32667  42.927   9.691   2.823
71357W        W32668  13.156   8.246   3.723
71358W        W32669   1.733   5.351   1.880
71359W        W32670  22.637   5.692  13.935
71360W        W32671   9.855  30.579   1.830
71361W        W32672   0.797  38.346   3.727
71362W        W32673  31.413  29.495  11.925
71363W        W32674   9.831  21.167   1.849
71364W        W32675   2.412   8.190  11.610
71365W        W32676  41.951  19.631   4.261
71366W        W32677  11.701   2.924   3.863
71367W        W32678  30.079  28.515  11.525
71368W        W32679   5.336   3.794  13.811
71369W        W32680   8.814   3.889  13.503
71370W        W32681  24.718  42.937  13.808
71371W        W32682   5.328   7.291  12.491
71372W        W32683  13.796  15.143  13.837
71373W        W32684  20.574  42.322   3.672
71374W        W32685  38.374   6.797   0.804
71375W        W32686  35.890  33.380   2.795
71376W        W32687  26.551  32.523  11.917
71377W        W32688  29.983  38.964  12.553
71378W        W32689  15.762   0.412   1.448
71379W        W32690  36.383  33.394   1.842
71380W        W32691  30.117   4.856   4.661
71381W        W32692  18.706   3.348  14.374
71382W        W32693  40.535  14.165   1.756
71383W        W32694  27.639  27.535  13.326
71384W        W32695  31.532  16.272   4.786
71385W        W32696  33.906   9.659  14.375
71386W        W32697  21.130  34.371   4.791
71387W        W32698   7.305  37.945   4.779
71388W        W32699   1.450  40.958  13.475
71389W        W32700  15.655  19.658  11.986
71390W        W32701  22.175  32.013  14.920
71391W        W32702   0.968  12.330  12.008
71392W        W32703  42.995  36.990  12.421
71393W        W32704  22.025  42.407  12.838
71394W        W32705  35.504   9.228   3.684
71395W        W32706   8.169  43.456  14.786
71396W        W32707  12.271   7.884  13.942
71397W        W32708  42.323  33.447  11.016
71398W        W32709  33.994  12.801   1.311
71399W        W32710  12.716  16.675   0.741
71400W        W32711  12.126  44.372   4.260
71401W        W32712   1.260  36.525  12.832
71402W        W32713   2.820   7.238   0.731
71403W        W32714  26.556  32.515  11.083
71404W        W32715  28.134  35.475  14.455
71405W        W32716  28.570  42.481  14.898
71406W        W32717  19.167   0.401  13.515
71407W        W32718   9.867  42.347   3.852
71408W        W32719  17.290  20.700  14.401
71409W        W32720  42.524  14.757  11.427
71410W        W32721  44.411   2.833   4.700
71411W        W32722  15.728  33.463  12.897
71412W        W32723  26.054   3.237  13.365
71413W        W32724  11.864  22.521  13.062
71414W        W32725  14.795  29.043  12.073
71415W        W32726   6.788  14.256   3.793
71416W        W32727  16.744  41.986  14.854
71417W        W32728  24.072  36.969  13.865
71418W        W32729  11.781  30.144   0.261
71419W        W32730  27.070  31.482  11.551
71420W        W32731  12.334  30.961   2.381
71421W        W32732  34.021   7.261  14.013
71422W        W32733  24.183  21.590  12.522
71423W        W32734  40.888  31.108   1.230
71424W        W32735  36.518   7.868  14.455
71425W        W32736  41.835  39.410   0.966
71426W        W32737  23.194   1.256   3.839
71427W        W32738   7.264   6.770  11.999
71428W        W32739  40.522  39.381  13.365
71429W        W32740  42.498  38.478   0.446
71430W        W32741   3.263   1.776   1.328
71431W        W32742  32.534  39.917   4.227
71432W        W32743  25.614  31.647  12.850
71433W        W32744  34.454  14.255   1.443
71434W        W32745   3.328  10.778  11.042
71435W        W32746  38.010   4.889  11.919
71436W        W32747  33.915   4.284  11.927
71437W        W32748  15.592  22.147   2.804
71438W        W32749  30.008   8.228  12.419
71439W        W32750  26.567  23.522   2.284
71440W        W32751  32.403  29.939   1.704
71441W        W32752  30.994  34.575   4.778
71442W        W32753  34.102  37.992   3.194
71443W        W32754  13.652  38.873  10.644
71444W        W32755   8.775  31.424  10.979
71445W        W32756  12.774  32.890   2.306
71446W        W32757  18.559  34.050   3.226
71447W        W32758  15.199   5.727   0.953
71448W        W32759  28.977  39.373  14.899
71449W        W32760  11.321   1.426   1.890
71450W        W32761  30.124  29.518  13.411
71451W        W32762   5.792   9.694   0.290
71452W        W32763  10.644  43.335  11.587
71453W        W32764  26.499  22.213  12.965
71454W        W32765  19.561  28.182  13.538
71455W        W32766  44.393  22.096  12.894
71456W        W32767  16.297  37.414  14.018
71457W        W32768   9.352  26.617   0.914
71458W        W32769  33.554  23.092  10.509
71459W        W32770  25.983  41.440   2.357
71460W        W32771   8.755  29.533  14.478
71461W        W32772  30.043   7.746  10.987
71462W        W32773   3.916  12.710   2.819
71463W        W32774   2.773  23.709   2.390
71464W        W32775   0.979  31.633   0.811
71465W        W32776   6.206  34.416  11.409
71466W        W32777   5.316  41.897  12.030
71467W        W32778  31.152   9.722   3.712
71468W        W32779  21.681  19.554  12.435
71469W        W32780  39.466  15.116  12.563
71470W        W32781   1.311  11.151   2.789
71471W        W32782  38.371  20.721  13.855
71472W        W32783   8.713  42.033   0.849
71473W        W32784   5.724  16.264  14.766
71474W        W32785  10.337   0.257   9.991
71475W        W32786  34.473  15.227  10.597
71476W        W32787   0.772  40.395  11.587
71477W        W32788  26.056   7.864   4.321
71478W        W32789   4.410  32.442  14.845
71479W        W32790   4.923   8.166   3.784
71480W        W32791  26.507  13.149  13.053
71481W        W32792  20.634  20.029   5.153
71482W        W32793   5.258  21.206   5.276
71483W        W32794  33.412  13.213   4.775
71484W        W32795   0.758  43.415   0.277
71485W        W32796  15.580   2.790  12.534
71486W        W32797  11.360  32.510   3.358
71487W        W32798  32.998  11.789  14.355
71488W        W32799  33.383  36.467   2.367
71489W        W32800  18.737  11.818   2.311
71490W        W32801  13.693   3.243   0.731
71491W        W32802  11.815  41.936   4.260
71492W        W32803  43.017  30.625   2.759
71493W        W32804  38.058  34.930  14.875
71494W        W32805  27.618   0.887  13.897
71495W        W32806  26.499  19.640  10.004
71496W        W32807  14.319  12.173   0.421
71497W        W32808  32.571  40.320  10.548
71498W        W32809   4.393  16.640   2.725
71499W        W32810  18.779  38.867   4.227
71500W        W32811   9.659  22.051  11.001
71501W        W32812  20.144  13.313   2.832
71502W        W32813  14.647  31.959  14.842
71503W        W32814  14.643  18.174  10.508
71504W        W32815  31.103  12.285   2.204
71505W        W32816  34.898   4.737   4.285
71506W        W32817  32.072  17.238  10.947
71507W        W32818  31.947  24.008  13.326
71508W        W32819  36.022  42.023   2.360
71509W        W32820  26.156  39.841   4.812
71510W        W32821  43.946  26.668  11.557
71511W        W32822  17.783  18.578  11.430
71512W        W32823  26.164  19.149  14.446
71513W        W32824  18.186  26.467  13.965
71514W        W32825  36.393   3.736  12.496
71515W        W32826   3.923  16.090  13.512
71516W        W32827  20.527  32.999   1.301
71517W        W32828  32.452   6.418   9.952
71518W        W32829  35.093  28.643   1.849
71519W        W32830  33.993  34.441  13.996
71520W        W32831  44.809  40.900  11.601
71521W        W32832  42.973  15.796  10.964
71522W        W32833  26.699  16.132   2.862
71523W        W32834   3.886   9.261   3.180
71524W        W32835   6.914  38.508  14.458
71525W        W32836   6.699  32.483  14.861
71526W        W32837  42.829  33.501  14.789
71527W        W32838  14.739  24.496  11.915
71528W        W32839   2.365  20.547  14.935
71529W        W32840   9.200  42.952   2.843
71530W        W32841  23.095  30.498   3.746
71531W        W32842   1.255  22.101   0.906
71532W        W32843   3.951  41.970   0.759
71533W        W32844  34.015   7.838   3.635
71534W        W32845  23.074  16.735  13.310
71535W        W32846  12.692  28.645  13.509
71536W        W32847  25.639  18.262  10.413
71537W        W32848  35.053  29.506  14.500
71538W        W32849  35.011  23.665   0.346
71539W        W32850  44.946  41.787  12.481
71540W        W32851  43.939  22.166  12.482
71541W        W32852  42.814  14.609   3.279
71542W        W32853  19.649  34.586  14.354
71543W        W32854  42.462   3.900   4.820
71544W        W32855  27.458  29.505  14.412
71545W        W32856   4.891   7.830   1.698
71546W        W32857  39.028  36.068  10.416
71547W        W32858  17.193  21.029  10.944
71548W        W32859   4.316   4.317  14.285
71549W        W32860  25.001  25.580  12.826
71550W        W32861   6.290  23.135  14.317
71551W        W32862  43.015  24.011  10.514
71552W        W32863   2.402  34.567   2.736
71553W        W32864  10.642  31.499   4.354
71554W        W32865  17.688  41.041   1.926
71555W        W32866  40.309  25.966   0.762
71556W        W32867  16.746  35.524   3.637
71557W        W32868  16.784   3.831  11.867
71558W        W32869   6.245  13.821  13.438
71559W        W32870  11.834  16.698   2.853
71560W        W32871  42.797  40.935   3.240
71561W        W32872  31.410   1.932   0.318
71562W        W32873  12.732  17.215   2.413
71563W        W32874   3.716  15.600   2.797
71564W        W32875  14.793  25.990   4.654
71565W        W32876  35.919  43.832   0.867
71566W        W32877  35.873  25.071   0.453
71567W        W32878  20.099  40.812  13.921
71568W        W32879   7.868  40.368   3.187
71569W        W32880  24.107   5.754  10.414
71570W        W32881  30.589  17.116   3.236
71571W        W32882  22.040   0.355   2.244
71572W        W32883  41.835  11.804   3.176
71573W        W32884  22.066  23.719  11.442
71574W        W32885  10.155  35.074   3.829
71575W        W32886  37.946  18.701  12.035
71576W        W32887  25.699  14.803  14.319
71577W        W32888  23.123  27.517  12.990
71578W        W32889  38.463  30.422  11.979
71579W        W32890  30.604  30.544   4.827
71580W        W32891  44.380   1.868   3.654
71581W        W32892   5.873  24.663  11.056
71582W        W32893  38.520  31.966   1.747
71583W        W32894  40.024  20.727   1.243
71584W        W32895  22.237   8.682   3.162
71585W        W32896  22.136  33.949  10.546
71586W        W32897   8.325  11.368  11.893
71587W        W32898  15.273  10.822   0.317
71588W        W32899  35.945  42.359  13.934
71589W        W32900  37.845  26.063  11.553
71590W        W32901  15.676  33.103  13.889
71591W        W32902  10.243   9.872  11.981
71592W        W32903  10.865  44.854  13.052
71593W        W32904  38.036  20.206   4.808
71594W        W32905  38.427  10.766   0.759
71595W        W32906  32.405  44.914   2.887
71596W        W32907  26.111  18.211   0.264
71597W        W32908  29.510  41.366   5.143
71598W        W32909   9.647  22.200   0.461
71599W        W32910  28.529  36.928   3.320
71600W        W32911  29.000  30.973  11.887
71601W        W32912  37.402  43.886  14.292
71602W        W32913   7.836   8.160  14.494
71603W        W32914  24.599  10.709   2.266
71604W        W32915  38.042   2.805   1.374
71605W        W32916  40.872   0.267  11.934
71606W        W32917  41.841  14.737  14.469
71607W        W32918  30.421  19.096  12.902
71608W        W32919   0.761   6.355   2.899
71609W        W32920  33.612   0.353  12.926
71610W        W32921  34.057  21.531  14.821
71611W        W32922  13.755  34.542   3.808
71612W        W32923  25.978   7.291  12.019
71613W        W32924  35.003  35.416  11.070
71614W        W32925   1.905  12.260   3.324
71615W        W32926  18.634  24.097  11.602
71616W        W32927  17.194   7.329   2.313
71617W        W32928   3.925  22.998  12.005
71618W        W32929  30.520  38.876  14.479
71619W        W32930   6.194  27.132   1.920
71620W        W32931  37.056   0.854  14.901
71621W        W32932  11.685  18.657   0.285
71622W        W32933  20.535   8.197  12.416
71623W        W32934   0.281  40.984   4.741
71624W        W32935  24.026   0.378   4.662
71625W        W32936  42.284  20.540  14.297
71626W        W32937  38.408  34.041   3.631
71627W        W32938  42.972  32.632  11.118
71628W        W32939  22.071   6.406   3.259
71629W        W32940  39.503  25.145   0.481
71630W        W32941  36.973  17.750   4.116
71631W        W32942  16.599  17.760  10.601
71632W        W32943  37.398  39.380   3.788
71633W        W32944  40.014   1.396   1.705
71634W        W32945  13.175  15.706   1.887
71635W        W32946   8.849  33.495  11.089
71636W        W32947  16.103   7.284   4.203
71637W        W32948  36.473  21.664   1.228
71638W        W32949   6.868  38.500   1.697
71639W        W32950   2.268  40.505  13.430
71640W        W32951  20.559  19.581  12.522
71641W        W32952   0.481  39.503   4.338
71642W        W32953  21.628  26.563  14.450
71643W        W32954  29.456   1.319  13.389
71644W        W32955  25.481   4.361  13.877
71645W        W32956   2.814  42.852   4.127
71646W        W32957  44.767  20.177  13.943
71647W        W32958   5.688  40.019  12.068
71648W        W32959  29.063   8.878  10.996
71649W        W32960  33.022  29.466   2.686
71650W        W32961   3.871  39.842  10.000
71651W        W32962  12.341  14.783  14.298
71652W        W32963  13.320  44.893  10.530
71653W        W32964  35.865   0.976  11.899
71654W        W32965   3.916   2.827  13.452
71655W        W32966  44.312   9.843   3.646
71656W        W32967  14.098  32.441   3.802
71657W        W32968  10.303  37.449   4.765
71658W        W32969   1.770  15.191   3.757
71659W        W32970  22.061  36.098   2.199
71660W        W32971  39.351   2.770  10.471
71661W        W32972  42.496  29.506  11.587
71662W        W32973   3.897   7.702   4.737
71663W        W32974  44.850  32.909   1.789
71664W        W32975  44.841  22.628   2.190
71665W        W32976  21.661  34.946  14.895
71666W        W32977   4.722  24.145  14.962
71667W        W32978  43.929   4.822  12.950
71668W        W32979   2.274  10.263   4.689
71669W        W32980  34.007  24.159   0.327
71670W        W32981  16.622  24.101   5.645
71671W        W32982  42.326  12.666  13.994
71672W        W32983  14.245  22.731  10.924
71673W        W32984  39.854  14.650   3.211
71674W        W32985   3.403  42.026   2.669
71675W        W32986  35.959  12.199   1.835
71676W        W32987   9.884  15.271   1.258
71677W        W32988  40.368   6.350   0.364
71678W        W32989  24.550  33.999   0.332
71679W        W32990  17.675  36.994  12.550
71680W        W32991  24.677  20.274   0.384
71681W        W32992  19.185  32.456   1.230
71682W        W32993  35.913  13.834   2.378
71683W        W32994   7.677  24.040  14.322
71684W        W32995  19.133  41.819   4.694
71685W        W32996  22.680  10.814  10.986
71686W        W32997   2.364  38.372  12.553
71687W        W32998  13.282  28.076   4.605
71688W        W32999  21.179  14.733   3.675
71689W        W33000  34.011  24.590  11.501
71690W        W33001   2.926  31.442  14.484
71691W        W33002  33.426  18.207   2.785
71692W        W33003  10.643   2.891  12.972
71693W        W33004  34.613  43.391  12.447
71694W        W33005  34.385   8.367   4.267
71695W        W33006   8.386  19.651  13.964
71696W        W33007  13.327  31.642  12.521
71697W        W33008  21.154   6.707  11.466
71698W        W33009  15.764   0.897   4.341
71699W        W33010  15.601  44.983  12.453
71700W        W33011  30.513  18.293  14.009
71701W        W33012  12.213  20.551  11.550
71702W        W33013  31.425  38.513   1.816
71703W        W33014  16.136  23.544  14.928
71704W        W33015   4.935  36.527  13.509
71705W        W33016  36.520  24.553  12.852
71706W        W33017  20.750  11.728   2.763
71707W        W33018  15.757   2.238   3.852
71708W        W33019  31.531   6.821   3.715
71709W        W33020  22.029  43.445   9.455
71710W        W33021  44.793  21.540   1.238
71711W        W33022  21.204  13.686  14.941
71712W        W33023  26.115  37.981  14.944
71713W        W33024  15.227  33.975   4.772
71714W        W33025  23.598  37.345   5.130
71715W        W33026  42.916  12.245   4.837
71716W        W33027  28.524   4.717   4.276
71717W        W33028   6.263  43.975   3.201
71718W        W33029  38.545   4.770  14.405
71719W        W33030   1.733  14.670   4.289
71720W        W33031  34.979  26.045  12.371
71721W        W33032  31.947   1.943  14.968
71722W        W33033  37.394   5.384  12.438
71723W        W33034  37.872  42.347  11.518
71724W        W33035  27.978  39.917   4.238
71725W        W33036  43.469  32.054   5.146
71726W        W33037  29.148  13.762  13.867
71727W        W33038   0.780   0.491  11.053
71728W        W33039  37.923  34.009   0.286
71729W        W33040  10.873  26.963   3.818
71730W        W33041  23.542  39.976  13.875
71731W        W33042  13.123  24.165   1.400
71732W        W33043  28.067  36.848  12.424
71733W        W33044  40.878   6.700   2.386
71734W        W33045  32.080  14.328  10.417
71735W        W33046  27.561  30.127   0.426
71736W        W33047  28.661  38.502  12.406
71737W        W33048  34.369   8.240  10.528
71738W        W33049  39.905  43.968  10.904
71739W        W33050  44.004  24.620   2.673
71740W        W33051  16.087   8.399  10.539
71741W        W33052  25.057   9.680  10.447
71742W        W33053   5.362  18.151  10.438
71743W        W33054  10.316   1.871   1.383
71744W        W33055   1.826   3.457   2.339
71745W        W33056   5.415   1.927   0.808
71746W        W33057  35.486  42.976  11.975
71747W        W33058  41.015   2.899   0.365
71748W        W33059  35.417  36.479  13.986
71749W        W33060  24.096  14.811  11.103
71750W        W33061  20.066  40.402  12.370
71751W        W33062  34.931  11.651  12.993
71752W        W33063  13.312  38.566  12.884
71753W        W33064  14.697  41.863   4.742
71754W        W33065  30.946   5.282  10.068
71755W        W33066  28.661   8.382   1.781
71756W        W33067  23.551  20.526  11.974
71757W        W33068  13.823  25.524   5.193
71758W        W33069   0.802  10.176   4.318
71759W        W33070  15.311  33.398  10.504
71760W        W33071  29.475  14.590   4.339
71761W        W33072  27.607  18.621   2.302
71762W        W33073   4.902  41.941   3.854
71763W        W33074   7.782  13.686   4.697
71764W        W33075  19.196  33.396   3.385
71765W        W33076   5.367  38.026  11.989
71766W        W33077  12.822  15.723   3.232
71767W        W33078  19.694  44.998   2.878
71768W        W33079  27.043  18.287  14.340
71769W        W33080  40.888   9.818  11.510
71770W        W33081  22.185  28.936   1.283
71771W        W33082  43.977  19.733  12.938
71772W        W33083  23.511   6.421  13.544
71773W        W33084  43.431  29.119   4.258
71774W        W33085  19.263   2.236   0.462
71775W        W33086  17.293  14.810  11.109
71776W        W33087  34.441   6.920  14.784
71777W        W33088   3.223  43.020  10.931
71778W        W33089   7.706  35.582   3.703
71779W        W33090  34.598  32.011  12.381
71780W        W33091  43.466  19.771  14.447
71781W        W33092   7.284  34.604  13.410
71782W        W33093  41.469  21.737  10.968
71783W        W33094  21.090  24.163  14.325
71784W        W33095  11.269   8.667   2.292
71785W        W33096  34.421  27.149   1.855
71786W        W33097  23.113  32.932   1.379
71787W        W33098  27.452   1.277  14.499
71788W        W33099   4.800   2.767  11.396
71789W        W33100  39.863  32.091   4.604
71790W        W33101   4.349  24.543  13.866
71791W        W33102  35.450  11.140   0.818
71792W        W33103  24.668   0.898  14.331
71793W        W33104  11.791   9.669   1.329
71794W        W33105  29.584  33.087   4.655
71795W        W33106   1.242  33.519  14.369
71796W        W33107  38.488  20.188  13.057
71797W        W33108  14.652  37.009  11.893
71798W        W33109  39.969   3.412   3.695
71799W        W33110  16.731   9.748  12.060
71800W        W33111  24.173  44.758  12.889
71801W        W33112   8.665   7.785  13.027
71802W        W33113  11.126  11.298  14.472
71803W        W33114   5.715  28.593  13.392
71804W        W33115   5.761  27.598  13.889
71805W        W33116   6.823  23.557   0.801
71806W        W33117  40.539  32.955   0.374
71807W        W33118  19.138  43.359   3.755
71808W        W33119  32.973  35.390   2.300
71809W        W33120  12.337  16.253   2.865
71810W        W33121  20.593  32.100   4.137
71811W        W33122  17.261   4.397   0.789
71812W        W33123  22.183  23.715  13.538
71813W        W33124  36.042  16.685   1.900
71814W        W33125  18.204  30.970  12.993
71815W        W33126  44.292  30.129   3.351
71816W        W33127  14.290  28.158  11.376
71817W        W33128  44.761   9.797   4.609
71818W        W33129  14.750  26.055   5.110
71819W        W33130   6.207   4.815   2.695
71820W        W33131  31.449   9.200  10.898
71821W        W33132   5.270  19.541  14.448
71822W        W33133   4.376  10.215   3.367
71823W        W33134   5.726  18.056   0.252
71824W        W33135  17.264  13.266   9.568
71825W        W33136   1.885  21.647  10.473
71826W        W33137   4.328   2.411  14.855
71827W        W33138  14.225  19.231   4.712
71828W        W33139   8.264  35.541  10.979
71829W        W33140  17.164  27.125   4.122
71830W        W33141  15.586  22.025  13.401
71831W        W33142  11.716  11.768  14.015
71832W        W33143  19.755  28.648   0.927
71833W        W33144  42.322  15.180   3.841
71834W        W33145   4.829  13.234   2.366
71835W        W33146  19.729  40.902   2.821
71836W        W33147   7.866  23.130   4.131
71837W        W33148   8.881  38.020   0.948
71838W        W33149  28.111  41.402   2.840
71839W        W33150  19.082  20.065  13.859
71840W        W33151  26.570  41.380   9.946
71841W        W33152  20.528  41.788   9.977
71842W        W33153  38.880  12.661   4.333
71843W        W33154  18.733  29.175   0.833
71844W        W33155  19.749   5.726  11.508
71845W        W33156  29.590   1.940   4.269
71846W        W33157  34.547   3.360   1.280
71847W        W33158  40.328  10.729  11.007
71848W        W33159   2.372  23.036   1.909
71849W        W33160  38.336  12.802  10.549
71850W        W33161   8.245  31.908  11.971
71851W        W33162  11.750  27.588  10.524
71852W        W33163  24.983   5.757   4.756
71853W        W33164  24.012  40.373  12.916
71854W        W33165  42.507   9.321   3.266
71855W        W33166  21.232   2.845   2.205
71856W        W33167  14.300  12.238   3.202
71857W        W33168  44.793  41.479  11.500
71858W        W33169  13.254   1.969   2.798
71859W        W33170   9.863  24.671   2.812
71860W        W33171  25.603  18.742   0.414
71861W        W33172  24.723  38.453  11.378
71862W        W33173  12.253  15.613   2.841
71863W        W33174  15.582   9.351   4.144
71864W        W33175  10.675  41.488  14.408
71865W        W33176  10.328  31.601   1.830
71866W        W33177  23.495  10.759   2.234
71867W        W33178   8.728  41.892   0.329
71868W        W33179   4.851  35.476  13.873
71869W        W33180  33.890  13.331  14.008
71870W        W33181  41.001  26.096  10.520
71871W        W33182  30.025  12.189   0.441
71872W        W33183  29.532  30.628   4.189
71873W        W33184  26.539  31.116   0.925
71874W        W33185   7.374  42.424  11.486
71875W        W33186   2.803  10.670  14.767
71876W        W33187  41.855  15.596  13.453
71877W        W33188  35.470  24.034  14.339
71878W        W33189  24.002  27.660   0.929
71879W        W33190   9.841  43.503  11.506
71880W        W33191   5.800  44.903  12.881
71881W        W33192  14.236  44.980   2.393
71882W        W33193   5.347  24.142  12.898
71883W        W33194  41.391  27.989  11.475
71884W        W33195   0.366  40.003   3.363
71885W        W33196  15.666  29.592   4.252
71886W        W33197  12.341  12.685  13.417
71887W        W33198  24.169  24.618  14.462
71888W        W33199  12.729   2.940   0.826
71889W        W33200   5.848  21.560   3.290
71890W        W33201  39.063  28.551   1.396
71891W        W33202   6.835  30.105  14.337
71892W        W33203   5.365  30.083   3.673
71893W        W33204  37.893  33.399  13.941
71894W        W33205  25.000  24.107   2.314
71895W        W33206  11.828   0.449  10.987
71896W        W33207  11.301  40.884   1.904
71897W        W33208  38.014  17.125  12.495
71898W        W33209   9.714  41.792   0.904
71899W        W33210  30.483   1.953  10.594
71900W        W33211   6.782  17.184   1.340
71901W        W33212   2.399  12.812  10.944
71902W        W33213  15.245   1.266   2.706
71903W        W33214  18.191  39.048  14.000
71904W        W33215  27.539  10.143   3.821
71905W        W33216  17.199  38.467  11.917
71906W        W33217  19.686   6.217  14.383
71907W        W33218  11.805  35.895   4.788
71908W        W33219  17.298   7.821   2.855
71909W        W33220  41.970  44.371   2.408
71910W        W33221  15.254  44.440  12.570
71911W        W33222  20.707  13.842   4.170
71912W        W33223  15.632  37.865  13.433
71913W        W33224  19.248   1.841   3.728
71914W        W33225  26.550  16.095  11.524
71915W        W33226  28.583  42.308   2.296
71916W        W33227  30.653  38.975   3.750
71917W        W33228  11.134  43.976   3.742
71918W        W33229  34.990  42.415  13.930
71919W        W33230  29.439  44.859   4.293
71920W        W33231  15.810  39.449   2.336
71921W        W33232   3.945  34.415   2.280
71922W        W33233  21.650   4.791   3.365
71923W        W33234  29.490   3.944   0.327
71924W        W33235   4.394   2.398  14.456
71925W        W33236   3.868  38.040   2.898
71926W        W33237  31.611  15.756   4.749
71927W        W33238  31.537  27.560   3.296
71928W        W33239  21.513  43.838   3.697
71929W        W33240  19.222   4.293   0.805
71930W        W33241   3.859  40.946  13.336
71931W        W33242  34.092  22.674   3.835
71932W        W33243  17.561   7.794  11.916
71933W        W33244  23.215  21.676   4.260
71934W        W33245  14.678  15.788  14.506
71935W        W33246  30.612   6.800   3.771
71936W        W33247  21.075  41.503  13.480
71937W        W33248  44.357  40.051   0.789
71938W        W33249  35.487  20.164  13.526
71939W        W33250  30.082  37.550   1.728
71940W        W33251  34.497  32.070   0.803
71941W        W33252  17.613   3.954  11.414
71942W        W33253   7.400  27.669  13.815
71943W        W33254  16.577  37.350   0.914
71944W        W33255  38.438   9.816  14.326
71945W        W33256   0.766  18.678  14.842
71946W        W33257  33.997   9.708  13.896
71947W        W33258  42.812  41.886   3.313
71948W        W33259  28.618  34.502  10.636
71949W        W33260  15.614  19.096   1.934
71950W        W33261   6.312   7.879   3.813
71951W        W33262  15.664  39.429  14.987
71952W        W33263  16.276  25.710   5.212
71953W        W33264  32.040   7.348  13.810
71954W        W33265  31.502  24.021  13.032
71955W        W33266  13.121  36.004  14.340
71956W        W33267   5.815  13.107   4.265
71957W        W33268  25.637  32.574  14.962
71958W        W33269  25.194   2.239   1.314
71959W        W33270  44.867   6.731   0.295
71960W        W33271   5.384  26.164  12.552
71961W        W33272  40.478  30.611   0.921
71962W        W33273  15.731  27.498   0.869
71963W        W33274  40.901  13.340   3.186
71964W        W33275  39.486  27.653  11.464
71965W        W33276  32.013  37.514   0.836
71966W        W33277  41.843   9.358  11.423
71967W        W33278  33.601  28.136  12.371
71968W        W33279   2.865  28.512  14.883
71969W        W33280  27.489  13.705   3.836
71970W        W33281  24.190  34.938   1.922
71971W        W33282   1.372  19.107   0.352
71972W        W33283   4.934  12.799   0.795
71973W        W33284  16.786   0.883   0.764
71974W        W33285   0.922  12.169   3.807
71975W        W33286  38.540  29.635   1.313
71976W        W33287  44.991   4.214  14.971
71977W        W33288  28.661  29.075  10.891
71978W        W33289  36.016   0.752   3.834
71979W        W33290   4.426  35.598  11.916
71980W        W33291  18.054  41.303  10.520
71981W        W33292  23.684   2.896   1.904
71982W        W33293  28.630  43.423   1.726
71983W        W33294   2.962  22.549  14.871
71984W        W33295  25.029  31.500  13.332
71985W        W33296  32.066   2.335   2.202
71986W        W33297   4.368  41.909   1.314
71987W        W33298  10.150  16.110   4.241
71988W        W33299   6.842  43.458   3.745
71989W        W33300  41.328   7.341  14.366
71990W        W33301  18.660  38.965   0.833
71991W        W33302  29.650  29.126   2.276
71992W        W33303  21.111  43.479  11.476
71993W        W33304   8.730  17.641  10.084
71994W        W33305  14.733  14.624  13.004
71995W        W33306  12.844   7.846  13.830
71996W        W33307  26.684  36.494  14.408
71997W        W33308  32.974  24.993  14.466
71998W        W33309   1.824   3.795   2.295
71999W        W33310  39.852   9.782  13.818
72000W        W33311  36.994  38.421  13.018
72001W        W33312   6.190  35.061  12.041
72002W        W33313  18.276  34.603   0.959
72003W        W33314  26.596  25.526  13.430
72004W        W33315   9.815  38.553   2.707
72005W        W33316  43.810  34.970  11.505
72006W        W33317  22.640  32.540   0.332
72007W        W33318  26.619  43.947  10.603
72008W        W33319  38.534   2.820  11.612
72009W        W33320  22.734   9.757   0.836
72010W        W33321  34.488  26.571  13.392
72011W        W33322  42.899   5.197   1.444
72012W        W33323  33.964  25.685   3.190
72013W        W33324   9.686  18.605   0.935
72014W        W33325  35.603   1.832  13.955
72015W        W33326  13.162  10.822  11.465
72016W        W33327  17.228  26.148   2.390
72017W        W33328   7.830   6.761   1.925
72018W        W33329  34.096  11.845  10.573
72019W        W33330   7.906   5.753   4.694
72020W        W33331  29.116  19.167  13.852
72021W        W33332  34.478   8.661  12.944
72022W        W33333  37.340   4.914   1.839
72023W        W33334  42.983   1.478   2.204
72024W        W33335   4.729  31.479   2.800
72025W        W33336   2.797  11.338  10.446
72026W        W33337  21.084   2.438  14.425
72027W        W33338  16.614  19.742   2.681
72028W        W33339  35.549  35.041   3.684
72029W        W33340   0.864  12.315   0.814
72030W        W33341  16.187  10.277   1.348
72031W        W33342   4.781  13.166   3.275
72032W        W33343  36.894   5.885  11.399
72033W        W33344  22.653  30.046  14.825
72034W        W33345  10.371  43.413  13.993
72035W        W33346  32.083   8.859  14.324
72036W        W33347  24.557  17.113  14.981
72037W        W33348   5.691  41.535   2.685
72038W        W33349  32.619  30.017   3.776
72039W        W33350  24.656  21.665  14.764
72040W        W33351  25.577  19.759   3.664
72041W        W33352  28.576  19.048   0.815
72042W        W33353  24.057   1.358  10.930
72043W        W33354  16.233  25.669   1.342
72044W        W33355  19.703  43.357  14.835
72045W        W33356  44.953   3.710  11.925
72046W        W33357  16.285  19.565   5.265
72047W        W33358  27.486  29.549  10.621
72048W        W33359  10.723   0.945   4.824
72049W        W33360  24.192   9.781   4.246
72050W        W33361   9.380  40.867   1.710
72051W        W33362  22.193   3.860  14.338
72052W        W33363   7.687  12.236  10.549
72053W        W33364   4.942   5.708   0.356
72054W        W33365  25.131   1.848  13.982
72055W        W33366  38.841   8.863   2.675
72056W        W33367  28.531  16.670  10.506
72057W        W33368   3.447  16.120   1.705
72058W        W33369  10.324  26.505   4.644
72059W        W33370  30.649  24.665  14.879
72060W        W33371  11.836  43.407  11.081
72061W        W33372  44.820  29.974  10.645
72062W        W33373  40.000  14.230   4.601
72063W        W33374  32.498  27.603  11.478
72064W        W33375  35.886  16.220  13.869
72065W        W33376  26.555   0.350   2.326
72066W        W33377  37.546   2.410  10.488
72067W        W33378  34.920  23.678   1.847
72068W        W33379  40.836   3.425  13.880
72069W        W33380  29.597  33.927   3.727
72070W        W33381  14.812  13.284   2.343
72071W        W33382  44.348   2.833  13.413
72072W        W33383  38.418  22.699  14.296
72073W        W33384  23.491  17.247  10.466
72074W        W33385   8.735  10.807  14.005
72075W        W33386  18.547  34.441   0.909
72076W        W33387  39.974  44.504   1.877
72077W        W33388  39.901   3.760  12.075
72078W        W33389  42.910   9.149   0.923
72079W        W33390  33.004   1.377  10.508
72080W        W33391   8.330  37.981  10.426
72081W        W33392   6.183  40.337   2.309
72082W        W33393  40.841  25.697  10.543
72083W        W33394  28.661  22.548   0.840
72084W        W33395  21.623   4.852   1.872
72085W        W33396  19.607  33.616   3.792
72086W        W33397  23.617  20.043   4.649
72087W        W33398  15.232  42.380  10.888
72088W        W33399  11.368   3.309  14.414
72089W        W33400   1.891  41.302   3.772
72090W        W33401  27.526   1.972   2.399
72091W        W33402  38.880   7.307  13.517
72092W        W33403  31.571  23.186   2.362
72093W        W33404  13.345  34.060  12.999
72094W        W33405  37.031  13.182   1.437
72095W        W33406  12.240   8.815  13.539
72096W        W33407   4.277  15.132  12.577
72097W        W33408  39.919   2.913  11.432
72098W        W33409  28.490  13.700   3.188
72099W        W33410   6.814  13.321  11.892
72100W        W33411  36.042  24.648  10.913
72101W        W33412  30.044   5.765  11.901
72102W        W33413   8.308  38.525   4.119
72103W        W33414  27.578   7.790  12.988
72104W        W33415  32.469  13.229   4.677
72105W        W33416  22.688  44.990   3.758
72106W        W33417   9.153  32.959  14.323
72107W        W33418  39.862   0.279   3.240
72108W        W33419   6.361  41.378  13.413
72109W        W33420   0.287  33.957  14.759
72110W        W33421  41.384  14.745  10.449
72111W        W33422  16.289   7.349   5.141
72112W        W33423   9.356  43.793  10.941
72113W        W33424  43.918  28.533   2.415
72114W        W33425  39.463   4.365  10.426
72115W        W33426  20.152  16.633   1.819
72116W        W33427  32.626  42.849  14.830
72117W        W33428  17.738  43.874  11.958
72118W        W33429   7.818  39.839   0.956
72119W        W33430   6.232  23.140   4.352
72120W        W33431  23.677  30.421  12.481
72121W        W33432  20.070  23.667   9.946
72122W        W33433   0.462  32.011  13.018
72123W        W33434  38.342   4.346  14.354
72124W        W33435  20.620  26.997  12.052
72125W        W33436  15.581   6.719  11.506
72126W        W33437   5.901   3.261   9.961
72127W        W33438  21.739  35.075   1.714
72128W        W33439  24.032   6.184  14.308
72129W        W33440  13.127  10.275   3.308
72130W        W33441  16.629  36.405   4.115
72131W        W33442   2.336  29.485  10.035
72132W        W33443  11.180  28.562   2.803
72133W        W33444  14.272  10.171   1.814
72134W        W33445  21.622  10.784  14.886
72135W        W33446   9.723   6.911  13.394
72136W        W33447  35.396  18.791   3.230
72137W        W33448  34.081  35.365   4.713
72138W        W33449  32.001  34.900   2.181
72139W        W33450   1.362  11.808   4.340
72140W        W33451  40.443   5.890  13.902
72141W        W33452  10.770  34.434  12.891
72142W        W33453  33.589  33.603   1.817
72143W        W33454  12.359  21.047   0.473
72144W        W33455  38.931  22.514   3.737
72145W        W33456  12.221   5.836   3.779
72146W        W33457  38.417  32.033   2.730
72147W        W33458  13.733  34.887  12.480
72148W        W33459  36.978   6.201   2.662
72149W        W33460  28.090  12.121   1.422
72150W        W33461  44.262   7.897  11.019
72151W        W33462  19.274   8.823   2.212
72152W        W33463   1.770   7.276   1.341
72153W        W33464  26.604   2.845  14.389
72154W        W33465  22.566  23.176  13.347
72155W        W33466  37.041  43.494   9.457
72156W        W33467  10.708  44.411   2.852
72157W        W33468  36.481  28.591   3.366
72158W        W33469  13.726  28.668   1.727
72159W        W33470  18.561  34.545   4.273
72160W        W33471   3.403  14.718   4.334
72161W        W33472  15.599  15.310  14.378
72162W        W33473   6.373  44.965  10.969
72163W        W33474  25.987  20.263  14.818
72164W        W33475   9.862  11.773   4.645
72165W        W33476   4.813   9.699  14.828
72166W        W33477  11.288  19.062  12.937
72167W        W33478  36.923  10.680  13.444
72168W        W33479  37.353  11.804  10.446
72169W        W33480  40.415   4.276   2.732
72170W        W33481  40.958  40.440   1.225
72171W        W33482   2.365  17.227  13.484
72172W        W33483  14.789   9.298  12.381
72173W        W33484  17.285  39.343  14.836
72174W        W33485   0.847   9.715   3.366
72175W        W33486  27.952  43.879   0.927
72176W        W33487   1.249   6.237  13.377
72177W        W33488  24.657  27.010   9.595
72178W        W33489  43.448   0.266  11.902
72179W        W33490  33.546  12.846   3.331
72180W        W33491   9.159  40.426  14.511
72181W        W33492  18.066  27.148   0.761
72182W        W33493  34.878  18.590   3.217
72183W        W33494  14.641  33.414  11.981
72184W        W33495  41.383  22.510   4.788
72185W        W33496  26.586  23.570  13.849
72186W        W33497  10.264  25.618  12.050
72187W        W33498  22.584  37.460  11.967
72188W        W33499  29.970  41.824   4.316
72189W        W33500  11.790  13.781  11.871
72190W        W33501   8.882   7.374  12.419
72191W        W33502  37.553   6.207   2.873
72192W        W33503  31.076  13.828   4.159
72193W        W33504  23.039   9.228   3.289
72194W        W33505  21.084  25.086   0.924
72195W        W33506   9.280  28.611  14.347
72196W        W33507  10.782   9.751  11.512
72197W        W33508   4.303   3.897   2.371
72198W        W33509   4.432   8.729   0.884
72199W        W33510  26.101  38.941   1.285
72200W        W33511   0.801  32.574   3.152
72201W        W33512  22.031  44.758  14.017
72202W        W33513   9.732  30.101   4.822
72203W        W33514   3.837  19.163   4.734
72204W        W33515   3.311  36.589  11.934
72205W        W33516   9.678   1.481   4.217
72206W        W33517  28.512   6.832  11.418
72207W        W33518   8.180  41.931  14.844
72208W        W33519  36.466  43.404  14.949
72209W        W33520  24.531   5.814  11.481
72210W        W33521  15.744  44.394  13.412
72211W        W33522  22.603   9.761  14.781
72212W        W33523  17.666  16.297   0.288
72213W        W33524  12.830  41.479  10.992
72214W        W33525  24.134   8.718   5.241
72215W        W33526   6.210   3.285  12.909
72216W        W33527  19.691  17.683  12.491
72217W        W33528  42.460  29.590  13.010
72218W        W33529   4.317  10.185  12.051
72219W        W33530  33.565  17.691  10.921
72220W        W33531   2.900  32.935   0.256
72221W        W33532  18.584  13.630   5.608
72222W        W33533  43.320   4.419   0.823
72223W        W33534  29.990  10.806  12.070
72224W        W33535  20.124   2.245   0.735
72225W        W33536  21.040  21.545  13.980
72226W        W33537  11.351   8.386  12.905
72227W        W33538  12.729  27.995  13.310
72228W        W33539  17.557   6.347   5.296
72229W        W33540   6.710  17.652   2.354
72230W        W33541  22.527  14.789  12.075
72231W        W33542  40.007   2.845   3.801
72232W        W33543  26.153   4.241   1.733
72233W        W33544  17.657  34.370  10.426
72234W        W33545  29.025  34.411   3.727
72235W        W33546  31.516  41.809   4.248
72236W        W33547  25.575   4.911  11.372
72237W        W33548  36.989   6.232   0.735
72238W        W33549  39.893   8.276   4.331
72239W        W33550  24.636  14.183   4.705
72240W        W33551  33.034  25.472  11.533
72241W        W33552  37.427  28.632   0.806
72242W        W33553   0.850  12.805   2.190
72243W        W33554  35.512   2.778  13.321
72244W        W33555  22.040  25.612  11.924
72245W        W33556   4.426   4.442  14.791
72246W        W33557   8.176   6.282   0.967
72247W        W33558  36.079   6.359   3.148
72248W        W33559  35.542  13.145  10.422
72249W        W33560  14.168   5.402   2.292
72250W        W33561  35.424  25.532  12.535
72251W        W33562  22.562  38.033  10.584
72252W        W33563  16.584  27.452  12.530
72253W        W33564  24.147  17.293   0.857
72254W        W33565  37.084  24.175  11.059
72255W        W33566   7.710  40.934  11.432
72256W        W33567  40.962  17.698   2.216
72257W        W33568  22.057   1.368  13.419
72258W        W33569  35.591  39.044   0.884
72259W        W33570  22.008  13.790   0.827
72260W        W33571   2.950   3.907  13.921
72261W        W33572   0.950  23.196  11.482
72262W        W33573  17.280   8.167   4.689
72263W        W33574  19.764  17.644  11.542
72264W        W33575  24.136  44.340  13.536
72265W        W33576  28.149   2.924   3.382
72266W        W33577  17.181  18.691  11.918
72267W        W33578  13.244   0.870   4.288
72268W        W33579  11.776  23.129  13.050
72269W        W33580  20.615  42.365   2.666
72270W        W33581  18.685   5.697  11.886
72271W        W33582  35.852  11.698   0.759
72272W        W33583  44.965   2.866  14.368
72273W        W33584  27.644  24.694   3.646
72274W        W33585  20.714  27.498  10.497
72275W        W33586  24.718  24.707   0.955
72276W        W33587   1.946  22.013   4.252
72277W        W33588  17.304  10.257  12.017
72278W        W33589  43.948  14.785  12.969
72279W        W33590  23.113  38.503   5.147
72280W        W33591  29.174   6.854   1.885
72281W        W33592  13.838   2.422  11.940
72282W        W33593  19.151   8.821  12.043
72283W        W33594  26.549  14.241  10.962
72284W        W33595   5.430  32.042  13.902
72285W        W33596  13.638  37.981  14.834
72286W        W33597  16.796  16.243  14.423
72287W        W33598   4.300   3.333   2.843
72288W        W33599  16.314  41.383   4.789
72289W        W33600  23.215  30.429  11.986
72290W        W33601  23.113  26.694  13.379
72291W        W33602  37.930   8.842   3.824
72292W        W33603   0.376  30.014  12.044
72293W        W33604   8.315  42.882   1.802
72294W        W33605  28.437   6.306   4.201
72295W        W33606  14.710  33.430   2.682
72296W        W33607  41.491   7.393   0.406
72297W        W33608   4.902  30.580   2.852
72298W        W33609  18.125  33.907   1.796
72299W        W33610   0.479  28.120   0.286
72300W        W33611  29.049   8.857  13.984
72301W        W33612  34.498   6.812  10.517
72302W        W33613  19.570  44.414   3.233
72303W        W33614  13.286  22.184  11.116
72304W        W33615  38.342  15.281  13.867
72305W        W33616   3.401  43.488  14.334
72306W        W33617  25.482  16.160  10.470
72307W        W33618  21.706  13.605  13.993
72308W        W33619  13.263  28.637  13.028
72309W        W33620  43.468  12.119   1.776
72310W        W33621  42.337  16.810  11.373
72311W        W33622  42.784  21.516   1.445
72312W        W33623   8.861  25.985   1.292
72313W        W33624  27.642   9.164  11.045
72314W        W33625  31.043  20.658  13.935
72315W        W33626  31.529   9.386   2.860
72316W        W33627   0.929   0.980   5.177
72317W        W33628  21.728   1.478   1.811
72318W        W33629  34.079  34.485   0.857
72319W        W33630  11.205  33.044   1.890
72320W        W33631   4.737  29.938   2.678
72321W        W33632  35.450   7.267  14.879
72322W        W33633  22.698  18.167   3.340
72323W        W33634  18.547  26.074   3.869
72324W        W33635  18.152  27.466   4.759
72325W        W33636  13.111  12.169   1.361
72326W        W33637  14.284  23.132   0.910
72327W        W33638   6.304  32.565   4.116
72328W        W33639  14.827  14.776   2.782
72329W        W33640  38.833  28.169   3.862
72330W        W33641  26.045  39.504   4.316
72331W        W33642  10.844  33.020  10.559
72332W        W33643  30.475  25.067  13.846
72333W        W33644   7.776  37.956   0.309
72334W        W33645  24.138  30.088   3.203
72335W        W33646  38.825  36.463  11.434
72336W        W33647   3.433   1.479   1.825
72337W        W33648   4.257  28.009  12.988
72338W        W33649  39.031  27.983  10.914
72339W        W33650   7.818   5.415   0.863
72340W        W33651   9.649  36.429  12.399
72341W        W33652  13.675  20.728  12.365
72342W        W33653   7.822   1.919  11.538
72343W        W33654  41.912  19.194  14.850
72344W        W33655   0.469  17.070  12.491
72345W        W33656  10.797  40.393   2.825
72346W        W33657  23.056  40.800  14.996
72347W        W33658  40.984  40.837   3.344
72348W        W33659  23.210  44.884  14.802
72349W        W33660  35.367  23.660  14.892
72350W        W33661   4.243  38.538  14.313
72351W        W33662  24.998  37.081  11.924
72352W        W33663  37.062  17.621  12.005
72353W        W33664  27.517   7.383  11.469
72354W        W33665  29.024   2.734   2.855
72355W        W33666   4.341  44.285  14.432
72356W        W33667   1.766  25.631  11.981
72357W        W33668   0.411  18.186  11.929
72358W        W33669  10.253  37.472  13.987
72359W        W33670   9.253  32.496   2.213
72360W        W33671  25.586  20.644  13.488
72361W        W33672  43.409  44.358  13.390
72362W        W33673   8.369  19.155  11.489
72363W        W33674   6.184  30.002   2.387
72364W        W33675  19.685  26.062  14.010
72365W        W33676  22.606  33.562   5.214
72366W        W33677  40.036  35.447   4.689
72367W        W33678  38.929  37.434   0.729
72368W        W33679  20.122  32.089   1.849
72369W        W33680  34.893   3.797  14.384
72370W        W33681  33.454   9.758  10.905
72371W        W33682  10.717  36.998   2.709
72372W        W33683  37.532  14.150   2.673
72373W        W33684  18.587  38.846   1.400
72374W        W33685  39.058   6.391  12.859
72375W        W33686  18.128   6.392   2.691
72376W        W33687  44.360  17.299  13.454
72377W        W33688  37.935  36.372   3.632
72378W        W33689   3.233  32.418   4.723
72379W        W33690  11.179  37.482   3.797
72380W        W33691  27.062   4.731  13.862
72381W        W33692   4.401  18.069   0.245
72382W        W33693  35.496  26.058   2.730
72383W        W33694  36.363   2.855  14.405
72384W        W33695  15.647   2.238   2.716
72385W        W33696  21.549   4.902   3.681
72386W        W33697   8.391   5.882  11.024
72387W        W33698  42.487  19.730  11.858
72388W        W33699  23.606   2.302   2.707
72389W        W33700  37.498  33.994   1.765
72390W        W33701  42.784  15.127  13.530
72391W        W33702   7.380   5.772   2.207
72392W        W33703   5.295  11.186  11.464
72393W        W33704  43.918  39.818  14.911
72394W        W33705  44.952  22.744  14.515
72395W        W33706  32.944  21.160   0.373
72396W        W33707  33.526  39.879   3.851
72397W        W33708  31.537  15.654   2.295
72398W        W33709  18.738  14.736  12.907
72399W        W33710   9.152   1.837   2.802
72400W        W33711  33.490  24.660  11.592
72401W        W33712  37.355  44.311   3.730
72402W        W33713  24.605  41.479  10.918
72403W        W33714  17.145  21.610   0.964
72404W        W33715  21.156  19.558  10.608
72405W        W33716  28.970  18.717   4.793
72406W        W33717  41.452  33.383  13.951
72407W        W33718  19.212   2.386  13.809
72408W        W33719  18.586  16.579   1.307
72409W        W33720  13.136  10.711   1.384
72410W        W33721  22.242  24.151   2.414
72411W        W33722  21.720   3.877  12.509
72412W        W33723  41.005  30.048  11.514
72413W        W33724   5.224   5.766  13.488
72414W        W33725  20.069  25.560   1.935
72415W        W33726  28.043  27.160   4.179
72416W        W33727  31.613   3.323   2.867
72417W        W33728  33.011  41.462   0.318
72418W        W33729  34.990  11.736  11.602
72419W        W33730  36.438  33.924   3.706
72420W        W33731  35.375   3.414  11.435
72421W        W33732  14.248  21.732  12.905
72422W        W33733  36.038  28.667   0.298
72423W        W33734  19.603   1.972   4.759
72424W        W33735  16.762   7.821  13.043
72425W        W33736  17.615  32.572   4.745
72426W        W33737   6.328   0.375  12.349
72427W        W33738  13.623  33.125  11.904
72428W        W33739  18.158  33.447   1.237
72429W        W33740  34.004  12.144  14.881
72430W        W33741  23.004   3.281   1.425
72431W        W33742  33.406  17.166  13.813
72432W        W33743  14.109  19.696   3.730
72433W        W33744   0.377  17.674   1.406
72434W        W33745  34.552  27.973   2.237
72435W        W33746  23.508  40.822   3.153
72436W        W33747  22.094  34.430  12.978
72437W        W33748  19.728   2.922   0.446
72438W        W33749   9.802  17.075  12.840
72439W        W33750  29.941  10.870  13.326
72440W        W33751   7.378  15.798   2.887
72441W        W33752  21.668   1.389  11.398
72442W        W33753  43.999   8.186  14.316
72443W        W33754  13.277   4.382  12.836
72444W        W33755  38.911  20.265  14.322
72445W        W33756  11.782   4.242   2.702
72446W        W33757  32.012  43.019   2.880
72447W        W33758   6.408   3.720   4.123
72448W        W33759  40.952  41.292   0.406
72449W        W33760   3.776  19.571   2.802
72450W        W33761  29.523  21.518  14.977
72451W        W33762  40.331  15.628   3.770
72452W        W33763  15.297  10.764   4.787
72453W        W33764  42.310  29.142  12.933
72454W        W33765  41.965   6.706  13.858
72455W        W33766  21.696   2.373   0.764
72456W        W33767  19.095  17.771   1.269
72457W        W33768  34.871  35.863  12.826
72458W        W33769  33.889  36.576  14.340
72459W        W33770  16.105  40.486   4.129
72460W        W33771  34.895   6.908   2.870
72461W        W33772  40.423   6.759  14.013
72462W        W33773   7.858   3.374  11.439
72463W        W33774   5.237   8.690  14.343
72464W        W33775  43.335   2.438  12.949
72465W        W33776  41.925  13.665  10.966
72466W        W33777   4.713   7.296  11.003
72467W        W33778   7.845  37.921   4.804
72468W        W33779   8.834   1.899   0.481
72469W        W33780  40.331  10.257  13.807
72470W        W33781  13.220   8.329  13.868
72471W        W33782   1.754  39.812  11.988
72472W        W33783  21.100  36.490   0.428
72473W        W33784  34.450  40.803  12.527
72474W        W33785   8.832  18.552   1.882
72475W        W33786   4.385  27.668   3.378
72476W        W33787  38.348  38.435   3.212
72477W        W33788  29.660  21.086   2.182
72478W        W33789  39.557   5.410  11.049
72479W        W33790  37.416  33.019   2.207
72480W        W33791  10.663  17.087  14.318
72481W        W33792  28.126  29.058   4.679
72482W        W33793   2.732   0.314  13.466
72483W        W33794  36.482   5.321   1.376
72484W        W33795  24.642  35.520  10.615
72485W        W33796   6.740  20.705   0.731
72486W        W33797  40.974  16.725   0.347
72487W        W33798   1.432   5.876   4.788
72488W        W33799  24.622  27.448   0.736
72489W        W33800  36.393  42.459  14.323
72490W        W33801  34.899  13.733   3.333
72491W        W33802  23.234   8.297   3.634
72492W        W33803   8.213   9.765  10.444
72493W        W33804  11.128  18.757   4.271
72494W        W33805  23.167  44.334   3.633
72495W        W33806  14.713  33.108   2.283
72496W        W33807  41.292   9.837  13.404
72497W        W33808  40.860   1.356   2.320
72498W        W33809  31.056  24.007   1.384
72499W        W33810  19.191   8.327   1.891
72500W        W33811  34.401  42.976   3.737
72501W        W33812  37.564  39.314   4.118
72502W        W33813  10.648  44.905   3.184
72503W        W33814  17.065  13.315   3.827
72504W        W33815  15.261  18.786  12.091
72505W        W33816  10.673  32.569  12.408
72506W        W33817  11.714   3.856  10.574
72507W        W33818  27.983   5.253   2.243
72508W        W33819   3.870  33.039   0.838
72509W        W33820   1.879   7.258   3.262
72510W        W33821  21.624   1.892   5.130
72511W        W33822  30.427   9.295  13.017
72512W        W33823  42.448   8.659  10.937
72513W        W33824  31.106  42.404  13.368
72514W        W33825  31.474  26.990   2.206
72515W        W33826  25.963  44.792   3.215
72516W        W33827  20.680  36.371  13.507
72517W        W33828   2.411  27.553   0.934
72518W        W33829   8.849  21.717   3.176
72519W        W33830  23.706  43.902   4.208
72520W        W33831   9.715  34.388  11.930
72521W        W33832   6.874  37.830  12.075
72522W        W33833  39.813  30.627  11.398
72523W        W33834   3.441  16.774   4.113
72524W        W33835  20.590  32.940   2.692
72525W        W33836  16.589  19.617  13.458
72526W        W33837  21.618  19.170   3.858
72527W        W33838  15.670   5.707   2.307
72528W        W33839  28.147  10.795   2.279
72529W        W33840  34.063   9.781  13.399
72530W        W33841   6.247   1.281   0.403
72531W        W33842  44.317  26.460  11.924
72532W        W33843  38.327   1.466   1.218
72533W        W33844  14.218  20.582   2.384
72534W        W33845  41.430  17.178  13.922
72535W        W33846   2.813  14.829   0.407
72536W        W33847   3.951  25.537  13.954
72537W        W33848  14.809  16.577   2.795
72538W        W33849   8.374  21.638   4.265
72539W        W33850  37.889  30.034   3.718
72540W        W33851  19.159   6.812  13.460
72541W        W33852   3.299  33.115  14.941
72542W        W33853   1.770  10.674  10.939
72543W        W33854  19.130  23.088  11.958
72544W        W33855   5.857  35.942  11.091
72545W        W33856  17.679  29.948  14.448
72546W        W33857  30.026   3.709   2.752
72547W        W33858  39.903   2.881  10.424
72548W        W33859  10.636  27.985   1.258
72549W        W33860  22.730  40.001   1.808
72550W        W33861  11.694  35.064   1.328
72551W        W33862  31.473   9.790   3.266
72552W        W33863   5.812  10.777   4.206
72553W        W33864  33.476  43.509   2.348
72554W        W33865   7.279  24.133   3.170
72555W        W33866  29.147  28.494  14.389
72556W        W33867  30.564  33.436   1.223
72557W        W33868  26.201   4.336  14.343
72558W        W33869  35.030  15.685  11.021
72559W        W33870  10.825  42.931   4.249
72560W        W33871  42.803  39.815  13.319
72561W        W33872  41.970  13.160  11.412
72562W        W33873  13.257  15.672   4.224
72563W        W33874  14.589  28.041   5.233
72564W        W33875   7.251  31.113   4.806
72565W        W33876  16.087  42.288  12.511
72566W        W33877  10.230  22.178   2.739
72567W        W33878  15.724  10.281   4.770
72568W        W33879  32.607  13.613  10.555
72569W        W33880  31.447  23.566  10.443
72570W        W33881  12.268   6.372  11.556
72571W        W33882   7.877  44.928  13.523
72572W        W33883  32.412  30.607  12.519
72573W        W33884  26.155  43.457  14.279
72574W        W33885  44.448  26.503   3.730
72575W        W33886  25.028  21.090   3.783
72576W        W33887  16.093  33.569  10.934
72577W        W33888  21.172  30.605  11.509
72578W        W33889  25.161  44.404  13.810
72579W        W33890   5.371   6.259   4.204
72580W        W33891   0.392  21.098  12.388
72581W        W33892  42.465  32.486  11.872
72582W        W33893  33.445  35.572  10.084
72583W        W33894   4.317   2.815   3.171
72584W        W33895   0.415  15.084  14.904
72585W        W33896  30.654  16.767   0.928
72586W        W33897  26.024  28.954   4.625
72587W        W33898  35.073  17.659   4.608
72588W        W33899  15.288  25.514   0.370
72589W        W33900   4.838  34.919  10.508
72590W        W33901  28.609  10.361   2.811
72591W        W33902   8.322  34.997   4.301
72592W        W33903  23.173  41.885   3.386
72593W        W33904  27.983   3.941   9.931
72594W        W33905  28.964  28.550  12.392
72595W        W33906  42.521  42.028  14.023
72596W        W33907  41.943  17.586  13.907
72597W        W33908  15.592  25.053  13.031
72598W        W33909  39.467  12.652  12.492
72599W        W33910  18.594  30.506   1.225
72600W        W33911   4.253  18.186   1.360
72601W        W33912   9.828  41.964  12.926
72602W        W33913   9.737  10.740  14.376
72603W        W33914   5.729  20.266   2.669
72604W        W33915   7.735   9.781   1.393
72605W        W33916  24.137   6.905   2.277
72606W        W33917  27.956  35.374   0.747
72607W        W33918  12.857  37.856   4.271
72608W        W33919   0.964  43.495   4.598
72609W        W33920  23.075   6.344  12.540
72610W        W33921  18.777   3.870   3.800
72611W        W33922  14.112   7.293  13.883
72612W        W33923   4.898  39.880  12.865
72613W        W33924  17.731  43.461  14.328
72614W        W33925  14.601  12.849   3.303
72615W        W33926  28.490  37.485   0.924
72616W        W33927   4.705  30.598  12.990
72617W        W33928  31.460   8.349   9.998
72618W        W33929  27.464   3.363   3.746
72619W        W33930   3.924  36.519   4.124
72620W        W33931  23.507   2.755  12.863
72621W        W33932   9.765  29.073  12.972
72622W        W33933  42.457   1.459   2.798
72623W        W33934  18.722  30.614  13.056
72624W        W33935  40.488  19.679  11.552
72625W        W33936   0.816   3.843  14.947
72626W        W33937  35.952  36.005  11.493
72627W        W33938   5.373  21.201   3.155
72628W        W33939  28.583   4.779   5.748
72629W        W33940   1.413  37.847   4.825
72630W        W33941  21.627  36.455   3.640
72631W        W33942  41.964  30.075  12.433
72632W        W33943  11.149   5.396  11.611
72633W        W33944   5.241  31.452  12.370
72634W        W33945  42.329  28.177  12.825
72635W        W33946  42.322  39.368  14.423
72636W        W33947   7.325  31.454   3.284
72637W        W33948   4.329  23.639   4.688
72638W        W33949  22.154   9.751  10.975
72639W        W33950  41.461  12.165  11.568
72640W        W33951  16.262   0.936   0.442
72641W        W33952  35.416   9.728   2.323
72642W        W33953   0.273  35.954   2.766
72643W        W33954  37.850  20.209  13.845
72644W        W33955   0.450  42.393   3.642
72645W        W33956  36.486  28.187  10.996
72646W        W33957  41.917  17.711  13.494
72647W        W33958  14.636  15.799   1.849
72648W        W33959  21.114   0.408   4.608
72649W        W33960  28.631   2.962  14.335
72650W        W33961  24.592  21.146  10.961
72651W        W33962   1.892  15.311  11.553
72652W        W33963  44.374  17.115  14.883
72653W        W33964  26.658  30.446   9.478
72654W        W33965   1.437  15.731   4.338
72655W        W33966  36.553  32.602   4.601
72656W        W33967  40.346  42.784  10.046
72657W        W33968   0.838  25.135  10.520
72658W        W33969   9.887   6.389   4.223
72659W        W33970  39.879   3.318  13.967
72660W        W33971   1.319  14.284  12.425
72661W        W33972  42.010  24.227  10.431
72662W        W33973  40.981  32.042   2.316
72663W        W33974   6.427  39.818  11.930
72664W        W33975  38.333  28.503  13.524
72665W        W33976  29.975  21.545  11.551
72666W        W33977  19.563  30.539  10.133
72667W        W33978  10.252  36.547   1.440
72668W        W33979  41.987   5.909   2.879
72669W        W33980  21.748  27.688  11.984
72670W        W33981  19.632  40.432  12.494
72671W        W33982  17.091  30.078   0.387
72672W        W33983  16.586  42.357   0.452
72673W        W33984  43.968  23.135  10.928
72674W        W33985  36.554  18.669  14.927
72675W        W33986  35.924  38.040  10.424
72676W        W33987   9.353   0.948  13.973
72677W        W33988  27.504  32.016  10.574
72678W        W33989   8.281  20.657  10.513
72679W        W33990   1.362  12.755  14.936
72680W        W33991  25.658   1.470   4.325
72681W        W33992  38.846  23.124   3.745
72682W        W33993   2.424  33.016  11.993
72683W        W33994  22.614   3.334   2.367
72684W        W33995  37.436  33.024   1.809
72685W        W33996  39.406   3.413   5.191
72686W        W33997   4.356  14.717  10.150
72687W        W33998   9.196  24.506   0.392
72688W        W33999  39.820  32.050  11.582
72689W        W34000  23.584  33.946  11.028
72690W        W34001  34.594  43.349   3.813
72691W        W34002   5.389   1.432   1.840
72692W        W34003   7.840  14.096  14.827
72693W        W34004  39.918  38.361   4.653
72694W        W34005   3.367   9.778   1.752
72695W        W34006   1.469  23.185   2.737
72696W        W34007  14.113  41.876  10.969
72697W        W34008   2.300   0.478   5.134
72698W        W34009   3.780  21.553   4.718
72699W        W34010  20.143   0.972   3.697
72700W        W34011  11.819  26.176   2.289
72701W        W34012  23.731  22.237  12.442
72702W        W34013   6.264  15.748   4.769
72703W        W34014  36.031  15.814  13.799
72704W        W34015   3.392   1.259   3.781
72705W        W34016  33.565  30.433  13.997
72706W        W34017   0.923   7.321  13.394
72707W        W34018  28.122  10.239  10.517
72708W        W34019  36.881   5.773  13.533
72709W        W34020  24.547   9.349   1.915
72710W        W34021   9.735  12.165  13.989
72711W        W34022  19.089  31.630  13.493
72712W        W34023   1.315   5.905  11.052
72713W        W34024  22.636   6.747   2.693
72714W        W34025  25.012  28.519  10.411
72715W        W34026   0.949  42.814  12.932
72716W        W34027  25.700   2.739  13.892
72717W        W34028  22.613   2.823  14.882
72718W        W34029  36.898  12.359  13.852
72719W        W34030   9.708  28.162  11.566
72720W        W34031  30.613  17.285   0.892
72721W        W34032  41.001  22.030  14.361
72722W        W34033  39.454  37.063   1.257
72723W        W34034  28.956  40.822  12.987
72724W        W34035   0.339   4.293  14.500
72725W        W34036  13.818  43.276   4.762
72726W        W34037   3.909  18.149  11.907
72727W        W34038   0.313  26.688  14.920
72728W        W34039  20.151  24.710  14.845
72729W        W34040   2.938  44.483   3.670
72730W        W34041  22.615  16.263  10.966
72731W        W34042  43.961  16.677   1.264
72732W        W34043   4.734  34.459   0.324
72733W        W34044  35.097  40.486   1.439
72734W        W34045  42.007  31.081  12.066
72735W        W34046   3.391  31.095  10.944
72736W        W34047   8.228  25.089  10.470
72737W        W34048  32.593   2.828  14.454
72738W        W34049   2.428  37.970  11.567
72739W        W34050  35.910   1.457   3.178
72740W        W34051  39.024  24.552   5.161
72741W        W34052   3.911  23.621   3.330
72742W        W34053  23.501  33.929   0.301
72743W        W34054  23.066  13.294   1.237
72744W        W34055   4.786   6.853  13.384
72745W        W34056  15.717  17.074   3.632
72746W        W34057  31.460  15.134  14.332
72747W        W34058  40.435  40.948   5.171
72748W        W34059  12.820  25.113   1.443
72749W        W34060   6.868   2.332  10.483
72750W        W34061  34.019  26.005   3.160
72751W        W34062  18.163  24.106  14.372
72752W        W34063  13.687  23.676  14.841
72753W        W34064  25.068  32.082   1.329
72754W        W34065  13.217  44.978   4.722
72755W        W34066  29.637   9.316  14.996
72756W        W34067  21.699  27.183  14.314
72757W        W34068  37.548   3.817  12.536
72758W        W34069   3.888  38.944   4.352
72759W        W34070   1.459   1.347  14.956
72760W        W34071  35.990  43.386  12.898
72761W        W34072  20.040  26.057  14.291
72762W        W34073  43.889  24.094  11.412
72763W        W34074  14.613  32.079   3.301
72764W        W34075   6.416  40.480   0.282
72765W        W34076  37.429  38.933   3.271
72766W        W34077   2.467  11.166   3.785
72767W        W34078   6.900   0.761   3.378
72768W        W34079   3.258  32.588   4.303
72769W        W34080  32.938  15.808  14.783
72770W        W34081  10.702   1.350   4.137
72771W        W34082  28.487  13.623  11.006
72772W        W34083  12.726  32.943   2.902
72773W        W34084  23.013   6.686  10.534
72774W        W34085  30.459   1.326   1.390
72775W        W34086  37.916   0.274   1.322
72776W        W34087   5.200  39.345  10.969
72777W        W34088   3.873  25.126  14.817
72778W        W34089  42.391  22.570   4.680
72779W        W34090   6.723  36.529  10.899
72780W        W34091  30.922  40.823  10.948
72781W        W34092  27.573  18.148  13.956
72782W        W34093   1.458  29.656   2.687
72783W        W34094  43.012  26.566   1.738
72784W        W34095  12.717   3.346   5.087
72785W        W34096  28.451   0.377   2.380
72786W        W34097  29.585  44.951  13.943
72787W        W34098   7.339  37.966   2.843
72788W        W34099  25.111  13.323   0.736
72789W        W34100  15.090  30.433   1.425
72790W        W34101  15.320   0.283   2.786
72791W        W34102  20.588  31.439   1.707
72792W        W34103  40.511   3.713  11.876
72793W        W34104  31.499  27.003  11.899
72794W        W34105   7.281  26.627  13.824
72795W        W34106  12.209  18.652  11.457
72796W        W34107  18.157   3.770   5.741
72797W        W34108   2.800   9.388   0.951
72798W        W34109  11.700   4.269  14.918
72799W        W34110   6.322   7.262  12.565
72800W        W34111  17.115  16.596   1.775
72801W        W34112  34.382  29.173  14.032
72802W        W34113  41.028  19.123   4.256
72803W        W34114  28.557  24.060  14.329
72804W        W34115  31.504  39.442   4.649
72805W        W34116   9.162  38.462  11.447
72806W        W34117   1.314  21.519   0.430
72807W        W34118  28.977  13.113  14.303
72808W        W34119  15.808  23.222   0.896
72809W        W34120  13.317   1.853   3.762
72810W        W34121  25.540   7.344   3.314
72811W        W34122  34.876   1.244   3.359
72812W        W34123  26.165  40.508  13.040
72813W        W34124  24.595  16.201   1.217
72814W        W34125  30.572  31.441   3.254
72815W        W34126   3.275  19.722   1.924
72816W        W34127  17.196  21.570   3.270
72817W        W34128  33.599   8.729   9.920
72818W        W34129  13.160  40.308  13.485
72819W        W34130  18.262  24.505  14.985
72820W        W34131  41.387  15.643  12.979
72821W        W34132  16.791  32.565   4.302
72822W        W34133  20.120  31.987  10.062
72823W        W34134  24.179   1.761  10.997
72824W        W34135  23.234   1.340  13.375
72825W        W34136  21.124  38.569   2.817
72826W        W34137  23.164  37.509  13.468
72827W        W34138  19.120  20.177   3.652
72828W        W34139  15.215  32.027   0.414
72829W        W34140   2.421  29.966   1.924
72830W        W34141  14.311  31.485   3.816
72831W        W34142  42.328  42.923  11.876
72832W        W34143   3.883   8.204  13.380
72833W        W34144  28.952  35.506   0.483
72834W        W34145  36.353  36.000  14.011
72835W        W34146  37.449  36.549   4.325
72836W        W34147  33.572   1.895   9.997
72837W        W34148  12.223  25.213   0.360
72838W        W34149  15.314  38.916  13.961
72839W        W34150  43.377  28.966   0.271
72840W        W34151  21.195  27.560  13.022
72841W        W34152  12.232  26.531   2.294
72842W        W34153  41.995  17.720  14.439
72843W        W34154   2.867  18.269  12.981
72844W        W34155  31.988  18.263   1.370
72845W        W34156  16.711  39.327  12.070
72846W        W34157  36.901  25.144  12.505
72847W        W34158  34.446  44.906  13.834
72848W        W34159  18.767  44.492   9.929
72849W        W34160  44.004  17.590  11.564
72850W        W34161  42.990  30.461   1.266
72851W        W34162  14.747  18.242  12.971
72852W        W34163  11.340  38.451   1.759
72853W        W34164  13.206  38.342  14.472
72854W        W34165  37.008  21.642   2.302
72855W        W34166  39.516  32.525  12.522
72856W        W34167  35.005   6.706   3.159
72857W        W34168  40.358   4.877  14.006
72858W        W34169   7.376  16.303  14.340
72859W        W34170  13.169  15.619  11.052
72860W        W34171   7.375  16.587   3.255
72861W        W34172   1.343  32.624   0.893
72862W        W34173   7.802  10.779  13.018
72863W        W34174  12.212  28.051  10.443
72864W        W34175  30.044   0.461   3.202
72865W        W34176  42.784  11.710   2.668
72866W        W34177   8.222  32.523   1.798
72867W        W34178   1.748  44.348   2.276
72868W        W34179  44.472  44.881  11.535
72869W        W34180  25.108  44.826  14.413
72870W        W34181  43.776  33.426   4.792
72871W        W34182  13.171   0.896  13.957
72872W        W34183   6.308  19.151   3.265
72873W        W34184  27.966  16.799   1.887
72874W        W34185  24.073  44.356   0.743
72875W        W34186   7.686  12.289  12.369
72876W        W34187   5.384  23.524  14.841
72877W        W34188  41.464   9.675   1.234
72878W        W34189  18.641  19.584  14.446
72879W        W34190  14.667   7.711  11.895
72880W        W34191   2.902  15.665   2.662
72881W        W34192  27.183  37.893   2.717
72882W        W34193  31.600  41.517  13.925
72883W        W34194  26.968  30.074  12.463
72884W        W34195  27.605  30.590   1.245
72885W        W34196  30.970   1.750   5.201
72886W        W34197   7.318  43.776   1.425
72887W        W34198  37.951  39.405   0.930
72888W        W34199  36.941  31.910  11.967
72889W        W34200  33.427  34.368   2.297
72890W        W34201  34.878  18.647   2.199
72891W        W34202  29.452  26.683  11.398
72892W        W34203  23.648  44.339   0.871
72893W        W34204  40.014  16.250   3.286
72894W        W34205  38.958  13.605   1.718
72895W        W34206  12.348  12.349   3.169
72896W        W34207   3.912   2.375  10.935
72897W        W34208  43.488  11.142   1.322
72898W        W34209  11.183  12.839   4.137
72899W        W34210  15.664  35.490   2.746
72900W        W34211  37.041   8.318   2.298
72901W        W34212  38.943  40.526   2.321
72902W        W34213  37.039  17.775   3.168
72903W        W34214  36.052  41.327  13.852
72904W        W34215   3.806  26.591  11.425
72905W        W34216  17.130  33.440   4.759
72906W        W34217  16.590  43.454   1.309
72907W        W34218  12.198  33.938   4.722
72908W        W34219  31.030  36.592   1.411
72909W        W34220   9.278  27.453   1.438
72910W        W34221   3.363  22.513   2.705
72911W        W34222  21.041  31.410  11.035
72912W        W34223  10.207  44.460  10.571
72913W        W34224  26.663  14.646   2.810
72914W        W34225   4.208  42.382   0.964
72915W        W34226   0.344  40.325   1.849
72916W        W34227  32.557  29.154   5.200
72917W        W34228  33.947   4.731  13.319
72918W        W34229   9.236  16.732   3.798
72919W        W34230  29.489  18.263  14.444
72920W        W34231   7.301  19.180  13.447
72921W        W34232   6.375  20.182   0.327
72922W        W34233  11.205  13.688   1.883
72923W        W34234  41.315  38.863  13.423
72924W        W34235  19.042  39.356   9.931
72925W        W34236  35.519  17.790   2.351
72926W        W34237  30.105  31.508   4.298
72927W        W34238  16.162  28.948   4.244
72928W        W34239  29.536  14.129  12.881
72929W        W34240  12.299   3.737   1.698
72930W        W34241  27.449   0.438  12.879
72931W        W34242  20.087  13.144   1.913
72932W        W34243   4.923  27.565   3.847
72933W        W34244  38.554  32.472  10.484
72934W        W34245  20.650  30.039   2.248
72935W        W34246  31.950  43.940  12.467
72936W        W34247  22.211  21.022  12.417
72937W        W34248   1.943  39.347  14.443
72938W        W34249  32.889  35.916  12.898
72939W        W34250   1.760  44.785   0.904
72940W        W34251   8.188   3.741   3.325
72941W        W34252   4.439  11.812   3.181
72942W        W34253  38.412  22.534  12.480
72943W        W34254   2.400  33.566  13.968
72944W        W34255   5.264   7.793   2.898
72945W        W34256  29.503   2.462   2.848
72946W        W34257  26.689   9.284   1.392
72947W        W34258  36.471  32.139  13.351
72948W        W34259  11.219   4.218   2.723
72949W        W34260  23.548  31.937   1.747
72950W        W34261  33.097   9.782   1.321
72951W        W34262  22.200  41.851   3.235
72952W        W34263  21.188   2.721  12.070
72953W        W34264  28.558  38.540  14.795
72954W        W34265  40.055   4.731  13.905
72955W        W34266  24.109   8.850  13.505
72956W        W34267  12.357  38.436  10.959
72957W        W34268  44.999   0.947  12.061
72958W        W34269  35.506  34.595   3.305
72959W        W34270  16.217  10.318  14.887
72960W        W34271  11.761  24.148  13.953
72961W        W34272  35.936  11.176   4.295
72962W        W34273   7.234  10.375   9.967
72963W        W34274   0.923  13.213   0.358
72964W        W34275  34.573  38.933   5.309
72965W        W34276   7.689  42.007   2.709
72966W        W34277  29.636  35.532  11.124
72967W        W34278  12.643  38.844   4.762
72968W        W34279  29.147  27.689  14.850
72969W        W34280  32.018   7.239   4.679
72970W        W34281  22.197  32.136  12.559
72971W        W34282  30.546  34.423   1.758
72972W        W34283   2.357  30.517   0.794
72973W        W34284   1.939  34.444   2.414
72974W        W34285  30.645  24.692  11.543
72975W        W34286  23.704  29.109  13.538
72976W        W34287   8.239  34.452  10.460
72977W        W34288  42.360  28.168  14.963
72978W        W34289  36.975  30.022   2.410
72979W        W34290  28.669  40.888   2.800
72980W        W34291  31.032  40.381  14.936
72981W        W34292  34.099  23.205   1.912
72982W        W34293  31.924  37.381  11.966
72983W        W34294  12.266   9.818   3.198
72984W        W34295  39.331  24.976  14.990
72985W        W34296  28.155   0.355   2.188
72986W        W34297  20.683   0.455   2.410
72987W        W34298  28.045   2.428   1.406
72988W        W34299  23.597  10.293  14.888
72989W        W34300  27.957   0.343   5.099
72990W        W34301   3.218  41.446   0.820
72991W        W34302  28.039  19.550   3.667
72992W        W34303  30.047   0.292   4.754
72993W        W34304  11.133   7.896   1.890
72994W        W34305   0.967   8.371   4.232
72995W        W34306   2.396  13.612  10.907
72996W        W34307  23.567  35.928  14.503
72997W        W34308  26.056  33.118  13.953
72998W        W34309   8.207  37.958   4.723
72999W        W34310  10.197   3.259  13.385
73000W        W34311   2.455  15.283   0.786
73001W        W34312  21.179  27.972   0.442
73002W        W34313  11.821  13.783  12.956
73003W        W34314   2.285   3.778   2.212
73004W        W34315   9.347  16.640   1.285
73005W        W34316  10.322   8.301  10.928
73006W        W34317  14.746  41.379  12.564
73007W        W34318  39.889  11.778  10.642
73008W        W34319  24.213  40.048   9.486
73009W        W34320  20.244  34.582  13.500
73010W        W34321  35.045   6.222   2.813
73011W        W34322  12.282  24.087   9.941
73012W        W34323  14.607   7.863  12.956
73013W        W34324  15.270  12.125   5.127
73014W        W34325   6.334   5.274  13.947
73015W        W34326  24.213   1.382  13.396
73016W        W34327  27.970  22.010  10.959
73017W        W34328   7.835  19.577  14.336
73018W        W34329  39.350   6.774  11.859
73019W        W34330  30.641  39.857   4.235
73020W        W34331  11.756  11.251  10.638
73021W        W34332  33.497  33.579  14.419
73022W        W34333  36.927  20.028   0.793
73023W        W34334  22.589  21.711   2.294
73024W        W34335   5.891  30.640   0.933
73025W        W34336   7.694  34.431  11.076
73026W        W34337   2.457  32.095  10.422
73027W        W34338  30.968  21.572  14.870
73028W        W34339  23.680   2.863   2.336
73029W        W34340   6.411  17.154   3.730
73030W        W34341  13.306  17.792   3.762
73031W        W34342   7.192  19.578  11.915
73032W        W34343  13.237  22.051  13.442
73033W        W34344   2.363  24.609  13.008
73034W        W34345  10.777  38.855   3.297
73035W        W34346  24.581  33.406  14.407
73036W        W34347  35.032  12.840   3.193
73037W        W34348  17.647  15.804  14.395
73038W        W34349  23.109  17.261   1.889
73039W        W34350  15.307  19.637   1.774
73040W        W34351  34.922  27.458  12.364
73041W        W34352   2.957  24.581  11.084
73042W        W34353  39.394  15.142  14.397
73043W        W34354  10.161  28.497   1.429
73044W        W34355  11.185  25.205   4.700
73045W        W34356   4.422  20.171   2.322
73046W        W34357  32.923   4.395  10.477
73047W        W34358  26.673  11.627  14.345
73048W        W34359  40.406  30.431   3.815
73049W        W34360  35.447   7.412   0.354
73050W        W34361  26.489  37.026   1.917
73051W        W34362  39.390  18.163   1.698
73052W        W34363  31.137  36.915  12.432
73053W        W34364   0.384  24.077   4.246
73054W        W34365   2.866  31.623  11.118
73055W        W34366   4.822   4.431   0.784
73056W        W34367  34.376   1.779   2.754
73057W        W34368  17.569  12.253   2.254
73058W        W34369   4.700  41.859   5.250
73059W        W34370  30.531  39.338   1.333
73060W        W34371   9.687   0.482  14.943
73061W        W34372  23.499  39.842  13.310
73062W        W34373  12.173  25.611   5.256
73063W        W34374   7.754  41.339  10.110
73064W        W34375  16.255  36.032  12.464
73065W        W34376   5.767  39.341  12.345
73066W        W34377   5.716  34.559  12.455
73067W        W34378  28.613  24.037   4.686
73068W        W34379   7.821  21.190   3.755
73069W        W34380  41.866   6.725   4.292
73070W        W34381  23.529  37.883  14.905
73071W        W34382  17.153  17.669   3.152
73072W        W34383  12.822  12.140   2.395
73073W        W34384  28.936  26.475  12.957
73074W        W34385  33.982   8.355  11.574
73075W        W34386  31.474  15.197   1.399
73076W        W34387  41.425  23.001  12.534
73077W        W34388   7.310   8.390  13.903
73078W        W34389  37.836  42.837   4.290
73079W        W34390  24.644  33.883  13.464
73080W        W34391  16.628  11.258   1.935
73081W        W34392   3.809  43.382   0.315
73082W        W34393  44.002  35.902   0.726
73083W        W34394  34.403  11.842   3.678
73084W        W34395  26.059  23.001   2.261
73085W        W34396  30.040  28.114  14.976
73086W        W34397  12.149  19.133  13.468
73087W        W34398  20.634  23.714   3.803
73088W        W34399  37.538   9.674   2.336
73089W        W34400  21.246  34.111   1.883
73090W        W34401  31.509   3.249   2.325
73091W        W34402  22.551   8.808   1.236
73092W        W34403  24.064  40.342   2.826
73093W        W34404  21.723  32.524   2.711
73094W        W34405  29.952   0.317  12.547
73095W        W34406  18.117   9.233  10.561
73096W        W34407  14.107  10.733   2.794
73097W        W34408  10.346  36.583  12.935
73098W        W34409  35.445  18.705   0.859
73099W        W34410  28.121  37.929   3.272
73100W        W34411  37.964  41.536  14.808
73101W        W34412  28.584   3.807   1.849
73102W        W34413  40.409  20.723   4.166
73103W        W34414   1.343  44.000  14.481
73104W        W34415  26.969  23.601   2.316
73105W        W34416  36.950  39.494  14.993
73106W        W34417  13.606  15.292  14.414
73107W        W34418  25.586  18.267   1.414
73108W        W34419  44.355  35.437   0.892
73109W        W34420  38.331  26.185   0.922
73110W        W34421  23.218  23.668  14.009
73111W        W34422  16.103  10.686   1.425
73112W        W34423   4.270  31.568  13.496
73113W        W34424  37.433   1.385   2.810
73114W        W34425  27.448  12.613   4.668
73115W        W34426  29.078  17.176  10.633
73116W        W34427  23.641  42.463  11.412
73117W        W34428  17.601  41.410   3.321
73118W        W34429  42.871   5.260  14.516
73119W        W34430  10.690  28.049  11.116
73120W        W34431  11.848  42.926   1.307
73121W        W34432   0.764  40.372   2.739
73122W        W34433  44.965  24.632   1.345
73123W        W34434  42.775  43.444  14.762
73124W        W34435  12.224  12.825  10.468
73125W        W34436   3.314   4.897   1.430
73126W        W34437  17.280  34.026   4.779
73127W        W34438  10.225  43.770   4.771
73128W        W34439  28.089  12.695   0.900
73129W        W34440   9.159  20.183  12.927
73130W        W34441  21.176  22.642  14.907
73131W        W34442  43.992  41.412  11.426
73132W        W34443  24.230   7.771   3.360
73133W        W34444   3.764  18.726   0.884
73134W        W34445  11.775  12.234  11.071
73135W        W34446  22.550  43.296   4.700
73136W        W34447  43.294  39.530  12.883
73137W        W34448  25.108   6.774   2.180
73138W        W34449  36.569  24.084   1.274
73139W        W34450  25.084  13.294  13.546
73140W        W34451   7.750  36.544   1.735
73141W        W34452  37.405  34.895  11.501
73142W        W34453   5.229   7.313  10.467
73143W        W34454  44.837  16.297  13.521
73144W        W34455  41.327  35.570  13.859
73145W        W34456  25.692  15.308  11.979
73146W        W34457  37.849  43.345  13.486
73147W        W34458  40.844  30.936  10.916
73148W        W34459  23.490  40.830   0.360
73149W        W34460  25.974  40.037   0.911
73150W        W34461  20.617  36.974   5.793
73151W        W34462  20.171  40.000   2.202
73152W        W34463  22.149  22.120   0.430
73153W        W34464  11.784  33.974  13.422
73154W        W34465  33.117  21.644  11.071
73155W        W34466   9.164   6.687  14.986
73156W        W34467  21.166  43.780   0.913
73157W        W34468  25.534   9.853  12.481
73158W        W34469  35.079  37.944  11.383
73159W        W34470  30.473  33.970   1.846
73160W        W34471  27.489  17.148  12.508
73161W        W34472  22.513  35.884   4.176
73162W        W34473  42.815  27.153   4.279
73163W        W34474  24.103  18.574  12.407
73164W        W34475  41.945   0.763  14.780
73165W        W34476  43.426  32.636  11.574
73166W        W34477  18.078  25.629   0.949
73167W        W34478  31.151  43.313  11.491
73168W        W34479   8.227  29.110  14.935
73169W        W34480  28.562  28.008  11.558
73170W        W34481  24.006  42.032  12.855
73171W        W34482  39.012  10.377   1.229
73172W        W34483  11.803  28.499   2.843
73173W        W34484  44.825  19.658   4.244
73174W        W34485  24.158  42.947  10.982
73175W        W34486   7.793  40.822   0.812
73176W        W34487  18.244   8.236   0.753
73177W        W34488  38.827  38.544  10.076
73178W        W34489  30.658  43.502   0.323
73179W        W34490  18.734  14.736   3.781
73180W        W34491  13.761  23.161   3.239
73181W        W34492   5.272   3.253  11.045
73182W        W34493  30.950  20.584   4.265
73183W        W34494  44.359   4.751  14.017
73184W        W34495   6.216  28.148   3.705
73185W        W34496  12.316  17.118  11.443
73186W        W34497  22.519  35.601   2.897
73187W        W34498  14.304  41.878   2.744
73188W        W34499  44.873  28.672   2.780
73189W        W34500  37.336  37.924   4.344
73190W        W34501  33.410  39.899   1.389
73191W        W34502  20.056   8.793  11.504
73192W        W34503  22.611   7.848   1.795
73193W        W34504  29.059  18.116   3.171
73194W        W34505  18.743  39.359  11.522
73195W        W34506  42.409   0.976   0.830
73196W        W34507  34.393  19.676  12.838
73197W        W34508  10.705   0.347  10.503
73198W        W34509   4.925  22.997   4.700
73199W        W34510   3.721  28.625  12.490
73200W        W34511   2.770  40.514   3.638
73201W        W34512  37.478  21.692   0.808
73202W        W34513   0.266  29.937   4.719
73203W        W34514  39.536  40.545  10.980
73204W        W34515  40.929  22.996   1.810
73205W        W34516  15.155  44.381   3.809
73206W        W34517   4.940  44.866   3.869
73207W        W34518   9.348  25.182  12.407
73208W        W34519  23.632   4.281   4.155
73209W        W34520  31.017   3.381   2.796
73210W        W34521   2.298  20.582  13.315
73211W        W34522  10.735   5.335  14.913
73212W        W34523  31.439   5.271  12.875
73213W        W34524   8.789  29.935   1.849
73214W        W34525  31.415   2.957   0.933
73215W        W34526  39.370  28.973  11.045
73216W        W34527  17.236  34.884  11.085
73217W        W34528  42.936  37.439   3.289
73218W        W34529  20.226  23.621  14.298
73219W        W34530  33.948  19.670   3.729
73220W        W34531  17.663  44.807  14.007
73221W        W34532  22.235  44.366  12.900
73222W        W34533  27.190   8.402  14.968
73223W        W34534  36.592  39.395   2.794
73224W        W34535  36.461   1.807   1.442
73225W        W34536  32.612  14.686   2.675
73226W        W34537   4.426  31.125   1.335
73227W        W34538  11.704  16.738   3.707
73228W        W34539  44.971  29.556  14.956
73229W        W34540  41.926  26.609   0.268
73230W        W34541   7.812   7.267  13.840
73231W        W34542  41.305  12.625  13.022
73232W        W34543  12.244   2.855   4.673
73233W        W34544  29.571   7.293   0.292
73234W        W34545  16.638  11.306  12.981
73235W        W34546  21.545  37.009  12.498
73236W        W34547   0.838  31.555   3.145
73237W        W34548  35.882  37.844  10.953
73238W        W34549  35.541  35.038  10.961
73239W        W34550  10.677  23.216   4.694
73240W        W34551  22.699  16.584   1.830
73241W        W34552  41.007   4.721   4.826
73242W        W34553  41.487  18.132   3.308
73243W        W34554  27.508   3.250   1.728
73244W        W34555  40.522  41.963  12.017
73245W        W34556   2.964   7.377   2.692
73246W        W34557  22.745   2.383  13.319
73247W        W34558  16.728  44.822   0.473
73248W        W34559  11.764  10.778   3.381
73249W        W34560  21.106  27.989   0.899
73250W        W34561  19.230   0.969   2.673
73251W        W34562   8.286  39.859   4.624
73252W        W34563  38.494  39.837   9.608
73253W        W34564  15.752  23.602   1.277
73254W        W34565   4.412   6.305  12.986
73255W        W34566  25.494  13.840  11.900
73256W        W34567  37.835  42.352  10.460
73257W        W34568  38.892  39.976  10.100
73258W        W34569   5.242  23.567   1.307
73259W        W34570  35.388  19.716  14.304
73260W        W34571  38.928  21.665  14.875
73261W        W34572  25.137  20.618   3.270
73262W        W34573  30.579  40.900   4.800
73263W        W34574  23.095   1.248  14.356
73264W        W34575   5.302  38.371   3.323
73265W        W34576  29.149   9.748  11.991
73266W        W34577   7.881  39.989   5.290
73267W        W34578  18.723  21.610  14.442
73268W        W34579  23.241  23.594  11.117
73269W        W34580  33.597  16.803   5.312
73270W        W34581  39.397  43.884   3.638
73271W        W34582  40.536   8.231   3.683
73272W        W34583  15.664   7.830   3.270
73273W        W34584  39.418   2.405  11.877
73274W        W34585   0.267  25.630   4.197
73275W        W34586  29.659   7.797  11.903
73276W        W34587   7.249  20.671   4.831
73277W        W34588  40.443   4.819   1.893
73278W        W34589  30.552  31.026   1.272
73279W        W34590   5.402  38.541  10.617
73280W        W34591  27.954  11.836  11.952
73281W        W34592  17.646  15.602   2.708
73282W        W34593  13.819  44.459  13.530
73283W        W34594  34.933  22.716   0.787
73284W        W34595  19.751  34.052   2.191
73285W        W34596   1.776  31.978  13.398
73286W        W34597  31.150  24.533   0.323
73287W        W34598  18.169  39.916  10.985
73288W        W34599  19.258   8.758  13.821
73289W        W34600  38.378  29.521   3.803
73290W        W34601   2.472   5.706  13.967
73291W        W34602   3.263   0.251   0.272
73292W        W34603  10.669   4.444  11.878
73293W        W34604  13.662  40.960  11.535
73294W        W34605  29.608  38.997  13.914
73295W        W34606  42.508  41.490   3.170
73296W        W34607  29.591   4.342   4.761
73297W        W34608  11.822   1.275   4.741
73298W        W34609  31.921   3.238  10.513
73299W        W34610  24.547  23.633  11.523
73300W        W34611  14.275  39.398   0.818
73301W        W34612  30.091   1.923  12.556
73302W        W34613   1.733  19.640   3.214
73303W        W34614  12.264  19.095  13.957
73304W        W34615  34.884  17.568  12.444
73305W        W34616   0.345   7.674   3.811
73306W        W34617  28.555  20.700  14.489
73307W        W34618  18.587   7.811   3.377
73308W        W34619  28.184  35.909  11.382
73309W        W34620  21.552   7.213  13.907
73310W        W34621   1.765  10.189   4.141
73311W        W34622  17.648  26.182   3.361
73312W        W34623  44.962  22.567   3.645
73313W        W34624  16.574  17.595   4.785
73314W        W34625   6.844   4.205   2.378
73315W        W34626  31.082  12.635   1.345
73316W        W34627  39.379  42.449   1.716
73317W        W34628  11.305  23.731  12.564
73318W        W34629   9.762  42.377  11.894
73319W        W34630   1.808  41.479   1.357
73320W        W34631  42.525   5.383  11.564
73321W        W34632  41.299   7.229   1.811
73322W        W34633  12.649   5.234   0.737
73323W        W34634  13.141  31.556  13.454
73324W        W34635  40.823  26.526  14.339
73325W        W34636  33.539  11.181  13.367
73326W        W34637  15.110  10.212   4.601
73327W        W34638  32.590  21.572   0.793
73328W        W34639  22.062  32.121   2.178
73329W        W34640  37.492  35.458  10.982
73330W        W34641  35.389  11.692  13.999
73331W        W34642  27.991   2.843   1.211
73332W        W34643  38.556  23.236  13.846
73333W        W34644   2.231  16.720  10.938
73334W        W34645  39.858  16.138   0.967
73335W        W34646  36.920   5.281  13.016
73336W        W34647  10.799  28.630  14.896
73337W        W34648  17.667  14.654  10.554
73338W        W34649   3.783   8.755  11.859
73339W        W34650  16.084  35.006  11.102
73340W        W34651  22.684  42.802  11.049
73341W        W34652  27.139   0.851  14.309
73342W        W34653  25.203   9.684  11.071
73343W        W34654   2.445  22.559   9.976
73344W        W34655  40.870  37.894  12.531
73345W        W34656  34.562  35.397  12.379
73346W        W34657  15.818   6.787   1.764
73347W        W34658  39.447   5.817  14.819
73348W        W34659  37.978  33.997   2.902
73349W        W34660   7.864   3.409   5.208
73350W        W34661  25.112  26.014  10.532
73351W        W34662  11.827  20.038  14.463
73352W        W34663  29.148  39.978  13.810
73353W        W34664   2.438  12.686  14.016
73354W        W34665  37.067   3.355   3.331
73355W        W34666  42.834  27.979  12.496
73356W        W34667   3.238  18.761  11.449
73357W        W34668  19.138  37.985   4.715
73358W        W34669  40.001  30.425  12.573
73359W        W34670  19.583   1.320  12.466
73360W        W34671  27.092  22.512  13.347
73361W        W34672   5.903  43.343  13.360
73362W        W34673  27.574  13.322   3.782
73363W        W34674   4.770  19.053  14.826
73364W        W34675  15.188  31.491  14.795
73365W        W34676  10.716  10.662   4.718
73366W        W34677  10.772  37.565  10.914
73367W        W34678  42.985   2.829   3.737
73368W        W34679   2.315  33.496   4.130
73369W        W34680   1.391  22.086  14.437
73370W        W34681   4.219  39.442  13.013
73371W        W34682  22.060  15.201   1.236
73372W        W34683  17.061   4.392  14.941
73373W        W34684  34.515  20.074  11.438
73374W        W34685  39.401  23.688   4.199
73375W        W34686  13.731  29.440   4.172
73376W        W34687  44.955  20.523   3.326
73377W        W34688  19.114  38.466   3.810
73378W        W34689  25.025  34.952  11.987
73379W        W34690  24.707   9.692  14.797
73380W        W34691  21.578  39.053   3.773
73381W        W34692  13.692  35.005   0.413
73382W        W34693  26.542  33.095  13.942
73383W        W34694  24.981  38.548   1.234
73384W        W34695   7.321  13.727   2.269
73385W        W34696   7.236  23.172   4.322
73386W        W34697  27.469   3.798  10.518
73387W        W34698  32.092   4.803   0.956
73388W        W34699   9.853  14.262  14.013
73389W        W34700  20.248   0.958  11.458
73390W        W34701   9.315   7.693   2.404
73391W        W34702  22.062   0.483  10.540
73392W        W34703   4.260  30.952  11.860
73393W        W34704  14.762  44.904   4.225
73394W        W34705  27.982  33.453  13.949
73395W        W34706  29.624  10.241  13.397
73396W        W34707  18.135  36.934  14.973
73397W        W34708   3.239  29.594   0.351
73398W        W34709  17.289  27.094  12.343
73399W        W34710  15.190  34.887  14.366
73400W        W34711  18.107  24.089   4.224
73401W        W34712  39.451  11.843   0.817
73402W        W34713  32.406   9.884  14.823
73403W        W34714  16.173   5.219  14.885
73404W        W34715  12.746  35.959  10.902
73405W        W34716  40.501  27.987  14.011
73406W        W34717   5.236  36.845   4.228
73407W        W34718   1.880  27.527  11.866
73408W        W34719  22.998  24.724   1.319
73409W        W34720   8.688  39.952  13.330
73410W        W34721  34.523  42.292   1.755
73411W        W34722  33.555  27.448  12.035
73412W        W34723  38.035   4.789  10.916
73413W        W34724  41.490   4.811   4.326
73414W        W34725  14.270  39.978  11.076
73415W        W34726  17.733  10.643   0.311
73416W        W34727  42.019  25.557   2.687
73417W        W34728  24.569  18.086  11.593
73418W        W34729  12.259  14.826   4.599
73419W        W34730  15.227  16.098  10.583
73420W        W34731  42.957  25.652   4.743
73421W        W34732   5.195   8.222   3.659
73422W        W34733  31.103  25.610   1.332
73423W        W34734  30.043   7.392  12.339
73424W        W34735   3.849  12.704  11.058
73425W        W34736  35.480  27.626  14.868
73426W        W34737   6.400   2.464  14.843
73427W        W34738   8.243  36.946   0.411
73428W        W34739   8.814  19.641  14.467
73429W        W34740  13.707  31.594  12.403
73430W        W34741  24.985  24.119  12.046
73431W        W34742   6.882  31.496  14.979
73432W        W34743  14.208   2.229   9.951
73433W        W34744  18.584  24.060  10.115
73434W        W34745   8.309  11.160  14.975
73435W        W34746  24.525  20.740   3.749
73436W        W34747  32.531  42.819  12.910
73437W        W34748  39.811  33.998  14.494
73438W        W34749   3.940  29.504   4.813
73439W        W34750  41.404  35.553   1.358
73440W        W34751   2.371  17.625   2.800
73441W        W34752   4.229  23.095  10.596
73442W        W34753  39.351   1.909   3.170
73443W        W34754  11.698   1.751  11.103
73444W        W34755  26.694  44.914  11.954
73445W        W34756  43.000  19.618   2.193
73446W        W34757  43.958   9.802   2.396
73447W        W34758  15.742  11.316   0.825
73448W        W34759  12.282  19.050  10.598
73449W        W34760  13.646  32.115  10.124
73450W        W34761  44.390   5.910  12.958
73451W        W34762  17.698  12.821  13.538
73452W        W34763  42.314  40.495  13.914
73453W        W34764  23.072  31.031   5.182
73454W        W34765  41.452  31.577   4.713
73455W        W34766   3.901  17.647  12.379
73456W        W34767  22.171  44.395   1.728
73457W        W34768  12.721  19.274  14.285
73458W        W34769  44.438   2.371   1.361
73459W        W34770  35.504  34.569  14.468
73460W        W34771  39.353   8.796   1.414
73461W        W34772  15.140  13.279   2.316
73462W        W34773  27.121  16.280  11.073
73463W        W34774  15.306  30.445   0.252
73464W        W34775  43.898  37.347   4.669
73465W        W34776  34.513   8.713  10.953
73466W        W34777   9.644   9.274  14.900
73467W        W34778  15.180  36.429  12.827
73468W        W34779  19.700  11.204  11.978
73469W        W34780  10.357  43.980   0.792
73470W        W34781  20.193  22.741   3.732
73471W        W34782  20.197  10.744   1.712
73472W        W34783  33.592   6.687   2.218
73473W        W34784   4.937   0.895   3.328
73474W        W34785  44.450  29.519   2.667
73475W        W34786  22.013  30.491   9.644
73476W        W34787  26.663  33.613  11.971
73477W        W34788  42.984  13.200  12.833
73478W        W34789   5.309   9.371  13.917
73479W        W34790  11.239  29.990   3.667
73480W        W34791  34.572   4.879   0.755
73481W        W34792  39.966  36.978   0.470
73482W        W34793  12.699  33.073   4.171
73483W        W34794   5.369  14.317   5.202
73484W        W34795  26.568  26.066  10.579
73485W        W34796  42.453  21.019   0.243
73486W        W34797  39.811  36.098  10.921
73487W        W34798  18.180  34.483   2.359
73488W        W34799  34.463  21.193   0.779
73489W        W34800  11.359  24.974   3.717
73490W        W34801  29.050   8.855   9.995
73491W        W34802   0.828  30.126  10.551
73492W        W34803   5.700  15.083  10.934
73493W        W34804  15.725  37.028  11.500
73494W        W34805   3.778  15.161   1.725
73495W        W34806  21.621  43.013  13.343
73496W        W34807   6.314  18.609   3.385
73497W        W34808  26.464  39.902   1.904
73498W        W34809   4.343  38.992  13.963
73499W        W34810   8.192  39.826   0.931
73500W        W34811  30.078  20.652   1.381
73501W        W34812  35.857   4.369  11.041
73502W        W34813  37.373  15.263   1.814
73503W        W34814  32.961   3.777   1.918
73504W        W34815  14.689  21.222  12.963
73505W        W34816   1.307   7.327  13.417
73506W        W34817  24.639   0.769   0.793
73507W        W34818  12.681  16.785   1.393
73508W        W34819   8.299  38.827   4.650
73509W        W34820  21.555  38.898   4.815
73510W        W34821   7.772  14.310   9.924
73511W        W34822  28.081  21.021  13.856
73512W        W34823  28.129  44.994  13.544
73513W        W34824  36.065  30.159  11.940
73514W        W34825  27.012  36.846   1.315
73515W        W34826  11.671  44.777  11.479
73516W        W34827  42.031  40.948   0.801
73517W        W34828  18.196  24.618   1.377
73518W        W34829   8.733  42.815   2.843
73519W        W34830   5.773  18.683  11.045
73520W        W34831  33.605  41.518  13.442
73521W        W34832   4.708  40.519   0.425
73522W        W34833  16.085  41.340   0.472
73523W        W34834  35.928  15.190   0.810
73524W        W34835  24.071  24.183  11.860
73525W        W34836   0.771  19.666  14.430
73526W        W34837  11.316  21.600  11.604
73527W        W34838   0.401  33.431  14.359
73528W        W34839   8.364  44.334  11.458
73529W        W34840  36.926  44.954  10.519
73530W        W34841  36.576  42.938   4.154
73531W        W34842  32.457  14.639   1.241
73532W        W34843  23.095  29.143  14.489
73533W        W34844  38.963   8.839   1.721
73534W        W34845  36.984  34.970   0.838
73535W        W34846   1.960  19.670   1.335
73536W        W34847  21.098  19.238   4.201
73537W        W34848  13.823  21.232  10.104
73538W        W34849   5.438   2.427  13.313
73539W        W34850   1.927   1.746   2.887
73540W        W34851  12.251  12.191  12.421
73541W        W34852  37.466  39.409  10.538
73542W        W34853  43.999  43.442   1.869
73543W        W34854  16.209   1.891  11.032
73544W        W34855   6.204  30.414  13.387
73545W        W34856   4.400  35.415   0.894
73546W        W34857  38.922   9.729  14.847
73547W        W34858  30.134  27.102  13.441
73548W        W34859   9.820   4.223   0.481
73549W        W34860   0.442  40.839   0.912
73550W        W34861  33.492   4.331   0.855
73551W        W34862  37.576  43.917  10.447
73552W        W34863  30.995  14.282  14.876
73553W        W34864   3.430  15.737   1.428
73554W        W34865  15.707  32.097  11.566
73555W        W34866  23.224  28.158   4.706
73556W        W34867  19.132  17.273   3.652
73557W        W34868  22.230  41.475  10.991
73558W        W34869   7.869  39.994  13.455
73559W        W34870   6.778  43.773   1.912
73560W        W34871  33.529   7.384  14.928
73561W        W34872  21.704  23.671   3.223
73562W        W34873  24.135   4.271  11.938
73563W        W34874  25.702  22.214   0.388
73564W        W34875  42.361   6.369   2.691
73565W        W34876   2.789   1.969   1.826
73566W        W34877  12.822  27.028  12.870
73567W        W34878  22.107  27.954   3.230
73568W        W34879  21.080  37.393  10.601
73569W        W34880   9.169   3.298  10.560
73570W        W34881  22.144  13.234  14.298
73571W        W34882  13.182  22.129   4.128
73572W        W34883  26.659  38.874  12.971
73573W        W34884  40.426  38.060  11.513
73574W        W34885  27.467  24.519  14.341
73575W        W34886   6.381  17.237  12.994
73576W        W34887  44.808  14.595  11.394
73577W        W34888  36.855  39.971  11.560
73578W        W34889  40.929   8.701   4.218
73579W        W34890   8.695  40.956   1.694
73580W        W34891   2.389  34.980   1.849
73581W        W34892  23.580  44.273   2.275
73582W        W34893  33.449  15.250  12.028
73583W        W34894  16.758   0.880  12.342
73584W        W34895  32.139  27.992   3.350
73585W        W34896   1.951  20.540   4.705
73586W        W34897  37.989   9.311  12.482
73587W        W34898  16.764  28.155   0.384
73588W        W34899  17.652  38.566   4.169
73589W        W34900   1.917  39.479   3.803
73590W        W34901  13.755  39.853   3.174
73591W        W34902   8.372  34.440   0.389
73592W        W34903  14.602   9.874  11.565
73593W        W34904  12.172  34.408  14.437
73594W        W34905  39.051  13.726  12.560
73595W        W34906   6.307  15.676  12.845
73596W        W34907  40.376   0.947  14.870
73597W        W34908  34.974   1.316  13.899
73598W        W34909  32.593  39.001   3.197
73599W        W34910  27.047  44.476  12.834
73600W        W34911  39.988  13.839  14.924
73601W        W34912   8.351  33.979  11.455
73602W        W34913  24.699  26.147   4.355
73603W        W34914  34.612   7.359   2.295
73604W        W34915  43.311   3.796   1.371
73605W        W34916  11.737  16.648   0.841
73606W        W34917  32.445   6.249   3.657
73607W        W34918  36.395  42.990   0.907
73608W        W34919   8.708  42.970  14.907
73609W        W34920   1.810   2.453  14.973
73610W        W34921  29.169  17.658  13.844
73611W        W34922  32.104  21.248  14.323
73612W        W34923  20.187  13.213  13.862
73613W        W34924  30.646   6.257  11.518
73614W        W34925  31.974  17.714   2.350
73615W        W34926   1.859  17.576   4.816
73616W        W34927  11.795  22.168  11.389
73617W        W34928  20.060   8.251   2.693
73618W        W34929   7.703  39.852  13.802
73619W        W34930  35.067   8.307   3.245
73620W        W34931  16.584  14.210  13.516
73621W        W34932  28.557  27.612  13.372
73622W        W34933  42.394  18.212  11.072
73623W        W34934  36.895  10.306   1.751
73624W        W34935  31.063  31.094   4.633
73625W        W34936  37.927  29.102   0.340
73626W        W34937  21.202  23.143   5.162
73627W        W34938  31.074  34.895   3.784
73628W        W34939  17.069  12.820   2.364
73629W        W34940  29.488  43.955   2.818
73630W        W34941  29.150  34.110  12.033
73631W        W34942  13.314  44.290   0.331
73632W        W34943   2.745  43.825   4.631
73633W        W34944  33.917  14.762  11.859
73634W        W34945  38.026  17.142   1.339
73635W        W34946  13.648   0.294   4.660
73636W        W34947  39.848   8.767  14.348
73637W        W34948   5.703  11.370   1.867
73638W        W34949  42.318  20.191  14.761
73639W        W34950  42.852   3.256   1.911
73640W        W34951  12.211  21.185  12.579
73641W        W34952  39.813  24.037  11.544
73642W        W34953  44.788  23.077  13.358
73643W        W34954   1.915  35.926  13.893
73644W        W34955  30.090  18.609  12.891
73645W        W34956  26.021  11.671  11.907
73646W        W34957  22.615   9.175  12.514
73647W        W34958  38.393  35.425   2.398
73648W        W34959  25.028  29.926  14.760
73649W        W34960  22.136  23.722   2.691
73650W        W34961  34.046  14.663   3.660
73651W        W34962  40.932   8.317  12.887
73652W        W34963  23.024  31.115  11.893
73653W        W34964  43.409  30.428  11.921
73654W        W34965  35.100  35.402   2.899
73655W        W34966  24.717  13.253  10.928
73656W        W34967  29.523   6.679  14.941
73657W        W34968  19.694  33.976  10.579
73658W        W34969  10.291  28.010   5.307
73659W        W34970   9.380  12.648  12.849
73660W        W34971   0.338   2.817  14.830
73661W        W34972   4.343  19.764  11.879
73662W        W34973  42.398  27.484  12.556
73663W        W34974  16.813  38.918   2.219
73664W        W34975   7.746  31.495  11.570
73665W        W34976  36.490  38.051   1.859
73666W        W34977  37.883  16.250   1.392
73667W        W34978  16.587  38.846   4.755
73668W        W34979  11.671  33.585   3.857
73669W        W34980  19.585   4.778  11.946
73670W        W34981  29.149  22.548   4.714
73671W        W34982  32.632  34.916   2.191
73672W        W34983   2.414  41.950   4.641
73673W        W34984  26.462  15.649  13.450
73674W        W34985  37.974   6.693   0.838
73675W        W34986   1.288  34.468   0.428
73676W        W34987  16.736  13.128  11.427
73677W        W34988  24.565  28.668   3.759
73678W        W34989  25.613   4.772  11.032
73679W        W34990  26.121  13.181  11.127
73680W        W34991   7.336  38.344  14.287
73681W        W34992  34.531  18.079   4.253
73682W        W34993   1.463  18.555   3.165
73683W        W34994  12.781  31.068  12.949
73684W        W34995  25.617  32.543   2.189
73685W        W34996  31.005   2.358  10.413
73686W        W34997  23.229  43.941  11.437
73687W        W34998  25.523  32.082  13.817
73688W        W34999  21.670  39.370   1.818
73689W        W35000  37.940   9.377   1.356
73690W        W35001  27.119   2.957   4.765
73691W        W35002  19.774  35.514   3.834
73692W        W35003  12.797   7.785   2.867
73693W        W35004  19.601   7.358   1.369
73694W        W35005  23.509   5.361  13.414
73695W        W35006   9.770  16.682   3.383
73696W        W35007  21.040  16.225  11.408
73697W        W35008  29.947  29.552   2.326
73698W        W35009   8.289   3.819   1.929
73699W        W35010  41.968  38.857  10.153
73700W        W35011  43.011  39.828  12.513
73701W        W35012  25.557  40.021   4.253
73702W        W35013  28.490  27.502  10.892
73703W        W35014  41.034   2.265  14.459
73704W        W35015  33.454  18.675  11.922
73705W        W35016   9.814  20.684  11.993
73706W        W35017   7.355   9.151  12.053
73707W        W35018  12.817  10.293   1.913
73708W        W35019  36.009  40.446   4.629
73709W        W35020  16.310  20.609   0.901
73710W        W35021   0.484  25.122  11.102
73711W        W35022  44.442  29.464  14.512
73712W        W35023  36.086  15.603  13.362
73713W        W35024  15.802   3.242   0.440
73714W        W35025  44.914   9.277  14.950
73715W        W35026  24.525   3.273  13.959
73716W        W35027  19.624  12.338  12.385
73717W        W35028  42.336  21.093   4.216
73718W        W35029   3.394  19.215  12.958
73719W        W35030  17.211  39.421  11.544
73720W        W35031  14.804  41.879  13.364
73721W        W35032  15.235  33.946  14.780
73722W        W35033  17.557   6.722   0.957
73723W        W35034  37.434  21.595  14.881
73724W        W35035  14.153   4.431   3.247
73725W        W35036  25.537  18.294   2.277
73726W        W35037  42.848  12.764   3.250
73727W        W35038  25.101  13.671  11.576
73728W        W35039  24.562  10.833   4.633
73729W        W35040   2.960  19.110  13.533
73730W        W35041  32.953  34.501  13.904
73731W        W35042  34.022  32.944  14.384
73732W        W35043  11.234  19.668   3.691
73733W        W35044  10.223  14.223  12.881
73734W        W35045  42.506  15.083   1.829
73735W        W35046  14.096   3.245   0.748
73736W        W35047  21.756  35.000  13.994
73737W        W35048  29.595   8.674  10.101
73738W        W35049  44.967  34.908  12.510
73739W        W35050   1.318   0.254  14.875
73740W        W35051  41.888   9.774   1.386
73741W        W35052  41.839  43.341  13.534
73742W        W35053  42.994  34.996   3.661
73743W        W35054  41.869  40.546  10.470
73744W        W35055  10.246   3.784  13.482
73745W        W35056   6.248   3.848  13.494
73746W        W35057   9.177  26.659   3.710
73747W        W35058   7.829   9.161  14.939
73748W        W35059  41.397  24.009  13.825
73749W        W35060  33.904  16.173  11.931
73750W        W35061  40.006   4.872  10.452
73751W        W35062  21.162  13.682  12.400
73752W        W35063  43.861   6.872  10.509
73753W        W35064  42.954   3.838  14.422
73754W        W35065  33.518  41.835  12.483
73755W        W35066  38.466  29.939  14.477
73756W        W35067  37.451  40.894   5.082
73757W        W35068   5.381   0.375  11.570
73758W        W35069  25.484  37.389   5.202
73759W        W35070  33.965  19.545   0.466
73760W        W35071  17.586  35.465  12.551
73761W        W35072  33.901  28.652  13.977
73762W        W35073  13.629  24.672   2.369
73763W        W35074   2.821  44.282   2.706
73764W        W35075  23.015   8.879   2.198
73765W        W35076  26.583   9.250   5.222
73766W        W35077  14.779  37.412  11.431
73767W        W35078  31.942  31.428   2.365
73768W        W35079  35.531  17.792   1.901
73769W        W35080   8.289   4.781   4.756
73770W        W35081  43.903   9.692   4.657
73771W        W35082  12.842  31.024  12.019
73772W        W35083  39.340  22.692   3.770
73773W        W35084   3.843  13.283   2.740
73774W        W35085  26.676   7.365   1.754
73775W        W35086  25.157  32.105  11.071
73776W        W35087   9.857   2.841   0.803
73777W        W35088  20.714  11.162   0.475
73778W        W35089   3.826  38.413  11.423
73779W        W35090  44.342  17.670  10.925
73780W        W35091  41.342  13.812  12.366
73781W        W35092  14.588  21.746  14.833
73782W        W35093   6.823  36.092   1.816
73783W        W35094  14.178   6.757   4.768
73784W        W35095  36.008   8.340   2.840
73785W        W35096   1.426  36.455   4.618
73786W        W35097  29.104  16.098  14.929
73787W        W35098   7.857   0.940   5.273
73788W        W35099   6.200   9.180   1.250
73789W        W35100  32.000   5.245  13.877
73790W        W35101  39.997  16.690  10.411
73791W        W35102  37.977   3.747   2.696
73792W        W35103  30.538  24.121   4.295
73793W        W35104   3.858  31.546   2.810
73794W        W35105  11.174   8.300   4.758
73795W        W35106   3.862  23.539  12.947
73796W        W35107  18.056  31.407  10.587
73797W        W35108  29.625  38.022  14.847
73798W        W35109   7.674   7.388   2.722
73799W        W35110  18.713  35.016  13.428
73800W        W35111   3.752  12.238  10.623
73801W        W35112  12.245  27.994  14.903
73802W        W35113  28.063  29.001  13.436
73803W        W35114   6.283  12.810   5.322
73804W        W35115  39.348  35.082   3.174
73805W        W35116  31.912   2.242  13.382
73806W        W35117   9.658  13.175   4.224
73807W        W35118  31.066  33.127   0.328
73808W        W35119  41.478  30.129  10.514
73809W        W35120  11.721  26.103   1.781
73810W        W35121  39.386  38.983   1.793
73811W        W35122  35.440  16.206  10.470
73812W        W35123  27.458   8.357   0.317
73813W        W35124   1.448   3.733  11.061
73814W        W35125  16.241  18.635  11.112
73815W        W35126  17.725  44.990  10.435
73816W        W35127  18.199  19.696  10.968
73817W        W35128   0.341   4.924  14.776
73818W        W35129  16.568  42.440  10.598
73819W        W35130   9.258  24.007  13.955
73820W        W35131  36.375  30.038   2.742
73821W        W35132  27.502  12.723   3.689
73822W        W35133  21.591  41.988   5.190
73823W        W35134  43.781   4.860  12.050
73824W        W35135  17.697  18.559   4.610
73825W        W35136  32.101  24.638  14.445
73826W        W35137  21.117  43.359   4.341
73827W        W35138  34.609  14.707  12.886
73828W        W35139  40.860   1.794   3.384
73829W        W35140  41.356   0.750  14.873
73830W        W35141  43.503  31.611  14.027
73831W        W35142  14.335  28.096  14.835
73832W        W35143   1.811  26.089  13.324
73833W        W35144  15.597  18.717   0.312
73834W        W35145  36.844  35.496   3.823
73835W        W35146  28.637  31.060  10.532
73836W        W35147  34.070  37.027   4.810
73837W        W35148  39.357  36.569  12.854
73838W        W35149  17.579  10.343   2.662
73839W        W35150  21.549  40.462  14.866
73840W        W35151   0.809  29.960   0.860
73841W        W35152  35.553  21.146  10.900
73842W        W35153  20.147  30.556   5.280
73843W        W35154  22.633  24.672   4.224
73844W        W35155  11.298  20.148   1.306
73845W        W35156  40.984  22.716  13.979
73846W        W35157   4.892  20.172   4.340
73847W        W35158  23.651  31.474   1.934
73848W        W35159  21.144  21.029   4.118
73849W        W35160  40.340  37.338   4.130
73850W        W35161  23.179  42.313  14.300
73851W        W35162   5.241   6.421   3.793
73852W        W35163  23.510  10.298  13.040
73853W        W35164   3.834  40.521   2.379
73854W        W35165  22.190   3.716   4.206
73855W        W35166  20.108   4.361  11.906
73856W        W35167  35.973  23.726  12.922
73857W        W35168  31.090  11.316   2.185
73858W        W35169  23.174  17.242   0.924
73859W        W35170  28.139  31.938  12.061
73860W        W35171  29.032  26.632   3.265
73861W        W35172  11.697  29.480  14.925
73862W        W35173  36.390   8.822  12.984
73863W        W35174  16.584  34.023  12.430
73864W        W35175   5.865   0.767   2.295
73865W        W35176  13.846  29.520  14.840
73866W        W35177  33.058   3.935   3.351
73867W        W35178  10.360  34.573  12.493
73868W        W35179  12.313  31.003  10.446
73869W        W35180  24.707  12.194  12.346
73870W        W35181  29.115  27.461  12.893
73871W        W35182  17.611   2.888  10.631
73872W        W35183  10.355  22.121   1.897
73873W        W35184  26.532  27.667  13.345
73874W        W35185  23.646  36.978  14.429
73875W        W35186  39.922  34.103  12.888
73876W        W35187  10.213   7.300  11.449
73877W        W35188  39.424  38.897  12.832
73878W        W35189  27.628   2.931  13.495
73879W        W35190  25.643  30.958  14.397
73880W        W35191  28.007  28.981  10.602
73881W        W35192  41.462  19.581  11.433
73882W        W35193   0.825  22.554   4.818
73883W        W35194  40.444   7.391  11.063
73884W        W35195  40.414   9.651  13.933
73885W        W35196  16.125   7.358   2.278
73886W        W35197  43.852  40.309  14.355
73887W        W35198  36.850  28.446  14.908
73888W        W35199  11.852  31.896  12.436
73889W        W35200  19.628  13.180   0.792
73890W        W35201  39.548  21.199  12.908
73891W        W35202  40.953  41.857  11.107
73892W        W35203  37.511  32.543  13.815
73893W        W35204  38.880  40.031  14.026
73894W        W35205  10.210  38.529   0.387
73895W        W35206  14.660  40.399  13.005
73896W        W35207  15.580  15.261  10.142
73897W        W35208  16.761  23.559   2.199
73898W        W35209  31.430  42.908   4.647
73899W        W35210  30.038  42.897  12.479
73900W        W35211  32.916  20.127   1.380
73901W        W35212  41.810   8.297  13.411
73902W        W35213  33.495  41.003   0.952
73903W        W35214  22.738  12.146   4.166
73904W        W35215  28.994   7.723   3.260
73905W        W35216  16.626  44.316   1.811
73906W        W35217   6.889   4.348   4.131
73907W        W35218   6.199   6.844  13.843
73908W        W35219  27.603  44.759  12.402
73909W        W35220   3.290  40.451  12.382
73910W        W35221  24.174  35.095  12.415
73911W        W35222  23.054  16.274   2.266
73912W        W35223  43.406  27.607   0.840
73913W        W35224  14.191  27.140   1.385
73914W        W35225   5.198  34.120   0.454
73915W        W35226   8.212  16.319   3.184
73916W        W35227  35.089   5.773   1.919
73917W        W35228  16.239   5.321   2.344
73918W        W35229  29.440  12.135   3.238
73919W        W35230  41.006  34.046  11.541
73920W        W35231  33.006  34.980  10.517
73921W        W35232  10.858   0.985   3.151
73922W        W35233  36.423   3.914  14.363
73923W        W35234  28.664   8.795  13.939
73924W        W35235  30.127  32.477  10.644
73925W        W35236  38.980  37.968  10.935
73926W        W35237   6.745  25.020   4.728
73927W        W35238  27.038  36.041  11.087
73928W        W35239  10.840  10.244  11.375
73929W        W35240  20.059   9.850  12.883
73930W        W35241  37.015  11.633  10.569
73931W        W35242  22.719  11.796   5.303
73932W        W35243   2.848  38.481  11.084
73933W        W35244  34.599  42.393  14.760
73934W        W35245  31.443  29.981  11.013
73935W        W35246  14.198  26.000  11.593
73936W        W35247   0.253  34.954  11.036
73937W        W35248  11.792  27.030  11.474
73938W        W35249  24.029  21.025   2.322
73939W        W35250  40.539  17.787   0.410
73940W        W35251  29.647  26.652  10.640
73941W        W35252  19.187  31.096   1.341
73942W        W35253  36.962  21.068   4.756
73943W        W35254  37.410  28.067  12.902
73944W        W35255  44.827  27.590  12.436
73945W        W35256  34.960  12.228  13.532
73946W        W35257  30.626  36.358  14.861
73947W        W35258  17.619  41.396   1.787
73948W        W35259  33.109  38.536  12.892
73949W        W35260   6.228  33.002   3.636
73950W        W35261  30.494  30.001  13.347
73951W        W35262  30.913  35.921  10.974
73952W        W35263   4.863   8.850  12.434
73953W        W35264   3.710  10.744   2.746
73954W        W35265  33.901  20.549   2.886
73955W        W35266   4.409  30.623   1.328
73956W        W35267  19.147  19.629  11.599
73957W        W35268  24.006   6.213   2.706
73958W        W35269  22.579   0.866  11.112
73959W        W35270  32.922  39.945   4.171
73960W        W35271   8.339  22.150  11.109
73961W        W35272  13.338  18.647   3.787
73962W        W35273  27.484   4.829  13.444
73963W        W35274  30.981   2.349  12.011
73964W        W35275  33.996  24.217   0.740
73965W        W35276  34.448  36.529   3.310
73966W        W35277  13.307   1.967  13.859
73967W        W35278  28.071  23.194  11.386
73968W        W35279   7.229  34.097   3.276
73969W        W35280  25.563  11.147   2.902
73970W        W35281  22.532   1.380   4.304
73971W        W35282   2.261  17.302   3.298
73972W        W35283  29.657  16.777  10.413
73973W        W35284  14.309   5.431  13.329
73974W        W35285   1.933   7.787  13.375
73975W        W35286  18.731   3.278  12.403
73976W        W35287  41.326  15.600  14.924
73977W        W35288   9.881   8.183  11.973
73978W        W35289   8.317  12.648  13.006
73979W        W35290  18.215  11.321   5.593
73980W        W35291   4.822  38.836   2.695
73981W        W35292  32.549  12.797  11.584
73982W        W35293   6.777   8.852  14.394
73983W        W35294   6.870  28.571   2.806
73984W        W35295   1.254  14.291   4.797
73985W        W35296  43.011  25.968   3.289
73986W        W35297   9.708  35.397   3.836
73987W        W35298  26.044  30.155  13.895
73988W        W35299   4.227  24.120   3.774
73989W        W35300  15.182  11.864   0.336
73990W        W35301  33.394  36.500   3.711
73991W        W35302  23.994  31.061   0.895
73992W        W35303  33.556  25.964   2.745
73993W        W35304  13.338  10.863  12.060
73994W        W35305  31.147  12.200   3.228
73995W        W35306  35.463   2.780  10.636
73996W        W35307  43.315  13.781   4.702
73997W        W35308  39.493  14.172  13.847
73998W        W35309  27.586  35.403   4.313
73999W        W35310  40.818  40.429  14.990
74000W        W35311  12.807  26.991  11.588
74001W        W35312  31.621  36.593  13.829
74002W        W35313   9.202  29.646   1.911
74003W        W35314   9.834  12.217  11.989
74004W        W35315   1.924  35.473   3.371
74005W        W35316  21.217  30.009   4.647
74006W        W35317  18.196  26.092  13.970
74007W        W35318  34.467  22.637   3.258
74008W        W35319  23.092  30.448  14.327
74009W        W35320   2.284  16.191  13.793
74010W        W35321  10.156   9.709  14.019
74011W        W35322  37.942  22.198   3.222
74012W        W35323  27.593  15.113   3.749
74013W        W35324  16.566  25.032   2.270
74014W        W35325  38.363  20.077   3.844
74015W        W35326  19.235  40.355   1.703
74016W        W35327  13.702   4.710  13.422
74017W        W35328  27.972  30.651   4.699
74018W        W35329  33.433  17.213  14.356
74019W        W35330   8.357  13.316  13.862
74020W        W35331  16.682   0.806   1.813
74021W        W35332  16.619   2.946   0.291
74022W        W35333  12.741  29.048  10.490
74023W        W35334  29.940  16.734  14.017
74024W        W35335  11.630  16.570  10.511
74025W        W35336  18.680  32.934   0.448
74026W        W35337  10.352  37.007   0.429
74027W        W35338  23.627  10.805  14.927
74028W        W35339  22.248  12.773  11.879
74029W        W35340  39.894  23.591  12.890
74030W        W35341  37.497  23.499   2.843
74031W        W35342   9.777  17.583  12.399
74032W        W35343  33.006  10.834  14.292
74033W        W35344  27.618   4.929   4.616
74034W        W35345  30.606  34.461  13.531
74035W        W35346  39.968  37.386   0.873
74036W        W35347  28.990   1.450   1.382
74037W        W35348  16.731  28.024   0.940
74038W        W35349  12.307  32.971   3.351
74039W        W35350  17.596  25.047   3.642
74040W        W35351   0.918  27.003  14.903
74041W        W35352   4.931  40.462   5.129
74042W        W35353  27.114  19.270  14.390
74043W        W35354   4.876  32.502   1.929
74044W        W35355  12.691  32.416   0.299
74045W        W35356  19.247   0.800   1.695
74046W        W35357  30.633  24.713   0.913
74047W        W35358   0.857   1.909  10.641
74048W        W35359  22.567   1.746   0.726
74049W        W35360  28.002  44.847  12.952
74050W        W35361  36.876   1.449  12.947
74051W        W35362  25.607  17.288   1.829
74052W        W35363  36.038  26.532   0.770
74053W        W35364  36.050  13.151   1.252
74054W        W35365   6.793  29.988   1.360
74055W        W35366   2.757  33.521   3.646
74056W        W35367   9.277  31.414  12.406
74057W        W35368  37.911   2.258  12.344
74058W        W35369  12.676   3.907  14.850
74059W        W35370  24.618   7.341   1.899
74060W        W35371   0.431  29.151  11.558
74061W        W35372  28.149  21.695   2.741
74062W        W35373  10.232  37.905   4.320
74063W        W35374  36.457  22.551   3.270
74064W        W35375  40.005  14.701  11.971
74065W        W35376  26.100  32.071   3.353
74066W        W35377  32.110  22.205   3.730
74067W        W35378  43.350  24.542  11.418
74068W        W35379  10.331  26.509  14.429
74069W        W35380   0.829   7.723   1.797
74070W        W35381  13.719  34.487  14.892
74071W        W35382  29.573  38.868   2.715
74072W        W35383  43.929  41.838  13.475
74073W        W35384  19.051   2.761   4.659
74074W        W35385  12.158  27.086   0.398
74075W        W35386  14.313  44.785   1.882
74076W        W35387  44.974  15.192  10.438
74077W        W35388  12.764   8.776  11.005
74078W        W35389   8.260  21.546   3.282
74079W        W35390  33.119  15.712  11.517
74080W        W35391  35.032  44.331  10.920
74081W        W35392  21.568  41.916   3.368
74082W        W35393  31.968   2.231  11.009
74083W        W35394  19.243  15.198   3.266
74084W        W35395  32.490  39.428   3.841
74085W        W35396  26.524   3.321  10.960
74086W        W35397  17.124   6.787   1.820
74087W        W35398   1.896  20.591  10.550
74088W        W35399  30.629  12.127  12.878
74089W        W35400  23.054  19.244   3.284
74090W        W35401   3.753   8.300  10.526
74091W        W35402   7.339  20.052   4.606
74092W        W35403  41.962  17.769   2.690
74093W        W35404  19.104  24.530   3.631
74094W        W35405  11.797  16.620  11.523
74095W        W35406  17.277  18.198  13.481
74096W        W35407  39.840   1.765  11.608
74097W        W35408  10.215  34.892  14.979
74098W        W35409   7.412  11.152   0.262
74099W        W35410   8.348   1.915  13.941
74100W        W35411  36.557  31.632   3.761
74101W        W35412  31.418   7.815  10.454
74102W        W35413  14.126  13.246   3.356
74103W        W35414  27.570   3.408  11.970
74104W        W35415   7.705  23.116  11.506
74105W        W35416   9.296  31.499  13.885
74106W        W35417  20.727   0.940   1.296
74107W        W35418  26.030  40.866   2.805
74108W        W35419  39.342  22.554  14.820
74109W        W35420  41.475  16.242   4.162
74110W        W35421  23.552  30.573   2.854
74111W        W35422   3.455  32.114   1.707
74112W        W35423  24.095  43.853   0.370
74113W        W35424   7.213  32.893  10.408
74114W        W35425  11.805  34.439  10.067
74115W        W35426  35.939  29.527   9.535
74116W        W35427  10.272  24.113   4.632
74117W        W35428  17.128   9.872  11.603
74118W        W35429   3.438  38.328  11.569
74119W        W35430  39.452  36.409  13.943
74120W        W35431   4.286  21.144  10.079
74121W        W35432   4.226  14.132   1.762
74122W        W35433  19.176  37.351   2.271
74123W        W35434  37.987  10.199   0.802
74124W        W35435  24.618  27.622   4.237
74125W        W35436  24.597   3.944  14.934
74126W        W35437  43.418   4.222  10.998
74127W        W35438  21.056  37.842  13.983
74128W        W35439   2.782  28.647   0.863
74129W        W35440  25.528  10.160   4.646
74130W        W35441   8.388  34.614  13.033
74131W        W35442   0.756  14.821  12.966
74132W        W35443   1.467   7.187   1.759
74133W        W35444  20.577  25.189   3.268
74134W        W35445  34.109  35.030   1.734
74135W        W35446  23.049   4.310   0.350
74136W        W35447  35.482  28.153   4.742
74137W        W35448  22.091  43.444   2.296
74138W        W35449   4.412  26.989   4.811
74139W        W35450  16.270  38.889   4.638
74140W        W35451   1.907  39.401   1.775
74141W        W35452  31.930  41.834  11.610
74142W        W35453  41.966  22.118   2.863
74143W        W35454  30.547  25.004   2.673
74144W        W35455  33.987  37.080  12.899
74145W        W35456  39.975   3.912   1.306
74146W        W35457  39.819  30.018   0.853
74147W        W35458  41.941   0.326  14.860
74148W        W35459  39.006  26.686   2.723
74149W        W35460  23.027  23.020  14.908
74150W        W35461  33.089  23.999  14.881
74151W        W35462  43.787   7.279  14.283
74152W        W35463  39.407   7.365  12.021
74153W        W35464   3.827  42.363   0.835
74154W        W35465  25.503   2.748   1.863
74155W        W35466   9.646   7.712   1.317
74156W        W35467  42.859  35.570   2.810
74157W        W35468   7.750   9.234  11.604
74158W        W35469  12.791  18.677   2.777
74159W        W35470  36.491  31.101  13.817
74160W        W35471  21.682   8.366  11.909
74161W        W35472  13.710  20.561  13.030
74162W        W35473  34.580   1.872  14.017
74163W        W35474  41.894  37.462   4.333
74164W        W35475  39.899  37.959  13.413
74165W        W35476  32.082  14.832  14.795
74166W        W35477   5.316   7.286   1.345
74167W        W35478  16.631  12.213   5.167
74168W        W35479  12.192  25.619  10.519
74169W        W35480  15.691  22.146  13.017
74170W        W35481   9.828   9.366   2.294
74171W        W35482  24.123   6.247   0.261
74172W        W35483  43.355  24.484  12.371
74173W        W35484  26.099  35.379   2.841
74174W        W35485  41.939  42.855  12.530
74175W        W35486   1.386  20.151   0.433
74176W        W35487  18.097  38.021  14.403
74177W        W35488  24.708   1.972   3.366
74178W        W35489  42.429  33.467   0.404
74179W        W35490  43.942   7.393  14.948
74180W        W35491   9.732  42.850   0.953
74181W        W35492   3.949  27.516  12.011
74182W        W35493  21.073  31.561   4.223
74183W        W35494   6.211  39.518  14.478
74184W        W35495  28.060  24.569  14.905
74185W        W35496  43.467  38.052   0.264
74186W        W35497  36.347   2.324  14.440
74187W        W35498  14.291  38.524   3.813
74188W        W35499  18.101  25.203   2.688
74189W        W35500  24.207   9.355  13.973
74190W        W35501  24.511  42.855   2.284
74191W        W35502  27.451   4.813  13.926
74192W        W35503  29.032  29.453  13.420
74193W        W35504  14.824  43.358  12.522
74194W        W35505  44.423  22.997   1.391
74195W        W35506   6.225  32.122   2.847
74196W        W35507  30.430  31.135   5.268
74197W        W35508  30.962  28.677  14.855
74198W        W35509  11.280  31.953   1.922
74199W        W35510   4.324   2.281   0.422
74200W        W35511   3.249  23.683   3.653
74201W        W35512   3.293  33.435  12.423
74202W        W35513  28.645  36.912   0.905
74203W        W35514  29.432  19.240   0.257
74204W        W35515  13.108  44.452  14.906
74205W        W35516  14.294   2.959   4.216
74206W        W35517  41.903  10.361   1.839
74207W        W35518  37.355  18.198  10.060
74208W        W35519  14.335  35.920  11.899
74209W        W35520   9.668   5.691  11.030
74210W        W35521  42.781  14.630   1.448
74211W        W35522   7.267  13.215   2.237
74212W        W35523  19.269  11.141  11.098
74213W        W35524  39.367   1.786   4.643
74214W        W35525  21.070   2.794  14.513
74215W        W35526  17.562  19.700   2.347
74216W        W35527  26.587  10.318  10.565
74217W        W35528  33.043  21.160  12.381
74218W        W35529  36.068  20.269   3.630
74219W        W35530  39.041  10.868  11.855
74220W        W35531  24.047  17.663   4.703
74221W        W35532   5.705  43.963   0.837
74222W        W35533   9.698   6.336  14.800
74223W        W35534  28.662  21.150  14.874
74224W        W35535  22.515  27.661   0.849
74225W        W35536  18.631  28.030   0.828
74226W        W35537   2.270  29.446  14.381
74227W        W35538  10.379  12.188  13.959
74228W        W35539  34.896   5.425  12.020
74229W        W35540  14.739  16.728  12.509
74230W        W35541  21.097  30.437   2.833
74231W        W35542   1.246  42.925   4.643
74232W        W35543  38.879  39.837   2.849
74233W        W35544  19.743  10.636   3.839
74234W        W35545  44.987  25.111   2.233
74235W        W35546   0.254  32.447  14.464
74236W        W35547  23.041  40.379  13.868
74237W        W35548  30.097  34.983   1.303
74238W        W35549  28.468   2.275  10.518
74239W        W35550   3.903  35.050  11.974
74240W        W35551  42.955  31.998   0.967
74241W        W35552  25.045   5.323  10.441
74242W        W35553   7.326  21.166   2.365
74243W        W35554  34.614  23.616   3.187
74244W        W35555   0.766  34.521   0.296
74245W        W35556  40.537   8.826   3.667
74246W        W35557   1.966  36.906  13.018
74247W        W35558  10.155  41.418   3.782
74248W        W35559  25.193  23.677   4.188
74249W        W35560  11.792  40.882   1.433
74250W        W35561  37.944  38.969   3.300
74251W        W35562  18.185   2.911   1.884
74252W        W35563   8.186  30.448  11.961
74253W        W35564  32.125   5.253   5.239
74254W        W35565  12.684   8.667   3.819
74255W        W35566  13.827   7.395   2.315
74256W        W35567  22.564  44.409   1.933
74257W        W35568  23.591  14.273  12.030
74258W        W35569  11.236  38.414  14.383
74259W        W35570  18.784  26.146   0.443
74260W        W35571  29.615  22.528   2.828
74261W        W35572   6.827  26.976   2.791
74262W        W35573  40.929  36.053  12.397
74263W        W35574   0.878  31.023   1.884
74264W        W35575  14.173   5.702   2.821
74265W        W35576  40.876  37.007   0.351
74266W        W35577  18.724  11.689  14.025
74267W        W35578  31.454  41.855  13.913
74268W        W35579  30.434  25.181   0.781
74269W        W35580  18.569  26.556   0.783
74270W        W35581  29.582  44.396   4.774
74271W        W35582  43.778  11.187   2.270
74272W        W35583  38.432  43.814   1.308
74273W        W35584  28.443   7.176   3.213
74274W        W35585   0.913  28.084  12.068
74275W        W35586   7.806  19.127   1.333
74276W        W35587  19.121   7.876  11.939
74277W        W35588  39.483  42.363   0.745
74278W        W35589  23.061  27.001   2.281
74279W        W35590  34.396  20.186   1.741
74280W        W35591  28.447   5.780   0.925
74281W        W35592  21.111   3.280  12.557
74282W        W35593   2.267  11.664   1.741
74283W        W35594  20.624  40.002  13.795
74284W        W35595  33.943   7.785  10.617
74285W        W35596  16.249  21.131  14.404
74286W        W35597  44.301  12.677  10.133
74287W        W35598  28.996  33.915  14.766
74288W        W35599  34.116  18.757  12.392
74289W        W35600  30.653  25.181  13.003
74290W        W35601  37.985  19.665   1.245
74291W        W35602  13.319   1.242  11.448
74292W        W35603   2.779  12.682  14.318
74293W        W35604  19.053  35.363   1.781
74294W        W35605  20.635  20.172  10.092
74295W        W35606  43.301  31.507   4.794
74296W        W35607  28.626  29.436   2.747
74297W        W35608  23.585  43.885  13.413
74298W        W35609   6.427  23.049  13.849
74299W        W35610  31.919   3.948  11.013
74300W        W35611  43.409   3.737  13.372
74301W        W35612  27.152   8.302  14.306
74302W        W35613  27.662  27.152  14.320
74303W        W35614  42.929  29.048   1.447
74304W        W35615  42.942   7.345   2.210
74305W        W35616  12.187  25.675  14.979
74306W        W35617  25.498  17.259  12.383
74307W        W35618   9.364  42.490  13.443
74308W        W35619  17.642  23.200   0.339
74309W        W35620  17.742  22.248  11.037
74310W        W35621  37.061  33.442  12.557
74311W        W35622  19.582  39.513   1.777
74312W        W35623   0.836  40.541   9.981
74313W        W35624  23.995  28.629   5.590
74314W        W35625   6.237  19.739   1.378
74315W        W35626  35.897  40.353  13.022
74316W        W35627  12.842   6.372   2.343
74317W        W35628   2.918  33.438   2.292
74318W        W35629  31.064   7.853  10.533
74319W        W35630  43.783  27.941   3.252
74320W        W35631   2.325  31.583  11.597
74321W        W35632   4.369   8.810   2.707
74322W        W35633   7.735  43.009  14.336
74323W        W35634  14.647  39.826   3.629
74324W        W35635   9.840  21.686   0.773
74325W        W35636  43.969  10.700  14.954
74326W        W35637   7.175  30.636   4.264
74327W        W35638  27.958  25.160  10.903
74328W        W35639  41.042  40.940  11.888
74329W        W35640  16.210   2.793  13.309
74330W        W35641  37.432  14.823  14.476
74331W        W35642  19.665  14.275   3.701
74332W        W35643  45.000  29.000   1.351
74333W        W35644   8.684  16.208   3.203
74334W        W35645  37.542   6.267  11.500
74335W        W35646   3.951  10.837   4.774
74336W        W35647  13.155  35.093   5.150
74337W        W35648   0.787  35.448   4.272
74338W        W35649  16.582  20.101   3.861
74339W        W35650  44.396  16.144   4.734
74340W        W35651   0.395   2.962  11.078
74341W        W35652  34.391  27.946   0.920
74342W        W35653  42.315  12.710   2.329
74343W        W35654  40.827  30.494  14.465
74344W        W35655  18.218  29.557  14.026
74345W        W35656  11.154  29.083  12.468
74346W        W35657  25.585  20.714  14.885
74347W        W35658   8.785  16.760  12.552
74348W        W35659  20.223  29.548   4.657
74349W        W35660  20.201  19.640  13.862
74350W        W35661  14.765  31.627  14.820
74351W        W35662  27.017  24.213   2.238
74352W        W35663   0.483  17.119   2.721
74353W        W35664  39.362  13.260   1.327
74354W        W35665   8.331  13.247   1.882
74355W        W35666  12.715  43.001  12.450
74356W        W35667   0.428  14.161  11.946
74357W        W35668   7.170  42.501  14.882
74358W        W35669  37.866  39.952   0.793
74359W        W35670  18.233   1.325   3.253
74360W        W35671  43.805   3.315   0.823
74361W        W35672   2.791  20.651   2.207
74362W        W35673  28.965   8.886  10.566
74363W        W35674  12.214  35.383  12.359
74364W        W35675  10.302  32.076   4.726
74365W        W35676   2.767  35.929   0.842
74366W        W35677  25.095  14.802   3.371
74367W        W35678  10.843  40.391  14.938
74368W        W35679  14.749  40.836  14.434
74369W        W35680  41.357  27.556  14.881
74370W        W35681   5.305  11.248  12.357
74371W        W35682  21.072  34.449  14.939
74372W        W35683  44.371   4.389  11.597
74373W        W35684  33.592  28.568   1.262
74374W        W35685  25.626  29.057  14.368
74375W        W35686   2.384  32.449  13.379
74376W        W35687   1.937  30.617   2.354
74377W        W35688  38.951   5.705   1.382
74378W        W35689  40.516  40.332  13.006
74379W        W35690   2.465  16.152  12.884
74380W        W35691  41.857  18.093  14.492
74381W        W35692  36.911  32.426  12.486
74382W        W35693  39.005  23.600   3.366
74383W        W35694  36.060  38.006  14.773
74384W        W35695  41.835  37.363   2.341
74385W        W35696  42.300  19.671  10.984
74386W        W35697  18.603  39.344  13.437
74387W        W35698   4.334   2.776  14.920
74388W        W35699  12.205  11.187   0.463
74389W        W35700   4.224  43.011  13.485
74390W        W35701  37.036  26.512  10.913
74391W        W35702  21.034  18.551  13.528
74392W        W35703   9.853  26.124   0.746
74393W        W35704  21.206  44.894   2.231
74394W        W35705  27.469  39.996  12.064
74395W        W35706   2.347  10.688  12.949
74396W        W35707  10.239  42.386   0.300
74397W        W35708  30.615   5.890   2.708
74398W        W35709  44.951  33.093  12.025
74399W        W35710  38.460   8.284   0.243
74400W        W35711  31.956   7.213   2.395
74401W        W35712  42.926  36.932   4.634
74402W        W35713   9.330  33.906  12.553
74403W        W35714  37.567  37.980   0.347
74404W        W35715  21.186  12.245  14.358
74405W        W35716  32.896  16.812   1.735
74406W        W35717   4.439  27.995  10.598
74407W        W35718  10.308  13.771   2.231
74408W        W35719   2.409  22.685  13.018
74409W        W35720  21.066  19.696  11.008
74410W        W35721  42.031  22.154  12.350
74411W        W35722  17.575   0.396   0.898
74412W        W35723  39.380   9.787  12.489
74413W        W35724  26.044  30.094  11.573
74414W        W35725  15.819   8.838   4.256
74415W        W35726  22.647   2.396   9.952
74416W        W35727   1.810  36.005   3.301
74417W        W35728  41.871  44.270  13.962
74418W        W35729  16.099  13.784  14.494
74419W        W35730   0.302  25.622   2.698
74420W        W35731  14.605  39.451  10.584
74421W        W35732  22.645   3.241  10.149
74422W        W35733  38.991  18.220   1.815
74423W        W35734  34.933  26.557  14.956
74424W        W35735  41.900  39.060  14.001
74425W        W35736  12.845  11.252  14.283
74426W        W35737  17.673  43.804   0.441
74427W        W35738   6.310  12.724  11.534
74428W        W35739  32.100  40.490   5.259
74429W        W35740  44.876  40.350   0.388
74430W        W35741  18.158  37.345   5.231
74431W        W35742  37.032  36.925   4.737
74432W        W35743   2.727  43.974  13.531
74433W        W35744  18.157  13.806   3.210
74434W        W35745  31.119  27.941   3.659
74435W        W35746  26.685  39.331   3.820
74436W        W35747  10.769  19.071  14.434
74437W        W35748   2.262  15.657  12.391
74438W        W35749  39.952  42.480  14.778
74439W        W35750   3.716   7.313  10.930
74440W        W35751  23.024  28.634   3.644
74441W        W35752  34.065  11.335  14.492
74442W        W35753  14.610  40.436   2.736
74443W        W35754   4.369   7.314  10.474
74444W        W35755  42.943  29.980  12.500
74445W        W35756  32.078  32.118   2.180
74446W        W35757  32.415  24.125   4.817
74447W        W35758  27.981  35.565   4.195
74448W        W35759  15.771  16.211   4.816
74449W        W35760   0.792  20.713  10.966
74450W        W35761  11.753  13.203  11.558
74451W        W35762   1.864   3.817   0.403
74452W        W35763  20.665  23.163   4.219
74453W        W35764  22.675   3.813   3.737
74454W        W35765  22.065  24.207   0.314
74455W        W35766  36.376   3.948   3.848
74456W        W35767  32.075  20.682  11.459
74457W        W35768  33.039  13.136  14.919
74458W        W35769  24.184   0.863  10.898
74459W        W35770  40.368  39.989   4.167
74460W        W35771  22.118   6.262   1.848
74461W        W35772  40.478  43.995  14.340
74462W        W35773  35.049   0.411  13.431
74463W        W35774   7.387   7.778   2.902
74464W        W35775  32.056  27.113   4.695
74465W        W35776  19.582  36.997   4.280
74466W        W35777  41.855  35.374   4.833
74467W        W35778  29.481  16.608  12.520
74468W        W35779  11.642  23.654  10.480
74469W        W35780  24.021  11.820  10.109
74470W        W35781  27.955  38.066  12.866
74471W        W35782   5.402  31.030  13.048
74472W        W35783  28.657   0.756  13.540
74473W        W35784  36.055  33.968   4.292
74474W        W35785   9.375  23.222  14.404
74475W        W35786  22.687  34.498   3.237
74476W        W35787  36.480  12.133   2.795
74477W        W35788  23.089  18.568  14.369
74478W        W35789  38.069   9.788  13.033
74479W        W35790  39.326  24.152  11.563
74480W        W35791  34.039   6.275   4.125
74481W        W35792  13.656  26.205   4.632
74482W        W35793  36.023  33.481   1.257
74483W        W35794  28.599  18.245   0.432
74484W        W35795  38.895   3.762   0.433
74485W        W35796  39.540  28.511   0.794
74486W        W35797  22.585  21.150  12.031
74487W        W35798  18.233   4.796  13.862
74488W        W35799  43.436  20.127  12.343
74489W        W35800  21.124  44.803  10.422
74490W        W35801  26.683  31.922  12.560
74491W        W35802   8.798  17.728  10.565
74492W        W35803  18.650  22.566   5.192
74493W        W35804  18.570  19.108   4.782
74494W        W35805  40.824  40.044  14.890
74495W        W35806  15.649  20.178  14.970
74496W        W35807  32.503  31.582  10.451
74497W        W35808  14.709  32.441  11.429
74498W        W35809  36.882  41.305  12.374
74499W        W35810  26.998  44.992  12.084
74500W        W35811  13.708  35.091  12.935
74501W        W35812  38.856   1.891   1.903
74502W        W35813   7.276   3.458  13.353
74503W        W35814  23.010  27.951   3.796
74504W        W35815  29.637  21.657  13.883
74505W        W35816  27.679  23.655   3.661
74506W        W35817  11.253  32.894  14.956
74507W        W35818   9.666   0.781   3.192
74508W        W35819  22.612  19.563  14.456
74509W        W35820   6.881  23.061   4.788
74510W        W35821  11.356  31.544  12.406
74511W        W35822  40.013  19.212  13.804
74512W        W35823   0.867  36.047   3.645
74513W        W35824  17.184  21.193  13.913
74514W        W35825  32.984   1.893  11.529
74515W        W35826  25.101  26.193   1.244
74516W        W35827   5.799  31.424   1.316
74517W        W35828   4.795   6.864   4.789
74518W        W35829  17.292  17.729   0.310
74519W        W35830  44.267  12.258  14.500
74520W        W35831  10.826  14.219  10.967
74521W        W35832  43.356   5.216   4.646
74522W        W35833  30.637  25.664   3.833
74523W        W35834  15.652  31.516   4.208
74524W        W35835   2.334  24.202  10.950
74525W        W35836  11.749  40.930   0.404
74526W        W35837  11.153  15.761  10.911
74527W        W35838  27.072  33.564  12.478
74528W        W35839  15.304  42.520   1.906
74529W        W35840  11.302   2.852   4.259
74530W        W35841  19.118  20.120   1.929
74531W        W35842  28.460  18.623   0.793
74532W        W35843  38.994  24.584   0.348
74533W        W35844  40.007  27.554   0.296
74534W        W35845  18.247   8.285   0.285
74535W        W35846  16.158  26.461   2.298
74536W        W35847   9.691  16.584   2.802
74537W        W35848   7.260  37.570   3.852
74538W        W35849  24.553  11.156   0.901
74539W        W35850   3.221  41.976  12.918
74540W        W35851  43.454   6.253  11.931
74541W        W35852  12.361  17.769   1.275
74542W        W35853  29.537  26.531   2.241
74543W        W35854  25.996  13.816   0.285
74544W        W35855  13.310  18.200  10.947
74545W        W35856  41.517  32.946  10.920
74546W        W35857   7.293  38.523   1.267
74547W        W35858  22.509  12.731  11.484
74548W        W35859  43.376  32.486  12.995
74549W        W35860  21.257  12.828  10.968
74550W        W35861  11.260  17.087  13.470
74551W        W35862   2.804  41.340   1.931
74552W        W35863  36.413  29.434   2.351
74553W        W35864  41.378  14.678   1.846
74554W        W35865  10.684  40.926  14.852
74555W        W35866  14.280   2.806   0.384
74556W        W35867  11.130  29.607   2.340
74557W        W35868   4.424   4.376  10.590
74558W        W35869  41.352  37.008   3.748
74559W        W35870   4.734  28.513  14.513
74560W        W35871   0.398  23.233  10.447
74561W        W35872  19.677  39.908   2.267
74562W        W35873  16.287  32.450  13.535
74563W        W35874  31.414  43.823   2.820
74564W        W35875  41.845  13.761  11.481
74565W        W35876  29.646   7.349   1.853
74566W        W35877  20.032  23.206   4.144
74567W        W35878  29.597  15.611  11.501
74568W        W35879  34.584   4.316   3.199
74569W        W35880   1.388  40.000   2.781
74570W        W35881  34.950  35.881   3.264
74571W        W35882  17.263  18.667   3.675
74572W        W35883  31.402  29.604   4.660
74573W        W35884  19.096  10.777  12.541
74574W        W35885  18.665   6.348   4.675
74575W        W35886  21.600  17.769  10.415
74576W        W35887  36.545  28.114  13.863
74577W        W35888  32.983  22.038   3.639
74578W        W35889  22.606  36.422  11.082
74579W        W35890  18.214   2.399  11.965
74580W        W35891  24.677   0.745  10.901
74581W        W35892   5.723   2.453   0.356
74582W        W35893  42.385  37.045  14.914
74583W        W35894  22.217   5.769  14.384
74584W        W35895  12.774  28.603  10.634
74585W        W35896  23.588  33.981   3.649
74586W        W35897  16.649  42.435   1.884
74587W        W35898   8.839  13.614  13.817
74588W        W35899  27.524  18.791   4.169
74589W        W35900   9.256   0.406   2.196
74590W        W35901  42.943   1.744   0.454
74591W        W35902  34.605   3.277  10.967
74592W        W35903  16.625  24.616  13.362
74593W        W35904  21.077   4.703   4.220
74594W        W35905   6.292   4.707   1.216
74595W        W35906  24.010  32.952  10.940
74596W        W35907  25.965  20.684  11.895
74597W        W35908   5.879  42.934   3.746
74598W        W35909  28.484   4.349   4.320
74599W        W35910  18.143  34.503   1.350
74600W        W35911   0.326  30.487   1.900
74601W        W35912  28.163  28.082  12.846
74602W        W35913  23.617   3.880   4.765
74603W        W35914  33.057  12.124  12.476
74604W        W35915  39.318   2.790  13.015
74605W        W35916  33.468  29.159  10.912
74606W        W35917  27.463  22.560   4.723
74607W        W35918  19.743  29.496   0.346
74608W        W35919  35.362  19.744   4.604
74609W        W35920   3.233  31.457  13.899
74610W        W35921   5.432  40.354   0.875
74611W        W35922  32.589   9.275  12.827
74612W        W35923  42.370  31.145  14.313
74613W        W35924  16.796   1.782   1.913
74614W        W35925  30.988  38.564   4.808
74615W        W35926  18.694  41.508  11.034
74616W        W35927   5.768  34.436   3.314
74617W        W35928  37.928  40.535   5.662
74618W        W35929  35.955  30.447  14.985
74619W        W35930  18.281  21.586  14.018
74620W        W35931  30.142  20.271   3.744
74621W        W35932   2.293   3.430   4.753
74622W        W35933  27.544  10.325   3.195
74623W        W35934  10.353  33.026  11.966
74624W        W35935  26.671  25.149  14.988
74625W        W35936  37.916  26.009   2.726
74626W        W35937  18.162  44.002   1.704
74627W        W35938  25.525  36.926   3.666
74628W        W35939  22.034  35.911   2.844
74629W        W35940   0.376  14.618   0.344
74630W        W35941  43.436  27.593  14.852
74631W        W35942  33.013  14.195   2.891
74632W        W35943  33.475  19.685  10.060
74633W        W35944  33.626  22.247   2.822
74634W        W35945  44.813  44.955   4.184
74635W        W35946  13.191   3.819  13.314
74636W        W35947  29.949  31.077   1.277
74637W        W35948  20.677  12.708  13.892
74638W        W35949  21.627   4.765   2.367
74639W        W35950  13.242  13.670   3.801
74640W        W35951  31.422  30.961  14.360
74641W        W35952  18.203   4.862   2.207
74642W        W35953  27.057  10.750  14.809
74643W        W35954  17.087  13.803   1.256
74644W        W35955  23.527  18.068   5.703
74645W        W35956   7.746  44.799  12.931
74646W        W35957   1.770  38.397  10.891
74647W        W35958  20.545  14.818  13.045
74648W        W35959  32.603  24.721  13.533
74649W        W35960   4.383  25.043  11.922
74650W        W35961  39.055  38.431   1.791
74651W        W35962   9.359  27.472  12.350
74652W        W35963  24.698  38.938   0.829
74653W        W35964   8.285  17.240   1.905
74654W        W35965   6.697  14.688   2.193
74655W        W35966  28.169  21.691  10.636
74656W        W35967  15.657   7.802   2.220
74657W        W35968  30.518  31.137  12.480
74658W        W35969  43.372   5.756   0.253
74659W        W35970  24.134   7.851  13.823
74660W        W35971   1.970   6.708  13.843
74661W        W35972  38.861  22.725   2.833
74662W        W35973   1.456  41.856   0.784
74663W        W35974  31.121  35.040   5.268
74664W        W35975  18.593   0.310  13.446
74665W        W35976  33.112   2.900  10.982
74666W        W35977  17.207  22.725   3.803
74667W        W35978  39.550  31.536  13.889
74668W        W35979   6.826  39.528  14.780
74669W        W35980  21.201   0.470  14.890
74670W        W35981  18.216   7.825  11.417
74671W        W35982   3.292  30.958   2.300
74672W        W35983  43.829  36.892   4.244
74673W        W35984  28.637  39.893  14.929
74674W        W35985   2.863   8.253  12.860
74675W        W35986   6.394  38.337  10.529
74676W        W35987  44.444  31.567   4.837
74677W        W35988  12.259   6.311  11.867
74678W        W35989  23.045   2.768  13.537
74679W        W35990   0.840  35.470   2.372
74680W        W35991  35.405  10.367   4.651
74681W        W35992  27.515  35.934   2.200
74682W        W35993  43.788  26.961   3.227
74683W        W35994  40.312  44.908   1.824
74684W        W35995  41.819  16.598  10.407
74685W        W35996   4.223  42.811  13.906
74686W        W35997  21.063  32.520   0.754
74687W        W35998  28.067  15.816   3.192
74688W        W35999  13.233  37.069  14.316
74689W        W36000  26.006  27.116  12.006
74690W        W36001  29.096  40.483  10.931
74691W        W36002  33.962  44.425  12.048
74692W        W36003   7.292   1.792  13.053
74693W        W36004   6.247  35.106   5.268
74694W        W36005  17.118  40.009   3.793
74695W        W36006  17.624  32.550   3.161
74696W        W36007   2.947   9.786   0.895
74697W        W36008  30.036   0.855  11.990
74698W        W36009  20.099  34.483   3.182
74699W        W36010   8.791  13.312   3.284
74700W        W36011  36.542   6.718  13.343
74701W        W36012  43.443  35.001   4.340
74702W        W36013   5.307  26.197   3.218
74703W        W36014  43.972   9.870   0.465
74704W        W36015  17.215  39.377   1.212
74705W        W36016   1.941  41.967  10.888
74706W        W36017  11.179   9.288  11.074
74707W        W36018  43.471   0.275   2.761
74708W        W36019  42.979  13.611   0.875
74709W        W36020  34.425  24.650   2.676
74710W        W36021  17.250  43.807  10.463
74711W        W36022  10.638  39.535   0.348
74712W        W36023  22.629   5.758   3.638
74713W        W36024  16.305  38.971  13.959
74714W        W36025  22.747  32.924  12.848
74715W        W36026  33.107  39.959  10.918
74716W        W36027  33.900   3.803   0.745
74717W        W36028   4.366  17.062  11.989
74718W        W36029   8.338  12.757  14.298
74719W        W36030   3.874  30.917   3.168
74720W        W36031  19.234  44.457  11.425
74721W        W36032  12.657  33.574  13.874
74722W        W36033  37.981  22.741   1.918
74723W        W36034   1.304  20.538   1.407
74724W        W36035   1.741   7.823   2.232
74725W        W36036  19.770  19.145  13.532
74726W        W36037  44.956   4.336   3.385
74727W        W36038  38.061   7.239   3.765
74728W        W36039  29.158  31.546  10.984
74729W        W36040  12.805  24.520   2.415
74730W        W36041  23.088  13.776   1.246
74731W        W36042  17.779  22.629   2.218
74732W        W36043   1.969  18.292   4.248
74733W        W36044  29.946  14.601   1.301
74734W        W36045  38.929  13.808   2.831
74735W        W36046  29.937  28.493  13.499
74736W        W36047  24.040   6.818   3.195
74737W        W36048  23.989  35.400  10.559
74738W        W36049  21.755   9.284  11.459
74739W        W36050   6.746   1.356   0.413
74740W        W36051  29.630   6.303  13.822
74741W        W36052  12.206   3.449  12.965
74742W        W36053  43.369   1.398  10.557
74743W        W36054   4.914   6.889  10.053
74744W        W36055  16.584  12.825  13.931
74745W        W36056   8.795   3.361   3.826
74746W        W36057   6.679  17.739   3.336
74747W        W36058  33.435  23.128  11.427
74748W        W36059   1.952  27.146  13.310
74749W        W36060  14.118  31.630   2.265
74750W        W36061   3.841  33.966  10.914
74751W        W36062  40.974  11.190   1.795
74752W        W36063  43.001  30.050   3.635
74753W        W36064  25.525  43.802   1.429
74754W        W36065  17.070  24.493   1.406
74755W        W36066  44.816  30.596  13.019
74756W        W36067  14.660   0.379   3.665
74757W        W36068  28.145   1.313   1.369
74758W        W36069  15.766  36.523   1.244
74759W        W36070   1.481  40.911   4.241
74760W        W36071   0.327  28.442  12.991
74761W        W36072   0.434   7.697   0.846
74762W        W36073  28.623  14.777   3.694
74763W        W36074  15.577  13.826   5.617
74764W        W36075  33.541  23.714   9.994
74765W        W36076  19.666   3.728  14.301
74766W        W36077  15.715  29.457   5.253
74767W        W36078  33.117   2.912  12.570
74768W        W36079  19.725   1.326  14.300
74769W        W36080  11.216  15.111   1.866
74770W        W36081   9.225  19.556  10.919
74771W        W36082  13.219  15.249   1.836
74772W        W36083  30.087  20.645  12.014
74773W        W36084  29.073  38.413  12.419
74774W        W36085  42.895  36.453   0.256
74775W        W36086  10.197  34.518   3.264
74776W        W36087  13.641   2.297   0.460
74777W        W36088  16.157  15.167  13.485
74778W        W36089  14.320   1.885   5.113
74779W        W36090  35.604  28.116  13.992
74780W        W36091  34.410  41.455   4.767
74781W        W36092   6.325  30.161   0.951
74782W        W36093  12.312   3.728   3.750
74783W        W36094  20.537  33.474  10.034
74784W        W36095  24.590  23.027   3.768
74785W        W36096  34.462  11.175  14.797
74786W        W36097   2.459  29.426  14.814
74787W        W36098  41.458  14.267   4.212
74788W        W36099   9.668  43.322   1.257
74789W        W36100  18.271   9.679  10.565
74790W        W36101  30.972  15.202  13.375
74791W        W36102  35.875  29.144  11.910
74792W        W36103   1.913  38.553  13.858
74793W        W36104  34.003  29.095  14.906
74794W        W36105  16.752  39.478   4.667
74795W        W36106   4.742   6.395  12.911
74796W        W36107  34.531  33.428  13.971
74797W        W36108  15.674   4.794  14.967
74798W        W36109  39.039  43.432   2.675
74799W        W36110  12.238   9.338  14.882
74800W        W36111  14.616  42.881   2.341
74801W        W36112  12.624   0.253  14.451
74802W        W36113  39.344   0.336  13.310
74803W        W36114  31.015   3.876  12.453
74804W        W36115  19.555  17.742   0.834
74805W        W36116  11.715  32.004   4.680
74806W        W36117  22.239  14.141   0.350
74807W        W36118   6.880  11.263  13.418
74808W        W36119  11.731   8.846   1.879
74809W        W36120   4.794   5.252   3.737
74810W        W36121  18.676   6.744   1.424
74811W        W36122  17.675   6.217   3.863
74812W        W36123   7.709  22.562   4.782
74813W        W36124  25.135  22.075   4.681
74814W        W36125  12.837  43.919  12.941
74815W        W36126  33.434  34.945  12.374
74816W        W36127  13.124  26.585  14.888
74817W        W36128  23.590  40.313   3.791
74818W        W36129   8.219   6.866  14.346
74819W        W36130  38.044   0.810   0.808
74820W        W36131  18.606  30.128  14.017
74821W        W36132  42.026  30.637   0.957
74822W        W36133   4.849  40.427   2.404
74823W        W36134  44.322  37.429   9.953
74824W        W36135  41.910  36.037  14.840
74825W        W36136   8.204  39.883   0.269
74826W        W36137  44.259  41.323  11.857
74827W        W36138   3.359  13.119   1.918
74828W        W36139  27.584  12.691  11.115
74829W        W36140  31.435   0.444   1.219
74830W        W36141  11.153  41.383  11.912
74831W        W36142   6.415  29.060   4.347
74832W        W36143  42.020   8.223  13.049
74833W        W36144  21.215  10.253  13.466
74834W        W36145  27.080  17.799  14.764
74835W        W36146  28.967   7.773   2.281
74836W        W36147   9.214   7.334  13.371
74837W        W36148  28.485  26.563  14.308
74838W        W36149  16.735  16.573  14.469
74839W        W36150  18.104  42.020   1.866
74840W        W36151  37.867  41.422  14.347
74841W        W36152  36.886  36.405  12.438
74842W        W36153  35.104  25.187  11.018
74843W        W36154  34.593   8.655   3.722
74844W        W36155  10.178  38.480  11.084
74845W        W36156  28.510  43.395   2.820
74846W        W36157  27.949  35.076   3.871
74847W        W36158  43.997   3.299   4.693
74848W        W36159  22.595  23.039  13.898
74849W        W36160  14.639  18.656   2.226
74850W        W36161  16.156  35.391   3.382
74851W        W36162   1.375  42.978   3.293
74852W        W36163  32.979  14.140  14.409
74853W        W36164  32.500  32.051  14.330
74854W        W36165  34.073  14.595  14.861
74855W        W36166   4.396  14.598   3.192
74856W        W36167  23.508   1.315   3.692
74857W        W36168  16.668  22.138  14.775
74858W        W36169  30.132   0.441  14.986
74859W        W36170   2.736   4.719   4.136
74860W        W36171  10.733  35.484   1.779
74861W        W36172  15.251  19.666  13.481
74862W        W36173  41.410  42.365   2.715
74863W        W36174  39.901  10.221  11.082
74864W        W36175  30.457  26.082  12.947
74865W        W36176  26.530   0.297  14.335
74866W        W36177  35.554  41.513   2.418
74867W        W36178  18.693  22.741  14.957
74868W        W36179  10.254  24.693   1.415
74869W        W36180   9.150  39.843   0.942
74870W        W36181  26.147  17.224   1.874
74871W        W36182   8.719  35.422   0.315
74872W        W36183  29.491  27.507  11.122
74873W        W36184  44.835  34.393  11.940
74874W        W36185   4.831  26.194   0.287
74875W        W36186  18.656  44.364  11.958
74876W        W36187  23.050  20.724  13.450
74877W        W36188  33.018  41.961  12.924
74878W        W36189  27.662   9.295   3.314
74879W        W36190  16.597   9.810  12.530
74880W        W36191   8.251  10.856  14.332
74881W        W36192   5.206  37.486  11.911
74882W        W36193   9.860  40.505  12.471
74883W        W36194  22.190  12.763  10.405
74884W        W36195  26.555  42.330  11.902
74885W        W36196  28.458  16.670  11.380
74886W        W36197  38.935  23.696  12.513
74887W        W36198  17.285  24.007   2.221
74888W        W36199  23.645  13.281  13.951
74889W        W36200  40.014  18.142   0.251
74890W        W36201  27.624  42.026   1.446
74891W        W36202  35.397   0.437  14.505
74892W        W36203  16.590  19.684  13.897
74893W        W36204  18.631  32.945   2.712
74894W        W36205  32.545  18.174   4.325
74895W        W36206  35.364  39.494  14.276
74896W        W36207  35.075  26.030   2.199
74897W        W36208   8.396  38.416  12.506
74898W        W36209   7.401  14.697   1.416
74899W        W36210   8.867  25.702  10.932
74900W        W36211  31.969  36.434   2.269
74901W        W36212   7.745   8.285  11.396
74902W        W36213   9.727   4.305  12.476
74903W        W36214  42.863   9.864  11.044
74904W        W36215  40.417  41.440  13.485
74905W        W36216  35.363  36.494   3.747
74906W        W36217  39.030   1.442   3.281
74907W        W36218  35.482  22.176   0.759
74908W        W36219   7.784  21.671   2.827
74909W        W36220   2.836   2.238   0.334
74910W        W36221  11.644   9.168  12.079
74911W        W36222  30.572  25.033  10.549
74912W        W36223   4.402   9.792  10.583
74913W        W36224   2.723  13.287   1.824
74914W        W36225  41.796  20.058  11.520
74915W        W36226  23.712  15.216   0.813
74916W        W36227  15.290  15.268  10.506
74917W        W36228   2.956   1.828  10.536
74918W        W36229  29.561  44.846   3.765
74919W        W36230   0.398  24.193  11.870
74920W        W36231  31.094  17.593  13.873
74921W        W36232  35.039  22.639   3.264
74922W        W36233   0.437  14.283   1.790
74923W        W36234  27.152  10.751  12.524
74924W        W36235  25.188   0.759   4.116
74925W        W36236  29.528   4.919   5.238
74926W        W36237  20.669  28.623   9.571
74927W        W36238  35.019  34.566  14.025
74928W        W36239  33.539   3.887  10.991
74929W        W36240  22.164  34.507   4.348
74930W        W36241  33.614  15.097   0.248
74931W        W36242  22.678   7.832   0.745
74932W        W36243   1.266   5.309  13.350
74933W        W36244  22.648  41.787   2.864
74934W        W36245  30.087  16.613  13.307
74935W        W36246  32.520  23.528  13.314
74936W        W36247  12.832  10.838  13.465
74937W        W36248  31.452  19.119  12.941
74938W        W36249  22.607   6.763  11.564
74939W        W36250  44.973   7.301   2.377
74940W        W36251  19.654  31.625   3.707
74941W        W36252  41.028  23.177   4.261
74942W        W36253  12.351  43.921   4.673
74943W        W36254  30.474   1.913   2.667
74944W        W36255  34.008  23.590  11.591
74945W        W36256  18.637  32.485  10.896
74946W        W36257  15.726  19.593   2.860
74947W        W36258   5.792   4.698   2.753
74948W        W36259  22.565  16.270  14.399
74949W        W36260  16.589  40.358  12.843
74950W        W36261  30.020  33.522   4.717
74951W        W36262  31.029   4.418   2.743
74952W        W36263  16.628  41.807   4.299
74953W        W36264  38.401  18.756   0.337
74954W        W36265  12.245  12.671   0.933
74955W        W36266  16.765  32.557  11.573
74956W        W36267  35.381  35.092   0.959
74957W        W36268   5.855   3.946   2.303
74958W        W36269  38.439  15.579   1.715
74959W        W36270  39.521  23.113   3.769
74960W        W36271  27.673  23.086  12.929
74961W        W36272  32.567  29.607  14.948
74962W        W36273   7.822  35.959  14.840
74963W        W36274  21.564  10.321   4.353
74964W        W36275   6.788  26.665   1.416
74965W        W36276  18.218  10.235   3.354
74966W        W36277  15.218  37.972  13.334
74967W        W36278  24.177   2.837  14.891
74968W        W36279  13.801  13.662   3.228
74969W        W36280  41.402   0.980  13.318
74970W        W36281  31.634  16.144  14.890
74971W        W36282  36.953  27.469   0.268
74972W        W36283  31.069  13.620  12.032
74973W        W36284  18.614   6.364   0.946
74974W        W36285  41.324  37.996   2.396
74975W        W36286  18.663   4.218  12.954
74976W        W36287  14.105  29.168   1.696
74977W        W36288   5.723  26.047   2.388
74978W        W36289  34.516  20.156   0.806
74979W        W36290  27.678  29.509  14.783
74980W        W36291  17.610  36.512   1.923
74981W        W36292   1.238  21.177   2.888
74982W        W36293  23.523  36.942   4.130
74983W        W36294  17.110  20.049   1.334
74984W        W36295  26.580  37.869  11.502
74985W        W36296  28.444  35.493   3.357
74986W        W36297  28.036  13.759  10.629
74987W        W36298  31.639  13.618  10.494
74988W        W36299  24.185  32.018   2.357
74989W        W36300  37.892  21.725  11.100
74990W        W36301  28.479  14.602  13.930
74991W        W36302  25.643  43.016   4.185
74992W        W36303  31.567  23.595   2.242
74993W        W36304  43.968  20.689  11.966
74994W        W36305  21.207  44.399  13.518
74995W        W36306  16.317   6.804   1.874
74996W        W36307  20.227  44.948   4.788
74997W        W36308  42.413  38.392   4.346
74998W        W36309   6.188  14.173   1.344
74999W        W36310  17.752  21.138  11.017
75000W        W36311  12.719  41.795  12.503
75001W        W36312  23.147  32.091  13.358
75002W        W36313  31.429  27.604  14.955
75003W        W36314  41.843   2.786  11.057
75004W        W36315  13.792  11.730  10.464
75005W        W36316  24.185  32.037  10.502
75006W        W36317  40.868  12.646  14.885
75007W        W36318  33.071  27.557   1.861
75008W        W36319  16.202   3.919   3.373
75009W        W36320  27.996  23.985   1.433
75010W        W36321  29.582  34.503   1.382
75011W        W36322  44.266  31.495  12.078
75012W        W36323  24.139   2.398  10.433
75013W        W36324  23.667  23.225   2.822
75014W        W36325  11.316  34.913   2.734
75015W        W36326  13.635  33.046  14.367
75016W        W36327  12.355  21.203   1.376
75017W        W36328   5.432  42.478  10.961
75018W        W36329  16.229  39.467   2.277
75019W        W36330  41.345  42.523  14.412
75020W        W36331  15.111   5.277   1.224
75021W        W36332  10.355  19.202   4.335
75022W        W36333  24.049  34.066   9.450
75023W        W36334   7.779  27.509   4.196
75024W        W36335  12.815   4.719  14.835
75025W        W36336  18.730  38.941  12.840
75026W        W36337  30.992  25.149  14.852
75027W        W36338  34.093  18.621   1.885
75028W        W36339  23.508  18.230   1.298
75029W        W36340  32.048  28.664  14.772
75030W        W36341  33.875  41.999   1.826
75031W        W36342  26.500  42.379   1.449
75032W        W36343  21.153  32.427  12.559
75033W        W36344  36.941  44.271  11.975
75034W        W36345  21.145   9.228   0.734
75035W        W36346  19.127  36.968   0.912
75036W        W36347  34.033   0.840  11.982
75037W        W36348   8.821  25.060  12.466
75038W        W36349  41.842  24.048   4.690
75039W        W36350  20.038  32.013   4.731
75040W        W36351  26.197  36.407  12.948
75041W        W36352  16.287   0.486   1.736
75042W        W36353  23.705  33.977  14.801
75043W        W36354  14.308  41.442   3.356
75044W        W36355   0.930  11.304   3.812
75045W        W36356   7.792  30.050  12.363
75046W        W36357  13.671  26.028   3.814
75047W        W36358  42.285   5.323   3.376
75048W        W36359   5.818   0.483   3.809
75049W        W36360   6.245   9.723  11.037
75050W        W36361  14.608   0.934   0.406
75051W        W36362  18.684  27.170  14.390
75052W        W36363  15.711   9.224   2.340
75053W        W36364   1.465   5.800  10.450
75054W        W36365  19.077   1.281   2.257
75055W        W36366  32.888  21.690   3.831
75056W        W36367   5.775  15.700  13.964
75057W        W36368  29.997   2.919   3.168
75058W        W36369   0.438  31.459   3.736
75059W        W36370   4.348  22.702   1.735
75060W        W36371  26.664  24.007  12.940
75061W        W36372  35.369  19.548   5.296
75062W        W36373  36.544  14.663  11.098
75063W        W36374  21.750  40.419   5.669
75064W        W36375  10.249  43.768   2.205
75065W        W36376   1.846  42.914  10.520
75066W        W36377   3.735  15.184  11.991
75067W        W36378  20.124  19.212   2.711
75068W        W36379  34.504  10.713   0.393
75069W        W36380  15.271  43.371  14.024
75070W        W36381  35.862  39.316   2.709
75071W        W36382  22.073  44.451  14.000
75072W        W36383  10.723  22.139  10.420
75073W        W36384  42.000  11.837  14.942
75074W        W36385  44.868  15.153  11.398
75075W        W36386  32.974  37.456   4.193
75076W        W36387   6.882  16.169  12.085
75077W        W36388  34.611  10.189   2.899
75078W        W36389  36.378  18.265  12.063
75079W        W36390  26.595  20.168   4.813
75080W        W36391  20.255   0.251   2.226
75081W        W36392  32.633   3.752   2.319
75082W        W36393  27.110  15.806  10.907
75083W        W36394  28.445  36.853  11.879
75084W        W36395   1.326  10.351  14.813
75085W        W36396  24.148  15.318   2.788
75086W        W36397  31.067  18.238   4.625
75087W        W36398   1.750  14.616  10.950
75088W        W36399  38.907  40.994  13.965
75089W        W36400   8.170  20.048  10.907
75090W        W36401  38.882   8.660  11.504
75091W        W36402   8.775   1.297   3.327
75092W        W36403   6.783   9.342   1.285
75093W        W36404   4.759  42.284  13.003
75094W        W36405  40.941  21.185  13.822
75095W        W36406  28.036  10.177  11.036
75096W        W36407   3.237  37.841   3.864
75097W        W36408  14.821  10.206   4.652
75098W        W36409  14.095  33.618  14.426
75099W        W36410   5.230  38.899   4.641
75100W        W36411  25.662   7.267   0.952
75101W        W36412  32.471  25.054  14.844
75102W        W36413  29.066   2.358   2.774
75103W        W36414  37.342  27.578   0.879
75104W        W36415  23.989   0.471  14.480
75105W        W36416  37.576   8.716   3.327
75106W        W36417  43.308  38.384   2.194
75107W        W36418  25.103  17.760   1.771
75108W        W36419  38.341  26.099  10.481
75109W        W36420   2.857  24.018  12.439
75110W        W36421  17.187  11.834  13.469
75111W        W36422  31.436  37.850  14.476
75112W        W36423   2.342  13.258   2.291
75113W        W36424  24.027  30.504   4.221
75114W        W36425  10.690  25.534   2.772
75115W        W36426   8.402   3.326   5.189
75116W        W36427  17.297  21.753  10.483
75117W        W36428  18.247  17.669  12.037
75118W        W36429  44.263  24.220   3.738
75119W        W36430  12.340  29.037   1.827
75120W        W36431  37.965  35.515  13.326
75121W        W36432  21.663  20.111  10.421
75122W        W36433  43.790  34.011   4.221
75123W        W36434  35.109  24.024  11.063
75124W        W36435  36.918   9.365   0.894
75125W        W36436  23.029  40.888  12.017
75126W        W36437  37.436  39.324  12.074
75127W        W36438  40.926   6.751  13.530
75128W        W36439   1.427  25.218  13.024
75129W        W36440   7.273  35.488   4.204
75130W        W36441  40.442  34.893  14.494
75131W        W36442  36.944  19.697  14.808
75132W        W36443  35.075   8.198  13.027
75133W        W36444  41.920   2.255   3.699
75134W        W36445   6.364  27.103   0.290
75135W        W36446  34.977   4.301   0.924
75136W        W36447  23.666   3.886   0.918
75137W        W36448   0.931  28.978   3.805
75138W        W36449   5.778   5.428  13.957
75139W        W36450   5.358  12.836   3.225
75140W        W36451  33.616  10.840   2.902
75141W        W36452  20.581  15.300  13.883
75142W        W36453  29.977   3.336  10.917
75143W        W36454  35.973  37.057  13.821
75144W        W36455  38.965  39.383  13.898
75145W        W36456  12.185  13.161   4.168
75146W        W36457   8.352  11.288   1.414
75147W        W36458   9.744   5.254  13.029
75148W        W36459  43.012   1.911   3.856
75149W        W36460  20.723  12.223   3.203
75150W        W36461   6.321  24.202   0.350
75151W        W36462  21.532  32.944  11.085
75152W        W36463  10.716   6.316  14.411
75153W        W36464  12.633   6.844  13.921
75154W        W36465  37.372  31.454  12.526
75155W        W36466  15.595   5.722   4.159
75156W        W36467  15.668   8.272  13.027
75157W        W36468  42.799  28.574  12.085
75158W        W36469  44.961   4.338   0.364
75159W        W36470  44.492  27.647  14.863
75160W        W36471  11.288  14.785  10.476
75161W        W36472  16.783   8.235   3.176
75162W        W36473   8.380  26.023   4.234
75163W        W36474   7.809  37.895  14.398
75164W        W36475  37.355  39.558   2.310
75165W        W36476  35.028  11.747   5.267
75166W        W36477  35.978  23.489   1.411
75167W        W36478  14.827  34.960   2.204
75168W        W36479  16.653  30.059   0.440
75169W        W36480   8.851  18.051  10.946
75170W        W36481   5.738  37.951  12.530
75171W        W36482  11.779   0.314  14.843
75172W        W36483   9.662  32.526  12.928
75173W        W36484  43.992  21.049   0.353
75174W        W36485   7.857   4.344   3.728
75175W        W36486   2.265   5.792   4.119
75176W        W36487  29.144  34.873  13.952
75177W        W36488   7.821  33.111  14.955
75178W        W36489  20.174  44.349   0.831
75179W        W36490  22.194  31.586   4.746
75180W        W36491  39.469   4.273  11.396
75181W        W36492   9.818  29.429  14.277
75182W        W36493  18.130  36.408   4.174
75183W        W36494  39.400  37.971  12.486
75184W        W36495   7.812  19.089  12.400
75185W        W36496  41.010   8.392  12.493
75186W        W36497   9.386  22.547   3.652
75187W        W36498  24.132  17.293  14.878
75188W        W36499  40.505  42.397   4.813
75189W        W36500   5.387  20.701   0.267
75190W        W36501  24.983  31.134  13.362
75191W        W36502  18.244  42.779  12.969
75192W        W36503  11.829  13.218   3.235
75193W        W36504   3.817  14.686   3.356
75194W        W36505  36.884  23.684   2.852
75195W        W36506  20.135  24.044   3.861
75196W        W36507  29.125   3.230  12.413
75197W        W36508  20.637  27.967  14.351
75198W        W36509  23.031   9.349  12.092
75199W        W36510  18.686  32.083   3.255
75200W        W36511  15.750  19.549   3.634
75201W        W36512  41.988  31.545  12.435
75202W        W36513  11.695   3.870   2.828
75203W        W36514  13.725   8.225   1.391
75204W        W36515   8.277  23.595   1.309
75205W        W36516  18.247  43.936   2.671
75206W        W36517  31.404  19.695  11.092
75207W        W36518  43.015  18.096   0.362
75208W        W36519  23.114  16.724   0.292
75209W        W36520  37.064  12.736  14.903
75210W        W36521  33.574  40.948  13.814
75211W        W36522  10.313  28.138  11.972
75212W        W36523  16.256  22.735  14.312
75213W        W36524   0.383  36.448  12.424
75214W        W36525  27.089  18.202  13.839
75215W        W36526  28.015  27.093  11.007
75216W        W36527  35.926   2.420   0.400
75217W        W36528   6.392   8.863   5.313
75218W        W36529   1.862  41.968   0.432
75219W        W36530  30.639  39.950  12.845
75220W        W36531   1.893   1.275   1.889
75221W        W36532  35.505  21.634  14.431
75222W        W36533  14.222  12.771   1.726
75223W        W36534   3.845  14.723  14.991
75224W        W36535   4.261  37.487   3.324
75225W        W36536  42.981  26.990  14.856
75226W        W36537  41.444  41.361  12.574
75227W        W36538  29.518  16.190   1.407
75228W        W36539  22.553  31.598  13.513
75229W        W36540  24.562  32.584  12.915
75230W        W36541   8.378   8.302   2.838
75231W        W36542  24.593  16.639   4.325
75232W        W36543   4.905  21.712   1.871
75233W        W36544  23.664   4.330   0.334
75234W        W36545  23.989  30.592  10.546
75235W        W36546   2.756  34.574   4.820
75236W        W36547  32.409  44.904  10.921
75237W        W36548  29.145  11.700   2.402
75238W        W36549  11.761  34.559  14.361
75239W        W36550  44.448  29.920   1.800
75240W        W36551  11.236   3.812  14.003
75241W        W36552   1.275  34.866  10.525
75242W        W36553  26.073  18.118   4.151
75243W        W36554  18.732  17.791   3.247
75244W        W36555   0.765  18.227  11.002
75245W        W36556  22.211  32.479  14.024
75246W        W36557  30.555  42.457   1.323
75247W        W36558   4.886  34.954  13.032
75248W        W36559   0.987  28.176  11.550
75249W        W36560  37.542  44.877  11.485
75250W        W36561  24.072  30.526   0.297
75251W        W36562  37.867   6.386   1.244
75252W        W36563  23.078  11.303  14.834
75253W        W36564  25.574   0.805   1.907
75254W        W36565  12.758  36.579   0.332
75255W        W36566  40.422  20.666   0.429
75256W        W36567  36.515  38.415   1.226
75257W        W36568  39.358  32.622   4.326
75258W        W36569  25.172   0.762   1.734
75259W        W36570   6.757  41.853  11.914
75260W        W36571   0.400  25.471   1.716
75261W        W36572  34.585  43.369   0.864
75262W        W36573  25.710  32.971   2.752
75263W        W36574  25.176  27.037  14.435
75264W        W36575   1.380  21.733   1.733
75265W        W36576  11.202  12.358   0.927
75266W        W36577  34.586   6.788   0.830
75267W        W36578  20.216  27.121  11.385
75268W        W36579  18.746  26.592   2.357
75269W        W36580  37.871  13.282  12.004
75270W        W36581   0.797  10.219  12.426
75271W        W36582  20.055  24.617  12.020
75272W        W36583  27.450  44.359  12.980
75273W        W36584   2.793   0.771   2.307
75274W        W36585   1.932  21.175  13.926
75275W        W36586  14.678  25.634  11.043
75276W        W36587  24.183  19.068  13.376
75277W        W36588  40.498  42.781  14.296
75278W        W36589  41.998  31.012  14.482
75279W        W36590  41.514   4.239   4.194
75280W        W36591   5.345  36.380   1.409
75281W        W36592  10.259  42.980   4.819
75282W        W36593   5.388  32.467  14.925
75283W        W36594  19.252  22.171  14.949
75284W        W36595  28.054  36.500   1.751
75285W        W36596  15.680   7.355  10.491
75286W        W36597  18.225  17.800   4.328
75287W        W36598   1.969  29.089  13.049
75288W        W36599  42.006  11.743   4.603
75289W        W36600  27.161  10.179  10.534
75290W        W36601   1.341   5.227  14.294
75291W        W36602  26.645  19.278  14.978
75292W        W36603   0.310  16.258  11.550
75293W        W36604  12.630  25.177   0.766
75294W        W36605   5.203  43.498   0.390
75295W        W36606  14.626  30.099  14.916
75296W        W36607  18.647  35.997  11.923
75297W        W36608  17.259  28.988   1.217
75298W        W36609  18.246  41.366   2.870
75299W        W36610  15.587  31.450   1.303
75300W        W36611   7.265  44.438  11.427
75301W        W36612  43.280   3.775   1.874
75302W        W36613  18.089   9.389   1.247
75303W        W36614   7.895  16.630   1.906
75304W        W36615  34.886   5.782   3.670
75305W        W36616  15.260   0.443   0.953
75306W        W36617   4.206  36.457   3.870
75307W        W36618  19.239  13.284   1.422
75308W        W36619   9.709  14.257   2.215
75309W        W36620   7.875   7.171  10.115
75310W        W36621  33.519  12.631   1.319
75311W        W36622  26.137  37.011   3.844
75312W        W36623  27.679   2.435  10.956
75313W        W36624  15.116  20.679   4.257
75314W        W36625  18.208  31.039  13.484
75315W        W36626  37.387  35.497  14.312
75316W        W36627   4.397  27.495  12.470
75317W        W36628  34.920  44.496   5.276
75318W        W36629  39.445   2.421   3.826
75319W        W36630   4.853  36.018  10.463
75320W        W36631  39.547  11.769   2.389
75321W        W36632   8.375  30.109  11.975
75322W        W36633  12.657  34.013   0.911
75323W        W36634   9.308  18.788   3.321
75324W        W36635  42.969  28.646   2.714
75325W        W36636  24.174  31.096  11.039
75326W        W36637  15.254  30.056   3.712
75327W        W36638  15.132  36.074   2.896
75328W        W36639  30.646  23.026   2.899
75329W        W36640  14.299  30.580  13.457
75330W        W36641  43.386  28.572  12.492
75331W        W36642  39.054  32.983   3.784
75332W        W36643  14.764  11.750  13.880
75333W        W36644  20.590  15.586  13.489
75334W        W36645  26.521  20.626   4.628
75335W        W36646  18.548  26.659  14.943
75336W        W36647  19.759  16.115  10.549
75337W        W36648  24.690  10.232  14.824
75338W        W36649  32.952  34.091  13.505
75339W        W36650  41.841  21.029  12.020
75340W        W36651  26.690  19.671   3.299
75341W        W36652   5.725  14.718   5.757
75342W        W36653   3.942  22.010  13.347
75343W        W36654  21.662  30.995   2.679
75344W        W36655  15.274  38.071   4.613
75345W        W36656  11.734   4.350   4.305
75346W        W36657   0.456  38.016   1.351
75347W        W36658   6.302  25.558   4.771
75348W        W36659  17.607  22.558   2.781
75349W        W36660   9.383  36.398  12.042
75350W        W36661   3.338  19.174  13.313
75351W        W36662  20.741  10.198   1.215
75352W        W36663  29.987   2.796   4.751
75353W        W36664   8.698  27.457   0.338
75354W        W36665  44.373  40.015  11.456
75355W        W36666  34.875  37.009  10.615
75356W        W36667  35.499  26.511   2.788
75357W        W36668   7.839  33.902  12.913
75358W        W36669  39.911  38.468  10.977
75359W        W36670  15.628  15.087  12.020
75360W        W36671  36.553  23.010   4.620
75361W        W36672  35.546  18.217   1.735
75362W        W36673   5.895  19.120   1.362
75363W        W36674  23.720   0.931   1.737
75364W        W36675  29.423  11.349   4.278
75365W        W36676  28.655  34.036  13.315
75366W        W36677  39.387  15.630  13.897
75367W        W36678  37.551  39.462  13.452
75368W        W36679  11.693   4.262  11.096
75369W        W36680  27.143  18.627  14.836
75370W        W36681  27.566   0.446   0.412
75371W        W36682  20.686  13.623   5.721
75372W        W36683  22.580  17.091  14.914
75373W        W36684  10.193  27.164   4.837
75374W        W36685  26.493  28.512   4.746
75375W        W36686  13.764  12.611  12.373
75376W        W36687   4.925  28.486  13.510
75377W        W36688  38.833  24.658   9.996
75378W        W36689  27.581  12.661   3.221
75379W        W36690   5.692  24.643  12.892
75380W        W36691  19.611  43.922   1.373
75381W        W36692   0.774  40.908  13.816
75382W        W36693   9.195  39.941   1.786
75383W        W36694  13.130  20.059  11.048
75384W        W36695   8.373  40.455  11.510
75385W        W36696  24.199  12.219   3.319
75386W        W36697  21.556  40.886  13.848
75387W        W36698  38.921   7.271   3.373
75388W        W36699  14.806  32.981  11.483
75389W        W36700  22.145  26.134  11.060
75390W        W36701  35.898   7.310  11.095
75391W        W36702   6.194  32.398   4.675
75392W        W36703  20.707  21.616   2.183
75393W        W36704  32.612  17.267  11.974
75394W        W36705  41.480  21.547  12.005
75395W        W36706  22.740  44.287  10.644
75396W        W36707  18.292  23.693  12.886
75397W        W36708  38.029  42.347  12.026
75398W        W36709  18.691  15.107   5.777
75399W        W36710  44.479   8.860   5.204
75400W        W36711  14.194  11.718   2.194
75401W        W36712  10.714  22.610   9.956
75402W        W36713   0.986  24.131  14.487
75403W        W36714   1.966  41.388   0.441
75404W        W36715   2.277  23.522  14.426
75405W        W36716  19.612  14.777  14.312
75406W        W36717   2.333  25.081   3.315
75407W        W36718   8.679  10.729  11.879
75408W        W36719  29.043  22.061   0.337
75409W        W36720   8.229  24.126   2.294
75410W        W36721  37.335  25.684   0.473
75411W        W36722  21.262  14.319  10.623
75412W        W36723  16.229  35.898  10.996
75413W        W36724  10.734  24.193   2.666
75414W        W36725   2.266  17.759  11.008
75415W        W36726   7.765  12.350   4.715
75416W        W36727  19.545  12.221   2.871
75417W        W36728  22.082  12.241   2.891
75418W        W36729  16.590  14.660   2.341
75419W        W36730  26.154  30.533   1.277
75420W        W36731  25.057  33.888  14.347
75421W        W36732  41.882  17.065   3.866
75422W        W36733   4.755  15.247   0.805
75423W        W36734   8.244  42.300  13.022
75424W        W36735  36.411  29.492  12.975
75425W        W36736  34.436  31.504  14.305
75426W        W36737  17.685  15.177  13.494
75427W        W36738   9.855  27.510   0.339
75428W        W36739   9.738  42.482   3.279
75429W        W36740  25.557  43.487  10.934
75430W        W36741  24.122  43.935  12.373
75431W        W36742  38.560  10.866   3.354
75432W        W36743  12.645  43.423   3.822
75433W        W36744  12.230   9.244  12.479
75434W        W36745  16.687  44.360   3.788
75435W        W36746   2.429  44.424   1.802
75436W        W36747  43.308  30.554  12.397
75437W        W36748   1.378   6.368  11.602
75438W        W36749  11.352  20.251   1.704
75439W        W36750  38.059   6.722  14.493
75440W        W36751  34.105  29.488  13.414
75441W        W36752  12.617  30.511   0.252
75442W        W36753  10.718  39.893  10.950
75443W        W36754   1.763  22.507   4.764
75444W        W36755  22.746   8.675  10.128
75445W        W36756  26.648  28.118  10.625
75446W        W36757  39.338  22.017  11.458
75447W        W36758  35.954  29.477   3.201
75448W        W36759  13.179   3.300   2.692
75449W        W36760  25.216  27.630  11.592
75450W        W36761  29.527  34.534   3.239
75451W        W36762  17.183  26.691   2.376
75452W        W36763  39.938  10.685   2.664
75453W        W36764  34.504  19.264  14.914
75454W        W36765  34.453  41.487   3.810
75455W        W36766   3.237  40.311  10.918
75456W        W36767  32.904  25.535   1.750
75457W        W36768   3.310  13.324   4.733
75458W        W36769  19.769  26.032   3.324
75459W        W36770   1.760   0.359  10.926
75460W        W36771   5.364  30.064   1.275
75461W        W36772  15.724  10.843  10.419
75462W        W36773  24.637  30.054   2.810
75463W        W36774  10.352  40.852   0.817
75464W        W36775  15.114  42.018  13.886
75465W        W36776  12.152  27.135  10.118
75466W        W36777  39.333   5.878   1.314
75467W        W36778  44.890  38.395   3.179
75468W        W36779  11.835  17.283   0.775
75469W        W36780  22.177   9.227   2.238
75470W        W36781  14.745  39.855   0.858
75471W        W36782  30.643  35.939   1.739
75472W        W36783   0.413  25.578  12.069
75473W        W36784   0.929  34.867  14.901
75474W        W36785  18.775  35.009  12.502
75475W        W36786  36.448  17.231  11.551
75476W        W36787  32.122  40.543  12.344
75477W        W36788   1.315  12.321  12.079
75478W        W36789  10.721  38.056   2.731
75479W        W36790  26.134  20.720   4.687
75480W        W36791  33.931  18.606   2.314
75481W        W36792  13.653  13.825   3.866
75482W        W36793   4.844   6.242   4.728
75483W        W36794  39.451   1.433  14.957
75484W        W36795   3.385  13.323  11.049
75485W        W36796   2.900   1.323   0.360
75486W        W36797  12.778  16.660  13.045
75487W        W36798  14.217  38.890  11.443
75488W        W36799  23.078  10.171  10.499
75489W        W36800   9.300   4.263  10.507
75490W        W36801  26.584  19.051   3.652
75491W        W36802  16.163  18.681  12.055
75492W        W36803   5.263   6.696  10.497
75493W        W36804  26.682  21.214  10.059
75494W        W36805  38.899  24.976  14.847
75495W        W36806  14.655  36.450  12.938
75496W        W36807  30.499  42.305  13.973
75497W        W36808  24.006  23.195   3.333
75498W        W36809  33.987  32.470  14.963
75499W        W36810  17.571  43.982  10.597
75500W        W36811  21.169  10.841  12.431
75501W        W36812  24.982  34.438  14.374
75502W        W36813   8.218  31.413  14.414
75503W        W36814   4.780  30.601   4.192
75504W        W36815  30.980   8.214   3.776
75505W        W36816  32.936  10.721   4.832
75506W        W36817  19.162  22.721  11.096
75507W        W36818  33.475  17.288   3.150
75508W        W36819  29.663  35.960  14.307
75509W        W36820  11.316  44.419  14.874
75510W        W36821   1.771  26.696   2.405
75511W        W36822   6.784  23.533  13.025
75512W        W36823  42.815  19.197  10.604
75513W        W36824  29.580  36.036  10.622
75514W        W36825   6.825   3.784  14.401
75515W        W36826   3.442  29.640  12.934
75516W        W36827  11.283  43.277  10.627
75517W        W36828  10.637   9.216   4.220
75518W        W36829   1.329  25.615  12.847
75519W        W36830  36.359  35.456   4.772
75520W        W36831  43.325   0.251  10.938
75521W        W36832  43.875   7.887  13.543
75522W        W36833  21.512  15.212   3.671
75523W        W36834  22.550  24.085   4.149
75524W        W36835  13.177  28.982  14.962
75525W        W36836  19.146   3.410  14.811
75526W        W36837  21.708  42.373   1.787
75527W        W36838  37.559  27.492   2.890
75528W        W36839  27.101  16.240   0.248
75529W        W36840  21.562  30.462  13.882
75530W        W36841  10.790   4.819  12.394
75531W        W36842  13.321  31.124  14.804
75532W        W36843  30.581  33.950   1.317
75533W        W36844  37.967   3.396   2.836
75534W        W36845   6.366  39.544  10.965
75535W        W36846  10.268  36.592  14.352
75536W        W36847  16.152  12.769   4.352
75537W        W36848  39.318  23.057   4.731
75538W        W36849  22.568  41.414   9.935
75539W        W36850  27.944  30.522   3.858
75540W        W36851  41.479  32.940   4.212
75541W        W36852   7.283   2.904  12.966
75542W        W36853  37.458  12.179   1.788
75543W        W36854  43.444   6.308   1.797
75544W        W36855   8.717  25.643   4.145
75545W        W36856   8.836  35.050  11.486
75546W        W36857   7.304  30.031  14.830
75547W        W36858   1.733  31.983  11.060
75548W        W36859  22.595  13.651  12.034
75549W        W36860  41.313  29.997  12.028
75550W        W36861  28.091   9.710  10.633
75551W        W36862  22.152  41.861   2.283
75552W        W36863  38.839   3.253  10.988
75553W        W36864  12.130  26.965  13.922
75554W        W36865   9.173  39.018   3.775
75555W        W36866  42.846  32.511   4.192
75556W        W36867  25.027  20.585   1.897
75557W        W36868  29.057   2.319  13.534
75558W        W36869  31.466  24.518  10.972
75559W        W36870  41.500  40.464   1.324
75560W        W36871  10.650  10.179  14.786
75561W        W36872   7.256  36.900  14.932
75562W        W36873  21.178  17.157   5.085
75563W        W36874  21.184  34.034   0.297
75564W        W36875  22.720  42.889  11.379
75565W        W36876   0.456  33.580   4.247
75566W        W36877  11.234  36.554  10.624
75567W        W36878   6.271  35.449  14.992
75568W        W36879  18.151   4.268   3.366
75569W        W36880  18.559  17.761  13.347
75570W        W36881  30.004  32.551  14.860
75571W        W36882  28.482  25.686  14.908
75572W        W36883  23.547  32.088   5.125
75573W        W36884  34.534  28.078   4.154
75574W        W36885  16.599  31.000  11.547
75575W        W36886  32.588  11.233   3.847
75576W        W36887  29.597  34.585  13.399
75577W        W36888  20.229  19.112  10.468
75578W        W36889  15.742  23.044  10.066
75579W        W36890   3.796  43.281   3.237
75580W        W36891  36.430   9.333   3.864
75581W        W36892  17.274  36.387   2.235
75582W        W36893  43.458  22.186   4.621
75583W        W36894  40.016   0.765  12.041
75584W        W36895   3.349  17.633   2.903
75585W        W36896   5.400  41.789   4.279
75586W        W36897   6.250  26.642   4.716
75587W        W36898  14.787  43.769  12.578
75588W        W36899  34.414  14.137  10.621
75589W        W36900  16.780  18.603   4.208
75590W        W36901  22.589   2.813  11.464
75591W        W36902  11.697  43.380  12.014
75592W        W36903   8.673  22.664   0.799
75593W        W36904  40.846   9.720   4.322
75594W        W36905   9.242   7.722  12.522
75595W        W36906  18.096   3.823  13.548
75596W        W36907  35.058   4.699  13.994
75597W        W36908   6.768  12.681   3.785
75598W        W36909   4.437  16.570  14.310
75599W        W36910  31.564   9.888  10.489
75600W        W36911  36.424  16.576   2.800
75601W        W36912  44.455  27.180  11.402
75602W        W36913  14.629  22.548  11.998
75603W        W36914  15.221  36.372   2.189
75604W        W36915  37.893  38.833  13.835
75605W        W36916  13.618  42.784  12.008
75606W        W36917  11.646  42.883  10.109
75607W        W36918   8.379  35.469  11.921
75608W        W36919   2.327  36.407  11.995
75609W        W36920  11.228   2.411  12.345
75610W        W36921  23.040  38.354   2.797
75611W        W36922  29.169  35.988   0.898
75612W        W36923  23.052  11.150  12.011
75613W        W36924  27.647  23.515   1.301
75614W        W36925  26.626   5.194  12.568
75615W        W36926  12.706  25.098   9.949
75616W        W36927   9.388  12.769   2.863
75617W        W36928   6.916   1.315  12.063
75618W        W36929  32.631   0.926  13.344
75619W        W36930   6.905  14.635  10.061
75620W        W36931  15.645   2.734   0.770
75621W        W36932  31.536  31.603   0.361
75622W        W36933  21.749  33.098  12.531
75623W        W36934  36.563  30.436   2.381
75624W        W36935  22.230  18.732  12.009
75625W        W36936  40.003  25.613   1.868
75626W        W36937  38.498  17.183   4.601
75627W        W36938   9.681   5.913  10.510
75628W        W36939  14.716  42.444   4.303
75629W        W36940  30.629   2.399   2.901
75630W        W36941  12.214  34.409  11.601
75631W        W36942   6.754  21.199   4.781
75632W        W36943   7.314  40.500  12.976
75633W        W36944   1.880  15.204   2.325
75634W        W36945  33.522  35.560  13.489
75635W        W36946  22.612  14.633   1.784
75636W        W36947  16.173  10.232  11.464
75637W        W36948  21.675  34.884  14.457
75638W        W36949  13.644  33.951   2.411
75639W        W36950  10.314   1.932  13.326
75640W        W36951  15.635  33.115  10.040
75641W        W36952  35.060  16.627  14.003
75642W        W36953  36.508  42.509   2.348
75643W        W36954  13.601  39.482   1.236
75644W        W36955  30.551  38.867  14.876
75645W        W36956  25.099  37.019   0.350
75646W        W36957  39.997  31.458  10.623
75647W        W36958  39.472  44.376   2.342
75648W        W36959  33.549  44.764  12.527
75649W        W36960  11.175  38.832  12.912
75650W        W36961  27.011  43.443   0.835
75651W        W36962  18.708  10.176   5.212
75652W        W36963  30.581  37.449  13.966
75653W        W36964  39.383  33.572  10.406
75654W        W36965  38.056  24.050  11.476
75655W        W36966  32.570  23.231   2.826
75656W        W36967  18.714  33.388  14.870
75657W        W36968  33.501  43.393   3.719
75658W        W36969  19.659  43.968  11.569
75659W        W36970  43.409   3.377  10.629
75660W        W36971  18.612   5.840  14.336
75661W        W36972  22.027  33.548  12.019
75662W        W36973   7.372   5.330  10.452
75663W        W36974  20.202  16.207  14.323
75664W        W36975   3.720  34.029   0.264
75665W        W36976  14.132  11.233  11.062
75666W        W36977  35.545  33.924  13.329
75667W        W36978   0.789  39.865  12.409
75668W        W36979  29.155  38.956  10.494
75669W        W36980  14.126  12.625  12.578
75670W        W36981  20.050  24.974  12.578
75671W        W36982  32.071  17.645  14.791
75672W        W36983  10.159  42.299  14.769
75673W        W36984  26.635  22.185   3.648
75674W        W36985  14.241  27.478   3.223
75675W        W36986  43.404   7.392  11.433
75676W        W36987  28.487  11.842   3.670
75677W        W36988  35.589  37.950   1.795
75678W        W36989  19.617  15.304   3.257
75679W        W36990  22.642  11.732  13.437
75680W        W36991  14.792  17.120   2.678
75681W        W36992  29.973   8.679  11.531
75682W        W36993   3.877  39.987  14.814
75683W        W36994  28.175  34.453  14.780
75684W        W36995  22.512  40.866  14.947
75685W        W36996  21.138  12.842   0.465
75686W        W36997  39.942  16.735   2.283
75687W        W36998  23.115  22.525  12.354
75688W        W36999  34.481  24.072  11.453
75689W        W37000  34.494  34.034   5.589
75690W        W37001  34.507  10.711  14.856
75691W        W37002  27.196  28.641  10.960
75692W        W37003  29.114  36.398   0.757
75693W        W37004  44.871  15.708   2.766
75694W        W37005   0.448   3.351   4.698
75695W        W37006  41.809  17.195  13.022
75696W        W37007   0.828  23.189   0.882
75697W        W37008  17.286  34.114  10.977
75698W        W37009  41.945  26.601  10.074
75699W        W37010  16.130  19.108   1.434
75700W        W37011  25.004  26.685  11.601
75701W        W37012  10.197  22.245  12.976
75702W        W37013  25.002   5.386  14.283
75703W        W37014  28.542  37.944  11.038
75704W        W37015  22.691  33.874  14.318
75705W        W37016  24.222  39.465   0.727
75706W        W37017  30.419  25.566  14.307
75707W        W37018  26.976   8.177  11.985
75708W        W37019  14.620   5.758  13.937
75709W        W37020  22.022  13.145  12.571
75710W        W37021  30.424  28.577   0.309
75711W        W37022   3.855   0.794   4.612
75712W        W37023   7.197   8.862  13.869
75713W        W37024   2.303  25.569  14.856
75714W        W37025  11.697  25.691   0.294
75715W        W37026   6.349  16.682   3.236
75716W        W37027  18.622  20.142  11.957
75717W        W37028  23.020  17.064   0.442
75718W        W37029   3.301   2.805   0.739
75719W        W37030  18.571   9.164   0.355
75720W        W37031  44.321  30.452   2.398
75721W        W37032  25.468  33.045  14.849
75722W        W37033  30.444   8.301  13.425
75723W        W37034   6.359  34.107  12.843
75724W        W37035  21.171   9.708   1.709
75725W        W37036   9.673   4.794   4.609
75726W        W37037  38.462  21.738   2.265
75727W        W37038   9.853   6.808  12.511
75728W        W37039  12.160  25.183   4.821
75729W        W37040   1.766  30.446  11.862
75730W        W37041   1.453  29.533   1.323
75731W        W37042  26.061  23.528   2.256
75732W        W37043   5.341  32.423   0.302
75733W        W37044  34.095  29.080   3.691
75734W        W37045   8.320  31.545   1.752
75735W        W37046  18.238   3.363  11.115
75736W        W37047  32.038   0.943   0.312
75737W        W37048   3.907  43.865  14.973
75738W        W37049   0.342  19.182   3.321
75739W        W37050  37.945  24.115  12.003
75740W        W37051   8.261  21.187  13.447
75741W        W37052  43.456  38.896  12.957
75742W        W37053  40.321  41.529   2.196
75743W        W37054   7.249   4.424  10.439
75744W        W37055  42.991  33.906  13.459
75745W        W37056  36.577   9.307   0.469
75746W        W37057  30.425  43.838   1.793
75747W        W37058  35.362  37.423   3.685
75748W        W37059  22.101  15.259   0.302
75749W        W37060   5.246   5.825  11.488
75750W        W37061   8.701  17.261  10.950
75751W        W37062   3.929  22.999  12.346
75752W        W37063   5.425  16.745  11.396
75753W        W37064  26.079  19.081  13.309
75754W        W37065  11.220  14.724   0.483
75755W        W37066   6.249   3.263  13.439
75756W        W37067   6.353  21.195  14.771
75757W        W37068   9.741  16.177   2.283
75758W        W37069  19.703  17.660  10.405
75759W        W37070   9.155  10.738  11.467
75760W        W37071  19.649   9.766   0.388
75761W        W37072  44.490  27.018  10.532
75762W        W37073  37.953  13.837   1.243
75763W        W37074  39.343  43.921   4.741
75764W        W37075   9.361  27.058   0.749
75765W        W37076   3.832  17.720  14.331
75766W        W37077   2.467   4.795  11.030
75767W        W37078  36.356  41.828   0.948
75768W        W37079   8.822  44.459  12.938
75769W        W37080  24.076  22.545  10.982
75770W        W37081   5.731  35.892   1.928
75771W        W37082  14.736  21.191  10.906
75772W        W37083  17.278  43.324   3.210
75773W        W37084   7.239  41.973  14.431
75774W        W37085  41.978  43.346   4.328
75775W        W37086  24.102   5.831   3.210
75776W        W37087  33.587  11.256   4.126
75777W        W37088  41.839  33.129  13.004
75778W        W37089   5.314  14.329  11.447
75779W        W37090  21.052  29.452   1.360
75780W        W37091  27.962  16.131  14.319
75781W        W37092  31.538  27.989  10.425
75782W        W37093  38.998  27.449   3.184
75783W        W37094  21.757  27.648   0.768
75784W        W37095  17.253  31.494   2.185
75785W        W37096  40.537  24.988   1.294
75786W        W37097  35.448  15.148   3.300
75787W        W37098  20.572  20.212  10.424
75788W        W37099   8.817  38.450  13.908
75789W        W37100  36.420  42.380  10.487
75790W        W37101  26.997  25.507  12.428
75791W        W37102   6.862  40.459   0.385
75792W        W37103   5.817   5.313   2.256
75793W        W37104  35.938   5.753   3.675
75794W        W37105  35.420  36.386   3.152
75795W        W37106  19.636   4.725   4.624
75796W        W37107  24.634  40.893   1.250
75797W        W37108   4.360  41.338  12.472
75798W        W37109  42.505  15.614   0.802
75799W        W37110  11.353   6.348  14.354
75800W        W37111  44.991  22.604  13.887
75801W        W37112  32.890  37.912   0.262
75802W        W37113   1.309  19.086  14.308
75803W        W37114  28.491  42.939   2.829
75804W        W37115  13.765  27.090   0.868
75805W        W37116   2.270   3.441   1.306
75806W        W37117  14.795  34.965   3.321
75807W        W37118  25.095  33.511  13.855
75808W        W37119  27.510  16.096   4.188
75809W        W37120   7.384  15.686   1.244
75810W        W37121  20.194  18.591  13.382
75811W        W37122  21.051  30.948  13.444
75812W        W37123  18.568  44.784  13.961
75813W        W37124  17.301  35.093   1.360
75814W        W37125  37.579  16.688   2.310
75815W        W37126  26.590   5.293   9.636
75816W        W37127  41.952  36.544   0.401
75817W        W37128  40.476  14.782   4.709
75818W        W37129  33.980  43.932   2.375
75819W        W37130   3.775  44.283   2.718
75820W        W37131  23.220  19.173   2.330
75821W        W37132   9.357  26.583  11.559
75822W        W37133  11.185  10.315   4.819
75823W        W37134  30.580  30.082  12.921
75824W        W37135  20.047  33.438  11.562
75825W        W37136   9.249  14.810  14.384
75826W        W37137  19.215  26.628  12.030
75827W        W37138  41.865  22.088  12.996
75828W        W37139   4.279  31.519  11.526
75829W        W37140  37.062   4.356  14.337
75830W        W37141   5.738  32.494   1.244
75831W        W37142  40.017   2.817  10.989
75832W        W37143  32.039  35.545  14.917
75833W        W37144   7.366  15.231   2.886
75834W        W37145  19.636   6.795   2.699
75835W        W37146   3.250  25.622  14.880
75836W        W37147  41.816  18.698   0.426
75837W        W37148  15.765  23.720  13.371
75838W        W37149  11.148  18.677  11.051
75839W        W37150   5.263  42.873  10.438
75840W        W37151  36.017  16.293   3.337
75841W        W37152  18.129  30.482   4.291
75842W        W37153  27.467  32.886   4.819
75843W        W37154  18.683  35.384   2.228
75844W        W37155  37.476  40.445  13.399
75845W        W37156  18.657  25.126  14.867
75846W        W37157  43.801  42.930   3.739
75847W        W37158   4.699   9.742   2.718
75848W        W37159  43.847   7.260  11.474
75849W        W37160  13.712   8.688   1.901
75850W        W37161  44.486  27.056  13.814
75851W        W37162  19.695  37.887  12.574
75852W        W37163  31.918  32.922  13.320
75853W        W37164  36.519  44.783  12.997
75854W        W37165  33.583  16.160  13.889
75855W        W37166  14.789  43.359   2.191
75856W        W37167   6.316  43.285   3.826
75857W        W37168  37.021   8.734  10.033
75858W        W37169  10.210  24.521  12.066
75859W        W37170  11.264  13.238   0.432
75860W        W37171  16.756  23.241  12.859
75861W        W37172  14.185  42.497   2.418
75862W        W37173  33.966  14.270  11.027
75863W        W37174  16.808  26.485   4.288
75864W        W37175  40.522  11.700  13.524
75865W        W37176  37.033  31.570   4.168
75866W        W37177  43.373  21.733  14.468
75867W        W37178  14.712  15.159  13.859
75868W        W37179  14.141  25.059   2.334
75869W        W37180  12.620  24.997   2.402
75870W        W37181  36.369  37.994   0.892
75871W        W37182  11.336  14.109  13.975
75872W        W37183  10.663  31.997  11.600
75873W        W37184  24.034  14.251  11.449
75874W        W37185   7.416   9.253  10.544
75875W        W37186  39.347  32.428  10.584
75876W        W37187  37.081  21.209  13.427
75877W        W37188  17.185  10.863   4.209
75878W        W37189  30.947   8.382   1.758
75879W        W37190   5.888  31.457   0.874
75880W        W37191  35.949  42.862   1.295
75881W        W37192  24.110  26.168   1.233
75882W        W37193  10.195  15.084  13.842
75883W        W37194  26.617  21.082  12.507
75884W        W37195   4.391  22.248  13.893
75885W        W37196  23.506  11.647  10.989
75886W        W37197  40.922   5.837   2.866
75887W        W37198  30.540  25.042   3.247
75888W        W37199  38.032  40.493   4.818
75889W        W37200  23.627  16.718  11.409
75890W        W37201  22.168  16.727  10.628
75891W        W37202  21.141  44.302   3.740
75892W        W37203  15.792  34.580  14.479
75893W        W37204   2.228   8.253   3.823
75894W        W37205  30.530  16.606  10.963
75895W        W37206  20.203  37.469   0.904
75896W        W37207  10.284  18.203  12.051
75897W        W37208  25.520   1.270  13.327
75898W        W37209  33.119  13.610   2.853
75899W        W37210  39.985  27.090   4.625
75900W        W37211  22.247  38.556   0.812
75901W        W37212  31.914  30.643  11.959
75902W        W37213  11.168  30.553  11.912
75903W        W37214  32.115  20.134   4.197
75904W        W37215  34.908  39.363  11.583
75905W        W37216  19.737  21.132   4.675
75906W        W37217  35.519  12.856  12.944
75907W        W37218  21.731  22.200  13.016
75908W        W37219  34.052   4.298  14.948
75909W        W37220  20.028  29.472  13.498
75910W        W37221  32.989  32.441   4.650
75911W        W37222   4.774  20.629   2.668
75912W        W37223  20.159  33.982   0.925
75913W        W37224  21.751  33.590  12.930
75914W        W37225  10.248  11.721  11.903
75915W        W37226  25.530   5.333   3.343
75916W        W37227  42.457  15.320  13.924
75917W        W37228  35.050  12.243  14.432
75918W        W37229  13.697  41.509  10.559
75919W        W37230  21.038  31.151   4.611
75920W        W37231  40.305  22.721   3.647
75921W        W37232  23.002  43.426   2.808
75922W        W37233  40.548   9.752  11.561
75923W        W37234  42.493  39.969  12.437
75924W        W37235   7.755  34.523   3.730
75925W        W37236  36.487  31.898  13.874
75926W        W37237   5.280  44.989  11.529
75927W        W37238  42.966   3.804  11.007
75928W        W37239  20.131   5.840   0.440
75929W        W37240  25.184  38.366   4.654
75930W        W37241  15.690  32.583   1.275
75931W        W37242  17.616  19.587  11.123
75932W        W37243  40.053   7.217  14.410
75933W        W37244  37.424  14.222   1.748
75934W        W37245  31.014  36.949   1.265
75935W        W37246  44.283  24.028  11.392
75936W        W37247  14.319  13.774   5.189
75937W        W37248  21.048  35.392  11.074
75938W        W37249  26.549   1.274  14.400
75939W        W37250  14.172  14.816  13.862
75940W        W37251  17.227  20.118   0.827
75941W        W37252   7.396  40.928   4.247
75942W        W37253  35.911  38.860  11.558
75943W        W37254  16.568   8.256   4.835
75944W        W37255  31.035  27.678   3.806
75945W        W37256  15.803  21.208   0.317
75946W        W37257  11.214   4.913   4.235
75947W        W37258  14.737  11.819   3.152
75948W        W37259   2.421   1.325  11.976
75949W        W37260  19.743  22.010   0.479
75950W        W37261  44.286  44.459   3.381
75951W        W37262  43.305  41.849  10.940
75952W        W37263   8.252  13.263   3.695
75953W        W37264   2.389  28.181   0.254
75954W        W37265  15.114  29.020   2.273
75955W        W37266  37.476  22.647   4.762
75956W        W37267   3.264   1.790  10.476
75957W        W37268   8.292  36.902  12.544
75958W        W37269  15.803  27.052  13.921
75959W        W37270   8.843   0.452  14.860
75960W        W37271  32.485  13.680   2.883
75961W        W37272  32.973  34.537  12.996
75962W        W37273  33.464  28.147  10.572
75963W        W37274  15.670  35.877   3.802
75964W        W37275  23.242   1.397  11.554
75965W        W37276   6.250  42.797  13.451
75966W        W37277  35.413  15.622   5.092
75967W        W37278  41.367  34.085  13.922
75968W        W37279  27.601  38.507  13.900
75969W        W37280  22.184  16.233  11.383
75970W        W37281  41.529  26.018   2.888
75971W        W37282  38.523  16.295  13.535
75972W        W37283  13.145  44.417   5.291
75973W        W37284   3.433  33.508   5.096
75974W        W37285  25.975  30.987   0.843
75975W        W37286  40.343  20.222   2.702
75976W        W37287  40.349  24.528  13.351
75977W        W37288   3.315  25.682  10.912
75978W        W37289  21.515  37.955  12.345
75979W        W37290  20.595  14.614   4.306
75980W        W37291  29.618  31.131   3.850
75981W        W37292  10.188  40.443   4.282
75982W        W37293  39.830  22.657   3.206
75983W        W37294  33.397  27.037   0.766
75984W        W37295  31.064  39.892   3.828
75985W        W37296  17.579  14.740  11.126
75986W        W37297  39.948  12.683   1.897
75987W        W37298   0.944  16.804  13.046
75988W        W37299  44.839  37.536   0.467
75989W        W37300   5.805  44.911   3.354
75990W        W37301  22.636  23.014  11.382
75991W        W37302   4.348  27.039  14.490
75992W        W37303  26.165  40.351  10.434
75993W        W37304  40.434   1.781  13.381
75994W        W37305  30.624   4.917   0.467
75995W        W37306  14.827  26.553  10.055
75996W        W37307  11.680  42.903  13.041
75997W        W37308  29.108  27.481   3.282
75998W        W37309  16.576  14.693  14.431
75999W        W37310   0.745  25.608   0.738
76000W        W37311  42.974  15.808   4.607
76001W        W37312   9.757  27.483   1.265
76002W        W37313  43.771  37.488  14.495
76003W        W37314  11.682  34.992   1.731
76004W        W37315  34.501  35.490   3.776
76005W        W37316  37.398  18.585   1.297
76006W        W37317  38.901   1.384  13.952
76007W        W37318  21.524  44.916   2.197
76008W        W37319  22.126  37.850   2.878
76009W        W37320  13.700  38.570   3.326
76010W        W37321   7.186  25.517  10.456
76011W        W37322  15.133   6.195   0.414
76012W        W37323  15.172  27.505  10.911
76013W        W37324  44.838  29.146   2.266
76014W        W37325  21.103   7.351  14.428
76015W        W37326  21.726  29.047   0.478
76016W        W37327   3.748  36.380  14.283
76017W        W37328   3.914  30.919   1.809
76018W        W37329  12.286   7.685   4.257
76019W        W37330  13.139  10.814   4.624
76020W        W37331  33.930  33.945  12.861
76021W        W37332  18.548  20.602  13.836
76022W        W37333  31.010  13.120   1.754
76023W        W37334   8.198   2.893  14.443
76024W        W37335  25.594  20.553  11.876
76025W        W37336   9.175  11.779  12.881
76026W        W37337  44.268   2.271  11.054
76027W        W37338  16.665  44.832  11.373
76028W        W37339   1.452   0.330  12.951
76029W        W37340  29.935   4.924  14.995
76030W        W37341  18.766  38.476   2.851
76031W        W37342  28.538  15.293   2.364
76032W        W37343  24.183  26.957   2.277
76033W        W37344  15.230  24.631  14.985
76034W        W37345  27.573  10.870  14.410
76035W        W37346  28.671  35.985   0.363
76036W        W37347   8.234  17.684   1.811
76037W        W37348  38.851  43.385  13.426
76038W        W37349  44.838  18.070  14.307
76039W        W37350  36.506  17.221   0.769
76040W        W37351  13.822  24.056   1.727
76041W        W37352  43.318  24.615   0.934
76042W        W37353  38.366  33.070   1.244
76043W        W37354  33.893  35.951  11.402
76044W        W37355  43.888  38.952  12.883
76045W        W37356  37.852  37.377   4.658
76046W        W37357  18.092  37.997   4.705
76047W        W37358  34.584   5.916  10.426
76048W        W37359  12.267  10.687  10.971
76049W        W37360  15.329  21.708   3.339
76050W        W37361   4.740  27.515  14.350
76051W        W37362   4.833   2.751   0.895
76052W        W37363  35.396  30.440   0.735
76053W        W37364  14.693  43.285   4.755
76054W        W37365  30.636  31.100  10.931
76055W        W37366  40.455   1.954   0.327
76056W        W37367  26.617  20.590   2.306
76057W        W37368  37.903  42.992   3.641
76058W        W37369   6.287  37.536  12.060
76059W        W37370  29.523  12.273   2.185
76060W        W37371  10.818  12.154   2.786
76061W        W37372   1.749  34.930   1.742
76062W        W37373  33.522  13.658  12.850
76063W        W37374   8.264  18.702  12.847
76064W        W37375  16.173  23.673  13.909
76065W        W37376  22.108  15.736   4.688
76066W        W37377   5.200  40.025   5.280
76067W        W37378  31.934   4.738   3.173
76068W        W37379  27.538  42.443  11.005
76069W        W37380  44.373  32.903   1.700
76070W        W37381  40.316  28.168   3.848
76071W        W37382   1.813   3.268  13.040
76072W        W37383  35.572  12.773  10.584
76073W        W37384  39.923   2.315  10.951
76074W        W37385  38.031  15.583   9.931
76075W        W37386  40.838  40.038  10.008
76076W        W37387  28.493   6.400  12.846
76077W        W37388  36.999  32.636   3.288
76078W        W37389  42.313  15.318   1.342
76079W        W37390  40.377  18.773   4.180
76080W        W37391  11.792  35.568  12.987
76081W        W37392  10.217   1.848  12.035
76082W        W37393  23.674   7.793   0.924
76083W        W37394  26.171  16.629   1.928
76084W        W37395  42.983  20.693   3.303
76085W        W37396  30.122  13.291   0.386
76086W        W37397  41.432  29.104  13.448
76087W        W37398  21.217  37.358   9.471
76088W        W37399   2.960  22.653  11.465
76089W        W37400  18.652  32.031  11.403
76090W        W37401   5.848  26.170  11.058
76091W        W37402  25.115  19.769   1.840
76092W        W37403  38.963  23.577   4.151
76093W        W37404  32.955  37.909   4.715
76094W        W37405  34.379   6.831   2.882
76095W        W37406   4.231  28.620   0.416
76096W        W37407  34.446   7.409  13.462
76097W        W37408  36.368   8.740   0.769
76098W        W37409  24.585  10.860  12.889
76099W        W37410  19.657   5.870   1.389
76100W        W37411  41.420  40.536  10.543
76101W        W37412  23.567  15.329  11.878
76102W        W37413  16.296  42.285   3.693
76103W        W37414  17.107  17.277  13.051
76104W        W37415  40.031   2.325  10.553
76105W        W37416  27.955  39.950  10.467
76106W        W37417  17.217  31.617   0.875
76107W        W37418  15.161  15.172  13.971
76108W        W37419  31.528  10.292   4.665
76109W        W37420  17.195  25.123  14.362
76110W        W37421  25.037  43.996  12.450
76111W        W37422   5.762  22.713   3.762
76112W        W37423   9.344  31.971  14.029
76113W        W37424   6.736  17.264  14.982
76114W        W37425  14.685   8.756  10.100
76115W        W37426   7.234   3.389  13.012
76116W        W37427   3.404  43.801   3.736
76117W        W37428  36.436  33.573   1.385
76118W        W37429  23.685  32.980  11.447
76119W        W37430  29.599  25.619  13.963
76120W        W37431   6.822  27.682  11.412
76121W        W37432  41.533   0.830  11.077
76122W        W37433  41.999  20.631   4.198
76123W        W37434  19.697  38.074   5.128
76124W        W37435  38.001  11.699   1.768
76125W        W37436  24.145  42.984   2.849
76126W        W37437  35.055  29.667   2.241
76127W        W37438  24.691  36.463  12.464
76128W        W37439   1.396  27.984   3.771
76129W        W37440   3.763  39.007  14.413
76130W        W37441  43.803  13.195  13.983
76131W        W37442  42.295  15.253  13.428
76132W        W37443  32.927  41.372   2.279
76133W        W37444  41.030  38.417   2.898
76134W        W37445  42.007  27.030  14.368
76135W        W37446  14.218  42.340   2.827
76136W        W37447  30.421  44.888  14.474
76137W        W37448  35.873  14.650  14.393
76138W        W37449  36.396   0.965   3.709
76139W        W37450  13.768  35.896  10.559
76140W        W37451  44.959  28.474  13.850
76141W        W37452   3.954  36.936   3.682
76142W        W37453  30.070  28.095  12.998
76143W        W37454  37.510   5.379  11.458
76144W        W37455  18.071  30.651  12.347
76145W        W37456  13.170  21.608  14.962
76146W        W37457  28.007  44.442  10.924
76147W        W37458  12.721  31.518  14.321
76148W        W37459  34.986  17.127  11.397
76149W        W37460  23.734  29.011  11.871
76150W        W37461  28.528  35.603  10.623
76151W        W37462  11.847  34.039  10.421
76152W        W37463  43.972  19.704  13.350
76153W        W37464  29.074  32.906  11.887
76154W        W37465  14.136  26.606   3.284
76155W        W37466   1.957  23.084  11.463
76156W        W37467  40.859  10.762  12.072
76157W        W37468  40.023  31.097  13.854
76158W        W37469  20.713  30.951   2.727
76159W        W37470  10.666  27.469  13.520
76160W        W37471  44.772  27.128  14.305
76161W        W37472  15.817  36.987  11.869
76162W        W37473  24.189  25.185  10.940
76163W        W37474   8.161  30.066   2.251
76164W        W37475   0.765  13.737  11.076
76165W        W37476   5.692  44.402  11.907
76166W        W37477   5.871   3.745   1.700
76167W        W37478  20.269  27.452   4.812
76168W        W37479   0.431  23.518  12.022
76169W        W37480   2.464   8.691  13.403
76170W        W37481   8.808  10.293  13.510
76171W        W37482   2.928   4.701   0.414
76172W        W37483  16.094  43.341  13.060
76173W        W37484   0.407  39.446  11.955
76174W        W37485  22.053   3.899  14.023
76175W        W37486  33.483  31.047  13.995
76176W        W37487   3.885  20.148  14.461
76177W        W37488   5.927  11.195  13.399
76178W        W37489  11.132  33.024  11.913
76179W        W37490   5.219  23.663   0.960
76180W        W37491  44.950   8.354   0.430
76181W        W37492  15.647   1.912   3.861
76182W        W37493  18.243   5.773   1.701
76183W        W37494   0.915  41.450   1.872
76184W        W37495  30.613  41.980  14.016
76185W        W37496  32.482  11.274  12.034
76186W        W37497   1.946   2.300   1.287
76187W        W37498   7.344  21.739   4.121
76188W        W37499   4.266  28.932  14.832
76189W        W37500  19.182  36.915  11.438
76190W        W37501  15.589  39.527  11.527
76191W        W37502  29.479  36.394   3.688
76192W        W37503  18.287  30.959  13.875
76193W        W37504  32.417  14.594   0.836
76194W        W37505  11.722   5.731  11.923
76195W        W37506  23.154  34.460   0.729
76196W        W37507  37.536  24.667   4.327
76197W        W37508  28.180  29.447   4.336
76198W        W37509  35.455  30.536   2.837
76199W        W37510  20.556  35.488   4.674
76200W        W37511  23.088  32.614   5.714
76201W        W37512  23.040  44.771  12.063
76202W        W37513   7.875   9.798   2.418
76203W        W37514  25.574  23.180   4.764
76204W        W37515  33.475   6.908   1.763
76205W        W37516   6.786  31.943   1.743
76206W        W37517  21.207  11.826  10.623
76207W        W37518  29.444  38.451   0.810
76208W        W37519  12.767  21.666   4.597
76209W        W37520  17.121  18.558   2.380
76210W        W37521  16.285  35.969  13.496
76211W        W37522  18.231  28.641  12.890
76212W        W37523  24.026  18.223   2.815
76213W        W37524  40.867  32.558   2.846
76214W        W37525   2.420  20.587  11.572
76215W        W37526   8.402  34.973   4.714
76216W        W37527  25.043  11.851   2.224
76217W        W37528   4.832   2.356   4.241
76218W        W37529   6.747   4.857  14.282
76219W        W37530  42.813  21.591   4.198
76220W        W37531  21.543  19.701   0.879
76221W        W37532  17.774  12.731  11.116
76222W        W37533  34.864  31.572  14.890
76223W        W37534  17.163  21.128  12.988
76224W        W37535   6.221  42.874   0.788
76225W        W37536  39.520  30.131  10.945
76226W        W37537  38.401  27.478   0.402
76227W        W37538  43.291   1.741  11.488
76228W        W37539  36.844  43.453   1.713
76229W        W37540  35.048   6.796  11.979
76230W        W37541  16.755  40.985  10.991
76231W        W37542   9.167  38.859   0.879
76232W        W37543  35.919   1.400   1.339
76233W        W37544   7.351  26.527   1.414
76234W        W37545   5.245  10.375   4.186
76235W        W37546  40.496  15.117  13.337
76236W        W37547  36.008  27.965   2.405
76237W        W37548  37.456  32.942   2.688
76238W        W37549  21.695   3.746   3.386
76239W        W37550   3.897  28.556  13.825
76240W        W37551   4.345  41.012  13.979
76241W        W37552  12.849  34.559  10.553
76242W        W37553  10.231  30.953   1.835
76243W        W37554  42.938   7.276  10.539
76244W        W37555   8.372  26.542  14.420
76245W        W37556   0.908  24.479  12.855
76246W        W37557   3.441  12.331   1.248
76247W        W37558   9.332   0.810  10.424
76248W        W37559   3.717  40.008  12.438
76249W        W37560  21.572  30.459  14.317
76250W        W37561  32.003  40.425  10.450
76251W        W37562  22.224   8.284  11.961
76252W        W37563  35.854  39.899  14.514
76253W        W37564  27.179  19.105   2.391
76254W        W37565  15.266  40.839  13.409
76255W        W37566  11.731  17.254   1.912
76256W        W37567  15.798   1.776   2.901
76257W        W37568  12.744  19.640   1.377
76258W        W37569  27.152  25.515  13.050
76259W        W37570  17.732   8.821  14.899
76260W        W37571  17.184  26.971   5.263
76261W        W37572  32.433  41.003  13.313
76262W        W37573  10.760   9.808  14.765
76263W        W37574  13.350  31.117  14.014
76264W        W37575  25.581  21.066  13.948
76265W        W37576  42.962  25.620   0.961
76266W        W37577  42.417  13.288   1.442
76267W        W37578  31.127   1.252   3.153
76268W        W37579  29.963  33.504  12.036
76269W        W37580  41.524  33.476  12.395
76270W        W37581   5.901  17.242   3.195
76271W        W37582   4.851  30.531   0.770
76272W        W37583   9.315   6.888  10.893
76273W        W37584   5.220   5.339  14.456
76274W        W37585   7.857  40.952   1.274
76275W        W37586  43.779  38.473  11.531
76276W        W37587  13.229  14.806  14.977
76277W        W37588  44.285  29.937  14.414
76278W        W37589  25.486  40.487   0.314
76279W        W37590   4.896  33.564  13.357
76280W        W37591  22.025   0.341  11.043
76281W        W37592  17.629  42.941  10.585
76282W        W37593  28.971  34.951   1.211
76283W        W37594  31.149   7.212   3.340
76284W        W37595  36.051   2.903   2.725
76285W        W37596   9.660  41.808  12.525
76286W        W37597   1.945  36.899   0.789
76287W        W37598  12.771  37.901   0.865
76288W        W37599   2.425  41.997   4.165
76289W        W37600  36.354  18.085   5.318
76290W        W37601  37.029   9.346   2.295
76291W        W37602  21.061   3.271  10.015
76292W        W37603  22.244  23.102  13.040
76293W        W37604   9.221  42.463   1.800
76294W        W37605   5.700   3.408   4.820
76295W        W37606  24.576  34.076  10.901
76296W        W37607  24.506  30.097   3.854
76297W        W37608  36.380   2.843   2.707
76298W        W37609  32.479  32.440  14.915
76299W        W37610  15.262  41.998   1.447
76300W        W37611  32.564  16.278   1.699
76301W        W37612  27.673  39.407  12.409
76302W        W37613   8.253  17.699  10.930
76303W        W37614  24.085   3.413   0.852
76304W        W37615  25.553   0.926  11.565
76305W        W37616  42.817   1.309   0.787
76306W        W37617  20.119  44.318   2.791
76307W        W37618  12.301  37.881   0.412
76308W        W37619  33.598  13.234   4.188
76309W        W37620  33.459  10.171   4.728
76310W        W37621  12.200  44.296   2.819
76311W        W37622  32.464   8.860   2.795
76312W        W37623  11.297   5.344   1.715
76313W        W37624  43.812   8.836  12.008
76314W        W37625   8.349  35.366  10.616
76315W        W37626   5.752  15.580   2.415
76316W        W37627  17.721  20.606   2.787
76317W        W37628  18.634   1.806  11.107
76318W        W37629  39.547  40.389  13.059
76319W        W37630   3.767  33.544   3.796
76320W        W37631  10.328  34.420   1.931
76321W        W37632   0.886  21.041   5.156
76322W        W37633  20.237  41.833   2.812
76323W        W37634  30.931  21.164  13.354
76324W        W37635   3.308  43.965  14.889
76325W        W37636   7.362  30.555   3.282
76326W        W37637  42.789   9.739   0.874
76327W        W37638  25.547   0.297  11.871
76328W        W37639   8.260  44.798   0.751
76329W        W37640  37.935  13.342   1.806
76330W        W37641  36.892  10.325  11.607
76331W        W37642  42.302  28.931   0.461
76332W        W37643  25.687  44.478  10.029
76333W        W37644  19.730  43.462   2.759
76334W        W37645  18.257   2.910  12.548
76335W        W37646  44.448  10.262  14.947
76336W        W37647  12.698   1.326   0.332
76337W        W37648  19.711  39.876  11.515
76338W        W37649   2.874  30.618   4.146
76339W        W37650  29.489  33.125  12.947
76340W        W37651   2.390  21.037  13.336
76341W        W37652   8.355   5.260  12.362
76342W        W37653   6.712  16.180   4.129
76343W        W37654  29.665   3.270   3.288
76344W        W37655  21.253   8.393  10.569
76345W        W37656  44.362  20.692  11.403
76346W        W37657   3.421   1.831   4.606
76347W        W37658  12.638  44.795   0.870
76348W        W37659   5.866   7.362   4.597
76349W        W37660  40.521  23.167   3.240
76350W        W37661  30.982  13.656   3.762
76351W        W37662   4.301   1.336  13.426
76352W        W37663  31.447  23.735  14.002
76353W        W37664  40.051   2.363  13.432
76354W        W37665   5.355   4.403  13.809
76355W        W37666  13.134  33.500   4.747
76356W        W37667   5.882  42.327   2.189
76357W        W37668  12.202  42.407   4.203
76358W        W37669  23.601  16.169  13.542
76359W        W37670  32.010  14.812  10.503
76360W        W37671   9.186  43.451  12.013
76361W        W37672  10.208  38.432   2.219
76362W        W37673   2.290  11.290  13.500
76363W        W37674  22.058  18.297   4.217
76364W        W37675   2.757  36.423   0.853
76365W        W37676  34.506  12.354   1.694
76366W        W37677  16.112  32.941   3.673
76367W        W37678  36.397  23.017  14.888
76368W        W37679  24.052  34.439   1.271
76369W        W37680  31.036  15.259  13.022
76370W        W37681   5.825  24.658   1.705
76371W        W37682   6.283   7.191  10.139
76372W        W37683  29.448   1.839  11.589
76373W        W37684   2.408   6.219   3.208
76374W        W37685  28.947  30.484   0.964
76375W        W37686  28.572   5.834   2.219
76376W        W37687   6.315  32.514   2.778
76377W        W37688  25.067   9.740   3.221
76378W        W37689   3.845  11.751  13.867
76379W        W37690  17.645  28.175  14.452
76380W        W37691  26.648   5.913   0.306
76381W        W37692  39.542  44.968  14.277
76382W        W37693  31.422  24.168  14.961
76383W        W37694   9.714  14.778  14.804
76384W        W37695  12.127  17.226   0.837
76385W        W37696  25.112  17.679  13.053
76386W        W37697   1.740  12.131  11.400
76387W        W37698  42.809   8.856   1.745
76388W        W37699  16.741  16.193   3.646
76389W        W37700   1.355   8.168  14.812
76390W        W37701  39.399  39.922  14.368
76391W        W37702  10.182  24.146   1.780
76392W        W37703  18.223  34.395   0.284
76393W        W37704  18.645  42.414   3.284
76394W        W37705  20.659  40.539   0.895
76395W        W37706  30.052  23.017  13.332
76396W        W37707  37.866  43.373   3.302
76397W        W37708  21.739  40.366  10.585
76398W        W37709  23.602  36.346  10.478
76399W        W37710  28.176  13.204  11.868
76400W        W37711  21.553  41.293   1.383
76401W        W37712  19.615  22.028   3.666
76402W        W37713  11.837   5.204   3.776
76403W        W37714  19.662   5.843  11.006
76404W        W37715  34.990  38.342   4.722
76405W        W37716  29.121  16.792   4.833
76406W        W37717  42.942  33.885   3.686
76407W        W37718  34.120  17.688  10.974
76408W        W37719  41.901   4.733  13.515
76409W        W37720  41.477  43.405   2.229
76410W        W37721  10.189   6.716   2.323
76411W        W37722  20.751  29.591   9.629
76412W        W37723  23.148   9.353   1.389
76413W        W37724  44.468   6.842   3.793
76414W        W37725  19.261  20.667  10.484
76415W        W37726  19.060  20.213   0.360
76416W        W37727   5.786  22.559  13.986
76417W        W37728  15.274  18.111  12.508
76418W        W37729  19.091   2.835   3.270
76419W        W37730  28.111  19.542   4.687
76420W        W37731  31.624   4.911  13.944
76421W        W37732   0.767  21.115   0.370
76422W        W37733  23.044  33.536  14.948
76423W        W37734  35.603  32.476   2.365
76424W        W37735   9.872   2.431   4.133
76425W        W37736  20.107  19.204   1.429
76426W        W37737  15.740  43.867  10.410
76427W        W37738   6.207  39.419   0.250
76428W        W37739   2.721  26.988  11.606
76429W        W37740  11.775   8.743  12.934
76430W        W37741  39.000   8.267  11.039
76431W        W37742  19.643  15.236  10.078
76432W        W37743  21.084  41.476   3.834
76433W        W37744   9.814   2.408  10.496
76434W        W37745  28.539   3.378  12.984
76435W        W37746  30.075  23.060   4.139
76436W        W37747  39.384  39.869   2.354
76437W        W37748  15.165  31.515   0.288
76438W        W37749   2.919  42.295   0.908
76439W        W37750   2.840   6.743  14.292
76440W        W37751  23.010  18.662   2.783
76441W        W37752  17.757  30.506  14.491
76442NA+    NA+37753  37.520  17.749   3.726
76443NA+    NA+37754  10.247  11.654  13.313
76444NA+    NA+37755  31.901  11.653   4.727
76445NA+    NA+37756   0.408  40.968   0.342
76446NA+    NA+37757  43.310  18.062  11.409
76447NA+    NA+37758  15.763  37.454  12.846
76448NA+    NA+37759  21.709  34.104  13.989
76449NA+    NA+37760  26.076  25.109   0.336
76450NA+    NA+37761  25.624  28.438  11.889
76451NA+    NA+37762  30.994  38.050   1.421
76452NA+    NA+37763  38.956  24.533  11.586
76453NA+    NA+37764  15.812  31.618  14.932
76454NA+    NA+37765  26.700  25.137   4.772
76455NA+    NA+37766  21.217   9.218   3.803
76456NA+    NA+37767  22.219  20.185   3.635
76457NA+    NA+37768   8.253  40.029   3.237
76458NA+    NA+37769   3.872   8.716   3.179
76459NA+    NA+37770  36.574  30.153  14.393
76460NA+    NA+37771  16.214   3.450   2.762
76461NA+    NA+37772  13.240  26.192   1.780
76462NA+    NA+37773  27.570  36.517   3.356
76463NA+    NA+37774  43.330  28.606   2.259
76464NA+    NA+37775  25.177  42.431  12.575
76465NA+    NA+37776  13.321  26.496   1.917
76466NA+    NA+37777  22.742   8.336  11.387
76467NA+    NA+37778  40.839  25.532   1.760
76468NA+    NA+37779  11.370  23.073   0.387
76469NA+    NA+37780  34.987  43.372  11.559
76470NA+    NA+37781  19.642  10.300   4.293
76471NA+    NA+37782   8.769  40.485  12.843
76472NA+    NA+37783   1.440  36.932   1.892
76473NA+    NA+37784  39.343   0.881  13.476
76474NA+    NA+37785  41.475   8.870   0.361
76475NA+    NA+37786  35.532  44.302  12.883
76476NA+    NA+37787   0.972  21.068   1.699
76477NA+    NA+37788  43.400  28.094  14.374
76478NA+    NA+37789   5.720  24.527  10.510
76479NA+    NA+37790   3.331  43.301   1.761
76480NA+    NA+37791  32.107  42.916  13.965
76481NA+    NA+37792   3.848  15.143  12.991
76482NA+    NA+37793  21.177  37.033  10.020
76483NA+    NA+37794  38.463  23.502  11.968
76484NA+    NA+37795  10.702   2.463  14.434
76485NA+    NA+37796  17.684   6.712   4.636
76486NA+    NA+37797  42.885  41.888  12.935
76487NA+    NA+37798  19.116   2.872  11.041
76488NA+    NA+37799   1.868  10.322  13.939
76489NA+    NA+37800  38.056   3.760   0.392
76490NA+    NA+37801  44.378  30.061  14.858
76491NA+    NA+37802  28.484  17.573  14.512
76492NA+    NA+37803  31.052   0.803  13.015
76493NA+    NA+37804   9.339  23.062  11.876
76494NA+    NA+37805   3.864   4.243  11.925
76495NA+    NA+37806  14.620  22.709   2.378
76496NA+    NA+37807  30.490  37.339   0.809
76497NA+    NA+37808  23.006   2.317  14.294
76498NA+    NA+37809  36.533  12.318   1.403
76499NA+    NA+37810  22.035  33.049   2.388
76500NA+    NA+37811  27.582   0.817  14.323
76501NA+    NA+37812  15.797  39.968   1.380
76502NA+    NA+37813   4.214  31.503   0.453
76503NA+    NA+37814  16.285  14.206  11.966
76504NA+    NA+37815  30.649  37.845   1.802
76505NA+    NA+37816  42.026  10.832  11.587
76506NA+    NA+37817   9.228  37.375  14.931
76507NA+    NA+37818   4.390  10.154   1.299
76508NA+    NA+37819  34.972  35.054   0.741
76509NA+    NA+37820   2.317  20.270  12.094
76510NA+    NA+37821   5.892  30.119   0.899
76511NA+    NA+37822   7.248  43.361   4.716
76512NA+    NA+37823  21.645  10.318   0.416
76513NA+    NA+37824  26.085  27.026  11.050
76514NA+    NA+37825   5.342  25.498  10.503
76515NA+    NA+37826   8.281  28.638  12.906
76516NA+    NA+37827  30.565  33.968  12.950
76517NA+    NA+37828   8.840  21.255   9.933
76518NA+    NA+37829   3.720  41.010  11.042
76519NA+    NA+37830   0.856  41.501  11.486
76520NA+    NA+37831  36.554  42.005  13.830
76521NA+    NA+37832   2.411  20.168   2.205
76522NA+    NA+37833   8.355  18.729   1.265
76523NA+    NA+37834  27.197   4.410   2.383
76524NA+    NA+37835  24.991  39.062   4.182
76525NA+    NA+37836   5.281  25.076   3.784
76526NA+    NA+37837  13.781  17.082   1.323
76527NA+    NA+37838  11.170  29.022  14.850
76528NA+    NA+37839  38.529   4.842  11.525
76529NA+    NA+37840  28.647  15.257   3.666
76530NA+    NA+37841   5.291  34.106   2.767
76531NA+    NA+37842   6.199  35.101   1.893
76532NA+    NA+37843  37.989  44.873   3.669
76533NA+    NA+37844   2.433  33.619   0.409
76534NA+    NA+37845  38.993  14.163  12.866
76535NA+    NA+37846  30.027  27.071  14.477
76536NA+    NA+37847  40.305  29.523  11.500
76537NA+    NA+37848  30.065   7.869   0.726
76538NA+    NA+37849  41.996   8.802  14.279
76539NA+    NA+37850  39.008  16.140   4.322
76540NA+    NA+37851  12.138  30.632  13.378
76541NA+    NA+37852  18.615  28.681  13.829
76542NA+    NA+37853  42.798   1.417  14.845
76543NA+    NA+37854  25.563  15.808  12.896
76544NA+    NA+37855  42.888  21.631   2.283
76545NA+    NA+37856  10.662  23.695   2.810
76546NA+    NA+37857  42.398  44.308   1.901
76547NA+    NA+37858  41.505  32.044  12.842
76548NA+    NA+37859  15.658   4.841   3.856
76549NA+    NA+37860  36.047   7.358  14.444
76550NA+    NA+37861  40.038  39.401  10.495
76551NA+    NA+37862  15.734  32.407   4.298
76552NA+    NA+37863  37.006  24.219  12.904
76553NA+    NA+37864  18.273  24.024  11.021
76554NA+    NA+37865   6.766  25.147  14.768
76555NA+    NA+37866  13.295   2.232   0.959
76556NA+    NA+37867   6.829  36.038   3.345
76557NA+    NA+37868  44.979  35.382   0.472
76558NA+    NA+37869  31.077   3.441  10.507
76559NA+    NA+37870  25.471  15.682   4.631
76560NA+    NA+37871  12.632  18.752  12.081
76561NA+    NA+37872   1.475  14.767   1.865
76562NA+    NA+37873  19.052  17.576  14.935
76563NA+    NA+37874  32.906  11.277  13.444
76564NA+    NA+37875  42.354  14.185  13.364
76565NA+    NA+37876  14.806  42.929  12.568
76566NA+    NA+37877  28.074   7.683   4.172
76567NA+    NA+37878  44.323   5.841  12.513
76568NA+    NA+37879  20.551  43.899  13.824
76569NA+    NA+37880  28.620  25.487   2.804
76570NA+    NA+37881  32.093  37.561  14.808
76571NA+    NA+37882  25.486   5.870  14.999
76572NA+    NA+37883  42.946  33.558   3.166
76573NA+    NA+37884   0.799   5.789   3.385
76574NA+    NA+37885   3.270  42.367  12.917
76575NA+    NA+37886   7.342  34.504  14.909
76576NA+    NA+37887  29.565  18.576  12.067
76577NA+    NA+37888   2.281  11.293  14.332
76578NA+    NA+37889  26.208  43.481  11.612
76579NA+    NA+37890  19.129  29.595  11.090
76580NA+    NA+37891  20.258  35.953  13.976
76581NA+    NA+37892   6.746  43.471  10.582
76582NA+    NA+37893  10.256   3.219   0.455
76583NA+    NA+37894   9.716  11.261  13.396
76584NA+    NA+37895  31.043   0.951  11.503
76585NA+    NA+37896  16.246  13.787  10.602
76586NA+    NA+37897  43.992  26.199  10.479
76587NA+    NA+37898  38.943  23.644   0.360
76588NA+    NA+37899  15.632  41.025  11.951
76589NA+    NA+37900  35.878  14.225   3.340
76590NA+    NA+37901  14.299   7.177  11.611
76591NA+    NA+37902  19.731  27.091   1.434
76592NA+    NA+37903  42.798  32.111  11.057
76593NA+    NA+37904  23.996   9.271   0.811
76594NA+    NA+37905  29.565  40.464  13.996
76595NA+    NA+37906  23.178  19.678   2.302
76596NA+    NA+37907  42.484  33.915  12.413
76597NA+    NA+37908  28.465  10.763  14.515
76598NA+    NA+37909   6.261  33.622  14.358
76599NA+    NA+37910  31.417   8.700   4.823
76600NA+    NA+37911  28.981   6.219   3.646
76601NA+    NA+37912   2.280   0.316   4.603
76602NA+    NA+37913  34.449  22.738   0.421
76603NA+    NA+37914  30.146  39.401   4.834
76604NA+    NA+37915  30.594   9.344   0.353
76605NA+    NA+37916  26.485  39.895   1.319
76606NA+    NA+37917   5.866  31.088   0.269
76607NA+    NA+37918  26.176  27.628   5.645
76608NA+    NA+37919  40.980  24.068   0.305
76609NA+    NA+37920  29.955  22.170  12.568
76610NA+    NA+37921  43.273  37.452   1.697
76611NA+    NA+37922  41.017  37.064  14.470
76612NA+    NA+37923  17.558  11.228   4.326
76613NA+    NA+37924   1.282   3.320  12.950
76614NA+    NA+37925  19.237  43.395  12.398
76615NA+    NA+37926   4.749  35.903  14.299
76616NA+    NA+37927  32.636   3.929   3.216
76617NA+    NA+37928  22.558   4.831   0.839
76618NA+    NA+37929   8.378  22.539  11.124
76619NA+    NA+37930  34.453  25.023  13.422
76620NA+    NA+37931   6.749  15.176   5.319
76621NA+    NA+37932   3.811  40.330  14.853
76622NA+    NA+37933  27.533  31.447  12.436
76623NA+    NA+37934  27.530  29.951  10.924
76624NA+    NA+37935   3.244  34.468  14.391
76625NA+    NA+37936  37.050  38.418   1.902
76626NA+    NA+37937  20.198  17.569   0.354
76627NA+    NA+37938  18.151  30.992   4.799
76628NA+    NA+37939  32.399  23.061  10.888
76629NA+    NA+37940  31.953  17.707  11.903
76630NA+    NA+37941   2.318  18.645  12.094
76631NA+    NA+37942  11.199  12.358  11.488
76632NA+    NA+37943  36.086  36.432  13.012
76633NA+    NA+37944  13.747  22.241  10.602
76634NA+    NA+37945  21.053   1.879   0.312
76635NA+    NA+37946   7.355  10.233  11.936
76636NA+    NA+37947  20.157  25.967   0.961
76637NA+    NA+37948  13.162   1.342   1.332
76638NA+    NA+37949  10.162  14.681   0.460
76639NA+    NA+37950   0.965  35.566   2.809
76640NA+    NA+37951  11.252  14.311   1.234
76641NA+    NA+37952  29.008  12.824   2.283
76642NA+    NA+37953  27.689  32.989   1.726
76643NA+    NA+37954  33.579  20.118   1.723
76644NA+    NA+37955   2.828  25.542   2.209
76645NA+    NA+37956  44.357   3.753  13.953
76646NA+    NA+37957  16.741  38.537  11.503
76647NA+    NA+37958   4.804  32.457  13.933
76648NA+    NA+37959   8.332  13.670  12.464
76649NA+    NA+37960   9.668   5.371   1.843
76650NA+    NA+37961  26.044   8.205  14.002
76651NA+    NA+37962  32.987  30.978   1.324
76652NA+    NA+37963  21.719  12.157  11.556
76653NA+    NA+37964  35.398   9.171   0.389
76654NA+    NA+37965  23.001   9.381  12.379
76655NA+    NA+37966  36.021  12.674  14.379
76656NA+    NA+37967  36.882  23.162  11.578
76657NA+    NA+37968  25.202  21.060  14.918
76658NA+    NA+37969  19.616  24.498   1.921
76659NA+    NA+37970  44.991  16.240  12.344
76660NA+    NA+37971  27.996  43.773  11.396
76661NA+    NA+37972  15.235  40.337   3.268
76662NA+    NA+37973  21.740  35.030   4.652
76663NA+    NA+37974  10.219  13.287   5.138
76664NA+    NA+37975  15.212  43.511  11.376
76665NA+    NA+37976  21.754   8.662  14.296
76666NA+    NA+37977  19.709  35.855   1.429
76667NA+    NA+37978  24.035  43.492   0.319
76668NA+    NA+37979  38.345  18.058  12.995
76669NA+    NA+37980  11.181  31.042  13.488
76670NA+    NA+37981  39.980  21.165   3.653
76671NA+    NA+37982  14.098  44.782  14.417
76672NA+    NA+37983  40.038  42.521   1.409
76673NA+    NA+37984  24.514   6.800  11.916
76674NA+    NA+37985  37.918   5.236  14.856
76675NA+    NA+37986   9.217  40.046  12.341
76676NA+    NA+37987  41.848  27.071  10.503
76677NA+    NA+37988  43.897  34.030   2.691
76678NA+    NA+37989  25.973  38.526   2.807
76679NA+    NA+37990  34.369   4.284   3.634
76680NA+    NA+37991  37.450  18.223   4.343
76681NA+    NA+37992  22.144  38.531  11.927
76682NA+    NA+37993  16.602  10.327  14.467
76683NA+    NA+37994  10.351  18.700   5.134
76684NA+    NA+37995   4.343  21.582   4.637
76685NA+    NA+37996  35.929  40.047  13.542
76686NA+    NA+37997  20.202  29.093   2.814
76687NA+    NA+37998   2.789   0.963  13.333
76688NA+    NA+37999   6.875   1.344   3.659
76689NA+    NA+38000  17.084   2.832  10.475
76690NA+    NA+38001  15.100   8.247   3.742
76691NA+    NA+38002  12.666  28.630   0.813
76692NA+    NA+38003  26.189  17.155   2.371
76693NA+    NA+38004  36.975  36.582   0.778
76694NA+    NA+38005   8.870  12.821   4.644
76695NA+    NA+38006  16.604  37.000   4.738
76696NA+    NA+38007   4.852  18.581  11.038
76697NA+    NA+38008  32.105   5.853   3.282
76698NA+    NA+38009  13.689   4.403   0.742
76699NA+    NA+38010  33.414  22.029   2.402
76700NA+    NA+38011  21.611  21.622   4.787
76701NA+    NA+38012   3.278  29.146  11.495
76702NA+    NA+38013  22.168  31.900  12.090
76703NA+    NA+38014  17.650  26.976  11.880
76704NA+    NA+38015   6.228  12.815   2.692
76705NA+    NA+38016  28.123  15.280   2.320
76706NA+    NA+38017  38.510  40.947   2.793
76707NA+    NA+38018  37.579  26.992  13.438
76708NA+    NA+38019  33.980  14.637  10.469
76709NA+    NA+38020   8.840  11.310   1.255
76710NA+    NA+38021  25.013  17.212   0.931
76711NA+    NA+38022  27.045  22.103   1.237
76712NA+    NA+38023  37.517  32.507  12.406
76713NA+    NA+38024  29.098  26.641   4.701
76714NA+    NA+38025  11.681   3.898  14.988
76715NA+    NA+38026  21.662  26.633  13.482
76716NA+    NA+38027  42.784  37.960   2.316
76717NA+    NA+38028  19.103  13.669   3.353
76718NA+    NA+38029   8.681  12.240  12.966
76719NA+    NA+38030  13.239   9.798  12.560
76720NA+    NA+38031   3.386  16.080   2.837
76721NA+    NA+38032  44.760  19.269  13.992
76722NA+    NA+38033  15.259   6.378   1.407
76723NA+    NA+38034  37.028  44.825   3.183
76724NA+    NA+38035   2.240  35.545   0.760
76725NA+    NA+38036  29.939  27.522  10.618
76726NA+    NA+38037  19.623  23.014   0.827
76727NA+    NA+38038  43.981  28.652   0.250
76728NA+    NA+38039  43.881  19.112   2.385
76729NA+    NA+38040   6.237   4.394  11.946
76730NA+    NA+38041  41.358   4.390   1.298
76731NA+    NA+38042   7.870  16.596   0.741
76732NA+    NA+38043  31.512  12.641   0.431
76733NA+    NA+38044   5.836  40.536  12.859
76734NA+    NA+38045  23.576  35.387   2.899
76735NA+    NA+38046  43.308   4.219   1.805
76736NA+    NA+38047  27.659  22.097   1.347
76737NA+    NA+38048  37.396   3.827   5.169
76738NA+    NA+38049  29.001  36.943  13.831
76739NA+    NA+38050   5.897  16.697   3.675
76740NA+    NA+38051  17.558  27.547   2.717
76741NA+    NA+38052  39.387   4.229   0.828
76742NA+    NA+38053  16.085  22.582   0.735
76743NA+    NA+38054  10.779  33.888   1.246
76744NA+    NA+38055   0.910  10.764   3.745
76745NA+    NA+38056  15.632  14.164   3.639
76746NA+    NA+38057  18.292   2.844  10.610
76747NA+    NA+38058  34.084  34.507  12.444
76748NA+    NA+38059  19.583  13.277   3.230
76749NA+    NA+38060   2.954  14.771   1.393
76750NA+    NA+38061  37.421  29.013  14.772
76751NA+    NA+38062   6.426  31.479   1.891
76752NA+    NA+38063  15.313   3.243   3.660
76753NA+    NA+38064  31.511  40.494  12.972
76754NA+    NA+38065  20.587  34.905   3.795
76755NA+    NA+38066  15.735  34.524   3.262
76756NA+    NA+38067  25.648  17.723   1.697
76757NA+    NA+38068  20.138   4.307   2.224
76758NA+    NA+38069  35.104  16.665  10.925
76759NA+    NA+38070  32.410  35.941  12.865
76760NA+    NA+38071  28.491  41.373  12.543
76761NA+    NA+38072  24.683  38.064   3.204
76762NA+    NA+38073  37.380  40.853   4.715
76763NA+    NA+38074  37.440  17.725   0.482
76764NA+    NA+38075  34.892   6.676  11.438
76765NA+    NA+38076  41.357  34.052  10.455
76766NA+    NA+38077  27.196  42.815   4.189
76767NA+    NA+38078  35.999  26.538   4.248
76768NA+    NA+38079  44.352   6.345  11.885
76769NA+    NA+38080  42.867   5.703   0.386
76770NA+    NA+38081  38.381  16.692  11.895
76771NA+    NA+38082  31.499  44.860  10.948
76772NA+    NA+38083  37.426  25.478   2.898
76773NA+    NA+38084  39.340  29.175   5.160
76774NA+    NA+38085   6.410  43.442  10.430
76775NA+    NA+38086  32.475  20.224  14.979
76776NA+    NA+38087  33.532  33.498   3.688
76777NA+    NA+38088  27.946  39.521  13.342
76778NA+    NA+38089  43.970  34.096  14.379
76779NA+    NA+38090   0.919  20.272   1.259
76780NA+    NA+38091  25.484  16.153  14.368
76781NA+    NA+38092  13.157  23.647   1.749
76782NA+    NA+38093  40.444  28.017  13.500
76783NA+    NA+38094   1.734  12.272  12.432
76784NA+    NA+38095  16.096  29.505  12.921
76785NA+    NA+38096  28.070  15.759  12.385
76786NA+    NA+38097  33.113   6.223   4.219
76787NA+    NA+38098  16.631  44.301   4.725
76788NA+    NA+38099  11.350  12.139  12.093
76789NA+    NA+38100  33.624  43.433   4.142
76790NA+    NA+38101  25.636  25.219  14.829
76791NA+    NA+38102  44.876  38.820   0.914
76792NA+    NA+38103  19.701  40.050  11.110
76793NA+    NA+38104  42.032  20.048   3.275
76794NA+    NA+38105  38.542  35.530  13.942
76795NA+    NA+38106  31.452   3.826   0.470
76796NA+    NA+38107  24.086   3.396  13.366
76797NA+    NA+38108  33.938  23.709  10.468
76798NA+    NA+38109  17.697  10.262   4.800
76799NA+    NA+38110  17.606  41.386   2.226
76800NA+    NA+38111  20.268  13.128  13.013
76801NA+    NA+38112  41.953   1.832  10.890
76802NA+    NA+38113   2.460  28.016  10.939
76803NA+    NA+38114  41.999  11.687  12.852
76804NA+    NA+38115  11.846  31.443   1.741
76805NA+    NA+38116  23.702  40.485  12.481
76806NA+    NA+38117  17.776  12.116  13.816
76807NA+    NA+38118  10.286  43.483  14.788
76808NA+    NA+38119  16.178  33.990   1.705
76809NA+    NA+38120  20.215  20.560   4.774
76810NA+    NA+38121   4.831  28.058   3.716
76811NA+    NA+38122  22.536  42.025   3.214
76812NA+    NA+38123  11.365  23.708   4.222
76813NA+    NA+38124  14.669  13.842   4.193
76814NA+    NA+38125   9.652  25.974   1.359
76815NA+    NA+38126  37.910   5.241   0.886
76816NA+    NA+38127  21.685  13.161   2.898
76817NA+    NA+38128  22.528  41.430   0.407
76818NA+    NA+38129  38.048   2.930  13.843
76819NA+    NA+38130  31.994  16.629   0.888
76820NA+    NA+38131   2.870  33.896  11.083
76821NA+    NA+38132  15.241   3.340   2.355
76822NA+    NA+38133  30.148   7.283   3.654
76823NA+    NA+38134   5.812  26.618   0.736
76824NA+    NA+38135   2.832  41.344  13.945
76825NA+    NA+38136  21.098  16.676  10.600
76826NA+    NA+38137  42.509  37.556  11.579
76827NA+    NA+38138  34.885  10.383   4.815
76828NA+    NA+38139  25.185   8.881   2.310
76829NA+    NA+38140  42.845  36.845   3.235
76830NA+    NA+38141  43.329  18.750  12.360
76831NA+    NA+38142   8.308  33.113  14.354
76832NA+    NA+38143  29.043  12.143  13.010
76833NA+    NA+38144  42.496  19.282   0.283
76834NA+    NA+38145  24.148  42.487   3.376
76835NA+    NA+38146   2.245  25.002  14.328
76836NA+    NA+38147   9.753  18.265   1.276
76837NA+    NA+38148  39.983  43.802  13.339
76838NA+    NA+38149  30.489  32.110   2.687
76839NA+    NA+38150  18.754   0.938  14.000
76840NA+    NA+38151  41.388  25.665   1.824
76841NA+    NA+38152  14.798  26.030  12.911
76842NA+    NA+38153   3.736  21.262  10.911
76843NA+    NA+38154  43.865  34.607   1.878
76844NA+    NA+38155  28.056  25.506  12.030
76845NA+    NA+38156  36.371  44.769   0.864
76846NA+    NA+38157  31.998  19.604   9.941
76847NA+    NA+38158  25.181  27.632  14.301
76848NA+    NA+38159  41.439  23.498  14.803
76849NA+    NA+38160   3.859  35.479   3.734
76850NA+    NA+38161   5.708  22.512   2.304
76851NA+    NA+38162  40.449  42.786   3.798
76852NA+    NA+38163  15.644  37.472  12.439
76853NA+    NA+38164   9.681   4.813  13.040
76854NA+    NA+38165  44.496  34.902   1.211
76855NA+    NA+38166  18.287  38.990   9.437
76856NA+    NA+38167  29.159  35.388  11.128
76857NA+    NA+38168   8.332   1.412   3.211
76858NA+    NA+38169   8.807   4.373   1.338
76859NA+    NA+38170  22.686  21.698  11.571
76860NA+    NA+38171  21.529  27.545   4.690
76861NA+    NA+38172  15.699  26.033   0.742
76862NA+    NA+38173  19.780  21.154   0.375
76863NA+    NA+38174  37.848  20.172  12.053
76864NA+    NA+38175  12.631  40.336   3.203
76865NA+    NA+38176  33.046  11.866   1.704
76866NA+    NA+38177  31.146  16.135  11.025
76867NA+    NA+38178  39.864  10.845   1.407
76868NA+    NA+38179   0.842  31.996   1.312
76869NA+    NA+38180  17.789   3.438  12.097
76870NA+    NA+38181   4.929  40.041   3.224
76871NA+    NA+38182  43.887  44.921  11.019
76872NA+    NA+38183  25.020  39.494   3.248
76873NA+    NA+38184  13.816  10.739   2.294
76874NA+    NA+38185   0.956  41.925  12.958
76875NA+    NA+38186   7.841  30.145   3.836
76876NA+    NA+38187  21.596  16.197  13.891
76877NA+    NA+38188  27.688  10.318  12.976
76878NA+    NA+38189  43.866   6.786   3.764
76879NA+    NA+38190  29.588   1.915  10.031
76880NA+    NA+38191  21.545  36.038  14.846
76881NA+    NA+38192  19.053   2.936  12.063
76882NA+    NA+38193  29.434  16.282   4.740
76883NA+    NA+38194  35.007  31.644  12.351
76884NA+    NA+38195   9.689  41.851   2.379
76885NA+    NA+38196  40.883  11.660   2.793
76886NA+    NA+38197   7.351  20.270   1.812
76887NA+    NA+38198  30.909  30.428   1.808
76888NA+    NA+38199  41.469  33.120  12.342
76889NA+    NA+38200   1.843  20.197  14.331
76890NA+    NA+38201  26.058  42.993   1.871
76891NA+    NA+38202  33.018  18.189   2.747
76892NA+    NA+38203  33.394  33.490  10.921
76893NA+    NA+38204  10.313  44.457  11.941
76894NA+    NA+38205  43.973   2.887  12.954
76895NA+    NA+38206  13.613   0.297  12.377
76896NA+    NA+38207  35.529  12.173   3.747
76897NA+    NA+38208   1.375   8.324  11.552
76898NA+    NA+38209  44.307   0.412   1.761
76899NA+    NA+38210  21.060  16.074  14.371
76900NA+    NA+38211  26.162  14.135  13.817
76901NA+    NA+38212  38.025  15.598   3.638
76902NA+    NA+38213  25.979  10.335  10.996
76903NA+    NA+38214  21.520   5.287  14.895
76904NA+    NA+38215  14.166  19.732  13.027
76905NA+    NA+38216  17.769   7.275   2.345
76906NA+    NA+38217  24.036  12.658   2.662
76907NA+    NA+38218  30.448  30.992  14.902
76908NA+    NA+38219  24.576  15.308  10.475
76909NA+    NA+38220  31.137  39.026   4.729
76910NA+    NA+38221  15.662  27.940  12.359
76911NA+    NA+38222  28.160  40.378   3.261
76912NA+    NA+38223  27.122  29.598  14.841
76913NA+    NA+38224  36.985   8.292  14.005
76914NA+    NA+38225  17.797  19.203  13.047
76915NA+    NA+38226  21.212   2.342   2.231
76916NA+    NA+38227  23.630  25.032  11.483
76917NA+    NA+38228  10.714   4.705  13.901
76918NA+    NA+38229   0.463  31.147   2.832
76919NA+    NA+38230   0.257  32.049  11.414
76920NA+    NA+38231  20.108  20.210   0.276
76921NA+    NA+38232   9.392  31.105  10.503
76922NA+    NA+38233  19.542  25.053  14.346
76923NA+    NA+38234  24.159  14.735   0.850
76924NA+    NA+38235  30.501  23.185  12.548
76925NA+    NA+38236  14.337   5.859   3.166
76926NA+    NA+38237  19.260  42.779  11.924
76927NA+    NA+38238   1.790  25.671  10.533
76928NA+    NA+38239  24.689   7.874  14.006
76929NA+    NA+38240   3.895  12.137  10.985
76930NA+    NA+38241  35.426  33.919   3.791
76931NA+    NA+38242  29.057   7.686  14.019
76932NA+    NA+38243   8.768   2.925   1.747
76933NA+    NA+38244  38.350  15.146  11.418
76934NA+    NA+38245  14.184  40.908  14.967
76935NA+    NA+38246   8.235  28.449   0.909
76936NA+    NA+38247  20.562  40.508  12.872
76937NA+    NA+38248  14.815  38.457  11.534
76938NA+    NA+38249   9.346  31.020   1.389
76939NA+    NA+38250  10.803  29.942  11.584
76940NA+    NA+38251  25.517  39.457  12.949
76941NA+    NA+38252  43.316  34.976   2.403
76942NA+    NA+38253  36.429  25.203   2.361
76943NA+    NA+38254  31.507  36.912  13.878
76944NA+    NA+38255  28.438   8.790   4.744
76945NA+    NA+38256   7.756   0.931   4.671
76946NA+    NA+38257  43.381   3.220   0.480
76947NA+    NA+38258   4.739  11.257   0.342
76948NA+    NA+38259   3.357  30.610  13.517
76949NA+    NA+38260   2.926  25.525   4.744
76950NA+    NA+38261  16.617  19.598   5.296
76951NA+    NA+38262  40.367  42.010   4.813
76952NA+    NA+38263   6.249  42.514  12.885
76953NA+    NA+38264   2.300  23.612   1.761
76954NA+    NA+38265  20.554  37.504  10.969
76955NA+    NA+38266  40.487  32.421   1.726
76956NA+    NA+38267  40.039  34.557  13.909
76957NA+    NA+38268   1.902  39.876  13.935
76958NA+    NA+38269   6.741  21.042  14.870
76959NA+    NA+38270  17.721   3.878  13.397
76960NA+    NA+38271  43.863  10.157  14.412
76961NA+    NA+38272  31.995  13.351  11.958
76962NA+    NA+38273  36.879  14.736   4.602
76963NA+    NA+38274  10.243  34.559   2.869
76964NA+    NA+38275   8.401  39.340   0.274
76965NA+    NA+38276  15.109   8.277   2.218
76966NA+    NA+38277  34.880  39.901   3.657
76967NA+    NA+38278  34.033   1.457  14.008
76968NA+    NA+38279  32.910  36.498  11.517
76969NA+    NA+38280  39.866   1.453  12.046
76970NA+    NA+38281   6.889  33.011  13.887
76971NA+    NA+38282  19.095  42.523   0.824
76972NA+    NA+38283  37.023  44.790   2.411
76973NA+    NA+38284  36.417  15.658   2.374
76974NA+    NA+38285  19.121  34.988  13.909
76975NA+    NA+38286  36.862  33.487  13.042
76976NA+    NA+38287   5.756  33.989   1.748
76977NA+    NA+38288  15.090  26.009   5.806
76978NA+    NA+38289   7.695   8.678  10.447
76979NA+    NA+38290   3.926  31.438   4.256
76980NA+    NA+38291  35.381  14.624   0.483
76981NA+    NA+38292  24.671  30.648  12.557
76982NA+    NA+38293   0.913  30.087   2.385
76983NA+    NA+38294  35.417  12.160  12.558
76984NA+    NA+38295   6.207  35.889  10.918
76985NA+    NA+38296   8.678   6.300  11.979
76986NA+    NA+38297  39.841  31.592  11.600
76987NA+    NA+38298   8.674  40.804  14.372
76988NA+    NA+38299  25.561  23.527  11.078
76989NA+    NA+38300  26.049  43.849   0.850
76990NA+    NA+38301  21.604  24.544   3.765
76991NA+    NA+38302  38.375  28.480  11.889
76992NA+    NA+38303  40.449  28.602   3.257
76993NA+    NA+38304   5.782  18.752   0.331
76994NA+    NA+38305  20.148  15.723   1.813
76995NA+    NA+38306  44.399  21.678  14.977
76996NA+    NA+38307  36.080  34.088   4.667
76997NA+    NA+38308  11.785  12.635   4.183
76998NA+    NA+38309   2.764   2.791  14.507
76999NA+    NA+38310   8.873  27.597  14.016
77000NA+    NA+38311  24.558  25.564  11.027
77001NA+    NA+38312  42.925  24.688   0.394
77002NA+    NA+38313  44.398  38.451  10.625
77003NA+    NA+38314  36.960   5.418   4.175
77004NA+    NA+38315  38.341   3.303  14.824
77005NA+    NA+38316  32.943  24.153  12.046
77006NA+    NA+38317   4.700   2.963  14.416
77007NA+    NA+38318  27.081  31.498  14.435
77008NA+    NA+38319  42.283  36.399  12.876
77009NA+    NA+38320  11.263   7.310   2.198
77010NA+    NA+38321  14.815  37.872   4.204
77011NA+    NA+38322   7.246   1.302  10.409
77012NA+    NA+38323   5.879  29.629  10.954
77013NA+    NA+38324  26.683  24.554   4.824
77014NA+    NA+38325  25.106   3.867  13.434
77015NA+    NA+38326  29.954  29.463   3.279
77016NA+    NA+38327  17.683   4.318  12.010
77017NA+    NA+38328   8.268  37.581   4.274
77018NA+    NA+38329  30.543  23.164  14.289
77019NA+    NA+38330  43.850  27.455  12.519
77020NA+    NA+38331  32.576  16.646  14.448
77021NA+    NA+38332   3.727  12.204  13.545
77022NA+    NA+38333  39.476  41.330  13.464
77023NA+    NA+38334   8.231  42.312   1.374
77024NA+    NA+38335  24.050  25.616  12.863
77025NA+    NA+38336  20.560   5.908  10.420
77026NA+    NA+38337  37.369  18.593  14.325
77027NA+    NA+38338  10.329  27.516   4.699
77028NA+    NA+38339  40.946  26.099   4.797
77029NA+    NA+38340  37.395   4.699  14.344
77030NA+    NA+38341  24.974  40.960  12.969
77031NA+    NA+38342  40.493  20.175  11.098
77032NA+    NA+38343   5.354  32.081   1.742
77033NA+    NA+38344  42.828  24.052  11.117
77034NA+    NA+38345  24.479  19.650  13.806
77035NA+    NA+38346  37.498  28.609  11.100
77036NA+    NA+38347  21.513  24.217  11.395
77037NA+    NA+38348  15.125  15.273   5.762
77038NA+    NA+38349  28.582   8.845  10.513
77039NA+    NA+38350  28.983  23.167  10.552
77040NA+    NA+38351  19.212  41.409   1.859
77041NA+    NA+38352  14.733  32.579   2.321
77042NA+    NA+38353  38.346  14.248   0.855
77043NA+    NA+38354  34.434  39.329   4.200
77044NA+    NA+38355  39.463  11.358  12.408
77045NA+    NA+38356  35.493  31.928  13.426
77046NA+    NA+38357   6.283  19.040   4.161
77047NA+    NA+38358  44.328  40.332   3.644
77048NA+    NA+38359  23.630   4.869  12.921
77049NA+    NA+38360  16.789  35.434   4.809
77050NA+    NA+38361  44.833  23.493   0.426
77051NA+    NA+38362  19.050  38.420   3.350
77052NA+    NA+38363  15.108  15.799   4.322
77053NA+    NA+38364  10.178   6.788  12.362
77054NA+    NA+38365   7.906  38.854   3.779
77055NA+    NA+38366  11.859  14.704   2.309
77056NA+    NA+38367  10.676  32.433  10.932
77057NA+    NA+38368  12.635  36.049   4.793
77058NA+    NA+38369  35.430  11.142   3.652
77059NA+    NA+38370   9.268  43.495  12.475
77060NA+    NA+38371  38.858  25.203  11.961
77061NA+    NA+38372  19.141  18.714  12.469
77062NA+    NA+38373  27.560  31.937  13.948
77063NA+    NA+38374  21.711   3.775   3.839
77064NA+    NA+38375  34.404   2.310   3.294
77065NA+    NA+38376  14.601  34.541   2.308
77066NA+    NA+38377  44.379  37.028  13.495
77067NA+    NA+38378  10.830  21.620   4.196
77068NA+    NA+38379  14.780  22.567   3.711
77069NA+    NA+38380  30.989  44.456   4.734
77070NA+    NA+38381  38.479  30.465   1.298
77071NA+    NA+38382  40.430   7.275  11.601
77072NA+    NA+38383  30.514   1.264   2.757
77073NA+    NA+38384  44.308  32.998   0.271
77074NA+    NA+38385  18.755  29.969   1.762
77075NA+    NA+38386  16.177  30.002  10.970
77076NA+    NA+38387   0.453  33.414   0.951
77077NA+    NA+38388  19.727   0.923  11.952
77078NA+    NA+38389  27.681   6.872   3.717
77079NA+    NA+38390  25.666  13.221   2.871
77080NA+    NA+38391  24.565  40.029  10.971
77081NA+    NA+38392   2.261  14.594  14.315
77082NA+    NA+38393  30.127  25.166  12.041
77083NA+    NA+38394   2.288   6.352   4.263
77084NA+    NA+38395  40.314  23.597   3.830
77085NA+    NA+38396   9.375  28.549   4.627
77086NA+    NA+38397  34.870  27.146  11.080
77087NA+    NA+38398   1.359   3.401  11.422
77088NA+    NA+38399  12.766  23.530  13.472
77089NA+    NA+38400  33.579  31.455   1.441
77090NA+    NA+38401   8.764  29.140  10.616
77091NA+    NA+38402  23.585  44.919   1.379
77092NA+    NA+38403  13.642  42.932  14.994
77093NA+    NA+38404  19.622  36.889   1.400
77094NA+    NA+38405  42.403  41.924   4.138
77095NA+    NA+38406  22.534  33.964   2.360
77096NA+    NA+38407  13.311  38.355  13.429
77097NA+    NA+38408  27.476  22.633   1.373
77098NA+    NA+38409  14.637  22.533  10.624
77099NA+    NA+38410   8.873  25.688  13.911
77100NA+    NA+38411  36.875   7.223   1.302
77101NA+    NA+38412  30.101  43.458  14.983
77102NA+    NA+38413  22.250  44.473  11.562
77103NA+    NA+38414  44.907  42.860  12.078
77104NA+    NA+38415  20.259  15.200  14.029
77105NA+    NA+38416  18.290  24.191   1.862
77106NA+    NA+38417  17.165  41.402  12.993
77107NA+    NA+38418  34.036  40.418  14.379
77108NA+    NA+38419  25.086  35.431   3.218
77109NA+    NA+38420  34.114   1.355   3.813
77110NA+    NA+38421  34.048  12.213   3.270
77111NA+    NA+38422  11.294  25.970   1.316
77112NA+    NA+38423  30.159   8.790   5.716
77113NA+    NA+38424  22.704  19.045  11.981
77114NA+    NA+38425  12.353   5.224   2.840
77115NA+    NA+38426  36.579  38.058   9.650
77116NA+    NA+38427  13.676  27.631  11.917
77117NA+    NA+38428   3.804  17.165   2.685
77118NA+    NA+38429   6.239  37.397   2.803
77119NA+    NA+38430  41.797  22.532   1.793
77120NA+    NA+38431  25.618  33.413  13.852
77121NA+    NA+38432  12.322  33.008   0.792
77122NA+    NA+38433   8.357  35.969  14.404
77123NA+    NA+38434   9.697  14.100   3.174
77124NA+    NA+38435  28.434   0.309  12.883
77125NA+    NA+38436  38.365  28.526   3.722
77126NA+    NA+38437  43.502  29.963   2.301
77127NA+    NA+38438  19.240  30.452  13.447
77128NA+    NA+38439  33.967   3.732  14.282
77129NA+    NA+38440  40.304   8.252   2.320
77130NA+    NA+38441  30.490  26.463   5.290
77131NA+    NA+38442   6.795  10.180  13.865
77132NA+    NA+38443  44.850  24.121  13.058
77133NA+    NA+38444  22.708  33.587   0.783
77134NA+    NA+38445  19.589  41.394   2.320
77135NA+    NA+38446  25.164  15.209  14.888
77136NA+    NA+38447  15.294  36.016  13.815
77137NA+    NA+38448   7.709  25.107   0.798
77138NA+    NA+38449  12.792   2.756   1.874
77139NA+    NA+38450  37.451  22.120  14.776
77140NA+    NA+38451  27.971  23.725   5.239
77141NA+    NA+38452   5.390  30.650  12.056
77142NA+    NA+38453   8.259   9.862  13.530
77143NA+    NA+38454  39.385  30.582   2.219
77144NA+    NA+38455  25.027  37.944  13.828
77145NA+    NA+38456  37.391  17.294  14.811
77146NA+    NA+38457  26.042  23.679  10.914
77147NA+    NA+38458   6.843  27.601   2.311
77148NA+    NA+38459  26.481  21.033  11.436
77149NA+    NA+38460  42.914  39.548   3.799
77150NA+    NA+38461  31.906   8.406  14.972
77151NA+    NA+38462  35.915  29.955   3.159
77152NA+    NA+38463  40.501  25.633   2.780
77153NA+    NA+38464  20.572  17.735   2.382
77154NA+    NA+38465   3.779  18.050   2.664
77155NA+    NA+38466   9.330  10.346  14.505
77156NA+    NA+38467  18.145  32.895  14.478
77157NA+    NA+38468  17.092   0.477   0.280
77158NA+    NA+38469  20.556  22.143   4.838
77159NA+    NA+38470   3.936   8.849   4.810
77160NA+    NA+38471  14.252  13.178   2.392
77161NA+    NA+38472  23.731  41.817  14.946
77162NA+    NA+38473   2.935  37.471   3.805
77163NA+    NA+38474   4.249  21.614  10.983
77164NA+    NA+38475  40.020  14.742   1.785
77165NA+    NA+38476  26.534  12.725  11.029
77166NA+    NA+38477  39.951   5.899  14.459
77167NA+    NA+38478  13.638  39.939  13.855
77168NA+    NA+38479  23.084   2.790   2.883
77169NA+    NA+38480  23.655   9.393  10.583
77170NA+    NA+38481  42.853   7.687  10.429
77171NA+    NA+38482   1.389  18.136   3.305
77172NA+    NA+38483  44.010  40.333   4.643
77173NA+    NA+38484  25.694  43.887   3.735
77174NA+    NA+38485   3.397  16.646   1.806
77175NA+    NA+38486  10.368   5.201  10.452
77176NA+    NA+38487  33.888   2.431   0.467
77177NA+    NA+38488  40.422  40.465   1.787
77178NA+    NA+38489  21.524  37.527   9.460
77179NA+    NA+38490  17.648   2.435   2.787
77180NA+    NA+38491  29.553  28.025   0.421
77181NA+    NA+38492  24.650  20.549  11.406
77182NA+    NA+38493  36.907  19.150  10.909
77183NA+    NA+38494  40.433  28.525   0.889
77184NA+    NA+38495  44.287   9.333   4.329
77185NA+    NA+38496  10.835  24.191   3.354
77186NA+    NA+38497  19.644  19.707  11.046
77187NA+    NA+38498   5.422   7.323  14.298
77188NA+    NA+38499  42.320  15.311   4.803
77189NA+    NA+38500  30.070  27.952   2.273
77190NA+    NA+38501  43.294  40.017  14.996
77191NA+    NA+38502  26.530   7.668  12.916
77192NA+    NA+38503  42.495  15.625  13.821
77193NA+    NA+38504   5.744  42.454   3.250
77194NA+    NA+38505  37.907  23.513   3.344
77195NA+    NA+38506  13.234  19.163   0.409
77196NA+    NA+38507   2.764   9.889   1.838
77197NA+    NA+38508  15.202  32.483  13.017
77198NA+    NA+38509  25.133  42.375   0.452
77199NA+    NA+38510  39.446   3.796  13.924
77200NA+    NA+38511  37.980  22.558   2.212
77201NA+    NA+38512  10.205  32.445  12.997
77202NA+    NA+38513  10.233  26.995  14.010
77203NA+    NA+38514   7.697  14.706   0.788
77204NA+    NA+38515  22.741  39.809  13.330
77205NA+    NA+38516  43.355  15.697   0.319
77206NA+    NA+38517  37.891   4.753   2.379
77207NA+    NA+38518   8.752  32.017  13.021
77208NA+    NA+38519  23.170  29.945   2.190
77209NA+    NA+38520  30.144  13.618  13.457
77210NA+    NA+38521  16.261  35.483  14.943
77211NA+    NA+38522  19.751   4.816  11.105
77212NA+    NA+38523  23.615  16.637  13.946
77213NA+    NA+38524  24.708   2.952  14.513
77214NA+    NA+38525  20.093  29.093   3.717
77215NA+    NA+38526  22.697  26.980   0.858
77216NA+    NA+38527   3.236   9.670  10.518
77217NA+    NA+38528  30.587   0.919   3.280
77218NA+    NA+38529  18.725  42.929   4.638
77219NA+    NA+38530  16.309  10.866   0.260
77220NA+    NA+38531   4.869  18.053  12.404
77221NA+    NA+38532  32.514  35.451   4.826
77222NA+    NA+38533  21.733   2.848  14.507
77223NA+    NA+38534  36.529  13.130  10.623
77224NA+    NA+38535  11.248  37.537  10.936
77225NA+    NA+38536  34.958  11.355   3.305
77226NA+    NA+38537  43.989  34.386  12.083
77227NA+    NA+38538   3.227  21.598  14.873
77228NA+    NA+38539  10.266  26.171   4.763
77229NA+    NA+38540   7.389   4.303   3.629
77230NA+    NA+38541  28.101  34.991   3.153
77231NA+    NA+38542  26.580   4.902   4.342
77232NA+    NA+38543  26.623  23.990   2.803
77233NA+    NA+38544  27.604  24.002   4.700
77234NA+    NA+38545  30.956  14.747  14.493
77235NA+    NA+38546  27.188  35.472  11.962
77236NA+    NA+38547  26.167  43.339  12.956
77237NA+    NA+38548  25.157  39.988  11.083
77238NA+    NA+38549  42.942   6.349   5.274
77239NA+    NA+38550  20.198  12.617   3.786
77240NA+    NA+38551  32.460   9.212  11.565
77241NA+    NA+38552  40.821  23.988  11.023
77242NA+    NA+38553  44.781   7.392   0.330
77243NA+    NA+38554  39.400  10.199   1.699
77244NA+    NA+38555  14.149   2.351  14.017
77245NA+    NA+38556  25.014  21.086  14.337
77246NA+    NA+38557  23.148  43.820   2.362
77247NA+    NA+38558  24.213  14.766  11.427
77248NA+    NA+38559  43.385  17.592   4.803
77249NA+    NA+38560  30.049  24.072  14.887
77250NA+    NA+38561  16.098  31.585   2.231
77251NA+    NA+38562   3.836  24.622   2.357
77252NA+    NA+38563  43.331  34.435   2.323
77253NA+    NA+38564   6.800  11.254   3.661
77254NA+    NA+38565   8.872  12.252   4.697
77255NA+    NA+38566  26.062  34.577  12.037
77256NA+    NA+38567  27.061  40.356   4.232
77257NA+    NA+38568  43.979   1.757   3.294
77258NA+    NA+38569  11.314  41.315  13.852
77259NA+    NA+38570   8.247  28.449   1.935
77260NA+    NA+38571  14.626  42.805   3.854
77261NA+    NA+38572  15.106  43.366   2.190
77262NA+    NA+38573   5.862  16.280  12.377
77263NA+    NA+38574  43.908  32.526  11.443
77264NA+    NA+38575  28.658  15.156   0.372
77265NA+    NA+38576  38.358  35.038   3.280
77266NA+    NA+38577  38.458  19.599  11.504
77267NA+    NA+38578  39.517  29.944  10.078
77268NA+    NA+38579  40.947  17.263  14.894
77269NA+    NA+38580  31.147  38.003   3.221
77270NA+    NA+38581  31.643  18.143  14.443
77271NA+    NA+38582  40.810  18.777   0.458
77272NA+    NA+38583  19.607  23.626   3.341
77273NA+    NA+38584  26.633  26.641  13.946
77274NA+    NA+38585   0.299  17.697  11.494
77275NA+    NA+38586  28.549   9.224  12.906
77276NA+    NA+38587  24.212  37.857  13.937
77277NA+    NA+38588  27.067  23.053  12.950
77278NA+    NA+38589  28.041  38.876   1.814
77279NA+    NA+38590   4.278   8.312  14.301
77280NA+    NA+38591   5.194  33.973   3.291
77281NA+    NA+38592   7.682  41.366   4.814
77282NA+    NA+38593  13.718  30.970  13.057
77283NA+    NA+38594   3.811  36.029  11.009
77284NA+    NA+38595  19.053  44.849  11.489
77285NA+    NA+38596   8.684  41.912  12.353
77286NA+    NA+38597  44.502  37.517   4.738
77287NA+    NA+38598  21.666  12.652  14.789
77288NA+    NA+38599  43.918  38.428   2.301
77289NA+    NA+38600  30.960  15.288  10.519
77290NA+    NA+38601   6.187  41.494  12.514
77291NA+    NA+38602  39.987  19.115   3.299
77292NA+    NA+38603  31.614  24.564  12.434
77293NA+    NA+38604   6.735  38.957  13.410
77294NA+    NA+38605  29.584  32.919   4.301
77295NA+    NA+38606  27.651  39.994   0.295
77296NA+    NA+38607  22.135  10.268   1.791
77297NA+    NA+38608  26.692  13.754  11.533
77298NA+    NA+38609  22.519   7.702  14.477
77299NA+    NA+38610  37.472  17.727  10.493
77300NA+    NA+38611  11.698  14.330   3.694
77301NA+    NA+38612  27.582  15.743  11.949
77302NA+    NA+38613  33.960  29.527   4.764
77303NA+    NA+38614   4.432  15.769  14.786
77304NA+    NA+38615   3.444  19.623   4.169
77305NA+    NA+38616  31.959  31.646  12.432
77306NA+    NA+38617  26.073  34.113   2.182
77307NA+    NA+38618  23.151   1.403   0.901
77308NA+    NA+38619  39.866  21.026  14.853
77309NA+    NA+38620  30.101   2.310   3.668
77310NA+    NA+38621  12.314  22.698   4.652
77311NA+    NA+38622  26.166  18.658   3.681
77312NA+    NA+38623  19.064  40.998   3.191
77313NA+    NA+38624  30.992  23.502   0.310
77314NA+    NA+38625   7.380  24.044  14.014
77315NA+    NA+38626  25.993  34.910  14.805
77316NA+    NA+38627  40.849  18.574  10.600
77317NA+    NA+38628   7.238  30.040   1.404
77318NA+    NA+38629  12.132   4.365  10.419
77319NA+    NA+38630   8.307  14.642   0.287
77320NA+    NA+38631  19.228  43.506   2.238
77321NA+    NA+38632  42.287   6.768   0.797
77322NA+    NA+38633   6.845  17.249  11.407
77323NA+    NA+38634   4.936  32.418  11.454
77324NA+    NA+38635   1.910  15.758  12.569
77325NA+    NA+38636  21.150  14.121  14.507
77326NA+    NA+38637  19.561  24.691  13.892
77327NA+    NA+38638  31.948   3.954  13.814
77328NA+    NA+38639  40.978  14.642  12.845
77329NA+    NA+38640  32.589  39.556   2.302
77330NA+    NA+38641  17.238  28.053   0.466
77331NA+    NA+38642  10.803  31.462   0.435
77332NA+    NA+38643  21.520  41.425   5.282
77333NA+    NA+38644  23.138  36.525   4.147
77334NA+    NA+38645  41.879   0.294   2.855
77335NA+    NA+38646   7.216  10.241   0.802
77336NA+    NA+38647  13.348   8.722  10.487
77337NA+    NA+38648  30.022  24.102   4.122
77338NA+    NA+38649  29.148  16.183   3.748
77339NA+    NA+38650   6.856  38.333  14.937
77340NA+    NA+38651  28.006  29.573   2.197
77341NA+    NA+38652  44.935   6.677  14.331
77342NA+    NA+38653  35.091  24.030   3.816
77343NA+    NA+38654  13.293   7.887  12.384
77344NA+    NA+38655  14.103  10.715   0.813
77345NA+    NA+38656  28.591   5.338   2.372
77346NA+    NA+38657  17.743  39.961  14.975
77347NA+    NA+38658  19.058   8.659  14.938
77348NA+    NA+38659  19.141  37.959  13.024
77349NA+    NA+38660  25.985  15.771   1.290
77350NA+    NA+38661   0.894  27.593  12.348
77351NA+    NA+38662  40.838  43.812   3.322
77352NA+    NA+38663  29.049  33.609   2.191
77353NA+    NA+38664  29.528  36.565  13.845
77354NA+    NA+38665  23.662  16.774  11.062
77355NA+    NA+38666  37.550  20.137  11.521
77356NA+    NA+38667  11.188  42.439  12.497
77357NA+    NA+38668  16.567  41.324   2.707
77358NA+    NA+38669  22.044   2.452   2.202
77359NA+    NA+38670  37.984  16.244   0.282
77360NA+    NA+38671  42.934  10.138   1.881
77361NA+    NA+38672   5.777  36.990  13.044
77362NA+    NA+38673   5.833   1.833   3.865
77363NA+    NA+38674  14.704  40.482  11.570
77364NA+    NA+38675   0.370   9.187  14.010
77365NA+    NA+38676  25.968  29.027   1.349
77366NA+    NA+38677  24.997   1.266   2.754
77367NA+    NA+38678  35.008  39.889  12.516
77368NA+    NA+38679  24.174  12.186   4.820
77369NA+    NA+38680  36.430  14.126   1.298
77370NA+    NA+38681  18.677  36.532  14.892
77371NA+    NA+38682  36.897  34.074  13.900
77372NA+    NA+38683  44.900  40.917   1.848
77373NA+    NA+38684  37.049  13.348   3.332
77374NA+    NA+38685  22.732  25.123   0.277
77375NA+    NA+38686   7.877  38.373  11.973
77376NA+    NA+38687  11.333  33.899   1.932
77377NA+    NA+38688  15.681  21.042   5.205
77378NA+    NA+38689   8.399   9.173  14.444
77379NA+    NA+38690  21.560  11.132   3.208
77380NA+    NA+38691  11.177  18.715  12.413
77381NA+    NA+38692   7.175  37.980   3.278
77382NA+    NA+38693   4.433  20.169   2.896
77383NA+    NA+38694   4.878  37.013  13.883
77384NA+    NA+38695  31.005   2.893  13.321
77385NA+    NA+38696  35.040  24.504  13.944
77386NA+    NA+38697  33.125  18.278  10.479
77387NA+    NA+38698   7.282  29.000   1.267
77388NA+    NA+38699  42.967  37.945  13.895
77389NA+    NA+38700  43.875   4.294   0.434
77390NA+    NA+38701  17.085  44.478   3.365
77391NA+    NA+38702  40.374   1.247  12.352
77392NA+    NA+38703  19.629   4.856  14.301
77393NA+    NA+38704   5.277   3.437  10.443
77394NA+    NA+38705  13.198  17.738  11.392
77395NA+    NA+38706  14.250  36.088  14.351
77396NA+    NA+38707  14.746  33.407  12.973
77397NA+    NA+38708  19.269  29.432  14.339
77398NA+    NA+38709  10.851   3.758  11.000
77399NA+    NA+38710  15.582   0.950  12.078
77400NA+    NA+38711   4.913  22.734  13.811
77401NA+    NA+38712  29.007  42.488  14.991
77402NA+    NA+38713   6.214  18.545  11.961
77403NA+    NA+38714   4.432  15.732   1.779
77404NA+    NA+38715  38.406  11.806   3.216
77405NA+    NA+38716   5.288  13.758   4.156
77406NA+    NA+38717  10.159   6.405   0.803
77407NA+    NA+38718  34.614  33.616   3.233
77408NA+    NA+38719   9.881  29.461   2.331
77409NA+    NA+38720  26.963  20.749  11.972
77410NA+    NA+38721  15.178   7.206   4.829
77411NA+    NA+38722  24.621   2.963   2.707
77412NA+    NA+38723  30.415  42.302   0.736
77413NA+    NA+38724   4.289  14.819  10.562
77414NA+    NA+38725  38.553  20.731   4.114
77415NA+    NA+38726  28.617  26.004   0.836
77416NA+    NA+38727   3.832  18.685   3.674
77417NA+    NA+38728  35.063  36.404   4.161
77418NA+    NA+38729  39.447  28.947   2.761
77419NA+    NA+38730   9.655  34.079   4.816
77420NA+    NA+38731  20.721  12.348  10.968
77421NA+    NA+38732  24.046  33.047   2.876
77422NA+    NA+38733  13.747  21.723  13.424
77423NA+    NA+38734  17.294  18.781  12.961
77424NA+    NA+38735  41.445  40.951  13.545
77425NA+    NA+38736  17.755  25.998  11.557
77426NA+    NA+38737  36.935  28.161  14.277
77427NA+    NA+38738  29.668  27.175  13.469
77428NA+    NA+38739  36.437  19.241   3.827
77429NA+    NA+38740   3.786  19.572  12.987
77430NA+    NA+38741  19.220  14.104  11.416
77431NA+    NA+38742  40.022  38.352   4.145
77432NA+    NA+38743  42.515  44.383  14.967
77433NA+    NA+38744  36.921   3.758  11.000
77434NA+    NA+38745  26.985   5.893   3.153
77435NA+    NA+38746  23.029  20.532   1.397
77436NA+    NA+38747   4.410   8.203  14.767
77437NA+    NA+38748  12.671  44.943  14.929
77438NA+    NA+38749  42.991  36.011  14.020
77439NA+    NA+38750  14.723  11.157  14.899
77440NA+    NA+38751  15.151   1.785  10.426
77441NA+    NA+38752  23.509  21.751  12.939
77442NA+    NA+38753  12.243  33.626  12.386
77443NA+    NA+38754  37.053   0.486   4.117
77444NA+    NA+38755   8.865  39.316   0.452
77445NA+    NA+38756   1.905  17.785  11.058
77446NA+    NA+38757  18.554  19.635   5.253
77447NA+    NA+38758  44.961  27.598   2.886
77448NA+    NA+38759  39.555  40.493  13.900
77449NA+    NA+38760  44.821  32.441   1.271
77450NA+    NA+38761   5.767  16.609  13.470
77451NA+    NA+38762   8.827   6.373  11.381
77452NA+    NA+38763  12.138   1.328  10.450
77453NA+    NA+38764   2.239   8.844   1.793
77454NA+    NA+38765  43.287   7.364  13.413
77455NA+    NA+38766  14.620  32.045   2.683
77456NA+    NA+38767  42.930  30.140  10.632
77457NA+    NA+38768   6.721  24.055  14.841
77458NA+    NA+38769  28.028  26.593   5.265
77459NA+    NA+38770   3.781  14.275  12.451
77460NA+    NA+38771  19.750  19.755   0.770
77461NA+    NA+38772  40.951  34.411  11.512
77462NA+    NA+38773   6.370  31.614  14.896
77463NA+    NA+38774  41.495  13.838  11.488
77464NA+    NA+38775   2.327  28.074  10.636
77465NA+    NA+38776  39.347   1.323  12.837
77466NA+    NA+38777  38.838   5.234   0.436
77467NA+    NA+38778  44.373  33.023   5.107
77468NA+    NA+38779  22.068  37.391   3.196
77469NA+    NA+38780   3.731   9.704   3.795
77470NA+    NA+38781   6.827  19.556   4.345
77471NA+    NA+38782  32.123  37.988   1.904
77472NA+    NA+38783  24.061  25.630  10.937
77473NA+    NA+38784   3.876  30.451  13.804
77474NA+    NA+38785  21.662  37.411  11.856
77475NA+    NA+38786  27.505  35.530   2.275
77476NA+    NA+38787  17.149  33.437  11.023
77477NA+    NA+38788  31.084   4.718  11.594
77478NA+    NA+38789  13.837  15.084   0.429
77479NA+    NA+38790   3.457  24.692  12.374
77480NA+    NA+38791   5.890  32.398   3.764
77481NA+    NA+38792   1.925   0.287  14.031
77482NA+    NA+38793   7.272  19.539   9.937
77483NA+    NA+38794  37.022  44.841  14.827
77484NA+    NA+38795  32.127  27.571  12.489
77485NA+    NA+38796  26.066   2.738   0.806
77486NA+    NA+38797   4.299  28.163   1.781
77487NA+    NA+38798  22.108  42.875  11.435
77488NA+    NA+38799  39.066  33.462  13.388
77489NA+    NA+38800   6.292   1.806  11.550
77490NA+    NA+38801  43.929  17.078  13.937
77491NA+    NA+38802  25.172   4.731  11.986
77492NA+    NA+38803  12.664   6.884   0.275
77493NA+    NA+38804  17.098  32.996  11.577
77494NA+    NA+38805  16.618   8.188   2.256
77495NA+    NA+38806  29.058  16.124   4.327
77496NA+    NA+38807  15.212  31.954  12.050
77497NA+    NA+38808  19.105  35.059   4.226
77498NA+    NA+38809  39.819   9.688   0.427
77499NA+    NA+38810  19.164   7.848  11.055
77500NA+    NA+38811  41.024  28.442  14.284
77501NA+    NA+38812  23.050  41.322   0.864
77502NA+    NA+38813  22.543   2.396  11.382
77503NA+    NA+38814  27.575  22.238   3.767
77504NA+    NA+38815  21.695  19.773   5.801
77505NA+    NA+38816  11.752  40.494   0.831
77506NA+    NA+38817   5.274  43.273  14.931
77507NA+    NA+38818  31.969  39.431  10.471
77508NA+    NA+38819  33.102  36.878   1.271
77509NA+    NA+38820  15.803  35.880   2.762
77510NA+    NA+38821  19.064   2.391  14.483
77511NA+    NA+38822  20.597   4.220   4.348
77512NA+    NA+38823   6.364   8.764  14.843
77513NA+    NA+38824  38.516  27.147  11.597
77514NA+    NA+38825  36.580   5.779   4.271
77515NA+    NA+38826  30.078   7.267   0.299
77516NA+    NA+38827   9.153  33.108   4.343
77517NA+    NA+38828  35.367  23.078   0.760
77518NA+    NA+38829  19.690  34.386   1.696
77519NA+    NA+38830  16.301  16.253  14.291
77520NA+    NA+38831  16.204  24.512   1.273
77521NA+    NA+38832   1.914   0.293  12.413
77522NA+    NA+38833  16.148  34.561   1.261
77523NA+    NA+38834  32.061  26.108   1.726
77524NA+    NA+38835   7.759  29.031  11.890
77525NA+    NA+38836   7.856  38.398   2.785
77526NA+    NA+38837   4.801  33.571   0.347
77527NA+    NA+38838  10.250  16.714  13.901
77528NA+    NA+38839  23.144  37.876  10.497
77529NA+    NA+38840   7.864  16.756  10.435
77530NA+    NA+38841  18.287  33.444   3.651
77531NA+    NA+38842  40.323  13.784  14.448
77532NA+    NA+38843  23.989  32.448  13.313
77533NA+    NA+38844  16.602  18.229   0.285
77534NA+    NA+38845  24.126   5.328   0.442
77535NA+    NA+38846  40.842   5.720  14.848
77536NA+    NA+38847  24.596  19.704  13.320
77537NA+    NA+38848   7.889   4.436   0.951
77538NA+    NA+38849  10.747  29.055   1.298
77539NA+    NA+38850  26.992   3.273  10.507
77540NA+    NA+38851  20.526  25.193   0.480
77541NA+    NA+38852  29.489  29.505   2.747
77542NA+    NA+38853   0.882  28.992  13.389
77543NA+    NA+38854  31.006  22.141   1.854
77544NA+    NA+38855   5.379  15.758  11.575
77545NA+    NA+38856  34.109  24.184  13.809
77546NA+    NA+38857  43.505  22.189  10.538
77547NA+    NA+38858  19.675   9.793  13.334
77548NA+    NA+38859   5.764  31.481   4.674
77549NA+    NA+38860  14.802  44.854  14.784
77550NA+    NA+38861  36.858   5.266   3.847
77551NA+    NA+38862  27.965  23.085   4.299
77552NA+    NA+38863   1.865   3.217  11.895
77553NA+    NA+38864  28.180   8.179  13.929
77554NA+    NA+38865   4.776  23.715   1.248
77555NA+    NA+38866  14.183  44.315  12.402
77556NA+    NA+38867  25.531  18.253   4.201
77557NA+    NA+38868  32.550  43.788  12.848
77558NA+    NA+38869   1.914  34.471   3.849
77559NA+    NA+38870   9.256  35.048  13.041
77560NA+    NA+38871  40.416  24.061  13.879
77561NA+    NA+38872  22.225  17.121  14.001
77562NA+    NA+38873   4.387   8.855  10.457
77563NA+    NA+38874   2.861  29.665  14.906
77564NA+    NA+38875  25.509  40.384   3.245
77565NA+    NA+38876  39.056  28.943   2.755
77566NA+    NA+38877  34.517   7.387   1.260
77567NA+    NA+38878  44.352  35.491   2.408
77568NA+    NA+38879  42.453   7.186   3.808
77569NA+    NA+38880   6.724  25.710  11.095
77570NA+    NA+38881   7.851  31.113  10.513
77571NA+    NA+38882   9.387   1.350  14.961
77572NA+    NA+38883  23.111  32.935   2.860
77573NA+    NA+38884  43.393   0.870  11.491
77574NA+    NA+38885  39.040  33.479   5.289
77575NA+    NA+38886   4.736   4.412   2.784
77576NA+    NA+38887  31.990  16.215  10.997
77577NA+    NA+38888  31.524  13.160   1.852
77578NA+    NA+38889  23.595  28.451  14.411
77579NA+    NA+38890  12.129  22.621  12.438
77580NA+    NA+38891   2.837   5.353  13.485
77581NA+    NA+38892  31.046  31.007   3.789
77582NA+    NA+38893  11.134  12.351   4.832
77583NA+    NA+38894   0.418  34.958  11.458
77584NA+    NA+38895  31.425  26.051  12.414
77585NA+    NA+38896  18.731  35.479  13.905
77586NA+    NA+38897  13.194  29.666  13.952
77587NA+    NA+38898  43.432  37.360  13.426
77588NA+    NA+38899  41.995  39.006  14.848
77589NA+    NA+38900   3.742   8.887   2.746
77590NA+    NA+38901  37.846   9.823   0.279
77591NA+    NA+38902  27.494   0.375  12.489
77592NA+    NA+38903  37.377  23.662   3.310
77593NA+    NA+38904  41.529  35.861   2.377
77594NA+    NA+38905  28.472  28.123   0.362
77595NA+    NA+38906   5.312  28.144  10.084
77596NA+    NA+38907  38.852  38.973  14.777
77597NA+    NA+38908  43.502  22.175   3.207
77598NA+    NA+38909  34.562  12.733  12.374
77599NA+    NA+38910   6.841  35.504  14.433
77600NA+    NA+38911  42.950  42.430   4.799
77601NA+    NA+38912   9.388  36.551   1.316
77602NA+    NA+38913  32.894   6.262   3.196
77603NA+    NA+38914  34.566  11.339  13.317
77604NA+    NA+38915  23.654  20.648   4.806
77605NA+    NA+38916  29.922  19.090  13.895
77606NA+    NA+38917  19.099  13.822  10.043
77607NA+    NA+38918  13.188  26.526   2.749
77608NA+    NA+38919  33.999   6.739   1.236
77609NA+    NA+38920  11.172  42.970   1.284
77610NA+    NA+38921  23.520  39.382   2.732
77611NA+    NA+38922   7.754  42.345  14.817
77612NA+    NA+38923  40.949   3.340   0.451
77613NA+    NA+38924  36.955  31.931  11.528
77614NA+    NA+38925  19.215  18.251  11.037
77615NA+    NA+38926  42.414  32.013  11.944
77616NA+    NA+38927  35.925   3.818   3.364
77617NA+    NA+38928  30.631  35.579   1.790
77618NA+    NA+38929  16.206  33.951   2.385
77619NA+    NA+38930  39.540  21.557  12.084
77620NA+    NA+38931   2.240  34.909  10.449
77621NA+    NA+38932  34.497  24.040  14.338
77622NA+    NA+38933  40.520   4.793   4.159
77623NA+    NA+38934  26.205  37.026  12.847
77624NA+    NA+38935  33.623   3.812  12.445
77625NA+    NA+38936  28.149  26.000   0.466
77626NA+    NA+38937  22.697  41.437   2.282
77627NA+    NA+38938  39.367  19.760  12.456
77628NA+    NA+38939  43.870  44.766  12.873
77629NA+    NA+38940   8.782  40.845   3.729
77630NA+    NA+38941  26.062  28.953  13.020
77631NA+    NA+38942  27.494  39.458   4.639
77632NA+    NA+38943  11.291   0.756   4.253
77633NA+    NA+38944  31.919   1.361   4.276
77634NA+    NA+38945  17.774  21.528  13.795
77635NA+    NA+38946  44.967  20.041   4.139
77636NA+    NA+38947  15.743  38.472  11.603
77637NA+    NA+38948   3.264  18.751  12.910
77638NA+    NA+38949  37.437  32.931  13.839
77639NA+    NA+38950   6.198  43.968   2.273
77640NA+    NA+38951  23.037   6.841   0.371
77641NA+    NA+38952  20.675  24.695  13.980
77642NA+    NA+38953  13.176  40.372  14.512
77643NA+    NA+38954  11.313  15.264  14.941
77644NA+    NA+38955  17.117  34.433   2.352
77645NA+    NA+38956  28.523  28.992   4.679
77646NA+    NA+38957  33.522  11.184   4.793
77647NA+    NA+38958  42.936  42.003   1.215
77648NA+    NA+38959  25.493  30.990  11.906
77649NA+    NA+38960  13.631  26.133  10.947
77650NA+    NA+38961  24.536  22.659  11.874
77651NA+    NA+38962  19.774  42.885  11.023
77652NA+    NA+38963  16.600  11.274   9.538
77653NA+    NA+38964  14.734  41.523   1.419
77654NA+    NA+38965  11.193  10.791  14.499
77655NA+    NA+38966  14.313  35.512  14.403
77656NA+    NA+38967  39.900  29.028  12.353
77657NA+    NA+38968   3.282  33.074  13.360
77658NA+    NA+38969  43.466  40.399   1.756
77659NA+    NA+38970  39.006  30.036   3.191
77660NA+    NA+38971  24.158   0.902  14.275
77661NA+    NA+38972  24.031   8.187  11.587
77662NA+    NA+38973  12.642  23.042  13.014
77663NA+    NA+38974  33.522  25.485  11.414
77664NA+    NA+38975   7.259  39.927   2.316
77665NA+    NA+38976  35.425  29.565   0.755
77666NA+    NA+38977  40.389  14.751   4.159
77667NA+    NA+38978  44.968   7.874   0.813
77668NA+    NA+38979  12.310  31.507  14.010
77669NA+    NA+38980  19.685   7.876  12.554
77670NA+    NA+38981  40.502  20.727  13.357
77671NA+    NA+38982  24.615  42.456  11.035
77672NA+    NA+38983  16.184  27.634   2.805
77673NA+    NA+38984  42.446  25.008   4.800
77674NA+    NA+38985  27.110  26.643   0.464
77675NA+    NA+38986  19.613  40.971   4.336
77676NA+    NA+38987  15.144  16.292   3.772
77677NA+    NA+38988  30.444  15.278   0.278
77678NA+    NA+38989  26.470  30.435  12.973
77679NA+    NA+38990  32.418  30.132  13.840
77680NA+    NA+38991  25.675  33.060  10.911
77681NA+    NA+38992  28.076   6.297  14.018
77682NA+    NA+38993   3.415  31.460  10.912
77683NA+    NA+38994  25.539  19.099   2.681
77684NA+    NA+38995   5.314  41.043  11.881
77685NA+    NA+38996  20.572   6.921   3.698
77686NA+    NA+38997  31.509  33.126  14.345
77687NA+    NA+38998  10.360   9.868   4.315
77688NA+    NA+38999  11.814  41.424  14.460
77689NA+    NA+39000  28.592  14.114  11.486
77690NA+    NA+39001  25.202  43.380   1.417
77691NA+    NA+39002  31.897   7.241  10.996
77692NA+    NA+39003  38.076  27.603  11.047
77693NA+    NA+39004   0.801  18.654  14.292
77694NA+    NA+39005  38.383   8.385   3.785
77695NA+    NA+39006  32.923  17.786  11.041
77696NA+    NA+39007  32.942  12.620   1.856
77697NA+    NA+39008  39.530   7.182  13.971
77698NA+    NA+39009  32.951  15.659   4.242
77699NA+    NA+39010  30.100  33.926   1.431
77700NA+    NA+39011  11.829  30.017   2.199
77701NA+    NA+39012  14.099  42.830  12.387
77702NA+    NA+39013  17.175  16.662  14.977
77703NA+    NA+39014  38.945  30.612  10.572
77704NA+    NA+39015   6.249  36.524  11.559
77705NA+    NA+39016   1.790  28.573   3.259
77706NA+    NA+39017  15.274  33.015  10.982
77707NA+    NA+39018   1.432  10.201   4.825
77708NA+    NA+39019  37.981  36.360   2.410
77709NA+    NA+39020  20.139  22.723   2.730
77710NA+    NA+39021  16.768   3.294   9.923
77711NA+    NA+39022  39.385  39.979  11.116
77712NA+    NA+39023  36.033  28.949   5.604
77713NA+    NA+39024   4.332   4.280  12.078
77714NA+    NA+39025  12.731  27.591   3.863
77715NA+    NA+39026  23.082  10.673  12.011
77716NA+    NA+39027   4.273  21.586   3.856
77717NA+    NA+39028  16.207  42.987  11.056
77718NA+    NA+39029  27.141  21.635   2.264
77719NA+    NA+39030  44.399  29.084   5.104
77720NA+    NA+39031  15.230  43.476  12.570
77721NA+    NA+39032  10.199   7.674  11.612
77722NA+    NA+39033  26.596   7.237   4.165
77723NA+    NA+39034  28.447  25.965  14.902
77724NA+    NA+39035  31.523  44.414  13.894
77725NA+    NA+39036  16.600  41.031  12.389
77726NA+    NA+39037  43.502  19.627   0.282
77727NA+    NA+39038  36.943  41.478   0.839
77728NA+    NA+39039  30.139  37.444  14.871
77729NA+    NA+39040  39.555  18.051   1.403
77730NA+    NA+39041  40.008  24.072   2.714
77731NA+    NA+39042  41.998  19.659   2.738
77732NA+    NA+39043  16.266  14.289   1.375
77733NA+    NA+39044  32.889  22.514  13.535
77734NA+    NA+39045  36.403  39.484  13.477
77735NA+    NA+39046  24.013   8.349  11.062
77736NA+    NA+39047   7.381  24.679  11.007
77737NA+    NA+39048  27.114   9.763  14.441
77738NA+    NA+39049   8.349  23.543  10.429
77739NA+    NA+39050  37.413  21.697  11.503
77740NA+    NA+39051  27.607  18.633  13.804
77741NA+    NA+39052  21.552  15.762  13.539
77742NA+    NA+39053  35.992   9.729  14.960
77743NA+    NA+39054  43.922  29.089  11.598
77744NA+    NA+39055  25.494  35.080   4.226
77745NA+    NA+39056  18.544  27.971   5.144
77746NA+    NA+39057  21.600  20.109  13.033
77747NA+    NA+39058  44.830  12.831   1.880
77748NA+    NA+39059  26.649  26.555  12.512
77749NA+    NA+39060  13.620  14.220  10.516
77750NA+    NA+39061  16.242  29.963   3.198
77751NA+    NA+39062  18.672  33.465   3.320
77752NA+    NA+39063  43.929   6.900   2.313
77753NA+    NA+39064   8.692  37.011   0.403
77754NA+    NA+39065  15.737  22.198   0.909
77755NA+    NA+39066  21.117  18.573   1.326
77756NA+    NA+39067  29.600  25.565  12.051
77757NA+    NA+39068  19.585  13.132  13.456
77758NA+    NA+39069  17.188  24.138   5.212
77759NA+    NA+39070  18.706  17.256  13.354
77760NA+    NA+39071   1.937  10.265  11.434
77761NA+    NA+39072  29.536  22.696  11.425
77762NA+    NA+39073  36.559   8.363   2.888
77763NA+    NA+39074  20.117  23.489   3.785
77764NA+    NA+39075  44.319  27.120   1.299
77765NA+    NA+39076  26.196  36.070  12.564
77766NA+    NA+39077  36.023  16.160   2.373
77767NA+    NA+39078  23.184  35.922  12.998
77768NA+    NA+39079  26.597  25.215   0.912
77769NA+    NA+39080   8.232  19.063   2.765
77770NA+    NA+39081  24.148   2.886   4.205
77771NA+    NA+39082  24.517  12.687  12.862
77772NA+    NA+39083  38.830  25.213  13.378
77773NA+    NA+39084  19.154  31.599  14.978
77774NA+    NA+39085  20.600  32.069   2.337
77775NA+    NA+39086   1.958  41.295  14.402
77776NA+    NA+39087  31.627  27.087  10.584
77777NA+    NA+39088  18.789  34.612  12.993
77778NA+    NA+39089  19.569  30.060  11.009
77779NA+    NA+39090  43.318   0.750  11.937
77780NA+    NA+39091  34.442  41.853   3.170
77781NA+    NA+39092   2.772  42.296  10.998
77782NA+    NA+39093  38.402  33.890  14.977
77783NA+    NA+39094  10.727  10.291  13.387
77784NA+    NA+39095   2.725  16.728   0.359
77785NA+    NA+39096  44.924  44.332   2.343
77786NA+    NA+39097  38.469  19.132   4.194
77787NA+    NA+39098   5.733  13.644  10.473
77788NA+    NA+39099   2.936  10.190  14.943
77789NA+    NA+39100   0.747  42.381  14.349
77790NA+    NA+39101   0.397  28.969  13.367
77791NA+    NA+39102  43.864  11.644   0.283
77792NA+    NA+39103  44.002  23.096   3.292
77793NA+    NA+39104  26.011  23.029  10.969
77794NA+    NA+39105  22.524   5.250   2.678
77795NA+    NA+39106   9.763  15.822  13.936
77796NA+    NA+39107  14.166   3.326   0.304
77797NA+    NA+39108  39.501  35.395  14.942
77798NA+    NA+39109  22.620  26.149   3.209
77799NA+    NA+39110  41.502  35.482  14.797
77800NA+    NA+39111  43.972   3.714  12.364
77801NA+    NA+39112  27.022  44.283   3.711
77802NA+    NA+39113  35.495  31.121  12.347
77803NA+    NA+39114  25.510  29.955   2.227
77804NA+    NA+39115  39.964   9.298   2.412
77805NA+    NA+39116  27.577  10.203   0.428
77806NA+    NA+39117  33.407  41.454   4.163
77807NA+    NA+39118  28.029  37.361   5.294
77808NA+    NA+39119  29.989  40.367  14.924
77809NA+    NA+39120  34.537   1.951  10.428
77810NA+    NA+39121  41.847   2.401  14.497
77811NA+    NA+39122   8.849  30.582   0.286
77812NA+    NA+39123  11.646   0.319  12.514
77813NA+    NA+39124  19.130  19.765  12.509
77814NA+    NA+39125   4.777  28.044   0.831
77815NA+    NA+39126   7.413   9.336   3.649
77816NA+    NA+39127  15.599  12.184  12.908
77817NA+    NA+39128  37.008  40.973  10.047
77818NA+    NA+39129  18.095  38.354   2.369
77819NA+    NA+39130  19.173  20.716   3.316
77820NA+    NA+39131  20.128  34.931   2.203
77821NA+    NA+39132  24.099  17.796  14.789
77822NA+    NA+39133  16.753  32.960  13.002
77823NA+    NA+39134  31.981  15.580  13.016
77824NA+    NA+39135  23.042  14.158   2.277
77825NA+    NA+39136   1.412  37.982   3.812
77826NA+    NA+39137  27.963  21.704  13.869
77827NA+    NA+39138  30.051  22.023  13.836
77828NA+    NA+39139   7.900  36.533  12.924
77829NA+    NA+39140   7.879  39.531   3.373
77830NA+    NA+39141  33.879   1.482  11.572
77831NA+    NA+39142  44.918   7.880   3.762
77832NA+    NA+39143  25.494  20.633   1.232
77833NA+    NA+39144  18.216  39.464  11.394
77834NA+    NA+39145   1.268  21.066   5.151
77835NA+    NA+39146  43.930  24.077  10.999
77836NA+    NA+39147   1.955  44.900   4.293
77837NA+    NA+39148  29.155   5.273  14.843
77838NA+    NA+39149  14.242  13.145  10.415
77839NA+    NA+39150  17.605  28.040   1.387
77840NA+    NA+39151  32.992  34.968  14.485
77841NA+    NA+39152  15.224  17.173  14.775
77842NA+    NA+39153  24.036  16.602  13.947
77843NA+    NA+39154  43.282  36.433   3.211
77844NA+    NA+39155  25.681  38.069   3.351
77845NA+    NA+39156  37.846  39.918   2.865
77846NA+    NA+39157  43.436  41.413  14.807
77847NA+    NA+39158   0.834  28.472  13.016
77848NA+    NA+39159   3.880  43.386   1.827
77849NA+    NA+39160  44.955   4.816  12.549
77850NA+    NA+39161  13.348   9.747   4.738
77851NA+    NA+39162  31.146  40.444  12.459
77852NA+    NA+39163   6.271  31.059  14.965
77853NA+    NA+39164  19.225  32.566  13.515
77854NA+    NA+39165   4.704   8.196   3.215
77855NA+    NA+39166  27.448  33.096  13.505
77856NA+    NA+39167  27.160  26.166  11.428
77857NA+    NA+39168  19.272  36.534  12.078
77858NA+    NA+39169  37.890  40.923   1.864
77859NA+    NA+39170  18.716  44.837  14.462
77860NA+    NA+39171  24.020  21.140  12.486
77861NA+    NA+39172  28.057  41.893  13.336
77862NA+    NA+39173  14.791  31.419  11.034
77863NA+    NA+39174  44.926   7.818   1.854
77864NA+    NA+39175  41.869  23.683   3.780
77865NA+    NA+39176   9.289  10.648   1.403
77866NA+    NA+39177  18.141  43.008  10.539
77867NA+    NA+39178  43.000  42.890   4.647
77868NA+    NA+39179  38.403  16.666   4.241
77869NA+    NA+39180  29.534   0.762  13.423
77870NA+    NA+39181  17.241  23.584   3.368
77871NA+    NA+39182  28.478  23.113   0.292
77872NA+    NA+39183  29.568  37.362   5.285
77873NA+    NA+39184  37.087  23.701   1.910
77874NA+    NA+39185  12.798  22.125  13.895
77875NA+    NA+39186   4.288  34.968  11.046
77876NA+    NA+39187  26.610  40.031   2.214
77877NA+    NA+39188  17.570  12.660   4.274
77878NA+    NA+39189  27.055  39.840  14.456
77879NA+    NA+39190  13.304  32.139   4.289
77880NA+    NA+39191   7.318   6.679  10.623
77881NA+    NA+39192  28.137  17.069  13.790
77882NA+    NA+39193  28.976  31.403   2.257
77883NA+    NA+39194  32.572  30.554  14.855
77884NA+    NA+39195  10.271  39.047   4.780
77885NA+    NA+39196  15.710  13.183   4.833
77886NA+    NA+39197  42.330   2.230   3.269
77887NA+    NA+39198  43.962  35.525  12.401
77888NA+    NA+39199  20.555   7.788  14.890
77889NA+    NA+39200   9.215  26.628  12.941
77890NA+    NA+39201  38.520  12.175   1.402
77891NA+    NA+39202  25.205  36.415  12.978
77892NA+    NA+39203  39.488  18.754   2.392
77893NA+    NA+39204  10.229  44.373   5.238
77894NA+    NA+39205  25.476  24.997  14.292
77895NA+    NA+39206  41.293  15.693   1.797
77896NA+    NA+39207  25.001  15.232  13.338
77897NA+    NA+39208  23.563  10.265   2.738
77898NA+    NA+39209   0.463  18.277   1.744
77899NA+    NA+39210  31.927  40.009   1.326
77900NA+    NA+39211  22.678  39.990   3.203
77901NA+    NA+39212  10.802  21.196  10.965
77902NA+    NA+39213   8.162  39.339  10.887
77903NA+    NA+39214  37.056   8.784   4.199
77904NA+    NA+39215   1.294  25.009  12.371
77905NA+    NA+39216  21.192  37.082   4.638
77906NA+    NA+39217  26.958  32.985   0.481
77907NA+    NA+39218  14.589   8.195  11.420
77908NA+    NA+39219  38.822  39.953  13.340
77909NA+    NA+39220  22.724   1.928  11.583
77910NA+    NA+39221  12.138  40.926   3.714
77911NA+    NA+39222  22.085  15.579   2.290
77912NA+    NA+39223  42.918  16.663  13.978
77913NA+    NA+39224  41.354   6.862   1.338
77914NA+    NA+39225  15.235  14.296  13.357
77915NA+    NA+39226  43.300   1.917  10.892
77916NA+    NA+39227  35.451  39.808  13.829
77917NA+    NA+39228  10.763  27.059  12.855
77918NA+    NA+39229  21.035  37.944   1.329
77919NA+    NA+39230  44.915  36.438   4.687
77920NA+    NA+39231  30.130  22.693  10.419
77921NA+    NA+39232  13.232   8.283   0.303
77922NA+    NA+39233  25.551  37.547   3.181
77923NA+    NA+39234   6.723   5.716   2.765
77924NA+    NA+39235  32.014  10.232   1.250
77925NA+    NA+39236  36.988  11.236  14.434
77926NA+    NA+39237  37.363  32.111   2.220
77927NA+    NA+39238  18.659   3.850  11.998
77928NA+    NA+39239  35.373  30.028   0.946
77929NA+    NA+39240  27.129  27.089  11.601
77930NA+    NA+39241  32.573  29.146  12.023
77931NA+    NA+39242  15.733  12.640   4.298
77932NA+    NA+39243  18.224   6.312  12.455
77933NA+    NA+39244  30.911  26.530   1.716
77934NA+    NA+39245  21.657  25.099  14.923
77935NA+    NA+39246  42.999  10.374  11.028
77936NA+    NA+39247  10.355  29.446   2.229
77937NA+    NA+39248  20.665  32.055  12.481
77938NA+    NA+39249  36.858  40.837  12.469
77939NA+    NA+39250  11.221  35.878   1.289
77940NA+    NA+39251  25.511  27.525  14.981
77941NA+    NA+39252  37.351  41.948   0.915
77942NA+    NA+39253   1.800   8.249  14.894
77943NA+    NA+39254  38.060  24.144   3.638
77944NA+    NA+39255  39.437  27.637   4.781
77945NA+    NA+39256   1.296  22.637  14.287
77946NA+    NA+39257  41.916   9.366   4.242
77947NA+    NA+39258   3.727  24.162  11.945
77948NA+    NA+39259  37.040   9.253  13.384
77949NA+    NA+39260  31.071  43.501  10.485
77950NA+    NA+39261   7.722   8.358  13.906
77951NA+    NA+39262  27.143  37.974  13.537
77952NA+    NA+39263  17.125  26.657  13.410
77953NA+    NA+39264  13.147  17.750   1.761
77954NA+    NA+39265  26.005  26.965   0.736
77955NA+    NA+39266  37.494   7.366   2.220
77956NA+    NA+39267   5.415  16.738   0.276
77957NA+    NA+39268  36.562  41.440  14.324
77958NA+    NA+39269  40.839  36.405   1.794
77959NA+    NA+39270   9.267  26.575   4.217
77960NA+    NA+39271  24.637   1.350  12.083
77961NA+    NA+39272   3.289   2.406   0.346
77962NA+    NA+39273  11.256  17.629  12.841
77963NA+    NA+39274  24.149  31.105   1.418
77964NA+    NA+39275  36.385  38.406   2.675
77965NA+    NA+39276  38.878  35.472   3.250
77966NA+    NA+39277   1.932  39.832   0.757
77967NA+    NA+39278  17.624  26.545   2.190
77968NA+    NA+39279  13.815  16.115  12.489
77969NA+    NA+39280   5.193  42.802  14.899
77970NA+    NA+39281  40.408  27.104   1.238
77971NA+    NA+39282   0.783  30.982   0.848
77972NA+    NA+39283  14.297  16.780   2.848
77973NA+    NA+39284  18.643  32.537  14.813
77974NA+    NA+39285   0.869  33.044   4.332
77975NA+    NA+39286  13.290  34.033   1.263
77976NA+    NA+39287  18.165   9.330   0.368
77977NA+    NA+39288  24.577   2.396  14.889
77978NA+    NA+39289   6.750   7.736   0.960
77979NA+    NA+39290  41.000  18.721   2.324
77980NA+    NA+39291   3.305   5.403   0.319
77981NA+    NA+39292   5.877   4.445   4.274
77982NA+    NA+39293  12.238  28.580  12.894
77983NA+    NA+39294  44.284  18.700   3.200
77984NA+    NA+39295   9.268  12.633   1.218
77985NA+    NA+39296   7.381   9.851   3.350
77986NA+    NA+39297  34.911  27.500   2.389
77987NA+    NA+39298   3.911  21.089  12.908
77988NA+    NA+39299  40.000  30.595   0.339
77989NA+    NA+39300   7.244  12.309   1.898
77990NA+    NA+39301  10.662   9.848   4.672
77991NA+    NA+39302  36.537  28.045  11.412
77992NA+    NA+39303  37.857  16.268  11.508
77993NA+    NA+39304  17.794   6.797  10.561
77994NA+    NA+39305  13.268  40.840   3.661
77995NA+    NA+39306  25.195  15.251   1.338
77996NA+    NA+39307  40.345  43.453   4.140
77997NA+    NA+39308  11.728  39.830   3.664
77998NA+    NA+39309  27.179  37.338  10.101
77999NA+    NA+39310  35.564  17.087  12.379
78000NA+    NA+39311  12.675  43.366   2.788
78001NA+    NA+39312   3.403  26.684   4.642
78002NA+    NA+39313  31.058  26.070   1.384
78003NA+    NA+39314  37.880  30.150   9.604
78004NA+    NA+39315   0.321  10.829   1.237
78005NA+    NA+39316  28.646  23.998   1.745
78006NA+    NA+39317  32.420  41.925   0.261
78007NA+    NA+39318  20.177   9.298   4.795
78008NA+    NA+39319  43.884  27.984   1.434
78009NA+    NA+39320  25.064  28.538  11.076
78010NA+    NA+39321  16.794  31.573  12.516
78011NA+    NA+39322   0.803  44.920   2.793
78012NA+    NA+39323  40.973  42.777   1.264
78013NA+    NA+39324  15.175  39.950  14.827
78014NA+    NA+39325  44.408   9.834  11.893
78015NA+    NA+39326  19.107  36.907  13.499
78016NA+    NA+39327  29.995   6.722  13.949
78017NA+    NA+39328  20.591  10.352   0.853
78018NA+    NA+39329  38.967  18.560  13.447
78019NA+    NA+39330  37.852  28.570  11.584
78020NA+    NA+39331  18.157  18.095   1.716
78021NA+    NA+39332  43.909  12.319   0.314
78022NA+    NA+39333  12.228  43.909  12.918
78023NA+    NA+39334  26.561   5.252  13.841
78024NA+    NA+39335   2.861  19.131   1.908
78025NA+    NA+39336  43.938  27.685  10.890
78026NA+    NA+39337  13.329  32.099  14.993
78027NA+    NA+39338  20.704  42.297  12.005
78028NA+    NA+39339   5.196  24.710  11.470
78029NA+    NA+39340  44.979  26.692   3.173
78030NA+    NA+39341  33.402  19.733  13.503
78031NA+    NA+39342   1.405  11.679  11.474
78032NA+    NA+39343   9.387   5.316   4.301
78033NA+    NA+39344  20.258  39.522   1.279
78034NA+    NA+39345   1.805  13.672   2.823
78035NA+    NA+39346  14.595  22.089   0.777
78036NA+    NA+39347  25.113  29.003  10.965
78037NA+    NA+39348  13.184   4.762  12.952
78038NA+    NA+39349  32.097  14.284  14.318
78039NA+    NA+39350  18.111  16.286   0.410
78040NA+    NA+39351   9.200  15.295  13.548
78041NA+    NA+39352   2.849  20.658  13.796
78042NA+    NA+39353  15.646  18.632   1.328
78043NA+    NA+39354  33.436  13.660   1.280
78044NA+    NA+39355   1.436  39.930  14.988
78045NA+    NA+39356  38.910  26.626   3.753
78046NA+    NA+39357  34.910  32.911  14.824
78047NA+    NA+39358  39.360  12.289  14.846
78048NA+    NA+39359  25.566  14.107   0.353
78049NA+    NA+39360  21.233  44.849  11.088
78050NA+    NA+39361   1.882  19.261  14.785
78051NA+    NA+39362  44.880  19.682  12.078
78052NA+    NA+39363  22.575  37.045  10.430
78053NA+    NA+39364  37.054  24.496  14.365
78054NA+    NA+39365  43.336  25.182  14.394
78055NA+    NA+39366   6.869  17.201  13.313
78056NA+    NA+39367  33.520  37.382  13.866
78057NA+    NA+39368  39.476   3.391   0.366
78058NA+    NA+39369  13.173  29.174   1.408
78059NA+    NA+39370  18.190   6.879  12.528
78060NA+    NA+39371   7.730  13.757  14.011
78061NA+    NA+39372   4.890  15.785  11.930
78062NA+    NA+39373   3.453   3.779  13.309
78063NA+    NA+39374  12.842  39.838  11.451
78064NA+    NA+39375  21.144   2.962  12.530
78065NA+    NA+39376  34.077  18.103  11.920
78066NA+    NA+39377  23.561   9.326  13.812
78067NA+    NA+39378   6.343   2.928  12.399
78068NA+    NA+39379  17.594  37.372   3.773
78069NA+    NA+39380   5.934  24.048   3.869
78070NA+    NA+39381  30.917  30.016  12.491
78071NA+    NA+39382   3.814   1.444  14.862
78072NA+    NA+39383  44.824   3.243  12.546
78073NA+    NA+39384  37.064  40.872   1.729
78074NA+    NA+39385   4.313  22.066   1.380
78075NA+    NA+39386  16.280  16.647  14.890
78076NA+    NA+39387  12.776  29.058  13.001
78077NA+    NA+39388   6.313  33.540  13.043
78078NA+    NA+39389  17.255  39.999  13.022
78079NA+    NA+39390   7.230  28.026  13.308
78080NA+    NA+39391  30.419   2.956  13.372
78081NA+    NA+39392   7.282  39.034  14.016
78082NA+    NA+39393  10.244  11.136   9.932
78083NA+    NA+39394  40.514  35.025  11.562
78084NA+    NA+39395  27.628  25.118   2.790
78085NA+    NA+39396  15.224   2.819  13.517
78086NA+    NA+39397  31.056  15.637  14.770
78087NA+    NA+39398  33.527  19.705  12.990
78088NA+    NA+39399  34.599  15.321   2.768
78089NA+    NA+39400  17.589  20.147   1.899
78090NA+    NA+39401  16.282  41.822   1.879
78091NA+    NA+39402   0.762  19.635  13.819
78092NA+    NA+39403   5.758  37.970   0.446
78093NA+    NA+39404  26.495   0.274  13.531
78094NA+    NA+39405  10.692  24.672  13.019
78095NA+    NA+39406  41.802  37.454   0.422
78096NA+    NA+39407  13.792   5.373  10.485
78097NA+    NA+39408  11.242  13.236   4.745
78098NA+    NA+39409  38.495  21.179  13.986
78099NA+    NA+39410  23.501   7.722  12.946
78100NA+    NA+39411  11.642  18.125  12.465
78101NA+    NA+39412  29.610  20.648  13.382
78102NA+    NA+39413  33.560  42.373   3.376
78103NA+    NA+39414   0.986  16.086  14.450
78104NA+    NA+39415   2.864   3.853   4.174
78105NA+    NA+39416   2.823  22.595  10.599
78106NA+    NA+39417  13.175  16.730  14.487
78107NA+    NA+39418  17.562  33.094  12.542
78108NA+    NA+39419  40.999   3.722   4.212
78109NA+    NA+39420   4.800  40.433   3.841
78110NA+    NA+39421  44.384  42.831   0.830
78111NA+    NA+39422  39.337  19.638   2.370
78112NA+    NA+39423  44.766  17.774   0.457
78113NA+    NA+39424  26.665  16.598   5.135
78114NA+    NA+39425  31.569   7.825  14.869
78115NA+    NA+39426   4.734  17.282  12.893
78116NA+    NA+39427  35.433  33.877   2.691
78117NA+    NA+39428  14.781   8.817   0.376
78118NA+    NA+39429  37.447  43.945   1.870
78119NA+    NA+39430  15.173   0.772   1.767
78120NA+    NA+39431  17.133   8.694   3.183
78121NA+    NA+39432  32.459   1.743   0.325
78122NA+    NA+39433  24.143  12.791  11.026
78123NA+    NA+39434  22.175  35.982   4.355
78124NA+    NA+39435  20.155  19.569  14.990
78125NA+    NA+39436   3.751  39.432  14.885
78126NA+    NA+39437  16.112  39.350  10.588
78127NA+    NA+39438  38.023  42.499  14.482
78128NA+    NA+39439   7.863  24.989   4.119
78129NA+    NA+39440  13.721  34.611   1.364
78130NA+    NA+39441  37.088  26.634   4.129
78131NA+    NA+39442  21.699   2.871   1.908
78132NA+    NA+39443  32.935  17.770   2.185
78133NA+    NA+39444   8.887   9.853   0.888
78134NA+    NA+39445  19.618  29.104   2.837
78135NA+    NA+39446   1.269   3.227  14.897
78136NA+    NA+39447   2.470  21.558   0.786
78137NA+    NA+39448   9.302  14.703   3.637
78138NA+    NA+39449  22.531  33.447   3.795
78139NA+    NA+39450   6.715  24.228  12.890
78140NA+    NA+39451  41.939  12.784  11.468
78141NA+    NA+39452   1.955  35.050   2.194
78142NA+    NA+39453  39.864   2.918  14.880
78143NA+    NA+39454  37.899  43.382   1.702
78144NA+    NA+39455  26.955  10.201   1.890
78145NA+    NA+39456   8.402  42.984  12.862
78146NA+    NA+39457  36.048   5.299   0.785
78147NA+    NA+39458   5.798  42.495  11.554
78148NA+    NA+39459  43.816   2.917  12.408
78149NA+    NA+39460   6.349  15.229   1.303
78150NA+    NA+39461  31.609  44.950   0.812
78151NA+    NA+39462   5.757  40.425  12.370
78152NA+    NA+39463  15.197  41.943  11.091
78153NA+    NA+39464   6.694  15.232   4.712
78154NA+    NA+39465  26.002  19.130  11.866
78155NA+    NA+39466  34.073  43.002  13.454
78156NA+    NA+39467  11.865  33.895   2.735
78157NA+    NA+39468  35.001  21.046   3.827
78158NA+    NA+39469  24.706   5.879  10.938
78159NA+    NA+39470  13.133  33.040  12.075
78160NA+    NA+39471  10.678  38.915  11.987
78161NA+    NA+39472  41.922   1.318  12.565
78162NA+    NA+39473  32.081  32.567  13.971
78163NA+    NA+39474  34.895  13.220  10.588
78164NA+    NA+39475  15.265  37.345   1.340
78165NA+    NA+39476  30.085   2.273   4.771
78166NA+    NA+39477  27.973  42.290  14.354
78167NA+    NA+39478  23.524   4.786  13.858
78168NA+    NA+39479  42.526  13.260   2.772
78169NA+    NA+39480  39.355  16.140  10.516
78170NA+    NA+39481  26.611  13.611   0.412
78171NA+    NA+39482  26.019  12.258  13.424
78172NA+    NA+39483  40.946   2.892  14.330
78173NA+    NA+39484   4.422  28.151   0.243
78174NA+    NA+39485  34.864  34.535  10.446
78175NA+    NA+39486  34.006  31.954   3.374
78176NA+    NA+39487  34.048  43.954  12.058
78177NA+    NA+39488  30.941  25.120   9.989
78178NA+    NA+39489  13.605   1.474   1.732
78179NA+    NA+39490  24.704  41.011  11.455
78180NA+    NA+39491  36.480   3.931  13.013
78181NA+    NA+39492  32.526   5.229   0.829
78182NA+    NA+39493  11.641   8.899  11.567
78183NA+    NA+39494  38.940   5.253   4.308
78184NA+    NA+39495  17.232  20.608   4.305
78185NA+    NA+39496   6.844  31.641  14.492
78186NA+    NA+39497  39.418  13.304   2.859
78187NA+    NA+39498  42.510  27.575  10.998
78188NA+    NA+39499   1.244  24.708  13.012
78189NA+    NA+39500  18.725  18.716  14.868
78190NA+    NA+39501  21.035  11.243   1.444
78191NA+    NA+39502  34.499   4.699  13.021
78192NA+    NA+39503   2.324   9.876  14.377
78193NA+    NA+39504   6.193  22.699   4.182
78194NA+    NA+39505  43.022   3.350   4.708
78195NA+    NA+39506  22.020  23.562  10.969
78196NA+    NA+39507  39.063  41.973  14.898
78197NA+    NA+39508   8.713  15.655  14.500
78198NA+    NA+39509  20.730  44.813   1.392
78199NA+    NA+39510  18.142   2.335   3.769
78200NA+    NA+39511  32.054  44.391   5.236
78201NA+    NA+39512  21.607  15.244  12.402
78202NA+    NA+39513   5.421  37.042  13.023
78203NA+    NA+39514  14.325  16.761  11.054
78204NA+    NA+39515  35.101  21.535  14.957
78205NA+    NA+39516   9.816  17.171   4.334
78206NA+    NA+39517  34.581  38.569   0.816
78207NA+    NA+39518   9.251  26.458  12.004
78208NA+    NA+39519   5.877   1.403  13.346
78209NA+    NA+39520  35.459  35.488   3.340
78210NA+    NA+39521  26.187  32.419  10.611
78211NA+    NA+39522  32.493  16.111  12.431
78212NA+    NA+39523  35.557   7.718  10.524
78213NA+    NA+39524  37.502   5.814   1.302
78214NA+    NA+39525  38.951  12.774  11.536
78215NA+    NA+39526  20.669  35.518   1.211
78216NA+    NA+39527  14.290  26.204   2.849
78217NA+    NA+39528   2.741  26.680  11.468
78218NA+    NA+39529   9.873   7.310  13.451
78219NA+    NA+39530  44.861   6.896  10.427
78220NA+    NA+39531  42.030  13.281   5.222
78221NA+    NA+39532   4.874  24.170  10.478
78222NA+    NA+39533  31.905   8.662  12.522
78223NA+    NA+39534  18.743   8.819   1.389
78224NA+    NA+39535  37.482  19.660   1.428
78225NA+    NA+39536  38.881  22.691  12.552
78226NA+    NA+39537  24.661  14.119  10.498
78227NA+    NA+39538   4.436  21.193  13.459
78228NA+    NA+39539  35.424  32.043   5.262
78229NA+    NA+39540  12.617  10.684  12.533
78230NA+    NA+39541  25.994   6.388   0.426
78231NA+    NA+39542  12.758  13.793   3.178
78232NA+    NA+39543  19.692  41.305   2.782
78233NA+    NA+39544  30.616   3.244   4.612
78234NA+    NA+39545  15.660  21.584  11.003
78235NA+    NA+39546  25.143  34.930   2.288
78236NA+    NA+39547   2.448  41.486   1.864
78237NA+    NA+39548   5.836  22.151  12.065
78238NA+    NA+39549  23.049   3.395   1.923
78239NA+    NA+39550  16.149  20.105   0.323
78240NA+    NA+39551  28.011  38.952   4.286
78241NA+    NA+39552  20.529  19.243   2.854
78242NA+    NA+39553  11.182  34.868   2.203
78243NA+    NA+39554  32.390  42.846  11.903
78244NA+    NA+39555  42.346  25.613   0.447
78245NA+    NA+39556  41.810  38.820   5.232
78246NA+    NA+39557  39.030  29.002   0.827
78247NA+    NA+39558   6.203  21.119  11.947
78248NA+    NA+39559  40.958  44.812   4.769
78249NA+    NA+39560  13.680  15.723  10.922
78250NA+    NA+39561  33.461  41.967   1.871
78251NA+    NA+39562  17.089  32.913   3.248
78252NA+    NA+39563  33.616  17.772  14.998
78253NA+    NA+39564  12.851  33.409  12.891
78254NA+    NA+39565   8.875   8.799   4.244
78255NA+    NA+39566  33.995   9.668   4.801
78256NA+    NA+39567  22.641  12.762   0.279
78257NA+    NA+39568  33.424  30.492   2.720
78258NA+    NA+39569  15.684  17.233   5.315
78259NA+    NA+39570  23.211  42.313   0.456
78260NA+    NA+39571  27.005  17.181   2.208
78261NA+    NA+39572  12.249   5.832  12.485
78262NA+    NA+39573  39.362  18.133  13.911
78263NA+    NA+39574  19.711  37.888   2.853
78264NA+    NA+39575  40.959  44.414   0.846
78265NA+    NA+39576  15.639  28.448   2.770
78266NA+    NA+39577  22.632  43.782   2.302
78267CL-    CL-39578  13.107  38.375  10.510
78268CL-    CL-39579  31.502  28.618  14.876
78269CL-    CL-39580  26.206  43.001  11.883
78270CL-    CL-39581  44.339  10.266  14.434
78271CL-    CL-39582  19.662  24.705   2.799
78272CL-    CL-39583   3.953  30.158  10.447
78273CL-    CL-39584   8.390   7.705  12.432
78274CL-    CL-39585  15.261  27.946   4.738
78275CL-    CL-39586  43.415  27.649  11.372
78276CL-    CL-39587  32.017  29.060   4.237
78277CL-    CL-39588  19.068   9.760  12.559
78278CL-    CL-39589  10.167  18.146  10.597
78279CL-    CL-39590  38.377  25.132   2.322
78280CL-    CL-39591  30.463  17.062  12.531
78281CL-    CL-39592  17.592  35.013  11.374
78282CL-    CL-39593  17.796   7.203   2.853
78283CL-    CL-39594  33.902   6.863  14.794
78284CL-    CL-39595  31.638  28.623  11.012
78285CL-    CL-39596  13.685  27.058  14.958
78286CL-    CL-39597  43.419   9.202  12.428
78287CL-    CL-39598  13.748  35.427   3.221
78288CL-    CL-39599  29.037  10.695   3.798
78289CL-    CL-39600  14.317   1.365   2.332
78290CL-    CL-39601  28.561  12.362   0.853
78291CL-    CL-39602  16.103  34.894  12.514
78292CL-    CL-39603  12.117   9.331  10.967
78293CL-    CL-39604  20.131  39.326   3.844
78294CL-    CL-39605   9.696  29.059   3.386
78295CL-    CL-39606   6.262  32.476   0.811
78296CL-    CL-39607  20.759  28.121   1.790
78297CL-    CL-39608  40.888  19.695   4.650
78298CL-    CL-39609  11.165  14.816  14.352
78299CL-    CL-39610  38.422  35.932  14.803
78300CL-    CL-39611  22.734  17.269  12.872
78301CL-    CL-39612  20.722  40.409   2.819
78302CL-    CL-39613  27.950   8.899  11.939
78303CL-    CL-39614   6.915  16.237  12.954
78304CL-    CL-39615  15.768  26.985   2.295
78305CL-    CL-39616   5.861  35.475   3.681
78306CL-    CL-39617   9.324  31.507  11.893
78307CL-    CL-39618   4.944  23.104   2.376
78308CL-    CL-39619  10.842  29.584   3.838
78309CL-    CL-39620   9.290  33.043   0.946
78310CL-    CL-39621   9.877  36.954   0.963
78311CL-    CL-39622  23.537   8.751   0.342
78312CL-    CL-39623  34.529   6.298   3.729
78313CL-    CL-39624  10.176  18.186   3.778
78314CL-    CL-39625  24.067   6.762  12.563
78315CL-    CL-39626  38.074  10.184  14.410
78316CL-    CL-39627  27.511  42.782   4.718
78317CL-    CL-39628   9.886  40.472  14.895
78318CL-    CL-39629  44.877  33.542   1.288
78319CL-    CL-39630   2.965  13.236  14.790
78320CL-    CL-39631  26.538  32.023   2.365
78321CL-    CL-39632  15.108   6.414   9.954
78322CL-    CL-39633  20.042  16.132   0.787
78323CL-    CL-39634   2.366   6.692  10.483
78324CL-    CL-39635  10.687  22.215   2.718
78325CL-    CL-39636   5.428  39.872  13.905
78326CL-    CL-39637  42.963  14.280  10.029
78327CL-    CL-39638  23.565  43.825  11.970
78328CL-    CL-39639  19.574   0.943   0.847
78329CL-    CL-39640  40.388  14.138   2.762
78330CL-    CL-39641   0.951  30.477   2.209
78331CL-    CL-39642   8.333  11.327  13.025
78332CL-    CL-39643  12.219  20.692   2.240
78333CL-    CL-39644  17.206   8.273   0.920
78334CL-    CL-39645  14.312   0.870   4.155
78335CL-    CL-39646   1.288   0.449  10.480
78336CL-    CL-39647  28.180   9.680   4.284
78337CL-    CL-39648  17.583  34.612   0.469
78338CL-    CL-39649  25.117  22.534   0.296
78339CL-    CL-39650  24.594  38.017  11.043
78340CL-    CL-39651   0.869  43.790   1.253
78341CL-    CL-39652   9.705  20.224   1.739
78342CL-    CL-39653  12.615  41.442   1.816
78343CL-    CL-39654  30.485  33.000  14.879
78344CL-    CL-39655  39.340   7.314   1.231
78345CL-    CL-39656  10.821  14.661  11.078
78346CL-    CL-39657  25.048   7.806   1.300
78347CL-    CL-39658   7.331  34.615  10.546
78348CL-    CL-39659   3.822   4.320   2.317
78349CL-    CL-39660  25.497  41.307  14.277
78350CL-    CL-39661  18.752  26.663  10.995
78351CL-    CL-39662  37.457   5.804  13.913
78352CL-    CL-39663  12.221  37.864  12.567
78353CL-    CL-39664   5.919  23.112  13.514
78354CL-    CL-39665  18.758  15.265   0.801
78355CL-    CL-39666  18.730  23.053  13.945
78356CL-    CL-39667  41.379  39.343   4.786
78357CL-    CL-39668  27.475  24.637   0.274
78358CL-    CL-39669  38.556  24.611   1.910
78359CL-    CL-39670   7.266  24.528  11.565
78360CL-    CL-39671  28.496  21.623  13.310
78361CL-    CL-39672  42.476  19.690  14.426
78362CL-    CL-39673   4.294  42.918  12.066
78363CL-    CL-39674   4.278  24.083   1.892
78364CL-    CL-39675  12.814  27.491   0.957
78365CL-    CL-39676  31.898   4.908  10.973
78366CL-    CL-39677   6.316  10.353   0.352
78367CL-    CL-39678  20.639  29.159  11.104
78368CL-    CL-39679   9.161  17.749  13.823
78369CL-    CL-39680   4.805  41.342  14.417
78370CL-    CL-39681  35.034   4.851  14.397
78371CL-    CL-39682  24.561  32.015   4.146
78372CL-    CL-39683   5.319  21.713   2.736
78373CL-    CL-39684  20.225  44.485  12.438
78374CL-    CL-39685  35.559   0.267  11.050
78375CL-    CL-39686   5.856  35.561  14.977
78376CL-    CL-39687   8.885  22.676   2.888
78377CL-    CL-39688   2.266   5.693  12.478
78378CL-    CL-39689  34.982  37.969   3.313
78379CL-    CL-39690  19.760  38.473   0.781
78380CL-    CL-39691  10.821  28.016   1.815
78381CL-    CL-39692  41.434  19.178  14.383
78382CL-    CL-39693  40.867  30.049   1.697
78383CL-    CL-39694  37.379  10.227  14.027
78384CL-    CL-39695  22.212  43.980  12.034
78385CL-    CL-39696  11.245  44.971  10.994
78386CL-    CL-39697   9.799  14.175   3.643
78387CL-    CL-39698  42.930  37.030   2.738
78388CL-    CL-39699  44.922  17.213   4.153
78389CL-    CL-39700  40.008  24.116  14.287
78390CL-    CL-39701  20.045   5.412   3.809
78391CL-    CL-39702  22.106   4.761   0.803
78392CL-    CL-39703   2.226  10.165   2.697
78393CL-    CL-39704  41.976  21.077  11.006
78394CL-    CL-39705  28.669  20.248   2.213
78395CL-    CL-39706  32.911  44.505  12.062
78396CL-    CL-39707  12.144   5.766   1.378
78397CL-    CL-39708  19.591  18.244  10.973
78398CL-    CL-39709  20.034  34.557   5.248
78399CL-    CL-39710  43.866  21.751  13.424
78400CL-    CL-39711  31.532  44.987  13.980
78401CL-    CL-39712  35.450  18.273   2.839
78402CL-    CL-39713  42.527   0.288  14.417
78403CL-    CL-39714  25.674   2.293   2.382
78404CL-    CL-39715  37.353  42.982   1.717
78405CL-    CL-39716   2.900  29.092  11.042
78406CL-    CL-39717  20.547  44.888  13.795
78407CL-    CL-39718   8.832  35.063  12.407
78408CL-    CL-39719   3.437  28.520  11.873
78409CL-    CL-39720  29.979  32.625   2.672
78410CL-    CL-39721   1.926  28.186  10.909
78411CL-    CL-39722  11.329  41.964   3.646
78412CL-    CL-39723  40.425  20.533  13.043
78413CL-    CL-39724  16.072  11.667   0.941
78414CL-    CL-39725   5.286   2.764   2.897
78415CL-    CL-39726  42.839  22.540  14.003
78416CL-    CL-39727  43.493  43.882   4.609
78417CL-    CL-39728  18.672  13.735   2.896
78418CL-    CL-39729  28.992  27.153  13.025
78419CL-    CL-39730  21.656  38.338  10.546
78420CL-    CL-39731  44.908  36.888   3.327
78421CL-    CL-39732  42.939  12.125   3.832
78422CL-    CL-39733  43.307   2.379   4.642
78423CL-    CL-39734  32.932  37.942   3.186
78424CL-    CL-39735  16.075  31.491  13.945
78425CL-    CL-39736   8.769   0.822   4.175
78426CL-    CL-39737  38.978  32.507   1.913
78427CL-    CL-39738   2.323   3.728  11.517
78428CL-    CL-39739  17.730   7.192  14.327
78429CL-    CL-39740  30.148   4.873   3.854
78430CL-    CL-39741   9.368  39.343   1.921
78431CL-    CL-39742  14.755  24.695   4.630
78432CL-    CL-39743  38.558  43.489  10.912
78433CL-    CL-39744  31.468   2.434   3.252
78434CL-    CL-39745  11.804  22.599  14.965
78435CL-    CL-39746  18.238  30.928   0.904
78436CL-    CL-39747  31.972  38.345  13.887
78437CL-    CL-39748  10.767  42.304   4.751
78438CL-    CL-39749   4.747  31.926  10.635
78439CL-    CL-39750  42.451  10.271  13.379
78440CL-    CL-39751  11.727   4.879   2.814
78441CL-    CL-39752   3.875  12.780  10.498
78442CL-    CL-39753  13.608  19.131   2.684
78443CL-    CL-39754  26.037   0.429   1.226
78444CL-    CL-39755   3.820  32.135  13.835
78445CL-    CL-39756  18.251  32.067   1.792
78446CL-    CL-39757  41.831  21.678   1.446
78447CL-    CL-39758   3.829  17.590   3.288
78448CL-    CL-39759   4.375   4.825  13.894
78449CL-    CL-39760   3.804  25.671  10.927
78450CL-    CL-39761   7.800  43.395  12.876
78451CL-    CL-39762  27.077   2.290   1.307
78452CL-    CL-39763   4.872   1.835  14.776
78453CL-    CL-39764  38.026  22.740   0.966
78454CL-    CL-39765  35.490  40.976  14.863
78455CL-    CL-39766  37.980  41.891  12.927
78456CL-    CL-39767   0.842  12.289   2.853
78457CL-    CL-39768  28.474  36.592   2.677
78458CL-    CL-39769   8.667   7.177  11.098
78459CL-    CL-39770  38.005  10.182   4.127
78460CL-    CL-39771  32.509  15.638  13.885
78461CL-    CL-39772   6.229   6.288  10.594
78462CL-    CL-39773  12.710   3.374   2.729
78463CL-    CL-39774  41.800  19.068   3.864
78464CL-    CL-39775   5.892  23.736   3.258
78465CL-    CL-39776  34.474  30.053  12.533
78466CL-    CL-39777  28.939  26.630   1.394
78467CL-    CL-39778  40.370  36.094   0.379
78468CL-    CL-39779   9.224  37.537   1.694
78469CL-    CL-39780   0.460  40.420  12.083
78470CL-    CL-39781  30.655  23.098  12.941
78471CL-    CL-39782  21.716  13.640  11.101
78472CL-    CL-39783  20.138  26.689   1.908
78473CL-    CL-39784  23.148   0.290  14.311
78474CL-    CL-39785  15.613  35.021  14.026
78475CL-    CL-39786   4.750   4.434  13.471
78476CL-    CL-39787   9.841  34.513   0.865
78477CL-    CL-39788  28.670  14.094  13.850
78478CL-    CL-39789  37.071   2.260  11.473
78479CL-    CL-39790   5.729  10.290  12.896
78480CL-    CL-39791  25.524  25.967  10.445
78481CL-    CL-39792  35.596   3.263  13.533
78482CL-    CL-39793  10.827  11.737   3.344
78483CL-    CL-39794  12.138  17.677   2.871
78484CL-    CL-39795   2.362  30.942   3.664
78485CL-    CL-39796  18.586  21.059  13.350
78486CL-    CL-39797  16.181  11.737  13.453
78487CL-    CL-39798   6.246  11.151   4.169
78488CL-    CL-39799  14.822  36.514  14.845
78489CL-    CL-39800  22.033  27.984   3.829
78490CL-    CL-39801   7.208  41.913   2.700
78491CL-    CL-39802   2.939  30.517  12.521
78492CL-    CL-39803  36.041  36.039   2.250
78493CL-    CL-39804   5.834  13.163  10.551
78494CL-    CL-39805  39.347  25.620   0.259
78495CL-    CL-39806  21.732  15.163  14.867
78496CL-    CL-39807  44.377  39.908  10.586
78497CL-    CL-39808  15.124  42.527  13.064
78498CL-    CL-39809  25.481  35.873  10.446
78499CL-    CL-39810  21.549  36.881   1.924
78500CL-    CL-39811  18.599  30.013  10.534
78501CL-    CL-39812  11.633  26.063   4.248
78502CL-    CL-39813  23.551  20.230   2.667
78503CL-    CL-39814   5.192  25.063   4.157
78504CL-    CL-39815   9.156   6.768  10.411
78505CL-    CL-39816   0.348   5.404  11.062
78506CL-    CL-39817  42.801   3.452  13.327
78507CL-    CL-39818  39.340  34.867  14.398
78508CL-    CL-39819  31.486  10.762  14.435
78509CL-    CL-39820  16.297  10.371   2.880
78510CL-    CL-39821  29.503  11.691   9.978
78511CL-    CL-39822  30.104  11.868  12.470
78512CL-    CL-39823   0.827  35.536  11.083
78513CL-    CL-39824   4.356  25.586   0.283
78514CL-    CL-39825  40.345   7.887  13.314
78515CL-    CL-39826  26.998   5.218   5.589
78516CL-    CL-39827  36.008  34.084  13.904
78517CL-    CL-39828   8.661   3.350  13.393
78518CL-    CL-39829  29.533  32.972   0.311
78519CL-    CL-39830  35.551  19.677   1.926
78520CL-    CL-39831  28.526  13.229   0.962
78521CL-    CL-39832  39.548  34.502  14.353
78522CL-    CL-39833  33.460  25.556  10.949
78523CL-    CL-39834  30.086  22.537   0.900
78524CL-    CL-39835  38.928  16.593  11.416
78525CL-    CL-39836  23.174  42.915  13.313
78526CL-    CL-39837  32.916   3.382  10.918
78527CL-    CL-39838   6.372   8.355   4.603
78528CL-    CL-39839   3.260  34.518   4.177
78529CL-    CL-39840   5.408  21.220   1.236
78530CL-    CL-39841  27.561   1.962  13.415
78531CL-    CL-39842  30.117  39.841   0.827
78532CL-    CL-39843  26.520  39.522  12.095
78533CL-    CL-39844  30.914  39.045  12.015
78534CL-    CL-39845  44.860  25.599   4.807
78535CL-    CL-39846  17.221  12.225   4.746
78536CL-    CL-39847  42.947  27.951  11.397
78537CL-    CL-39848  44.801  25.045  12.869
78538CL-    CL-39849  28.089   4.897  12.027
78539CL-    CL-39850  32.448  28.637  12.454
78540CL-    CL-39851  12.648  31.646  13.999
78541CL-    CL-39852  10.190   1.297  14.995
78542CL-    CL-39853  12.320  40.343  14.938
78543CL-    CL-39854  33.094  36.466   2.309
78544CL-    CL-39855   9.210  31.614  11.447
78545CL-    CL-39856  23.109   6.739  11.375
78546CL-    CL-39857  40.805   6.694   0.382
78547CL-    CL-39858  42.365  35.875  14.875
78548CL-    CL-39859   0.847  32.115  12.501
78549CL-    CL-39860   7.364   7.873   4.316
78550CL-    CL-39861  18.221   5.408  10.601
78551CL-    CL-39862  36.848   3.445   0.874
78552CL-    CL-39863  16.123  15.309  11.513
78553CL-    CL-39864   2.871  40.841   0.904
78554CL-    CL-39865  17.801   3.858  10.986
78555CL-    CL-39866  12.290  30.503   3.357
78556CL-    CL-39867  37.341  37.406   2.351
78557CL-    CL-39868  32.923  44.375  10.961
78558CL-    CL-39869  42.866  15.320  14.279
78559CL-    CL-39870  39.394  35.538  12.461
78560CL-    CL-39871  37.019  16.115  14.447
78561CL-    CL-39872  11.763   1.385  12.093
78562CL-    CL-39873  37.476   0.743   1.427
78563CL-    CL-39874   6.307  21.218   4.751
78564CL-    CL-39875  15.620  40.544   2.294
78565CL-    CL-39876  24.676  44.443   1.393
78566CL-    CL-39877  39.433  39.470  14.765
78567CL-    CL-39878  10.850  37.434   1.242
78568CL-    CL-39879  10.774  17.279   0.439
78569CL-    CL-39880  39.001   0.394  13.041
78570CL-    CL-39881  17.285  23.079   1.290
78571CL-    CL-39882  26.462  37.985   1.331
78572CL-    CL-39883  10.269  28.451   4.236
78573CL-    CL-39884  14.729   5.402   4.758
78574CL-    CL-39885  11.207   4.827  14.873
78575CL-    CL-39886  24.516  16.770   0.316
78576CL-    CL-39887  43.850  11.151  10.440
78577CL-    CL-39888  38.477  39.559   2.801
78578CL-    CL-39889  11.242  39.823  13.344
78579CL-    CL-39890  39.009  13.120   3.326
78580CL-    CL-39891  42.475  40.526  13.380
78581CL-    CL-39892  13.675  17.099  14.350
78582CL-    CL-39893  44.798  24.496  10.433
78583CL-    CL-39894  10.829  35.964   4.250
78584CL-    CL-39895   1.731  12.302  13.972
78585CL-    CL-39896  22.079  22.150   1.892
78586CL-    CL-39897   2.419  11.641   4.281
78587CL-    CL-39898  43.936  33.576  11.095
78588CL-    CL-39899  15.606  37.069  13.410
78589CL-    CL-39900  21.757  25.682   0.254
78590CL-    CL-39901  12.343  28.967   3.825
78591CL-    CL-39902   0.284  33.102   2.186
78592CL-    CL-39903  31.923  34.955  11.935
78593CL-    CL-39904  42.998  16.256   4.671
78594CL-    CL-39905  19.209   3.919   3.255
78595CL-    CL-39906   8.677  23.713   1.803
78596CL-    CL-39907  41.838  16.622  10.965
78597CL-    CL-39908  41.042   9.391   0.394
78598CL-    CL-39909  33.516  38.429  11.605
78599CL-    CL-39910  14.802  26.140   2.317
78600CL-    CL-39911  21.751  20.182   2.369
78601CL-    CL-39912  23.601  16.737  14.843
78602CL-    CL-39913   7.313  14.231  10.915
78603CL-    CL-39914   7.193  43.491  14.307
78604CL-    CL-39915  33.117  14.793   1.845
78605CL-    CL-39916  25.091  10.757  12.862
78606CL-    CL-39917  17.174  12.642  13.895
78607CL-    CL-39918  35.998   6.902  11.115
78608CL-    CL-39919  24.659  21.676   0.769
78609CL-    CL-39920   7.412  39.042   2.837
78610CL-    CL-39921  33.391  30.932  11.412
78611CL-    CL-39922  25.037   7.842  11.601
78612CL-    CL-39923  38.988  10.368   2.799
78613CL-    CL-39924  10.719  25.116  13.420
78614CL-    CL-39925  20.607   2.791  14.481
78615CL-    CL-39926   8.782   1.752  11.967
78616CL-    CL-39927  34.378  15.204   3.727
78617CL-    CL-39928  38.839  38.378  11.933
78618CL-    CL-39929  17.796  36.513   4.213
78619CL-    CL-39930   9.730  18.698   4.821
78620CL-    CL-39931  33.548   5.745   1.340
78621CL-    CL-39932  34.064   4.796   1.331
78622CL-    CL-39933  39.885  17.081   4.131
78623CL-    CL-39934   7.906   6.881   2.718
78624CL-    CL-39935   6.338  22.105   3.166
78625CL-    CL-39936  33.523  19.656   1.213
78626CL-    CL-39937  24.535   1.902   4.828
78627CL-    CL-39938  40.303  44.788   2.794
78628CL-    CL-39939   3.727   6.378  11.972
78629CL-    CL-39940  44.262  25.046  14.898
78630CL-    CL-39941  12.238   0.970  13.395
78631CL-    CL-39942  37.995  36.859   0.817
78632CL-    CL-39943   8.340  18.763  14.391
78633CL-    CL-39944   2.949  29.027   2.374
78634CL-    CL-39945  18.262  32.955   4.826
78635CL-    CL-39946  30.447  13.319   1.874
78636CL-    CL-39947  28.624  22.657   4.181
78637CL-    CL-39948  25.661   3.812  13.511
78638CL-    CL-39949   4.324  26.012  10.931
78639CL-    CL-39950  12.768  43.992  14.006
78640CL-    CL-39951  31.014  15.297  12.462
78641CL-    CL-39952   9.309  20.631   3.645
78642CL-    CL-39953   3.889  13.252   1.225
78643CL-    CL-39954  39.816   1.314   2.766
78644CL-    CL-39955  17.152  33.983   4.200
78645CL-    CL-39956  12.335  22.206  12.867
78646CL-    CL-39957  35.581   4.922   0.273
78647CL-    CL-39958  42.413  14.801   0.253
78648CL-    CL-39959   6.384  23.557   5.306
78649CL-    CL-39960  39.837  31.606   5.271
78650CL-    CL-39961   0.821  37.038  13.401
78651CL-    CL-39962  30.098   5.273   5.717
78652CL-    CL-39963  24.069  17.271  10.127
78653CL-    CL-39964   4.387   1.818  11.043
78654CL-    CL-39965  43.777  37.433  11.908
78655CL-    CL-39966  38.561  23.596   2.719
78656CL-    CL-39967  18.253  32.491  11.944
78657CL-    CL-39968   9.289  34.902  10.132
78658CL-    CL-39969  19.675  28.028  14.015
78659CL-    CL-39970  43.815  39.326  14.406
78660CL-    CL-39971   1.914  40.470   4.696
78661CL-    CL-39972  43.795  24.536  13.469
78662CL-    CL-39973  16.301   0.491   4.713
78663CL-    CL-39974  15.096  33.051  12.429
78664CL-    CL-39975  23.052  10.179   2.888
78665CL-    CL-39976  34.428  38.968   3.352
78666CL-    CL-39977   5.283  43.417  11.102
78667CL-    CL-39978  35.569  22.604   4.334
78668CL-    CL-39979  25.963  33.520   2.323
78669CL-    CL-39980  18.588  44.413   2.214
78670CL-    CL-39981   5.291  43.861  14.884
78671CL-    CL-39982  42.330  17.662  11.986
78672CL-    CL-39983  32.605  43.325  11.939
78673CL-    CL-39984  26.697  28.121  12.017
78674CL-    CL-39985   9.799  40.021  14.788
78675CL-    CL-39986  32.939  21.624  11.577
78676CL-    CL-39987  37.924  12.612   2.332
78677CL-    CL-39988   2.356  32.008   3.323
78678CL-    CL-39989   5.245  25.624  10.916
78679CL-    CL-39990  34.369  42.522   2.335
78680CL-    CL-39991  11.354  39.319  13.812
78681CL-    CL-39992  12.732  43.892   2.317
78682CL-    CL-39993  11.706   3.903  13.980
78683CL-    CL-39994  22.123  26.061   1.825
78684CL-    CL-39995   7.906  35.539   2.237
78685CL-    CL-39996   7.210  33.492   2.405
78686CL-    CL-39997   2.470  10.257  14.880
78687CL-    CL-39998  42.809  21.538  10.602
78688CL-    CL-39999  17.243  31.086  12.428
78689CL-    CL-40000  41.027  33.604   0.378
78690CL-    CL-40001  12.354  28.533  14.765
78691CL-    CL-40002   4.264  27.139   1.893
78692CL-    CL-40003  25.614  25.012   5.240
78693CL-    CL-40004  40.416  43.450   3.848
78694CL-    CL-40005  20.523  27.588  12.400
78695CL-    CL-40006   8.189  30.152   3.833
78696CL-    CL-40007   0.891   3.738  13.495
78697CL-    CL-40008   0.346  40.304  11.599
78698CL-    CL-40009  17.232  37.031  13.807
78699CL-    CL-40010   6.211  12.632   4.671
78700CL-    CL-40011  36.091  17.280   3.281
78701CL-    CL-40012  15.120  34.568   1.916
78702CL-    CL-40013  41.415  33.387  12.895
78703CL-    CL-40014  43.459  15.644   0.846
78704CL-    CL-40015  16.145  12.649   1.291
78705CL-    CL-40016  11.186   9.378  11.891
78706CL-    CL-40017  13.830  41.369   3.794
78707CL-    CL-40018  30.588  36.087  10.562
78708CL-    CL-40019  31.552  28.506   2.740
78709CL-    CL-40020  12.719  44.759  14.291
78710CL-    CL-40021  33.938   2.801  10.517
78711CL-    CL-40022  29.613  11.635  14.829
78712CL-    CL-40023   0.422  43.878   3.717
78713CL-    CL-40024  39.494  31.053  10.508
78714CL-    CL-40025  41.792  24.659   2.208
78715CL-    CL-40026  28.078  40.860   1.338
78716CL-    CL-40027  21.027  29.936   9.621
78717CL-    CL-40028  13.182  16.695  13.418
78718CL-    CL-40029  20.548  19.606   4.261
78719CL-    CL-40030  14.605  23.136   1.345
78720CL-    CL-40031  25.033  42.329  14.336
78721CL-    CL-40032   9.762  23.684   1.391
78722CL-    CL-40033   2.365   6.345   0.395
78723CL-    CL-40034  13.127  19.743   2.269
78724CL-    CL-40035   6.278  39.850   1.271
78725CL-    CL-40036  41.367  22.583   0.949
78726CL-    CL-40037  16.605   2.738  14.512
78727CL-    CL-40038  22.118  42.384   0.301
78728CL-    CL-40039  29.587  39.550   4.195
78729CL-    CL-40040  19.140  31.609  11.561
78730CL-    CL-40041  24.533  22.070  13.535
78731CL-    CL-40042  34.957  36.916   3.733
78732CL-    CL-40043  25.964  44.822  11.378
78733CL-    CL-40044  44.798  40.469  10.617
78734CL-    CL-40045   9.299  27.026  13.874
78735CL-    CL-40046  24.570  38.469   3.844
78736CL-    CL-40047  18.716  28.100   2.194
78737CL-    CL-40048  29.921   7.758  12.065
78738CL-    CL-40049  36.991  28.450   0.829
78739CL-    CL-40050   3.300  41.456  12.986
78740CL-    CL-40051   9.163  19.147   0.770
78741CL-    CL-40052  37.497   0.435   3.864
78742CL-    CL-40053  19.092  10.757   0.354
78743CL-    CL-40054   6.678  12.214   0.365
78744CL-    CL-40055  38.003  43.379  11.859
78745CL-    CL-40056  35.860  24.703   3.148
78746CL-    CL-40057   4.267  42.486  11.983
78747CL-    CL-40058  19.763  36.450  13.411
78748CL-    CL-40059  26.551  18.099   4.133
78749CL-    CL-40060  33.991  42.008   0.469
78750CL-    CL-40061  15.243  30.429   2.349
78751CL-    CL-40062  14.713   4.279  12.507
78752CL-    CL-40063  39.983  28.559   3.709
78753CL-    CL-40064   1.479  12.827  11.999
78754CL-    CL-40065  18.293   1.401   2.697
78755CL-    CL-40066  23.191  27.499   2.309
78756CL-    CL-40067  19.748  38.015   4.837
78757CL-    CL-40068   2.965   8.208   3.340
78758CL-    CL-40069   8.715   8.868   5.088
78759CL-    CL-40070  18.090  38.046   1.292
78760CL-    CL-40071   8.178  17.600   0.782
78761CL-    CL-40072  40.353  38.411  14.316
78762CL-    CL-40073  19.627   8.679   1.720
78763CL-    CL-40074  41.428   3.308  14.368
78764CL-    CL-40075   6.381  37.491  10.558
78765CL-    CL-40076   7.322  18.564  14.004
78766CL-    CL-40077   4.865  42.806  12.005
78767CL-    CL-40078   7.896  11.694  11.987
78768CL-    CL-40079   7.256  17.657   2.799
78769CL-    CL-40080  10.318   0.319   4.727
78770CL-    CL-40081  32.506   9.720  12.081
78771CL-    CL-40082  28.586   4.337  13.970
78772CL-    CL-40083  25.091  29.516  13.339
78773CL-    CL-40084  34.954  44.448   0.807
78774CL-    CL-40085  37.861  36.512   5.145
78775CL-    CL-40086   1.346  27.569  12.917
78776CL-    CL-40087   5.386  35.437  14.350
78777CL-    CL-40088  24.123  18.085  14.923
78778CL-    CL-40089   1.976   0.979  12.874
78779CL-    CL-40090  10.280  21.054   5.191
78780CL-    CL-40091  34.025  16.693   4.172
78781CL-    CL-40092  39.506   8.745   0.772
78782CL-    CL-40093  10.280  40.322   2.236
78783CL-    CL-40094  26.482   4.889  11.476
78784CL-    CL-40095  18.075  32.585   2.392
78785CL-    CL-40096  26.698  15.725   2.796
78786CL-    CL-40097  42.413  20.087  14.311
78787CL-    CL-40098  32.588  19.773   1.261
78788CL-    CL-40099  33.889   6.817  14.373
78789CL-    CL-40100  13.668  18.744  11.961
78790CL-    CL-40101  28.087   8.401   3.187
78791CL-    CL-40102   3.732  40.036   1.321
78792CL-    CL-40103  39.321  39.456  11.933
78793CL-    CL-40104  43.958  34.900  12.874
78794CL-    CL-40105  36.051  18.231   2.675
78795CL-    CL-40106  28.529  13.180   3.777
78796CL-    CL-40107  33.579  21.602   1.899
78797CL-    CL-40108  25.144  24.639   0.416
78798CL-    CL-40109  36.553  21.678   3.742
78799CL-    CL-40110  30.954  39.320  11.524
78800CL-    CL-40111  42.302  25.135   1.808
78801CL-    CL-40112  16.245  41.356   2.339
78802CL-    CL-40113  32.051  27.078  10.942
78803CL-    CL-40114  25.488  32.608  13.920
78804CL-    CL-40115   9.337  32.045   3.267
78805CL-    CL-40116   4.231   7.283   4.310
78806CL-    CL-40117   5.214  19.211   2.302
78807CL-    CL-40118  36.933  34.598  12.040
78808CL-    CL-40119  27.580  25.535  13.866
78809CL-    CL-40120  36.879   5.253  13.320
78810CL-    CL-40121  33.910  25.654  10.632
78811CL-    CL-40122  34.938   3.406  13.528
78812CL-    CL-40123  13.154  41.408   1.839
78813CL-    CL-40124   1.291  28.583   2.719
78814CL-    CL-40125  36.039  27.086  10.430
78815CL-    CL-40126  11.150   1.266   0.931
78816CL-    CL-40127   0.922  24.169   0.293
78817CL-    CL-40128  42.515  15.614   0.444
78818CL-    CL-40129  13.281  37.849   2.715
78819CL-    CL-40130  28.668  37.581   1.403
78820CL-    CL-40131  27.458  18.296  14.423
78821CL-    CL-40132   7.184   3.806  14.375
78822CL-    CL-40133  14.253  22.719  12.426
78823CL-    CL-40134  36.493  29.455   1.709
78824CL-    CL-40135  11.141  21.514   4.603
78825CL-    CL-40136   8.892   7.347   1.719
78826CL-    CL-40137  25.110   8.796   0.391
78827CL-    CL-40138  41.300  21.115   3.868
78828CL-    CL-40139  20.549  34.867   1.354
78829CL-    CL-40140  19.147  32.972  12.356
78830CL-    CL-40141  26.150  29.550   0.914
78831CL-    CL-40142   7.825  29.483  14.332
78832CL-    CL-40143  37.383   6.811  13.402
78833CL-    CL-40144  14.250   9.653   1.219
78834CL-    CL-40145  19.206   4.330   4.259
78835CL-    CL-40146  23.539  16.113   0.371
78836CL-    CL-40147  39.318  13.731  14.911
78837CL-    CL-40148   8.823  10.268  11.988
78838CL-    CL-40149   8.344   7.780   0.797
78839CL-    CL-40150  24.079  11.804   4.318
78840CL-    CL-40151  18.150  27.073   3.802
78841CL-    CL-40152  19.557  24.121  12.560
78842CL-    CL-40153  31.597   0.328  12.408
78843CL-    CL-40154  43.891  37.844  14.322
78844CL-    CL-40155  21.570  35.092  12.070
78845CL-    CL-40156   0.962  31.057  11.923
78846CL-    CL-40157   2.918  27.171   4.795
78847CL-    CL-40158  28.004  10.196   4.228
78848CL-    CL-40159  37.939  10.203   2.201
78849CL-    CL-40160  18.179  25.094   1.791
78850CL-    CL-40161  34.384  42.908  11.896
78851CL-    CL-40162   3.221  11.345   1.749
78852CL-    CL-40163   6.287  26.480   4.140
78853CL-    CL-40164  22.516  25.638   3.207
78854CL-    CL-40165   3.432  24.520   0.830
78855CL-    CL-40166  30.047  19.766   2.804
78856CL-    CL-40167  39.525  43.494  12.387
78857CL-    CL-40168   3.866  38.075  14.452
78858CL-    CL-40169   1.793  10.298   1.889
78859CL-    CL-40170   6.680  15.773  13.424
78860CL-    CL-40171  42.999  33.520  14.316
78861CL-    CL-40172  44.918   9.731   3.769
78862CL-    CL-40173  10.205  16.682   1.429
78863CL-    CL-40174  19.067   0.280  10.974
78864CL-    CL-40175  23.512   0.377  11.423
78865CL-    CL-40176  12.738  32.457  13.498
78866CL-    CL-40177  29.556   7.821   5.773
78867CL-    CL-40178  13.194  22.680  11.521
78868CL-    CL-40179  12.309  20.125   0.314
78869CL-    CL-40180  39.522  37.345  13.386
78870CL-    CL-40181   8.229   8.677   2.317
78871CL-    CL-40182  36.095  24.554  13.459
78872CL-    CL-40183  11.281   6.835   2.674
78873CL-    CL-40184   4.773  28.110   4.174
78874CL-    CL-40185  26.183   9.238   2.765
78875CL-    CL-40186   6.413   9.887   2.892
78876CL-    CL-40187  24.169  44.326   1.899
78877CL-    CL-40188   6.868  29.989  12.843
78878CL-    CL-40189  25.675  41.801  11.605
78879CL-    CL-40190  20.574   7.685  11.111
78880CL-    CL-40191  17.645   9.177  14.843
78881CL-    CL-40192  25.707  22.997   1.877
78882CL-    CL-40193  10.147   1.951   1.806
78883CL-    CL-40194  36.530  13.109   0.256
78884CL-    CL-40195   7.335  40.311  11.950
78885CL-    CL-40196   5.322   5.822   2.892
78886CL-    CL-40197  21.157  37.453   4.283
78887CL-    CL-40198   1.837  31.965   3.188
78888CL-    CL-40199  20.661  20.081   3.274
78889CL-    CL-40200  19.578  23.633  13.832
78890CL-    CL-40201  20.256   5.781  14.820
78891CL-    CL-40202   3.853  14.105  12.035
78892CL-    CL-40203   2.257   7.235   5.099
78893CL-    CL-40204  14.319  36.369   1.883
78894CL-    CL-40205  21.024   7.334  10.089
78895CL-    CL-40206  31.469  37.446   4.788
78896CL-    CL-40207  42.523  35.402  14.447
78897CL-    CL-40208   1.324  40.900   2.313
78898CL-    CL-40209  25.638  38.420   1.260
78899CL-    CL-40210  42.865   0.865   4.214
78900CL-    CL-40211  37.544   0.337  12.454
78901CL-    CL-40212  20.528  37.978  14.979
78902CL-    CL-40213   4.259   8.262  10.422
78903CL-    CL-40214   1.905  33.929  14.293
78904CL-    CL-40215  35.467  15.673   4.347
78905CL-    CL-40216  20.555  35.486  11.916
78906CL-    CL-40217   5.438  28.623   3.278
78907CL-    CL-40218  15.127   8.680   9.949
78908CL-    CL-40219  16.611   2.796  13.329
78909CL-    CL-40220  17.127  21.121  14.870
78910CL-    CL-40221  44.823  13.164   3.661
78911CL-    CL-40222  39.907  24.190  10.916
78912CL-    CL-40223  27.941  36.075   2.868
78913CL-    CL-40224  17.566  22.554  13.049
78914CL-    CL-40225  34.065  33.623   2.779
78915CL-    CL-40226   2.423  18.583  11.575
78916CL-    CL-40227  18.774  39.408  10.990
78917CL-    CL-40228  32.394  33.389  11.428
78918CL-    CL-40229  13.118  39.478  13.970
78919CL-    CL-40230   8.763  37.398  14.867
78920CL-    CL-40231   2.258   8.258  12.827
78921CL-    CL-40232  39.962  21.083  13.818
78922CL-    CL-40233  32.094  31.576   0.283
78923CL-    CL-40234  21.531  39.998   5.712
78924CL-    CL-40235  32.631  24.979  13.540
78925CL-    CL-40236  22.006   7.228  14.474
78926CL-    CL-40237   6.427  33.933   1.445
78927CL-    CL-40238  32.456   4.385   4.142
78928CL-    CL-40239   1.304  36.571   1.775
78929CL-    CL-40240  26.464  21.707  14.786
78930CL-    CL-40241  34.443  31.915   4.708
78931CL-    CL-40242   5.845  32.474  10.583
78932CL-    CL-40243   4.379  38.336  11.524
78933CL-    CL-40244   3.323   0.775  10.549
78934CL-    CL-40245  14.744   6.250  11.921
78935CL-    CL-40246   4.352  26.538   3.361
78936CL-    CL-40247   7.185  29.459   2.843
78937CL-    CL-40248  23.701  43.939   2.349
78938CL-    CL-40249   9.213  38.475   1.724
78939CL-    CL-40250   7.388  19.174   2.202
78940CL-    CL-40251  26.119   0.351  14.449
78941CL-    CL-40252  17.636  42.301   0.800
78942CL-    CL-40253  28.610  34.491  12.346
78943CL-    CL-40254  11.768  38.435  13.340
78944CL-    CL-40255   2.261  19.150   3.751
78945CL-    CL-40256   5.206  39.493  11.403
78946CL-    CL-40257  41.326  32.409  13.000
78947CL-    CL-40258   3.722  25.617  14.500
78948CL-    CL-40259  15.779  33.017   1.869
78949CL-    CL-40260  22.696  12.143  12.441
78950CL-    CL-40261  39.432  28.602  14.783
78951CL-    CL-40262   7.828  37.369  12.902
78952CL-    CL-40263  39.397   3.402  11.412
78953CL-    CL-40264  15.653  34.375  14.030
78954CL-    CL-40265  25.653  32.047  12.028
78955CL-    CL-40266  39.060  17.190  13.987
78956CL-    CL-40267  12.161  36.514  12.891
78957CL-    CL-40268  25.593  17.141  14.391
78958CL-    CL-40269  17.794   9.150  13.352
78959CL-    CL-40270  24.581   9.737   0.901
78960CL-    CL-40271  40.464  35.043   1.701
78961CL-    CL-40272  21.666   0.926  13.546
78962CL-    CL-40273  36.394  33.950   5.283
78963CL-    CL-40274  16.217   5.284  13.027
78964CL-    CL-40275  40.414  27.603  12.072
78965CL-    CL-40276  26.132  14.148   0.424
78966CL-    CL-40277  33.605  19.553  10.916
78967CL-    CL-40278  15.291   5.863  14.510
78968CL-    CL-40279  13.246  33.426   5.306
78969CL-    CL-40280  13.632   5.928   4.695
78970CL-    CL-40281  22.689  12.143  10.637
78971CL-    CL-40282  37.573  39.924  13.881
78972CL-    CL-40283  11.350  24.989   3.169
78973CL-    CL-40284  26.575   8.187  12.545
78974CL-    CL-40285  39.470  17.114   2.806
78975CL-    CL-40286   6.761  40.863  12.900
78976CL-    CL-40287  29.453  18.173  14.768
78977CL-    CL-40288   2.334  38.477  14.777
78978CL-    CL-40289   0.367  10.682   0.830
78979CL-    CL-40290  17.082  28.987  12.529
78980CL-    CL-40291  36.917  20.579  11.437
78981CL-    CL-40292  18.089   1.841  14.858
78982CL-    CL-40293  10.279  22.110  11.529
78983CL-    CL-40294  13.841  23.205   2.229
78984CL-    CL-40295   7.278  20.677  10.603
78985CL-    CL-40296  35.401  29.527   1.770
78986CL-    CL-40297  34.113  35.580  10.932
78987CL-    CL-40298  11.324  30.917  13.033
78988CL-    CL-40299   9.238  35.542  12.385
78989CL-    CL-40300  38.830  10.197  13.315
78990CL-    CL-40301  33.495  23.998  13.344
78991CL-    CL-40302  21.108  41.924  10.557
78992CL-    CL-40303  27.112  23.644  10.626
78993CL-    CL-40304  42.311   6.804  11.964
78994CL-    CL-40305  32.417  33.927  12.516
78995CL-    CL-40306  32.503  32.566  10.417
78996CL-    CL-40307  37.364   3.751   0.768
78997CL-    CL-40308  28.995  22.693  11.117
78998CL-    CL-40309  24.699  41.356  13.412
78999CL-    CL-40310  32.443  20.550  14.845
79000CL-    CL-40311  40.974  42.424  10.595
79001CL-    CL-40312   5.229  29.110   1.306
79002CL-    CL-40313  39.378  16.181   3.218
79003CL-    CL-40314  23.111  39.012   1.303
79004CL-    CL-40315   5.716  31.913   3.668
79005CL-    CL-40316  15.237  39.477   4.159
79006CL-    CL-40317  35.091  23.236  12.448
79007CL-    CL-40318  14.832  16.632   1.407
79008CL-    CL-40319  27.558  26.027   1.348
79009CL-    CL-40320   2.370  31.555   2.290
79010CL-    CL-40321  34.551  42.898   2.720
79011CL-    CL-40322  36.858   3.461  13.452
79012CL-    CL-40323  38.016  10.759   3.683
79013CL-    CL-40324   1.854  42.832   1.392
79014CL-    CL-40325  44.451  42.419  10.124
79015CL-    CL-40326  12.807   5.706   1.338
79016CL-    CL-40327  26.020  42.780  12.855
79017CL-    CL-40328  15.702  19.193  11.891
79018CL-    CL-40329  24.136  22.505   4.602
79019CL-    CL-40330  25.588   7.882   4.624
79020CL-    CL-40331   1.918  14.136  14.964
79021CL-    CL-40332   8.211  17.285  14.441
79022CL-    CL-40333  29.466  19.571  12.954
79023CL-    CL-40334  16.597  25.144  10.557
79024CL-    CL-40335  14.741   4.816  14.815
79025CL-    CL-40336  14.731  14.218  14.335
79026CL-    CL-40337  27.131  21.039  14.789
79027CL-    CL-40338   5.921  33.066   0.319
79028CL-    CL-40339  13.759   3.931  11.887
79029CL-    CL-40340  27.986   5.696   0.434
79030CL-    CL-40341   3.283  19.712  14.904
79031CL-    CL-40342  38.400  28.124   2.248
79032CL-    CL-40343  13.826  37.024  10.890
79033CL-    CL-40344  39.975   1.784  12.479
79034CL-    CL-40345  11.825  33.103  14.898
79035CL-    CL-40346  12.240  23.521  12.024
79036CL-    CL-40347  10.289   9.274   4.319
79037CL-    CL-40348  20.743  11.777   4.182
79038CL-    CL-40349  29.627  24.033  12.382
79039CL-    CL-40350  28.079   4.769   5.237
79040CL-    CL-40351  36.456  43.967  11.072
79041CL-    CL-40352  21.057  15.290   3.235
79042CL-    CL-40353  39.031   9.854   1.816
79043CL-    CL-40354  26.991  28.679   4.818
79044CL-    CL-40355  30.649   6.851   1.743
79045CL-    CL-40356  18.754  41.975  13.378
79046CL-    CL-40357   9.348   0.954   5.299
79047CL-    CL-40358  26.156  39.967   1.258
79048CL-    CL-40359  20.274   3.218  10.894
79049CL-    CL-40360  27.570  16.224   3.261
79050CL-    CL-40361  38.990   4.216   0.323
79051CL-    CL-40362  31.918   9.692   0.352
79052CL-    CL-40363   8.203   3.450  13.969
79053CL-    CL-40364  24.675   5.365  14.889
79054CL-    CL-40365  25.566  19.573  11.871
79055CL-    CL-40366  24.079  44.842   2.849
79056CL-    CL-40367   9.886  10.807   2.693
79057CL-    CL-40368  27.641  19.556   1.757
79058CL-    CL-40369   5.250   2.876  11.978
79059CL-    CL-40370   3.931  40.979   1.309
79060CL-    CL-40371   9.278  38.417  10.569
79061CL-    CL-40372  24.541  28.500  12.556
79062CL-    CL-40373  13.267  13.724   0.299
79063CL-    CL-40374  25.603  33.531  12.511
79064CL-    CL-40375   0.768   2.925   2.210
79065CL-    CL-40376  29.612  22.605  14.030
79066CL-    CL-40377  34.554   0.771   3.211
79067CL-    CL-40378  36.359  32.594   0.874
79068CL-    CL-40379  36.451  19.039  10.519
79069CL-    CL-40380  14.718  37.509  12.518
79070CL-    CL-40381  25.044  20.131  13.519
79071CL-    CL-40382  12.135  32.448   4.203
79072CL-    CL-40383  11.747  13.750  14.350
79073CL-    CL-40384  24.594  36.858  12.355
79074CL-    CL-40385  35.474  17.258   0.355
79075CL-    CL-40386   7.227  38.491   3.783
79076CL-    CL-40387  33.878   9.846   0.362
79077CL-    CL-40388  37.408  12.743  14.763
79078CL-    CL-40389  34.413   1.846  13.312
79079CL-    CL-40390  12.831  22.554  11.447
79080CL-    CL-40391  12.214  44.354  11.389
79081CL-    CL-40392  28.045  21.734  14.281
79082CL-    CL-40393  34.086  18.220  14.007
79083CL-    CL-40394  13.691  22.247   5.567
79084CL-    CL-40395  18.077   4.393  11.007
79085CL-    CL-40396  39.461   9.726   1.437
79086CL-    CL-40397  44.991  41.860  13.433
79087CL-    CL-40398  19.648  12.706   4.177
79088CL-    CL-40399  38.067  19.167   4.686
79089CL-    CL-40400   3.853  21.686   2.219
79090CL-    CL-40401  28.557   4.211   4.810
79091CL-    CL-40402   0.941  14.104   4.633
79092CL-    CL-40403  25.633   9.173   0.882
79093CL-    CL-40404   5.223  21.614  11.093
79094CL-    CL-40405   3.771  20.236   4.245
79095CL-    CL-40406  10.338  27.029  14.487
79096CL-    CL-40407  21.592  25.542   1.705
79097CL-    CL-40408  40.486   8.839  13.032
79098CL-    CL-40409  26.648   2.771  13.441
79099CL-    CL-40410  39.911  35.913  11.933
79100CL-    CL-40411  21.216  43.373  10.959
79101CL-    CL-40412   5.296  39.006   0.469
79102CL-    CL-40413  17.767  36.978  11.496
79103CL-    CL-40414  31.040   3.337   3.265
79104CL-    CL-40415   4.777  34.447  12.350
79105CL-    CL-40416   9.882  33.456   1.220
79106CL-    CL-40417  33.121   5.750   1.699
79107CL-    CL-40418  43.970  23.530  12.096
79108CL-    CL-40419   0.952  27.662  11.044
79109CL-    CL-40420  40.863  43.282  11.425
79110CL-    CL-40421  32.910  26.196   0.810
79111CL-    CL-40422  29.922  23.728  14.815
79112CL-    CL-40423   6.856  20.681  14.509
79113CL-    CL-40424   7.338  26.203   1.713
79114CL-    CL-40425  26.125  18.714  13.014
79115CL-    CL-40426  33.512   1.736   1.884
79116CL-    CL-40427   4.827  29.581  13.873
79117CL-    CL-40428  27.453  12.812  13.997
79118CL-    CL-40429  35.509   5.914   1.825
79119CL-    CL-40430  15.678  19.643   2.311
79120CL-    CL-40431  20.102  15.328   2.757
79121CL-    CL-40432  37.531  38.843  11.037
79122CL-    CL-40433   7.281  43.822   3.386
79123CL-    CL-40434  12.260  25.156   4.332
79124CL-    CL-40435  26.513  36.086   1.260
79125CL-    CL-40436  32.051  22.136   2.319
79126CL-    CL-40437   8.188  11.307  11.490
79127CL-    CL-40438   7.688   0.786  12.857
79128CL-    CL-40439  36.032  35.997  14.008
79129CL-    CL-40440  39.479  36.017  11.981
79130CL-    CL-40441  20.247  17.077   2.751
79131CL-    CL-40442  19.673  37.001  10.625
79132CL-    CL-40443   9.239  15.810  14.499
79133CL-    CL-40444   5.839   9.690   4.182
79134CL-    CL-40445  30.542  24.089  12.347
79135CL-    CL-40446   6.890   2.827   2.297
79136CL-    CL-40447   9.734  23.654  14.866
79137CL-    CL-40448  10.742  18.143  10.512
79138CL-    CL-40449  33.086  19.170  11.036
79139CL-    CL-40450  11.781  23.185  10.057
79140CL-    CL-40451  32.908  25.669  12.379
79141CL-    CL-40452  12.659  20.522   2.884
79142CL-    CL-40453  35.524  11.833  12.484
79143CL-    CL-40454  34.394  22.183   0.327
79144CL-    CL-40455  43.897  15.752   3.693
79145CL-    CL-40456  18.115  22.047   0.375
79146CL-    CL-40457  30.635  41.442   3.857
79147CL-    CL-40458  24.215  19.128  11.397
79148CL-    CL-40459   3.348  28.609   3.159
79149CL-    CL-40460   1.976  20.051  13.434
79150CL-    CL-40461  10.292  29.091  12.564
79151CL-    CL-40462  25.129  22.656  10.544
79152CL-    CL-40463   5.932   7.386   0.304
79153CL-    CL-40464  30.924  24.714   4.615
79154CL-    CL-40465  30.958  28.628  10.438
79155CL-    CL-40466  23.995  42.924   4.622
79156CL-    CL-40467  13.192  23.634   0.798
79157CL-    CL-40468  19.124  27.192   0.442
79158CL-    CL-40469  44.302   1.738  13.022
79159CL-    CL-40470  34.867  43.439   2.192
79160CL-    CL-40471  39.409  14.274   4.811
79161CL-    CL-40472  18.229  42.336  13.022
79162CL-    CL-40473  29.057  34.009   3.639
79163CL-    CL-40474  15.797   9.214   3.337
79164CL-    CL-40475  32.465  12.270   0.751
79165CL-    CL-40476   8.890   2.235   0.780
79166CL-    CL-40477   1.788   8.709  12.345
79167CL-    CL-40478   0.387  24.088   2.694
79168CL-    CL-40479  10.175  32.448  14.858
79169CL-    CL-40480  23.595  18.293  12.058
79170CL-    CL-40481  24.061  12.116  11.433
79171CL-    CL-40482  28.546  23.046   0.955
79172CL-    CL-40483  28.087  33.468   1.264
79173CL-    CL-40484  18.629  11.670   3.714
79174CL-    CL-40485   9.308   3.300   2.728
79175CL-    CL-40486   5.747  36.033   0.358
79176CL-    CL-40487  36.547  14.686   2.399
79177CL-    CL-40488  20.690  13.774   5.155
79178CL-    CL-40489  38.993  10.319  11.509
79179CL-    CL-40490  37.066  39.965  13.403
79180CL-    CL-40491  18.193   6.690  14.508
79181CL-    CL-40492  12.804  26.556  14.506
79182CL-    CL-40493  13.151  24.559  11.522
79183CL-    CL-40494   5.776  11.334   0.824
79184CL-    CL-40495  25.605  41.911   3.791
79185CL-    CL-40496  44.451  31.621   0.767
79186CL-    CL-40497  40.909  33.077   2.772
79187CL-    CL-40498  37.520  38.958   2.188
79188CL-    CL-40499   2.415  33.941  11.428
79189CL-    CL-40500   0.291  34.460   0.475
79190CL-    CL-40501  13.800  40.029  12.456
79191CL-    CL-40502   2.892  12.123   0.307
79192CL-    CL-40503  41.856  17.633  10.935
79193CL-    CL-40504  26.670  27.155  10.428
79194CL-    CL-40505  38.506  43.329   1.265
79195CL-    CL-40506   9.883  37.425   2.191
79196CL-    CL-40507  12.697  44.864   1.277
79197CL-    CL-40508  42.951  40.441  11.972
79198CL-    CL-40509   8.791   6.312   2.293
79199CL-    CL-40510  11.668  22.100  14.439
79200CL-    CL-40511  13.230  44.807  13.920
79201CL-    CL-40512  36.501  28.114   2.868
79202CL-    CL-40513  42.836  24.578  13.841
79203CL-    CL-40514  20.550  18.604   0.886
79204CL-    CL-40515   2.848  32.606   3.690
79205CL-    CL-40516  35.552  22.744  12.959
79206CL-    CL-40517  36.958  36.508   2.188
79207CL-    CL-40518  18.285  29.024  14.819
79208CL-    CL-40519  29.641  36.562  12.443
79209CL-    CL-40520   1.867  38.374  12.910
79210CL-    CL-40521   4.877   3.789  12.541
79211CL-    CL-40522  25.054   0.299  12.048
79212CL-    CL-40523  13.346  20.700   0.310
79213CL-    CL-40524  23.511  12.741  11.120
79214CL-    CL-40525  14.251  12.153  13.909
79215CL-    CL-40526   6.731  40.890  10.951
79216CL-    CL-40527  15.634   0.912  13.432
79217CL-    CL-40528  37.972   1.365   4.117
79218CL-    CL-40529  41.393  13.623  14.977
79219CL-    CL-40530   9.348  18.650   3.866
79220CL-    CL-40531  18.761  39.502  10.637
79221CL-    CL-40532  20.270  44.810   1.777
79222CL-    CL-40533  38.341   6.347  13.394
79223CL-    CL-40534   0.783  28.993  13.032
79224CL-    CL-40535   8.370  18.122   3.248
79225CL-    CL-40536  14.673  12.274  10.625
79226CL-    CL-40537  41.889  39.393   2.675
79227CL-    CL-40538  41.413   7.823   2.348
79228CL-    CL-40539  12.676  38.434   1.286
79229CL-    CL-40540  13.200  10.193   3.752
79230CL-    CL-40541  42.445  40.994   1.277
79231CL-    CL-40542  42.848  18.243  13.542
79232CL-    CL-40543  19.731  11.176  13.030
79233CL-    CL-40544  41.862  19.164  14.027
79234CL-    CL-40545   6.917   4.434  11.456
79235CL-    CL-40546  18.671   1.849   1.386
79236CL-    CL-40547  32.629  20.082  13.498
79237CL-    CL-40548  17.598  20.627  13.969
79238CL-    CL-40549  30.609  43.340  10.918
79239CL-    CL-40550   9.741   0.450   3.830
79240CL-    CL-40551  28.009  14.109   1.884
79241CL-    CL-40552  34.947  24.683   1.911
79242CL-    CL-40553   4.404  28.093   2.684
79243CL-    CL-40554  11.686  29.060   3.867
79244CL-    CL-40555  37.884  13.838  14.286
79245CL-    CL-40556  13.842  35.954  12.386
79246CL-    CL-40557  36.061  19.173  13.322
79247CL-    CL-40558  39.825   5.911  13.947
79248CL-    CL-40559   2.768  18.601  12.886
79249CL-    CL-40560  20.268   1.917   3.287
79250CL-    CL-40561   1.467  31.620   1.871
79251CL-    CL-40562  27.191  22.127  14.782
79252CL-    CL-40563  11.744  20.684  11.974
79253CL-    CL-40564  44.886  21.757   0.785
79254CL-    CL-40565  41.000   8.302  14.350
79255CL-    CL-40566  38.951  43.922   2.362
79256CL-    CL-40567  34.967  16.595  11.472
79257CL-    CL-40568  40.507  31.548  11.989
79258CL-    CL-40569  40.338   1.356  12.859
79259CL-    CL-40570  19.775  22.055   3.262
79260CL-    CL-40571  24.070   3.752  14.853
79261CL-    CL-40572  32.010  23.985   2.270
79262CL-    CL-40573  10.827   5.332  14.332
79263CL-    CL-40574  17.666  36.536  13.855
79264CL-    CL-40575   0.263  10.699  11.493
79265CL-    CL-40576  44.782  29.430   0.903
79266CL-    CL-40577  43.935   3.884   1.798
79267CL-    CL-40578  36.527  33.899  12.430
79268CL-    CL-40579   2.873  44.501  14.879
79269CL-    CL-40580  26.669  42.425   4.653
79270CL-    CL-40581  38.555   7.701   3.720
79271CL-    CL-40582  15.314   9.392   2.698
79272CL-    CL-40583   7.842  23.650   5.148
79273CL-    CL-40584   8.827   8.740   0.286
79274CL-    CL-40585  36.422   9.685  14.494
79275CL-    CL-40586  16.672  35.428  11.477
79276CL-    CL-40587  36.361  20.249   3.739
79277CL-    CL-40588  20.145  15.696  11.612
79278CL-    CL-40589  21.621  25.540   4.227
79279CL-    CL-40590  33.125  22.572  13.985
79280CL-    CL-40591  37.046   5.400  14.810
79281CL-    CL-40592  18.707  40.398   4.274
79282CL-    CL-40593  14.696  38.012   2.390
79283CL-    CL-40594  10.832  32.416  14.327
79284CL-    CL-40595  29.632  32.037  10.973
79285CL-    CL-40596  37.478  11.809  14.783
79286CL-    CL-40597  18.739  21.225  10.928
79287CL-    CL-40598  34.910  35.471  11.505
79288CL-    CL-40599  25.139  30.040   1.390
79289CL-    CL-40600  42.852  25.176   0.814
79290CL-    CL-40601  44.865  37.952   3.808
79291CL-    CL-40602   6.388  12.351   3.304
79292CL-    CL-40603  20.063  11.139  12.921
79293CL-    CL-40604   0.873  12.791   3.261
79294CL-    CL-40605  44.435  15.263  12.519
79295CL-    CL-40606  26.519  13.695   2.670
79296CL-    CL-40607  38.447  25.972  11.891
79297CL-    CL-40608  24.004  35.948   3.363
79298CL-    CL-40609  19.113  33.053   4.327
79299CL-    CL-40610  40.045  17.748  13.506
79300CL-    CL-40611  37.534  28.183   0.871
79301CL-    CL-40612  42.987  18.053   4.647
79302CL-    CL-40613  21.047  42.809  12.938
79303CL-    CL-40614  44.007  20.182   3.381
79304CL-    CL-40615  35.094  43.330   0.879
79305CL-    CL-40616  21.618  41.940   0.878
79306CL-    CL-40617  20.734  17.624  11.042
79307CL-    CL-40618  18.117   4.361  14.312
79308CL-    CL-40619   5.822  33.984   2.791
79309CL-    CL-40620   8.876  43.003   0.478
79310CL-    CL-40621  32.600  43.011  13.356
79311CL-    CL-40622  33.086  37.579  12.508
79312CL-    CL-40623   6.914  36.938   3.747
79313CL-    CL-40624  28.935  24.495  13.016
79314CL-    CL-40625  16.116  38.354   1.211
79315CL-    CL-40626  26.588  27.621  10.039
79316CL-    CL-40627  12.184  18.213  11.127
79317CL-    CL-40628  12.131  15.156   4.819
79318CL-    CL-40629  43.946  44.266  14.016
79319CL-    CL-40630  24.085   4.838   3.796
79320CL-    CL-40631  17.109  28.003  11.470
79321CL-    CL-40632  19.679  40.043   0.250
79322CL-    CL-40633  18.787  11.135   2.901
79323CL-    CL-40634  26.139   4.234  13.481
79324CL-    CL-40635   7.337  44.340  11.911
79325CL-    CL-40636   0.338  16.765  11.472
79326CL-    CL-40637  22.666  43.355  14.960
79327CL-    CL-40638  13.740  19.142   4.649
79328CL-    CL-40639  15.270   6.886   2.360
79329CL-    CL-40640   5.860  28.135   3.302
79330CL-    CL-40641  27.524  25.101   1.375
79331CL-    CL-40642  23.104  44.991   2.259
79332CL-    CL-40643  33.101  16.766  11.903
79333CL-    CL-40644  17.556  40.432  13.037
79334CL-    CL-40645  31.596  39.373   2.742
79335CL-    CL-40646  11.262  37.030  12.471
79336CL-    CL-40647  42.799  25.468  12.079
79337CL-    CL-40648  16.585   9.335  12.417
79338CL-    CL-40649  26.545  31.106   0.280
79339CL-    CL-40650   9.854  40.808  14.920
79340CL-    CL-40651  37.378  36.440   1.706
79341CL-    CL-40652  17.556   8.890   0.836
79342CL-    CL-40653  37.576  19.616   2.670
79343CL-    CL-40654  23.515  14.124  10.442
79344CL-    CL-40655   2.836  31.966   2.732
79345CL-    CL-40656  30.988  25.018   0.911
79346CL-    CL-40657  30.000  14.619   0.455
79347CL-    CL-40658  36.920   3.361  12.038
79348CL-    CL-40659  32.561  29.664  13.928
79349CL-    CL-40660  44.754   1.937   1.379
79350CL-    CL-40661   8.743  27.531  11.950
79351CL-    CL-40662  22.055  17.618   0.830
79352CL-    CL-40663  23.507  41.438  10.888
79353CL-    CL-40664   5.789  19.072   4.160
79354CL-    CL-40665  32.894  32.132  11.011
79355CL-    CL-40666  22.555  35.485   3.256
79356CL-    CL-40667  29.487  35.541   0.794
79357CL-    CL-40668  29.983  25.669   2.271
79358CL-    CL-40669  42.916  18.663   1.353
79359CL-    CL-40670  15.797   5.773   9.461
79360CL-    CL-40671  35.954  37.553   4.725
79361CL-    CL-40672   4.373   5.809   3.163
79362CL-    CL-40673  40.979  31.069   4.300
79363CL-    CL-40674   7.202   5.907   1.879
79364CL-    CL-40675  10.222   0.783  11.987
79365CL-    CL-40676  31.935   7.754  13.460
79366CL-    CL-40677  18.187  34.056   1.271
79367CL-    CL-40678  34.067  38.867  10.460
79368CL-    CL-40679  39.022   0.762   4.814
79369CL-    CL-40680  10.662  22.671   2.372
79370CL-    CL-40681  32.987  31.103   3.855
79371CL-    CL-40682  30.026  44.971   2.760
79372CL-    CL-40683   2.360  30.930   1.822
79373CL-    CL-40684   9.657  24.068   2.693
79374CL-    CL-40685  44.423   1.741   2.781
79375CL-    CL-40686  17.786  36.488   4.771
79376CL-    CL-40687  11.744  41.532   0.348
79377CL-    CL-40688  10.867  18.767  11.486
79378CL-    CL-40689  34.397  30.020  13.862
79379CL-    CL-40690  32.618  37.929  11.035
79380CL-    CL-40691  29.973   6.292  13.359
79381CL-    CL-40692   6.728  28.931   0.337
79382CL-    CL-40693  27.995  15.686   2.744
79383CL-    CL-40694  36.027  28.167   0.245
79384CL-    CL-40695  26.691  18.653   0.366
79385CL-    CL-40696  28.479  38.986  10.913
79386CL-    CL-40697  37.863  13.187  11.442
79387CL-    CL-40698  20.200  27.960   4.287
79388CL-    CL-40699  35.452   2.829   0.764
79389CL-    CL-40700  31.093  22.047  11.462
79390CL-    CL-40701  33.107  39.405   1.328
79391CL-    CL-40702  14.097  30.519  10.010
79392CL-    CL-40703  30.025  40.986   1.848
79393CL-    CL-40704  34.068  20.148  11.508
79394CL-    CL-40705   6.684  14.774  12.836
79395CL-    CL-40706   0.393  12.815  13.014
79396CL-    CL-40707  19.680  23.575  14.348
79397CL-    CL-40708  12.833  26.680   3.329
79398CL-    CL-40709  21.132  18.705   3.743
79399CL-    CL-40710  21.085   2.943   0.336
79400CL-    CL-40711  22.157  12.232  11.912
79401CL-    CL-40712   7.747  42.929   1.801
79402CL-    CL-40713  15.269  13.290  10.486
79403CL-    CL-40714   2.878  29.543  10.982
79404CL-    CL-40715  40.356   6.327   1.709
79405CL-    CL-40716   0.256  25.988   3.734
79406CL-    CL-40717  33.527  10.748   2.363
79407CL-    CL-40718  34.927  33.898  13.519
79408CL-    CL-40719  34.015   2.391   3.333
79409CL-    CL-40720  27.168  33.877  13.982
79410CL-    CL-40721  10.298  27.986   1.791
79411CL-    CL-40722  11.211  24.043  14.882
79412CL-    CL-40723   6.707   2.420   1.887
79413CL-    CL-40724  12.244   9.877  11.475
79414CL-    CL-40725  39.011  42.842  11.558
79415CL-    CL-40726   4.325  33.528   3.185
79416CL-    CL-40727  34.864  44.881  12.826
79417CL-    CL-40728  36.916  24.053  13.372
79418CL-    CL-40729   9.764  22.529  10.951
79419CL-    CL-40730  33.437  44.958   3.782
79420CL-    CL-40731  39.961   4.822  11.414
79421CL-    CL-40732  21.259   0.964   2.323
79422CL-    CL-40733  30.605  12.848   3.711
79423CL-    CL-40734   7.334  40.346   4.653
79424CL-    CL-40735  18.698   2.724  11.890
79425CL-    CL-40736  42.396  21.732   3.801
79426CL-    CL-40737  22.634  30.638  13.453
79427CL-    CL-40738  37.026  36.565   3.320
79428CL-    CL-40739   3.230  31.967  12.369
79429CL-    CL-40740  28.672  13.106   2.860
79430CL-    CL-40741  19.760  23.177  10.960
79431CL-    CL-40742  12.251  24.561   4.685
79432CL-    CL-40743   8.191   5.203  13.826
79433CL-    CL-40744  29.555  21.240  11.512
79434CL-    CL-40745  36.039  34.087  10.085
79435CL-    CL-40746  16.105  23.625   5.733
79436CL-    CL-40747  27.598  35.101   4.680
79437CL-    CL-40748  16.768  17.204  14.353
79438CL-    CL-40749  31.466  17.273  12.934
79439CL-    CL-40750  14.660  13.158   1.886
79440CL-    CL-40751  32.120  12.332  10.492
79441CL-    CL-40752  27.173  14.313  11.035
79442CL-    CL-40753  13.662   3.743   0.770
79443CL-    CL-40754  35.489  44.932   2.792
79444CL-    CL-40755  12.775   6.254  11.875
79445CL-    CL-40756  43.435   3.927   3.277
79446CL-    CL-40757   5.708   0.929   1.312
79447CL-    CL-40758  40.359  35.562  12.463
79448CL-    CL-40759  24.531   9.391  13.916
79449CL-    CL-40760  16.263  39.402   1.348
79450CL-    CL-40761  10.678  43.823   4.204
79451CL-    CL-40762  42.815  44.291  12.507
79452CL-    CL-40763  26.069  42.876  10.425
79453CL-    CL-40764  25.704  12.739   4.273
79454CL-    CL-40765   3.811  18.059  11.417
79455CL-    CL-40766   4.843  14.739  13.922
79456CL-    CL-40767  26.004  30.038  12.342
79457CL-    CL-40768  22.581  15.796  11.420
79458CL-    CL-40769  44.289   5.363   2.899
79459CL-    CL-40770   5.728  22.546   4.238
79460CL-    CL-40771  44.470   1.400  13.882
79461CL-    CL-40772  21.029  24.086  12.837
79462CL-    CL-40773  29.136  30.117   2.784
79463CL-    CL-40774  24.072  33.589   4.255
79464CL-    CL-40775  39.033  43.355  11.943
79465CL-    CL-40776  36.005  28.642  12.049
79466CL-    CL-40777   6.775  10.259  11.033
79467CL-    CL-40778  23.117  30.459  13.896
79468CL-    CL-40779   6.914  12.264   1.411
79469CL-    CL-40780  18.125  24.660   4.769
79470CL-    CL-40781   7.815  40.326  12.071
79471CL-    CL-40782  44.882  31.071   0.836
79472CL-    CL-40783  15.226  17.133   3.696
79473CL-    CL-40784  33.050  24.676   2.248
79474CL-    CL-40785  39.418  20.101   4.281
79475CL-    CL-40786  35.499   5.892  14.465
79476CL-    CL-40787  25.536   4.898   4.748
79477CL-    CL-40788  22.056  17.073  12.905
79478CL-    CL-40789  37.963   2.469   4.147
79479CL-    CL-40790   3.715  35.464  14.503
79480CL-    CL-40791  30.041   9.811   1.809
79481CL-    CL-40792   3.376  27.168   4.771
79482CL-    CL-40793  13.748   9.813   2.877
79483CL-    CL-40794  36.925   2.952  10.559
79484CL-    CL-40795  22.086   0.434   3.282
79485CL-    CL-40796  42.929  43.296   0.792
79486CL-    CL-40797   9.726  43.437  13.906
79487CL-    CL-40798  25.189  29.087   3.203
79488CL-    CL-40799  36.511  29.983   0.425
79489CL-    CL-40800  15.246  12.692   4.726
79490CL-    CL-40801  41.980   1.324  13.025
79491CL-    CL-40802  44.777   3.850   3.727
79492CL-    CL-40803   9.183  15.712  13.517
79493CL-    CL-40804  22.504  26.035  13.800
79494CL-    CL-40805  37.067   8.887  14.481
79495CL-    CL-40806  29.129   4.916  14.961
79496CL-    CL-40807   0.453  15.738   3.654
79497CL-    CL-40808  18.563  27.454  12.003
79498CL-    CL-40809  11.667   2.300   0.357
79499CL-    CL-40810   9.365  11.174  10.420
79500CL-    CL-40811  42.016   3.321   5.211
79501CL-    CL-40812  42.367  39.960  12.849
79502CL-    CL-40813  35.411  21.584  13.446
79503CL-    CL-40814  17.794   1.374   3.806
79504CL-    CL-40815   8.754   0.864  10.477
79505CL-    CL-40816  15.685  14.616   2.846
79506CL-    CL-40817  28.513   3.886  11.432
79507CL-    CL-40818  13.639  40.999  12.923
79508CL-    CL-40819  31.074   2.870  13.056
79509CL-    CL-40820  42.835  22.196   3.385
79510CL-    CL-40821  19.176  22.613   4.348
79511CL-    CL-40822   6.427  37.884  12.434
79512CL-    CL-40823   7.232  19.236  14.903
79513CL-    CL-40824  37.533   3.357   3.208
79514CL-    CL-40825  31.468  15.766   1.451
79515CL-    CL-40826  22.713  31.010  13.827
79516CL-    CL-40827  19.565  11.255  13.409
79517CL-    CL-40828  29.485  20.233  10.424
79518CL-    CL-40829   4.732  42.523   3.205
79519CL-    CL-40830  30.036  32.585   1.869
79520CL-    CL-40831  24.176  31.629   0.856
79521CL-    CL-40832  18.206  40.913  14.936
79522CL-    CL-40833  39.855  42.010   3.254
79523CL-    CL-40834  35.042  44.819  11.051
79524CL-    CL-40835  29.982   2.268   1.441
79525CL-    CL-40836   8.822  39.861  10.565
79526CL-    CL-40837  27.523  26.564  13.454
79527CL-    CL-40838   3.915  19.119  13.323
79528CL-    CL-40839  27.011  44.986  14.328
79529CL-    CL-40840  43.952  40.845   2.665
79530CL-    CL-40841  43.922  37.555  10.556
79531CL-    CL-40842   2.842   4.423  10.413
79532CL-    CL-40843  37.507  11.314  10.923
79533CL-    CL-40844  34.468  22.667  10.996
79534CL-    CL-40845  13.642  33.455   0.472
79535CL-    CL-40846  43.879  23.073   1.893
79536CL-    CL-40847  31.034  29.586  11.910
79537CL-    CL-40848  43.300  21.558   3.775
79538CL-    CL-40849   8.872  20.220   2.294
79539CL-    CL-40850   8.746  40.488  11.410
79540CL-    CL-40851  24.703  15.226   0.376
79541CL-    CL-40852  28.980  33.533  12.993
79542CL-    CL-40853  44.350  21.540   4.777
79543CL-    CL-40854  13.158  32.521   4.682
79544CL-    CL-40855  22.215  34.944   0.349
79545CL-    CL-40856   3.255  26.989  14.010
79546CL-    CL-40857   0.284  11.193  13.382
79547CL-    CL-40858  16.276   8.800  13.399
79548CL-    CL-40859  13.245  34.466   3.181
79549CL-    CL-40860  19.587  35.495   4.131
79550CL-    CL-40861  12.745  30.930   3.793
79551CL-    CL-40862  42.443   6.309   4.767
79552CL-    CL-40863  37.354  11.197  10.520
79553CL-    CL-40864   2.941  30.558  14.880
79554CL-    CL-40865   9.212  19.250   3.344
79555CL-    CL-40866  14.684  40.823   2.191
79556CL-    CL-40867  26.951  11.249   2.725
79557CL-    CL-40868  15.238   0.318  12.510
79558CL-    CL-40869   2.938  23.108   0.433
79559CL-    CL-40870  23.099   6.876   4.254
79560CL-    CL-40871  30.113  32.968  12.952
79561CL-    CL-40872  14.104   6.826   4.175
79562CL-    CL-40873  19.151  12.210   3.327
79563CL-    CL-40874  13.122  13.668  13.946
79564CL-    CL-40875   0.783  20.531   4.647
79565CL-    CL-40876   1.811   9.355   0.463
79566CL-    CL-40877  41.449   8.166  13.048
79567CL-    CL-40878  31.038  42.394  10.922
79568CL-    CL-40879  10.708   6.706  12.494
79569CL-    CL-40880  15.598  29.930   1.742
79570CL-    CL-40881  26.540  17.133  12.368
79571CL-    CL-40882   8.251  43.772  13.912
79572CL-    CL-40883  18.680  33.447   2.691
79573CL-    CL-40884   1.813  19.606  14.412
79574CL-    CL-40885  42.889  37.547   3.730
79575CL-    CL-40886  23.143  23.647   2.793
79576CL-    CL-40887  38.872  25.176  11.042
79577CL-    CL-40888  34.449  32.409   3.658
79578CL-    CL-40889  36.021   8.754  14.497
79579CL-    CL-40890   2.923   7.280  14.386
79580CL-    CL-40891  37.467  15.582   0.815
79581CL-    CL-40892   7.762   0.810   4.154
79582CL-    CL-40893  20.556  35.558  12.414
79583CL-    CL-40894  26.554  39.002   5.206
79584CL-    CL-40895  38.828  25.636   2.828
79585CL-    CL-40896  24.485  13.302  11.418
79586CL-    CL-40897   6.837  16.272  10.986
79587CL-    CL-40898  20.623  36.486   4.614
79588CL-    CL-40899  35.376  40.858   0.870
79589CL-    CL-40900  41.002  31.100   2.404
79590CL-    CL-40901  10.698  13.137  13.450
79591CL-    CL-40902  38.388  43.827  13.310
79592CL-    CL-40903   9.710  31.989   2.364
79593CL-    CL-40904  31.604  43.369   3.344
79594CL-    CL-40905  16.200  28.003  13.502
79595CL-    CL-40906  33.605  38.861  11.994
79596CL-    CL-40907  28.044   3.364   3.326
79597CL-    CL-40908  43.315  41.469  13.385
79598CL-    CL-40909  22.144   2.801  14.383
79599CL-    CL-40910  28.099  21.142   0.941
79600CL-    CL-40911  33.013  44.924   3.286
79601CL-    CL-40912  23.033  16.693  14.339
79602CL-    CL-40913  27.576  26.047  10.592
79603CL-    CL-40914  23.676  25.193  14.957
79604CL-    CL-40915  15.822  29.443  11.945
79605CL-    CL-40916  41.499   0.384  10.486
79606CL-    CL-40917  43.833  14.328  14.890
79607CL-    CL-40918   0.339  37.432  14.018
79608CL-    CL-40919  10.236  13.761  10.000
79609CL-    CL-40920  27.463  33.399   4.730
79610CL-    CL-40921  37.083   2.955   1.703
79611CL-    CL-40922  42.022   4.268   0.302
79612CL-    CL-40923   5.833  11.625  12.948
79613CL-    CL-40924  22.617  39.376   0.408
79614CL-    CL-40925   5.718  38.338  14.824
79615CL-    CL-40926  38.897   6.358   2.739
79616CL-    CL-40927  13.634  17.195   1.918
79617CL-    CL-40928  31.109  10.342   0.422
79618CL-    CL-40929  14.117  39.010   4.649
79619CL-    CL-40930  33.484  28.065  14.839
79620CL-    CL-40931  31.046   8.768   2.269
79621CL-    CL-40932   8.830  38.966  12.882
79622CL-    CL-40933  29.445  33.497   5.289
79623CL-    CL-40934  22.230  25.523   0.789
79624CL-    CL-40935   3.854   4.421   3.857
79625CL-    CL-40936   2.237  10.272   0.730
79626CL-    CL-40937  36.353  37.558  12.844
79627CL-    CL-40938  37.890  25.526  10.435
79628CL-    CL-40939   5.398  43.424  10.623
79629CL-    CL-40940  44.931  13.302   2.767
79630CL-    CL-40941  20.101  12.228   4.331
79631CL-    CL-40942  37.867   2.300   3.631
79632CL-    CL-40943   4.211   6.848  14.506
79633CL-    CL-40944  34.451  44.006  12.441
79634CL-    CL-40945  37.033  34.866   1.718
79635CL-    CL-40946  11.728  26.155   4.690
79636CL-    CL-40947  11.827  25.481   1.776
79637CL-    CL-40948   7.377   4.928  13.800
79638CL-    CL-40949  43.890  25.020  11.521
79639CL-    CL-40950  17.797  25.217   9.454
79640CL-    CL-40951  37.880  14.290  11.909
79641CL-    CL-40952   7.727   7.187   1.904
79642CL-    CL-40953   8.803  27.602   1.923
79643CL-    CL-40954   7.233  29.072   4.798
79644CL-    CL-40955  38.011  33.064  11.955
79645CL-    CL-40956   8.803  37.011   2.692
79646CL-    CL-40957  43.473  27.675  12.548
79647CL-    CL-40958  32.065  24.997  13.013
79648CL-    CL-40959  23.634  30.943  12.497
79649CL-    CL-40960   7.849  23.116  13.811
79650CL-    CL-40961   0.342  15.639   2.822
79651CL-    CL-40962  31.030  37.457  11.566
79652CL-    CL-40963  39.904  22.605   1.893
79653CL-    CL-40964   9.202  13.754   0.458
79654CL-    CL-40965  25.125  18.297  14.429
79655CL-    CL-40966  37.014  19.704  12.852
79656CL-    CL-40967  27.968  30.937   3.632
79657CL-    CL-40968  17.301   3.412   5.738
79658CL-    CL-40969  30.096  18.624  10.607
79659CL-    CL-40970  33.060  28.637  14.853
79660CL-    CL-40971   1.778  14.318   0.400
79661CL-    CL-40972  23.147  36.875  10.642
79662CL-    CL-40973  11.185  41.027   3.837
79663CL-    CL-40974  41.855  38.514  12.525
79664CL-    CL-40975  39.844   9.885  14.328
79665CL-    CL-40976  17.261  36.557  10.584
79666CL-    CL-40977  38.449  21.621   0.960
79667CL-    CL-40978  21.173   2.818   1.344
79668CL-    CL-40979  44.894  18.669  10.563
79669CL-    CL-40980  14.192  21.679   2.826
79670CL-    CL-40981  37.540  24.141  10.642
79671CL-    CL-40982  31.998  38.569   2.212
79672CL-    CL-40983   3.907  23.116  10.411
79673CL-    CL-40984  40.837  30.643   4.318
79674CL-    CL-40985  19.180   3.381  14.007
79675CL-    CL-40986  41.297  22.079   4.156
79676CL-    CL-40987  36.565  28.093   5.238
79677CL-    CL-40988  20.028  28.976   2.354
79678CL-    CL-40989  12.766  38.991   4.185
79679CL-    CL-40990   1.454  11.325   2.258
79680CL-    CL-40991   4.711  34.006   2.820
79681CL-    CL-40992  36.919  38.835  14.921
79682CL-    CL-40993  20.235  11.252   4.260
79683CL-    CL-40994  33.952  31.476  12.455
79684CL-    CL-40995  31.467  22.542  12.997
79685CL-    CL-40996  11.711   2.433   4.826
79686CL-    CL-40997   1.955  34.531  12.033
79687CL-    CL-40998  28.122  27.501  11.565
79688CL-    CL-40999  21.044  16.103   3.864
79689CL-    CL-41000  23.113  39.344  14.792
79690CL-    CL-41001  15.744  12.336  11.553
79691CL-    CL-41002  31.625   5.432  13.541
79692CL-    CL-41003  39.330  26.103  13.454
79693CL-    CL-41004  15.178  24.132   0.266
79694CL-    CL-41005  35.380  41.305   4.312
79695CL-    CL-41006  11.145  11.209  13.443
79696CL-    CL-41007   2.916  32.978  12.851
79697CL-    CL-41008  27.068   6.424  13.039
79698CL-    CL-41009  17.091  31.454  14.768
79699CL-    CL-41010  25.997  12.646  14.318
79700CL-    CL-41011  15.124  21.679   5.171
79701CL-    CL-41012  24.503  11.647   2.329
79702CL-    CL-41013  12.324  17.650  11.079
79703CL-    CL-41014   5.787  38.875   1.442
79704CL-    CL-41015   4.855  19.744  10.940
79705CL-    CL-41016  28.933  15.634   1.793
79706CL-    CL-41017  16.571   2.227   4.127
79707CL-    CL-41018  24.099  37.544   2.308
79708CL-    CL-41019  38.452  14.813   2.341
79709CL-    CL-41020  15.189  35.883   1.828
79710CL-    CL-41021  37.890  30.055  14.443
79711CL-    CL-41022  13.193  25.023  11.577
79712CL-    CL-41023   6.780  40.821   1.400
79713CL-    CL-41024  42.442  18.603   1.257
79714CL-    CL-41025  41.297  27.590   1.724
79715CL-    CL-41026  27.193   7.687  11.094
79716CL-    CL-41027  13.692  44.882   3.659
79717CL-    CL-41028  13.607   2.261  11.112
79718CL-    CL-41029  12.672   2.450  11.570
79719CL-    CL-41030  24.189  21.629  13.518
79720CL-    CL-41031  11.642  36.520  11.048
79721CL-    CL-41032   2.407  19.156  12.075
79722CL-    CL-41033  17.130   1.888   9.967
79723CL-    CL-41034  21.719   2.320  10.616
79724CL-    CL-41035   2.351  25.164  14.878
79725CL-    CL-41036  15.765  28.155  14.361
79726CL-    CL-41037   9.322   4.244  13.055
79727CL-    CL-41038  18.661  34.952   5.097
79728CL-    CL-41039  38.942  14.614  14.962
79729CL-    CL-41040  25.694   9.190  14.964
79730CL-    CL-41041  44.952  17.745   2.404
79731CL-    CL-41042   6.797  19.228   1.275
79732CL-    CL-41043  40.991  15.713  10.479
79733CL-    CL-41044  39.464  35.882  10.546
79734CL-    CL-41045   3.356  16.149  11.371
79735CL-    CL-41046   4.404  11.190   0.371
79736CL-    CL-41047  23.665   5.795  14.848
79737CL-    CL-41048  11.679  43.316  11.589
79738CL-    CL-41049  22.175   9.654   3.168
79739CL-    CL-41050  15.625   6.743   0.282
79740CL-    CL-41051  28.626   6.282   3.156
79741CL-    CL-41052  44.998  20.769  12.985
79742CL-    CL-41053  13.682  28.169  10.586
79743CL-    CL-41054  18.207   1.315  14.332
79744CL-    CL-41055  23.142   1.378   4.725
79745CL-    CL-41056  30.013  14.722  11.523
79746CL-    CL-41057  25.218  38.410  12.032
79747CL-    CL-41058  21.057   9.845  13.883
79748CL-    CL-41059  39.550  18.128  11.922
79749CL-    CL-41060   1.372  36.492  10.444
79750CL-    CL-41061  43.316  39.338  12.055
79751CL-    CL-41062  12.215  21.165  13.989
79752CL-    CL-41063  35.983  41.362  11.602
79753CL-    CL-41064  32.142   0.759   4.768
79754CL-    CL-41065  17.585  11.234  13.966
79755CL-    CL-41066  23.103  38.529   1.370
79756CL-    CL-41067  16.255  31.947  12.955
79757CL-    CL-41068  44.995  12.251  12.052
79758CL-    CL-41069  32.104  36.954  14.840
79759CL-    CL-41070  38.062  32.077   9.936
79760CL-    CL-41071  44.275  17.211  13.920
79761CL-    CL-41072  16.684  23.071   0.315
79762CL-    CL-41073  31.615  35.453   3.716
79763CL-    CL-41074  22.565  37.838   3.678
79764CL-    CL-41075  14.271   6.291   3.822
79765CL-    CL-41076   3.864  26.596  12.050
79766CL-    CL-41077  36.866   5.231  11.086
79767CL-    CL-41078  33.426  15.785   4.834
79768CL-    CL-41079   8.821  37.835  14.371
79769CL-    CL-41080  21.224  13.829   3.254
79770CL-    CL-41081  29.057  15.776  12.457
79771CL-    CL-41082  31.991   2.901   3.785
79772CL-    CL-41083  15.163  15.678  14.863
79773CL-    CL-41084  35.562  22.558   2.716
79774CL-    CL-41085   2.328  28.062  14.817
79775CL-    CL-41086  39.977   8.888  11.086
79776CL-    CL-41087  28.146   2.962  10.468
79777CL-    CL-41088  24.058  44.286   3.818
79778CL-    CL-41089  37.016  17.247  14.860
79779CL-    CL-41090  41.306  16.318   0.860
79780CL-    CL-41091  13.713  40.809  14.856
79781CL-    CL-41092   3.746  41.917  12.457
79782CL-    CL-41093  29.157  43.414   3.738
79783CL-    CL-41094   8.162  24.102  14.023
79784CL-    CL-41095  20.080  11.198  14.479
79785CL-    CL-41096   1.469  34.029  10.959
79786CL-    CL-41097  26.467  39.947  10.462
79787CL-    CL-41098  26.593  33.539   4.784
79788CL-    CL-41099  15.090  37.084   3.198
79789CL-    CL-41100  37.936  10.227  14.861
79790CL-    CL-41101   5.789  44.937  11.103
79791CL-    CL-41102  42.418  33.542  13.453
79792CL-    CL-41103  22.731  32.066   3.690
79793CL-    CL-41104  31.548  34.512  12.900
79794CL-    CL-41105   0.277  25.565  13.945
79795CL-    CL-41106   6.882  16.082   1.880
79796CL-    CL-41107   8.181  18.106   2.224
79797CL-    CL-41108  23.120  27.681   4.164
79798CL-    CL-41109  32.509  43.972   4.800
79799CL-    CL-41110  18.551  43.862  14.494
79800CL-    CL-41111  38.032   0.932   3.795
79801CL-    CL-41112   1.895  27.659   4.297
79802CL-    CL-41113  35.881   5.425   3.283
79803CL-    CL-41114  14.599  23.652  12.972
79804CL-    CL-41115   2.910  16.632   0.869
79805CL-    CL-41116  31.077  36.089   2.409
79806CL-    CL-41117  25.087  16.774   0.456
79807CL-    CL-41118   1.906  37.400   4.686
79808CL-    CL-41119  17.187  11.852  13.930
79809CL-    CL-41120   3.244  19.564   0.808
79810CL-    CL-41121  35.004  30.092   1.452
79811CL-    CL-41122  39.553   4.915  11.443
79812CL-    CL-41123  15.638  32.485  10.937
79813CL-    CL-41124  23.094   4.927  11.603
79814CL-    CL-41125   1.427  39.004  10.431
79815CL-    CL-41126  25.566  39.057  14.344
79816CL-    CL-41127  29.561  26.647   1.712
79817CL-    CL-41128   3.269   3.773  10.591
79818CL-    CL-41129  44.963  26.068  12.839
79819CL-    CL-41130   6.845  19.231   4.201
79820CL-    CL-41131  16.084   0.823  11.118
79821CL-    CL-41132  29.563  33.927   0.788
79822CL-    CL-41133   5.223  12.131   1.808
79823CL-    CL-41134  38.398  14.669   4.751
79824CL-    CL-41135   7.306  27.945  14.955
79825CL-    CL-41136  20.764  41.965  14.888
79826CL-    CL-41137   4.849  37.982  14.388
79827CL-    CL-41138  35.393  24.030   3.378
79828CL-    CL-41139  12.211   1.901   0.951
79829CL-    CL-41140  30.524  10.791   3.773
79830CL-    CL-41141  18.662   9.695   1.760
79831CL-    CL-41142  22.609  20.551   0.274
79832CL-    CL-41143  38.846  27.109   0.279
79833CL-    CL-41144   6.860  22.046  10.974
79834CL-    CL-41145   7.886  11.367  12.492
79835CL-    CL-41146   5.307  10.380   2.712
79836CL-    CL-41147  19.687  27.060  12.999
79837CL-    CL-41148  41.302  19.143  11.498
79838CL-    CL-41149   9.837  11.148   4.812
79839CL-    CL-41150  11.850  24.041   2.220
79840CL-    CL-41151   9.652   9.820   0.768
79841CL-    CL-41152   7.900   4.892  14.438
79842CL-    CL-41153  15.222  38.325   4.179
79843CL-    CL-41154   3.428  14.106  14.470
79844CL-    CL-41155  29.969  15.758  11.881
79845CL-    CL-41156  24.522  19.224   2.801
79846CL-    CL-41157   0.742  24.138   2.194
79847CL-    CL-41158  39.015   9.717   4.276
79848CL-    CL-41159  35.079   7.345   3.826
79849CL-    CL-41160  38.368  24.220   1.326
79850CL-    CL-41161  20.527  44.808   0.472
79851CL-    CL-41162  37.398  29.571  14.495
79852CL-    CL-41163  28.133  23.093  12.829
79853CL-    CL-41164  37.000  18.551  12.536
79854CL-    CL-41165  38.037  20.190   0.391
79855CL-    CL-41166  34.994   8.900   3.712
79856CL-    CL-41167   8.282  25.998  12.381
79857CL-    CL-41168  14.613  20.212   4.331
79858CL-    CL-41169   6.275   2.367  10.464
79859CL-    CL-41170  14.730  18.075   2.824
79860CL-    CL-41171  17.605   2.472  13.525
79861CL-    CL-41172  22.232  42.891  13.386
79862CL-    CL-41173  26.022  15.142   1.737
79863CL-    CL-41174  38.483  15.101   4.349
79864CL-    CL-41175  33.562   7.348   1.727
79865CL-    CL-41176   4.410  32.058   0.278
79866CL-    CL-41177  32.063  11.834  11.076
79867CL-    CL-41178  39.373  32.473  13.841
79868CL-    CL-41179  16.793  20.196   4.731
79869CL-    CL-41180  34.613  17.161  11.482
79870CL-    CL-41181  33.622  14.112  12.437
79871CL-    CL-41182  34.906  15.667   2.708
79872CL-    CL-41183  37.940  32.412   3.154
79873CL-    CL-41184  13.699  23.185  12.026
79874CL-    CL-41185  44.383   5.408   0.814
79875CL-    CL-41186  37.848  19.684  12.403
79876CL-    CL-41187  13.322  21.130   4.768
79877CL-    CL-41188  31.056  18.607  10.473
79878CL-    CL-41189  35.942   3.315  11.525
79879CL-    CL-41190  44.402   8.898   3.376
79880CL-    CL-41191  43.811   8.182   3.180
79881CL-    CL-41192  40.822   8.675  13.541
79882CL-    CL-41193  13.301  33.438  11.952
79883CL-    CL-41194  10.726  34.077   4.828
79884CL-    CL-41195   1.277  38.358  11.391
79885CL-    CL-41196  29.972  21.069  13.791
79886CL-    CL-41197  13.301  36.991  13.362
79887CL-    CL-41198  11.193  31.451  11.037
79888CL-    CL-41199  31.132  15.106  11.114
79889CL-    CL-41200  11.660  15.753  13.536
79890CL-    CL-41201  14.144  13.609   0.257
79891CL-    CL-41202  22.664  41.871   4.186
79892CL-    CL-41203  25.178  27.196   2.861
79893CL-    CL-41204  32.569  37.501  12.534
79894CL-    CL-41205   5.286  30.095  14.826
79895CL-    CL-41206   1.960  22.104   1.934
79896CL-    CL-41207   4.276   8.817  12.564
79897CL-    CL-41208   6.407   9.210  10.894
79898CL-    CL-41209  31.008  37.028  13.521
79899CL-    CL-41210  28.974  24.572   1.232
79900CL-    CL-41211  14.612   9.266   2.318
79901CL-    CL-41212  15.620   8.284  14.859
79902CL-    CL-41213  30.964  12.823  14.473
79903CL-    CL-41214  29.485  29.653  12.039
79904CL-    CL-41215   2.941  27.167   0.884
79905CL-    CL-41216  27.563  34.994  14.976
79906CL-    CL-41217  42.470   3.735   0.387
79907CL-    CL-41218  44.835  25.965  13.863
79908CL-    CL-41219  35.869  35.517   3.799
79909CL-    CL-41220  30.457  36.519  11.526
79910CL-    CL-41221  21.153   1.394  11.998
79911CL-    CL-41222  27.690  15.779  12.908
79912CL-    CL-41223  43.274  15.136   4.783
79913CL-    CL-41224  44.405  19.106   3.868
79914CL-    CL-41225  31.981  34.028  10.621
79915CL-    CL-41226  11.789  34.943  14.351
79916CL-    CL-41227  13.180  38.050  11.422
79917CL-    CL-41228  10.749   6.383   0.740
79918CL-    CL-41229  22.711  22.230   4.732
79919CL-    CL-41230  31.610   5.205   2.677
79920CL-    CL-41231  14.167   8.760  11.890
79921CL-    CL-41232   9.302  31.931   4.305
79922CL-    CL-41233   8.825  25.078  14.010
79923CL-    CL-41234  30.058  31.124   4.710
79924CL-    CL-41235  13.845  37.349  10.053
79925CL-    CL-41236   1.480  21.534  13.437
79926CL-    CL-41237   9.208  10.337  13.458
79927CL-    CL-41238  41.876  17.117  10.414
79928CL-    CL-41239  28.596  44.980   4.686
79929CL-    CL-41240  28.035  38.494  13.051
79930CL-    CL-41241   2.769  38.488  11.377
79931CL-    CL-41242  10.238  34.545   3.845
79932CL-    CL-41243  44.935  11.756   0.456
79933CL-    CL-41244  35.068  16.088  14.434
79934CL-    CL-41245   1.380  34.392  11.445
79935CL-    CL-41246  32.408  21.028   1.852
79936CL-    CL-41247   1.266  38.864   4.213
79937CL-    CL-41248  38.975  36.530   2.254
79938CL-    CL-41249  33.602  11.186  14.824
79939CL-    CL-41250  36.905  42.906   1.432
79940CL-    CL-41251  40.805  31.582   3.848
79941CL-    CL-41252   9.715  40.418   2.299
79942CL-    CL-41253  10.169   1.343   2.677
79943CL-    CL-41254  25.542  12.263  12.931
79944CL-    CL-41255   2.914  35.862  10.404
79945CL-    CL-41256   3.370  36.939  13.526
79946CL-    CL-41257  23.700  18.739  12.868
79947CL-    CL-41258  33.012  21.524  14.965
79948CL-    CL-41259  31.054   1.404   4.668
79949CL-    CL-41260  16.780  38.552   2.326
79950CL-    CL-41261   0.406  31.490   2.871
79951CL-    CL-41262  39.954  10.634   0.899
79952CL-    CL-41263  29.668  44.783  14.946
79953CL-    CL-41264  35.470  39.970  12.938
79954CL-    CL-41265  14.782  30.922  12.081
79955CL-    CL-41266  20.228  30.949  12.061
79956CL-    CL-41267  43.465   7.672   0.323
79957CL-    CL-41268  43.396  25.119   0.351
79958CL-    CL-41269  26.185   7.713  12.014
79959CL-    CL-41270   1.803  44.833  11.986
79960CL-    CL-41271  16.244  42.823   2.389
79961CL-    CL-41272  38.920  33.955   1.427
79962CL-    CL-41273   8.354  17.770  14.900
79963CL-    CL-41274  42.511  27.685  13.930
79964CL-    CL-41275  35.024   4.892  11.128
79965CL-    CL-41276  23.622  27.197   2.276
79966CL-    CL-41277  21.261  27.638  14.839
79967CL-    CL-41278  33.039  13.780   2.340
79968CL-    CL-41279  23.599  37.981   1.817
79969CL-    CL-41280  32.547  20.735  12.935
79970CL-    CL-41281  16.572   7.758  10.549
79971CL-    CL-41282  37.396   7.709   4.672
79972CL-    CL-41283   7.314  27.577  14.785
79973CL-    CL-41284  13.734   7.898  12.888
79974CL-    CL-41285  28.016  43.930  14.377
79975CL-    CL-41286   3.718  44.373   1.288
79976CL-    CL-41287  29.985  37.893  10.645
79977CL-    CL-41288  32.128  42.489   3.739
79978CL-    CL-41289  16.570  10.723  13.064
79979CL-    CL-41290  11.635  32.952   0.426
79980CL-    CL-41291  33.380   6.307   5.231
79981CL-    CL-41292  39.025  12.834   1.242
79982CL-    CL-41293  22.648  28.070  14.766
79983CL-    CL-41294  30.089  37.869  12.915
79984CL-    CL-41295  22.684  16.737  14.859
79985CL-    CL-41296  27.111  37.544  10.988
79986CL-    CL-41297  22.573  21.083   3.384
79987CL-    CL-41298  31.492  28.129   3.370
79988CL-    CL-41299   3.847   8.177  11.924
79989CL-    CL-41300  25.683  34.074  10.912
79990CL-    CL-41301   8.698  12.728   1.434
79991CL-    CL-41302  26.117  18.608  13.422
79992CL-    CL-41303   0.326  31.507   1.859
79993CL-    CL-41304  10.216  14.629  12.549
79994CL-    CL-41305   8.693  31.923   4.148
79995CL-    CL-41306  10.765  16.269   3.360
79996CL-    CL-41307   6.766   1.877  10.923
79997CL-    CL-41308  34.116  13.768  13.915
79998CL-    CL-41309  30.476  33.118  11.517
79999CL-    CL-41310  11.238  22.659  11.954
80000CL-    CL-41311  30.937  23.220  12.902
80001CL-    CL-41312  38.555   9.297   0.449
80002CL-    CL-41313  11.621  19.055   0.960
80003CL-    CL-41314   3.394   2.756  12.865
80004CL-    CL-41315   0.433  39.486  14.478
80005CL-    CL-41316  41.485  29.500  10.582
80006CL-    CL-41317  39.478   7.316   4.332
80007CL-    CL-41318  12.347   5.357   5.264
80008CL-    CL-41319  38.437   7.395  10.552
80009CL-    CL-41320   6.403  42.511   2.715
80010CL-    CL-41321  10.330   2.858  11.592
80011CL-    CL-41322  31.961  19.544  12.070
80012CL-    CL-41323  23.502   8.173   4.219
80013CL-    CL-41324  39.993  35.021  13.853
80014CL-    CL-41325  43.314  27.508   2.243
80015CL-    CL-41326  14.325  32.036   0.363
80016CL-    CL-41327  42.010  22.651  10.597
80017CL-    CL-41328  25.976   0.951   1.783
80018CL-    CL-41329  15.274  22.711  14.376
80019CL-    CL-41330  36.485   7.298   1.432
80020CL-    CL-41331  23.645   2.338  13.500
80021CL-    CL-41332  29.628  44.911   1.872
80022CL-    CL-41333  27.591  10.801  13.912
80023CL-    CL-41334  39.857  13.721  13.023
80024CL-    CL-41335  17.084  39.530   9.990
80025CL-    CL-41336  27.155  21.167   3.235
80026CL-    CL-41337  22.199  39.522   2.256
80027CL-    CL-41338  39.537  43.764  13.313
80028CL-    CL-41339  32.935   7.172  14.338
80029CL-    CL-41340  41.926  29.581  13.868
80030CL-    CL-41341  12.718  16.675  12.011
80031CL-    CL-41342  22.115  38.923   3.250
80032CL-    CL-41343  21.157  22.511   3.237
80033CL-    CL-41344  30.055  34.578  14.848
80034CL-    CL-41345   1.743  15.763   2.663
80035CL-    CL-41346  38.481   3.872   0.793
80036CL-    CL-41347  17.081  29.999  12.903
80037CL-    CL-41348   5.227  42.298   3.642
80038CL-    CL-41349  22.657  13.111   4.609
80039CL-    CL-41350  17.068  27.019   2.840
80040CL-    CL-41351  40.841  44.399  11.479
80041CL-    CL-41352   0.905  23.175   1.757
80042CL-    CL-41353  20.726  33.905  13.438
80043CL-    CL-41354  13.762  28.579  10.518
80044CL-    CL-41355  17.137  42.971  14.995
80045CL-    CL-41356  10.377  40.045   2.319
80046CL-    CL-41357   6.257  26.027   0.788
80047CL-    CL-41358  35.897  28.993   0.289
80048CL-    CL-41359  27.065  39.812   4.131
80049CL-    CL-41360  20.747  21.225  11.449
80050CL-    CL-41361  10.744  38.054   1.376
80051CL-    CL-41362  19.770  10.838   0.952
80052CL-    CL-41363   1.976  40.996   2.866
80053CL-    CL-41364  25.208   4.861   1.356
80054CL-    CL-41365  18.586  37.504   1.809
80055CL-    CL-41366  18.209  13.155   4.829
80056CL-    CL-41367  41.837   5.865  14.474
80057CL-    CL-41368   8.211  33.115   0.838
80058CL-    CL-41369   1.438  29.475  11.919
80059CL-    CL-41370  24.220  44.904  11.026
80060CL-    CL-41371  24.554  28.158  13.494
80061CL-    CL-41372  34.592   2.956   4.669
80062CL-    CL-41373  27.545  32.395   4.318
80063CL-    CL-41374   1.271  35.877  10.571
80064CL-    CL-41375  18.731  36.940  14.835
80065CL-    CL-41376  30.933   4.715  14.300
80066CL-    CL-41377  18.705  35.882   0.816
80067CL-    CL-41378  36.364  12.318  12.370
80068CL-    CL-41379  16.585  35.928  12.999
80069CL-    CL-41380  39.506   4.750  12.871
80070CL-    CL-41381  23.205  42.867  10.553
80071CL-    CL-41382  13.818  27.632  13.460
80072CL-    CL-41383  14.238  28.680  11.424
80073CL-    CL-41384  29.568   1.733   1.841
80074CL-    CL-41385  41.522  38.858   4.614
80075CL-    CL-41386  26.670  21.709   0.446
80076CL-    CL-41387  32.441  26.515   4.233
80077CL-    CL-41388   2.427  41.452   0.362
80078CL-    CL-41389  15.238  40.981   2.669
80079CL-    CL-41390  40.415  17.677  12.009
80080CL-    CL-41391  12.288  22.707   0.957
80081CL-    CL-41392  27.121  23.111  14.876
80082CL-    CL-41393  21.126  14.825   2.700
80083CL-    CL-41394  30.648   1.751   3.297
80084CL-    CL-41395   5.910  29.076   3.191
80085CL-    CL-41396  14.712   7.832   2.327
80086CL-    CL-41397  33.037  31.996  10.444
80087CL-    CL-41398   4.774   6.235   0.867
80088CL-    CL-41399  11.792  37.506  14.892
80089CL-    CL-41400  15.196  16.092   4.300
80090CL-    CL-41401   8.872  33.113   3.674
80091CL-    CL-41402  13.755  27.604   2.179
  45.00000  45.00000  15.00000   0.00000   0.00000   0.00000   0.00000   0.00000   0.00000

